./temp.pdb in water
68847
    1G5     H5T    1   3.989   5.219   2.319 -0.1962 -0.6901  0.4404
    1G5     O5'    2   3.928   5.249   2.251  0.1112  0.5892  0.7121
    1G5     C5'    3   3.795   5.267   2.296  0.5414 -0.0235  0.4360
    1G5    H5'1    4   3.761   5.369   2.283 -1.8945 -0.6605  1.1380
    1G5    H5'2    5   3.795   5.250   2.404  1.4714 -0.7777  0.3377
    1G5     C4'    6   3.693   5.174   2.229  0.0136 -0.0014  0.3904
    1G5     H4'    7   3.603   5.235   2.231  0.6149  0.9407 -0.2772
    1G5     O4'    8   3.727   5.147   2.089 -0.6664 -0.1575 -0.8039
    1G5     C1'    9   3.699   5.008   2.061 -0.3071  0.6320 -0.3821
    1G5     H1'   10   3.647   5.004   1.965  1.3702 -0.3354 -1.3087
    1G5      N9   11   3.822   4.933   2.052  0.1671  0.2651 -0.2509
    1G5      C8   12   3.955   4.971   2.071  0.4326 -0.0316 -0.1281
    1G5      H8   13   3.983   5.069   2.106 -0.5387 -0.0086  0.6321
    1G5      N7   14   4.045   4.876   2.047 -0.0631 -0.1304  1.0693
    1G5      C5   15   3.964   4.770   1.998 -1.1254 -0.0895  0.0203
    1G5      C6   16   4.003   4.643   1.940  0.1665  0.7477  0.6514
    1G5      O6   17   4.111   4.597   1.908  0.6236 -0.4763 -0.2190
    1G5      N1   18   3.896   4.573   1.897  0.3647 -0.0505  0.2295
    1G5      H1   19   3.919   4.483   1.858  2.0595  0.2196  0.5294
    1G5      C2   20   3.765   4.606   1.923 -1.0412  0.3825 -0.9739
    1G5      N2   21   3.668   4.522   1.895 -0.6846  0.1059  0.0751
    1G5     H21   22   3.683   4.434   1.847 -2.4806  0.8578 -2.0802
    1G5     H22   23   3.573   4.555   1.908 -0.5458  0.6764 -0.3411
    1G5      N3   24   3.727   4.723   1.978 -0.1558 -0.2575 -0.0274
    1G5      C4   25   3.832   4.802   2.016 -0.1975  0.6031  0.1062
    1G5     C3'   26   3.663   5.042   2.293  0.0953 -0.3086 -1.0150
    1G5     H3'   27   3.748   4.995   2.342 -1.1162  0.4783  2.1528
    1G5     C2'   28   3.611   4.956   2.182 -0.0743  0.1045 -0.1927
    1G5     H2'   29   3.627   4.849   2.195  0.1798  0.3627  2.0179
    1G5     O2'   30   3.477   4.984   2.152  0.1167 -0.3104  0.3901
    1G5    HO2'   31   3.427   5.005   2.232 -1.1616  0.3844 -0.5596
    1G5     O3'   32   3.563   5.072   2.388  0.5631 -0.5009  0.2359
    2C        P   33   3.546   4.981   2.520 -0.2282  0.2694  0.0933
    2C      O1P   34   3.417   5.023   2.573  0.1832  0.4313 -0.0760
    2C      O2P   35   3.671   4.989   2.601 -0.6770 -0.1429  0.3860
    2C      O5'   36   3.533   4.828   2.493 -0.0099 -0.1797 -0.1564
    2C      C5'   37   3.411   4.770   2.457 -0.1612  0.4661 -0.0325
    2C     H5'1   38   3.360   4.845   2.396  0.0239 -0.7874 -1.8247
    2C     H5'2   39   3.359   4.756   2.552 -1.4558  0.2703 -0.7397
    2C      C4'   40   3.422   4.632   2.381 -0.8002 -1.0114  0.5965
    2C      H4'   41   3.317   4.605   2.368 -0.9415 -0.8885  1.4363
    2C      O4'   42   3.497   4.630   2.259 -0.1022  0.1606 -0.0809
    2C      C1'   43   3.564   4.499   2.246 -0.0401 -0.3671  0.0383
    2C      H1'   44   3.522   4.448   2.159 -0.8005  0.6685 -0.2175
    2C       N1   45   3.706   4.502   2.235  0.1822 -0.1665  0.3456
    2C       C6   46   3.775   4.607   2.288 -0.1543 -0.2436  0.2621
    2C       H6   47   3.723   4.695   2.326  1.6273  1.1297 -0.3362
    2C       C5   48   3.914   4.600   2.289 -0.4694  0.6659  0.0661
    2C       H5   49   3.974   4.681   2.328 -1.4560  2.3676 -1.7892
    2C       C4   50   3.975   4.486   2.231 -0.1632  0.2165 -0.0044
    2C       N4   51   4.102   4.471   2.208 -0.1938 -0.0631  0.1851
    2C      H41   52   4.131   4.392   2.153  0.0411  0.8138 -0.9861
    2C      H42   53   4.160   4.550   2.229 -2.8187  1.4892  2.3081
    2C       N3   54   3.903   4.389   2.177  0.2517  0.1525 -0.2487
    2C       C2   55   3.770   4.394   2.178  0.4297  0.0295  0.9611
    2C       O2   56   3.710   4.300   2.122 -0.1556  0.0533  0.3860
    2C      C3'   57   3.494   4.536   2.475  0.3157  0.2128 -0.1697
    2C      H3'   58   3.586   4.582   2.510  1.0070  0.4384 -2.1628
    2C      C2'   59   3.537   4.425   2.377  0.6844 -0.2379 -0.1167
    2C      H2'   60   3.625   4.367   2.404  0.4291 -0.3390  0.5027
    2C      O2'   61   3.427   4.340   2.355  0.1305  0.1242  0.2043
    2C     HO2'   62   3.420   4.298   2.441  1.3054  1.8755  1.2086
    2C      O3'   63   3.407   4.481   2.586  0.0312  0.3823  0.9918
    3C        P   64   3.475   4.438   2.725  0.0545  0.1993  0.1456
    3C      O1P   65   3.371   4.443   2.832  0.0764  0.0089 -0.1283
    3C      O2P   66   3.599   4.514   2.747  0.1760  0.9491 -0.4300
    3C      O5'   67   3.503   4.282   2.695  0.3221  0.2752 -0.2571
    3C      C5'   68   3.402   4.192   2.668 -0.6084 -0.4388  0.7778
    3C     H5'1   69   3.347   4.220   2.578  0.8166  1.0621  0.3275
    3C     H5'2   70   3.342   4.196   2.759  2.8700  0.3128  3.2060
    3C      C4'   71   3.459   4.059   2.640 -0.1677  0.2723 -0.0192
    3C      H4'   72   3.375   3.989   2.632 -0.0075  0.2072 -1.3197
    3C      O4'   73   3.530   4.055   2.517  0.1413  0.8074 -0.5760
    3C      C1'   74   3.639   3.961   2.523 -0.1337  0.5185 -0.0611
    3C      H1'   75   3.630   3.883   2.448  2.1219 -0.2489  0.3909
    3C       N1   76   3.775   4.030   2.510 -0.3045  0.1446 -0.4898
    3C       C6   77   3.793   4.165   2.526 -0.1177 -0.5086  0.3238
    3C       H6   78   3.713   4.227   2.563  0.9704  0.5404  1.0290
    3C       C5   79   3.910   4.222   2.501  0.4123  0.5077 -0.4431
    3C       H5   80   3.907   4.329   2.518 -2.4177  0.3671  0.5090
    3C       C4   81   4.022   4.145   2.468  0.6127 -1.1474  0.0816
    3C       N4   82   4.127   4.208   2.422 -0.1927 -0.3117 -1.0016
    3C      H41   83   4.204   4.161   2.378  0.8856 -0.2982  0.7935
    3C      H42   84   4.120   4.309   2.427  0.9372 -0.2844  2.1486
    3C       N3   85   4.006   4.011   2.456 -0.2245  0.2778 -0.0894
    3C       C2   86   3.887   3.956   2.471  0.4788 -0.4622  0.3012
    3C       O2   87   3.873   3.833   2.445 -0.4595 -0.1651 -0.2092
    3C      C3'   88   3.549   4.003   2.754  0.1743 -0.7121  0.5880
    3C      H3'   89   3.615   4.078   2.796 -0.1345  0.4252 -0.8814
    3C      C2'   90   3.623   3.897   2.658 -0.0671  0.5315 -0.6581
    3C      H2'   91   3.721   3.884   2.704 -0.0930  1.3723 -0.3452
    3C      O2'   92   3.537   3.781   2.647 -0.1787 -0.2307 -0.0587
    3C     HO2'   93   3.486   3.762   2.726  0.8651 -2.0947  0.2251
    3C      O3'   94   3.480   3.935   2.853  0.1070  0.1767  0.2823
    4U        P   95   3.539   3.923   3.002  0.1132  0.2270 -0.1806
    4U      O1P   96   3.426   3.868   3.079 -0.2226  0.5473  0.4353
    4U      O2P   97   3.597   4.053   3.039  0.0807 -0.5170 -0.6418
    4U      O5'   98   3.650   3.813   2.981 -0.1301 -0.6315 -0.2980
    4U      C5'   99   3.617   3.674   2.973  0.4564 -0.4028 -0.4458
    4U     H5'1  100   3.534   3.657   2.904  0.4682  1.7819 -1.0644
    4U     H5'2  101   3.583   3.645   3.072  1.1023  2.3702  0.6977
    4U      C4'  102   3.735   3.581   2.943 -0.2322  0.1904  0.7552
    4U      H4'  103   3.703   3.477   2.943  0.1933 -0.0254 -2.1849
    4U      O4'  104   3.797   3.615   2.816 -0.1440  0.0137 -0.2151
    4U      C1'  105   3.931   3.597   2.829 -0.1316  0.5274 -0.0308
    4U      H1'  106   3.955   3.525   2.751 -0.2844 -0.3092  0.6787
    4U       N1  107   4.003   3.731   2.810  0.4127  0.1500  0.1451
    4U       C6  108   3.940   3.854   2.803 -0.5297 -0.2643 -0.2833
    4U       H6  109   3.845   3.850   2.854  0.5910 -0.8307  1.8845
    4U       C5  110   4.003   3.972   2.774  0.0847 -0.5245  0.9475
    4U       H5  111   3.953   4.068   2.773 -1.0463 -1.0966  0.5217
    4U       C4  112   4.145   3.967   2.746  0.3671 -0.5140  0.1474
    4U       O4  113   4.218   4.065   2.734 -0.1711  0.1109  0.5663
    4U       N3  114   4.201   3.840   2.739 -0.0659  0.0212  0.1090
    4U       H3  115   4.295   3.836   2.701  1.1407  0.6557  2.7398
    4U       C2  116   4.137   3.723   2.771 -0.5169  0.1523  0.0012
    4U       O2  117   4.196   3.613   2.761 -0.2449  0.1518  0.3649
    4U      C3'  118   3.843   3.582   3.050 -0.4412  0.0245  0.4169
    4U      H3'  119   3.862   3.685   3.081  1.5081 -0.2408  0.2335
    4U      C2'  120   3.963   3.530   2.960 -0.9049  0.0388 -0.1658
    4U      H2'  121   4.056   3.564   3.006 -1.3021  0.1505  0.5799
    4U      O2'  122   3.964   3.387   2.934  0.1880  0.1813 -0.0278
    4U     HO2'  123   4.053   3.354   2.921  0.1850 -0.4103  1.2517
    4U      O3'  124   3.832   3.497   3.164  0.1929 -0.2004  0.1734
    5A        P  125   3.908   3.541   3.306 -0.0307 -0.0534  0.3999
    5A      O1P  126   3.873   3.444   3.407 -0.1288  0.2377 -0.6178
    5A      O2P  127   3.887   3.689   3.327  0.2108  0.2697  0.5791
    5A      O5'  128   4.060   3.518   3.259  0.3811  0.4731 -0.0022
    5A      C5'  129   4.117   3.388   3.240  0.0656  0.1893  0.4238
    5A     H5'1  130   4.055   3.331   3.171 -0.7452  1.3564  0.1570
    5A     H5'2  131   4.109   3.334   3.334 -2.1555 -0.2931 -0.0016
    5A      C4'  132   4.267   3.391   3.198  0.0896 -0.3460 -0.8811
    5A      H4'  133   4.307   3.292   3.177 -0.2742 -0.4301 -1.2049
    5A      O4'  134   4.273   3.460   3.078 -0.1729 -0.2944  0.1469
    5A      C1'  135   4.383   3.545   3.075 -1.0667 -0.3324  0.1130
    5A      H1'  136   4.438   3.524   2.983  0.4042  1.7088  0.4543
    5A       N9  137   4.351   3.691   3.064  0.4314 -0.2619  0.0969
    5A       C8  138   4.241   3.766   3.098 -0.3755  0.3833 -0.2527
    5A       H8  139   4.154   3.727   3.149 -0.1118  2.0076  1.5724
    5A       N7  140   4.251   3.890   3.059 -0.0972 -0.2967  0.0261
    5A       C5  141   4.377   3.902   3.001 -0.0049 -0.0121 -0.2406
    5A       C6  142   4.456   4.009   2.950  0.5238 -0.5649 -0.2197
    5A       N6  143   4.429   4.140   2.961  0.1980 -0.0710 -0.6385
    5A      H61  144   4.471   4.199   2.891  2.1740 -0.8278 -0.1796
    5A      H62  145   4.338   4.168   2.994  0.6957  0.7211  0.1228
    5A       N1  146   4.576   3.981   2.900  0.1086 -0.8195 -0.5002
    5A       C2  147   4.620   3.854   2.896 -0.0987  0.1609 -0.0029
    5A       H2  148   4.720   3.840   2.859  0.6001 -1.8862  2.4115
    5A       N3  149   4.559   3.743   2.944 -0.2620 -0.1181  0.3010
    5A       C4  150   4.438   3.778   3.000 -0.2956 -0.3513  0.1284
    5A      C3'  151   4.359   3.459   3.292 -0.2291  0.6679 -0.2330
    5A      H3'  152   4.312   3.541   3.346 -0.3805 -0.1358  0.8844
    5A      C2'  153   4.467   3.510   3.196 -0.2827  0.5483 -0.4245
    5A      H2'  154   4.519   3.595   3.242 -0.6115 -0.4362  1.8739
    5A      O2'  155   4.560   3.408   3.156 -0.1930  0.3567  0.2565
    5A     HO2'  156   4.596   3.388   3.243 -1.0520  3.1458  1.3493
    5A      O3'  157   4.407   3.363   3.390 -0.2399 -0.1173  0.2227
    6U        P  158   4.480   3.412   3.518  0.0832  0.1449 -0.3322
    6U      O1P  159   4.518   3.286   3.590  0.1608  0.6795  0.4497
    6U      O2P  160   4.388   3.512   3.576  0.2292  0.6324 -0.0772
    6U      O5'  161   4.613   3.485   3.469  0.0014  0.1138  0.5197
    6U      C5'  162   4.732   3.412   3.436 -0.1351  0.2965  0.1416
    6U     H5'1  163   4.700   3.339   3.362 -0.8111  1.4484 -0.7360
    6U     H5'2  164   4.769   3.362   3.525 -0.4932 -1.8144 -0.8287
    6U      C4'  165   4.843   3.499   3.375  0.1015  0.7402  0.4138
    6U      H4'  166   4.923   3.430   3.348 -0.5144 -0.0860  0.6542
    6U      O4'  167   4.813   3.568   3.250 -0.1291 -0.2949 -0.2436
    6U      C1'  168   4.873   3.697   3.257  1.0963 -1.0247 -0.0114
    6U      H1'  169   4.929   3.712   3.165 -1.3093 -1.2854 -1.6192
    6U       N1  170   4.769   3.804   3.264 -0.2106 -0.5656 -0.1820
    6U       C6  171   4.663   3.808   3.352  0.6866  0.3031  0.7511
    6U       H6  172   4.651   3.729   3.424 -1.0449  0.1859  0.3626
    6U       C5  173   4.572   3.909   3.359 -0.2404  0.5709 -0.3381
    6U       H5  174   4.500   3.905   3.439  1.9829  1.0287  1.7956
    6U       C4  175   4.582   4.030   3.275 -0.8060 -0.7659 -0.5017
    6U       O4  176   4.510   4.132   3.276 -0.0567 -0.2257  0.0097
    6U       N3  177   4.691   4.020   3.192  0.3697  0.4961 -0.0871
    6U       H3  178   4.719   4.106   3.146 -0.5117  0.0281 -1.5710
    6U       C2  179   4.785   3.916   3.187  0.5383 -0.0109 -0.3638
    6U       O2  180   4.883   3.920   3.115 -0.1663 -0.5450 -0.4586
    6U      C3'  181   4.904   3.599   3.476 -0.4629  0.6527  0.8287
    6U      H3'  182   4.819   3.638   3.531 -1.4463  0.7279 -0.6649
    6U      C2'  183   4.969   3.691   3.379 -0.8536 -0.5627 -0.2234
    6U      H2'  184   4.981   3.787   3.428 -0.7303 -1.6586  1.9955
    6U      O2'  185   5.089   3.641   3.336  0.4784 -0.1588 -0.1469
    6U     HO2'  186   5.151   3.639   3.409  0.8108  0.6942 -0.3963
    6U      O3'  187   4.995   3.541   3.561  0.2664 -0.2843  0.6447
    7G        P  188   5.042   3.607   3.699  0.2928  0.6015 -0.3241
    7G      O1P  189   5.138   3.514   3.760 -0.0906  0.3027  0.5308
    7G      O2P  190   4.913   3.641   3.765  0.9098  0.4696  0.0543
    7G      O5'  191   5.117   3.750   3.672  0.2662  0.1902  0.1967
    7G      C5'  192   5.253   3.759   3.636  0.3741 -0.1650  0.2863
    7G     H5'1  193   5.265   3.686   3.556 -2.1323  0.6685 -0.9700
    7G     H5'2  194   5.311   3.729   3.723  0.2033 -0.1747  0.3972
    7G      C4'  195   5.294   3.894   3.590  0.5933  0.4393  0.6210
    7G      H4'  196   5.401   3.887   3.569  0.4160  1.3381 -0.7256
    7G      O4'  197   5.217   3.925   3.476 -0.4394  0.3842  0.2105
    7G      C1'  198   5.200   4.064   3.471 -1.1569  0.5010 -0.1094
    7G      H1'  199   5.243   4.106   3.381 -0.3452 -1.1745 -0.5488
    7G       N9  200   5.062   4.102   3.482 -0.5598  0.3072 -0.3023
    7G       C8  201   4.952   4.030   3.525  0.2971  0.1776  0.2182
    7G       H8  202   4.962   3.934   3.573  0.2552  0.8819  1.7085
    7G       N7  203   4.838   4.093   3.515 -0.3923  0.1134 -0.1022
    7G       C5  204   4.877   4.218   3.468 -0.2957  0.5092 -0.7446
    7G       C6  205   4.803   4.336   3.427 -0.0975  0.4062  0.6284
    7G       O6  206   4.682   4.359   3.430 -0.6099 -0.7312 -0.0655
    7G       N1  207   4.880   4.439   3.377  0.2556  0.5151 -0.0357
    7G       H1  208   4.834   4.529   3.371 -2.4564 -0.4290  3.4167
    7G       C2  209   5.012   4.428   3.358  0.4668 -0.4100 -0.2327
    7G       N2  210   5.075   4.540   3.347 -0.1486  0.4371  0.3220
    7G      H21  211   5.026   4.628   3.350 -0.6713  0.2314 -1.2049
    7G      H22  212   5.172   4.527   3.371 -0.1037 -3.2571 -1.2484
    7G       N3  213   5.091   4.323   3.390  0.6931  0.0601 -0.2389
    7G       C4  214   5.012   4.225   3.441  0.4964  0.1506 -0.0418
    7G      C3'  215   5.267   4.004   3.689  0.2073 -0.1220  0.6006
    7G      H3'  216   5.175   3.984   3.744 -0.4127 -2.2295 -1.0672
    7G      C2'  217   5.274   4.116   3.592  0.0809 -0.7476  1.0086
    7G      H2'  218   5.244   4.215   3.626  3.8597  0.9910 -0.1852
    7G      O2'  219   5.407   4.139   3.551 -0.4785  0.4588 -0.1658
    7G     HO2'  220   5.457   4.121   3.631  0.5555 -1.1733 -1.1252
    7G      O3'  221   5.373   4.009   3.776 -0.0372 -0.0834  0.0752
    8U        P  222   5.362   4.087   3.910  0.5251  0.0956  0.1085
    8U      O1P  223   5.495   4.099   3.963  0.0257  0.2341 -0.5079
    8U      O2P  224   5.259   4.024   3.991  0.1795 -0.0365  1.5505
    8U      O5'  225   5.311   4.233   3.884 -0.1714 -0.1446 -0.3691
    8U      C5'  226   5.386   4.341   3.835 -0.4912 -0.2765  0.3006
    8U     H5'1  227   5.437   4.306   3.745 -1.3582 -0.3525 -0.1741
    8U     H5'2  228   5.469   4.368   3.899 -1.1264 -0.7309  1.3341
    8U      C4'  229   5.296   4.462   3.794  0.3106 -0.5978  0.4598
    8U      H4'  230   5.359   4.536   3.745  1.3644 -1.8222 -0.0833
    8U      O4'  231   5.175   4.433   3.725 -0.3821  0.7787 -0.8746
    8U      C1'  232   5.092   4.537   3.754 -0.4492 -0.3916 -0.2248
    8U      H1'  233   5.103   4.617   3.680 -1.7811  1.9494  1.9359
    8U       N1  234   4.950   4.506   3.751 -0.0261 -0.1996 -0.0848
    8U       C6  235   4.902   4.377   3.766 -0.1560 -0.1788 -0.0874
    8U       H6  236   4.971   4.298   3.795  1.5652  1.3575  0.2039
    8U       C5  237   4.769   4.346   3.753 -0.6270  0.3389 -0.5925
    8U       H5  238   4.744   4.242   3.766  0.3772  0.1353 -0.1655
    8U       C4  239   4.670   4.449   3.722 -0.0920  0.3862 -0.2180
    8U       O4  240   4.556   4.432   3.698  0.3048 -0.2760  0.4598
    8U       N3  241   4.718   4.579   3.719 -0.1649  0.5755  0.2644
    8U       H3  242   4.652   4.655   3.721 -0.4051  0.3639  0.3246
    8U       C2  243   4.854   4.610   3.743 -0.5658 -0.2084 -0.0049
    8U       O2  244   4.881   4.731   3.747 -0.2350 -0.0600  0.2799
    8U      C3'  245   5.248   4.529   3.927 -0.4432  0.1356 -0.0074
    8U      H3'  246   5.214   4.451   3.995 -0.2954  0.0605 -0.0195
    8U      C2'  247   5.132   4.605   3.884 -0.1068 -0.1482  0.0432
    8U      H2'  248   5.058   4.598   3.964  0.1384  3.1837  0.6787
    8U      O2'  249   5.168   4.736   3.852  0.5389 -0.2744 -0.0698
    8U     HO2'  250   5.197   4.776   3.934 -1.4699  0.4140  0.3426
    8U      O3'  251   5.352   4.602   3.985 -0.2418  0.0738 -0.0100
    9G        P  252   5.354   4.655   4.139 -0.0359 -0.0547  0.4632
    9G      O1P  253   5.492   4.698   4.158 -0.3935 -0.2563 -0.1385
    9G      O2P  254   5.298   4.553   4.228 -0.3037 -0.5171 -0.4834
    9G      O5'  255   5.262   4.786   4.156 -0.2388 -0.0792  0.5902
    9G      C5'  256   5.311   4.918   4.148  0.7140  0.3536 -0.3837
    9G     H5'1  257   5.387   4.912   4.070  0.8106  0.1503 -0.2760
    9G     H5'2  258   5.361   4.936   4.243 -1.3439 -1.5096  1.1439
    9G      C4'  259   5.204   5.017   4.112  0.2601  0.1404 -0.0677
    9G      H4'  260   5.248   5.112   4.080  0.3594  0.1712  0.1604
    9G      O4'  261   5.114   4.970   4.007 -0.5910 -0.0639 -0.2507
    9G      C1'  262   4.986   5.037   4.026 -0.1850  0.4128  1.0623
    9G      H1'  263   4.966   5.108   3.946 -1.0362 -0.8920  0.0675
    9G       N9  264   4.874   4.931   4.026  0.2830  0.9309  0.3238
    9G       C8  265   4.880   4.798   4.063 -0.1288 -0.3839  0.0368
    9G       H8  266   4.973   4.753   4.096 -0.2316 -0.9988 -0.4779
    9G       N7  267   4.768   4.730   4.058 -0.1239 -0.1602 -0.3665
    9G       C5  268   4.680   4.829   4.010 -0.0754 -0.1340 -0.1208
    9G       C6  269   4.541   4.821   3.982  0.5661  0.6447  0.1164
    9G       O6  270   4.457   4.732   3.991  0.5655 -0.4876 -0.1248
    9G       N1  271   4.494   4.942   3.930 -0.0453  0.3150 -0.0194
    9G       H1  272   4.395   4.951   3.916  0.0415 -1.1567 -2.1598
    9G       C2  273   4.564   5.055   3.909  0.3573 -0.6721 -0.5305
    9G       N2  274   4.499   5.163   3.866  0.0177  0.3564 -0.7959
    9G      H21  275   4.399   5.164   3.855  0.0095  0.5489 -0.7200
    9G      H22  276   4.551   5.247   3.888 -1.0835  0.9140 -0.2227
    9G       N3  277   4.686   5.069   3.951  0.5619  0.3007  0.4775
    9G       C4  278   4.744   4.952   3.994 -0.0796  0.2605 -0.0470
    9G      C3'  279   5.108   5.037   4.230  0.3603 -0.3053  0.5368
    9G      H3'  280   5.077   4.940   4.267 -0.4890 -0.3221 -0.1645
    9G      C2'  281   4.994   5.114   4.155 -1.4824 -0.4134 -0.1242
    9G      H2'  282   4.905   5.108   4.217  0.4198 -0.8545  2.7695
    9G      O2'  283   5.028   5.247   4.130 -0.2320 -0.3839  0.2162
    9G     HO2'  284   5.093   5.283   4.190  0.3422  0.5519 -0.9355
    9G      O3'  285   5.167   5.112   4.335 -0.2570 -0.3720 -1.1464
   10G        P  286   5.110   5.150   4.474 -0.0672  0.2774  0.1574
   10G      O1P  287   5.199   5.258   4.511  0.3851 -0.8980 -0.0188
   10G      O2P  288   5.087   5.030   4.559 -0.4031 -0.0800  0.1967
   10G      O5'  289   4.967   5.205   4.453  0.2101 -0.6625  0.6184
   10G      C5'  290   4.945   5.353   4.443 -0.0163  0.2604 -0.0855
   10G     H5'1  291   5.003   5.394   4.360  0.2107 -1.9037 -1.0439
   10G     H5'2  292   4.964   5.403   4.538 -0.9108  0.2460  0.1141
   10G      C4'  293   4.803   5.385   4.403  0.2839 -0.4894 -0.2968
   10G      H4'  294   4.803   5.484   4.356  2.6614 -0.0937  0.3885
   10G      O4'  295   4.762   5.296   4.294  0.1118  0.5464 -0.1931
   10G      C1'  296   4.621   5.275   4.294 -0.1011 -0.0533 -0.1364
   10G      H1'  297   4.571   5.306   4.202 -0.3136  2.3220  0.7232
   10G       N9  298   4.581   5.134   4.314 -0.2376  0.0036 -0.0255
   10G       C8  299   4.653   5.025   4.368  0.4048  0.3161 -0.2028
   10G       H8  300   4.749   5.034   4.417  0.0663  0.5343  0.4460
   10G       N7  301   4.598   4.908   4.344  0.7155  0.6837 -0.3834
   10G       C5  302   4.474   4.944   4.285 -0.1569 -0.4378  0.5956
   10G       C6  303   4.360   4.862   4.264  0.0421  0.6176  0.3966
   10G       O6  304   4.347   4.744   4.296 -0.5357 -0.3001  0.0384
   10G       N1  305   4.251   4.931   4.210  0.2566 -0.6320 -0.8363
   10G       H1  306   4.161   4.887   4.197 -0.2609  0.2225 -0.2774
   10G       C2  307   4.257   5.066   4.195 -0.0716 -0.5428  0.1164
   10G       N2  308   4.140   5.126   4.187  0.1163  0.5444 -0.5805
   10G      H21  309   4.059   5.066   4.197  1.1323 -0.6266  1.0487
   10G      H22  310   4.146   5.226   4.173  2.5490  0.8213  1.6721
   10G       N3  311   4.365   5.146   4.218  0.0316  0.0623 -0.4095
   10G       C4  312   4.472   5.079   4.260  0.4771  0.2034 -0.8974
   10G      C3'  313   4.686   5.367   4.508 -0.7218  0.2250 -0.5688
   10G      H3'  314   4.699   5.275   4.565  0.1790  0.9396  0.4305
   10G      C2'  315   4.567   5.364   4.411  0.3636  0.6474  0.6738
   10G      H2'  316   4.487   5.316   4.468 -0.1476 -0.2412 -0.7519
   10G      O2'  317   4.534   5.495   4.355  0.1058  0.1802 -0.1794
   10G     HO2'  318   4.549   5.560   4.423 -0.1165  0.7958 -0.7071
   10G      O3'  319   4.675   5.480   4.598 -0.4083 -0.2680  0.3878
   11U        P  320   4.591   5.483   4.727  0.0909  0.0895 -0.3689
   11U      O1P  321   4.568   5.626   4.746 -0.4355 -0.3520 -0.3618
   11U      O2P  322   4.657   5.410   4.838 -0.3516  0.0576  0.3880
   11U      O5'  323   4.446   5.422   4.676 -0.0300  0.1755  0.0816
   11U      C5'  324   4.340   5.498   4.624  0.1609  0.2982 -0.2002
   11U     H5'1  325   4.379   5.552   4.538  0.7415  1.2559  0.6429
   11U     H5'2  326   4.314   5.579   4.692  3.2211  0.5138  0.8756
   11U      C4'  327   4.210   5.414   4.605 -0.0146 -0.1120 -0.0219
   11U      H4'  328   4.135   5.481   4.564  0.9243  0.1166 -1.4478
   11U      O4'  329   4.232   5.306   4.516  0.1565  0.0118  0.0296
   11U      C1'  330   4.147   5.195   4.554 -0.3134  0.1511  0.8570
   11U      H1'  331   4.083   5.175   4.469 -1.3516  0.4326  1.5550
   11U       N1  332   4.217   5.071   4.577  0.1820  0.4971 -0.6136
   11U       C6  333   4.336   5.072   4.648  0.1762 -0.2532  0.2972
   11U       H6  334   4.375   5.163   4.690 -1.3951 -0.0120  1.3250
   11U       C5  335   4.399   4.956   4.678  0.1174  0.4001  0.0772
   11U       H5  336   4.497   4.958   4.723  0.5249  0.8738 -0.8187
   11U       C4  337   4.342   4.830   4.633  0.4704  0.6953  0.6657
   11U       O4  338   4.386   4.720   4.654 -0.1231 -0.0896  0.0030
   11U       N3  339   4.224   4.842   4.556  0.5232 -0.1087  0.0060
   11U       H3  340   4.177   4.760   4.522  0.5946 -0.1172 -0.0728
   11U       C2  341   4.155   4.953   4.536  0.1380 -0.1722  0.2448
   11U       O2  342   4.048   4.954   4.489  0.3887  0.1466 -0.1641
   11U      C3'  343   4.156   5.347   4.735 -0.2643  0.3277  0.1506
   11U      H3'  344   4.244   5.308   4.786  1.1670  2.3758 -0.6444
   11U      C2'  345   4.068   5.240   4.676 -0.3182 -0.6116  0.2540
   11U      H2'  346   4.044   5.160   4.746  0.7243  0.9127  2.4739
   11U      O2'  347   3.948   5.294   4.617  0.5472  0.3883 -0.1136
   11U     HO2'  348   3.894   5.216   4.600 -0.0488  0.5908  0.8205
   11U      O3'  349   4.084   5.443   4.813  0.3201  0.6988  0.1677
   12G        P  350   4.079   5.420   4.969 -0.4101 -0.1432  0.0978
   12G      O1P  351   4.021   5.543   5.020  0.6445 -0.1635  0.5729
   12G      O2P  352   4.221   5.384   5.013  0.3524  0.5832 -0.9201
   12G      O5'  353   3.986   5.289   4.978 -0.1198 -0.3094  0.3658
   12G      C5'  354   3.845   5.300   4.955 -0.4064  0.4453  0.1956
   12G     H5'1  355   3.832   5.344   4.857 -0.2826 -1.0646 -0.5358
   12G     H5'2  356   3.793   5.354   5.034 -3.6092 -1.6664 -0.2818
   12G      C4'  357   3.767   5.163   4.945  0.1238  0.1409 -0.6668
   12G      H4'  358   3.663   5.169   4.913  0.0595 -0.9312 -0.6803
   12G      O4'  359   3.842   5.082   4.848 -0.0958 -0.2947  0.0187
   12G      C1'  360   3.808   4.954   4.878  0.5080  0.2662  0.2697
   12G      H1'  361   3.739   4.922   4.799 -0.3379  2.4189  0.0920
   12G       N9  362   3.917   4.856   4.865 -0.1074 -0.0837  0.3769
   12G       C8  363   4.050   4.865   4.893 -0.4820  0.6496  0.3770
   12G       H8  364   4.101   4.953   4.930  0.0867  0.6147 -0.2912
   12G       N7  365   4.119   4.755   4.858  0.6340  0.0370  0.4158
   12G       C5  366   4.015   4.666   4.817  0.3459  0.1741  0.2913
   12G       C6  367   4.019   4.526   4.784  0.3832 -0.2916  0.0327
   12G       O6  368   4.121   4.458   4.767  0.5998 -0.2857  0.8575
   12G       N1  369   3.899   4.466   4.747 -0.5334 -0.2572 -0.0587
   12G       H1  370   3.894   4.368   4.721 -0.1831 -0.1019 -0.7456
   12G       C2  371   3.780   4.530   4.758 -0.3648  0.3213  0.1568
   12G       N2  372   3.674   4.456   4.757 -0.2151  0.4594 -0.0202
   12G      H21  373   3.666   4.362   4.720 -0.8649  1.6740 -3.2272
   12G      H22  374   3.590   4.512   4.766 -0.5183  0.0254 -0.1248
   12G       N3  375   3.769   4.662   4.801  0.3740  0.1129  0.8680
   12G       C4  376   3.892   4.726   4.821  0.2056  0.3618 -0.5598
   12G      C3'  377   3.767   5.079   5.072 -0.1537  0.3732 -0.1090
   12G      H3'  378   3.866   5.089   5.117 -0.8175  1.1440  1.2398
   12G      C2'  379   3.742   4.942   5.012 -0.2404  0.2839  0.4852
   12G      H2'  380   3.797   4.870   5.072  1.3648  0.8177 -0.2885
   12G      O2'  381   3.613   4.908   4.998  0.3173  0.1246  1.1683
   12G     HO2'  382   3.601   4.821   5.039  0.8081  0.3659  1.8440
   12G      O3'  383   3.671   5.121   5.163  0.1399  0.1360 -0.2024
   13C        P  384   3.666   5.062   5.310  0.5055 -0.1855  0.4466
   13C      O1P  385   3.554   5.141   5.379  0.4021 -0.3187  0.3013
   13C      O2P  386   3.809   5.075   5.363  0.4902  0.0704  0.6275
   13C      O5'  387   3.616   4.912   5.298  0.3305 -0.6289 -0.3886
   13C      C5'  388   3.485   4.885   5.262  0.9775  0.1070 -0.5171
   13C     H5'1  389   3.447   4.945   5.179  0.8719  0.6445 -0.0893
   13C     H5'2  390   3.419   4.918   5.342  1.2390 -1.5838  0.4192
   13C      C4'  391   3.466   4.736   5.231  0.0522  0.5152  0.1301
   13C      H4'  392   3.367   4.715   5.191 -0.5320  0.0268  1.7172
   13C      O4'  393   3.563   4.693   5.130 -0.0938  0.5571  0.2178
   13C      C1'  394   3.595   4.555   5.149 -0.0848  0.0544 -0.0365
   13C      H1'  395   3.556   4.502   5.062 -1.9809  2.5890 -0.8827
   13C       N1  396   3.737   4.538   5.174 -0.0929  0.0072  0.3814
   13C       C6  397   3.818   4.637   5.211 -0.6247 -0.2899 -0.5126
   13C       H6  398   3.778   4.726   5.258 -2.3303 -0.3171 -1.8120
   13C       C5  399   3.952   4.622   5.200  0.5021 -0.8176  0.0797
   13C       H5  400   4.016   4.704   5.229  0.8959 -0.7807 -0.8626
   13C       C4  401   4.005   4.499   5.149  0.0125  0.2252 -0.0668
   13C       N4  402   4.130   4.481   5.119 -0.1267  0.1984 -0.6181
   13C      H41  403   4.161   4.388   5.094  0.4168  0.4381 -0.8369
   13C      H42  404   4.184   4.566   5.120 -3.0010  2.2586  1.7028
   13C       N3  405   3.926   4.399   5.123  1.0522 -0.4500 -0.0403
   13C       C2  406   3.788   4.416   5.123 -0.8572  0.0403 -0.0617
   13C       O2  407   3.711   4.318   5.093  0.0395 -0.3381  0.6576
   13C      C3'  408   3.487   4.642   5.345 -0.4676  0.5892 -0.0652
   13C      H3'  409   3.577   4.673   5.396  0.5421 -1.8130 -0.2805
   13C      C2'  410   3.511   4.508   5.269  0.9898  0.1562 -0.1129
   13C      H2'  411   3.572   4.444   5.334  0.7328  1.0355  1.0325
   13C      O2'  412   3.390   4.440   5.216 -0.0720  0.0714  0.3328
   13C     HO2'  413   3.349   4.399   5.292 -0.6649  0.5292  0.2623
   13C      O3'  414   3.368   4.621   5.426  0.2985 -0.9562  0.1040
   14U        P  415   3.388   4.577   5.581 -0.2924 -0.0359  0.2515
   14U      O1P  416   3.259   4.589   5.649 -0.5825  0.1000  0.0025
   14U      O2P  417   3.506   4.644   5.639 -0.5107  0.9912 -0.2125
   14U      O5'  418   3.431   4.424   5.567 -0.1244  0.1217  0.5224
   14U      C5'  419   3.338   4.316   5.547 -0.2138 -0.3696  0.3880
   14U     H5'1  420   3.268   4.332   5.465 -1.2244 -2.6642  0.7254
   14U     H5'2  421   3.271   4.302   5.632 -2.6357 -0.6695 -1.4448
   14U      C4'  422   3.412   4.183   5.503 -1.2564 -1.1568  0.6632
   14U      H4'  423   3.338   4.113   5.463 -0.1836 -1.9656  0.0568
   14U      O4'  424   3.509   4.212   5.398 -0.0826  0.4624  0.8449
   14U      C1'  425   3.615   4.118   5.404 -0.2254  0.5491  0.6519
   14U      H1'  426   3.609   4.046   5.323 -2.5678  3.3442 -1.9023
   14U       N1  427   3.744   4.185   5.389  0.5807 -0.1556 -0.8637
   14U       C6  428   3.767   4.299   5.464  0.1886 -0.4713 -0.0075
   14U       H6  429   3.686   4.332   5.527 -0.1250 -0.6062 -0.3371
   14U       C5  430   3.889   4.356   5.469  0.1230  0.0297 -0.8583
   14U       H5  431   3.906   4.443   5.530  1.2742 -0.1929 -0.8462
   14U       C4  432   4.003   4.290   5.406 -0.1205 -0.2560 -0.2364
   14U       O4  433   4.119   4.327   5.413 -0.4170 -0.0448  0.7780
   14U       N3  434   3.979   4.173   5.352  0.0299  0.0931  0.1213
   14U       H3  435   4.061   4.115   5.343  0.8927  1.1823  0.7403
   14U       C2  436   3.851   4.113   5.341  0.6743 -0.2943 -0.7692
   14U       O2  437   3.843   3.998   5.300  0.1002  0.2275  0.0206
   14U      C3'  438   3.485   4.114   5.615  0.1003  0.0289 -0.8799
   14U      H3'  439   3.542   4.179   5.682  0.8358 -1.0368 -0.4277
   14U      C2'  440   3.597   4.042   5.531  0.7604 -0.2220 -0.3996
   14U      H2'  441   3.686   4.038   5.595  0.3731 -3.6264  0.1448
   14U      O2'  442   3.563   3.906   5.502  0.6669 -0.5273 -0.2547
   14U     HO2'  443   3.594   3.861   5.580 -0.3931 -0.3381  0.2929
   14U      O3'  444   3.402   4.019   5.691  0.2445  0.1870 -0.6073
   15G        P  445   3.453   3.973   5.838 -0.0867  0.1967 -0.0781
   15G      O1P  446   3.345   3.892   5.887 -0.1018 -0.4975 -0.2097
   15G      O2P  447   3.477   4.097   5.912  0.2371  0.6583 -0.3214
   15G      O5'  448   3.588   3.896   5.813 -0.5532  0.4084 -0.5360
   15G      C5'  449   3.600   3.751   5.812 -0.1821 -0.3720  0.0070
   15G     H5'1  450   3.540   3.710   5.731  0.6249 -1.9654  0.1823
   15G     H5'2  451   3.571   3.703   5.905  0.7153 -1.6286 -0.3273
   15G      C4'  452   3.744   3.717   5.786  0.1716 -0.1219  0.2876
   15G      H4'  453   3.744   3.614   5.750 -4.0213 -0.2241  0.1445
   15G      O4'  454   3.791   3.796   5.678 -0.6832 -0.6162 -0.4334
   15G      C1'  455   3.928   3.835   5.709 -0.0541  0.6056  0.5148
   15G      H1'  456   3.987   3.789   5.629 -0.0616  0.3484  0.6553
   15G       N9  457   3.950   3.977   5.706 -0.9120 -0.0657  0.4735
   15G       C8  458   3.894   4.085   5.772 -0.3330  0.4917  0.4696
   15G       H8  459   3.802   4.070   5.827 -0.3287  0.0047  0.3460
   15G       N7  460   3.964   4.196   5.783 -0.1978 -0.1851  0.0749
   15G       C5  461   4.077   4.164   5.703 -0.0305 -0.2214  0.3788
   15G       C6  462   4.203   4.235   5.679  0.1575 -0.7086 -0.2577
   15G       O6  463   4.235   4.346   5.713  0.1057  0.3156  0.0751
   15G       N1  464   4.299   4.160   5.614 -0.6862 -0.1967 -0.2118
   15G       H1  465   4.389   4.204   5.601 -0.3400 -0.6321  0.6297
   15G       C2  466   4.279   4.032   5.582 -0.1195 -0.0654  0.3109
   15G       N2  467   4.382   3.970   5.532 -0.7646  0.5222 -0.4742
   15G      H21  468   4.474   4.010   5.519 -1.3378  2.5176  1.1366
   15G      H22  469   4.365   3.874   5.505  0.9957 -0.6922  2.3244
   15G       N3  470   4.166   3.963   5.602  0.7789 -0.6174  0.7020
   15G       C4  471   4.065   4.040   5.653 -0.1121  0.1927  0.2849
   15G      C3'  472   3.832   3.740   5.907 -0.0253  0.4177 -0.0359
   15G      H3'  473   3.799   3.824   5.968  1.3854 -0.1512  1.6119
   15G      C2'  474   3.970   3.773   5.846  0.6892 -0.4408  0.0939
   15G      H2'  475   4.013   3.848   5.912  0.2159 -1.0495  1.1124
   15G      O2'  476   4.057   3.669   5.813  0.1428 -0.1035  0.0298
   15G     HO2'  477   4.069   3.615   5.892  2.0388 -0.5085 -0.4790
   15G      O3'  478   3.846   3.622   5.991  0.1506 -0.4683 -0.5042
   16G        P  479   3.926   3.633   6.125  0.0035 -0.0741 -0.4731
   16G      O1P  480   3.872   3.533   6.216 -0.1202  0.2737 -0.1815
   16G      O2P  481   3.924   3.772   6.170 -0.1465  0.3807 -0.2323
   16G      O5'  482   4.080   3.593   6.086 -0.2222  0.6537 -0.1161
   16G      C5'  483   4.125   3.458   6.066  0.7154  0.4648  0.0189
   16G     H5'1  484   4.063   3.401   5.997  2.6749  1.3494 -2.6578
   16G     H5'2  485   4.119   3.414   6.165 -0.9410 -1.2136 -0.7556
   16G      C4'  486   4.263   3.446   6.015  0.1798  0.6082  0.3637
   16G      H4'  487   4.274   3.339   6.001 -1.8415  0.5374 -1.1076
   16G      O4'  488   4.285   3.501   5.887 -0.4349 -0.4923 -0.2361
   16G      C1'  489   4.419   3.556   5.887  0.5291 -0.4499 -0.1596
   16G      H1'  490   4.475   3.520   5.800  0.2420 -1.1760 -0.0528
   16G       N9  491   4.418   3.701   5.887 -0.1952 -0.1009  0.2546
   16G       C8  492   4.321   3.784   5.938  0.3738  0.0952 -0.1596
   16G       H8  493   4.230   3.750   5.985  0.9259  0.5522  1.2887
   16G       N7  494   4.345   3.911   5.927 -0.2670  0.5284  0.2792
   16G       C5  495   4.472   3.915   5.865 -0.9982 -0.5200 -0.5549
   16G       C6  496   4.551   4.023   5.814  0.0057  0.2440  0.3280
   16G       O6  497   4.517   4.141   5.792 -0.2797  0.2498 -0.2150
   16G       N1  498   4.681   3.987   5.771  0.4669  0.5118  0.5356
   16G       H1  499   4.743   4.059   5.736 -1.3251  1.6308 -0.4606
   16G       C2  500   4.721   3.853   5.764  0.0906 -0.2441  0.1655
   16G       N2  501   4.849   3.827   5.735 -0.4799  0.7984 -0.0367
   16G      H21  502   4.917   3.902   5.733  0.0843  0.4140  2.2803
   16G      H22  503   4.881   3.731   5.724 -1.6978  0.4764 -0.9082
   16G       N3  504   4.644   3.750   5.815 -0.0036 -0.8986  0.6698
   16G       C4  505   4.525   3.789   5.861 -0.1275 -0.2216  0.2538
   16G      C3'  506   4.363   3.496   6.117 -0.8148  0.1832  0.6034
   16G      H3'  507   4.334   3.592   6.159 -1.6415  0.0588  0.3175
   16G      C2'  508   4.483   3.505   6.024  0.6852  0.2208  0.6207
   16G      H2'  509   4.550   3.575   6.074  1.4094 -0.9314  1.2948
   16G      O2'  510   4.534   3.373   6.002  0.0223  0.0348  0.8636
   16G     HO2'  511   4.511   3.321   6.080 -0.5649 -1.2210 -0.1240
   16G      O3'  512   4.390   3.399   6.225 -0.3022 -0.5225  0.5280
   17A        P  513   4.453   3.447   6.364 -0.3651 -0.7744  0.0456
   17A      O1P  514   4.467   3.325   6.443 -0.2753  0.5344 -0.6189
   17A      O2P  515   4.385   3.563   6.417  0.2726  0.3987  0.1573
   17A      O5'  516   4.600   3.503   6.314 -0.3155  0.4553 -0.3898
   17A      C5'  517   4.708   3.413   6.311  0.1539  0.4655  0.1125
   17A     H5'1  518   4.694   3.325   6.248  0.2412  1.3462 -1.1629
   17A     H5'2  519   4.729   3.372   6.411 -0.8579  0.1946  0.2241
   17A      C4'  520   4.843   3.481   6.270  0.1212  0.4668 -0.0292
   17A      H4'  521   4.922   3.406   6.265  2.0518  2.3949  0.2583
   17A      O4'  522   4.836   3.544   6.142  0.4685  0.4076 -0.1302
   17A      C1'  523   4.899   3.670   6.150  0.0722 -0.8151 -0.9091
   17A      H1'  524   4.973   3.680   6.070  1.6011 -1.8954  0.2904
   17A       N9  525   4.807   3.793   6.152  0.4565 -0.5061  0.5938
   17A       C8  526   4.671   3.811   6.180 -0.9863  0.4009  0.4227
   17A       H8  527   4.606   3.732   6.212 -0.9940  0.1201 -0.2617
   17A       N7  528   4.630   3.933   6.161  0.0358 -0.1946 -0.0501
   17A       C5  529   4.743   4.005   6.117  1.5496  0.4514  0.8048
   17A       C6  530   4.763   4.133   6.063  0.3018 -0.3422 -0.5263
   17A       N6  531   4.670   4.224   6.058  0.4725 -0.0914 -0.6273
   17A      H61  532   4.703   4.309   6.014 -2.5765  1.2312 -0.6197
   17A      H62  533   4.574   4.210   6.085  0.0061 -2.8072 -3.1617
   17A       N1  534   4.883   4.172   6.034 -0.2002 -0.4042  0.3199
   17A       C2  535   4.981   4.083   6.042 -0.2527  0.0889 -0.1435
   17A       H2  536   5.081   4.117   6.023 -0.2351  1.4135  1.9400
   17A       N3  537   4.975   3.957   6.082 -0.0251  0.3442  0.6300
   17A       C4  538   4.848   3.920   6.118 -0.1893  0.3701 -0.2504
   17A      C3'  539   4.890   3.584   6.366 -0.3277  0.1573 -0.3225
   17A      H3'  540   4.804   3.641   6.403 -0.1028 -1.0286  2.2348
   17A      C2'  541   4.981   3.665   6.281 -0.1265  0.2732 -0.1275
   17A      H2'  542   4.988   3.765   6.324 -1.5409 -0.1653  1.1841
   17A      O2'  543   5.106   3.590   6.269 -0.0512  0.1435 -0.1653
   17A     HO2'  544   5.103   3.545   6.354 -1.4364 -1.8893 -1.1884
   17A      O3'  545   4.959   3.525   6.476 -0.2465 -0.0166 -0.5169
   18C        P  546   4.958   3.595   6.625 -0.3497 -0.0383  0.0035
   18C      O1P  547   5.026   3.509   6.721  0.9564 -0.7643 -0.2314
   18C      O2P  548   4.816   3.628   6.652  0.0218  0.4649 -0.3340
   18C      O5'  549   5.031   3.736   6.622 -0.3487 -0.8322  0.6011
   18C      C5'  550   5.174   3.732   6.594  0.0317  0.1384 -0.3371
   18C     H5'1  551   5.209   3.646   6.537  0.8153 -0.9667  1.6815
   18C     H5'2  552   5.219   3.720   6.693  0.0597  0.0356 -0.3627
   18C      C4'  553   5.248   3.851   6.557 -0.0711 -0.6118  0.7925
   18C      H4'  554   5.354   3.831   6.550  0.6992  2.7192  1.0691
   18C      O4'  555   5.193   3.894   6.433  0.3016 -0.2369  0.0369
   18C      C1'  556   5.201   4.034   6.420 -0.1807 -0.3663 -0.8524
   18C      H1'  557   5.259   4.080   6.340 -0.9738  2.9905  0.3168
   18C       N1  558   5.071   4.099   6.417  0.4121 -0.2233 -0.1809
   18C       C6  559   4.955   4.025   6.430 -0.0670 -0.5136 -0.2635
   18C       H6  560   4.956   3.923   6.466 -1.0900 -0.1169  0.9694
   18C       C5  561   4.831   4.077   6.411  0.4154 -0.5431  0.4466
   18C       H5  562   4.742   4.019   6.432  0.0684 -1.3664 -2.7776
   18C       C4  563   4.828   4.218   6.386  0.2967 -0.4780 -0.3760
   18C       N4  564   4.717   4.269   6.386  0.3353 -0.0343 -0.3240
   18C      H41  565   4.698   4.366   6.366 -0.6175 -0.1844 -0.1987
   18C      H42  566   4.633   4.211   6.383  1.3179 -1.5715  0.5438
   18C       N3  567   4.939   4.291   6.364  1.0420 -0.0806  0.2071
   18C       C2  568   5.061   4.236   6.384  0.4916 -0.2287  0.7570
   18C       O2  569   5.157   4.311   6.371  0.0130 -0.0803 -0.1392
   18C      C3'  570   5.229   3.972   6.646  0.6827 -0.2027  0.4582
   18C      H3'  571   5.125   3.973   6.679  1.1094 -0.0928  1.8553
   18C      C2'  572   5.267   4.083   6.552  0.0449 -0.4466  0.0334
   18C      H2'  573   5.235   4.180   6.591  1.3558 -0.3132  0.8475
   18C      O2'  574   5.404   4.093   6.522  0.1464 -0.1291  0.1144
   18C     HO2'  575   5.454   4.037   6.582 -0.5166 -1.7127 -0.7581
   18C      O3'  576   5.314   3.968   6.762  0.0730 -0.2151 -0.1245
   19A        P  577   5.281   4.056   6.895  0.0612 -0.5974  0.1891
   19A      O1P  578   5.398   4.038   6.986  0.1217  0.2737  0.2854
   19A      O2P  579   5.147   4.035   6.953  0.0947 -0.4004  0.2467
   19A      O5'  580   5.275   4.202   6.838  0.8741 -0.0575 -0.0388
   19A      C5'  581   5.398   4.268   6.806  0.0199  0.7667  0.0147
   19A     H5'1  582   5.453   4.206   6.735 -0.9879 -0.7014  0.4866
   19A     H5'2  583   5.450   4.271   6.902 -2.8645  0.3557  1.6885
   19A      C4'  584   5.385   4.412   6.759  0.2127 -0.1260  0.0376
   19A      H4'  585   5.481   4.462   6.747 -0.8668  1.7593 -1.4278
   19A      O4'  586   5.299   4.420   6.642  0.1627  0.1695 -0.3168
   19A      C1'  587   5.216   4.536   6.655  0.4203 -0.1659  0.3349
   19A      H1'  588   5.234   4.600   6.568  2.0045 -1.4922 -0.3650
   19A       N9  589   5.075   4.498   6.667 -0.4038  0.1414  0.0568
   19A       C8  590   5.019   4.372   6.696 -0.0123 -0.1072 -0.4455
   19A       H8  591   5.085   4.294   6.729  0.5370  0.8766  0.8705
   19A       N7  592   4.893   4.367   6.693  0.6574 -0.5206 -0.6801
   19A       C5  593   4.856   4.499   6.654  0.1677  0.5441  0.1521
   19A       C6  594   4.739   4.570   6.615 -0.8156 -0.1902 -0.0940
   19A       N6  595   4.620   4.527   6.599 -0.3672 -0.4359 -0.0937
   19A      H61  596   4.553   4.586   6.550  0.7162  0.6572 -0.3187
   19A      H62  597   4.597   4.437   6.637 -1.8157  0.6132  1.6467
   19A       N1  598   4.744   4.699   6.583  0.3218  0.0888  0.7135
   19A       C2  599   4.861   4.761   6.592  0.2327 -0.3787 -0.2562
   19A       H2  600   4.855   4.862   6.555 -0.2791  0.0050  0.8288
   19A       N3  601   4.979   4.710   6.612  0.5988  0.1192  0.2053
   19A       C4  602   4.966   4.578   6.643  0.2494  0.3735 -0.6184
   19A      C3'  603   5.312   4.498   6.863 -0.2768 -0.6436 -0.5318
   19A      H3'  604   5.224   4.446   6.901 -1.5782  0.8254 -1.4477
   19A      C2'  605   5.270   4.618   6.782  0.6315  0.1594 -0.4884
   19A      H2'  606   5.193   4.669   6.841  1.4264  0.6893  0.1140
   19A      O2'  607   5.380   4.698   6.729 -0.0453 -0.1418  0.1929
   19A     HO2'  608   5.393   4.779   6.779  1.9667 -1.1646  1.4713
   19A      O3'  609   5.401   4.534   6.965  0.4173  0.0011 -0.3777
   20U        P  610   5.351   4.556   7.118 -0.3515 -0.1399 -0.5705
   20U      O1P  611   5.466   4.588   7.201 -0.5498  0.5071 -0.5919
   20U      O2P  612   5.277   4.434   7.158 -0.0140 -0.0016 -0.2700
   20U      O5'  613   5.247   4.681   7.122  0.0950 -0.0994 -0.7858
   20U      C5'  614   5.289   4.816   7.097  0.6513  0.5652  0.0258
   20U     H5'1  615   5.358   4.809   7.013 -1.0040 -1.0177 -1.3084
   20U     H5'2  616   5.341   4.860   7.182  1.0508  1.2692 -0.5711
   20U      C4'  617   5.174   4.903   7.050 -0.3445  0.3609 -0.6124
   20U      H4'  618   5.216   4.994   7.009  1.7357 -0.5551 -0.6210
   20U      O4'  619   5.103   4.852   6.940 -0.1708  0.1478  0.6307
   20U      C1'  620   4.968   4.896   6.953 -0.2091  0.0283  0.8625
   20U      H1'  621   4.942   4.956   6.866  2.7409  0.2073  0.0030
   20U       N1  622   4.881   4.777   6.943  0.0259 -0.0502 -0.1789
   20U       C6  623   4.915   4.659   7.001  0.3431 -0.2944 -0.1548
   20U       H6  624   5.017   4.651   7.037  0.3768  0.7330  0.0015
   20U       C5  625   4.824   4.553   7.002 -0.4924  0.1654 -0.2810
   20U       H5  626   4.858   4.456   7.036  0.7492  0.4350 -0.6883
   20U       C4  627   4.691   4.570   6.952 -0.1189 -0.2941 -0.6989
   20U       O4  628   4.595   4.494   6.951 -0.2131  0.0680  0.2450
   20U       N3  629   4.669   4.696   6.902 -0.0878 -0.0368  0.6910
   20U       H3  630   4.578   4.712   6.860  0.2603  2.9610  0.8350
   20U       C2  631   4.757   4.798   6.895  0.4333  0.0745 -0.1403
   20U       O2  632   4.719   4.912   6.857 -0.0334  0.1488 -0.0430
   20U      C3'  633   5.073   4.931   7.165  0.2946 -0.1530 -0.3672
   20U      H3'  634   5.053   4.836   7.214 -1.7319  1.0756  1.3571
   20U      C2'  635   4.951   4.973   7.080  0.0829 -0.0072  0.0981
   20U      H2'  636   4.860   4.956   7.138 -1.3992  1.7877 -1.5416
   20U      O2'  637   4.946   5.113   7.043  0.5478  0.4456 -0.5455
   20U     HO2'  638   4.890   5.168   7.098 -1.7261  1.3416 -3.4458
   20U      O3'  639   5.123   5.034   7.251 -0.5814  0.6484 -0.1606
   21U3       P  640   5.062   5.054   7.396 -0.0699 -0.1031  0.2476
   21U3     O1P  641   5.146   5.141   7.486 -0.0240  0.8197  0.0129
   21U3     O2P  642   5.032   4.919   7.443 -0.2708  0.1450  0.3205
   21U3     O5'  643   4.928   5.131   7.371  0.1415  0.2259  0.1829
   21U3     C5'  644   4.927   5.270   7.350 -0.5297 -0.2951  0.4274
   21U3    H5'1  645   4.987   5.296   7.263  0.1638  2.5353  1.6471
   21U3    H5'2  646   4.963   5.320   7.439  0.0319  1.4053 -0.7090
   21U3     C4'  647   4.787   5.318   7.323  0.0077  0.6251  0.1467
   21U3     H4'  648   4.789   5.423   7.296 -1.1347  0.6315  0.0171
   21U3     O4'  649   4.734   5.250   7.204  0.1512  0.1498  0.4691
   21U3     C1'  650   4.595   5.236   7.208 -0.8430 -1.1308  0.5897
   21U3     H1'  651   4.544   5.292   7.129 -0.4649 -1.4234  0.1321
   21U3      N1  652   4.551   5.093   7.201 -0.7005 -0.0848  0.2235
   21U3      C6  653   4.628   4.994   7.263  0.0475  0.4064  0.4316
   21U3      H6  654   4.718   5.024   7.315 -0.3761  2.5944 -0.0045
   21U3      C5  655   4.597   4.867   7.247  0.3927  1.2722 -0.4976
   21U3      H5  656   4.655   4.788   7.293 -0.1143  0.2881 -1.5133
   21U3      C4  657   4.481   4.821   7.182 -0.1802 -0.3350  0.3494
   21U3      O4  658   4.454   4.703   7.160  0.3013  0.0417  0.0625
   21U3      N3  659   4.399   4.924   7.134  0.4208  0.4589  0.2264
   21U3      H3  660   4.309   4.896   7.099 -1.2727  1.3823  3.4013
   21U3      C2  661   4.433   5.056   7.139 -0.0289 -0.3259 -0.5496
   21U3      O2  662   4.370   5.139   7.073 -0.5088 -0.2562 -0.4234
   21U3     C3'  663   4.679   5.287   7.428  0.5707  0.5309 -0.3316
   21U3     H3'  664   4.693   5.189   7.472 -0.1670  0.5696 -0.0022
   21U3     C2'  665   4.554   5.295   7.339  0.0846 -0.0485  0.2856
   21U3     H2'  666   4.467   5.247   7.383 -1.4247  1.4721 -0.8938
   21U3     O2'  667   4.523   5.435   7.320  0.6801 -0.1433 -0.0740
   21U3    HO2'  668   4.428   5.445   7.309  0.8911  0.3319 -1.7325
   21U3     O3'  669   4.664   5.388   7.521 -0.2302 -0.3456  0.0442
   21U3     H3T  670   4.580   5.423   7.493 -1.1194 -2.0897  0.3650
   22A5     H5T  671   3.510   4.545   6.651 -0.5695  1.5648 -1.0066
   22A5     O5'  672   3.454   4.533   6.728  0.4512  0.2034 -0.4393
   22A5     C5'  673   3.375   4.646   6.757 -0.5912 -0.0045  0.2780
   22A5    H5'1  674   3.285   4.625   6.815 -0.7645  0.6893  0.2713
   22A5    H5'2  675   3.334   4.679   6.662  1.3611  0.4909 -0.4471
   22A5     C4'  676   3.451   4.768   6.819  0.2054 -0.2911  0.3943
   22A5     H4'  677   3.382   4.846   6.849 -0.6865 -1.5156  1.6170
   22A5     O4'  678   3.529   4.722   6.928  0.1106 -0.2059 -0.4369
   22A5     C1'  679   3.638   4.807   6.943 -0.1405  0.2306 -0.1424
   22A5     H1'  680   3.623   4.877   7.026  2.5792  0.0885  0.5727
   22A5      N9  681   3.769   4.732   6.958  0.1874 -0.3827 -0.0248
   22A5      C8  682   3.796   4.599   6.943 -0.8930  0.0215 -0.0562
   22A5      H8  683   3.723   4.538   6.894  0.5319 -1.6536 -0.1787
   22A5      N7  684   3.911   4.555   6.991 -0.1710  0.0905 -0.0851
   22A5      C5  685   3.968   4.680   7.035 -0.3955 -0.3837 -0.3201
   22A5      C6  686   4.091   4.719   7.096  0.5310  0.0229 -0.4696
   22A5      N6  687   4.186   4.636   7.118  0.2144  0.0772 -0.5561
   22A5     H61  688   4.280   4.664   7.142 -0.4114  0.9732  0.9441
   22A5     H62  689   4.178   4.538   7.093  3.8815 -0.5871  0.3152
   22A5      N1  690   4.114   4.848   7.129  0.1140  0.9149 -0.0606
   22A5      C2  691   4.021   4.939   7.108 -0.2411 -0.0952  0.2385
   22A5      H2  692   4.052   5.039   7.135 -0.7254  0.0189  0.3753
   22A5      N3  693   3.900   4.915   7.043 -0.3991  0.1071 -0.0458
   22A5      C4  694   3.880   4.782   7.007 -0.3798 -0.1577 -0.1022
   22A5     C3'  695   3.553   4.831   6.719  0.1167 -0.6166 -0.4353
   22A5     H3'  696   3.611   4.755   6.667  0.5049 -0.5081 -0.1646
   22A5     C2'  697   3.649   4.903   6.818  0.0473 -0.4693 -0.8320
   22A5     H2'  698   3.752   4.907   6.783  0.3001 -0.6837 -0.1423
   22A5     O2'  699   3.598   5.036   6.853 -0.4253  0.4221  0.4076
   22A5    HO2'  700   3.575   5.084   6.774 -1.8047  0.9547  1.0999
   22A5     O3'  701   3.504   4.922   6.628  0.4366  0.4258  0.5342
   23A        P  702   3.563   4.933   6.479 -0.2265 -0.0444 -0.0647
   23A      O1P  703   3.481   5.031   6.403  0.3313 -0.1994  0.3815
   23A      O2P  704   3.574   4.800   6.414 -0.0428 -0.0462 -0.0949
   23A      O5'  705   3.707   5.000   6.509  0.1521  0.2806  0.8887
   23A      C5'  706   3.714   5.138   6.544 -1.0553  1.0109  0.2900
   23A     H5'1  707   3.653   5.154   6.632 -0.2599 -1.1897  1.3211
   23A     H5'2  708   3.677   5.194   6.458  1.0794 -0.6848 -1.9010
   23A      C4'  709   3.859   5.179   6.569  0.2306  0.7587 -0.2707
   23A      H4'  710   3.867   5.286   6.586 -0.4502  1.2402 -2.6992
   23A      O4'  711   3.916   5.111   6.688 -0.0194  0.1210  0.4659
   23A      C1'  712   4.050   5.091   6.664  0.1749 -0.1276  0.1101
   23A      H1'  713   4.117   5.143   6.732  0.9071  1.5053 -1.7596
   23A       N9  714   4.081   4.951   6.694  0.2830 -0.4696  0.3500
   23A       C8  715   4.007   4.840   6.660  0.1028  0.4848  0.2621
   23A       H8  716   3.908   4.840   6.615  0.5365 -4.2121 -1.2246
   23A       N7  717   4.063   4.722   6.688  0.0737  0.0068  0.1101
   23A       C5  718   4.186   4.773   6.745  0.3660  1.1299 -0.0790
   23A       C6  719   4.299   4.704   6.795 -0.2744 -1.0157 -0.6223
   23A       N6  720   4.324   4.577   6.809 -0.6234 -0.5423  0.4930
   23A      H61  721   4.421   4.552   6.819 -0.7676 -1.9132 -1.1069
   23A      H62  722   4.255   4.512   6.775 -0.8819 -0.1224  0.2038
   23A       N1  723   4.404   4.775   6.832 -0.0665  0.2372  0.1123
   23A       C2  724   4.398   4.908   6.823 -0.7021 -0.2812  0.1011
   23A       H2  725   4.487   4.960   6.856  0.0288 -0.0213 -2.1185
   23A       N3  726   4.295   4.980   6.780  0.3353 -0.2492  0.0550
   23A       C4  727   4.195   4.905   6.739 -0.3171 -0.3574  0.1742
   23A      C3'  728   3.955   5.165   6.444 -0.0394  0.0721  0.5454
   23A      H3'  729   3.934   5.073   6.389 -0.2359  0.7805 -0.6013
   23A      C2'  730   4.084   5.143   6.526  0.3164 -0.0553  0.2233
   23A      H2'  731   4.149   5.076   6.469  0.1326 -0.9705  1.0619
   23A      O2'  732   4.156   5.259   6.560  0.0146 -0.2134  0.1734
   23A     HO2'  733   4.200   5.283   6.478  0.7209 -1.5642  0.1354
   23A      O3'  734   3.942   5.282   6.372  1.1705  0.0016  0.5272
   24U        P  735   3.989   5.302   6.221 -0.2827 -0.1957  0.2634
   24U      O1P  736   3.943   5.441   6.187  0.1480  0.0601 -0.2309
   24U      O2P  737   3.949   5.186   6.137 -0.5767 -0.2800  0.2770
   24U      O5'  738   4.148   5.308   6.228 -0.4160 -0.2432  0.2268
   24U      C5'  739   4.214   5.430   6.253  0.0220  0.3772  0.7746
   24U     H5'1  740   4.173   5.480   6.341  1.7385 -0.3770  2.0507
   24U     H5'2  741   4.216   5.492   6.163 -0.1758  2.0873  1.8949
   24U      C4'  742   4.362   5.403   6.282 -1.1681  0.2041 -0.0223
   24U      H4'  743   4.416   5.495   6.304  1.1157 -0.5319 -2.1148
   24U      O4'  744   4.376   5.308   6.393  0.1871  0.1207 -0.3398
   24U      C1'  745   4.496   5.231   6.375  0.3634  0.0206  0.7422
   24U      H1'  746   4.571   5.261   6.448  2.4957 -1.5672 -0.6783
   24U       N1  747   4.475   5.087   6.392  0.8618 -0.5819  0.1349
   24U       C6  748   4.361   5.025   6.340 -0.4311 -0.6180  0.0651
   24U       H6  749   4.283   5.085   6.296  0.2410  0.2253  0.0037
   24U       C5  750   4.344   4.892   6.365  0.5277 -0.5303 -1.0316
   24U       H5  751   4.248   4.861   6.327 -1.7479  2.9915  1.2955
   24U       C4  752   4.437   4.813   6.432  0.2661  0.7904 -0.3246
   24U       O4  753   4.425   4.697   6.466 -0.2879  1.0406  0.3454
   24U       N3  754   4.547   4.883   6.467  0.7324 -0.5456  0.0104
   24U       H3  755   4.615   4.834   6.523  0.5328  1.0180  1.7207
   24U       C2  756   4.575   5.016   6.446  0.0769  0.0492  0.1355
   24U       O2  757   4.681   5.064   6.486  0.4543 -0.5566  0.4267
   24U      C3'  758   4.429   5.332   6.165 -0.6657  0.4205  1.1435
   24U      H3'  759   4.374   5.249   6.121  1.4544 -1.9453  2.6907
   24U      C2'  760   4.555   5.265   6.233 -0.3755 -0.1654  0.4661
   24U      H2'  761   4.583   5.177   6.176 -1.4211 -0.6950  0.7420
   24U      O2'  762   4.666   5.352   6.233 -0.0486 -0.0142 -0.2878
   24U     HO2'  763   4.702   5.349   6.144 -0.2384 -1.0253 -0.3433
   24U      O3'  764   4.475   5.421   6.066  0.1652  0.4263 -0.2926
   25G        P  765   4.529   5.370   5.929 -0.1757 -0.4489 -0.1983
   25G      O1P  766   4.555   5.493   5.847 -1.0790 -0.1838  0.2750
   25G      O2P  767   4.433   5.275   5.873  0.2358 -0.4817  0.4772
   25G      O5'  768   4.664   5.285   5.943  0.0111 -0.0631  0.2729
   25G      C5'  769   4.787   5.352   5.939 -0.2911  0.0041  1.1293
   25G     H5'1  770   4.778   5.434   6.011 -0.5786 -0.6990  1.9049
   25G     H5'2  771   4.814   5.395   5.843 -0.9908  0.6658  1.2196
   25G      C4'  772   4.895   5.253   5.986  0.0501  0.8105  0.5400
   25G      H4'  773   4.987   5.307   6.005  0.2514  0.1119  1.6553
   25G      O4'  774   4.843   5.181   6.102 -0.1936 -0.6701  0.1676
   25G      C1'  775   4.920   5.065   6.116  0.0802  0.1062 -0.4828
   25G      H1'  776   5.007   5.071   6.183 -1.6043 -2.8094  2.2622
   25G       N9  777   4.834   4.947   6.151  0.6572 -0.2760 -0.1680
   25G       C8  778   4.701   4.932   6.134  0.6185  0.2783  0.9265
   25G       H8  779   4.644   5.011   6.088  1.1301  0.3874  0.4682
   25G       N7  780   4.649   4.818   6.172  0.7568 -0.5918  0.3741
   25G       C5  781   4.761   4.744   6.204 -0.2985  0.0519 -0.3904
   25G       C6  782   4.784   4.610   6.248  0.1670 -0.3469  0.6161
   25G       O6  783   4.707   4.516   6.266  0.2569 -0.3101 -0.4293
   25G       N1  784   4.908   4.580   6.276  0.1875 -0.0070 -0.3912
   25G       H1  785   4.924   4.483   6.302 -0.6011 -0.4660 -1.5606
   25G       C2  786   5.013   4.663   6.273 -0.4550 -0.0611  0.2277
   25G       N2  787   5.131   4.602   6.293 -0.2262  0.0420  0.6631
   25G      H21  788   5.139   4.504   6.315 -0.5871 -0.0221  0.5171
   25G      H22  789   5.212   4.655   6.264 -1.2089  1.4246  0.3227
   25G       N3  790   5.004   4.790   6.222  0.3257 -0.3556  0.2819
   25G       C4  791   4.875   4.822   6.190 -0.1012 -0.5905 -0.5425
   25G      C3'  792   4.911   5.144   5.881 -0.7070  0.8856 -0.1140
   25G      H3'  793   4.814   5.115   5.840 -0.3769 -1.0006  0.3223
   25G      C2'  794   4.978   5.042   5.976  0.3246  0.2396 -0.4939
   25G      H2'  795   4.960   4.940   5.940 -0.6079  0.1923  0.0745
   25G      O2'  796   5.116   5.061   5.977  0.7423  0.0505 -0.3624
   25G     HO2'  797   5.152   5.001   5.912 -0.4642 -0.7181 -0.3415
   25G      O3'  798   4.997   5.199   5.781  0.4105 -0.6869  0.3251
   26U        P  799   5.029   5.101   5.660 -0.2528  0.1374 -0.0319
   26U      O1P  800   5.118   5.178   5.571  0.1467  0.0757 -0.0363
   26U      O2P  801   4.903   5.039   5.613  0.0158  0.0954 -0.1427
   26U      O5'  802   5.116   4.982   5.708 -0.1741  0.0045 -0.3276
   26U      C5'  803   5.257   4.994   5.711  0.2298  0.5246 -0.3057
   26U     H5'1  804   5.290   5.085   5.761 -0.2158  0.8230 -0.5484
   26U     H5'2  805   5.288   4.993   5.606  0.1941  0.3130 -0.3146
   26U      C4'  806   5.324   4.872   5.782 -0.7211  0.5980 -0.1603
   26U      H4'  807   5.429   4.894   5.803 -1.1105  2.4447 -0.0166
   26U      O4'  808   5.273   4.823   5.909  0.8022  0.2273 -0.3955
   26U      C1'  809   5.267   4.683   5.919 -0.7280 -0.9942 -0.1134
   26U      H1'  810   5.326   4.650   6.005 -0.8125 -0.3163  0.2159
   26U       N1  811   5.127   4.626   5.911  0.3607  0.2421  0.3120
   26U       C6  812   5.021   4.698   5.858 -0.0285 -0.1893  0.3628
   26U       H6  813   5.054   4.788   5.807  2.2189 -1.8707 -1.4232
   26U       C5  814   4.893   4.650   5.860  0.3955  0.5163  0.0476
   26U       H5  815   4.812   4.703   5.814  1.6932  1.2696 -1.4877
   26U       C4  816   4.866   4.520   5.923  0.1623  0.6244 -0.2951
   26U       O4  817   4.756   4.465   5.934 -0.1828 -0.4043 -0.4418
   26U       N3  818   4.978   4.456   5.971  0.0268 -0.4794  0.1265
   26U       H3  819   4.962   4.360   5.998 -0.6772  0.2694  2.7255
   26U       C2  820   5.105   4.507   5.976  0.1379 -0.3877 -0.5178
   26U       O2  821   5.195   4.442   6.026  0.4485 -0.0897 -0.0189
   26U      C3'  822   5.315   4.754   5.687 -0.0526 -0.6536  0.1947
   26U      H3'  823   5.212   4.750   5.652  0.2392  1.8835 -1.1707
   26U      C2'  824   5.335   4.633   5.786 -0.6044  0.3006 -0.2444
   26U      H2'  825   5.279   4.551   5.741 -1.5261 -0.2246  1.7418
   26U      O2'  826   5.476   4.603   5.798  0.2033  0.4166 -0.0891
   26U     HO2'  827   5.519   4.625   5.715 -0.0920  0.2346 -0.2945
   26U      O3'  828   5.417   4.748   5.590  0.4050  0.3605  0.5748
   27C        P  829   5.397   4.680   5.449 -0.2480 -0.2935 -0.1681
   27C      O1P  830   5.531   4.703   5.384  0.2550 -0.2046  0.0629
   27C      O2P  831   5.276   4.724   5.379 -0.2224  0.4635  0.2722
   27C      O5'  832   5.363   4.529   5.473 -0.1997  0.3826 -0.3417
   27C      C5'  833   5.462   4.433   5.466 -0.3056 -0.3829 -0.5563
   27C     H5'1  834   5.533   4.460   5.544 -0.3856 -0.6724 -0.3816
   27C     H5'2  835   5.504   4.433   5.366 -0.3043 -2.9586 -0.6066
   27C      C4'  836   5.401   4.302   5.516 -0.2453  0.5696 -0.4130
   27C      H4'  837   5.491   4.245   5.538  1.0634  2.6348 -0.0936
   27C      O4'  838   5.317   4.320   5.626  0.6539  0.2920  0.0019
   27C      C1'  839   5.222   4.205   5.633 -0.3997 -0.4159  0.2740
   27C      H1'  840   5.250   4.136   5.712 -0.3341  2.2756  2.7696
   27C       N1  841   5.086   4.254   5.637 -0.1876 -0.1456  0.3746
   27C       C6  842   5.042   4.375   5.596  0.2648 -0.5772 -0.1354
   27C       H6  843   5.113   4.446   5.557  0.1091 -0.7582 -0.7740
   27C       C5  844   4.908   4.405   5.599  0.2006  0.3260  0.4453
   27C       H5  845   4.873   4.500   5.564  1.7821  1.0602  0.7719
   27C       C4  846   4.828   4.307   5.658  0.2593 -0.2075  0.0822
   27C       N4  847   4.699   4.327   5.663 -0.5501 -0.5147 -0.7238
   27C      H41  848   4.648   4.275   5.733 -1.0535  0.7364 -0.1164
   27C      H42  849   4.653   4.405   5.618 -1.7520 -0.5857  0.3311
   27C       N3  850   4.870   4.192   5.702 -0.3370  0.0043  0.0112
   27C       C2  851   4.995   4.164   5.686 -0.3912 -0.2440 -0.0713
   27C       O2  852   5.033   4.049   5.712 -0.5191 -0.2048  0.1608
   27C      C3'  853   5.321   4.229   5.415  0.1888  0.1382 -0.0635
   27C      H3'  854   5.249   4.298   5.371 -0.3139 -0.8992 -0.9155
   27C      C2'  855   5.239   4.133   5.499  0.0030 -0.2800  0.3089
   27C      H2'  856   5.144   4.114   5.450  0.1915  1.3480 -0.7648
   27C      O2'  857   5.307   4.008   5.524  0.3051 -0.0339 -0.6863
   27C     HO2'  858   5.267   3.946   5.463 -0.7149  0.2182 -0.3003
   27C      O3'  859   5.408   4.165   5.323 -0.2674 -0.5540  0.9316
   28C        P  860   5.354   4.125   5.178  0.4643  0.3058 -0.1242
   28C      O1P  861   5.452   4.032   5.119  0.2794 -0.0876  0.0585
   28C      O2P  862   5.316   4.252   5.114 -0.1772  0.4601  0.1079
   28C      O5'  863   5.220   4.038   5.204  0.3669  0.4511 -0.0777
   28C      C5'  864   5.233   3.897   5.234 -0.6133  0.1283 -0.6605
   28C     H5'1  865   5.310   3.878   5.309  0.2722  0.4937 -1.4533
   28C     H5'2  866   5.278   3.838   5.154  1.5494 -0.6965  1.0513
   28C      C4'  867   5.112   3.828   5.291 -0.4868 -0.6524 -0.4742
   28C      H4'  868   5.143   3.728   5.322  1.4215  0.3033  0.9523
   28C      O4'  869   5.054   3.904   5.393  0.4140  0.5280 -0.4679
   28C      C1'  870   4.914   3.886   5.393  0.3609  0.3883  0.0808
   28C      H1'  871   4.875   3.831   5.479  1.3831 -1.2890 -0.4930
   28C       N1  872   4.828   4.009   5.388 -0.2788  0.3258  0.4024
   28C       C6  873   4.871   4.114   5.319  0.5998  0.2396  0.0002
   28C       H6  874   4.971   4.116   5.279  0.3642 -0.7553 -0.6666
   28C       C5  875   4.791   4.221   5.306 -0.5332  0.3270  0.3115
   28C       H5  876   4.826   4.311   5.258 -1.3596  1.8768  2.4443
   28C       C4  877   4.657   4.211   5.365 -0.2364  0.3250  0.1496
   28C       N4  878   4.572   4.307   5.350 -0.4852 -0.2490  0.1845
   28C      H41  879   4.474   4.280   5.354 -0.7610  0.2206 -1.9188
   28C      H42  880   4.611   4.393   5.313  1.2656 -1.0097  0.1852
   28C       N3  881   4.612   4.104   5.423  0.1283  0.5908 -0.6114
   28C       C2  882   4.697   3.998   5.432 -0.0191  0.1883 -0.2500
   28C       O2  883   4.645   3.894   5.475 -0.3096  0.4647  0.4539
   28C      C3'  884   5.007   3.821   5.180  0.2658 -0.4411 -0.8156
   28C      H3'  885   5.008   3.913   5.123  0.3607  0.0569 -0.0291
   28C      C2'  886   4.886   3.796   5.272 -0.5863 -0.0188  0.3108
   28C      H2'  887   4.795   3.823   5.219 -1.2835 -1.7544  0.5445
   28C      O2'  888   4.878   3.664   5.322  0.7110  0.2020 -0.2461
   28C     HO2'  889   4.890   3.601   5.251 -0.3801 -0.8059  0.4318
   28C      O3'  890   5.037   3.704   5.111  0.4909  0.0641 -0.0731
   29A        P  891   4.977   3.672   4.967  0.1144  0.2240 -0.5084
   29A      O1P  892   5.062   3.567   4.903  0.0272 -0.6373  0.5579
   29A      O2P  893   4.955   3.800   4.901  0.3971  0.4539  0.5618
   29A      O5'  894   4.837   3.603   4.997 -0.3861 -0.8189  0.0550
   29A      C5'  895   4.817   3.475   5.034 -0.3105  0.3665  0.3788
   29A     H5'1  896   4.868   3.453   5.128  0.1189 -2.1514 -0.3749
   29A     H5'2  897   4.849   3.410   4.952 -2.7367  1.2283 -1.3667
   29A      C4'  898   4.667   3.473   5.057 -0.5941 -0.1250  0.4449
   29A      H4'  899   4.630   3.375   5.088 -2.3385  0.0744 -0.8286
   29A      O4'  900   4.635   3.563   5.161 -0.5372 -0.3495  0.6806
   29A      C1'  901   4.500   3.601   5.140 -0.2191  0.4084 -0.1151
   29A      H1'  902   4.435   3.561   5.218  0.6509 -0.6892  0.0724
   29A       N9  903   4.495   3.747   5.145 -0.0213 -0.6484  1.2300
   29A       C8  904   4.577   3.837   5.078 -0.2578 -0.1777  0.5315
   29A       H8  905   4.671   3.809   5.033 -0.3447  1.1148 -0.5199
   29A       N7  906   4.551   3.962   5.097 -0.5892 -0.0497 -0.1687
   29A       C5  907   4.424   3.958   5.154 -0.3713  0.5083  0.8993
   29A       C6  908   4.326   4.052   5.204 -0.2247  1.3157 -0.1072
   29A       N6  909   4.345   4.184   5.214 -1.0770  0.3929 -0.7483
   29A      H61  910   4.277   4.243   5.260  1.1626  1.5866  1.2652
   29A      H62  911   4.432   4.215   5.173 -2.5498  3.0756 -2.0164
   29A       N1  912   4.205   4.012   5.248  0.0765  0.1492  0.6854
   29A       C2  913   4.188   3.875   5.247  0.0641 -0.3823  0.4256
   29A       H2  914   4.089   3.844   5.278 -0.7953  1.3185 -0.4959
   29A       N3  915   4.270   3.778   5.217  0.0355  0.2907 -0.3243
   29A       C4  916   4.386   3.826   5.176  0.1376  0.3555  0.0164
   29A      C3'  917   4.585   3.513   4.934 -0.6160  0.2412 -0.0685
   29A      H3'  918   4.628   3.605   4.897 -0.9251  1.2095  1.8426
   29A      C2'  919   4.455   3.552   5.001  0.0907  0.4453 -0.3384
   29A      H2'  920   4.423   3.639   4.944  0.1641  1.1879  0.7153
   29A      O2'  921   4.370   3.438   5.007 -0.4525  0.5443  0.0163
   29A     HO2'  922   4.327   3.433   4.921  1.3997 -2.3286 -0.9217
   29A      O3'  923   4.564   3.415   4.826  0.1408 -0.2349 -0.3192
   30G        P  924   4.541   3.465   4.675  0.0119  0.1754  0.5722
   30G      O1P  925   4.584   3.356   4.590  0.0521 -0.3176  0.1916
   30G      O2P  926   4.612   3.594   4.662  0.1961 -0.1518 -0.0870
   30G      O5'  927   4.384   3.493   4.674 -1.0426  0.4153  0.5322
   30G      C5'  928   4.292   3.390   4.658 -0.1159 -0.4316  0.0957
   30G     H5'1  929   4.323   3.317   4.732  0.2584  1.4503  1.8843
   30G     H5'2  930   4.286   3.351   4.556 -0.6385 -1.9930  0.6978
   30G      C4'  931   4.154   3.441   4.699 -0.6996  0.1144 -0.0809
   30G      H4'  932   4.087   3.356   4.708 -2.0724  1.2149  0.6252
   30G      O4'  933   4.152   3.524   4.820  0.0879  0.0585 -0.7554
   30G      C1'  934   4.075   3.644   4.807  0.3220 -0.1799  0.3786
   30G      H1'  935   3.999   3.646   4.884 -0.6952 -1.8436 -0.5418
   30G       N9  936   4.154   3.775   4.833 -0.2451  0.1455  0.4848
   30G       C8  937   4.282   3.812   4.795  1.3508  0.0911  0.0481
   30G       H8  938   4.356   3.741   4.761  2.6651  0.9664  0.9728
   30G       N7  939   4.315   3.932   4.834 -0.1190  0.6329  0.2945
   30G       C5  940   4.197   3.990   4.873 -0.1200 -1.6602  0.3966
   30G       C6  941   4.162   4.125   4.915  0.1887 -0.5764 -0.1571
   30G       O6  942   4.233   4.225   4.922  0.0316 -0.6961 -0.6287
   30G       N1  943   4.028   4.141   4.943 -0.0744  0.2264  0.8057
   30G       H1  944   3.990   4.233   4.957  0.1453  0.1913  1.6779
   30G       C2  945   3.946   4.044   4.962  0.0488  0.1122  0.2654
   30G       N2  946   3.824   4.071   4.993  0.2034 -0.0847  0.4105
   30G      H21  947   3.801   4.167   5.014  2.9001  0.8443 -0.4477
   30G      H22  948   3.766   3.989   5.006  1.8714 -1.4348 -0.2730
   30G       N3  949   3.976   3.917   4.929  0.1649 -0.2067  0.1303
   30G       C4  950   4.099   3.898   4.883 -0.0460 -0.2228  0.7045
   30G      C3'  951   4.097   3.539   4.593  0.4448 -0.6220  1.0777
   30G      H3'  952   4.182   3.595   4.555  0.0254 -0.4821  0.3306
   30G      C2'  953   4.012   3.645   4.668  0.0318  0.0069 -0.5101
   30G      H2'  954   4.005   3.745   4.625 -1.1403 -0.4981 -1.5695
   30G      O2'  955   3.877   3.601   4.680  0.1214 -0.3163  0.2021
   30G     HO2'  956   3.821   3.656   4.625  0.5222  1.0312  1.0763
   30G      O3'  957   4.024   3.470   4.491 -0.1713 -1.0556 -0.2218
   31C        P  958   3.990   3.537   4.351 -0.2551 -0.2852  0.0661
   31C      O1P  959   3.925   3.425   4.273  0.3648 -0.1345  0.2114
   31C      O2P  960   4.117   3.598   4.307 -0.4831  0.4858  0.1105
   31C      O5'  961   3.873   3.647   4.381 -0.4353  0.7663  0.2881
   31C      C5'  962   3.740   3.609   4.403  1.2552 -0.0982 -0.4887
   31C     H5'1  963   3.744   3.535   4.483  1.3722  0.6304  0.1914
   31C     H5'2  964   3.694   3.558   4.318 -1.2949 -0.4090  0.9465
   31C      C4'  965   3.657   3.737   4.442  0.0784 -0.0171 -0.7888
   31C      H4'  966   3.552   3.713   4.459 -0.1333  0.6615 -1.1056
   31C      O4'  967   3.711   3.786   4.567  0.4728 -0.3678  0.8445
   31C      C1'  968   3.699   3.930   4.570 -0.2973 -0.0832 -0.1124
   31C      H1'  969   3.632   3.964   4.650 -0.7147 -0.1423 -0.4361
   31C       N1  970   3.830   3.999   4.582 -0.6893 -0.0367  0.5582
   31C       C6  971   3.942   3.957   4.507  0.4196 -0.0437 -0.0290
   31C       H6  972   3.937   3.860   4.459 -0.8368  0.3505 -0.7456
   31C       C5  973   4.055   4.032   4.520 -0.0116  0.1648  0.4054
   31C       H5  974   4.140   3.995   4.466 -0.9567  1.2665 -1.9850
   31C       C4  975   4.055   4.154   4.590  0.7216 -0.0065  0.4402
   31C       N4  976   4.159   4.223   4.610 -0.3490 -0.5202  0.3877
   31C      H41  977   4.136   4.307   4.660 -2.3998 -1.6643  1.4992
   31C      H42  978   4.248   4.188   4.578  0.1353 -0.4370  1.5781
   31C       N3  979   3.945   4.193   4.656  0.5575 -0.7279  0.6063
   31C       C2  980   3.831   4.120   4.649 -0.2087  0.1487 -0.5092
   31C       O2  981   3.735   4.166   4.713  0.5903 -0.1025 -0.2379
   31C      C3'  982   3.654   3.853   4.347  0.3387  0.3926 -0.1244
   31C      H3'  983   3.753   3.850   4.301  0.3250  0.7066 -0.1778
   31C      C2'  984   3.630   3.971   4.440 -0.1031  0.4914 -0.1039
   31C      H2'  985   3.675   4.063   4.404 -0.0238  0.0275 -1.2567
   31C      O2'  986   3.492   3.985   4.474 -0.0523 -0.1430 -0.2730
   31C     HO2'  987   3.448   3.990   4.389  0.0074  0.2995 -0.2794
   31C      O3'  988   3.553   3.826   4.257  0.3601  0.0517  0.7876
   32A        P  989   3.554   3.891   4.115  0.6411  0.5262 -0.3066
   32A      O1P  990   3.430   3.846   4.050  0.4839 -0.2839 -0.0350
   32A      O2P  991   3.688   3.852   4.067 -0.0500  0.5271  0.1170
   32A      O5'  992   3.533   4.042   4.147  0.3356 -0.2398  0.1249
   32A      C5'  993   3.406   4.102   4.179 -0.7369  0.1382  0.6414
   32A     H5'1  994   3.355   4.040   4.253  1.8078 -1.1513  1.4440
   32A     H5'2  995   3.342   4.101   4.091  1.1097 -2.3057 -0.8277
   32A      C4'  996   3.432   4.253   4.223 -0.3256 -0.1225  0.3398
   32A      H4'  997   3.338   4.304   4.245 -0.9509 -1.2004  0.2604
   32A      O4'  998   3.527   4.265   4.334  0.0196  0.3236  0.1880
   32A      C1'  999   3.587   4.394   4.331 -0.8981  0.2560  0.0743
   32A      H1' 1000   3.549   4.449   4.417 -1.4926 -0.6893  0.4258
   32A       N9 1001   3.739   4.381   4.339  0.5030  0.7628  0.0567
   32A       C8 1002   3.817   4.285   4.286  0.5169 -0.3489  0.0886
   32A       H8 1003   3.774   4.196   4.243 -2.9657  0.6259  1.2300
   32A       N7 1004   3.947   4.309   4.298 -0.1073 -0.2568  0.0485
   32A       C5 1005   3.959   4.435   4.362  0.8516 -0.0426 -0.4897
   32A       C6 1006   4.057   4.532   4.390 -1.1041  0.3363  0.8349
   32A       N6 1007   4.189   4.523   4.358 -0.4759  0.2058 -0.2401
   32A      H61 1008   4.246   4.606   4.369 -1.8116  0.9988  1.0669
   32A      H62 1009   4.231   4.438   4.323 -0.1782 -0.8652  2.4958
   32A       N1 1010   4.028   4.649   4.441 -0.0220 -0.0943 -0.2894
   32A       C2 1011   3.898   4.674   4.451  0.7098 -0.6080 -0.0205
   32A       H2 1012   3.886   4.777   4.481 -0.1277 -1.0008  1.0697
   32A       N3 1013   3.793   4.602   4.430  0.3176  0.2013 -0.7807
   32A       C4 1014   3.829   4.479   4.383  0.1738 -0.0699 -0.6158
   32A      C3' 1015   3.486   4.344   4.114 -0.1724 -0.0805 -0.3922
   32A      H3' 1016   3.560   4.290   4.054 -1.2372  0.5226 -2.3277
   32A      C2' 1017   3.557   4.458   4.193  0.3791 -0.3044  0.3629
   32A      H2' 1018   3.647   4.486   4.138  1.4232 -1.0780  1.6294
   32A      O2' 1019   3.473   4.566   4.229 -0.0748 -0.7761 -0.6610
   32A     HO2' 1020   3.439   4.592   4.142 -0.1757  1.5377  0.0314
   32A      O3' 1021   3.396   4.401   4.027  0.0080 -0.7094  0.7303
   33C        P 1022   3.437   4.450   3.880  0.1670  0.2643  0.5198
   33C      O1P 1023   3.314   4.437   3.797  0.8362 -0.4163 -0.0618
   33C      O2P 1024   3.561   4.383   3.830  0.1783 -0.0855  0.3702
   33C      O5' 1025   3.475   4.603   3.905  0.2754  0.5139  0.5694
   33C      C5' 1026   3.382   4.702   3.916  0.1063  0.1018  1.2007
   33C     H5'1 1027   3.314   4.682   3.998 -2.9431  0.5839 -1.0272
   33C     H5'2 1028   3.323   4.716   3.825 -0.0781  2.4999  1.6302
   33C      C4' 1029   3.466   4.833   3.950  0.3485 -0.1781  0.3663
   33C      H4' 1030   3.395   4.916   3.960 -0.3104 -0.6697 -0.1348
   33C      O4' 1031   3.542   4.811   4.069 -0.3336  0.4001  0.3741
   33C      C1' 1032   3.664   4.879   4.062  0.1997 -0.7702  0.7259
   33C      H1' 1033   3.667   4.959   4.136 -0.3901  0.0469 -0.0956
   33C       N1 1034   3.785   4.799   4.049  0.3812  0.2525  0.1327
   33C       C6 1035   3.800   4.673   3.993  0.6082  0.3006  0.7658
   33C       H6 1036   3.717   4.633   3.937  0.5591  1.6462 -0.1870
   33C       C5 1037   3.913   4.605   3.987  0.5439  0.3612 -0.1766
   33C       H5 1038   3.919   4.510   3.937 -0.2603 -1.1309  2.3633
   33C       C4 1039   4.022   4.661   4.061 -0.2177  0.3457 -0.5153
   33C       N4 1040   4.130   4.593   4.074  0.0082 -0.1377  0.3930
   33C      H41 1041   4.204   4.634   4.129 -1.0934  0.7973  1.2469
   33C      H42 1042   4.123   4.495   4.052 -0.1254  0.3938 -2.2189
   33C       N3 1043   4.018   4.777   4.119 -0.1236  0.4255 -0.4581
   33C       C2 1044   3.902   4.846   4.112  0.5021  0.4894 -0.4585
   33C       O2 1045   3.910   4.950   4.176  0.4918 -0.0414  0.7526
   33C      C3' 1046   3.555   4.876   3.840 -0.3509 -0.2827  0.4907
   33C      H3' 1047   3.592   4.782   3.798  1.4201 -0.4325  2.2442
   33C      C2' 1048   3.650   4.960   3.929  0.0825  0.5344  1.0089
   33C      H2' 1049   3.745   4.967   3.876 -0.7001 -0.0583 -0.5348
   33C      O2' 1050   3.599   5.090   3.953  0.5349 -0.3584  0.5192
   33C     HO2' 1051   3.637   5.145   3.885  1.6303 -1.0079  0.5909
   33C      O3' 1052   3.495   4.959   3.737  0.1145  0.5880 -0.3105
   34C        P 1053   3.552   4.970   3.591  0.0985 -0.4504  0.1776
   34C      O1P 1054   3.446   5.015   3.496 -0.1754 -0.3850  0.3499
   34C      O2P 1055   3.632   4.847   3.562  0.5397  0.2399  0.4222
   34C      O5' 1056   3.664   5.080   3.592  0.0660  0.7950  0.0241
   34C      C5' 1057   3.643   5.216   3.616  0.0957  0.5175 -0.2184
   34C     H5'1 1058   3.570   5.221   3.697  0.6429 -2.6355  0.6147
   34C     H5'2 1059   3.606   5.261   3.524 -2.9295 -1.4627 -0.1426
   34C      C4' 1060   3.776   5.282   3.665 -0.3127  0.0466  0.5639
   34C      H4' 1061   3.750   5.386   3.687 -1.2515  0.3680 -1.7113
   34C      O4' 1062   3.831   5.222   3.779 -0.7795  0.3676 -0.1080
   34C      C1' 1063   3.977   5.229   3.786 -0.5664 -0.0476  0.0031
   34C      H1' 1064   4.005   5.286   3.875  1.1222  1.8541 -1.6357
   34C       N1 1065   4.029   5.092   3.793 -0.8128 -0.1352 -0.0853
   34C       C6 1066   3.963   4.980   3.749  0.0127  0.1563 -0.5308
   34C       H6 1067   3.864   4.996   3.710 -0.2571 -0.2291 -0.0164
   34C       C5 1068   4.019   4.859   3.748  0.2026  0.1209 -0.6634
   34C       H5 1069   3.967   4.771   3.714  1.1508 -0.9112  0.4793
   34C       C4 1070   4.150   4.849   3.803  0.4952 -0.2064  0.3208
   34C       N4 1071   4.213   4.737   3.816  0.0010 -0.2602  0.2126
   34C      H41 1072   4.302   4.738   3.865  1.6360 -1.5947 -2.4888
   34C      H42 1073   4.170   4.650   3.790 -0.2875  0.0662 -0.4289
   34C       N3 1074   4.214   4.954   3.847  0.0359  0.3650 -0.8320
   34C       C2 1075   4.162   5.076   3.843  0.3092 -0.2003  0.0159
   34C       O2 1076   4.217   5.172   3.890 -0.0097  0.8417 -0.1335
   34C      C3' 1077   3.898   5.271   3.564 -0.2909  0.8277  0.4870
   34C      H3' 1078   3.920   5.173   3.520 -0.8989  0.3930  1.1221
   34C      C2' 1079   4.009   5.311   3.656 -0.2189 -0.2916 -0.1483
   34C      H2' 1080   4.098   5.269   3.609 -0.2886 -1.5099  0.7636
   34C      O2' 1081   4.016   5.449   3.677  0.7458  0.0342  0.3120
   34C     HO2' 1082   3.969   5.486   3.603 -0.7122 -3.1307 -0.5339
   34C      O3' 1083   3.894   5.371   3.465  0.7823  0.0036 -0.4224
   35A        P 1084   3.952   5.341   3.318  0.3168 -0.0110  0.1409
   35A      O1P 1085   3.908   5.449   3.232  0.2725 -0.1255  0.0858
   35A      O2P 1086   3.914   5.205   3.281 -0.0610 -0.0568  0.8409
   35A      O5' 1087   4.110   5.344   3.340 -0.5826 -0.2099 -0.3752
   35A      C5' 1088   4.183   5.471   3.341 -0.2167  0.2337 -1.2239
   35A     H5'1 1089   4.142   5.537   3.418  0.4765 -0.3522 -0.3463
   35A     H5'2 1090   4.189   5.510   3.239  0.3227  0.7798 -0.9903
   35A      C4' 1091   4.327   5.446   3.384  0.1787  0.4157 -0.7077
   35A      H4' 1092   4.379   5.540   3.404 -1.3422  0.9699  0.8238
   35A      O4' 1093   4.328   5.365   3.503 -0.4554 -0.4269  0.0918
   35A      C1' 1094   4.433   5.273   3.500 -0.5386 -0.7719 -0.2273
   35A      H1' 1095   4.499   5.297   3.584  0.0825  0.2171 -0.9785
   35A       N9 1096   4.381   5.136   3.519  0.8406 -0.0402  0.6078
   35A       C8 1097   4.262   5.083   3.483  0.5566 -0.1587 -0.6104
   35A       H8 1098   4.180   5.144   3.448  1.5277  1.0757 -0.8019
   35A       N7 1099   4.251   4.953   3.501  0.2608 -0.3550  0.1955
   35A       C5 1100   4.374   4.917   3.550 -0.3804  0.0287 -0.6708
   35A       C6 1101   4.431   4.800   3.578 -0.2696  0.4033 -0.6103
   35A       N6 1102   4.374   4.676   3.570  0.1466  0.2860  0.6133
   35A      H61 1103   4.422   4.597   3.611 -0.5483 -0.1965  0.5128
   35A      H62 1104   4.281   4.668   3.531 -0.0762  1.9044  0.7568
   35A       N1 1105   4.558   4.795   3.618 -0.1549  0.8206  0.2052
   35A       C2 1106   4.628   4.905   3.620  0.3463 -0.2336 -1.1519
   35A       H2 1107   4.732   4.904   3.650  0.1655  2.4149 -0.1531
   35A       N3 1108   4.584   5.030   3.596 -0.0541 -0.4647  0.0970
   35A       C4 1109   4.456   5.029   3.552  0.1284 -0.5439  0.0652
   35A      C3' 1110   4.415   5.366   3.289  0.3714  0.0693 -0.3225
   35A      H3' 1111   4.342   5.299   3.242 -1.7230  0.7288  1.7755
   35A      C2' 1112   4.513   5.291   3.373  0.7887  1.0012 -0.6549
   35A      H2' 1113   4.534   5.193   3.332 -0.8086  1.3091 -2.3338
   35A      O2' 1114   4.634   5.351   3.407 -0.4713 -0.4073 -0.0026
   35A     HO2' 1115   4.701   5.287   3.381  0.4751  0.5394  0.0110
   35A      O3' 1116   4.486   5.432   3.189 -0.5730 -0.3150  0.0774
   36C        P 1117   4.528   5.356   3.060 -0.3718 -0.2859 -0.3011
   36C      O1P 1118   4.583   5.467   2.973  0.0371 -0.9009  0.4269
   36C      O2P 1119   4.410   5.288   3.001 -0.1460 -0.1963 -0.0102
   36C      O5' 1120   4.642   5.259   3.083  0.6029  0.0467  0.2017
   36C      C5' 1121   4.761   5.318   3.119 -0.7872  0.8051 -0.0069
   36C     H5'1 1122   4.759   5.411   3.176  1.5804  0.4882  0.7190
   36C     H5'2 1123   4.808   5.339   3.023  1.4201 -2.1893  0.2620
   36C      C4' 1124   4.867   5.233   3.187  0.4738  0.0053 -0.1463
   36C      H4' 1125   4.950   5.298   3.217  0.7687 -1.1607  1.7335
   36C      O4' 1126   4.808   5.168   3.299 -0.4499 -0.2093 -0.1880
   36C      C1' 1127   4.875   5.048   3.312 -0.2324 -0.3942 -0.1401
   36C      H1' 1128   4.923   5.041   3.409  0.3943  0.4513 -0.3748
   36C       N1 1129   4.787   4.933   3.300 -0.4048 -0.0009  0.7748
   36C       C6 1130   4.663   4.939   3.243  0.0613 -0.6854 -0.4010
   36C       H6 1131   4.630   5.034   3.202 -1.3051 -0.9662 -0.0150
   36C       C5 1132   4.580   4.830   3.241  0.8444 -0.3555 -0.0897
   36C       H5 1133   4.480   4.834   3.200  1.4948  0.1858 -1.6933
   36C       C4 1134   4.635   4.709   3.286 -0.6587  0.1594  0.4400
   36C       N4 1135   4.558   4.605   3.297  0.3621 -0.6973 -0.7425
   36C      H41 1136   4.591   4.522   3.343 -0.2679 -1.1571 -1.0993
   36C      H42 1137   4.463   4.622   3.269  0.7101  3.9355  0.1888
   36C       N3 1138   4.758   4.700   3.342 -0.0559 -0.0590  0.0698
   36C       C2 1139   4.833   4.812   3.347  0.3477  0.0680  0.0348
   36C       O2 1140   4.944   4.801   3.393  0.1489 -0.4070  0.6344
   36C      C3' 1141   4.910   5.126   3.096 -0.1311 -0.1594  0.2276
   36C      H3' 1142   4.828   5.070   3.051 -0.6537 -0.0311  0.9919
   36C      C2' 1143   4.981   5.044   3.201  0.1453  0.5461 -0.2465
   36C      H2' 1144   4.983   4.947   3.150 -2.2300  0.0203  0.5162
   36C      O2' 1145   5.117   5.078   3.241 -0.5820 -0.6641 -0.3619
   36C     HO2' 1146   5.156   5.125   3.166  0.1097 -1.2612 -0.3843
   36C      O3' 1147   4.997   5.182   3.001 -0.1260 -0.0049 -0.7142
   37A        P 1148   4.996   5.150   2.845  0.1391 -0.0695  0.0995
   37A      O1P 1149   5.075   5.253   2.776 -0.5445 -0.2852 -0.2727
   37A      O2P 1150   4.854   5.140   2.804 -0.6529  0.2675  0.1631
   37A      O5' 1151   5.058   4.996   2.831  0.1548 -0.0579  0.1249
   37A      C5' 1152   5.201   4.975   2.861  1.1727  0.2944 -0.7203
   37A     H5'1 1153   5.212   5.009   2.964  0.0059  2.3679 -1.2283
   37A     H5'2 1154   5.259   5.028   2.785  1.6018 -0.6516 -1.0635
   37A      C4' 1155   5.233   4.825   2.864 -0.3752  0.3709  0.1105
   37A      H4' 1156   5.337   4.811   2.892 -0.7201 -1.8419  0.4493
   37A      O4' 1157   5.153   4.777   2.973  0.3742  0.3887 -0.3292
   37A      C1' 1158   5.117   4.643   2.955  0.7555  0.5618 -0.0066
   37A      H1' 1159   5.173   4.587   3.030 -1.5671 -1.0983  0.5979
   37A       N9 1160   4.974   4.607   2.979 -0.2474  0.0577 -0.4936
   37A       C8 1161   4.871   4.692   2.988 -0.2691 -0.4353  0.2007
   37A       H8 1162   4.875   4.797   2.964 -2.2649 -0.5320 -0.7129
   37A       N7 1163   4.756   4.635   3.004  0.6141  1.0255 -0.2902
   37A       C5 1164   4.791   4.504   3.025  0.8497  0.0015  0.2294
   37A       C6 1165   4.724   4.389   3.068 -0.4206 -0.1261 -0.6170
   37A       N6 1166   4.596   4.382   3.096  0.0356 -0.0444 -0.1677
   37A      H61 1167   4.547   4.298   3.122  1.4615 -2.0492 -3.3559
   37A      H62 1168   4.545   4.470   3.098  0.9949  0.5194  1.4033
   37A       N1 1169   4.785   4.273   3.075 -0.3030  0.5178  0.2810
   37A       C2 1170   4.916   4.270   3.052  0.0379 -1.2544 -0.5127
   37A       H2 1171   4.963   4.173   3.043  0.0415 -1.2379 -0.6741
   37A       N3 1172   5.000   4.368   3.022  0.5521 -0.3161  0.5550
   37A       C4 1173   4.926   4.483   3.009 -0.6311 -0.5270  0.3396
   37A      C3' 1174   5.182   4.745   2.738 -0.0815 -0.8792  0.2226
   37A      H3' 1175   5.093   4.799   2.709  1.7712  3.3698  1.6106
   37A      C2' 1176   5.154   4.607   2.813  0.1508 -0.4408  0.0181
   37A      H2' 1177   5.075   4.556   2.758 -0.2292 -2.1751  2.0277
   37A      O2' 1178   5.271   4.526   2.817 -0.6295 -0.0508 -0.1154
   37A     HO2' 1179   5.246   4.446   2.770 -1.2938  0.6550 -1.0060
   37A      O3' 1180   5.261   4.741   2.614 -1.0147 -0.3719  0.4026
   38U        P 1181   5.199   4.668   2.487 -0.3651 -0.1121  0.2957
   38U      O1P 1182   5.289   4.703   2.372 -0.0211 -0.1539 -0.5149
   38U      O2P 1183   5.056   4.701   2.469  0.6693  0.2449  0.4124
   38U      O5' 1184   5.202   4.509   2.501  0.0414  0.0172  0.3720
   38U      C5' 1185   5.329   4.442   2.505  0.3053  0.8322  0.1075
   38U     H5'1 1186   5.402   4.493   2.567  0.6995  1.0826 -0.5527
   38U     H5'2 1187   5.374   4.427   2.407  2.0242 -0.4472  1.0425
   38U      C4' 1188   5.308   4.297   2.562  0.2522 -0.1953 -0.4941
   38U      H4' 1189   5.403   4.250   2.588  0.6952  0.3086 -1.1583
   38U      O4' 1190   5.222   4.296   2.682 -0.1620 -0.6316  0.4500
   38U      C1' 1191   5.140   4.180   2.682  0.0717 -0.7756  0.4133
   38U      H1' 1192   5.170   4.121   2.769  2.1455 -1.2977 -0.5946
   38U       N1 1193   4.994   4.211   2.688  0.3230  0.0611 -0.2610
   38U       C6 1194   4.933   4.315   2.617 -0.3070 -0.3809  0.0021
   38U       H6 1195   4.994   4.383   2.559 -0.9989 -0.2108 -0.5345
   38U       C5 1196   4.800   4.342   2.620  0.2443  0.7046 -0.3561
   38U       H5 1197   4.757   4.409   2.547  0.0654 -0.3937 -1.2884
   38U       C4 1198   4.711   4.264   2.703  0.9654 -0.8169 -0.6550
   38U       O4 1199   4.590   4.283   2.737  0.9685  0.2472 -0.1138
   38U       N3 1200   4.774   4.152   2.757 -0.7031 -0.1359 -0.2876
   38U       H3 1201   4.719   4.105   2.827 -0.0956  1.6270  1.4701
   38U       C2 1202   4.910   4.122   2.753 -0.2062 -0.1319 -0.3974
   38U       O2 1203   4.944   4.008   2.787 -0.3930  0.0192  0.4322
   38U      C3' 1204   5.240   4.205   2.457 -0.6399 -0.3217  0.6913
   38U      H3' 1205   5.157   4.250   2.401 -1.1057 -2.5385 -0.5207
   38U      C2' 1206   5.187   4.102   2.557 -1.2165  0.3184 -0.2256
   38U      H2' 1207   5.093   4.055   2.525 -1.6012  1.2349 -0.4906
   38U      O2' 1208   5.279   3.996   2.598  0.3984  0.5142 -0.0314
   38U     HO2' 1209   5.360   3.993   2.547 -0.0075 -1.5629 -0.6442
   38U      O3' 1210   5.329   4.140   2.366 -0.3861 -0.0690 -0.4604
   39A        P 1211   5.274   4.067   2.241  0.1883 -0.8706  0.1851
   39A      O1P 1212   5.394   4.022   2.171  0.4746 -0.6119  0.0568
   39A      O2P 1213   5.191   4.164   2.175  0.4435  0.0979 -0.4687
   39A      O5' 1214   5.181   3.950   2.289  0.1748 -0.1381  1.1187
   39A      C5' 1215   5.230   3.823   2.306  0.0608  0.0471 -0.5443
   39A     H5'1 1216   5.311   3.826   2.379 -0.6836  0.8019  0.2786
   39A     H5'2 1217   5.271   3.795   2.209 -0.4963 -0.0539 -0.7564
   39A      C4' 1218   5.131   3.721   2.352 -0.0128  0.1175 -0.5312
   39A      H4' 1219   5.180   3.623   2.357 -2.2702 -1.0388  2.4265
   39A      O4' 1220   5.083   3.750   2.483 -0.2885  0.1259  0.5903
   39A      C1' 1221   4.950   3.699   2.490  0.2343 -0.2354 -0.4772
   39A      H1' 1222   4.931   3.631   2.574 -0.8842 -0.5028 -0.9272
   39A       N9 1223   4.844   3.807   2.500 -0.8627 -0.5855  0.0006
   39A       C8 1224   4.862   3.938   2.455  0.0044  0.3014 -0.5940
   39A       H8 1225   4.951   3.970   2.404  0.7688 -1.9844 -0.7674
   39A       N7 1226   4.754   4.014   2.470 -0.5544 -0.4514  0.2509
   39A       C5 1227   4.659   3.927   2.531 -1.1606  0.0870  0.2321
   39A       C6 1228   4.528   3.935   2.571 -0.6800  0.1587 -0.2205
   39A       N6 1229   4.464   4.050   2.589  0.1673 -0.5754 -0.3228
   39A      H61 1230   4.377   4.052   2.640 -0.0707  0.8757 -0.7503
   39A      H62 1231   4.509   4.140   2.599 -1.8731  0.5509 -0.6723
   39A       N1 1232   4.462   3.831   2.615 -0.3291  0.3225 -0.2356
   39A       C2 1233   4.525   3.720   2.619 -0.5232 -0.1637 -0.1166
   39A       H2 1234   4.464   3.639   2.656 -1.4441  0.5452 -0.0543
   39A       N3 1235   4.654   3.695   2.585 -0.3030 -0.4701 -0.1584
   39A       C4 1236   4.714   3.803   2.536 -0.6455  0.1810 -0.1935
   39A      C3' 1237   5.009   3.700   2.259  0.1680 -0.2697  0.1376
   39A      H3' 1238   4.973   3.800   2.235  1.2690 -0.5131 -2.9956
   39A      C2' 1239   4.932   3.610   2.357  0.9475  0.2566  0.1469
   39A      H2' 1240   4.827   3.608   2.331  0.5817  0.0505  1.5611
   39A      O2' 1241   4.984   3.479   2.363 -0.0078  0.5353 -0.4086
   39A     HO2' 1242   5.000   3.455   2.271 -1.9850  1.4549 -1.0559
   39A      O3' 1243   5.035   3.619   2.148 -0.3642  0.2031 -0.0592
   40G        P 1244   4.956   3.637   2.017  0.2534 -0.3206  0.2105
   40G      O1P 1245   5.028   3.567   1.908 -0.0060  0.5727 -0.0911
   40G      O2P 1246   4.918   3.781   1.995 -0.1192 -0.1689  0.3775
   40G      O5' 1247   4.823   3.553   2.043  0.0849 -0.4465 -0.2007
   40G      C5' 1248   4.824   3.413   2.080 -0.8274 -0.2237 -0.5159
   40G     H5'1 1249   4.908   3.390   2.145 -1.7366 -1.2019  0.3552
   40G     H5'2 1250   4.849   3.359   1.988 -2.1750  0.6939 -1.4512
   40G      C4' 1251   4.692   3.358   2.145 -0.8097  0.4319 -0.1074
   40G      H4' 1252   4.702   3.252   2.168  2.4329  1.0164  1.8968
   40G      O4' 1253   4.658   3.419   2.262  0.2480 -0.0973  0.4560
   40G      C1' 1254   4.519   3.450   2.260 -0.2074 -0.3525  0.1516
   40G      H1' 1255   4.461   3.411   2.343 -1.8279 -0.0440 -0.7927
   40G       N9 1256   4.500   3.598   2.242  0.1111  0.4929 -0.1648
   40G       C8 1257   4.585   3.701   2.199 -0.4930 -0.4292 -0.0365
   40G       H8 1258   4.683   3.689   2.155 -1.0746 -0.7172 -1.2897
   40G       N7 1259   4.538   3.817   2.218  0.0311  0.4699  0.0826
   40G       C5 1260   4.413   3.797   2.265  0.4306  0.0885  0.7742
   40G       C6 1261   4.314   3.892   2.312 -0.5180 -0.2803  0.0101
   40G       O6 1262   4.315   4.018   2.323 -0.0787  0.0830  0.3027
   40G       N1 1263   4.200   3.836   2.365  0.2360 -0.0190  0.7557
   40G       H1 1264   4.125   3.898   2.392  1.2166  0.5685  2.2360
   40G       C2 1265   4.186   3.699   2.378 -0.2339  0.0924  0.1813
   40G       N2 1266   4.082   3.654   2.441  0.2782 -0.9048 -0.0289
   40G      H21 1267   4.010   3.720   2.466  0.5195 -1.3201  1.8587
   40G      H22 1268   4.081   3.553   2.452  3.6005 -1.0799 -0.2156
   40G       N3 1269   4.283   3.605   2.340 -0.0217 -0.4853  0.6097
   40G       C4 1270   4.386   3.662   2.281 -0.0149  0.2179  0.1915
   40G      C3' 1271   4.590   3.384   2.034  0.7101 -0.4275 -0.3859
   40G      H3' 1272   4.594   3.488   2.002  0.7647  0.9351  3.6246
   40G      C2' 1273   4.469   3.383   2.129 -0.5388  0.5955 -0.3983
   40G      H2' 1274   4.387   3.439   2.084  0.5114  1.5126 -1.2084
   40G      O2' 1275   4.419   3.250   2.157  0.0547  0.0543  0.3316
   40G     HO2' 1276   4.422   3.192   2.081 -0.3244 -0.9800  1.0787
   40G      O3' 1277   4.594   3.302   1.921 -0.4077 -0.0799  0.5344
   41G        P 1278   4.506   3.347   1.798 -0.0962  0.0006  0.1712
   41G      O1P 1279   4.463   3.221   1.739  0.2649  0.0452 -0.1230
   41G      O2P 1280   4.584   3.438   1.714  0.0423 -0.3133 -0.0237
   41G      O5' 1281   4.379   3.428   1.848 -0.4237 -0.2376  0.0195
   41G      C5' 1282   4.257   3.364   1.844  0.4244 -0.6187  0.3484
   41G     H5'1 1283   4.244   3.278   1.910 -3.1425 -1.5979 -1.3546
   41G     H5'2 1284   4.220   3.326   1.749 -0.6782 -1.8376  1.2257
   41G      C4' 1285   4.145   3.461   1.880  0.0858  0.5171  0.0790
   41G      H4' 1286   4.051   3.412   1.909  0.4033  0.8432  1.7765
   41G      O4' 1287   4.180   3.547   1.991  0.2386 -0.0339  0.0359
   41G      C1' 1288   4.112   3.668   1.973 -0.0120  0.5205 -0.1789
   41G      H1' 1289   4.034   3.669   2.049 -0.4327 -1.5343 -0.5164
   41G       N9 1290   4.180   3.795   1.992 -0.7486 -0.2705  0.4541
   41G       C8 1291   4.312   3.838   1.969  0.2673  0.5235 -0.2666
   41G       H8 1292   4.394   3.775   1.938 -2.0597 -2.8772 -0.0466
   41G       N7 1293   4.328   3.966   1.977  0.0054  0.0038  0.3604
   41G       C5 1294   4.202   4.013   2.011 -0.0865 -0.3899  0.5057
   41G       C6 1295   4.164   4.143   2.054  0.6840  0.1162  0.2646
   41G       O6 1296   4.228   4.247   2.053 -0.0432  0.0440  0.5296
   41G       N1 1297   4.026   4.150   2.081 -0.0026 -0.5875  0.8009
   41G       H1 1298   3.982   4.237   2.106 -2.8595 -2.1496  1.6083
   41G       C2 1299   3.950   4.042   2.087 -0.3921  0.8759  0.0189
   41G       N2 1300   3.827   4.058   2.111 -0.7040  0.2785 -0.1225
   41G      H21 1301   3.794   4.153   2.119 -0.0153  0.4022  2.0044
   41G      H22 1302   3.767   3.978   2.097  2.2177 -2.5118  1.6844
   41G       N3 1303   3.990   3.917   2.066 -0.2245 -0.3673  0.6020
   41G       C4 1304   4.117   3.906   2.029  0.9150 -0.2403  0.1644
   41G      C3' 1305   4.118   3.555   1.762 -0.1875  0.4718 -0.2433
   41G      H3' 1306   4.208   3.602   1.723 -0.2644 -0.4743 -1.6349
   41G      C2' 1307   4.043   3.661   1.835  0.1330 -0.8166 -0.2105
   41G      H2' 1308   4.039   3.761   1.792 -0.0520 -0.6527  0.1742
   41G      O2' 1309   3.912   3.619   1.872  0.2860  0.3558  0.2377
   41G     HO2' 1310   3.874   3.584   1.791  0.7642 -0.6454  0.4261
   41G      O3' 1311   4.046   3.493   1.656 -0.3897  0.1315 -0.4856
   42C3       P 1312   4.033   3.560   1.520  0.0705 -0.1423  0.3701
   42C3     O1P 1313   3.976   3.466   1.423 -0.9778 -0.0157  0.2943
   42C3     O2P 1314   4.163   3.619   1.476  0.2083  0.4396  0.1609
   42C3     O5' 1315   3.939   3.680   1.543  0.1902  0.3122 -0.3946
   42C3     C5' 1316   3.796   3.667   1.576  0.2662  0.5580 -0.3281
   42C3    H5'1 1317   3.791   3.597   1.660 -0.9175  0.9109 -0.0878
   42C3    H5'2 1318   3.746   3.622   1.490  0.2737 -0.1141  0.0081
   42C3     C4' 1319   3.725   3.793   1.604 -0.7586 -0.5616 -0.3020
   42C3     H4' 1320   3.622   3.769   1.629 -1.0705  1.0185  0.0086
   42C3     O4' 1321   3.767   3.869   1.716 -0.1940 -0.2883 -0.3639
   42C3     C1' 1322   3.750   4.009   1.696 -0.5661  0.1227  0.3035
   42C3     H1' 1323   3.680   4.051   1.768 -3.1861 -0.5903 -1.7102
   42C3      N1 1324   3.875   4.092   1.694  0.1254 -0.1914 -0.0946
   42C3      C6 1325   3.995   4.039   1.685  0.6314  0.1899 -0.0383
   42C3      H6 1326   4.010   3.933   1.670  0.0677 -0.0890  1.2232
   42C3      C5 1327   4.109   4.111   1.713 -0.0447  0.4924 -0.6183
   42C3      H5 1328   4.205   4.064   1.724 -0.4580 -0.1055  0.5839
   42C3      C4 1329   4.092   4.248   1.734 -0.4322  0.4390  0.3746
   42C3      N4 1330   4.195   4.323   1.758  0.0777  0.1603 -0.6401
   42C3     H41 1331   4.174   4.414   1.798 -1.1505 -0.1380 -0.5730
   42C3     H42 1332   4.291   4.293   1.752 -0.0088  0.0759 -1.7859
   42C3      N3 1333   3.978   4.309   1.732  0.1171 -0.0206 -0.1549
   42C3      C2 1334   3.865   4.233   1.722  0.4237  0.2303  0.1919
   42C3      O2 1335   3.762   4.297   1.716 -0.0551 -0.0965  0.0319
   42C3     C3' 1336   3.732   3.893   1.488 -0.5768 -0.3875  0.5615
   42C3     H3' 1337   3.837   3.906   1.461 -0.9776 -1.7031 -1.8610
   42C3     C2' 1338   3.689   4.022   1.555 -0.3769 -0.2744 -0.2271
   42C3     H2' 1339   3.728   4.103   1.495 -0.3067 -0.7111 -0.7805
   42C3     O2' 1340   3.549   4.034   1.563  0.2331 -0.1896 -0.3619
   42C3    HO2' 1341   3.514   4.123   1.554 -0.9415 -0.4731  1.0051
   42C3     O3' 1342   3.645   3.867   1.380  0.2152 -0.4171 -0.1802
   42C3     H3T 1343   3.556   3.899   1.397 -0.3464 -2.7110  1.7067
   43SOL     OW 1344   8.845   0.948   0.280  0.3207  0.1157 -0.2576
   43SOL    HW1 1345   8.850   0.854   0.300 -2.2731 -0.0221  0.0932
   43SOL    HW2 1346   8.850   0.991   0.366  2.6313  0.4463 -0.4877
   44SOL     OW 1347   8.172   8.718   1.213 -0.1383  0.1044 -0.6226
   44SOL    HW1 1348   8.132   8.778   1.276  1.6150  1.3518 -0.6489
   44SOL    HW2 1349   8.128   8.737   1.130 -2.7239 -1.7953  0.1693
   45SOL     OW 1350   0.085   0.329   1.033  0.4522 -0.1259  0.0616
   45SOL    HW1 1351  -0.002   0.351   0.999  0.5438  0.5812  0.2554
   45SOL    HW2 1352   0.076   0.241   1.068 -0.8540  0.8102  2.2781
   46SOL     OW 1353   0.838   2.060   1.084  0.3091 -0.6551 -0.2455
   46SOL    HW1 1354   0.917   2.056   1.031  1.6563 -2.6482  1.7255
   46SOL    HW2 1355   0.860   2.119   1.156 -0.0985 -1.0266  0.1873
   47SOL     OW 1356   1.677   1.715   0.589  0.3281  0.2028  0.2954
   47SOL    HW1 1357   1.705   1.637   0.542  1.8128  0.5585  0.5287
   47SOL    HW2 1358   1.632   1.768   0.524 -1.0325 -0.9879  0.2226
   48SOL     OW 1359   1.209   1.070   0.400  0.4278 -0.0696 -0.0607
   48SOL    HW1 1360   1.192   0.976   0.399 -0.4167  0.0688  0.0962
   48SOL    HW2 1361   1.168   1.103   0.320  1.6974  0.0187 -0.6938
   49SOL     OW 1362   1.918   0.599   0.040  0.0513 -0.6335  0.1881
   49SOL    HW1 1363   1.946   0.629  -0.046  0.0018 -1.7508 -0.2234
   49SOL    HW2 1364   1.906   0.680   0.090 -0.8624  0.0932 -1.1370
   50SOL     OW 1365   0.668   1.692   1.319 -0.1147 -0.1819  0.3898
   50SOL    HW1 1366   0.697   1.775   1.356  0.3991 -0.0567 -0.2731
   50SOL    HW2 1367   0.661   1.708   1.225 -1.3200 -0.5192  0.4096
   51SOL     OW 1368   0.278   1.051   1.763  0.4743  0.3743  0.2630
   51SOL    HW1 1369   0.362   1.057   1.808  1.5905  1.1066 -1.7862
   51SOL    HW2 1370   0.300   1.063   1.671 -1.8081 -0.1790 -0.3973
   52SOL     OW 1371   0.793   0.574   0.699 -0.0461 -0.2430  0.6510
   52SOL    HW1 1372   0.767   0.634   0.768 -0.3053  0.2247  0.1575
   52SOL    HW2 1373   0.841   0.504   0.744 -0.2828  0.0104  1.3040
   53SOL     OW 1374   0.627   1.183   2.091 -0.3053 -0.0566  0.3102
   53SOL    HW1 1375   0.679   1.263   2.078 -0.1364 -0.3847 -1.2033
   53SOL    HW2 1376   0.658   1.149   2.175  0.5633  0.7722  0.3580
   54SOL     OW 1377   0.369   2.193   1.082  0.1444  0.2716  0.8012
   54SOL    HW1 1378   0.412   2.278   1.070 -0.4516  0.4523 -0.1829
   54SOL    HW2 1379   0.440   2.132   1.102  1.1507  0.2204 -2.4141
   55SOL     OW 1380   1.685   1.384   1.487  0.4498 -0.6055 -0.2475
   55SOL    HW1 1381   1.718   1.416   1.571  0.3527 -0.3249 -0.3149
   55SOL    HW2 1382   1.758   1.338   1.448  1.0033  0.6687 -0.7452
   56SOL     OW 1383   0.445   0.709   1.311 -0.0467 -0.7166  0.3312
   56SOL    HW1 1384   0.400   0.772   1.367 -0.1944  0.0503 -0.6384
   56SOL    HW2 1385   0.394   0.707   1.230  2.4442  1.3420 -1.4316
   57SOL     OW 1386   1.732   0.505   0.611 -0.2190  0.5989  0.0820
   57SOL    HW1 1387   1.687   0.420   0.608  1.0803 -0.1428  0.4683
   57SOL    HW2 1388   1.702   0.545   0.693  0.1387 -0.0760  0.5537
   58SOL     OW 1389   0.527   1.647   0.164  0.7719 -0.1267 -0.1826
   58SOL    HW1 1390   0.466   1.674   0.232 -1.6048 -2.3044 -1.2575
   58SOL    HW2 1391   0.485   1.674   0.082  1.3643 -1.3765 -0.9455
   59SOL     OW 1392   1.591   1.745   1.697  0.0090  0.2136 -0.2384
   59SOL    HW1 1393   1.580   1.839   1.710  0.8258  0.2253  0.4648
   59SOL    HW2 1394   1.540   1.725   1.618  1.2374  1.5535 -1.4135
   60SOL     OW 1395   0.356   1.705   0.398 -0.0409 -0.2207  0.2897
   60SOL    HW1 1396   0.428   1.651   0.431 -0.4096 -0.2793  1.0391
   60SOL    HW2 1397   0.341   1.769   0.468 -0.8294 -0.3248  0.2194
   61SOL     OW 1398   0.432   1.500   0.887 -0.1527 -0.3765  0.2146
   61SOL    HW1 1399   0.494   1.471   0.954 -1.2530  0.0875  1.4840
   61SOL    HW2 1400   0.391   1.420   0.855  1.6847 -0.7738 -1.2831
   62SOL     OW 1401   0.870   2.211   1.298 -0.0335 -1.3288 -0.0927
   62SOL    HW1 1402   0.800   2.256   1.346  0.0764 -0.9088 -0.3186
   62SOL    HW2 1403   0.931   2.281   1.275  0.0003 -1.5521 -0.6882
   63SOL     OW 1404   0.354   0.739   0.624  0.2249 -0.4870 -0.3307
   63SOL    HW1 1405   0.372   0.713   0.534 -0.2346  1.0872 -0.8993
   63SOL    HW2 1406   0.284   0.679   0.652 -0.3198 -0.3559 -1.3613
   64SOL     OW 1407   1.432   0.317   1.146 -0.8425  0.0172 -0.0254
   64SOL    HW1 1408   1.440   0.232   1.101 -0.6347 -0.1476  0.3172
   64SOL    HW2 1409   1.509   0.321   1.203 -2.2080 -0.7664  1.9972
   65SOL     OW 1410   0.234   0.346   0.543 -0.3175 -0.0560  0.1622
   65SOL    HW1 1411   0.173   0.282   0.507 -1.2501  0.7868  0.1941
   65SOL    HW2 1412   0.280   0.380   0.466 -1.5979  1.0161 -0.1741
   66SOL     OW 1413   1.900   1.797   0.723 -0.1566  0.0994 -0.3743
   66SOL    HW1 1414   1.830   1.774   0.663 -0.2732  0.4001 -0.3533
   66SOL    HW2 1415   1.879   1.751   0.804  0.4348 -0.9656 -0.8134
   67SOL     OW 1416   8.556   2.366   8.847 -1.0112  0.1118  0.2842
   67SOL    HW1 1417   8.482   2.418   8.878 -1.7236 -0.8536  0.2389
   67SOL    HW2 1418   8.542   2.279   8.885 -1.2866 -0.8059 -1.7654
   68SOL     OW 1419   1.537   0.912   0.928 -0.5263 -0.2609  0.7145
   68SOL    HW1 1420   1.489   0.896   1.009  0.0350  1.3752  1.4109
   68SOL    HW2 1421   1.629   0.906   0.953 -0.3375 -1.7101 -0.2513
   69SOL     OW 1422   1.810   1.200   0.735  0.1313 -0.1271 -0.0133
   69SOL    HW1 1423   1.816   1.221   0.828  1.0285 -0.4917  0.0274
   69SOL    HW2 1424   1.900   1.179   0.710 -0.2676 -1.0823 -0.7134
   70SOL     OW 1425   0.254   0.317   1.613  0.4866  0.0612 -0.2733
   70SOL    HW1 1426   0.246   0.288   1.522  1.2566  1.6416 -0.8968
   70SOL    HW2 1427   0.333   0.274   1.646 -0.7591 -1.9273  0.2759
   71SOL     OW 1428   0.564   1.588   0.604 -0.6201 -0.3967  0.1346
   71SOL    HW1 1429   0.567   1.494   0.623  1.2715 -0.3731  0.1645
   71SOL    HW2 1430   0.520   1.626   0.680 -1.3437 -1.2489  0.1536
   72SOL     OW 1431   1.425   1.362   1.160  0.0858 -0.0613  0.2602
   72SOL    HW1 1432   1.340   1.388   1.195  0.0572  1.4219 -0.8169
   72SOL    HW2 1433   1.421   1.267   1.155 -0.6743 -0.1703  2.2572
   73SOL     OW 1434   0.895   8.814   0.700  0.9312 -0.6648 -0.5070
   73SOL    HW1 1435   0.828   8.807   0.632  0.8317 -0.8169 -0.3956
   73SOL    HW2 1436   0.866   8.887   0.755  0.7843 -0.8165 -0.3810
   74SOL     OW 1437   0.212   1.091   1.390  0.1032 -0.3558 -0.4529
   74SOL    HW1 1438   0.255   1.175   1.373 -0.5358  0.2622  0.8669
   74SOL    HW2 1439   0.123   1.103   1.358  0.1230 -0.6755 -0.6272
   75SOL     OW 1440   1.319   1.183   0.625  0.4475  0.0940  0.0377
   75SOL    HW1 1441   1.292   1.136   0.546 -1.8228 -1.7117  1.7492
   75SOL    HW2 1442   1.415   1.185   0.620  0.3970 -0.3553 -2.4882
   76SOL     OW 1443   1.138   1.676   1.267 -0.0655 -0.0571 -0.3174
   76SOL    HW1 1444   1.111   1.616   1.337 -0.6832  0.4101 -0.1465
   76SOL    HW2 1445   1.153   1.760   1.312  0.9756 -0.1203 -0.5227
   77SOL     OW 1446   0.027   8.808   2.154 -0.5230 -0.0863  0.2113
   77SOL    HW1 1447   0.024   8.878   2.088 -0.5612 -1.1853 -1.0027
   77SOL    HW2 1448  -0.013   8.733   2.110  3.0425 -2.0694 -0.0181
   78SOL     OW 1449   1.592   1.195   0.573 -0.2277 -0.1521  0.2307
   78SOL    HW1 1450   1.665   1.193   0.635  0.0733 -0.5033 -0.1274
   78SOL    HW2 1451   1.596   1.110   0.529 -1.0563 -0.3060  0.4353
   79SOL     OW 1452   1.368   2.098   0.557 -0.1196 -0.4225 -0.1340
   79SOL    HW1 1453   1.354   2.069   0.466  0.8350 -0.2304 -0.3522
   79SOL    HW2 1454   1.304   2.047   0.608 -0.8153 -0.3801 -0.9289
   80SOL     OW 1455   8.839   0.644   0.246  0.0382 -0.1273  0.0447
   80SOL    HW1 1456   8.866   0.619   0.158 -0.6496 -1.1633  0.1110
   80SOL    HW2 1457   8.838   0.562   0.295  0.0854  0.3848  0.9368
   81SOL     OW 1458   1.141   0.170   0.768 -0.0081 -0.7398  0.4268
   81SOL    HW1 1459   1.207   0.239   0.772 -1.6339  1.0280 -1.1058
   81SOL    HW2 1460   1.180   0.102   0.713  1.2585 -0.6519  1.1862
   82SOL     OW 1461   1.327   1.961   0.316 -0.4077 -0.1004 -0.0035
   82SOL    HW1 1462   1.304   1.868   0.320  0.2195 -0.2608  0.0027
   82SOL    HW2 1463   1.244   2.006   0.302 -0.7865 -0.6178  0.5720
   83SOL     OW 1464   0.906   0.698   1.496  0.7744  0.4722 -0.4911
   83SOL    HW1 1465   0.829   0.737   1.454  0.1740  0.3707  0.4753
   83SOL    HW2 1466   0.917   0.613   1.453  0.4136  0.5368 -0.7129
   84SOL     OW 1467   1.471   1.129   1.451 -0.0422 -0.1150 -0.6463
   84SOL    HW1 1468   1.489   1.216   1.486 -3.1291  0.7822 -0.9831
   84SOL    HW2 1469   1.515   1.069   1.510  0.3752  1.6081  0.8711
   85SOL     OW 1470   1.399   1.679   1.494  0.4643  0.0571  0.1335
   85SOL    HW1 1471   1.464   1.641   1.435 -0.4085 -1.9428  0.3749
   85SOL    HW2 1472   1.327   1.616   1.493 -2.6621  3.2830 -2.0428
   86SOL     OW 1473   0.887   0.447   1.367  0.2664 -0.2219  0.3588
   86SOL    HW1 1474   0.902   0.379   1.300 -0.4273 -0.6801  0.6572
   86SOL    HW2 1475   0.823   0.506   1.327  1.2370  0.5437 -0.0911
   87SOL     OW 1476   1.586   0.649   0.211  0.2322 -0.8738 -0.2121
   87SOL    HW1 1477   1.546   0.733   0.189 -1.3358 -1.1488  1.3449
   87SOL    HW2 1478   1.659   0.672   0.269  1.1253 -0.5046 -1.4235
   88SOL     OW 1479   8.538   0.580   0.732 -0.8540 -0.9259  0.3354
   88SOL    HW1 1480   8.495   0.499   0.760  0.5853 -1.6773  0.4767
   88SOL    HW2 1481   8.612   0.589   0.792  1.1478 -1.4966 -1.9221
   89SOL     OW 1482   8.812   2.248   1.774  0.4854  0.0573 -0.1125
   89SOL    HW1 1483   8.749   2.225   1.842  0.3923 -1.1968 -0.5900
   89SOL    HW2 1484   8.872   2.309   1.817  1.1301 -1.5838  1.4928
   90SOL     OW 1485   1.390   0.706   8.718  0.2833  0.3261 -0.1882
   90SOL    HW1 1486   1.347   0.624   8.741  0.8874 -0.0806 -0.4714
   90SOL    HW2 1487   1.458   0.717   8.785  1.8621 -0.7163 -1.5279
   91SOL     OW 1488   1.611   0.980   1.625  0.1524 -0.4563  0.8331
   91SOL    HW1 1489   1.666   0.912   1.663  1.1149 -0.0437  0.2028
   91SOL    HW2 1490   1.611   1.049   1.692 -0.0412 -0.6735  1.0612
   92SOL     OW 1491   1.193   1.417   0.578 -0.8098  0.6206 -0.0940
   92SOL    HW1 1492   1.130   1.408   0.507 -0.6747  0.8269 -0.2419
   92SOL    HW2 1493   1.252   1.342   0.568  0.4806  1.7586 -1.4877
   93SOL     OW 1494   0.061   0.638   1.151 -0.0581  0.2996 -0.0697
   93SOL    HW1 1495   0.001   0.634   1.076  1.3381 -3.0213 -1.2195
   93SOL    HW2 1496   0.139   0.681   1.117  0.8891 -1.9275 -0.9209
   94SOL     OW 1497   0.991   1.423   0.350 -0.1092  0.5952 -0.2930
   94SOL    HW1 1498   0.917   1.473   0.315 -1.5911 -0.9160  0.5217
   94SOL    HW2 1499   0.950   1.351   0.398  1.9052  0.0311  0.6785
   95SOL     OW 1500   0.637   2.103   0.910  0.1833 -0.2756  0.2937
   95SOL    HW1 1501   0.709   2.094   0.972  0.1824  0.8494  0.4844
   95SOL    HW2 1502   0.558   2.094   0.963  0.1686 -1.4960  0.0866
   96SOL     OW 1503   1.871   1.083   1.268  0.5957  0.4964 -0.0260
   96SOL    HW1 1504   1.963   1.105   1.275  1.0765 -1.3587 -0.0393
   96SOL    HW2 1505   1.848   1.047   1.354 -0.2867  1.4674  0.1677
   97SOL     OW 1506   0.989   1.928   1.605 -0.6789  0.0594 -0.7399
   97SOL    HW1 1507   0.924   1.950   1.671 -1.2920 -0.5164 -1.1426
   97SOL    HW2 1508   1.072   1.924   1.653 -1.1742 -0.7668  0.0808
   98SOL     OW 1509   0.040   1.160   0.121 -0.0726 -0.0573 -0.3628
   98SOL    HW1 1510  -0.033   1.153   0.059 -0.7677 -1.7332  0.6040
   98SOL    HW2 1511   0.020   1.097   0.190  1.1220  1.1272  1.1456
   99SOL     OW 1512   1.834   1.226   1.025 -0.7172 -0.1409  0.5084
   99SOL    HW1 1513   1.888   1.148   1.015 -0.0299 -0.2466  3.8871
   99SOL    HW2 1514   1.808   1.226   1.117 -1.4165  3.1780  0.4460
  100SOL     OW 1515   0.634   1.593   1.843 -0.3056 -0.2785  0.2549
  100SOL    HW1 1516   0.657   1.614   1.752  0.1497 -1.8773 -0.0260
  100SOL    HW2 1517   0.559   1.534   1.835 -2.9198  2.6715  1.0775
  101SOL     OW 1518   0.986   1.919   8.685 -0.1730 -0.2334  0.3091
  101SOL    HW1 1519   0.998   1.956   8.772 -1.8157 -0.8448  0.8366
  101SOL    HW2 1520   1.045   1.969   8.629  0.5542  0.4993  1.6803
  102SOL     OW 1521   0.081   0.094   1.654  0.1142 -0.1726 -0.4358
  102SOL    HW1 1522   0.144   0.165   1.656 -0.1309  0.0674 -1.0412
  102SOL    HW2 1523   0.060   0.082   1.562 -1.1940  0.1741 -0.2040
  103SOL     OW 1524   1.595   1.131   0.192 -0.1463 -0.2028  0.1581
  103SOL    HW1 1525   1.664   1.103   0.253  0.5169  0.7244 -0.1457
  103SOL    HW2 1526   1.550   1.201   0.237 -0.1238 -0.0061 -0.1223
  104SOL     OW 1527   0.857   1.893   0.654 -0.2763 -0.5196  0.2111
  104SOL    HW1 1528   0.819   1.850   0.731 -2.9686  0.3339 -0.5240
  104SOL    HW2 1529   0.842   1.832   0.582 -0.6760  0.0292 -0.1768
  105SOL     OW 1530   1.436   8.772   0.219  0.7630  0.1098 -0.1861
  105SOL    HW1 1531   1.459   8.679   0.214  1.1068  0.2565 -1.7469
  105SOL    HW2 1532   1.347   8.772   0.254  0.9667 -0.7650  0.3755
  106SOL     OW 1533   8.750   1.871   1.184 -0.7485  0.1607  0.1192
  106SOL    HW1 1534   8.841   1.890   1.162 -1.0550  1.5575 -0.0598
  106SOL    HW2 1535   8.715   1.826   1.107 -0.5769  0.8996 -0.4013
  107SOL     OW 1536   1.324   1.766   0.602  0.1087  0.0893  0.2161
  107SOL    HW1 1537   1.346   1.680   0.639 -2.4550  0.3625  2.7207
  107SOL    HW2 1538   1.299   1.748   0.512 -1.2942 -2.0276  0.9539
  108SOL     OW 1539   0.105   0.602   0.004  0.4729 -0.2132 -0.2229
  108SOL    HW1 1540   0.045   0.577  -0.066  0.6739  0.8391 -0.7999
  108SOL    HW2 1541   0.168   0.531   0.007 -2.2083 -2.7285  2.2159
  109SOL     OW 1542   1.876   0.822   1.484  0.0605  0.3053  0.4179
  109SOL    HW1 1543   1.924   0.898   1.516 -0.1316  0.4122  0.4562
  109SOL    HW2 1544   1.815   0.800   1.554  0.8531 -0.5478  0.8495
  110SOL     OW 1545   0.153   0.487   8.470 -0.2022 -1.0041 -0.9036
  110SOL    HW1 1546   0.111   0.402   8.486 -1.8714 -0.6044 -2.7614
  110SOL    HW2 1547   0.086   0.551   8.493  0.0096 -0.2917 -2.1625
  111SOL     OW 1548   0.637   0.376   2.072 -0.2677  0.7311  0.3485
  111SOL    HW1 1549   0.669   0.464   2.049  1.8527  0.1657  0.8908
  111SOL    HW2 1550   0.717   0.325   2.088 -1.3800 -1.6792 -1.2498
  112SOL     OW 1551   0.898   1.506   1.258 -0.0297 -0.4786 -0.9086
  112SOL    HW1 1552   0.861   1.485   1.172 -0.7330  0.3277 -0.8163
  112SOL    HW2 1553   0.833   1.563   1.299 -0.1972 -1.6442  0.5731
  113SOL     OW 1554   1.233   0.531   1.382 -0.3380 -0.1591 -0.0855
  113SOL    HW1 1555   1.285   0.577   1.447 -1.2711  0.0540  0.5260
  113SOL    HW2 1556   1.162   0.592   1.361 -2.6774 -1.9132  2.0844
  114SOL     OW 1557   0.687   1.838   1.082 -0.0559 -0.6738 -0.5162
  114SOL    HW1 1558   0.714   1.792   1.003 -0.6605  0.8001 -1.6202
  114SOL    HW2 1559   0.754   1.905   1.096 -0.9104  0.2733 -0.8613
  115SOL     OW 1560   1.119   0.772   0.832  0.3556  0.2053  0.4517
  115SOL    HW1 1561   1.196   0.793   0.884  1.0492  0.0794 -0.4893
  115SOL    HW2 1562   1.150   0.705   0.770 -0.2329  0.8907 -0.6180
  116SOL     OW 1563   0.463   0.629   0.396 -0.2027  0.2360  0.0024
  116SOL    HW1 1564   0.555   0.642   0.371 -0.3082  0.0104 -0.5024
  116SOL    HW2 1565   0.427   0.572   0.328 -0.4042 -0.6805  0.8546
  117SOL     OW 1566   1.064   1.437   8.639  0.5086  0.3272  0.3331
  117SOL    HW1 1567   1.037   1.384   8.713  0.1121 -2.4031 -1.6329
  117SOL    HW2 1568   1.076   1.525   8.675 -0.2955 -0.7391  3.4414
  118SOL     OW 1569   0.880   0.356   0.384  0.2806  0.2703  0.1744
  118SOL    HW1 1570   0.878   0.260   0.387 -0.0640  0.2837  0.5660
  118SOL    HW2 1571   0.973   0.378   0.379  0.3477 -0.0890 -0.2234
  119SOL     OW 1572   1.625   0.605   0.846  0.2165 -0.4208  0.3083
  119SOL    HW1 1573   1.624   0.699   0.859 -1.4837 -0.1313 -1.4738
  119SOL    HW2 1574   1.592   0.569   0.928 -0.9713  0.6650  0.3305
  120SOL     OW 1575   1.233   1.014   1.368 -0.3596 -0.0848  1.0463
  120SOL    HW1 1576   1.228   1.078   1.297 -1.9125 -1.9489 -0.6435
  120SOL    HW2 1577   1.309   1.041   1.420 -0.6898  2.8190  0.1682
  121SOL     OW 1578   1.371   1.552   0.732  0.0754  0.3169 -0.1150
  121SOL    HW1 1579   1.411   1.480   0.781  1.5854  0.7313 -0.6537
  121SOL    HW2 1580   1.298   1.512   0.686  0.9571 -0.9344 -0.4934
  122SOL     OW 1581   0.668   1.139   0.967  0.1657 -0.1066 -0.1268
  122SOL    HW1 1582   0.756   1.136   1.004 -0.0626  0.9737  0.5508
  122SOL    HW2 1583   0.681   1.131   0.872  0.9694 -0.2066 -0.0123
  123SOL     OW 1584   1.085   2.358   0.709 -0.4573 -0.2798  0.4150
  123SOL    HW1 1585   1.179   2.370   0.697 -0.3640 -1.6755 -0.4674
  123SOL    HW2 1586   1.060   2.423   0.775  0.6679  1.6968 -1.0340
  124SOL     OW 1587   1.302   0.959   8.657  0.3528  0.2024 -0.0134
  124SOL    HW1 1588   1.345   0.888   8.705  1.0379 -0.9240 -2.1872
  124SOL    HW2 1589   1.375   1.012   8.623 -0.1403  1.3546  0.6458
  125SOL     OW 1590   8.489   0.055   1.516 -0.1560  0.1339  0.1726
  125SOL    HW1 1591   8.571   0.075   1.472  0.3639  1.4157  1.6623
  125SOL    HW2 1592   8.500  -0.035   1.548  0.1356 -0.1629 -0.7192
  126SOL     OW 1593   0.389   0.397   1.085 -0.3031  0.1768 -0.2170
  126SOL    HW1 1594   0.293   0.395   1.084 -0.3321  1.2638 -1.1153
  126SOL    HW2 1595   0.413   0.441   1.004  0.9435  0.5902  0.3625
  127SOL     OW 1596   1.150   0.469   0.338  0.3360  0.6388 -0.2766
  127SOL    HW1 1597   1.140   0.414   0.260  0.5364  0.6590 -0.3161
  127SOL    HW2 1598   1.244   0.485   0.344  1.0132 -2.9548  2.4258
  128SOL     OW 1599   1.126   8.666   1.416 -0.6017 -0.1656 -0.2339
  128SOL    HW1 1600   1.154   8.588   1.369 -1.9032 -0.1691 -1.0429
  128SOL    HW2 1601   1.195   8.730   1.400 -1.2005 -0.0161 -2.5846
  129SOL     OW 1602   1.278   0.801   1.071  0.2626  0.2812  0.3306
  129SOL    HW1 1603   1.199   0.780   1.121  0.0179 -0.1569 -0.2233
  129SOL    HW2 1604   1.324   0.865   1.125 -1.5431  2.2218 -0.2832
  130SOL     OW 1605   1.554   0.560   1.102 -0.1351  1.0120  0.2569
  130SOL    HW1 1606   1.496   0.484   1.102  1.4008 -0.2025  0.2306
  130SOL    HW2 1607   1.522   0.614   1.174  0.0233 -0.6883  1.6599
  131SOL     OW 1608   2.241   0.766   0.848 -0.3740  0.1285  0.4623
  131SOL    HW1 1609   2.335   0.773   0.833 -0.0866  0.0185  2.0632
  131SOL    HW2 1610   2.230   0.785   0.941 -2.0467  1.1134  0.1061
  132SOL     OW 1611   0.755   1.606   8.845  0.0619  0.1208 -0.2919
  132SOL    HW1 1612   0.711   1.590   8.762 -1.3699 -0.7276  0.5907
  132SOL    HW2 1613   0.691   1.581   8.912  0.7493  1.8089  1.1054
  133SOL     OW 1614   1.770   1.469   0.489  0.0359 -0.1885 -0.2549
  133SOL    HW1 1615   1.782   1.409   0.415  0.4912  0.7897 -1.0088
  133SOL    HW2 1616   1.774   1.414   0.566  0.5078 -1.1181 -0.9250
  134SOL     OW 1617   1.659   0.953   8.793 -0.1016  0.5157  0.6729
  134SOL    HW1 1618   1.732   0.891   8.801 -0.2109  0.3837  0.6533
  134SOL    HW2 1619   1.636   0.974   8.884  1.3115  2.1677  0.7032
  135SOL     OW 1620   0.656   0.291   0.081  0.2529 -0.2337 -0.1381
  135SOL    HW1 1621   0.666   0.279   0.176 -2.3995 -0.0958  0.2380
  135SOL    HW2 1622   0.642   0.203   0.047  0.1042 -0.1781 -0.2241
  136SOL     OW 1623   2.074   1.274   1.733 -0.5000 -0.0606  0.4948
  136SOL    HW1 1624   2.082   1.362   1.770  0.6104 -0.3922  1.1105
  136SOL    HW2 1625   2.164   1.243   1.725 -0.8830 -1.4745  1.1592
  137SOL     OW 1626   0.896   1.662   0.924 -0.1557  0.3529 -0.5297
  137SOL    HW1 1627   0.982   1.650   0.964  0.0859  0.2415 -1.0704
  137SOL    HW2 1628   0.903   1.620   0.838 -1.9176 -3.0807  0.8220
  138SOL     OW 1629   2.078   1.563   1.739 -0.1146 -0.1686 -0.4026
  138SOL    HW1 1630   1.988   1.591   1.756  0.2971  0.0412  1.6338
  138SOL    HW2 1631   2.130   1.604   1.808  1.9005  1.2970 -2.6104
  139SOL     OW 1632   0.870   1.344   0.835  0.4672  0.1261 -0.1902
  139SOL    HW1 1633   0.950   1.291   0.842  0.7249  0.3830 -1.0163
  139SOL    HW2 1634   0.898   1.424   0.790 -0.1429  0.4765  0.0388
  140SOL     OW 1635   1.446   1.299   0.888 -0.1320 -0.0433 -0.1762
  140SOL    HW1 1636   1.460   1.329   0.978 -2.1687 -0.9952  0.5366
  140SOL    HW2 1637   1.462   1.205   0.892 -0.2557 -0.0933 -0.8088
  141SOL     OW 1638   0.804   0.193   1.583  0.6776 -0.4104 -0.8463
  141SOL    HW1 1639   0.806   0.116   1.527 -0.9125 -0.8757 -0.3157
  141SOL    HW2 1640   0.776   0.265   1.526  1.7530 -0.2916 -1.2445
  142SOL     OW 1641   1.182   1.242   1.736  0.2316 -0.1694  0.7812
  142SOL    HW1 1642   1.113   1.301   1.766 -0.6916 -0.3199 -0.9635
  142SOL    HW2 1643   1.142   1.191   1.666  1.3235 -2.1819  1.5545
  143SOL     OW 1644   0.723   1.064   0.710  0.1561 -0.5431  0.1840
  143SOL    HW1 1645   0.806   1.016   0.701  0.0762 -0.4812 -1.0865
  143SOL    HW2 1646   0.663   1.019   0.651  0.1349  1.2128 -1.2395
  144SOL     OW 1647   0.945   1.399   1.789 -0.1463 -0.2696  0.4187
  144SOL    HW1 1648   0.919   1.484   1.754 -1.3052 -0.7031  0.1807
  144SOL    HW2 1649   0.926   1.405   1.883 -0.8281 -0.4614  0.3028
  145SOL     OW 1650   0.908   0.319   1.126  0.1432  0.5484 -0.8867
  145SOL    HW1 1651   0.880   0.323   1.034  1.2954  0.0884 -1.2687
  145SOL    HW2 1652   1.000   0.344   1.125  0.0914  0.8387  0.1983
  146SOL     OW 1653   8.689   2.071   1.361 -0.1284  0.3354  0.3778
  146SOL    HW1 1654   8.694   1.997   1.300 -0.2258 -0.3630  1.1931
  146SOL    HW2 1655   8.765   2.059   1.418 -0.6705  0.3144  1.1083
  147SOL     OW 1656   0.083   1.392   0.739 -0.3389  0.0546 -0.0773
  147SOL    HW1 1657   0.161   1.341   0.719 -0.3349  0.5953 -1.5075
  147SOL    HW2 1658   0.078   1.390   0.835 -0.0646 -2.1981 -0.0350
  148SOL     OW 1659   0.955   0.013   0.988  0.3172  0.0426 -0.2644
  148SOL    HW1 1660   1.031   0.013   1.047  1.4829 -1.3009 -1.6428
  148SOL    HW2 1661   0.992   0.037   0.903 -0.7138 -1.0094 -1.0413
  149SOL     OW 1662   1.224   1.713   0.355 -0.3299 -0.4571  0.5760
  149SOL    HW1 1663   1.275   1.647   0.308 -0.6790  0.6247 -1.4265
  149SOL    HW2 1664   1.133   1.696   0.329 -0.6391 -0.3669  1.5699
  150SOL     OW 1665   1.568   1.588   1.309 -0.0824  0.2607 -0.7357
  150SOL    HW1 1666   1.613   1.557   1.388  1.9373  2.4945 -0.9056
  150SOL    HW2 1667   1.560   1.510   1.254  2.6106 -0.5281 -0.1721
  151SOL     OW 1668   2.072   0.782   0.632  0.1273  0.1642 -0.3158
  151SOL    HW1 1669   1.987   0.817   0.657 -0.8295 -1.8910 -0.4986
  151SOL    HW2 1670   2.119   0.771   0.715 -0.6598 -0.7749  0.0275
  152SOL     OW 1671   0.232   1.652   0.986  0.1169 -0.5918 -0.2948
  152SOL    HW1 1672   0.210   1.594   1.058  0.1770 -0.2796 -0.0211
  152SOL    HW2 1673   0.327   1.647   0.978  0.3347  0.8062  0.9011
  153SOL     OW 1674   0.790   1.183   1.623  0.0911 -0.5618  0.3177
  153SOL    HW1 1675   0.821   1.265   1.660  0.7043 -0.4861 -0.3426
  153SOL    HW2 1676   0.866   1.146   1.578 -0.7148 -0.4579 -1.1901
  154SOL     OW 1677   1.607   1.152   1.835 -0.3431  0.1258  0.1283
  154SOL    HW1 1678   1.530   1.173   1.888  0.5986  0.0084  1.6141
  154SOL    HW2 1679   1.664   1.103   1.894  0.7017 -0.1462 -1.0566
  155SOL     OW 1680   1.050   0.351   2.064  0.2871 -0.2383  0.2268
  155SOL    HW1 1681   1.060   0.352   1.969 -0.9504  0.3132  0.0845
  155SOL    HW2 1682   1.090   0.433   2.093 -1.6879  0.9117 -0.1188
  156SOL     OW 1683   0.588   0.456   1.686 -0.5336 -0.0884 -0.2058
  156SOL    HW1 1684   0.575   0.373   1.731 -0.3043  0.2070  0.4085
  156SOL    HW2 1685   0.591   0.521   1.755  2.1993  0.1109 -0.4148
  157SOL     OW 1686   0.638   1.320   1.226  0.2494 -0.0041  0.4900
  157SOL    HW1 1687   0.720   1.276   1.248  0.6580  0.4473 -0.1135
  157SOL    HW2 1688   0.659   1.374   1.150 -0.2759  1.1590  1.1428
  158SOL     OW 1689   1.120   0.786   1.320 -0.3755  0.1346  0.1378
  158SOL    HW1 1690   1.062   0.764   1.393  1.8860  0.5412  2.1958
  158SOL    HW2 1691   1.156   0.872   1.343  3.2150 -1.2868  0.5657
  159SOL     OW 1692   1.666   0.492   0.014  0.2122 -0.1973  0.1695
  159SOL    HW1 1693   1.758   0.516   0.006  0.2317  0.0495  1.0401
  159SOL    HW2 1694   1.633   0.546   0.085 -0.8880  0.5090 -0.8270
  160SOL     OW 1695   8.629   0.316   1.062  0.4554 -0.2773 -0.0403
  160SOL    HW1 1696   8.656   0.379   1.129  1.2107  1.3039 -1.7408
  160SOL    HW2 1697   8.595   0.241   1.112 -1.0350  1.6596  2.1018
  161SOL     OW 1698   0.167   1.458   1.139 -0.4547  0.2996  0.5784
  161SOL    HW1 1699   0.233   1.413   1.192  0.0922  0.9077  0.4279
  161SOL    HW2 1700   0.119   1.387   1.095  0.4666 -0.1394  0.2525
  162SOL     OW 1701   0.661   1.007   1.220 -0.1751 -0.1992  0.1805
  162SOL    HW1 1702   0.639   1.070   1.151 -0.8321 -1.2420 -0.5945
  162SOL    HW2 1703   0.622   1.044   1.299 -0.1723  0.5801 -0.1694
  163SOL     OW 1704   2.179   0.880   1.664  0.1713 -0.2610  0.0508
  163SOL    HW1 1705   2.273   0.862   1.666  0.2529  0.1730  0.8247
  163SOL    HW2 1706   2.160   0.913   1.752 -0.6695 -0.1703 -0.1598
  164SOL     OW 1707   0.561   0.209   0.352 -0.3262 -0.2260  0.6580
  164SOL    HW1 1708   0.573   0.258   0.434 -3.6864  0.0198  1.1379
  164SOL    HW2 1709   0.544   0.119   0.379  2.6411 -1.1077 -0.0781
  165SOL     OW 1710   2.093   0.729   0.363  0.0028  0.1714  0.4221
  165SOL    HW1 1711   2.181   0.693   0.351 -0.7632 -1.7221  0.1315
  165SOL    HW2 1712   2.087   0.747   0.457  0.6373  0.1348  0.4721
  166SOL     OW 1713   0.970   0.771   1.078 -0.2340 -0.1508  0.4545
  166SOL    HW1 1714   0.984   0.685   1.117  0.4431  0.2921  1.2098
  166SOL    HW2 1715   1.011   0.765   0.991 -1.6827 -1.1146 -0.1977
  167SOL     OW 1716   1.525   2.023   1.678 -0.1898  0.2425  0.0240
  167SOL    HW1 1717   1.518   2.098   1.737 -0.5209  2.0919 -2.2608
  167SOL    HW2 1718   1.601   2.041   1.624 -0.8808 -0.5444 -1.2697
  168SOL     OW 1719   2.336   1.180   1.677  0.3653  0.0614  0.6600
  168SOL    HW1 1720   2.430   1.180   1.691  0.3206 -1.1200  1.0253
  168SOL    HW2 1721   2.325   1.139   1.591  0.0678 -2.2539  1.7334
  169SOL     OW 1722   0.375   0.842   2.011  0.2346  0.7027 -0.0018
  169SOL    HW1 1723   0.339   0.793   1.938 -0.7720  0.6482  0.5168
  169SOL    HW2 1724   0.424   0.914   1.971  0.9607 -0.1806 -0.7477
  170SOL     OW 1725   2.224   0.550   0.041 -0.2729 -0.0188  0.2717
  170SOL    HW1 1726   2.260   0.545   0.129 -0.8092  0.0441  0.4976
  170SOL    HW2 1727   2.152   0.613   0.048 -0.1379  0.2064 -0.2751
  171SOL     OW 1728   1.809   0.711   0.382  0.7934  0.3110  0.0124
  171SOL    HW1 1729   1.809   0.629   0.431  0.3973  0.6544  0.6050
  171SOL    HW2 1730   1.894   0.715   0.340  0.2514 -1.1571 -1.3123
  172SOL     OW 1731   0.942   1.565   0.668  0.5609 -0.3762 -0.2990
  172SOL    HW1 1732   1.027   1.529   0.646  0.5975 -1.3906  1.2882
  172SOL    HW2 1733   0.913   1.610   0.589  2.8611  0.6238 -0.6534
  173SOL     OW 1734   0.190   0.882   1.117  0.1620 -0.0209  0.4514
  173SOL    HW1 1735   0.130   0.925   1.056 -1.8196 -3.1797 -0.0562
  173SOL    HW2 1736   0.172   0.923   1.202 -1.2083  0.5587 -0.0956
  174SOL     OW 1737   0.460   0.901   1.002  0.0418 -0.1252 -0.2695
  174SOL    HW1 1738   0.374   0.895   1.043  0.1943  1.1925  0.2995
  174SOL    HW2 1739   0.451   0.970   0.937  0.6126 -0.1235 -0.3528
  175SOL     OW 1740   1.086   0.378   1.772  0.1661 -0.6867  0.0009
  175SOL    HW1 1741   1.038   0.455   1.741 -1.8865 -1.9660 -0.1829
  175SOL    HW2 1742   1.116   0.335   1.692  1.8810  0.2217  0.1219
  176SOL     OW 1743   1.091   0.257   1.533 -0.1397 -0.3311 -0.1772
  176SOL    HW1 1744   1.011   0.226   1.574 -0.9140 -0.1424 -1.4896
  176SOL    HW2 1745   1.083   0.230   1.441  1.6787 -1.0343 -0.1757
  177SOL     OW 1746   8.693   1.175   8.778 -0.5688 -1.2050  0.3272
  177SOL    HW1 1747   8.700   1.101   8.718  0.9267  0.8698 -2.2304
  177SOL    HW2 1748   8.671   1.250   8.723  1.8671  1.0508  2.1424
  178SOL     OW 1749   0.155   2.045   0.817 -0.1380 -0.5339  0.0604
  178SOL    HW1 1750   0.159   2.085   0.730 -0.2792 -1.5236 -0.4137
  178SOL    HW2 1751   0.181   2.115   0.877  1.2582 -0.1959 -0.8946
  179SOL     OW 1752   0.399   1.895   0.612  0.1300  0.3146 -0.3915
  179SOL    HW1 1753   0.328   1.957   0.596  0.1923  0.2633 -0.8926
  179SOL    HW2 1754   0.467   1.946   0.655 -0.5168  0.1888  0.8501
  180SOL     OW 1755   0.898   1.030   1.109 -0.4631  0.4657  0.2642
  180SOL    HW1 1756   0.810   1.015   1.143 -0.7915 -0.3869 -0.8641
  180SOL    HW2 1757   0.923   0.945   1.071 -0.5072  1.5330 -2.3592
  181SOL     OW 1758   0.265   1.005   0.745  0.1839  0.3940  0.0517
  181SOL    HW1 1759   0.186   0.994   0.692 -0.5499 -0.0661  1.1969
  181SOL    HW2 1760   0.314   0.924   0.733 -0.5233 -0.1856  0.9101
  182SOL     OW 1761   8.717   0.174   1.406  0.2658 -0.0094 -0.2294
  182SOL    HW1 1762   8.781   0.119   1.363  1.1112  1.0144 -0.3219
  182SOL    HW2 1763   8.734   0.262   1.372  0.6703  0.7631  1.8221
  183SOL     OW 1764   1.460   1.068   1.202 -0.3490 -0.0480 -0.0298
  183SOL    HW1 1765   1.457   1.084   1.296 -0.0874 -1.6130  0.2762
  183SOL    HW2 1766   1.550   1.039   1.186 -0.8297 -1.3803 -0.4555
  184SOL     OW 1767   1.098   0.813   0.356  0.1654 -0.4639  0.7050
  184SOL    HW1 1768   1.023   0.758   0.380  0.4416 -0.7474  0.9150
  184SOL    HW2 1769   1.114   0.792   0.264 -0.1272 -0.2657  0.6051
  185SOL     OW 1770   1.376   0.307   1.484 -0.2284  0.2096 -0.5479
  185SOL    HW1 1771   1.304   0.321   1.547  1.2018 -0.3093  1.2903
  185SOL    HW2 1772   1.354   0.365   1.411 -2.3310  0.3372  0.0915
  186SOL     OW 1773   0.340   1.375   1.572  0.2943 -0.0499  0.1495
  186SOL    HW1 1774   0.269   1.361   1.634 -1.7875 -0.0479 -2.1150
  186SOL    HW2 1775   0.406   1.310   1.597 -2.2625 -2.9725 -0.1426
  187SOL     OW 1776   0.736   0.699   1.280  0.1065 -0.1625 -0.6758
  187SOL    HW1 1777   0.666   0.642   1.310  0.4392 -1.3928 -2.0789
  187SOL    HW2 1778   0.692   0.781   1.255 -0.4925 -0.0867  0.5589
  188SOL     OW 1779   0.877   1.664   1.672 -0.0967  0.4034  0.0471
  188SOL    HW1 1780   0.874   1.758   1.657 -2.4721  0.2598 -0.9098
  188SOL    HW2 1781   0.817   1.628   1.607  1.7512 -1.9346 -0.4734
  189SOL     OW 1782   0.908   0.653   0.470  0.4790  0.6784 -0.3117
  189SOL    HW1 1783   0.873   0.633   0.557  0.9883 -0.5289 -0.3621
  189SOL    HW2 1784   0.861   0.594   0.412  0.8001  0.8355 -0.7342
  190SOL     OW 1785   0.348   1.339   1.308  0.2289  0.2367 -0.4166
  190SOL    HW1 1786   0.438   1.334   1.276  0.5739  1.9743  0.1571
  190SOL    HW2 1787   0.356   1.376   1.396 -0.9805 -0.6272  0.0716
  191SOL     OW 1788   1.108   1.235   1.042 -0.1372  0.1267  0.5017
  191SOL    HW1 1789   1.047   1.161   1.038  0.6007 -0.4535 -0.3903
  191SOL    HW2 1790   1.127   1.256   0.951  0.8750  0.3973  0.7556
  192SOL     OW 1791   1.819   1.046   0.342  0.3164 -0.2037  0.2468
  192SOL    HW1 1792   1.913   1.028   0.345 -0.1123 -2.9686 -0.2773
  192SOL    HW2 1793   1.778   0.973   0.389 -1.6462 -0.1036 -1.1475
  193SOL     OW 1794   1.831   1.893   1.045 -0.2250 -0.2614  0.1034
  193SOL    HW1 1795   1.908   1.911   0.991 -1.3241 -0.2134 -1.5073
  193SOL    HW2 1796   1.808   1.802   1.026 -0.3415 -0.4054  0.8875
  194SOL     OW 1797   1.131   1.573   1.025 -0.2173  0.4908 -0.4469
  194SOL    HW1 1798   1.178   1.490   1.036 -1.5973 -0.2476  0.1096
  194SOL    HW2 1799   1.109   1.600   1.114 -2.3668 -0.0999 -0.7539
  195SOL     OW 1800   0.144   1.664   0.706  0.1136  0.4638  0.4617
  195SOL    HW1 1801   0.116   1.573   0.692 -4.4712  1.1713  3.1338
  195SOL    HW2 1802   0.190   1.662   0.791  1.4208  0.4812 -0.2232
  196SOL     OW 1803   0.747   1.938   1.742  0.0001 -0.4026  0.5314
  196SOL    HW1 1804   0.708   1.989   1.813  1.1682  2.9541 -0.9965
  196SOL    HW2 1805   0.672   1.901   1.695 -0.9452  0.1282  1.5802
  197SOL     OW 1806   1.179   0.217   0.167 -0.3825  0.4760  0.6288
  197SOL    HW1 1807   1.258   0.202   0.116 -0.0195  3.9163 -0.0248
  197SOL    HW2 1808   1.107   0.198   0.107 -0.1938 -2.3850  1.1417
  198SOL     OW 1809   2.022   0.323   0.712 -0.0748  0.0881  0.4146
  198SOL    HW1 1810   1.967   0.249   0.738  0.0476 -0.9565 -2.0701
  198SOL    HW2 1811   1.964   0.381   0.664  0.2882  0.6105  0.5981
  199SOL     OW 1812   1.506   1.334   0.364 -0.0382 -0.1989 -0.4647
  199SOL    HW1 1813   1.541   1.295   0.444  0.5995 -0.8792 -1.0532
  199SOL    HW2 1814   1.550   1.419   0.357  0.6857 -0.5671 -0.6006
  200SOL     OW 1815   0.316   2.018   2.129 -0.0804 -0.3110 -0.2192
  200SOL    HW1 1816   0.280   1.957   2.066 -1.4834 -0.2943  0.5222
  200SOL    HW2 1817   0.358   1.963   2.195 -0.9338 -0.4609  0.2054
  201SOL     OW 1818   1.430   0.879   0.685  0.4522 -0.1452 -0.0292
  201SOL    HW1 1819   1.493   0.894   0.756  1.7522  1.1499 -1.3913
  201SOL    HW2 1820   1.367   0.951   0.694  1.2673  0.6966 -0.8307
  202SOL     OW 1821   0.706   1.496   1.539  0.5544  0.0032 -0.1850
  202SOL    HW1 1822   0.674   1.537   1.458 -1.0540 -0.9977 -0.0893
  202SOL    HW2 1823   0.673   1.406   1.535  0.7581 -0.1666  1.4297
  203SOL     OW 1824   1.122   1.683   8.751 -0.2886  0.4157 -0.2222
  203SOL    HW1 1825   1.067   1.687   8.830  2.0803  0.6501  1.5186
  203SOL    HW2 1826   1.104   1.764   8.705 -1.1922  0.6091  0.4346
  204SOL     OW 1827   1.733   2.078   1.526 -0.1166  0.1079 -0.0307
  204SOL    HW1 1828   1.709   2.045   1.440 -0.4016 -1.0935  0.4938
  204SOL    HW2 1829   1.807   2.137   1.509 -0.3734  0.1342 -1.1203
  205SOL     OW 1830   1.860   0.109   0.805 -0.4926  0.2300 -0.1261
  205SOL    HW1 1831   1.848   0.019   0.776 -0.7518 -0.1151  0.9960
  205SOL    HW2 1832   1.793   0.159   0.758  2.0452  0.6041 -3.7728
  206SOL     OW 1833   0.436   0.580   0.870 -0.3646  0.5457  0.4610
  206SOL    HW1 1834   0.342   0.573   0.854 -0.3279  3.1702 -1.4373
  206SOL    HW2 1835   0.470   0.631   0.797  2.8009 -1.3172  0.4136
  207SOL     OW 1836   1.577   1.805   8.757 -0.0055  0.2357  0.0133
  207SOL    HW1 1837   1.581   1.721   8.711 -1.7167  0.8269 -1.3268
  207SOL    HW2 1838   1.542   1.866   8.692  1.2037  2.0187  0.9473
  208SOL     OW 1839   1.097   1.325   1.286  0.4068  0.0977 -0.4426
  208SOL    HW1 1840   1.099   1.290   1.197  0.1076 -0.1113 -0.3665
  208SOL    HW2 1841   1.030   1.393   1.283 -0.1320 -0.4140 -0.1912
  209SOL     OW 1842   0.870   0.995   0.366  0.4882  0.1455 -0.0172
  209SOL    HW1 1843   0.952   0.961   0.331 -0.0473 -2.2388  0.8469
  209SOL    HW2 1844   0.803   0.934   0.334 -0.6213  0.6559  1.2217
  210SOL     OW 1845   1.655   1.547   8.715  0.2965  0.3283 -0.4154
  210SOL    HW1 1846   1.705   1.485   8.768  1.2607  0.3350 -1.2949
  210SOL    HW2 1847   1.678   1.527   8.625  0.4847  1.8295 -0.7266
  211SOL     OW 1848   0.295   1.657   1.571  0.6908 -0.3414 -0.2982
  211SOL    HW1 1849   0.248   1.673   1.490  0.3454 -1.4327 -0.3331
  211SOL    HW2 1850   0.305   1.562   1.575  0.4365 -0.3443  1.0676
  212SOL     OW 1851   1.833   1.636   0.944  0.4275  0.2749  0.2233
  212SOL    HW1 1852   1.924   1.606   0.940  0.4088 -0.7625  3.7371
  212SOL    HW2 1853   1.781   1.556   0.948 -0.3931  0.8143  0.7876
  213SOL     OW 1854   0.716   1.496   1.018 -0.1958  0.4620 -0.0709
  213SOL    HW1 1855   0.766   1.569   0.981  1.9105 -0.6984  0.3557
  213SOL    HW2 1856   0.733   1.423   0.960  0.1938 -0.4504  1.1387
  214SOL     OW 1857   0.745   0.049   1.177 -0.4812 -0.6068 -0.1185
  214SOL    HW1 1858   0.716   0.138   1.197  0.4396 -0.6506  1.5541
  214SOL    HW2 1859   0.818   0.061   1.117  0.4893 -0.1364  1.1163
  215SOL     OW 1860   0.684   1.472   0.292  0.4804  0.1858 -0.4922
  215SOL    HW1 1861   0.632   1.545   0.259  0.0412 -0.7266 -1.9057
  215SOL    HW2 1862   0.640   1.394   0.258  2.2767 -0.6523 -1.0036
  216SOL     OW 1863   1.708   0.165   1.058  0.8119  0.1690 -0.0390
  216SOL    HW1 1864   1.770   0.105   1.018  1.5628  0.5067  0.5714
  216SOL    HW2 1865   1.745   0.183   1.145 -0.1283  0.4047  0.3257
  217SOL     OW 1866   0.598   1.296   0.569 -0.0288 -0.1134  0.3947
  217SOL    HW1 1867   0.668   1.289   0.504 -0.9353 -0.4380 -0.5744
  217SOL    HW2 1868   0.628   1.243   0.642  0.1300 -1.4175 -0.5729
  218SOL     OW 1869   0.583   0.919   1.506  0.2077  0.0558  0.7916
  218SOL    HW1 1870   0.619   0.865   1.577  0.8615 -0.9800 -0.2757
  218SOL    HW2 1871   0.492   0.891   1.497  0.3643 -0.4215  0.6702
  219SOL     OW 1872   0.349   0.701   1.756 -0.3700  0.3620 -0.2111
  219SOL    HW1 1873   0.444   0.693   1.759 -0.3409  0.8539  0.4549
  219SOL    HW2 1874   0.332   0.756   1.679 -0.0474  1.1088  0.2379
  220SOL     OW 1875   0.113   1.253   8.517 -0.2763 -1.1664 -0.6458
  220SOL    HW1 1876   0.018   1.246   8.506 -0.4346 -0.1895 -0.0715
  220SOL    HW2 1877   0.139   1.172   8.560 -0.9295 -1.2346 -0.3733
  221SOL     OW 1878   1.503   0.712   1.308  0.5794  0.0338  0.4267
  221SOL    HW1 1879   1.597   0.720   1.326  0.8414 -0.4029 -0.6990
  221SOL    HW2 1880   1.464   0.695   1.394  1.5288  0.2011  0.9048
  222SOL     OW 1881   0.224   8.829   0.293 -0.1518  0.0863  0.1122
  222SOL    HW1 1882   0.245   8.764   0.226  1.8263  1.3836 -0.6220
  222SOL    HW2 1883   0.281   8.808   0.367 -1.0388 -0.2568  0.7244
  223SOL     OW 1884   1.286   1.538   0.057  0.3229  0.1449 -0.5726
  223SOL    HW1 1885   1.249   1.453   0.037 -0.5926  0.5468 -0.6341
  223SOL    HW2 1886   1.234   1.600   0.005  0.1820  0.8633  0.4001
  224SOL     OW 1887   1.013   1.145   1.497 -0.2628 -0.0736  0.2587
  224SOL    HW1 1888   0.996   1.191   1.414  0.0979  2.2803  1.3980
  224SOL    HW2 1889   1.050   1.061   1.471 -0.8020  0.3285 -1.9861
  225SOL     OW 1890   1.504   1.811   1.150 -0.5157 -0.0855  0.0111
  225SOL    HW1 1891   1.472   1.730   1.190  1.2889 -0.6047  0.5031
  225SOL    HW2 1892   1.551   1.782   1.072  0.6272  0.4167  0.4912
  226SOL     OW 1893   0.768   0.929   1.737 -0.4436  0.0733  0.2468
  226SOL    HW1 1894   0.771   1.010   1.686  0.8122  0.3564  0.7290
  226SOL    HW2 1895   0.839   0.939   1.801 -0.0939 -1.5194  0.1358
  227SOL     OW 1896   1.788   1.358   1.740  0.0251 -0.2517 -0.8017
  227SOL    HW1 1897   1.774   1.275   1.785 -0.6067  0.8974  1.2589
  227SOL    HW2 1898   1.866   1.343   1.686 -0.3370 -2.2935 -0.8297
  228SOL     OW 1899   0.024   2.059   1.546 -0.6555 -0.0434  0.9728
  228SOL    HW1 1900   0.042   1.969   1.576  1.1517 -0.0537  0.0259
  228SOL    HW2 1901   0.033   2.112   1.625 -1.0724 -0.6216  1.4199
  229SOL     OW 1902   2.250   0.418   0.867  0.1182 -0.8762 -0.1659
  229SOL    HW1 1903   2.209   0.474   0.933  1.5506 -0.8323  0.7186
  229SOL    HW2 1904   2.180   0.359   0.839 -1.1778  0.7333 -0.4555
  230SOL     OW 1905   1.430   0.457   0.354  0.2351 -0.2268  0.4105
  230SOL    HW1 1906   1.458   0.500   0.434  1.5679 -1.9802  0.9544
  230SOL    HW2 1907   1.486   0.494   0.286  1.9822 -1.5932  1.0138
  231SOL     OW 1908   0.720   0.712   0.927  0.1690  0.1537  0.0011
  231SOL    HW1 1909   0.626   0.726   0.932  0.0217 -0.6934 -0.2342
  231SOL    HW2 1910   0.750   0.722   1.018 -0.0183  1.1964 -0.0409
  232SOL     OW 1911   1.909   0.696   1.236  0.2129 -0.0681 -0.1284
  232SOL    HW1 1912   1.850   0.621   1.242  0.4024 -0.2392 -0.3895
  232SOL    HW2 1913   1.922   0.724   1.326  0.3620 -0.5217 -0.0055
  233SOL     OW 1914   2.090   0.899   1.116 -0.3810 -0.1995  0.1434
  233SOL    HW1 1915   2.173   0.862   1.143  0.4898  0.1116 -1.9171
  233SOL    HW2 1916   2.026   0.862   1.177  0.9857 -1.9243  0.6128
  234SOL     OW 1917   0.777   1.673   0.473  0.0334  0.0518  0.3928
  234SOL    HW1 1918   0.701   1.641   0.522 -0.0860  0.0381  0.1974
  234SOL    HW2 1919   0.769   1.633   0.387  0.6750 -0.5658  0.6070
  235SOL     OW 1920   0.912   2.238   0.465  0.0594 -0.1709 -0.6984
  235SOL    HW1 1921   1.001   2.267   0.487 -0.2452  1.0734 -0.9773
  235SOL    HW2 1922   0.858   2.270   0.537 -0.1415 -1.1008 -0.4295
  236SOL     OW 1923   0.968   0.952   0.671 -0.0489 -0.2788 -0.5123
  236SOL    HW1 1924   1.002   0.882   0.725 -2.4776 -1.7239 -0.7249
  236SOL    HW2 1925   0.973   0.919   0.581  0.1007  0.3980 -0.7637
  237SOL     OW 1926   1.137   1.059   0.100  0.3084  0.1561 -0.0318
  237SOL    HW1 1927   1.089   1.023   0.026  1.5916 -0.7328 -0.4720
  237SOL    HW2 1928   1.202   1.117   0.061  0.4452  0.3441  0.4639
  238SOL     OW 1929   2.189   1.626   0.605 -0.2642 -0.1242 -0.4232
  238SOL    HW1 1930   2.252   1.680   0.653 -0.3092  0.2242 -0.7462
  238SOL    HW2 1931   2.132   1.690   0.562  0.5399 -0.3896 -1.9636
  239SOL     OW 1932   0.537   1.181   1.543 -0.0873 -0.1281 -0.1952
  239SOL    HW1 1933   0.622   1.196   1.585 -0.1905 -1.8633  0.7206
  239SOL    HW2 1934   0.535   1.087   1.527 -1.3029  0.0785 -1.4439
  240SOL     OW 1935   8.702   1.334   0.632 -0.6765  0.2829  0.2692
  240SOL    HW1 1936   8.788   1.357   0.668 -0.5691 -0.1334  0.2801
  240SOL    HW2 1937   8.643   1.401   0.667 -0.1879  1.1679 -0.5327
  241SOL     OW 1938   0.769   1.481   2.063  0.0844  0.1758  0.2354
  241SOL    HW1 1939   0.713   1.517   1.993 -1.4839 -0.9169  0.8831
  241SOL    HW2 1940   0.768   1.548   2.131  0.0534  0.4157  0.0029
  242SOL     OW 1941   1.343   0.368   0.759  0.0652  0.2873 -0.1600
  242SOL    HW1 1942   1.287   0.427   0.809 -0.5727  1.3642 -2.0625
  242SOL    HW2 1943   1.396   0.426   0.704  2.4951 -0.7312  0.9613
  243SOL     OW 1944   0.189   0.541   0.736 -0.3261  0.5237  0.3391
  243SOL    HW1 1945   0.097   0.535   0.759 -0.1552 -0.1555  0.9048
  243SOL    HW2 1946   0.202   0.470   0.672 -0.3067  0.9567 -0.1447
  244SOL     OW 1947   2.313   1.825   0.778  0.4924  1.0644 -0.2115
  244SOL    HW1 1948   2.398   1.799   0.743 -0.4486 -2.3990 -0.2588
  244SOL    HW2 1949   2.314   1.797   0.870 -0.4093  1.4010 -0.0824
  245SOL     OW 1950   0.323   0.878   1.506 -0.2163  0.8775 -0.7269
  245SOL    HW1 1951   0.247   0.822   1.494 -0.5497  1.1678 -0.0684
  245SOL    HW2 1952   0.288   0.967   1.504 -0.0454  0.9967  0.4241
  246SOL     OW 1953   0.622   2.062   0.635 -0.2711  0.3959  0.4312
  246SOL    HW1 1954   0.625   2.105   0.721  1.3294  1.7000 -0.2321
  246SOL    HW2 1955   0.706   2.015   0.630 -0.5011  0.0651 -0.2889
  247SOL     OW 1956   1.202   0.042   1.160  0.0556  0.4083  0.1924
  247SOL    HW1 1957   1.199   0.138   1.154 -1.1720  0.4367  0.9882
  247SOL    HW2 1958   1.267   0.024   1.228 -0.1667  0.6970  0.4840
  248SOL     OW 1959   0.586   0.490   1.395  0.4012  0.3265 -0.3063
  248SOL    HW1 1960   0.601   0.498   1.489 -0.8268 -2.2040  0.1870
  248SOL    HW2 1961   0.517   0.554   1.377  1.7607  1.9735  0.1612
  249SOL     OW 1962   1.080   1.192   0.769  0.3183 -0.1319 -0.6241
  249SOL    HW1 1963   1.035   1.110   0.753 -0.0468 -0.5668  2.0949
  249SOL    HW2 1964   1.160   1.187   0.716  0.7652 -2.6947  0.1565
  250SOL     OW 1965   0.203   1.867   1.378  0.2507 -0.1662 -0.0275
  250SOL    HW1 1966   0.226   1.956   1.405 -3.9016  1.0247  0.2154
  250SOL    HW2 1967   0.175   1.875   1.287 -1.4171 -0.9096  0.3809
  251SOL     OW 1968   1.190   8.633   0.231 -0.2786 -0.4660  0.2710
  251SOL    HW1 1969   1.240   8.573   0.176  1.0975  0.4817  0.4583
  251SOL    HW2 1970   1.119   8.664   0.175  1.5259  1.0923 -1.2847
  252SOL     OW 1971   1.249   0.521   0.944  0.0563 -0.0083  0.5339
  252SOL    HW1 1972   1.193   0.470   1.004  0.6193  0.1455  1.2066
  252SOL    HW2 1973   1.280   0.594   0.997  0.5634  0.1353  0.0453
  253SOL     OW 1974   1.448   0.591   0.605  0.0562  0.3981 -0.2812
  253SOL    HW1 1975   1.363   0.632   0.586 -0.3347 -0.1631  0.2135
  253SOL    HW2 1976   1.492   0.654   0.662  0.1282  0.8579 -0.8330
  254SOL     OW 1977   0.401   1.115   0.322  0.2966  0.0100  0.3104
  254SOL    HW1 1978   0.493   1.139   0.308  0.4754 -0.4744  0.6349
  254SOL    HW2 1979   0.405   1.040   0.381 -0.1250 -2.0117 -2.0224
  255SOL     OW 1980   0.991   1.652   0.150 -0.0849 -0.3561  0.4814
  255SOL    HW1 1981   0.905   1.632   0.113 -0.1838 -1.0808  1.0986
  255SOL    HW2 1982   1.025   1.568   0.180  0.7242 -0.0317  0.4944
  256SOL     OW 1983   8.650   0.667   1.614  0.2225  0.2110 -0.1845
  256SOL    HW1 1984   8.606   0.588   1.645  0.1391  0.6009  0.7053
  256SOL    HW2 1985   8.698   0.700   1.690  1.3462  0.2843 -0.8959
  257SOL     OW 1986   8.734   0.015   2.778  0.4307  0.4001  0.0987
  257SOL    HW1 1987   8.823  -0.019   2.783  0.6697  0.9978  0.0054
  257SOL    HW2 1988   8.735   0.075   2.703 -0.5622 -1.0440 -1.1368
  258SOL     OW 1989   8.361   0.179   2.188  0.8107 -0.4572 -0.2375
  258SOL    HW1 1990   8.421   0.111   2.218  0.7659  0.3660  1.8611
  258SOL    HW2 1991   8.412   0.228   2.123  1.2302 -1.7661 -0.9301
  259SOL     OW 1992   0.375   1.202   3.065 -0.1496  0.0059 -0.2503
  259SOL    HW1 1993   0.299   1.168   3.112  1.5478  1.0317  3.6854
  259SOL    HW2 1994   0.339   1.250   2.991 -3.1478 -1.2610  0.2444
  260SOL     OW 1995   2.071   1.459   2.530 -0.9340 -0.0419  0.1152
  260SOL    HW1 1996   1.992   1.405   2.526 -0.2966 -0.9359 -0.6371
  260SOL    HW2 1997   2.106   1.444   2.618 -0.8968 -0.6523 -0.0044
  261SOL     OW 1998   0.488   0.239   2.425  0.0249  0.3260 -0.2359
  261SOL    HW1 1999   0.522   0.309   2.369  1.1878 -0.5643 -0.6685
  261SOL    HW2 2000   0.423   0.195   2.371  0.5509 -0.0138 -0.6030
  262SOL     OW 2001   1.758   0.779   1.739  0.0408 -0.0472 -0.3516
  262SOL    HW1 2002   1.695   0.710   1.759 -0.2035  0.3352  0.2351
  262SOL    HW2 2003   1.838   0.753   1.785 -0.2469  0.3740  0.4119
  263SOL     OW 2004   0.498   0.946   3.117  0.5510  0.5740 -0.5487
  263SOL    HW1 2005   0.474   1.036   3.094  1.0376  0.9929  0.4882
  263SOL    HW2 2006   0.572   0.956   3.177  0.1975 -0.4914  0.0997
  264SOL     OW 2007   0.881   0.973   4.164  0.3870 -0.0752 -0.4210
  264SOL    HW1 2008   0.934   0.929   4.231 -0.0387 -0.8651 -0.5856
  264SOL    HW2 2009   0.938   0.976   4.087  0.6668  0.3001 -0.2024
  265SOL     OW 2010   0.801   1.082   2.586  0.6300 -0.1019 -0.1458
  265SOL    HW1 2011   0.727   1.082   2.647 -0.1893 -1.2614 -1.0974
  265SOL    HW2 2012   0.843   0.998   2.599  0.2110 -0.5322 -1.4259
  266SOL     OW 2013   0.656   1.094   3.816 -0.3895 -0.2860  0.3909
  266SOL    HW1 2014   0.642   1.144   3.896  2.5335  0.6172  0.4395
  266SOL    HW2 2015   0.577   1.041   3.807 -1.9748  1.5466  2.3895
  267SOL     OW 2016   0.280   1.410   2.919 -0.1424 -0.3978  0.4717
  267SOL    HW1 2017   0.279   1.504   2.897 -1.3588 -0.7880 -1.3538
  267SOL    HW2 2018   0.206   1.400   2.980  1.2769  0.1330  2.3862
  268SOL     OW 2019   1.340   1.455   3.228  0.1555 -0.5437 -0.0454
  268SOL    HW1 2020   1.356   1.518   3.158 -0.9986  0.3181  0.4287
  268SOL    HW2 2021   1.281   1.501   3.288  1.0467 -1.2947  1.4426
  269SOL     OW 2022   0.519   0.623   3.076 -0.4389  0.7324  0.0257
  269SOL    HW1 2023   0.516   0.626   3.171 -0.9681 -0.9623  0.1047
  269SOL    HW2 2024   0.538   0.713   3.049  2.3990  0.8173  1.8178
  270SOL     OW 2025   1.312   0.699   2.379  1.1319 -0.4319 -0.1676
  270SOL    HW1 2026   1.374   0.772   2.373  1.5786 -0.8150 -0.2134
  270SOL    HW2 2027   1.343   0.647   2.452  0.5415 -0.3330  0.1622
  271SOL     OW 2028   0.173   1.777   2.057 -0.9522 -0.2726  0.0535
  271SOL    HW1 2029   0.240   1.709   2.069  0.6836  1.4240  0.9122
  271SOL    HW2 2030   0.190   1.812   1.969  0.7035  1.5639  1.0460
  272SOL     OW 2031   0.890   1.190   3.689 -0.2534 -0.2325 -0.0727
  272SOL    HW1 2032   0.934   1.235   3.761  0.4136  0.9629 -1.1836
  272SOL    HW2 2033   0.817   1.144   3.731 -0.5520  1.3279  1.2276
  273SOL     OW 2034   0.366   1.187   2.127 -0.0994 -0.4846 -0.3955
  273SOL    HW1 2035   0.457   1.213   2.116 -0.4892  1.5543  0.5978
  273SOL    HW2 2036   0.350   1.197   2.221 -0.9498 -2.2900 -0.3146
  274SOL     OW 2037   0.513   1.168   2.745  0.1900 -0.1970  0.1482
  274SOL    HW1 2038   0.486   1.077   2.729 -0.1971 -0.2864  1.2393
  274SOL    HW2 2039   0.446   1.221   2.701 -0.4975 -0.4373  0.8870
  275SOL     OW 2040   0.687   2.199   3.192  0.1798  0.6148  0.1778
  275SOL    HW1 2041   0.726   2.131   3.247  0.0765 -0.4605 -1.0233
  275SOL    HW2 2042   0.738   2.278   3.211  0.0095  0.3346  1.9315
  276SOL     OW 2043   1.152   1.214   2.477  0.3221  0.0702  0.2231
  276SOL    HW1 2044   1.224   1.275   2.495  1.0811 -0.9270  0.7092
  276SOL    HW2 2045   1.161   1.146   2.545 -1.5051  0.2708  0.7107
  277SOL     OW 2046   1.598   0.023   3.631  0.1181 -0.6299  0.2419
  277SOL    HW1 2047   1.518   0.071   3.609  0.4589  0.1953  0.7533
  277SOL    HW2 2048   1.587  -0.062   3.589 -1.3173 -0.7689  0.8317
  278SOL     OW 2049   8.650   0.510   2.401  0.9902 -0.2081  0.2905
  278SOL    HW1 2050   8.708   0.436   2.382 -0.5125 -1.3165 -0.1444
  278SOL    HW2 2051   8.625   0.498   2.493 -0.1502 -0.9111 -0.0959
  279SOL     OW 2052   2.370   1.906   2.522  0.0669  0.0805 -0.0055
  279SOL    HW1 2053   2.373   1.813   2.496 -1.2912  0.5910 -2.2561
  279SOL    HW2 2054   2.402   1.953   2.445  0.6648  1.5295  1.0830
  280SOL     OW 2055   8.819   1.870   2.209 -0.0304  0.2730 -0.4327
  280SOL    HW1 2056   8.863   1.886   2.292 -2.2177  0.0415  0.8695
  280SOL    HW2 2057   8.885   1.829   2.154  1.0532 -1.1918  1.7926
  281SOL     OW 2058   1.561   1.176   2.497 -0.1612  0.1872 -0.0639
  281SOL    HW1 2059   1.641   1.220   2.526  0.4850 -0.2984 -1.0500
  281SOL    HW2 2060   1.495   1.245   2.493  0.8430  1.1245 -1.6199
  282SOL     OW 2061   1.795   1.063   2.015 -0.3064  0.2823  0.5141
  282SOL    HW1 2062   1.843   1.146   2.022  2.4586 -0.8575 -2.2487
  282SOL    HW2 2063   1.845   1.003   2.070 -0.7301 -0.1317  0.4441
  283SOL     OW 2064   0.357   0.439   3.487  0.1361 -0.1867  0.3440
  283SOL    HW1 2065   0.355   0.495   3.564  0.4885 -0.6206  0.6697
  283SOL    HW2 2066   0.408   0.488   3.423  1.5938 -0.7033  1.0795
  284SOL     OW 2067   0.924   1.467   2.835 -0.0426  0.4543  0.0823
  284SOL    HW1 2068   0.860   1.480   2.905  0.4815  1.0279  0.4705
  284SOL    HW2 2069   0.888   1.396   2.783 -0.2621 -0.2399  1.1432
  285SOL     OW 2070   0.915   0.547   3.456 -0.2885 -0.3477 -0.2546
  285SOL    HW1 2071   1.007   0.542   3.484 -0.4330  1.4792  0.7156
  285SOL    HW2 2072   0.920   0.552   3.361  0.6944  0.4354 -0.1866
  286SOL     OW 2073   0.319   0.671   2.629 -0.3127  0.2724 -0.1537
  286SOL    HW1 2074   0.318   0.578   2.655 -0.3775  0.5408  0.8239
  286SOL    HW2 2075   0.277   0.717   2.701 -1.6139  0.9169 -1.2684
  287SOL     OW 2076   8.646   0.915   3.131  0.0948  0.2185  0.2154
  287SOL    HW1 2077   8.583   0.981   3.102  0.2397  0.4641  0.4538
  287SOL    HW2 2078   8.717   0.920   3.066  0.2060  0.4508  0.3509
  288SOL     OW 2079   1.493   0.822   2.002 -0.3474  0.5196 -0.6823
  288SOL    HW1 2080   1.414   0.866   2.034  0.3371  1.2495  0.0466
  288SOL    HW2 2081   1.565   0.879   2.028  0.4588 -0.3129 -1.0189
  289SOL     OW 2082   1.077   1.672   3.163 -0.1504  0.2996 -0.4078
  289SOL    HW1 2083   1.019   1.731   3.211 -1.7368 -0.3532 -1.4432
  289SOL    HW2 2084   1.079   1.707   3.074 -1.0230 -1.1072 -1.0100
  290SOL     OW 2085   8.843   0.184   3.683  0.2820 -0.5964  0.1522
  290SOL    HW1 2086   8.755   0.169   3.649  0.2994 -0.5243  0.0762
  290SOL    HW2 2087   8.846   0.134   3.765 -0.2988  0.5337  0.8845
  291SOL     OW 2088   1.826   1.418   2.855  0.1896 -0.3102  0.1613
  291SOL    HW1 2089   1.853   1.377   2.937 -0.8841  0.3427  0.8639
  291SOL    HW2 2090   1.731   1.405   2.852 -0.1243  1.7391  0.2047
  292SOL     OW 2091   2.073   2.004   2.543 -0.2900 -0.0693  0.0529
  292SOL    HW1 2092   2.060   1.931   2.483 -0.9139 -0.7198  0.9581
  292SOL    HW2 2093   2.156   2.044   2.515 -0.5098 -0.4279 -1.1515
  293SOL     OW 2094   0.230   0.454   1.833  0.6680  0.2122 -0.6220
  293SOL    HW1 2095   0.229   0.407   1.749 -0.6117 -0.0592 -0.4731
  293SOL    HW2 2096   0.252   0.544   1.809 -3.1758  1.0218 -1.8010
  294SOL     OW 2097   1.362   0.550   2.624 -0.1764 -0.1769 -0.2557
  294SOL    HW1 2098   1.277   0.510   2.610 -0.4968 -0.2841  1.7192
  294SOL    HW2 2099   1.415   0.481   2.666  1.7257 -0.9295 -3.5367
  295SOL     OW 2100   2.019   1.846   2.139 -0.4579  0.8805 -0.3348
  295SOL    HW1 2101   1.925   1.846   2.120 -0.5740 -0.4881  0.1656
  295SOL    HW2 2102   2.026   1.812   2.228  0.6692 -1.8705 -1.3683
  296SOL     OW 2103   0.996   0.549   3.177 -0.0807  0.1211 -0.2110
  296SOL    HW1 2104   1.034   0.463   3.194  3.4088  1.4161 -0.6655
  296SOL    HW2 2105   0.923   0.531   3.119 -0.6026 -2.6506  1.0978
  297SOL     OW 2106   1.742   8.687   3.327  0.0863 -0.0863  0.0798
  297SOL    HW1 2107   1.804   8.614   3.319  2.3417  1.7989 -1.5889
  297SOL    HW2 2108   1.686   8.664   3.400  0.9646 -3.2416 -0.0801
  298SOL     OW 2109   1.030   0.966   3.898 -0.3480 -0.2991  0.0118
  298SOL    HW1 2110   0.943   0.926   3.902 -0.5786  0.0422 -1.1517
  298SOL    HW2 2111   1.075   0.917   3.829  0.4095 -0.5116  0.6497
  299SOL     OW 2112   1.143   0.674   2.808 -0.0802  0.1713  0.1337
  299SOL    HW1 2113   1.201   0.660   2.883  0.1483  0.9986  0.1223
  299SOL    HW2 2114   1.091   0.594   2.803  2.4484 -1.5220 -1.1357
  300SOL     OW 2115   1.138   1.193   2.183 -0.7495 -0.1742 -0.2382
  300SOL    HW1 2116   1.120   1.215   2.274 -0.2296 -1.0356  0.0817
  300SOL    HW2 2117   1.119   1.273   2.135 -0.8009  0.3603  0.6530
  301SOL     OW 2118   0.397   1.013   2.541 -0.0198  0.5505  0.4425
  301SOL    HW1 2119   0.403   1.077   2.469  0.0458  0.2253  0.1540
  301SOL    HW2 2120   0.313   1.031   2.582 -0.5254  0.0715 -0.3599
  302SOL     OW 2121   8.809   1.340   3.331 -0.2815  0.1028 -0.3164
  302SOL    HW1 2122   8.826   1.246   3.335  1.0313  0.3680  0.9647
  302SOL    HW2 2123   8.722   1.350   3.370 -1.0716 -0.6955 -1.7825
  303SOL     OW 2124   0.623   0.709   1.797  0.2269 -0.0687 -0.1745
  303SOL    HW1 2125   0.671   0.791   1.783 -3.1877  2.3277  0.6644
  303SOL    HW2 2126   0.645   0.684   1.887 -1.5705  2.2983  1.0646
  304SOL     OW 2127   1.868   0.403   3.598 -0.2902  0.1987 -0.0973
  304SOL    HW1 2128   1.776   0.377   3.607 -0.4251  0.2824 -1.0943
  304SOL    HW2 2129   1.877   0.478   3.656 -1.5421  1.7984 -1.8480
  305SOL     OW 2130   1.821   1.304   2.447 -0.3938  0.3612  0.0227
  305SOL    HW1 2131   1.828   1.211   2.428 -0.9899 -0.0314  1.5761
  305SOL    HW2 2132   1.795   1.344   2.364 -0.5219 -0.9085 -0.5623
  306SOL     OW 2133   0.686   0.506   2.556  0.4524  0.2898 -0.3754
  306SOL    HW1 2134   0.600   0.485   2.521 -0.0281  1.4357  0.0547
  306SOL    HW2 2135   0.733   0.548   2.484 -0.5741  2.7479  0.2646
  307SOL     OW 2136   0.971   1.868   2.376 -0.5722  0.2844 -0.0761
  307SOL    HW1 2137   1.043   1.833   2.324 -0.9939  0.5672 -0.8740
  307SOL    HW2 2138   0.978   1.963   2.366 -0.4629  0.3579  0.6613
  308SOL     OW 2139   0.432   1.242   2.392 -0.4674  0.3056 -0.3057
  308SOL    HW1 2140   0.415   1.335   2.408 -1.2360  0.3105 -1.0772
  308SOL    HW2 2141   0.528   1.236   2.387 -0.3534  0.8466  0.8849
  309SOL     OW 2142   1.661   0.765   2.233 -0.2889 -0.2885 -0.3347
  309SOL    HW1 2143   1.624   0.710   2.163 -0.7288  1.6896 -1.7236
  309SOL    HW2 2144   1.725   0.820   2.189 -0.7706  1.2084  0.7680
  310SOL     OW 2145   0.982   0.918   3.595  0.0623 -0.1956 -0.3042
  310SOL    HW1 2146   0.987   1.005   3.634  0.2699  0.3124 -1.4279
  310SOL    HW2 2147   1.004   0.932   3.503 -0.8168 -1.2959 -0.6982
  311SOL     OW 2148   8.773   0.599   2.153 -0.5383  0.4207  0.6285
  311SOL    HW1 2149   8.865   0.593   2.180 -0.1425  1.3107 -0.4300
  311SOL    HW2 2150   8.730   0.649   2.223 -0.2619 -0.1635  1.2199
  312SOL     OW 2151   1.530   0.870   2.449 -0.2033 -0.5461 -0.0338
  312SOL    HW1 2152   1.557   0.843   2.361 -0.7763 -0.1441 -0.3396
  312SOL    HW2 2153   1.573   0.954   2.463  1.3925 -1.4443  0.8278
  313SOL     OW 2154   0.225   1.205   3.489 -0.0371 -0.1589 -0.0894
  313SOL    HW1 2155   0.242   1.268   3.559  0.5121 -0.4190  0.0200
  313SOL    HW2 2156   0.130   1.201   3.482 -0.0820  0.3759  0.1810
  314SOL     OW 2157   1.244   1.912   1.737 -0.5471  0.3551 -0.5495
  314SOL    HW1 2158   1.333   1.938   1.713  0.2953 -1.5655  0.3217
  314SOL    HW2 2159   1.236   1.938   1.829 -0.0950 -1.2997 -0.0043
  315SOL     OW 2160   8.302   0.380   3.090 -0.3307  0.4931 -0.5086
  315SOL    HW1 2161   8.361   0.305   3.084  1.2145  1.6907 -0.9227
  315SOL    HW2 2162   8.297   0.399   3.183  0.2074  0.5904 -0.4987
  316SOL     OW 2163   2.008   1.254   2.023  0.3263  0.4395  0.4614
  316SOL    HW1 2164   2.047   1.245   1.937 -0.8863  2.0599 -0.3204
  316SOL    HW2 2165   2.080   1.280   2.080  0.7423  1.6888 -0.5771
  317SOL     OW 2166   0.330   1.581   2.097 -0.2266 -1.1931  0.7862
  317SOL    HW1 2167   0.420   1.611   2.111 -1.0498  1.3140  1.2414
  317SOL    HW2 2168   0.308   1.535   2.178  0.4178 -1.1862  0.9733
  318SOL     OW 2169   1.634   0.514   1.715 -0.5279 -0.4279 -0.3696
  318SOL    HW1 2170   1.636   0.473   1.801  3.8802  0.4837  0.2106
  318SOL    HW2 2171   1.687   0.457   1.660 -1.6163  0.0484 -1.9962
  319SOL     OW 2172   0.078   1.438   3.098  0.2421 -0.4014  0.2904
  319SOL    HW1 2173   0.014   1.399   3.158  1.0845 -2.3741 -0.0507
  319SOL    HW2 2174   0.032   1.514   3.061 -2.2425 -2.1727 -0.5450
  320SOL     OW 2175   0.745   1.522   2.500  0.3488  0.4550  0.9471
  320SOL    HW1 2176   0.773   1.593   2.557  2.6688 -0.1002  0.5711
  320SOL    HW2 2177   0.794   1.446   2.529 -0.9683 -0.6652  0.3637
  321SOL     OW 2178   8.802   0.283   2.374 -0.4670 -0.1466  0.2840
  321SOL    HW1 2179   8.794   0.192   2.403 -0.0653  0.2040  1.5690
  321SOL    HW2 2180   8.883   0.314   2.415  0.9046  0.0138 -2.3630
  322SOL     OW 2181   1.306   0.119   3.911  0.1357 -0.3346  0.2047
  322SOL    HW1 2182   1.229   0.137   3.856  1.2404  2.8880 -0.5050
  322SOL    HW2 2183   1.343   0.039   3.875 -1.8736 -0.9815 -0.5833
  323SOL     OW 2184   0.633   0.031   2.182  0.2701 -0.5640  0.2982
  323SOL    HW1 2185   0.704   0.095   2.187 -0.6752  0.5460 -0.0916
  323SOL    HW2 2186   0.555   0.079   2.210 -0.8519 -0.9101 -2.0228
  324SOL     OW 2187   0.688   0.351   3.398 -0.1406 -0.4422  0.4499
  324SOL    HW1 2188   0.756   0.404   3.441  0.2447 -0.8717  0.3835
  324SOL    HW2 2189   0.737   0.281   3.354 -0.6073 -0.5787  0.1399
  325SOL     OW 2190   1.176   1.216   3.176  0.4548  0.0018  0.0081
  325SOL    HW1 2191   1.246   1.156   3.149  2.5968  3.1524 -2.1477
  325SOL    HW2 2192   1.220   1.301   3.185 -2.6948  1.6595  1.1364
  326SOL     OW 2193   1.184   0.423   3.484 -0.0410 -0.1529 -0.4084
  326SOL    HW1 2194   1.263   0.377   3.511  0.1465 -0.4232 -1.3771
  326SOL    HW2 2195   1.188   0.507   3.531 -0.6219 -1.2469  1.7407
  327SOL     OW 2196   0.939   1.168   3.014  0.3761  0.9761  0.0246
  327SOL    HW1 2197   1.014   1.223   2.992  1.6406  0.5125  2.7897
  327SOL    HW2 2198   0.974   1.079   3.018 -0.6571  0.5503 -0.0275
  328SOL     OW 2199   0.708   0.819   2.331 -0.9501  0.3813 -0.0664
  328SOL    HW1 2200   0.665   0.835   2.414 -0.2777  2.7491 -0.1252
  328SOL    HW2 2201   0.778   0.756   2.352 -0.7073  1.0415  1.1772
  329SOL     OW 2202   1.017   8.792   2.306  0.0625 -0.7697  0.6618
  329SOL    HW1 2203   0.969   8.731   2.249 -1.7187  2.2322 -1.3277
  329SOL    HW2 2204   0.960   8.802   2.383 -0.9439  0.2202 -0.1716
  330SOL     OW 2205   1.617   1.542   1.907 -0.6368 -0.1052  0.2596
  330SOL    HW1 2206   1.601   1.619   1.853 -2.2640 -0.0012  0.8387
  330SOL    HW2 2207   1.679   1.489   1.856 -0.0561  1.2296 -0.4591
  331SOL     OW 2208   0.534   0.222   1.845  0.5492 -0.1945 -0.0563
  331SOL    HW1 2209   0.602   0.210   1.912 -0.1046 -1.7369  0.3899
  331SOL    HW2 2210   0.453   0.232   1.895 -0.0623 -2.1408 -0.5657
  332SOL     OW 2211   0.845   0.206   2.138  0.4460  0.3916 -0.3070
  332SOL    HW1 2212   0.912   0.245   2.081  1.0506  1.2364  0.9172
  332SOL    HW2 2213   0.870   0.235   2.226 -0.7612 -0.4304  0.3268
  333SOL     OW 2214   1.206   0.720   3.077  0.2054 -0.3149  0.1360
  333SOL    HW1 2215   1.134   0.669   3.113 -0.0889 -0.0834 -0.1158
  333SOL    HW2 2216   1.233   0.777   3.149  0.3818 -0.6610  0.3445
  334SOL     OW 2217   1.658   1.605   2.699  0.1000 -0.2108  0.0781
  334SOL    HW1 2218   1.742   1.572   2.668 -0.3141 -1.2044 -0.0264
  334SOL    HW2 2219   1.626   1.538   2.759 -1.2683 -0.5553 -0.9799
  335SOL     OW 2220   0.480   1.629   2.708  0.0536  0.4179  0.1815
  335SOL    HW1 2221   0.395   1.636   2.752  0.0602  0.9882  0.1092
  335SOL    HW2 2222   0.479   1.542   2.668 -0.8505  0.7387 -0.5319
  336SOL     OW 2223   0.834   1.764   2.603 -0.7909 -0.2308  0.2808
  336SOL    HW1 2224   0.891   1.804   2.537  0.3368 -2.0021  0.0874
  336SOL    HW2 2225   0.891   1.754   2.679 -1.6976  0.5684  1.0792
  337SOL     OW 2226   0.992   0.674   1.764  0.5013 -0.2526 -0.1954
  337SOL    HW1 2227   0.951   0.689   1.679  0.4772  0.0475 -0.1310
  337SOL    HW2 2228   1.085   0.691   1.750  0.3608  0.7737  0.0733
  338SOL     OW 2229   8.748   0.689   2.939  0.3931 -0.2423  0.4891
  338SOL    HW1 2230   8.808   0.671   3.011  1.7888 -0.3949 -0.6667
  338SOL    HW2 2231   8.664   0.707   2.982  1.8398  2.8576  2.3726
  339SOL     OW 2232   0.295   0.482   3.009  0.1865 -0.3411 -0.2244
  339SOL    HW1 2233   0.263   0.453   3.094 -2.4504 -0.6418 -1.2097
  339SOL    HW2 2234   0.373   0.534   3.028 -0.3695 -0.3377  2.3542
  340SOL     OW 2235   0.573   0.788   2.551 -0.2743  0.3134 -0.0136
  340SOL    HW1 2236   0.518   0.721   2.592 -0.1014  0.1473 -0.0528
  340SOL    HW2 2237   0.536   0.871   2.582  2.6743  0.3021  4.4311
  341SOL     OW 2238   1.028   0.677   2.403  0.1325  0.0791 -0.3712
  341SOL    HW1 2239   1.117   0.694   2.371 -0.7045  2.0983 -1.8980
  341SOL    HW2 2240   1.029   0.586   2.433  2.2146 -0.5249 -2.0723
  342SOL     OW 2241   1.541   1.405   2.870 -0.2136 -0.3332 -0.0717
  342SOL    HW1 2242   1.513   1.318   2.840  0.2605 -0.4099 -0.3065
  342SOL    HW2 2243   1.468   1.437   2.923 -1.2476 -0.0390 -1.6092
  343SOL     OW 2244   1.425   0.799   2.731  0.8963  0.3096 -0.0001
  343SOL    HW1 2245   1.503   0.815   2.678  0.3869  0.5395 -0.6900
  343SOL    HW2 2246   1.393   0.713   2.702  0.6125  0.4386 -0.0716
  344SOL     OW 2247   1.830   0.627   2.418 -0.3339 -0.5135 -0.4875
  344SOL    HW1 2248   1.769   0.561   2.451 -0.8625  0.3331  0.3015
  344SOL    HW2 2249   1.773   0.696   2.383  0.2068 -0.4542 -1.2706
  345SOL     OW 2250   0.557   1.840   1.968 -0.5531  0.0055  0.0338
  345SOL    HW1 2251   0.575   1.759   1.922 -0.4137  0.4487 -0.7131
  345SOL    HW2 2252   0.541   1.814   2.059 -0.1045 -0.8018 -0.1146
  346SOL     OW 2253   2.055   1.269   2.773  0.6080 -0.3915  0.1656
  346SOL    HW1 2254   2.010   1.198   2.818  0.3583  0.2560  0.9704
  346SOL    HW2 2255   1.990   1.339   2.768  1.2213  0.2257  0.5172
  347SOL     OW 2256   1.424   0.677   1.558  0.3696 -1.0721 -0.1846
  347SOL    HW1 2257   1.485   0.632   1.616  0.8663  0.2333  0.3233
  347SOL    HW2 2258   1.383   0.744   1.612  2.0835  1.3157 -1.6854
  348SOL     OW 2259   0.263   0.218   1.948 -0.5623 -0.0034  0.2975
  348SOL    HW1 2260   0.176   0.187   1.972 -0.8725  1.5615  1.3321
  348SOL    HW2 2261   0.251   0.310   1.927  1.1378  0.8370  2.5800
  349SOL     OW 2262   1.914   1.402   3.339 -0.2993  1.0134  0.2545
  349SOL    HW1 2263   1.829   1.443   3.357 -0.2885  0.7696  0.8981
  349SOL    HW2 2264   1.925   1.340   3.410 -0.2899 -0.0820 -0.6871
  350SOL     OW 2265   1.019   0.979   3.328 -0.3842  0.0293  0.9376
  350SOL    HW1 2266   1.047   1.071   3.326 -1.2689  0.3165 -1.3337
  350SOL    HW2 2267   1.101   0.929   3.318 -0.1327  0.6895 -0.6298
  351SOL     OW 2268   1.543   1.126   3.501 -0.2937 -0.3087  0.1900
  351SOL    HW1 2269   1.459   1.168   3.483 -0.6013 -0.7316  0.6002
  351SOL    HW2 2270   1.524   1.066   3.574  0.1343 -1.1008 -0.3307
  352SOL     OW 2271   1.152   1.855   2.904 -0.2534  0.0597 -0.0114
  352SOL    HW1 2272   1.137   1.786   2.839 -0.3720 -0.6118  0.7082
  352SOL    HW2 2273   1.216   1.913   2.863 -1.4747  0.5190 -1.3479
  353SOL     OW 2274   1.981   0.994   2.858 -0.0015  0.2997  0.0915
  353SOL    HW1 2275   1.891   1.023   2.874  0.0043  2.0694 -2.4967
  353SOL    HW2 2276   1.973   0.915   2.806 -0.1302  1.3769 -1.5822
  354SOL     OW 2277   0.966   0.118   2.916 -1.0571 -0.2739 -0.0053
  354SOL    HW1 2278   0.906   0.130   2.990  1.0394  0.0636  1.7424
  354SOL    HW2 2279   1.046   0.083   2.956 -0.3240 -1.4370 -2.3415
  355SOL     OW 2280   0.999   1.334   3.884  0.1320 -0.2491  0.5363
  355SOL    HW1 2281   1.001   1.334   3.979 -0.2597 -1.1479  0.5566
  355SOL    HW2 2282   1.000   1.426   3.859 -0.4127  0.0027  1.4233
  356SOL     OW 2283   0.706   1.121   2.334  0.2780  0.3223  0.0860
  356SOL    HW1 2284   0.732   1.145   2.422  0.0810 -1.3456  0.6384
  356SOL    HW2 2285   0.720   1.026   2.329  1.9243  0.5956 -2.2543
  357SOL     OW 2286   0.082   0.777   3.532  0.2649  0.1480  0.2134
  357SOL    HW1 2287   0.016   0.826   3.581 -0.4498  0.0339 -0.6024
  357SOL    HW2 2288   0.134   0.844   3.487 -0.4436  0.1904 -0.5669
  358SOL     OW 2289   1.191   0.775   3.358  0.3257  0.4806 -0.1013
  358SOL    HW1 2290   1.163   0.727   3.436 -0.1239 -1.4567 -1.4016
  358SOL    HW2 2291   1.286   0.781   3.367  0.3631 -0.4250  0.2379
  359SOL     OW 2292   0.531   1.412   3.178  0.0148  0.3160  0.1825
  359SOL    HW1 2293   0.600   1.436   3.116  0.6259  0.4250  0.9003
  359SOL    HW2 2294   0.488   1.336   3.138 -1.2506  1.8709 -1.6064
  360SOL     OW 2295   0.904   0.989   1.983  0.0979  0.6583  0.1938
  360SOL    HW1 2296   0.908   0.908   2.034  1.9287 -0.2285 -1.2293
  360SOL    HW2 2297   0.979   1.039   2.013  1.3576  0.0163 -1.6683
  361SOL     OW 2298   0.142   0.362   2.526 -0.4311 -0.2271 -0.7225
  361SOL    HW1 2299   0.078   0.345   2.595  0.4162  0.2658  0.2177
  361SOL    HW2 2300   0.227   0.358   2.571  0.1011  0.8533 -1.5749
  362SOL     OW 2301   1.843   1.633   2.218 -0.4682  0.6805  0.3349
  362SOL    HW1 2302   1.808   1.721   2.229 -0.6093  1.0650 -2.4539
  362SOL    HW2 2303   1.768   1.581   2.188  0.2169  0.3578 -0.9033
  363SOL     OW 2304   1.841   1.284   3.085 -0.4084  0.6962  0.4770
  363SOL    HW1 2305   1.820   1.314   3.173  0.6770  0.3305  0.8703
  363SOL    HW2 2306   1.787   1.206   3.073  0.6752 -0.2549  1.4952
  364SOL     OW 2307   1.216   0.941   2.030  0.0753 -0.4104 -0.7014
  364SOL    HW1 2308   1.214   0.992   2.111  2.4570 -1.1863 -0.0510
  364SOL    HW2 2309   1.147   0.875   2.041 -0.1388 -0.0240  0.3745
  365SOL     OW 2310   0.285   1.540   3.225  0.1227 -0.2061 -0.1614
  365SOL    HW1 2311   0.225   1.474   3.188  0.3121 -0.4517 -0.0361
  365SOL    HW2 2312   0.365   1.491   3.242  0.0854 -0.0619  0.4408
  366SOL     OW 2313   0.297   0.636   3.674  0.4846  0.0987 -0.8448
  366SOL    HW1 2314   0.227   0.653   3.736 -0.2670 -0.9573 -1.3559
  366SOL    HW2 2315   0.282   0.698   3.602 -0.1571 -0.3593 -1.1160
  367SOL     OW 2316   1.631   0.577   3.531  0.2357 -0.7909  0.0264
  367SOL    HW1 2317   1.615   0.598   3.623  0.5573 -1.9078  0.3616
  367SOL    HW2 2318   1.554   0.527   3.504 -0.6523  0.9682 -0.8336
  368SOL     OW 2319   0.813   0.535   3.972 -0.0847 -0.2032  0.0810
  368SOL    HW1 2320   0.787   0.626   3.988  0.4169  0.1406 -0.9719
  368SOL    HW2 2321   0.730   0.486   3.975 -0.4537  0.3994 -0.0923
  369SOL     OW 2322   0.539   0.253   3.629 -0.3847 -0.0294 -0.5893
  369SOL    HW1 2323   0.470   0.318   3.613 -0.3490  0.0728 -0.3414
  369SOL    HW2 2324   0.602   0.267   3.558 -1.1013 -0.7929 -1.3967
  370SOL     OW 2325   8.831   1.012   2.922 -0.3265  0.0598  0.1256
  370SOL    HW1 2326   8.764   1.072   2.956 -0.0602  0.0119  0.7381
  370SOL    HW2 2327   8.904   1.020   2.983  0.0115 -0.3167 -0.2245
  371SOL     OW 2328   1.561   0.887   2.992  0.3002 -0.2426  0.7317
  371SOL    HW1 2329   1.576   0.801   3.031 -1.1964 -1.3316 -0.9501
  371SOL    HW2 2330   1.501   0.870   2.920  1.7033  1.9029 -1.0534
  372SOL     OW 2331   0.979   0.731   2.051 -0.4444 -0.5996 -0.3700
  372SOL    HW1 2332   0.973   0.691   1.964 -0.3692  1.2664 -1.2773
  372SOL    HW2 2333   1.033   0.670   2.101  0.2047 -1.3316 -1.8788
  373SOL     OW 2334   0.315   0.392   2.751 -0.3139 -0.4188 -0.7715
  373SOL    HW1 2335   0.353   0.305   2.741 -1.4670 -1.1138  0.4675
  373SOL    HW2 2336   0.338   0.417   2.841  0.6173  0.8895 -1.3492
  374SOL     OW 2337   0.162   1.076   3.173  0.0560 -0.1458  0.3779
  374SOL    HW1 2338   0.222   1.017   3.219  2.0346  1.2204 -0.3162
  374SOL    HW2 2339   0.088   1.086   3.233  0.0199 -2.6377  0.8572
  375SOL     OW 2340   0.292   0.786   3.196 -0.4936 -0.3281 -0.1553
  375SOL    HW1 2341   0.351   0.853   3.161  1.4096 -2.4330 -1.2544
  375SOL    HW2 2342   0.267   0.818   3.283  0.3458  1.7530 -0.6218
  376SOL     OW 2343   2.234   0.617   3.954 -0.0656 -0.2612  0.0714
  376SOL    HW1 2344   2.152   0.662   3.973 -0.3393 -1.2907  1.5145
  376SOL    HW2 2345   2.302   0.678   3.983 -0.3327  0.3053 -0.4712
  377SOL     OW 2346   8.834   0.030   2.449  0.0386  0.3086  0.7546
  377SOL    HW1 2347   8.877   0.016   2.364 -0.4649  0.4632  0.4686
  377SOL    HW2 2348   8.866  -0.042   2.504  0.5085  0.3124  0.4896
  378SOL     OW 2349   1.613   0.333   1.942  0.3093 -0.0145  0.5801
  378SOL    HW1 2350   1.689   0.277   1.925 -1.1014 -1.3840 -1.7614
  378SOL    HW2 2351   1.570   0.292   2.018 -0.4915 -2.0200 -0.8596
  379SOL     OW 2352   1.024   0.854   2.621 -0.1297 -0.1256  0.4196
  379SOL    HW1 2353   1.032   0.805   2.540  0.7833 -1.0691  1.0554
  379SOL    HW2 2354   1.044   0.790   2.690  3.8956  1.6359  1.1907
  380SOL     OW 2355   0.924   1.315   3.270  0.0505  0.6922  0.5529
  380SOL    HW1 2356   1.007   1.291   3.229  0.8073  2.0005  1.2682
  380SOL    HW2 2357   0.867   1.340   3.196  0.9054  1.5614  0.1656
  381SOL     OW 2358   1.671   1.532   3.372  0.1269 -0.5832 -0.4172
  381SOL    HW1 2359   1.646   1.558   3.461 -1.1717 -2.3812 -0.1817
  381SOL    HW2 2360   1.699   1.613   3.330  0.8413  0.3108  1.6335
  382SOL     OW 2361   0.078   1.039   3.773  0.3461 -0.4524 -0.3190
  382SOL    HW1 2362   0.163   1.083   3.775  0.3957 -0.5005 -1.0919
  382SOL    HW2 2363   0.092   0.958   3.821  0.4854 -0.0252  0.3688
  383SOL     OW 2364   1.508   0.031   1.686 -0.1207  0.4282 -0.1125
  383SOL    HW1 2365   1.441   0.086   1.727 -1.7813 -1.1551 -0.5709
  383SOL    HW2 2366   1.556  -0.008   1.759 -1.0416  0.0148  0.2841
  384SOL     OW 2367   1.291   1.445   1.499 -0.2485  0.5421 -0.5232
  384SOL    HW1 2368   1.227   1.396   1.448 -0.3116  1.6340 -1.5372
  384SOL    HW2 2369   1.286   1.407   1.586 -0.7508 -0.8071 -1.1104
  385SOL     OW 2370   1.094   1.664   2.735  0.8568 -0.0398  0.0567
  385SOL    HW1 2371   1.060   1.576   2.751 -1.8590  1.0144  0.6935
  385SOL    HW2 2372   1.125   1.662   2.645 -1.6678 -0.9895 -0.8784
  386SOL     OW 2373   0.158   1.032   2.694 -0.1712 -0.1763 -0.6545
  386SOL    HW1 2374   0.104   1.093   2.744 -0.1936  0.5698 -1.5540
  386SOL    HW2 2375   0.144   0.947   2.736  0.3254  0.5324  0.9932
  387SOL     OW 2376   0.146   0.784   2.808  0.4056  0.4629  0.7368
  387SOL    HW1 2377   0.053   0.770   2.825  0.5375  0.0323  1.1409
  387SOL    HW2 2378   0.190   0.735   2.878  1.0002 -1.6542 -1.0263
  388SOL     OW 2379   1.377   0.364   4.054 -0.3397 -0.1169  0.3582
  388SOL    HW1 2380   1.346   0.352   4.144  0.0449  0.8499  0.6261
  388SOL    HW2 2381   1.351   0.283   4.009 -1.3906 -0.2079  1.0914
  389SOL     OW 2382   1.015   0.441   3.777 -0.0578  0.2642 -0.3301
  389SOL    HW1 2383   1.045   0.498   3.707  0.4892 -0.2570 -0.5289
  389SOL    HW2 2384   0.946   0.491   3.821 -0.3353  0.6304 -1.1698
  390SOL     OW 2385   0.115   1.442   1.733 -0.2109 -0.2813 -0.9345
  390SOL    HW1 2386   0.020   1.449   1.723 -0.5791  0.2020  1.9540
  390SOL    HW2 2387   0.126   1.389   1.812  1.8940  0.7458 -0.4874
  391SOL     OW 2388   0.271   1.551   2.363 -0.3242  0.0503  1.0010
  391SOL    HW1 2389   0.233   1.636   2.386 -0.3974  0.0015  1.0638
  391SOL    HW2 2390   0.209   1.487   2.399 -3.1622 -0.1238 -3.3819
  392SOL     OW 2391   8.772   1.555   2.505 -0.2070  0.3979 -0.1195
  392SOL    HW1 2392   8.731   1.597   2.430  1.6118  4.1372  0.7179
  392SOL    HW2 2393   8.714   1.575   2.578 -0.6619 -0.9405 -0.1034
  393SOL     OW 2394   0.802   0.812   3.166 -0.0804 -0.0669  0.1341
  393SOL    HW1 2395   0.880   0.831   3.217  0.1044  0.1316 -0.2204
  393SOL    HW2 2396   0.783   0.893   3.119 -0.0733 -0.3403 -0.3461
  394SOL     OW 2397   8.659   0.552   2.707  0.1396 -0.3316 -0.0452
  394SOL    HW1 2398   8.570   0.588   2.707  0.5734  0.8625 -1.2649
  394SOL    HW2 2399   8.704   0.599   2.777 -0.2001 -1.0089  0.6397
  395SOL     OW 2400   8.330   0.221   3.517  0.7098 -1.0485 -0.2344
  395SOL    HW1 2401   8.301   0.299   3.469  1.7507  0.1235  0.9708
  395SOL    HW2 2402   8.251   0.169   3.527 -0.3401  0.5391  0.1841
  396SOL     OW 2403   1.128   0.681   3.608  0.3877 -0.2708 -0.2810
  396SOL    HW1 2404   1.069   0.756   3.614 -1.8799 -2.0094  3.2841
  396SOL    HW2 2405   1.185   0.690   3.684  0.0111 -2.1036  0.2744
  397SOL     OW 2406   0.328   0.711   2.242 -0.6685 -0.5149 -0.8259
  397SOL    HW1 2407   0.334   0.753   2.155 -1.1397  0.9687 -0.1854
  397SOL    HW2 2408   0.396   0.754   2.294 -0.0753 -1.7314 -0.5785
  398SOL     OW 2409   1.556   0.556   3.009 -0.6948  0.0697  0.2595
  398SOL    HW1 2410   1.482   0.515   3.053  0.0107 -2.6488 -0.9183
  398SOL    HW2 2411   1.558   0.517   2.922  1.0211  1.4604 -0.3855
  399SOL     OW 2412   0.328   1.659   3.572 -0.4832  0.4449 -0.1493
  399SOL    HW1 2413   0.394   1.655   3.502 -2.2106 -0.5654 -1.8058
  399SOL    HW2 2414   0.334   1.749   3.604  1.5779  0.4283 -0.3444
  400SOL     OW 2415   0.795   0.584   3.017 -0.3059 -0.4385  0.0268
  400SOL    HW1 2416   0.793   0.667   3.065  2.0698  0.0198 -0.5363
  400SOL    HW2 2417   0.705   0.554   3.019 -0.5196 -0.2004  4.3164
  401SOL     OW 2418   0.536   1.602   3.406 -0.0717  0.0885  0.4275
  401SOL    HW1 2419   0.607   1.575   3.464 -0.4720 -0.1419  0.8151
  401SOL    HW2 2420   0.539   1.540   3.333 -0.1446 -0.1744  0.6506
  402SOL     OW 2421   0.511   0.499   2.307 -0.2030 -0.1463 -0.0508
  402SOL    HW1 2422   0.528   0.474   2.216 -0.0673  3.5284 -1.2031
  402SOL    HW2 2423   0.434   0.555   2.303 -1.2230 -1.2065  2.4253
  403SOL     OW 2424   0.269   0.940   3.407  0.4468 -0.4194 -0.4154
  403SOL    HW1 2425   0.262   1.034   3.422 -1.0520 -0.4153 -0.9127
  403SOL    HW2 2426   0.351   0.915   3.449  0.5805  1.0029  0.2435
  404SOL     OW 2427   1.419   1.060   3.141 -0.5358  0.2460 -0.1111
  404SOL    HW1 2428   1.476   1.007   3.085 -0.4567  1.3322 -1.0960
  404SOL    HW2 2429   1.477   1.127   3.177 -0.8639  0.3476  0.2363
  405SOL     OW 2430   1.412   1.043   2.217 -0.0969 -0.0993 -0.1805
  405SOL    HW1 2431   1.466   1.122   2.219 -1.0335  0.6161 -1.4717
  405SOL    HW2 2432   1.353   1.052   2.292  2.3913 -1.5942  2.1590
  406SOL     OW 2433   1.984   2.078   2.987  0.0376  0.4937  0.4147
  406SOL    HW1 2434   1.954   2.138   3.056  0.7924  0.3301  0.8898
  406SOL    HW2 2435   2.066   2.042   3.020  0.4818  0.5155 -0.6349
  407SOL     OW 2436   1.427   1.946   2.853  0.3466 -0.1494  0.3130
  407SOL    HW1 2437   1.435   2.021   2.911  1.3287 -0.5137  0.6787
  407SOL    HW2 2438   1.508   1.896   2.867 -0.0384 -0.9854 -0.3215
  408SOL     OW 2439   0.357   1.376   2.643 -0.0914 -0.0528  0.3857
  408SOL    HW1 2440   0.312   1.392   2.725 -1.2309  0.0362 -0.2310
  408SOL    HW2 2441   0.287   1.353   2.581  0.6361  0.6866 -0.7544
  409SOL     OW 2442   0.730   1.572   3.619 -0.1971 -0.8798 -0.0506
  409SOL    HW1 2443   0.672   1.545   3.690 -1.3393  2.2860  0.4000
  409SOL    HW2 2444   0.790   1.499   3.608 -0.9841 -2.1648  3.0698
  410SOL     OW 2445   1.436   0.543   2.042 -0.1721  0.2898  0.0519
  410SOL    HW1 2446   1.454   0.634   2.020  0.2671 -0.3147 -2.2878
  410SOL    HW2 2447   1.521   0.500   2.041 -0.4510 -0.2889  0.4719
  411SOL     OW 2448   1.429   1.441   2.068  0.2521  0.1832 -0.1231
  411SOL    HW1 2449   1.392   1.357   2.040  0.6590 -0.4162  1.0896
  411SOL    HW2 2450   1.480   1.471   1.993  1.3033 -1.3772 -0.0682
  412SOL     OW 2451   0.024   1.626   3.438 -0.5766  0.4083 -0.2763
  412SOL    HW1 2452   0.118   1.607   3.441 -0.7315 -0.4713 -0.6405
  412SOL    HW2 2453   0.011   1.668   3.354 -0.6162 -0.0966 -0.5236
  413SOL     OW 2454   1.420   1.154   2.816 -0.1089 -0.1154 -0.2372
  413SOL    HW1 2455   1.364   1.109   2.754  2.0049 -2.4956 -0.5796
  413SOL    HW2 2456   1.392   1.122   2.902 -1.6919  1.6424 -0.0234
  414SOL     OW 2457   0.733   1.105   3.201  0.2967  0.1136  0.6312
  414SOL    HW1 2458   0.786   1.120   3.279 -0.8414 -0.4545  1.5259
  414SOL    HW2 2459   0.796   1.110   3.129  1.0974  2.3153  1.4032
  415SOL     OW 2460   1.123   1.815   2.182 -0.6035  0.3300 -0.2806
  415SOL    HW1 2461   1.115   1.742   2.119  1.4678 -0.4546  0.2967
  415SOL    HW2 2462   1.159   1.887   2.131 -0.1837  0.1139 -0.2926
  416SOL     OW 2463   1.609   1.765   2.906 -0.2975 -0.0185  0.2518
  416SOL    HW1 2464   1.612   1.717   2.823  0.2260 -0.4916  0.5292
  416SOL    HW2 2465   1.699   1.794   2.920 -0.4467  0.3277  0.5006
  417SOL     OW 2466   1.654   0.305   3.316  0.5459 -0.2304 -0.1785
  417SOL    HW1 2467   1.733   0.258   3.340  0.8024  1.0648  1.6812
  417SOL    HW2 2468   1.685   0.387   3.277  0.1953  0.8658  1.7286
  418SOL     OW 2469   8.703   0.328   2.122 -0.0057 -0.0661  0.0039
  418SOL    HW1 2470   8.718   0.291   2.209 -0.1196  0.1966  0.1339
  418SOL    HW2 2471   8.725   0.420   2.130 -0.8806  0.1513 -0.0145
  419SOL     OW 2472   1.111   1.639   1.875 -0.1491  0.1028  0.1451
  419SOL    HW1 2473   1.028   1.654   1.829 -0.4518  0.8023  0.9013
  419SOL    HW2 2474   1.176   1.682   1.820 -0.1604 -1.0638 -0.8302
  420SOL     OW 2475   0.773   0.753   3.639 -0.5368 -0.3007  0.6971
  420SOL    HW1 2476   0.800   0.680   3.584 -1.1926  0.2654 -0.4004
  420SOL    HW2 2477   0.830   0.826   3.613 -0.3102 -0.2384  1.3408
  421SOL     OW 2478   1.256   1.006   2.686  0.0948 -0.4895  0.0515
  421SOL    HW1 2479   1.174   0.956   2.687 -0.6979  0.7558  1.1391
  421SOL    HW2 2480   1.324   0.941   2.700 -0.6981 -1.5519 -0.8842
  422SOL     OW 2481   1.723   1.818   2.050  0.2246 -0.3078  0.8017
  422SOL    HW1 2482   1.752   1.805   1.960 -0.0025  1.9333  0.3428
  422SOL    HW2 2483   1.682   1.735   2.074 -1.2076 -0.4390 -1.7484
  423SOL     OW 2484   0.506   0.864   3.556  0.1435  0.5337  0.5369
  423SOL    HW1 2485   0.543   0.943   3.517  0.0018  1.3091  1.9009
  423SOL    HW2 2486   0.581   0.816   3.590  0.2702 -0.1579 -0.6600
  424SOL     OW 2487   1.607   1.249   3.270 -0.0164 -0.0183 -0.3534
  424SOL    HW1 2488   1.599   1.217   3.360 -0.0415  1.5320  0.2214
  424SOL    HW2 2489   1.575   1.339   3.274  1.4040  0.5756 -1.5946
  425SOL     OW 2490   1.237   1.674   2.517  0.0219 -0.0123 -0.5991
  425SOL    HW1 2491   1.323   1.714   2.530  0.6751 -1.7645  0.8557
  425SOL    HW2 2492   1.233   1.655   2.424  1.3739 -0.2489 -0.6292
  426SOL     OW 2493   0.994   0.219   2.689 -0.9637  0.0319 -0.3406
  426SOL    HW1 2494   0.985   0.144   2.631 -1.4161  0.6870 -1.1421
  426SOL    HW2 2495   0.994   0.182   2.777 -1.9515 -0.8459 -0.6914
  427SOL     OW 2496   0.923   1.322   2.584 -0.0938  0.3461 -0.2413
  427SOL    HW1 2497   1.009   1.312   2.542 -0.2470 -0.2332 -0.4322
  427SOL    HW2 2498   0.883   1.235   2.575 -0.1590  0.2300  1.0473
  428SOL     OW 2499   1.850   0.081   3.404 -0.6950  0.4719 -0.3059
  428SOL    HW1 2500   1.856   0.002   3.350  1.9970  0.2604  0.1435
  428SOL    HW2 2501   1.806   0.052   3.484  0.6221 -0.7579  0.0332
  429SOL     OW 2502   0.525   1.035   1.852 -0.8121 -0.3630 -0.0890
  429SOL    HW1 2503   0.558   1.101   1.913 -1.4626  1.8535 -2.0352
  429SOL    HW2 2504   0.601   1.009   1.801 -0.5162 -1.3616  0.7981
  430SOL     OW 2505   8.727   0.983   3.601 -0.4989  0.8192 -0.4914
  430SOL    HW1 2506   8.657   1.002   3.663 -0.6078 -1.3350  0.0983
  430SOL    HW2 2507   8.807   1.007   3.647 -0.5761 -0.8055  0.5595
  431SOL     OW 2508   1.102   0.462   2.575  0.3931  0.3070 -0.0461
  431SOL    HW1 2509   1.044   0.492   2.645 -0.7360 -0.1230 -0.7539
  431SOL    HW2 2510   1.080   0.369   2.565  1.5527  0.0201 -0.0227
  432SOL     OW 2511   8.780   8.593   1.482 -0.3319 -0.1500 -0.2790
  432SOL    HW1 2512   8.693   8.573   1.449 -0.5879 -1.7812  1.1948
  432SOL    HW2 2513   8.765   8.643   1.562  0.0970  0.0247 -0.3036
  433SOL     OW 2514   1.468   0.813   3.374 -0.4626 -0.2770 -0.0096
  433SOL    HW1 2515   1.485   0.829   3.467 -1.6269  0.3213  0.1187
  433SOL    HW2 2516   1.488   0.897   3.332  2.2430 -1.1533 -0.6584
  434SOL     OW 2517   8.829   0.144   1.958 -0.7539  0.5108 -0.4026
  434SOL    HW1 2518   8.790   0.212   2.014  1.1795  0.5653  1.0126
  434SOL    HW2 2519   8.786   0.154   1.873 -0.8152  3.2706 -0.1293
  435SOL     OW 2520   1.328   1.201   1.946 -0.4563  0.2480  0.5915
  435SOL    HW1 2521   1.276   1.233   1.873 -0.0196 -0.9226 -0.2688
  435SOL    HW2 2522   1.295   1.112   1.962  2.0299 -1.0269 -0.8120
  436SOL     OW 2523   0.579   0.610   3.347 -0.3109  0.0734 -0.5203
  436SOL    HW1 2524   0.651   0.659   3.387  0.2223  0.7139 -2.1914
  436SOL    HW2 2525   0.592   0.520   3.376 -0.5744  0.6532  1.5801
  437SOL     OW 2526   1.857   1.912   2.789 -0.2604  0.0297 -0.1809
  437SOL    HW1 2527   1.896   1.975   2.849  1.8117  1.4007 -2.7855
  437SOL    HW2 2528   1.902   1.830   2.808 -0.3026  0.2067  0.7308
  438SOL     OW 2529   0.781   0.828   3.905 -0.7671  0.1500 -0.1978
  438SOL    HW1 2530   0.773   0.787   3.819 -2.8343 -3.9509  1.6645
  438SOL    HW2 2531   0.720   0.902   3.903 -0.8040  0.1055 -2.1583
  439SOL     OW 2532   1.419   0.900   3.648  0.4526 -0.7275  0.3321
  439SOL    HW1 2533   1.378   0.838   3.708 -1.0847  0.4581  0.5821
  439SOL    HW2 2534   1.440   0.976   3.703 -0.4947  0.1624 -0.4785
  440SOL     OW 2535   0.180   1.769   3.241 -0.0112  0.0492 -0.3094
  440SOL    HW1 2536   0.221   1.684   3.228 -1.0860 -0.3801 -1.0134
  440SOL    HW2 2537   0.242   1.818   3.295  0.8277 -1.0133 -0.2892
  441SOL     OW 2538   1.720   1.086   2.881 -0.3969  0.0376  0.3677
  441SOL    HW1 2539   1.666   1.018   2.920 -1.7072 -0.4537 -2.0913
  441SOL    HW2 2540   1.661   1.130   2.818  0.9431  2.1804  0.5052
  442SOL     OW 2541   1.192   0.592   2.142 -0.0448  0.3378  0.3974
  442SOL    HW1 2542   1.267   0.553   2.098  0.1682  0.7506  0.3922
  442SOL    HW2 2543   1.228   0.635   2.219 -0.0080  2.0898 -0.5459
  443SOL     OW 2544   0.665   0.685   2.075 -0.0892  0.3899  0.3827
  443SOL    HW1 2545   0.618   0.738   2.140  0.8254  1.3813  0.2793
  443SOL    HW2 2546   0.757   0.696   2.099  0.3351  1.4720 -1.5514
  444SOL     OW 2547   1.806   0.526   3.845  0.4691  0.4292  0.3671
  444SOL    HW1 2548   1.873   0.585   3.812 -0.1851  1.1253  0.2472
  444SOL    HW2 2549   1.849   0.477   3.915  1.7445 -0.7245 -1.1507
  445SOL     OW 2550   1.776   1.237   3.627 -0.0315  0.0170 -0.4363
  445SOL    HW1 2551   1.699   1.210   3.577 -0.9984  0.1679  0.9310
  445SOL    HW2 2552   1.846   1.179   3.597 -1.0861 -1.2446 -0.5058
  446SOL     OW 2553   1.249   1.537   2.287 -0.2212  0.2837  0.1709
  446SOL    HW1 2554   1.309   1.532   2.212 -1.7123 -1.7369 -0.9891
  446SOL    HW2 2555   1.162   1.533   2.248 -1.0461 -0.7411  1.9787
  447SOL     OW 2556   0.186   1.619   2.695 -0.0907  0.2282 -0.0442
  447SOL    HW1 2557   0.113   1.562   2.671  0.6417 -1.1477  0.8434
  447SOL    HW2 2558   0.166   1.703   2.654 -1.1492 -0.6965 -1.5083
  448SOL     OW 2559   1.074   0.933   2.935  0.8284 -0.1627 -0.2328
  448SOL    HW1 2560   1.144   0.881   2.975  3.0671  0.6971 -2.7557
  448SOL    HW2 2561   1.073   0.905   2.844  0.4006  2.4336 -1.0935
  449SOL     OW 2562   1.309   0.868   1.707  0.1655 -0.1445  0.4194
  449SOL    HW1 2563   1.333   0.951   1.667  0.2170 -0.2667  0.1949
  449SOL    HW2 2564   1.308   0.886   1.801 -0.5456  0.2893  0.3285
  450SOL     OW 2565   1.940   1.668   2.910  0.0056  0.1679 -0.3871
  450SOL    HW1 2566   1.881   1.595   2.891 -1.7202  0.7342  2.3447
  450SOL    HW2 2567   2.014   1.627   2.955 -1.4140  0.0956  2.0360
  451SOL     OW 2568   8.578   1.376   3.444 -0.0342 -0.5182  0.2516
  451SOL    HW1 2569   8.494   1.340   3.472  0.1393 -1.0856  0.0555
  451SOL    HW2 2570   8.554   1.450   3.387 -0.4013  1.0199  2.2585
  452SOL     OW 2571   0.142   1.012   2.216 -0.1859  0.3032 -0.3908
  452SOL    HW1 2572   0.174   0.922   2.223  1.1359  0.7300 -0.6025
  452SOL    HW2 2573   0.197   1.052   2.148  0.5976  1.8158  1.0605
  453SOL     OW 2574   0.541   1.102   3.422  0.1565 -0.0671 -0.3888
  453SOL    HW1 2575   0.455   1.144   3.417 -0.3858 -1.3053 -2.4720
  453SOL    HW2 2576   0.596   1.152   3.361  0.2695 -0.6751 -0.7925
  454SOL     OW 2577   1.440   0.348   3.500  0.0666  0.4350  0.4495
  454SOL    HW1 2578   1.418   0.260   3.531  0.8053  0.1022  0.0616
  454SOL    HW2 2579   1.512   0.334   3.438 -0.7781  1.1714 -0.7316
  455SOL     OW 2580   0.708   0.335   2.774  0.2883  0.1586  0.1460
  455SOL    HW1 2581   0.627   0.288   2.755 -0.8773  1.9785  0.3351
  455SOL    HW2 2582   0.710   0.406   2.709  0.3079  1.7471  1.8016
  456SOL     OW 2583   1.648   2.145   3.250  0.1404  0.6920  0.2709
  456SOL    HW1 2584   1.709   2.096   3.304  0.5731  0.9788  0.0472
  456SOL    HW2 2585   1.694   2.226   3.228 -0.2278  0.8106 -0.0908
  457SOL     OW 2586   0.065   0.630   3.132  0.0869 -0.1090  0.7628
  457SOL    HW1 2587   0.045   0.601   3.221  0.8129 -1.0935  0.6127
  457SOL    HW2 2588   0.151   0.672   3.138  1.0053 -1.8264  0.2187
  458SOL     OW 2589   0.412   1.414   1.859 -0.2708 -0.0439 -0.7687
  458SOL    HW1 2590   0.341   1.405   1.795 -0.7192 -1.0478 -0.1566
  458SOL    HW2 2591   0.370   1.451   1.936 -0.2513 -1.1194 -0.2255
  459SOL     OW 2592   1.564   0.095   3.122  0.4296  0.3055  0.1754
  459SOL    HW1 2593   1.608   0.135   3.047 -0.8907 -0.1622 -0.8851
  459SOL    HW2 2594   1.572   0.159   3.192  1.4305  0.8855 -0.4467
  460SOL     OW 2595   0.758   8.706   2.999  0.0564  0.0301  0.0032
  460SOL    HW1 2596   0.678   8.754   2.981 -1.4744 -2.6876 -1.1257
  460SOL    HW2 2597   0.734   8.647   3.072  0.2525 -2.2555 -1.6546
  461SOL     OW 2598   1.366   1.371   2.501 -0.2591 -0.3107 -0.6042
  461SOL    HW1 2599   1.383   1.426   2.578  0.7884  0.2831 -1.2278
  461SOL    HW2 2600   1.324   1.430   2.438 -1.5012 -0.9018 -0.3497
  462SOL     OW 2601   0.652   1.339   2.916  0.0501 -0.4884  0.4394
  462SOL    HW1 2602   0.563   1.306   2.908 -0.3490  0.6904 -0.0900
  462SOL    HW2 2603   0.701   1.292   2.849 -0.1056 -1.3062  0.8807
  463SOL     OW 2604   1.354   0.244   2.078  0.1546  0.0994  0.3454
  463SOL    HW1 2605   1.413   0.278   2.146 -0.6618  0.5221  0.8659
  463SOL    HW2 2606   1.306   0.321   2.048  0.1814 -0.1680 -0.3876
  464SOL     OW 2607   1.550   0.279   2.264  0.2158 -0.3557 -0.2297
  464SOL    HW1 2608   1.562   0.186   2.282  2.4202 -0.5596 -2.2519
  464SOL    HW2 2609   1.595   0.323   2.336 -1.3671 -0.7714  1.0770
  465SOL     OW 2610   1.355   0.492   3.155  0.0792  0.2406  0.3435
  465SOL    HW1 2611   1.306   0.461   3.230 -0.5800  1.4356  0.4143
  465SOL    HW2 2612   1.346   0.587   3.157  0.6109  0.3343 -0.8586
  466SOL     OW 2613   8.814   0.704   1.880 -1.0805 -0.8820 -0.0648
  466SOL    HW1 2614   8.868   0.631   1.850 -2.0706 -1.6254 -0.0702
  466SOL    HW2 2615   8.790   0.680   1.970 -0.1986  0.1483  0.4722
  467SOL     OW 2616   1.047   1.462   2.079 -0.2815  0.2291 -0.0809
  467SOL    HW1 2617   0.953   1.453   2.090 -0.1160 -0.1980  1.1786
  467SOL    HW2 2618   1.058   1.517   2.002 -1.5569  0.3172 -0.2075
  468SOL     OW 2619   0.085   0.774   3.860  0.1914  0.6664  0.2508
  468SOL    HW1 2620   0.019   0.730   3.807  2.0438 -1.2211 -0.6324
  468SOL    HW2 2621   0.089   0.723   3.940  0.8410  0.5261  0.1328
  469SOL     OW 2622   0.274   0.048   4.864  0.5049  0.1190 -0.1780
  469SOL    HW1 2623   0.268   0.104   4.942 -2.5433 -0.2760  0.0270
  469SOL    HW2 2624   0.331  -0.024   4.890  3.1726  2.1884  0.1075
  470SOL     OW 2625   8.750   0.424   4.297  0.0930  0.4462 -0.1658
  470SOL    HW1 2626   8.691   0.484   4.342 -1.0355 -0.5872 -0.2353
  470SOL    HW2 2627   8.724   0.337   4.328 -0.0540 -0.2190 -2.0455
  471SOL     OW 2628   0.521   1.454   4.939  0.2102  0.1331  0.4086
  471SOL    HW1 2629   0.433   1.427   4.914  0.4124 -0.9960  0.8867
  471SOL    HW2 2630   0.513   1.549   4.955 -1.0699 -0.0629  1.0727
  472SOL     OW 2631   1.353   1.743   4.510 -0.8779  0.4822  0.2281
  472SOL    HW1 2632   1.355   1.822   4.456 -0.3649  0.2041 -0.1727
  472SOL    HW2 2633   1.275   1.753   4.565 -1.8755  0.3982 -1.1297
  473SOL     OW 2634   1.363   0.655   4.499  0.4934 -0.3495  0.0464
  473SOL    HW1 2635   1.388   0.747   4.493  1.5307 -0.6407 -0.3256
  473SOL    HW2 2636   1.285   0.648   4.445 -0.1257  0.4844  0.8017
  474SOL     OW 2637   1.929   0.350   3.995 -0.1658 -0.3292  0.1766
  474SOL    HW1 2638   1.925   0.268   3.945  1.4185  0.8016 -1.9609
  474SOL    HW2 2639   2.022   0.369   4.004 -0.4691  1.9564 -0.7175
  475SOL     OW 2640   0.720   1.339   4.772 -0.2791  0.2862  0.0092
  475SOL    HW1 2641   0.668   1.386   4.836  0.5677  0.0397  0.9100
  475SOL    HW2 2642   0.671   1.258   4.755 -0.4604  0.3092  0.4278
  476SOL     OW 2643   1.437   0.729   5.168 -0.3259  0.4348  1.3468
  476SOL    HW1 2644   1.460   0.789   5.096 -1.0106  0.2183  0.9424
  476SOL    HW2 2645   1.358   0.767   5.206 -0.0975  0.4198  1.8438
  477SOL     OW 2646   0.505   1.143   4.132  0.5736 -0.1539 -0.0152
  477SOL    HW1 2647   0.440   1.150   4.201  0.1152  0.1076 -0.4596
  477SOL    HW2 2648   0.454   1.144   4.051  1.1793  1.2581 -0.4214
  478SOL     OW 2649   0.794   0.889   5.511 -0.0526 -0.6452 -0.3611
  478SOL    HW1 2650   0.782   0.879   5.416 -1.8966 -0.3348 -0.2048
  478SOL    HW2 2651   0.841   0.972   5.520 -0.6243 -0.2378 -0.9870
  479SOL     OW 2652   0.237   1.290   4.625  0.5622  0.1957 -0.2139
  479SOL    HW1 2653   0.146   1.287   4.596 -0.2596  0.0628  2.2031
  479SOL    HW2 2654   0.265   1.380   4.606  0.3380 -0.0631 -1.9800
  480SOL     OW 2655   1.549   1.546   4.993  0.1187  0.4007  0.3398
  480SOL    HW1 2656   1.630   1.496   5.010  0.2052  0.7760  1.0979
  480SOL    HW2 2657   1.509   1.555   5.080  0.0472  1.5463  0.2048
  481SOL     OW 2658   0.437   0.129   4.621 -0.7113  0.0090 -0.2113
  481SOL    HW1 2659   0.391   0.109   4.703 -1.6944 -0.3704 -0.8335
  481SOL    HW2 2660   0.496   0.055   4.608 -1.0895 -0.2922 -0.2232
  482SOL     OW 2661   1.754   0.265   4.443  0.4232  0.3753  0.2036
  482SOL    HW1 2662   1.669   0.309   4.436  0.0491 -0.4748 -0.8599
  482SOL    HW2 2663   1.749   0.215   4.525 -0.7050 -0.8627 -0.5818
  483SOL     OW 2664   8.824   1.981   4.053 -0.1936 -0.2715 -0.3833
  483SOL    HW1 2665   8.858   1.965   4.141 -1.4067  1.0558  0.3661
  483SOL    HW2 2666   8.873   1.921   3.997  0.2385 -1.5246  1.2642
  484SOL     OW 2667   1.054   1.219   5.781  0.0134 -0.1762  0.5110
  484SOL    HW1 2668   1.044   1.290   5.845 -0.6039 -0.2142  0.4617
  484SOL    HW2 2669   1.089   1.146   5.832  0.1197 -0.0121  0.6766
  485SOL     OW 2670   0.496   1.382   4.489  0.0532 -0.2687 -0.2171
  485SOL    HW1 2671   0.587   1.396   4.515 -0.4268  0.0431  1.3403
  485SOL    HW2 2672   0.452   1.465   4.507 -0.7365 -0.7044 -0.0971
  486SOL     OW 2673   0.544   1.116   4.659  0.4571  0.3818  0.5964
  486SOL    HW1 2674   0.521   1.030   4.623 -0.1718  0.7129  0.2017
  486SOL    HW2 2675   0.482   1.176   4.620  2.3640  1.4139 -1.0080
  487SOL     OW 2676   0.587   1.915   5.078  0.4616 -0.4601 -0.6939
  487SOL    HW1 2677   0.661   1.974   5.094  1.2770 -1.7540  0.4835
  487SOL    HW2 2678   0.514   1.956   5.123  1.0691 -0.4365  0.2898
  488SOL     OW 2679   0.345   0.963   3.810 -0.1565 -0.3192  0.2347
  488SOL    HW1 2680   0.367   0.912   3.888 -1.5047 -0.7245  0.3765
  488SOL    HW2 2681   0.348   0.899   3.738 -1.3761 -0.5140  0.3419
  489SOL     OW 2682   1.596   8.597   4.921 -0.5985  0.2772  0.0152
  489SOL    HW1 2683   1.620   8.669   4.978 -0.5732 -0.1404  0.5406
  489SOL    HW2 2684   1.679   8.564   4.886 -0.5701  0.1796  0.1741
  490SOL     OW 2685   0.224   0.645   4.055  0.2558  0.2165  0.1013
  490SOL    HW1 2686   0.255   0.610   3.971  0.6047  0.4682  0.1237
  490SOL    HW2 2687   0.190   0.569   4.101 -0.9007  0.2302 -0.6857
  491SOL     OW 2688   2.245   2.001   3.945 -0.0285  0.1105 -0.2609
  491SOL    HW1 2689   2.258   2.014   4.038  0.0653  0.3012 -0.3016
  491SOL    HW2 2690   2.288   1.917   3.926 -0.2571 -0.0466 -0.0880
  492SOL     OW 2691   8.777   1.688   3.758  0.2215  0.0961 -0.3165
  492SOL    HW1 2692   8.747   1.607   3.798 -0.8781  0.9835  0.7155
  492SOL    HW2 2693   8.826   1.733   3.826 -0.5456  1.0192 -0.3464
  493SOL     OW 2694   2.029   1.378   4.161  0.3804 -0.0341 -0.0020
  493SOL    HW1 2695   2.067   1.394   4.074 -0.1251 -0.7407 -0.3654
  493SOL    HW2 2696   1.945   1.424   4.158  0.2095 -0.3477 -0.0097
  494SOL     OW 2697   2.013   1.103   4.268  0.0687  0.4746 -0.0708
  494SOL    HW1 2698   2.010   1.177   4.207 -0.3601  0.3756 -0.1773
  494SOL    HW2 2699   1.928   1.060   4.257  0.0609  0.3470  0.4671
  495SOL     OW 2700   0.050   0.605   5.252  0.0476  0.2612 -0.8339
  495SOL    HW1 2701   0.089   0.596   5.339  0.2823 -2.2583 -1.1311
  495SOL    HW2 2702  -0.042   0.625   5.269 -0.4948 -2.5552  0.1572
  496SOL     OW 2703   0.807   1.480   4.553 -0.4113  0.3174  0.0969
  496SOL    HW1 2704   0.782   1.452   4.641 -1.0829  0.6453  0.0134
  496SOL    HW2 2705   0.752   1.556   4.535 -1.5543 -0.7878 -1.2999
  497SOL     OW 2706   1.745   1.375   4.706  0.5112  0.6249 -0.1876
  497SOL    HW1 2707   1.769   1.350   4.616  1.1034  1.9538 -0.4263
  497SOL    HW2 2708   1.802   1.322   4.761 -0.6735 -1.0737 -0.5211
  498SOL     OW 2709   0.831   0.081   4.492 -0.2855  0.8439  0.4417
  498SOL    HW1 2710   0.907   0.044   4.447 -0.9394 -0.4454  0.3226
  498SOL    HW2 2711   0.863   0.102   4.580  0.2854  0.5935  0.2996
  499SOL     OW 2712   0.161   0.787   5.028  0.1978  0.3409  0.8440
  499SOL    HW1 2713   0.083   0.835   5.057 -0.1895 -0.8581  1.8849
  499SOL    HW2 2714   0.173   0.719   5.094  2.8421  1.2010  1.3369
  500SOL     OW 2715   1.981   0.764   3.955  0.2967  0.1007  0.2778
  500SOL    HW1 2716   1.891   0.788   3.978  0.4798  0.8437  0.2257
  500SOL    HW2 2717   1.977   0.741   3.862  0.0911 -0.2402  0.3676
  501SOL     OW 2718   1.266   1.744   5.277  0.4270  0.4094  0.3771
  501SOL    HW1 2719   1.331   1.812   5.294  0.7359  0.9784 -2.6393
  501SOL    HW2 2720   1.270   1.687   5.355  2.7597  1.7784  1.3523
  502SOL     OW 2721   0.475   0.398   5.504 -0.0755  0.3587 -0.3905
  502SOL    HW1 2722   0.480   0.383   5.598 -1.2121 -1.9410 -0.6101
  502SOL    HW2 2723   0.546   0.459   5.485  0.2637  0.7762  1.9103
  503SOL     OW 2724   2.148   1.555   4.521  0.4217  0.4506  0.5418
  503SOL    HW1 2725   2.137   1.501   4.599 -1.1779  1.9828  1.4528
  503SOL    HW2 2726   2.063   1.596   4.508  0.5434  0.0725 -2.1987
  504SOL     OW 2727   1.729   1.609   3.885  0.2936  0.4633 -0.2458
  504SOL    HW1 2728   1.781   1.689   3.898 -0.8899  1.1564  0.3584
  504SOL    HW2 2729   1.792   1.546   3.851  1.6933  1.0983  1.0188
  505SOL     OW 2730   0.624   0.908   4.230 -0.1949  0.3482  0.2706
  505SOL    HW1 2731   0.591   0.996   4.212 -0.7985  0.7802  3.0139
  505SOL    HW2 2732   0.720   0.917   4.222 -0.2022  1.4428  1.1185
  506SOL     OW 2733   1.345   0.038   4.627  0.0295  0.7138  0.3323
  506SOL    HW1 2734   1.331   0.132   4.642 -1.6036  0.9336 -1.9952
  506SOL    HW2 2735   1.288  -0.005   4.691 -1.4337  1.4276 -0.4194
  507SOL     OW 2736   1.572   1.353   3.864  0.0046 -0.1280 -0.0454
  507SOL    HW1 2737   1.645   1.415   3.863  0.3069 -0.4393  1.1088
  507SOL    HW2 2738   1.506   1.395   3.920 -0.1240 -0.4738  0.0666
  508SOL     OW 2739   0.671   0.639   5.034  0.9396  0.2743  0.0862
  508SOL    HW1 2740   0.607   0.569   5.032  0.3025  0.8638 -1.0434
  508SOL    HW2 2741   0.638   0.705   4.973  2.0244  1.1167  0.3559
  509SOL     OW 2742   1.607   0.936   5.031 -1.2299  0.1708 -0.2697
  509SOL    HW1 2743   1.577   0.996   5.098 -0.1091  0.5044 -0.0447
  509SOL    HW2 2744   1.700   0.957   5.019 -0.3127 -2.5943  1.0247
  510SOL     OW 2745   1.431   1.210   4.958  0.3760 -0.0704 -0.7179
  510SOL    HW1 2746   1.514   1.258   4.961  0.6681 -0.5920 -0.1359
  510SOL    HW2 2747   1.424   1.170   5.044 -1.6243  1.8350  0.1048
  511SOL     OW 2748   1.181   0.412   4.985 -0.0221 -0.5273 -0.2579
  511SOL    HW1 2749   1.177   0.319   4.964  0.1590 -0.3664 -1.0112
  511SOL    HW2 2750   1.204   0.455   4.903  0.0773  0.1684  0.1240
  512SOL     OW 2751   1.476   0.364   4.440 -0.5793  0.2398 -0.3494
  512SOL    HW1 2752   1.474   0.460   4.438 -1.5763  0.2381  0.0624
  512SOL    HW2 2753   1.413   0.337   4.372 -0.2822 -0.1218 -0.4846
  513SOL     OW 2754   0.070   0.925   4.616  0.2188  0.1727 -0.2653
  513SOL    HW1 2755   0.129   0.987   4.573 -0.2107  2.3641  2.0066
  513SOL    HW2 2756   0.128   0.874   4.673  0.3647 -0.3806 -0.8977
  514SOL     OW 2757   0.119   1.946   5.321 -0.4127  0.1484 -0.1808
  514SOL    HW1 2758   0.207   1.909   5.312  1.3885  3.8210  0.6082
  514SOL    HW2 2759   0.077   1.929   5.237  0.8644 -1.9601 -0.4696
  515SOL     OW 2760   0.348   0.457   3.885  0.0616 -0.2897  0.4211
  515SOL    HW1 2761   0.328   0.470   3.792  0.5833  0.3977  0.3978
  515SOL    HW2 2762   0.272   0.409   3.919  0.0140 -0.8470 -0.4281
  516SOL     OW 2763   1.843   0.646   5.094 -0.2120 -0.2756 -0.2847
  516SOL    HW1 2764   1.802   0.636   5.180 -1.2457  0.9180 -0.6102
  516SOL    HW2 2765   1.937   0.639   5.111 -0.4422 -0.7802  0.8246
  517SOL     OW 2766   1.182   1.424   4.219 -0.0830  0.2408  0.6271
  517SOL    HW1 2767   1.100   1.378   4.235 -0.7317  1.2042  0.1876
  517SOL    HW2 2768   1.156   1.515   4.205  1.0484  0.5370  0.3384
  518SOL     OW 2769   0.450   8.716   4.340 -0.1552  0.0279 -0.3770
  518SOL    HW1 2770   0.436   8.802   4.299  0.1864 -0.1464 -0.8589
  518SOL    HW2 2771   0.508   8.735   4.414 -0.7062  0.3274 -0.0122
  519SOL     OW 2772   1.088   1.900   3.979  0.3055  0.3167  0.0479
  519SOL    HW1 2773   1.118   1.954   3.906 -0.6128  2.0490  0.8991
  519SOL    HW2 2774   1.113   1.948   4.058  1.4213 -1.5934  0.9228
  520SOL     OW 2775   0.072   1.831   4.794 -0.3594  0.2316 -0.3011
  520SOL    HW1 2776   0.149   1.887   4.784 -0.6899  0.6945 -0.2733
  520SOL    HW2 2777  -0.002   1.891   4.798 -0.6115 -0.1162  0.9609
  521SOL     OW 2778   2.144   0.968   4.893 -0.4157 -0.2116  0.2521
  521SOL    HW1 2779   2.094   0.917   4.829  0.9796  0.2524 -1.2796
  521SOL    HW2 2780   2.225   0.992   4.847 -0.3400  2.0748  1.4319
  522SOL     OW 2781   1.259   1.521   5.110  0.4690 -0.3184 -0.1426
  522SOL    HW1 2782   1.256   1.544   5.017 -0.6537 -1.1348 -0.3219
  522SOL    HW2 2783   1.234   1.601   5.156 -0.1033 -0.2316 -0.5973
  523SOL     OW 2784   8.645   1.269   4.054 -0.9457 -0.1353 -0.0477
  523SOL    HW1 2785   8.661   1.345   3.997 -0.5510  0.6545  1.0758
  523SOL    HW2 2786   8.559   1.237   4.028 -1.3594  1.0310 -0.1976
  524SOL     OW 2787   1.251   1.121   4.296  0.6717 -0.0325  0.2400
  524SOL    HW1 2788   1.329   1.176   4.286 -0.6327  1.5618 -1.8175
  524SOL    HW2 2789   1.194   1.170   4.355 -0.0676  0.4008 -0.7966
  525SOL     OW 2790   0.027   2.103   6.009 -0.0190  0.1996  0.6880
  525SOL    HW1 2791   0.111   2.124   6.049 -1.0246  1.1378  2.4095
  525SOL    HW2 2792   0.049   2.079   5.919  2.1671 -0.4263  1.3239
  526SOL     OW 2793   0.809   1.832   3.962  0.4601 -0.4225 -0.4364
  526SOL    HW1 2794   0.809   1.788   4.047 -2.3725  1.4005  0.6643
  526SOL    HW2 2795   0.899   1.864   3.952  0.9177 -0.8377  1.8046
  527SOL     OW 2796   0.061   0.030   4.686 -0.6509  0.0575 -0.4734
  527SOL    HW1 2797   0.082   0.084   4.609 -0.7217  1.0048  0.1508
  527SOL    HW2 2798   0.143   0.023   4.734 -0.7005 -0.1897 -0.4233
  528SOL     OW 2799   1.800   1.501   4.122  1.2256  0.9623  0.0143
  528SOL    HW1 2800   1.814   1.569   4.055 -0.4355  0.7972 -0.5629
  528SOL    HW2 2801   1.720   1.529   4.167  0.9421 -0.2172  0.2669
  529SOL     OW 2802   0.356   1.699   3.935 -0.1875  0.0578  0.7937
  529SOL    HW1 2803   0.346   1.661   4.023 -1.9381 -0.7905  0.2608
  529SOL    HW2 2804   0.437   1.660   3.901 -0.1926 -0.6166  1.5301
  530SOL     OW 2805   1.202   0.044   4.182 -0.7631  0.4668 -0.3623
  530SOL    HW1 2806   1.176   0.081   4.097  1.8622  2.8073 -0.2823
  530SOL    HW2 2807   1.260  -0.029   4.160  0.0079  1.1449 -0.5864
  531SOL     OW 2808   0.326   1.803   4.973 -0.4359  0.2796 -0.1804
  531SOL    HW1 2809   0.331   1.878   4.915  2.2051 -0.0531 -0.5204
  531SOL    HW2 2810   0.387   1.823   5.044  0.6701 -1.6564 -0.5070
  532SOL     OW 2811   0.892   1.817   4.631 -0.5895 -0.7788  0.2597
  532SOL    HW1 2812   0.813   1.862   4.600 -1.1727 -1.2402  1.0442
  532SOL    HW2 2813   0.953   1.822   4.557 -1.5398 -0.8673 -0.5478
  533SOL     OW 2814   0.518   0.871   4.495 -0.4753  0.9678  0.3187
  533SOL    HW1 2815   0.566   0.853   4.414  0.5931  2.1295  0.6519
  533SOL    HW2 2816   0.571   0.830   4.563 -0.8975  0.7588  0.5242
  534SOL     OW 2817   1.767   0.062   5.342 -0.4837  0.3803  0.1436
  534SOL    HW1 2818   1.785   0.141   5.291 -0.1567 -0.7848 -1.6310
  534SOL    HW2 2819   1.702   0.090   5.407 -0.9205  1.9403 -0.8967
  535SOL     OW 2820   0.092   0.435   3.721 -0.0816 -0.4345 -0.0833
  535SOL    HW1 2821   0.044   0.352   3.718 -0.1819 -0.3864  0.1754
  535SOL    HW2 2822   0.037   0.496   3.672 -0.3674 -0.3374  0.3568
  536SOL     OW 2823   0.945   0.816   4.967  0.2792  0.0185 -0.1937
  536SOL    HW1 2824   0.882   0.753   5.000  0.1090 -0.0092 -0.5622
  536SOL    HW2 2825   0.897   0.864   4.899  0.0987  1.1901  0.7166
  537SOL     OW 2826   1.234   1.502   4.835 -0.1899 -0.3046  0.4053
  537SOL    HW1 2827   1.320   1.483   4.797  0.8413  1.5793  1.6344
  537SOL    HW2 2828   1.177   1.514   4.759  0.7388 -1.0945 -0.4419
  538SOL     OW 2829   1.410   0.097   4.955  0.8550 -0.0719 -0.1595
  538SOL    HW1 2830   1.453   0.152   5.020  1.1864 -1.9954  1.3351
  538SOL    HW2 2831   1.414   0.148   4.874  1.1980  2.0371  1.1060
  539SOL     OW 2832   1.068   1.594   4.615 -0.2237  0.1070  0.4178
  539SOL    HW1 2833   0.996   1.656   4.603 -0.0747  0.5042  1.5102
  539SOL    HW2 2834   1.024   1.509   4.621 -0.4470  0.1085 -0.7894
  540SOL     OW 2835   1.333   0.300   4.673  0.1334  0.1946  0.3651
  540SOL    HW1 2836   1.349   0.332   4.585  3.9221 -1.5430  0.1955
  540SOL    HW2 2837   1.411   0.325   4.722  0.7599 -3.5335  1.6411
  541SOL     OW 2838   0.605   0.150   4.201 -0.1528 -0.5911 -0.1512
  541SOL    HW1 2839   0.681   0.098   4.178 -0.1322 -0.4423 -0.4180
  541SOL    HW2 2840   0.608   0.157   4.297 -0.3712 -1.4080 -0.0767
  542SOL     OW 2841   1.874   1.172   3.923  0.4398  0.2772 -0.1116
  542SOL    HW1 2842   1.810   1.218   3.977  0.5740  1.2817 -0.7869
  542SOL    HW2 2843   1.848   1.192   3.833  2.1846  1.4256 -0.4052
  543SOL     OW 2844   0.132   0.431   4.149  0.5225 -0.0137  0.3554
  543SOL    HW1 2845   0.048   0.412   4.190  1.1274 -0.9852  1.2213
  543SOL    HW2 2846   0.149   0.356   4.093  1.6127 -0.7038  1.5620
  544SOL     OW 2847   1.008   0.161   4.711 -0.6969  0.0655  0.3319
  544SOL    HW1 2848   0.969   0.228   4.767 -0.9866 -0.2452  0.5080
  544SOL    HW2 2849   1.069   0.209   4.655 -0.4040  0.3799  0.9112
  545SOL     OW 2850   1.475   0.697   4.885 -0.2051 -0.2462 -0.4939
  545SOL    HW1 2851   1.443   0.680   4.974 -0.0455 -0.1676 -0.4209
  545SOL    HW2 2852   1.398   0.684   4.829 -0.4618  0.3309 -0.2805
  546SOL     OW 2853   1.343   1.819   4.152  0.0786  0.2466 -0.1449
  546SOL    HW1 2854   1.289   1.896   4.165 -2.7641 -1.7546  0.9154
  546SOL    HW2 2855   1.345   1.807   4.057  0.5203  1.5450 -0.3155
  547SOL     OW 2856   0.129   1.350   4.206 -0.1493 -0.0826 -0.0633
  547SOL    HW1 2857   0.098   1.418   4.265  0.2021  1.2982 -1.4216
  547SOL    HW2 2858   0.210   1.318   4.247  0.5438  1.4403 -0.1638
  548SOL     OW 2859   1.304   2.077   4.465 -0.0579  0.2249  0.5345
  548SOL    HW1 2860   1.360   2.152   4.484 -0.4345  0.3424  1.2542
  548SOL    HW2 2861   1.222   2.097   4.511  0.0310 -0.8846  1.2046
  549SOL     OW 2862   1.011   0.490   4.149  0.0674 -0.4410 -0.8647
  549SOL    HW1 2863   0.932   0.512   4.100  0.1623  1.7850 -0.1082
  549SOL    HW2 2864   0.985   0.418   4.205 -1.9948  1.3567  0.6457
  550SOL     OW 2865   0.095   0.606   4.674  0.4167 -0.0490  0.6448
  550SOL    HW1 2866   0.171   0.652   4.710 -0.1232  0.4144  1.2076
  550SOL    HW2 2867   0.031   0.605   4.745  0.0183 -0.7452  0.2938
  551SOL     OW 2868   0.621   8.759   4.559  0.5642 -0.0989 -0.6742
  551SOL    HW1 2869   0.689   8.821   4.532 -0.8827  1.0377 -1.8530
  551SOL    HW2 2870   0.662   8.707   4.628  2.2305  1.3462 -0.5164
  552SOL     OW 2871   0.954   0.616   4.731  0.3110 -0.1622  0.2101
  552SOL    HW1 2872   0.934   0.547   4.794  2.5831 -3.1154 -2.0401
  552SOL    HW2 2873   0.925   0.583   4.647 -0.2720  2.5411 -0.7711
  553SOL     OW 2874   0.753   8.300   4.574 -0.2396  0.0982 -0.3492
  553SOL    HW1 2875   0.771   8.296   4.481  1.1908 -0.7747 -0.0707
  553SOL    HW2 2876   0.832   8.340   4.612  0.1296 -1.4695  0.6661
  554SOL     OW 2877   1.551   1.643   4.225  0.1349 -0.2257 -0.3091
  554SOL    HW1 2878   1.525   1.607   4.310  0.6906  1.7237  0.7331
  554SOL    HW2 2879   1.484   1.708   4.205  0.4440 -0.1081 -0.9788
  555SOL     OW 2880   1.816   0.685   4.481  0.3539  0.6052  0.3001
  555SOL    HW1 2881   1.747   0.751   4.477  1.6887  2.0020 -1.0703
  555SOL    HW2 2882   1.897   0.733   4.463  1.5961 -1.1285  0.8986
  556SOL     OW 2883   1.769   0.987   4.205  0.1653  0.3112 -0.1622
  556SOL    HW1 2884   1.750   0.951   4.118  1.0103 -0.0970 -0.1916
  556SOL    HW2 2885   1.687   1.028   4.232 -0.6699 -1.1281 -0.3736
  557SOL     OW 2886   0.261   1.404   3.706 -0.5627 -0.3245 -0.8640
  557SOL    HW1 2887   0.297   1.485   3.669 -0.7410 -0.7269 -1.9599
  557SOL    HW2 2888   0.167   1.419   3.709 -0.6511 -0.6882 -1.5998
  558SOL     OW 2889   1.719   0.900   3.924  0.1968 -0.3819 -0.0901
  558SOL    HW1 2890   1.785   0.966   3.902  0.2706  0.0020  1.2092
  558SOL    HW2 2891   1.636   0.946   3.916  0.1556 -0.5512 -0.6375
  559SOL     OW 2892   1.541   0.552   3.812  0.3953  0.4265  0.1011
  559SOL    HW1 2893   1.501   0.484   3.866  0.2307  1.1119  0.8586
  559SOL    HW2 2894   1.635   0.546   3.829  0.2941  1.0364  0.9593
  560SOL     OW 2895   0.396   0.491   4.347  0.5437  0.1735  0.6716
  560SOL    HW1 2896   0.342   0.541   4.285  3.1889  1.0418 -1.1030
  560SOL    HW2 2897   0.333   0.454   4.409 -1.8934  2.5723 -0.1670
  561SOL     OW 2898   1.703   1.301   5.014 -0.5847  0.5407 -0.4645
  561SOL    HW1 2899   1.769   1.276   4.949 -0.6668  2.0666 -1.2001
  561SOL    HW2 2900   1.743   1.279   5.098 -0.2536 -0.9857 -0.9854
  562SOL     OW 2901   1.488   1.481   4.735  0.1270  0.0338 -0.4135
  562SOL    HW1 2902   1.498   1.507   4.827 -0.1173 -1.1487 -0.0430
  562SOL    HW2 2903   1.563   1.425   4.718 -0.3469 -0.5361 -0.6437
  563SOL     OW 2904   1.430   1.901   5.502  0.3957  0.1614 -0.0066
  563SOL    HW1 2905   1.460   1.851   5.578 -1.8702  2.2430  2.4685
  563SOL    HW2 2906   1.511   1.936   5.464  1.6702 -1.6241  0.9033
  564SOL     OW 2907   1.460   1.518   4.467 -0.0379 -0.2942 -0.3049
  564SOL    HW1 2908   1.414   1.600   4.451 -1.5693 -1.2495 -0.9616
  564SOL    HW2 2909   1.484   1.522   4.560  0.3790  1.1038 -0.4513
  565SOL     OW 2910   1.773   1.137   4.510 -0.4704  0.1786  0.1786
  565SOL    HW1 2911   1.864   1.110   4.513 -0.3679  0.4852 -0.0336
  565SOL    HW2 2912   1.726   1.071   4.560 -0.1725 -0.1436  0.0378
  566SOL     OW 2913   0.780   8.612   4.716 -0.4979  0.2680  0.2682
  566SOL    HW1 2914   0.724   8.566   4.779 -0.2989 -1.3089 -0.6442
  566SOL    HW2 2915   0.854   8.552   4.702  0.3124  1.3488 -0.1907
  567SOL     OW 2916   1.328   1.105   5.468  0.1355 -0.1133 -0.1927
  567SOL    HW1 2917   1.376   1.089   5.387  0.4851 -0.2942  0.0512
  567SOL    HW2 2918   1.264   1.034   5.473  2.2531 -2.0354  1.3298
  568SOL     OW 2919   0.573   1.509   3.848  0.1531  0.0206  0.0454
  568SOL    HW1 2920   0.498   1.457   3.821 -0.8303  0.9729  0.8583
  568SOL    HW2 2921   0.608   1.464   3.925 -0.6827  0.5204  0.7346
  569SOL     OW 2922   0.286   0.754   4.791 -0.1398  0.4069 -0.8949
  569SOL    HW1 2923   0.235   0.777   4.869  0.6742  0.8681 -0.4890
  569SOL    HW2 2924   0.373   0.791   4.806 -0.0025  0.6381 -2.0864
  570SOL     OW 2925   1.369   8.699   5.056 -0.0353 -0.6405 -0.1570
  570SOL    HW1 2926   1.445   8.642   5.045  0.7699 -0.3761  3.0848
  570SOL    HW2 2927   1.399   8.784   5.024 -0.0497 -1.1940 -1.7256
  571SOL     OW 2928   0.365   1.578   5.494  0.4336 -0.1225  0.2152
  571SOL    HW1 2929   0.304   1.521   5.542  0.8664 -0.2406  0.6399
  571SOL    HW2 2930   0.309   1.628   5.435 -0.5095  2.0635  2.7574
  572SOL     OW 2931   0.049   1.094   4.129  0.6289 -0.4240 -0.0375
  572SOL    HW1 2932   0.093   1.175   4.155 -1.3891  0.1126  2.0702
  572SOL    HW2 2933  -0.033   1.123   4.089  1.1206 -1.4367 -1.9310
  573SOL     OW 2934   0.676   0.625   4.344  0.0935  0.4361  0.7876
  573SOL    HW1 2935   0.592   0.601   4.304  0.5421 -0.2688  0.2339
  573SOL    HW2 2936   0.700   0.707   4.302  0.4992 -0.2355 -0.3372
  574SOL     OW 2937   1.124   1.624   3.982  0.2111  0.1824 -0.2899
  574SOL    HW1 2938   1.124   1.601   3.889 -2.5531 -0.8239 -0.1349
  574SOL    HW2 2939   1.112   1.719   3.983  0.8104  0.2675 -0.9606
  575SOL     OW 2940   2.014   1.579   4.793  0.5004  0.2682  0.1118
  575SOL    HW1 2941   1.999   1.673   4.802 -1.5862  0.1467 -1.2346
  575SOL    HW2 2942   1.938   1.548   4.742  1.0700 -2.1560  0.6208
  576SOL     OW 2943   1.637   0.282   4.121 -0.2324 -0.4284 -0.1939
  576SOL    HW1 2944   1.642   0.226   4.043 -1.0414 -1.3460  0.4035
  576SOL    HW2 2945   1.557   0.333   4.109 -0.7963 -1.1636  0.4253
  577SOL     OW 2946   0.594   1.248   5.281  0.1710  0.8049  0.2648
  577SOL    HW1 2947   0.573   1.330   5.325 -2.8131  0.0704  0.4481
  577SOL    HW2 2948   0.579   1.181   5.348 -0.3064 -0.0664 -0.6840
  578SOL     OW 2949   1.172   0.894   5.366 -0.0754  0.8437  0.1176
  578SOL    HW1 2950   1.133   0.808   5.349 -0.2379  0.5561  1.8043
  578SOL    HW2 2951   1.176   0.935   5.279 -0.8797 -0.4765 -0.5918
  579SOL     OW 2952   1.738   0.702   4.866  0.3523 -0.3068 -0.0874
  579SOL    HW1 2953   1.778   0.671   4.948  1.0025  0.4011 -0.1263
  579SOL    HW2 2954   1.645   0.710   4.886  0.2193 -1.8069  0.0654
  580SOL     OW 2955   1.050   0.657   5.251  0.2433 -0.2641 -0.3137
  580SOL    HW1 2956   1.011   0.570   5.255  0.3073 -0.3761 -1.5651
  580SOL    HW2 2957   1.091   0.661   5.165 -1.5578  1.7473 -1.1840
  581SOL     OW 2958   0.389   0.634   5.355  0.4522  0.0814  0.5757
  581SOL    HW1 2959   0.462   0.600   5.407  0.3013 -0.3989  0.4819
  581SOL    HW2 2960   0.381   0.726   5.381 -1.2483 -0.7137  3.3361
  582SOL     OW 2961   0.895   1.055   4.692 -0.1002 -0.3240  0.3584
  582SOL    HW1 2962   0.839   1.130   4.672 -1.6009 -2.0159 -2.5986
  582SOL    HW2 2963   0.983   1.083   4.669 -0.6517  0.5376 -0.7873
  583SOL     OW 2964   1.633   0.896   4.508 -0.4232 -0.1197 -0.3757
  583SOL    HW1 2965   1.582   0.896   4.428 -1.1439  0.4226  0.0698
  583SOL    HW2 2966   1.568   0.902   4.578  0.2606  1.1051  0.1845
  584SOL     OW 2967   1.209   0.581   3.997  0.5363  0.2357  0.5191
  584SOL    HW1 2968   1.128   0.564   4.046  0.6666 -1.8434  0.1113
  584SOL    HW2 2969   1.265   0.506   4.016  1.4285  0.4430 -1.0776
  585SOL     OW 2970   0.246   0.141   5.115 -0.0657 -0.5723  0.6760
  585SOL    HW1 2971   0.198   0.223   5.106  2.2158  0.8214  0.3384
  585SOL    HW2 2972   0.263   0.132   5.209  0.5560 -0.1032  0.6125
  586SOL     OW 2973   0.565   1.130   4.983 -0.2267  0.2858 -0.5544
  586SOL    HW1 2974   0.555   1.225   4.988  0.8875  0.3977 -0.2774
  586SOL    HW2 2975   0.642   1.111   5.036 -0.9814 -0.8805  0.1699
  587SOL     OW 2976   0.552   0.843   4.882  0.0484  0.3293 -0.3222
  587SOL    HW1 2977   0.547   0.936   4.903  0.9537  0.6337 -1.3376
  587SOL    HW2 2978   0.617   0.838   4.811 -0.8875 -0.9175 -1.1415
  588SOL     OW 2979   1.663   0.783   5.714  0.3912  0.1693  0.3173
  588SOL    HW1 2980   1.570   0.801   5.727  0.5023  0.7454  0.3347
  588SOL    HW2 2981   1.667   0.734   5.632  0.1603  0.9919 -0.1882
  589SOL     OW 2982   0.075   0.057   4.235 -0.1631 -0.2715 -0.5381
  589SOL    HW1 2983   0.104   0.093   4.319  0.5711 -0.0168 -0.8856
  589SOL    HW2 2984   0.002  -0.000   4.257 -0.3856  0.2870  0.1984
  590SOL     OW 2985   1.183   0.984   4.637 -0.2328  0.2186  0.3465
  590SOL    HW1 2986   1.179   0.999   4.732 -1.0946 -0.3629  0.4115
  590SOL    HW2 2987   1.276   0.996   4.615 -0.0527  0.5221  1.2330
  591SOL     OW 2988   1.064   1.851   5.123  0.6782  0.0941 -0.4679
  591SOL    HW1 2989   1.116   1.812   5.193  1.6526 -1.8806 -2.1872
  591SOL    HW2 2990   1.022   1.776   5.080  0.7852  1.1278 -2.5083
  592SOL     OW 2991   1.950   1.436   5.285 -0.3168 -0.1043 -0.3900
  592SOL    HW1 2992   1.892   1.511   5.269  0.2831  0.3564 -0.4430
  592SOL    HW2 2993   2.004   1.463   5.359 -2.3375 -1.8017  1.8594
  593SOL     OW 2994   0.959   0.983   5.195 -0.4655 -0.3167  0.0287
  593SOL    HW1 2995   0.972   0.900   5.242 -0.3146  0.5034  1.5203
  593SOL    HW2 2996   0.976   0.961   5.103  0.4695 -1.7473  0.4904
  594SOL     OW 2997   1.715   0.125   3.880  0.0441 -0.1613  0.1328
  594SOL    HW1 2998   1.675   0.056   3.827  2.7632 -0.7367 -1.3691
  594SOL    HW2 2999   1.789   0.155   3.827  0.6251  1.9654  2.0079
  595SOL     OW 3000   1.323   0.684   3.787  0.2270  0.0449 -0.2147
  595SOL    HW1 3001   1.284   0.654   3.869  1.6895 -1.4607 -0.0131
  595SOL    HW2 3002   1.410   0.644   3.786  0.7621  1.1512 -1.8643
  596SOL     OW 3003   1.039   1.804   4.401  0.1404 -0.0770  0.0250
  596SOL    HW1 3004   0.967   1.770   4.348 -1.4715  1.8822  0.7939
  596SOL    HW2 3005   1.091   1.857   4.341  0.0414 -0.2692 -0.2312
  597SOL     OW 3006   0.272   0.979   4.412 -0.0673  0.2900 -0.2774
  597SOL    HW1 3007   0.356   0.939   4.436  0.0888  0.6232 -0.2628
  597SOL    HW2 3008   0.233   0.916   4.351  0.6456  0.5995 -1.0690
  598SOL     OW 3009   0.731   0.818   4.688  0.1453 -0.0934 -0.3197
  598SOL    HW1 3010   0.768   0.902   4.663 -1.4869  0.1605 -2.1851
  598SOL    HW2 3011   0.806   0.760   4.699  1.2177  1.2079 -0.5577
  599SOL     OW 3012   1.217   0.403   5.507 -0.2602 -0.4518  0.5165
  599SOL    HW1 3013   1.251   0.371   5.591 -2.6743 -1.6093  1.1634
  599SOL    HW2 3014   1.281   0.467   5.477  2.0477 -1.9877  1.8965
  600SOL     OW 3015   1.762   0.339   5.177  0.3822 -0.0958 -0.2386
  600SOL    HW1 3016   1.669   0.363   5.168  0.2564  0.7753  2.4625
  600SOL    HW2 3017   1.798   0.406   5.235  1.7881 -2.4170  1.7510
  601SOL     OW 3018   8.723   1.702   4.432 -0.3025 -0.2216 -0.0436
  601SOL    HW1 3019   8.633   1.687   4.400 -0.8127 -0.4280  1.4111
  601SOL    HW2 3020   8.718   1.684   4.526  1.4727 -1.1299 -0.0835
  602SOL     OW 3021   0.049   1.555   4.697  0.0737  0.1551  0.1229
  602SOL    HW1 3022   0.046   1.644   4.730 -0.2326  0.1165  0.1989
  602SOL    HW2 3023   0.120   1.513   4.746 -1.2447 -0.2968  1.7239
  603SOL     OW 3024   0.245   1.568   4.889 -0.3411 -0.0573 -0.0171
  603SOL    HW1 3025   0.170   1.556   4.947 -1.0040  2.3244 -0.3012
  603SOL    HW2 3026   0.265   1.661   4.893  0.4533 -0.0388 -2.5760
  604SOL     OW 3027   1.001   1.322   4.735 -0.2878 -0.0962 -0.3799
  604SOL    HW1 3028   1.055   1.335   4.813  1.1411  0.5145 -1.4314
  604SOL    HW2 3029   0.911   1.328   4.767  0.2466 -1.0839  1.4132
  605SOL     OW 3030   8.766   0.788   4.384  0.4195 -0.1072 -0.2815
  605SOL    HW1 3031   8.833   0.798   4.317 -0.1707  0.5104 -0.8060
  605SOL    HW2 3032   8.802   0.831   4.462  1.4934 -1.6430  0.1045
  606SOL     OW 3033   0.505   0.427   5.152 -0.1712  0.3447  0.5027
  606SOL    HW1 3034   0.442   0.439   5.081 -0.6368 -3.4516  0.0803
  606SOL    HW2 3035   0.467   0.473   5.227 -1.6078  1.1236 -0.6547
  607SOL     OW 3036   1.474   0.952   4.734 -0.7010  0.4203  0.4366
  607SOL    HW1 3037   1.505   0.885   4.795  0.2728  1.5015  1.1935
  607SOL    HW2 3038   1.452   1.026   4.790  0.9445  1.7132 -0.5407
  608SOL     OW 3039   1.147   0.646   4.351 -0.5319  0.0057 -0.0544
  608SOL    HW1 3040   1.086   0.712   4.384 -0.5653  0.6763 -1.3852
  608SOL    HW2 3041   1.100   0.603   4.280  0.6084  0.7338 -1.2988
  609SOL     OW 3042   1.551   0.339   4.850  0.2091 -0.2222 -0.9387
  609SOL    HW1 3043   1.540   0.408   4.915 -2.1012 -0.6616 -0.7841
  609SOL    HW2 3044   1.618   0.282   4.886 -1.5258 -0.8670  1.4896
  610SOL     OW 3045   0.007   2.015   5.545  0.5311 -0.1207 -0.3777
  610SOL    HW1 3046   0.050   1.964   5.476 -0.6354 -0.8406 -0.6089
  610SOL    HW2 3047  -0.032   1.949   5.602  0.1503  0.4998  0.0821
  611SOL     OW 3048   0.835   0.335   4.862 -0.3076  0.5110  0.7764
  611SOL    HW1 3049   0.745   0.364   4.854 -0.2070  0.3864 -1.3959
  611SOL    HW2 3050   0.838   0.286   4.945 -2.3306  0.0958  0.6424
  612SOL     OW 3051   1.036   1.325   5.009 -0.0543  0.0347  0.5413
  612SOL    HW1 3052   0.992   1.292   5.087 -1.0916  2.0804  0.8987
  612SOL    HW2 3053   1.121   1.357   5.040  0.4177 -1.0529  0.4185
  613SOL     OW 3054   0.441   0.859   4.019  0.4830  0.2069  0.2011
  613SOL    HW1 3055   0.515   0.870   4.080  0.5766 -0.1917  0.1634
  613SOL    HW2 3056   0.381   0.801   4.065 -0.1785  1.1525  0.5551
  614SOL     OW 3057   0.464   0.921   5.181  0.2672 -0.1956  0.1726
  614SOL    HW1 3058   0.477   0.994   5.120  0.9195  0.4570  1.0665
  614SOL    HW2 3059   0.404   0.863   5.136 -1.3035  1.5190 -0.0629
  615SOL     OW 3060   1.482   1.295   4.212 -0.2411  0.2196  0.3170
  615SOL    HW1 3061   1.487   1.384   4.245 -4.5291  0.9734 -0.5325
  615SOL    HW2 3062   1.436   1.302   4.129 -3.5729 -2.9193  1.6065
  616SOL     OW 3063   1.561   0.751   4.111 -0.0074  0.1263  0.2285
  616SOL    HW1 3064   1.619   0.754   4.035 -1.8611 -3.1061 -1.5152
  616SOL    HW2 3065   1.558   0.658   4.135 -3.0785  0.4165  1.3273
  617SOL     OW 3066   2.326   1.436   5.489 -0.1069 -0.3778 -0.1136
  617SOL    HW1 3067   2.235   1.443   5.517 -0.4334 -0.3125 -1.1668
  617SOL    HW2 3068   2.365   1.520   5.513 -0.6982  0.1452 -0.9570
  618SOL     OW 3069   1.673   1.790   4.878 -0.1061 -0.3571  0.3142
  618SOL    HW1 3070   1.661   1.835   4.962  1.1048 -0.6751  0.6652
  618SOL    HW2 3071   1.635   1.703   4.892 -2.0379  0.3462 -0.2244
  619SOL     OW 3072   0.281   1.093   4.829  0.2813  0.3365  0.1082
  619SOL    HW1 3073   0.372   1.080   4.855  0.7327  0.3801 -1.4114
  619SOL    HW2 3074   0.285   1.132   4.742 -1.2006 -1.1577 -0.6807
  620SOL     OW 3075   0.862   1.244   5.203 -0.2418 -0.1341  0.1376
  620SOL    HW1 3076   0.767   1.251   5.208 -0.2532 -0.4584  0.4051
  620SOL    HW2 3077   0.881   1.155   5.232  0.1857  0.1270  0.6844
  621SOL     OW 3078   1.833   0.039   4.128  0.9366  0.1419 -0.3402
  621SOL    HW1 3079   1.781   0.044   4.048  0.1119  0.5915  0.2112
  621SOL    HW2 3080   1.922   0.023   4.098  0.6610  0.4677 -1.3597
  622SOL     OW 3081   1.372   1.489   3.989 -0.2825  0.3099 -0.3764
  622SOL    HW1 3082   1.359   1.579   3.960  1.3099  0.4842 -0.6519
  622SOL    HW2 3083   1.309   1.477   4.060 -1.2720  1.2678 -1.0697
  623SOL     OW 3084   0.372   2.285   5.751  0.3218 -0.0950  0.7556
  623SOL    HW1 3085   0.304   2.221   5.770  1.5448 -1.5968  0.2244
  623SOL    HW2 3086   0.370   2.344   5.827 -0.2371 -1.2835  1.7013
  624SOL     OW 3087   1.269   1.097   3.976  0.4146 -0.4018 -0.2491
  624SOL    HW1 3088   1.276   1.105   4.071  1.3231  0.3261 -0.3670
  624SOL    HW2 3089   1.191   1.042   3.962 -0.3102  0.3065  0.8768
  625SOL     OW 3090   1.225   0.857   5.031  0.0707 -0.1096  0.0733
  625SOL    HW1 3091   1.159   0.798   4.994 -1.9578  0.6041  2.2730
  625SOL    HW2 3092   1.213   0.939   4.983  0.4674 -0.4352 -0.5956
  626SOL     OW 3093   0.426   1.253   3.867  0.4467 -0.5949  0.0640
  626SOL    HW1 3094   0.378   1.174   3.842 -0.1495  0.2127 -1.4973
  626SOL    HW2 3095   0.368   1.325   3.842  1.4874  0.3602  0.3161
  627SOL     OW 3096   2.035   1.754   5.148  0.4009  0.5504 -0.3762
  627SOL    HW1 3097   1.984   1.759   5.229 -0.6281  0.1725 -0.9833
  627SOL    HW2 3098   2.022   1.839   5.106 -1.0929 -0.1037 -1.3092
  628SOL     OW 3099   2.017   0.010   4.651 -0.1644  0.4031  0.0231
  628SOL    HW1 3100   1.975   0.095   4.668  0.5949  1.0348 -1.1235
  628SOL    HW2 3101   2.095   0.032   4.601  1.1549 -0.8216  1.4524
  629SOL     OW 3102   0.185   0.171   4.500 -0.1537 -0.0056 -0.3710
  629SOL    HW1 3103   0.173   0.266   4.499 -0.2580  0.0598  1.6034
  629SOL    HW2 3104   0.269   0.159   4.546 -1.1850 -0.8696  1.4051
  630SOL     OW 3105   0.920   1.405   3.534  0.1885 -0.4213 -0.2805
  630SOL    HW1 3106   0.914   1.376   3.443  1.7128  0.1740 -0.5948
  630SOL    HW2 3107   0.914   1.325   3.585  0.0850 -0.8432 -0.9369
  631SOL     OW 3108   1.168   1.108   4.905 -0.1224  0.1208  0.3167
  631SOL    HW1 3109   1.113   1.179   4.937 -0.7434  0.0994 -0.6916
  631SOL    HW2 3110   1.255   1.147   4.895 -0.5913  0.9206 -0.8384
  632SOL     OW 3111   1.017   0.896   4.404 -0.4703 -0.1137  0.1353
  632SOL    HW1 3112   1.005   0.916   4.496  1.0565  0.3283  0.2714
  632SOL    HW2 3113   1.097   0.944   4.379 -1.7254  1.1282 -1.8242
  633SOL     OW 3114   1.317   1.291   3.451  0.3195 -0.2747  0.0206
  633SOL    HW1 3115   1.328   1.355   3.381  0.0149 -0.5242 -0.2576
  633SOL    HW2 3116   1.234   1.314   3.492  0.3464 -0.3169  0.0986
  634SOL     OW 3117   0.601   1.459   5.562 -0.9058 -0.3430 -0.2477
  634SOL    HW1 3118   0.531   1.513   5.526 -0.7339 -0.0716 -0.1808
  634SOL    HW2 3119   0.558   1.379   5.592 -1.0119 -0.7431 -1.3844
  635SOL     OW 3120   1.730   1.411   4.432 -0.3261  0.2215  0.0026
  635SOL    HW1 3121   1.729   1.316   4.424  1.2752  0.0747  1.1352
  635SOL    HW2 3122   1.642   1.433   4.462 -0.7769 -0.8604 -0.4665
  636SOL     OW 3123   1.117   1.289   4.468  0.1758  0.2530  0.3928
  636SOL    HW1 3124   1.084   1.308   4.556  0.6082  0.8649  0.4298
  636SOL    HW2 3125   1.145   1.374   4.434  1.2474 -0.1683  0.1701
  637SOL     OW 3126   1.011   8.780   4.360  0.0609  0.1864  0.4675
  637SOL    HW1 3127   1.067   8.799   4.285 -2.4522 -0.6064 -1.7321
  637SOL    HW2 3128   1.044   8.697   4.394  0.8716  0.2581 -0.1205
  638SOL     OW 3129   0.314   1.546   4.152  0.4486  0.1149  0.4502
  638SOL    HW1 3130   0.247   1.479   4.138 -0.0019  0.5828  0.3063
  638SOL    HW2 3131   0.283   1.595   4.228  1.3283 -0.5043  1.2317
  639SOL     OW 3132   2.032   0.205   5.164  0.5638 -0.4120  0.3005
  639SOL    HW1 3133   2.016   0.277   5.224  0.8617 -1.3351  1.5273
  639SOL    HW2 3134   1.954   0.203   5.108 -1.0857 -1.2642  2.4730
  640SOL     OW 3135   0.122   1.642   4.332 -0.2234  0.2478  0.2424
  640SOL    HW1 3136   0.173   1.650   4.412  0.0711 -0.9774  0.1960
  640SOL    HW2 3137   0.031   1.647   4.361 -0.1514 -1.4120  0.8413
  641SOL     OW 3138   0.535   1.046   5.508 -0.2095 -0.0506  0.0140
  641SOL    HW1 3139   0.454   0.995   5.511  0.1301 -0.6084 -0.2100
  641SOL    HW2 3140   0.601   0.985   5.475  0.0395  0.7472 -1.0097
  642SOL     OW 3141   0.928   8.824   5.039  0.2799 -0.6947  0.8016
  642SOL    HW1 3142   0.857   8.779   4.993  1.3875 -0.7603 -0.9368
  642SOL    HW2 3143   0.885   8.899   5.081 -0.9103 -1.0410  0.2703
  643SOL     OW 3144   8.590   0.477   3.411 -0.2236 -0.0042 -0.3161
  643SOL    HW1 3145   8.675   0.444   3.440 -0.7251 -1.5085 -0.4698
  643SOL    HW2 3146   8.583   0.563   3.451  1.6120  0.3962 -0.7580
  644SOL     OW 3147   1.898   1.195   4.849  0.1431  0.1973  0.1757
  644SOL    HW1 3148   1.991   1.173   4.837 -0.4337 -1.1720 -2.4458
  644SOL    HW2 3149   1.866   1.129   4.911  0.5704 -0.3913 -0.2140
  645SOL     OW 3150   8.450   0.344   3.781 -0.4479 -0.0452  0.1591
  645SOL    HW1 3151   8.383   0.327   3.714 -1.1625 -0.6529  1.0057
  645SOL    HW2 3152   8.520   0.283   3.760  0.7027  1.7811 -1.8017
  646SOL     OW 3153   1.474   1.107   3.785  0.0039 -0.2858  0.3389
  646SOL    HW1 3154   1.386   1.114   3.823  0.2433  0.1211  0.8415
  646SOL    HW2 3155   1.521   1.182   3.821  0.4447 -0.2793 -0.2384
  647SOL     OW 3156   1.215   0.619   4.749 -0.0520 -0.3126 -0.0084
  647SOL    HW1 3157   1.121   0.633   4.739 -0.4379 -2.6042 -0.0055
  647SOL    HW2 3158   1.250   0.621   4.660 -0.0789  0.4918 -0.0122
  648SOL     OW 3159   1.612   1.836   4.616  0.0012  0.6486 -0.1923
  648SOL    HW1 3160   1.632   1.806   4.705 -1.1410 -1.3509 -0.5481
  648SOL    HW2 3161   1.516   1.836   4.612 -0.0477  3.1337 -0.6971
  649SOL     OW 3162   1.137   0.139   5.015  0.5473  0.4106 -0.3950
  649SOL    HW1 3163   1.220   0.099   4.989  0.4739  1.0892 -1.7024
  649SOL    HW2 3164   1.072   0.070   5.001  0.6810  0.3699 -0.8218
  650SOL     OW 3165   1.406   1.340   5.233 -0.1780  0.0305  0.1711
  650SOL    HW1 3166   1.358   1.402   5.178  2.5945  1.1097 -1.2520
  650SOL    HW2 3167   1.424   1.388   5.314 -0.3240  0.1367  0.1396
  651SOL     OW 3168   0.442   1.874   5.354  0.0794 -0.6946 -0.1647
  651SOL    HW1 3169   0.458   1.840   5.442 -0.7219 -0.3206  0.1381
  651SOL    HW2 3170   0.499   1.950   5.347 -1.5812  0.7309  0.9634
  652SOL     OW 3171   1.944   0.838   4.730 -0.5040 -0.1003  0.0025
  652SOL    HW1 3172   1.899   0.823   4.647 -0.6197 -2.4134  0.4177
  652SOL    HW2 3173   1.875   0.835   4.796 -0.2860  0.7664  0.2906
  653SOL     OW 3174   1.243   0.299   4.285  0.1002 -0.0949 -0.2439
  653SOL    HW1 3175   1.207   0.212   4.302  2.0878 -0.4127  3.4473
  653SOL    HW2 3176   1.178   0.359   4.322 -0.9795  0.0692 -2.2464
  654SOL     OW 3177   0.738   1.244   4.378 -0.1179 -0.3203 -0.2557
  654SOL    HW1 3178   0.651   1.284   4.376  0.6306  1.3792 -0.3711
  654SOL    HW2 3179   0.778   1.277   4.459 -0.4962 -3.2215  1.2355
  655SOL     OW 3180   2.026   0.427   5.312 -0.2040  0.5186  0.3609
  655SOL    HW1 3181   2.029   0.522   5.299 -1.1798  0.4405 -0.5472
  655SOL    HW2 3182   2.040   0.415   5.406 -0.1304  1.5589  0.4933
  656SOL     OW 3183   1.905   0.976   5.020  0.2279  0.0838  0.3972
  656SOL    HW1 3184   1.908   0.908   5.087  1.7712 -0.0117  0.2803
  656SOL    HW2 3185   1.997   0.992   4.998 -0.2108  0.5551 -1.2644
  657SOL     OW 3186   0.698   1.351   4.056  0.0188 -0.0869  0.0675
  657SOL    HW1 3187   0.661   1.264   4.074 -2.1011  0.8426  0.5681
  657SOL    HW2 3188   0.792   1.340   4.067 -0.2523 -2.1682  0.7764
  658SOL     OW 3189   0.578   1.663   4.578  0.1953  0.5205  0.1705
  658SOL    HW1 3190   0.591   1.736   4.639  1.8358  2.1610 -1.9428
  658SOL    HW2 3191   0.541   1.704   4.500 -1.3478 -1.4161 -0.1937
  659SOL     OW 3192   0.334   1.226   4.331  0.0023 -0.1063  0.1509
  659SOL    HW1 3193   0.391   1.267   4.396  0.4307 -1.0966  0.4275
  659SOL    HW2 3194   0.317   1.138   4.366  0.8181 -0.9176 -1.3665
  660SOL     OW 3195   1.429   0.879   4.324 -0.2956 -0.5806 -0.4172
  660SOL    HW1 3196   1.364   0.948   4.309  1.3861  1.0974 -0.3675
  660SOL    HW2 3197   1.442   0.840   4.238 -1.1607 -0.7598 -0.4786
  661SOL     OW 3198   1.885   1.623   4.520  0.2173 -0.1010  0.3156
  661SOL    HW1 3199   1.836   1.544   4.500 -0.6156  1.1203 -3.0614
  661SOL    HW2 3200   1.818   1.690   4.536  0.8730  0.4081  1.0326
  662SOL     OW 3201   0.026   1.284   5.571  0.1804 -0.3807  0.0369
  662SOL    HW1 3202   0.008   1.278   5.477 -0.7648  0.7427  0.1254
  662SOL    HW2 3203  -0.051   1.245   5.612  0.6458 -0.9819  0.3636
  663SOL     OW 3204   0.103   1.927   4.282 -0.5719 -0.2650 -0.0884
  663SOL    HW1 3205   0.097   1.831   4.285 -0.5222 -0.2488  0.7863
  663SOL    HW2 3206   0.196   1.946   4.287 -0.5783 -0.1726 -0.3157
  664SOL     OW 3207   0.998   1.387   5.412  0.0749  0.6003  0.1495
  664SOL    HW1 3208   0.952   1.375   5.329  1.1726  0.2448 -0.4100
  664SOL    HW2 3209   1.086   1.415   5.388  0.5619  0.0117  1.1825
  665SOL     OW 3210   1.857   0.299   4.888 -0.2825 -0.2338  0.0349
  665SOL    HW1 3211   1.815   0.339   4.963  1.3794  0.7307  0.5021
  665SOL    HW2 3212   1.858   0.367   4.821  0.1920 -0.3603 -0.0942
  666SOL     OW 3213   0.582   0.364   4.549  0.1693  0.0548  0.4483
  666SOL    HW1 3214   0.558   0.401   4.464  1.2107  0.5939  0.3660
  666SOL    HW2 3215   0.524   0.289   4.560 -0.4324  0.3714 -0.4335
  667SOL     OW 3216   2.256   1.571   5.116  0.0516  0.0902  0.3725
  667SOL    HW1 3217   2.188   1.635   5.137  0.2050  0.5872 -0.5899
  667SOL    HW2 3218   2.221   1.523   5.040  1.2823  1.1994 -0.9504
  668SOL     OW 3219   0.575   0.403   4.829 -0.0702 -0.0462  0.6283
  668SOL    HW1 3220   0.564   0.382   4.737 -0.6397  0.8141  0.4924
  668SOL    HW2 3221   0.488   0.428   4.860  0.3410  0.9111  1.0698
  669SOL     OW 3222   0.805   1.772   4.251 -0.8228  0.2872 -0.1468
  669SOL    HW1 3223   0.770   1.830   4.318 -0.4858  0.9259 -0.5124
  669SOL    HW2 3224   0.741   1.700   4.245 -1.1055  0.4811  0.4952
  670SOL     OW 3225   1.508   0.420   5.139  0.2336 -0.0490  0.5559
  670SOL    HW1 3226   1.498   0.503   5.184  1.0684 -0.5181  1.6610
  670SOL    HW2 3227   1.452   0.359   5.187 -0.2502 -0.1714 -0.1484
  671SOL     OW 3228   1.155   8.771   4.797  0.0648 -0.0657  0.3538
  671SOL    HW1 3229   1.123   8.684   4.822  0.6475 -0.1771  0.7216
  671SOL    HW2 3230   1.079   8.814   4.758 -0.2083 -0.7686  0.1011
  672SOL     OW 3231   0.957   1.261   4.156 -0.7695 -0.2640 -0.2941
  672SOL    HW1 3232   0.938   1.172   4.127  2.0238 -1.5365  1.3381
  672SOL    HW2 3233   0.910   1.269   4.239  0.8002 -1.1669  0.7343
  673SOL     OW 3234   0.984   1.615   5.044  0.7075  0.1228  0.1379
  673SOL    HW1 3235   0.893   1.628   5.070  0.6030 -2.6272  1.5156
  673SOL    HW2 3236   0.984   1.532   4.997  2.4674  0.1697 -0.0144
  674SOL     OW 3237   0.961   0.031   3.978  0.2999  0.2382  0.0562
  674SOL    HW1 3238   0.932   0.119   3.951 -1.2081 -0.6640 -1.4876
  674SOL    HW2 3239   0.905   0.009   4.052  0.2012  0.3224  0.0074
  675SOL     OW 3240   1.634   0.044   4.576 -0.3338  0.1191  0.0698
  675SOL    HW1 3241   1.540   0.062   4.577  0.1496  3.6680  2.0070
  675SOL    HW2 3242   1.659   0.041   4.669  1.4231 -1.0669 -0.3838
  676SOL     OW 3243   1.843   0.510   4.703  0.1813 -0.4893  0.1116
  676SOL    HW1 3244   1.848   0.560   4.622  0.1582 -1.9586 -0.8484
  676SOL    HW2 3245   1.783   0.559   4.758 -1.1065 -0.2644 -1.4028
  677SOL     OW 3246   8.737   1.172   4.340 -0.0371  0.8169  0.7010
  677SOL    HW1 3247   8.803   1.124   4.290 -0.6056  0.3565  0.3724
  677SOL    HW2 3248   8.671   1.196   4.275 -1.0708 -0.2925  1.3056
  678SOL     OW 3249   0.613   1.589   4.204 -0.2060  0.0864  0.5179
  678SOL    HW1 3250   0.520   1.569   4.212 -0.1524 -0.1990  0.4213
  678SOL    HW2 3251   0.646   1.527   4.138  0.5721 -1.4873  2.3072
  679SOL     OW 3252   0.820   0.586   5.699 -0.1206 -0.4346  0.1053
  679SOL    HW1 3253   0.833   0.510   5.756 -0.1136 -1.8109 -1.6512
  679SOL    HW2 3254   0.908   0.607   5.667  0.4384  2.4179  2.9890
  680SOL     OW 3255   0.366   0.560   7.049 -0.0483 -0.7408 -0.3281
  680SOL    HW1 3256   0.352   0.622   7.120  0.0924  0.2824 -1.1597
  680SOL    HW2 3257   0.376   0.615   6.971 -0.4699 -1.8357 -1.1844
  681SOL     OW 3258   8.676   0.350   6.192  0.4117  0.2737  0.1093
  681SOL    HW1 3259   8.693   0.256   6.182 -0.7219  0.1269 -0.6620
  681SOL    HW2 3260   8.707   0.371   6.280  4.3039  0.0346 -1.0394
  682SOL     OW 3261   0.133   1.510   6.353  0.1040 -0.1480  0.4065
  682SOL    HW1 3262   0.090   1.549   6.277 -1.5120 -2.0927  0.2163
  682SOL    HW2 3263   0.222   1.493   6.325  0.1468  1.1421 -0.2898
  683SOL     OW 3264   2.326   1.578   6.740 -0.6423 -0.4736  0.6090
  683SOL    HW1 3265   2.274   1.533   6.673 -0.7780 -2.9755  2.2675
  683SOL    HW2 3266   2.415   1.546   6.726 -0.1727  0.9720  0.0876
  684SOL     OW 3267   1.522   0.803   6.427  0.4440 -0.2710  0.4441
  684SOL    HW1 3268   1.608   0.769   6.449  0.8932 -0.0637 -0.9113
  684SOL    HW2 3269   1.460   0.736   6.456  1.2341 -1.7007 -1.0632
  685SOL     OW 3270   1.375   0.654   6.054  0.3750 -0.0841 -0.4726
  685SOL    HW1 3271   1.469   0.638   6.064  0.6126  0.9986 -0.7920
  685SOL    HW2 3272   1.340   0.573   6.016  1.1942 -0.4651 -0.4280
  686SOL     OW 3273   0.347   1.209   6.458 -0.6931 -0.4623  0.0304
  686SOL    HW1 3274   0.319   1.163   6.379  2.9441 -0.3517 -1.5020
  686SOL    HW2 3275   0.407   1.277   6.427 -1.9189  2.0502  2.6560
  687SOL     OW 3276   0.551   0.720   7.540  0.2215 -0.5175 -0.3978
  687SOL    HW1 3277   0.502   0.638   7.532  2.1736 -1.7547 -0.3080
  687SOL    HW2 3278   0.532   0.767   7.458 -3.5593  0.5887  0.8758
  688SOL     OW 3279   0.948   1.144   6.208 -0.3226  0.0630  0.5798
  688SOL    HW1 3280   1.007   1.125   6.136 -0.2041  0.8205  0.4702
  688SOL    HW2 3281   0.891   1.213   6.175 -1.4828 -0.8576  0.5773
  689SOL     OW 3282   0.616   1.079   7.251  0.4396 -0.4658  0.1607
  689SOL    HW1 3283   0.584   1.169   7.248 -0.9842 -0.9493  0.3623
  689SOL    HW2 3284   0.615   1.051   7.159 -2.8705 -1.5146  0.4192
  690SOL     OW 3285   0.396   2.269   6.359  0.2749 -0.2776 -0.6912
  690SOL    HW1 3286   0.479   2.301   6.324  0.5174 -1.6809 -1.4541
  690SOL    HW2 3287   0.329   2.302   6.299  0.3653  0.1243 -0.5696
  691SOL     OW 3288   1.427   1.182   6.719  0.2430 -0.1188  0.1354
  691SOL    HW1 3289   1.430   1.276   6.700 -0.0803 -0.2280 -0.4703
  691SOL    HW2 3290   1.479   1.141   6.650  1.1363 -0.3265  0.9012
  692SOL     OW 3291   0.541   0.285   7.525 -0.2505 -0.0214  0.0418
  692SOL    HW1 3292   0.506   0.200   7.552  0.6885 -0.1755  0.8551
  692SOL    HW2 3293   0.621   0.295   7.577  0.6008  0.5580 -1.3302
  693SOL     OW 3294   1.616   1.028   6.567 -0.1677 -1.0831 -0.1102
  693SOL    HW1 3295   1.600   0.935   6.551 -1.1979 -1.0746  0.7613
  693SOL    HW2 3296   1.704   1.043   6.534  0.2763 -2.5273  0.3514
  694SOL     OW 3297   0.150   1.853   6.162  0.0485 -0.0272 -0.4010
  694SOL    HW1 3298   0.226   1.805   6.195  0.8106 -0.3283 -2.4481
  694SOL    HW2 3299   0.187   1.923   6.109 -1.1146  0.2032 -0.9332
  695SOL     OW 3300   1.309   1.132   7.241 -0.0497 -0.2430  0.2035
  695SOL    HW1 3301   1.338   1.147   7.151  0.4056  0.6843  0.4930
  695SOL    HW2 3302   1.317   1.037   7.253 -1.7043 -0.6313 -1.2578
  696SOL     OW 3303   0.566   2.389   6.166  0.3313  0.6933 -0.0354
  696SOL    HW1 3304   0.616   2.317   6.127 -2.6376 -1.4617 -0.2137
  696SOL    HW2 3305   0.496   2.406   6.103 -0.4672  2.0713  1.1686
  697SOL     OW 3306   0.610   1.338   6.335  0.5914 -0.0248 -0.6655
  697SOL    HW1 3307   0.630   1.250   6.368  0.4284 -0.1932 -1.0129
  697SOL    HW2 3308   0.673   1.352   6.265 -0.3726 -0.4945 -1.6578
  698SOL     OW 3309   0.089   2.050   6.975 -0.1336 -0.2781  0.1494
  698SOL    HW1 3310   0.059   2.076   7.062 -0.4062 -0.3658  0.0821
  698SOL    HW2 3311   0.125   1.962   6.987 -0.8664 -0.5979  0.0278
  699SOL     OW 3312   0.737   0.844   5.767  0.9010  0.1750 -0.4966
  699SOL    HW1 3313   0.769   0.871   5.681  1.8290 -1.2942 -0.6556
  699SOL    HW2 3314   0.772   0.755   5.778  1.4336  0.6154  1.7258
  700SOL     OW 3315   1.559   0.124   6.806 -0.1602 -0.7311 -0.3193
  700SOL    HW1 3316   1.518   0.209   6.823  0.6982 -0.5709  1.0351
  700SOL    HW2 3317   1.589   0.094   6.891  0.4839 -1.9254 -0.9422
  701SOL     OW 3318   0.222   0.827   6.140 -0.1617  0.5529  0.5403
  701SOL    HW1 3319   0.137   0.870   6.125 -1.5170 -1.6712  1.3759
  701SOL    HW2 3320   0.240   0.779   6.060  1.0640  2.1000 -0.1690
  702SOL     OW 3321   2.397   1.698   5.996 -0.1031 -0.1390  0.1438
  702SOL    HW1 3322   2.460   1.766   6.022 -0.0600 -1.4021  3.9721
  702SOL    HW2 3323   2.321   1.747   5.965  0.9955  1.5645 -0.0048
  703SOL     OW 3324   0.072   1.637   5.288  0.5830 -0.1080 -0.2500
  703SOL    HW1 3325   0.060   1.599   5.201 -2.7277 -1.1708  0.4958
  703SOL    HW2 3326   0.009   1.709   5.291 -0.1620 -0.7748  1.5407
  704SOL     OW 3327   2.106   0.723   6.262  0.7682 -0.2334  0.3100
  704SOL    HW1 3328   2.177   0.678   6.307  0.1755 -0.8336  0.6561
  704SOL    HW2 3329   2.045   0.747   6.332 -0.3031 -1.4275 -0.1740
  705SOL     OW 3330   1.496   1.441   5.986  0.0152  0.4301  0.0971
  705SOL    HW1 3331   1.502   1.499   6.062 -1.0086  0.0252  0.5079
  705SOL    HW2 3332   1.585   1.435   5.953  0.2191  1.8748  0.3202
  706SOL     OW 3333   0.467   0.244   7.238 -0.5420  0.0597  0.2103
  706SOL    HW1 3334   0.555   0.230   7.205 -0.8992 -0.8627 -0.3867
  706SOL    HW2 3335   0.479   0.274   7.328  0.4438  2.3985 -0.6227
  707SOL     OW 3336   0.582   1.527   6.027  0.4525 -0.3685  0.0483
  707SOL    HW1 3337   0.632   1.561   5.953 -0.1437  0.8508  0.1831
  707SOL    HW2 3338   0.620   1.441   6.044  0.5608 -0.7112 -1.7133
  708SOL     OW 3339   1.124   1.577   7.115 -0.1219  0.4837 -0.1930
  708SOL    HW1 3340   1.209   1.559   7.155 -0.9630  0.8648  1.8512
  708SOL    HW2 3341   1.108   1.502   7.057  0.6824 -0.5983  0.9464
  709SOL     OW 3342   1.168   8.767   6.167  0.5166  0.8156  0.3949
  709SOL    HW1 3343   1.213   8.804   6.243  0.7825  1.3827 -0.0335
  709SOL    HW2 3344   1.153   8.675   6.191  3.3279  0.1434 -0.0616
  710SOL     OW 3345   0.665   1.040   6.702 -0.6548 -0.0023 -0.0063
  710SOL    HW1 3346   0.743   1.007   6.658  0.6587  1.0655  1.3949
  710SOL    HW2 3347   0.604   0.967   6.701  1.0333 -1.4741  0.3956
  711SOL     OW 3348   1.772   1.056   5.540 -0.3591  0.1889 -0.1287
  711SOL    HW1 3349   1.738   0.982   5.490  0.8404 -0.6823  0.2988
  711SOL    HW2 3350   1.694   1.105   5.567 -1.1395 -0.5977 -0.8930
  712SOL     OW 3351   0.973   1.783   7.228  0.3231  0.3342 -0.2707
  712SOL    HW1 3352   0.895   1.788   7.173  1.4222  1.2230 -1.7857
  712SOL    HW2 3353   1.036   1.734   7.176  1.1053  0.4449  0.5512
  713SOL     OW 3354   0.744   0.181   7.194  0.3306  0.0714  0.2474
  713SOL    HW1 3355   0.789   0.234   7.260  1.7679 -0.2347 -0.4497
  713SOL    HW2 3356   0.728   0.097   7.237  0.1043  0.3038  0.6203
  714SOL     OW 3357   1.749   1.514   6.549  0.2928  0.3428  0.1275
  714SOL    HW1 3358   1.720   1.485   6.635  1.0273 -1.1894 -0.1024
  714SOL    HW2 3359   1.719   1.445   6.489 -0.8046  1.7178 -0.9689
  715SOL     OW 3360   2.212   1.463   6.527 -0.2593  0.3575  0.2492
  715SOL    HW1 3361   2.122   1.494   6.518 -0.8393 -1.0877  0.7734
  715SOL    HW2 3362   2.212   1.377   6.485  0.0957 -0.9854  2.7925
  716SOL     OW 3363   0.822   0.360   5.871  0.1607 -0.3479  0.2023
  716SOL    HW1 3364   0.801   0.385   5.962 -0.9623  0.5308 -0.2714
  716SOL    HW2 3365   0.900   0.305   5.879  2.4261  2.7856  1.3725
  717SOL     OW 3366   1.280   0.423   5.970 -0.5705  0.6739 -0.4241
  717SOL    HW1 3367   1.201   0.409   6.022  0.2146  0.4043  0.7392
  717SOL    HW2 3368   1.284   0.347   5.911 -0.1511 -0.3439  0.8752
  718SOL     OW 3369   1.735   1.512   5.659  0.1289 -0.0328  0.1860
  718SOL    HW1 3370   1.658   1.568   5.666 -0.6255 -0.9273 -0.6284
  718SOL    HW2 3371   1.705   1.426   5.686  0.2400 -0.8616 -2.0867
  719SOL     OW 3372   0.903   0.950   6.960  0.1215  0.1237 -0.0327
  719SOL    HW1 3373   0.826   0.962   6.904  0.0298  1.7923  0.4029
  719SOL    HW2 3374   0.881   0.874   7.014 -1.1382  0.4277 -0.0814
  720SOL     OW 3375   1.756   0.001   7.018  0.2078 -0.0780  0.5970
  720SOL    HW1 3376   1.790  -0.083   6.987 -0.2253  0.2463 -0.8212
  720SOL    HW2 3377   1.831   0.044   7.058  0.8336 -0.4756 -0.1227
  721SOL     OW 3378   1.363   1.186   6.967  0.5422 -0.3300  0.0347
  721SOL    HW1 3379   1.289   1.246   6.955  0.1302 -1.1828 -2.4053
  721SOL    HW2 3380   1.400   1.177   6.879  2.5545 -1.2051  0.9097
  722SOL     OW 3381   1.263   8.600   6.580  0.4463 -0.2665 -0.1268
  722SOL    HW1 3382   1.315   8.636   6.652  1.5564 -0.3266 -0.8733
  722SOL    HW2 3383   1.191   8.555   6.623 -0.7036  2.3219  0.8787
  723SOL     OW 3384   1.318   0.939   6.310  0.8255  0.9991  0.4524
  723SOL    HW1 3385   1.355   0.958   6.223  0.8136 -0.9114 -0.0185
  723SOL    HW2 3386   1.395   0.924   6.365  0.8423 -0.5507  0.0607
  724SOL     OW 3387   0.199   0.686   6.355  0.4175  0.1525 -0.0016
  724SOL    HW1 3388   0.196   0.743   6.279  0.1913  0.2512  0.0801
  724SOL    HW2 3389   0.108   0.678   6.383  0.1963 -1.6446 -1.0427
  725SOL     OW 3390   8.795   1.807   7.121  0.4567  0.0158  0.3816
  725SOL    HW1 3391   8.850   1.768   7.053  1.4719 -0.5551  1.5041
  725SOL    HW2 3392   8.728   1.855   7.072  2.3706  1.3930 -1.0515
  726SOL     OW 3393   1.022   0.672   5.541 -0.3852  0.1515  0.4820
  726SOL    HW1 3394   0.978   0.661   5.457  0.5681  0.3113 -0.0456
  726SOL    HW2 3395   1.085   0.599   5.545 -0.0834  0.4263  0.8418
  727SOL     OW 3396   1.936   0.834   7.408  0.5008  0.3971  0.3303
  727SOL    HW1 3397   1.877   0.791   7.470 -0.5747  0.7950 -0.3727
  727SOL    HW2 3398   1.951   0.921   7.444  1.2439  0.0579  0.8627
  728SOL     OW 3399   1.378   1.220   5.828 -0.3733 -0.1470 -0.3248
  728SOL    HW1 3400   1.405   1.283   5.895  2.8093  0.1185 -1.6993
  728SOL    HW2 3401   1.336   1.273   5.760  2.1706  0.5868 -1.4143
  729SOL     OW 3402   0.963   0.218   6.726  0.0069  0.1563  0.0504
  729SOL    HW1 3403   0.945   0.231   6.819 -0.7397  5.5328 -0.5335
  729SOL    HW2 3404   0.877   0.221   6.684  0.4691 -0.3386 -0.9830
  730SOL     OW 3405   0.936   1.505   6.276 -0.5532  0.0794 -0.4110
  730SOL    HW1 3406   0.921   1.460   6.360  0.0772  0.3774 -0.1344
  730SOL    HW2 3407   1.025   1.539   6.283 -0.4577  0.0095 -1.2533
  731SOL     OW 3408   0.752   2.007   6.209  0.6478 -0.5392 -0.0718
  731SOL    HW1 3409   0.765   2.099   6.186 -0.3116 -0.5895 -0.8752
  731SOL    HW2 3410   0.751   2.005   6.305  1.3434  0.1804 -0.0447
  732SOL     OW 3411   2.222   0.827   6.594 -0.5810  0.3245  0.4173
  732SOL    HW1 3412   2.251   0.761   6.532 -0.5872  0.6865  0.0225
  732SOL    HW2 3413   2.259   0.909   6.561 -0.0254  0.4242  1.2640
  733SOL     OW 3414   0.952   1.177   7.076  0.0985 -0.6630  0.6389
  733SOL    HW1 3415   0.951   1.144   7.166  0.1378 -0.8863  0.5590
  733SOL    HW2 3416   0.929   1.101   7.023  1.9162 -1.0197  0.3072
  734SOL     OW 3417   0.504   1.215   5.698  0.0100 -0.6282  0.1612
  734SOL    HW1 3418   0.477   1.179   5.783  0.3198  1.0338  1.0246
  734SOL    HW2 3419   0.508   1.140   5.640 -0.4270 -1.7969  1.5746
  735SOL     OW 3420   1.886   1.022   6.509 -0.2967 -1.1029 -0.0206
  735SOL    HW1 3421   1.882   1.016   6.414  0.8418 -1.7977 -0.0502
  735SOL    HW2 3422   1.932   1.104   6.526  1.6244 -2.0736 -0.1747
  736SOL     OW 3423   0.253   0.824   7.332 -0.2369 -0.0398 -0.3930
  736SOL    HW1 3424   0.254   0.912   7.295 -0.7394 -0.2000 -0.8011
  736SOL    HW2 3425   0.253   0.838   7.427 -1.9214  0.4589 -0.4312
  737SOL     OW 3426   1.279   1.565   6.170  0.0772  0.2377  0.1229
  737SOL    HW1 3427   1.333   1.544   6.246  0.8180  0.2915 -0.3792
  737SOL    HW2 3428   1.216   1.493   6.164 -1.2557  1.1843  1.9148
  738SOL     OW 3429   0.148   0.823   6.627 -0.3114 -0.0673 -0.1561
  738SOL    HW1 3430   0.180   0.911   6.605 -0.6557 -0.1157 -0.8636
  738SOL    HW2 3431   0.076   0.808   6.566  0.2605 -1.1628 -0.5761
  739SOL     OW 3432   1.719   1.278   6.151  0.2843 -0.6905 -0.0277
  739SOL    HW1 3433   1.725   1.373   6.157  0.4306 -0.7725  1.6408
  739SOL    HW2 3434   1.754   1.257   6.064  2.2983  0.6211  0.3988
  740SOL     OW 3435   0.314   2.116   6.081  0.0842  0.4250 -0.4083
  740SOL    HW1 3436   0.328   2.206   6.053 -0.0285  1.0046  1.3279
  740SOL    HW2 3437   0.401   2.086   6.109 -0.2094  0.6074  0.7169
  741SOL     OW 3438   1.555   0.365   5.823 -0.7315  0.0118  0.1754
  741SOL    HW1 3439   1.527   0.284   5.867 -0.1100 -0.2344  0.1299
  741SOL    HW2 3440   1.579   0.423   5.895 -1.6822  0.3539  0.2291
  742SOL     OW 3441   0.786   2.210   6.644  0.0409 -0.0169 -0.3355
  742SOL    HW1 3442   0.733   2.282   6.610 -0.8317  1.0759  2.9666
  742SOL    HW2 3443   0.873   2.248   6.655  0.7578 -0.8413 -2.6374
  743SOL     OW 3444   0.872   1.523   6.560  0.4369 -0.0240 -0.5905
  743SOL    HW1 3445   0.830   1.480   6.635 -1.0672  0.8389 -0.9011
  743SOL    HW2 3446   0.804   1.578   6.522  1.2848 -0.1050 -2.3554
  744SOL     OW 3447   0.657   0.673   6.467  0.5045  0.2179  0.2443
  744SOL    HW1 3448   0.640   0.695   6.558  1.1843  0.1707  0.3877
  744SOL    HW2 3449   0.682   0.580   6.468 -0.6251 -0.1089 -0.1403
  745SOL     OW 3450   1.915   0.123   7.427  0.5777 -0.8200 -0.4135
  745SOL    HW1 3451   1.864   0.204   7.426  0.2069 -1.0504 -0.9237
  745SOL    HW2 3452   1.960   0.122   7.343  2.2662 -0.1131  0.4422
  746SOL     OW 3453   0.581   0.077   5.691 -0.6429  0.1307  0.0972
  746SOL    HW1 3454   0.525   0.154   5.691 -1.6718 -0.5928 -0.2926
  746SOL    HW2 3455   0.652   0.098   5.629 -0.5780  0.9733  0.4420
  747SOL     OW 3456   0.843   0.319   7.401  0.4072  0.6270 -0.0114
  747SOL    HW1 3457   0.820   0.345   7.490  2.2167 -1.0702  1.0130
  747SOL    HW2 3458   0.930   0.280   7.408  0.4914  0.1830 -2.4858
  748SOL     OW 3459   0.424   1.541   6.403 -0.3689  0.2781 -0.0544
  748SOL    HW1 3460   0.498   1.481   6.394 -1.1651 -0.8989  0.9117
  748SOL    HW2 3461   0.434   1.579   6.490 -0.6851  0.3832 -0.0601
  749SOL     OW 3462   0.843   0.283   6.966 -0.0676 -0.0436  0.1180
  749SOL    HW1 3463   0.876   0.366   7.000  1.0926 -1.4297  2.6184
  749SOL    HW2 3464   0.818   0.233   7.043 -4.1632 -0.7990 -1.4240
  750SOL     OW 3465   0.759   1.340   6.122  0.2590 -0.1258 -0.3387
  750SOL    HW1 3466   0.824   1.409   6.138 -1.4396  1.6075 -0.4778
  750SOL    HW2 3467   0.752   1.335   6.027 -0.9094  0.8746 -0.3398
  751SOL     OW 3468   1.299   0.381   6.496 -0.4417 -0.8227 -0.4888
  751SOL    HW1 3469   1.363   0.331   6.444  0.1459 -0.5371 -0.0506
  751SOL    HW2 3470   1.216   0.334   6.483  0.1938 -2.2537  0.3517
  752SOL     OW 3471   0.469   0.293   6.041 -0.6841  0.7578 -0.0132
  752SOL    HW1 3472   0.385   0.328   6.073 -1.0501 -0.9867  1.0810
  752SOL    HW2 3473   0.480   0.210   6.088  0.1568 -0.5922 -2.3987
  753SOL     OW 3474   1.539   1.173   5.593 -0.1203 -0.0024 -0.1037
  753SOL    HW1 3475   1.501   1.175   5.681 -0.1458  0.2472 -0.1178
  753SOL    HW2 3476   1.466   1.149   5.536  0.4552 -2.8735  0.2084
  754SOL     OW 3477   0.756   8.706   5.810  0.1052  0.1214 -0.3964
  754SOL    HW1 3478   0.686   8.755   5.768  1.9824  1.5742 -2.0795
  754SOL    HW2 3479   0.793   8.767   5.874 -1.4357 -1.3836  2.0953
  755SOL     OW 3480   1.385   0.559   5.766  0.3904 -0.0462 -0.0063
  755SOL    HW1 3481   1.329   0.542   5.841 -0.4863 -0.3195 -0.7112
  755SOL    HW2 3482   1.434   0.478   5.754  0.3818 -0.0731  0.1396
  756SOL     OW 3483   0.863   0.616   6.706  0.6273 -0.4576  0.5556
  756SOL    HW1 3484   0.827   0.634   6.793  2.2514 -2.0043  1.6269
  756SOL    HW2 3485   0.827   0.531   6.682  3.0607 -1.8418  1.4692
  757SOL     OW 3486   1.352   1.671   6.439  0.0141  0.4321 -0.1439
  757SOL    HW1 3487   1.316   1.759   6.428  0.0484  0.6048  0.9452
  757SOL    HW2 3488   1.312   1.640   6.521 -0.6455 -0.8992 -0.9514
  758SOL     OW 3489   0.013   1.295   6.081 -0.4623  0.2930 -0.0464
  758SOL    HW1 3490  -0.011   1.388   6.088 -1.4874 -0.0116  0.6763
  758SOL    HW2 3491   0.043   1.272   6.169 -2.7213 -0.7173  0.5074
  759SOL     OW 3492   1.695   2.113   6.451 -0.7594  0.3274 -0.5969
  759SOL    HW1 3493   1.673   2.088   6.361 -0.1611  1.2840 -1.0338
  759SOL    HW2 3494   1.718   2.206   6.444 -0.0194  0.2303  0.4207
  760SOL     OW 3495   1.371   0.585   5.383 -0.1404 -0.0825 -0.2743
  760SOL    HW1 3496   1.393   0.621   5.297  1.9260 -0.1248  0.1828
  760SOL    HW2 3497   1.387   0.657   5.444 -2.0338  0.0950  0.0784
  761SOL     OW 3498   0.352   0.521   6.478  0.0626  0.1217  0.0655
  761SOL    HW1 3499   0.295   0.591   6.445  0.1029  1.3165  2.3440
  761SOL    HW2 3500   0.292   0.448   6.496 -0.7084  1.1034  1.7183
  762SOL     OW 3501   0.985   0.560   6.320 -1.0600  0.7046  0.2196
  762SOL    HW1 3502   1.061   0.609   6.290 -2.3255  2.5172 -0.1688
  762SOL    HW2 3503   1.010   0.527   6.407  0.3824  0.6850 -0.1843
  763SOL     OW 3504   1.041   0.333   6.042 -0.3032  0.4457  0.4607
  763SOL    HW1 3505   0.955   0.351   6.079  0.9373 -0.2688  4.1744
  763SOL    HW2 3506   1.037   0.240   6.018 -0.2797  0.0704  1.7956
  764SOL     OW 3507   1.059   8.504   6.203 -0.0708  0.0429  0.3468
  764SOL    HW1 3508   1.052   8.508   6.108  1.5839  1.0786  0.2168
  764SOL    HW2 3509   1.143   8.460   6.218 -1.4541 -2.4455  1.4124
  765SOL     OW 3510   1.568   1.299   6.421 -0.3741  0.4502  0.2835
  765SOL    HW1 3511   1.513   1.306   6.343 -0.4040  1.5277  0.3818
  765SOL    HW2 3512   1.575   1.205   6.438 -2.1512  0.2791  0.2410
  766SOL     OW 3513   1.416   0.785   6.727 -0.1064  0.2309  0.3947
  766SOL    HW1 3514   1.411   0.732   6.807 -2.3839  1.9454  1.5291
  766SOL    HW2 3515   1.380   0.729   6.659  1.7332 -1.2153  0.5466
  767SOL     OW 3516   1.473   0.988   6.057 -0.5367  0.1046  0.1750
  767SOL    HW1 3517   1.429   0.954   5.980  1.0183  2.2323 -1.7808
  767SOL    HW2 3518   1.564   1.000   6.029  0.4489 -0.4064  2.8165
  768SOL     OW 3519   0.840   1.618   5.902 -0.4554  0.0877  0.2819
  768SOL    HW1 3520   0.797   1.702   5.889 -1.3987 -0.5584 -0.9809
  768SOL    HW2 3521   0.903   1.612   5.831  0.0101 -0.0268  0.7032
  769SOL     OW 3522   1.821   1.035   6.254 -0.0642 -0.5036  0.5839
  769SOL    HW1 3523   1.760   0.976   6.210 -0.5474 -0.4734  1.1903
  769SOL    HW2 3524   1.796   1.122   6.225  1.7569 -0.6244 -1.6969
  770SOL     OW 3525   1.346   0.220   5.234  0.0305 -0.2722 -0.0318
  770SOL    HW1 3526   1.349   0.163   5.311  0.2806 -0.4144 -0.1489
  770SOL    HW2 3527   1.276   0.183   5.180 -0.6147  0.2254  0.4391
  771SOL     OW 3528   0.560   0.365   5.772  0.2296 -0.1621 -0.0728
  771SOL    HW1 3529   0.545   0.353   5.866 -0.9233  0.6471 -0.1363
  771SOL    HW2 3530   0.655   0.375   5.764  0.5511 -2.0554  0.7716
  772SOL     OW 3531   1.893   1.197   7.031 -0.1072  0.0789  0.2180
  772SOL    HW1 3532   1.802   1.178   7.011 -0.7613  0.3559  2.6771
  772SOL    HW2 3533   1.938   1.113   7.020 -1.4172 -1.0416  2.7366
  773SOL     OW 3534   0.896   1.787   6.734  0.0342  0.1009  0.4193
  773SOL    HW1 3535   0.824   1.791   6.672  0.3255 -1.2730 -0.0547
  773SOL    HW2 3536   0.860   1.823   6.815 -0.4494  1.5981 -0.4381
  774SOL     OW 3537   1.560   1.785   7.263 -0.1903 -0.1774  0.1184
  774SOL    HW1 3538   1.634   1.773   7.203  0.1963 -1.7816  0.8595
  774SOL    HW2 3539   1.600   1.790   7.350 -0.7184  2.4595  0.2836
  775SOL     OW 3540   0.840   1.198   6.506 -0.4603 -0.8090 -0.2424
  775SOL    HW1 3541   0.920   1.219   6.556 -0.1395  0.0005 -1.0551
  775SOL    HW2 3542   0.769   1.210   6.569 -0.0906  0.5302 -0.0331
  776SOL     OW 3543   1.755   1.315   6.743  0.1860 -0.4073 -0.4551
  776SOL    HW1 3544   1.748   1.227   6.778 -0.2290 -0.6206 -1.0640
  776SOL    HW2 3545   1.843   1.319   6.704  1.2036  0.2601  1.7110
  777SOL     OW 3546   0.910   8.676   6.586  0.2685 -0.0117  0.1359
  777SOL    HW1 3547   0.887   8.705   6.675 -0.6660  0.2569 -0.1882
  777SOL    HW2 3548   0.888   8.750   6.530  0.1693 -0.4547 -0.4136
  778SOL     OW 3549   0.875   0.715   7.411  0.1371  0.1474 -0.2755
  778SOL    HW1 3550   0.829   0.713   7.495  1.8531  1.2933  0.7564
  778SOL    HW2 3551   0.813   0.676   7.349 -1.0045 -1.1717  1.5815
  779SOL     OW 3552   1.206   0.689   6.260 -0.5254 -0.2776  0.0941
  779SOL    HW1 3553   1.265   0.673   6.186 -0.9751  0.8909 -0.5484
  779SOL    HW2 3554   1.227   0.778   6.289  0.1966 -0.9921  1.9150
  780SOL     OW 3555   0.629   0.951   6.987 -0.1773 -0.4790  0.0038
  780SOL    HW1 3556   0.566   0.965   6.917  1.0127  1.1501 -0.8141
  780SOL    HW2 3557   0.653   0.858   6.979 -0.5010 -0.4729 -1.3715
  781SOL     OW 3558   1.323   0.071   7.019 -0.1428  0.0272 -0.3485
  781SOL    HW1 3559   1.260   0.006   6.987 -0.8289  0.7502 -0.4969
  781SOL    HW2 3560   1.404   0.021   7.032  0.1417 -0.3785 -2.9961
  782SOL     OW 3561   0.291   1.524   7.124  0.0456 -0.7112  0.4563
  782SOL    HW1 3562   0.344   1.451   7.158 -0.6069 -1.0459  0.7839
  782SOL    HW2 3563   0.259   1.493   7.039  0.3159 -0.5355  0.2886
  783SOL     OW 3564   0.554   1.715   5.769  0.0746  0.2284 -0.2477
  783SOL    HW1 3565   0.481   1.678   5.820  0.5290 -0.4642 -0.0883
  783SOL    HW2 3566   0.576   1.647   5.706  0.0449  0.7702 -0.8465
  784SOL     OW 3567   0.836   0.798   6.301 -0.2099  0.3244 -0.1401
  784SOL    HW1 3568   0.890   0.736   6.253  1.1540  0.5586  1.0002
  784SOL    HW2 3569   0.773   0.744   6.349  0.3684 -0.1272  0.1219
  785SOL     OW 3570   1.546   1.673   5.787 -0.5420 -0.0792  0.6822
  785SOL    HW1 3571   1.452   1.691   5.797 -0.2654  2.0954 -0.0972
  785SOL    HW2 3572   1.587   1.719   5.861 -0.1369 -2.2759  1.9165
  786SOL     OW 3573   1.107   1.639   6.635 -0.2873  0.1291  0.2294
  786SOL    HW1 3574   1.027   1.618   6.588  0.5423 -1.6728 -0.4386
  786SOL    HW2 3575   1.077   1.684   6.714 -1.8297  1.1317 -0.8691
  787SOL     OW 3576   1.767   0.641   6.340  1.0008 -0.1357 -0.4400
  787SOL    HW1 3577   1.842   0.682   6.384 -1.1748  0.4854  3.0323
  787SOL    HW2 3578   1.751   0.560   6.390 -0.0238 -0.7976 -1.7731
  788SOL     OW 3579   0.059   1.720   6.892 -0.0277  0.5498 -0.1167
  788SOL    HW1 3580   0.101   1.638   6.863  0.1121  0.6820 -0.2882
  788SOL    HW2 3581   0.047   1.770   6.811 -0.2427  0.6392 -0.0288
  789SOL     OW 3582   0.516   0.823   7.266  1.2213  0.6150 -0.0308
  789SOL    HW1 3583   0.547   0.913   7.263 -0.7477  1.3681  0.7118
  789SOL    HW2 3584   0.422   0.830   7.280  1.0065 -1.5674  0.0107
  790SOL     OW 3585   1.495   0.889   7.008  0.2090 -0.6545  0.3255
  790SOL    HW1 3586   1.414   0.916   6.964 -0.1833  0.6756  1.7283
  790SOL    HW2 3587   1.495   0.794   7.002 -0.8741 -0.6175 -0.7100
  791SOL     OW 3588   1.250   0.113   7.267 -0.0026 -0.2394 -0.0538
  791SOL    HW1 3589   1.293   0.117   7.181 -1.1635 -0.2236 -0.6499
  791SOL    HW2 3590   1.174   0.056   7.253  0.8515 -1.8547  1.4482
  792SOL     OW 3591   1.145   0.088   7.697 -0.4628 -0.6904 -0.1750
  792SOL    HW1 3592   1.176   0.001   7.724  1.1875 -0.3133 -0.7344
  792SOL    HW2 3593   1.199   0.109   7.620  1.1438  1.9834  1.5413
  793SOL     OW 3594   0.635   1.069   6.295 -0.3575 -0.2985 -0.1356
  793SOL    HW1 3595   0.580   0.995   6.321  1.0026 -1.0105  0.8287
  793SOL    HW2 3596   0.642   1.061   6.200  1.5568 -2.7882  0.1094
  794SOL     OW 3597   1.062   1.234   6.668  0.1618 -0.0219  0.4475
  794SOL    HW1 3598   1.124   1.298   6.632 -0.1800 -0.3293 -0.7341
  794SOL    HW2 3599   1.115   1.160   6.694  0.4165  0.2031  0.5714
  795SOL     OW 3600   1.396   0.775   5.603 -0.2996  0.2526  0.2793
  795SOL    HW1 3601   1.313   0.822   5.600 -1.0296 -0.8589  1.9048
  795SOL    HW2 3602   1.380   0.701   5.661  1.4830 -0.7030 -0.3611
  796SOL     OW 3603   0.452   8.716   6.758 -0.1169  0.4875  0.6007
  796SOL    HW1 3604   0.412   8.648   6.704  0.7664 -0.5943  1.2792
  796SOL    HW2 3605   0.404   8.714   6.840 -1.4543  2.1315 -0.0722
  797SOL     OW 3606   0.276   1.495   6.833  0.0819 -0.4405 -0.1105
  797SOL    HW1 3607   0.340   1.525   6.768  0.4534 -0.1959  0.3574
  797SOL    HW2 3608   0.276   1.400   6.824 -0.3526 -0.3713 -0.9090
  798SOL     OW 3609   1.384   0.872   7.318  0.4800  0.2635  0.1820
  798SOL    HW1 3610   1.479   0.859   7.315  0.3431 -0.7212 -0.4120
  798SOL    HW2 3611   1.358   0.839   7.404  0.5529 -0.4786 -0.0709
  799SOL     OW 3612   0.458   0.085   6.252  0.1526 -0.4968  0.3115
  799SOL    HW1 3613   0.524   0.027   6.290  1.6313  0.2977 -0.9304
  799SOL    HW2 3614   0.380   0.071   6.306  1.8388 -0.0793  3.0721
  800SOL     OW 3615   1.746   0.591   5.344 -0.0107 -0.3287  0.5181
  800SOL    HW1 3616   1.800   0.594   5.423 -0.4066  1.2208  0.7711
  800SOL    HW2 3617   1.663   0.631   5.371 -0.3834 -0.3774 -0.5209
  801SOL     OW 3618   1.345   0.631   6.513  0.5750 -0.6108  0.1705
  801SOL    HW1 3619   1.301   0.655   6.432  1.5614 -0.1528 -0.2480
  801SOL    HW2 3620   1.344   0.535   6.514 -1.1063 -0.6179  0.5744
  802SOL     OW 3621   0.740   1.573   7.568  0.5473  0.3894 -0.4947
  802SOL    HW1 3622   0.802   1.500   7.567  0.2957  0.1656 -0.0295
  802SOL    HW2 3623   0.655   1.533   7.550  0.3058  0.4664  0.4649
  803SOL     OW 3624   1.751   1.651   7.125  0.0243 -0.6387 -0.0853
  803SOL    HW1 3625   1.761   1.636   7.030  3.1602  1.7435 -0.3220
  803SOL    HW2 3626   1.766   1.565   7.164  1.3056 -1.2376 -1.7365
  804SOL     OW 3627   0.588   0.712   7.845 -0.4282 -0.0589 -0.4362
  804SOL    HW1 3628   0.586   0.672   7.758 -1.5143  0.9773 -0.9174
  804SOL    HW2 3629   0.636   0.795   7.832 -1.3422  0.5123 -0.2514
  805SOL     OW 3630   2.241   0.438   5.576 -0.3651  0.6625 -0.0678
  805SOL    HW1 3631   2.157   0.392   5.578 -0.4540  0.7001 -1.6519
  805SOL    HW2 3632   2.229   0.511   5.637 -0.7629 -0.4648  1.2628
  806SOL     OW 3633   1.602   0.864   5.399 -0.0050 -0.8692 -0.4955
  806SOL    HW1 3634   1.553   0.883   5.320 -0.6224 -1.0941 -0.1694
  806SOL    HW2 3635   1.539   0.872   5.470  0.2415 -1.9018 -0.1432
  807SOL     OW 3636   1.187   1.334   6.240  0.4303  0.0526  0.9164
  807SOL    HW1 3637   1.135   1.258   6.265  0.4528 -1.1870 -2.3233
  807SOL    HW2 3638   1.275   1.298   6.223  0.0301  0.2791 -2.3745
  808SOL     OW 3639   0.544   0.555   6.694  0.3265  0.3593  0.0420
  808SOL    HW1 3640   0.559   0.487   6.759 -0.0679  0.9685  0.7782
  808SOL    HW2 3641   0.473   0.521   6.640 -1.1977  0.9689  1.5713
  809SOL     OW 3642   8.786   0.757   6.457 -0.2082 -0.0365 -0.4042
  809SOL    HW1 3643   8.765   0.828   6.395  1.7763  2.3708  1.4667
  809SOL    HW2 3644   8.701   0.721   6.482 -1.4479  2.6212 -0.4582
  810SOL     OW 3645   1.406   0.330   7.093 -0.2480 -0.2462 -0.9839
  810SOL    HW1 3646   1.365   0.276   7.026 -0.4371 -0.5695 -0.6147
  810SOL    HW2 3647   1.469   0.272   7.136 -0.6231 -0.2547 -0.4248
  811SOL     OW 3648   1.502   8.747   7.090 -0.2499 -0.0835 -0.0852
  811SOL    HW1 3649   1.597   8.749   7.098 -0.2476  0.2557 -0.1887
  811SOL    HW2 3650   1.473   8.690   7.161 -0.0375  0.6146  0.5664
  812SOL     OW 3651   0.174   1.808   5.709  0.5153  0.1576  0.3944
  812SOL    HW1 3652   0.108   1.767   5.652  0.6478  2.6769 -1.7810
  812SOL    HW2 3653   0.216   1.735   5.753 -0.8967 -1.8451 -1.3537
  813SOL     OW 3654   8.748   1.987   6.238  0.3821 -0.0491  0.3235
  813SOL    HW1 3655   8.802   2.063   6.216  1.1562 -0.5225  0.5442
  813SOL    HW2 3656   8.810   1.914   6.239 -0.5507 -0.8986 -1.0840
  814SOL     OW 3657   0.550   1.886   6.093  0.1321  0.1004 -0.2008
  814SOL    HW1 3658   0.573   1.916   6.005 -1.4684  1.1848 -0.2993
  814SOL    HW2 3659   0.621   1.917   6.149  1.9103 -1.8189 -1.2551
  815SOL     OW 3660   0.849   0.897   6.596 -0.0890  0.0427 -0.3260
  815SOL    HW1 3661   0.846   0.810   6.634 -0.2984 -1.0770 -2.6938
  815SOL    HW2 3662   0.939   0.907   6.567  0.2374  1.1463  0.9848
  816SOL     OW 3663   0.032   0.389   6.374  0.4106 -0.1811  0.3548
  816SOL    HW1 3664   0.033   0.439   6.456 -1.7639 -0.4190  0.5775
  816SOL    HW2 3665   0.073   0.306   6.396 -0.2062 -0.2657  1.2458
  817SOL     OW 3666   8.814   0.387   7.219 -0.6495 -0.0846 -0.5582
  817SOL    HW1 3667   8.780   0.305   7.255 -0.7367 -0.7462 -2.0576
  817SOL    HW2 3668   8.867   0.425   7.289 -2.2897 -0.3677  0.9007
  818SOL     OW 3669   0.764   0.369   6.556 -0.4142  0.1339  0.1013
  818SOL    HW1 3670   0.778   0.310   6.482 -1.4664  0.9198 -0.7655
  818SOL    HW2 3671   0.688   0.332   6.602 -1.0912  0.7801 -0.4568
  819SOL     OW 3672   1.023   0.071   5.975  0.6946 -0.2607  0.3802
  819SOL    HW1 3673   1.070   0.006   6.027 -0.3855 -1.1060  0.3430
  819SOL    HW2 3674   1.041   0.046   5.884  0.2287 -0.5715  0.3660
  820SOL     OW 3675   1.671   0.755   6.706 -0.2129  0.0400  0.4686
  820SOL    HW1 3676   1.576   0.755   6.718 -0.2254 -0.4909  0.3993
  820SOL    HW2 3677   1.705   0.809   6.777 -0.5426 -0.0127  0.6661
  821SOL     OW 3678   0.197   1.679   7.347 -0.3879  0.2908 -0.1316
  821SOL    HW1 3679   0.141   1.603   7.362  0.1107  0.1447  1.0666
  821SOL    HW2 3680   0.219   1.674   7.253 -2.6380  0.5734 -0.7250
  822SOL     OW 3681   0.600   0.307   6.819 -0.0668  0.0943  0.2121
  822SOL    HW1 3682   0.687   0.295   6.859  0.2135 -0.5056 -0.5557
  822SOL    HW2 3683   0.539   0.291   6.890  0.4401  2.9086  1.4276
  823SOL     OW 3684   0.705   1.784   7.104 -0.1462  0.1734  0.3707
  823SOL    HW1 3685   0.730   1.859   7.050  0.9021 -1.6219 -1.8076
  823SOL    HW2 3686   0.615   1.763   7.076 -0.3729  0.4940  0.8492
  824SOL     OW 3687   0.685   0.797   5.269 -0.0707  0.5462 -0.3037
  824SOL    HW1 3688   0.610   0.854   5.252 -0.2080  1.0366  1.7440
  824SOL    HW2 3689   0.690   0.740   5.192 -1.7932  1.3118 -1.0164
  825SOL     OW 3690   0.423   1.214   6.729  0.1709 -0.8565 -0.1942
  825SOL    HW1 3691   0.512   1.204   6.693  0.0539  0.5462 -0.9480
  825SOL    HW2 3692   0.366   1.208   6.653 -0.4302 -2.0295  0.3256
  826SOL     OW 3693   1.120   1.348   6.946  0.3144 -0.2206  0.6735
  826SOL    HW1 3694   1.076   1.339   6.861 -0.1612  1.6023  0.6693
  826SOL    HW2 3695   1.061   1.305   7.008  0.8386 -1.8822  0.0567
  827SOL     OW 3696   1.312   0.851   5.887  0.3929 -0.2391 -0.4761
  827SOL    HW1 3697   1.334   0.767   5.925 -1.3742 -0.7279 -0.4231
  827SOL    HW2 3698   1.243   0.831   5.824  0.0267  1.1486 -0.5492
  828SOL     OW 3699   2.548   2.238   6.580  0.5980 -0.0893 -0.0189
  828SOL    HW1 3700   2.525   2.320   6.624 -0.0657 -1.4577  2.3185
  828SOL    HW2 3701   2.631   2.212   6.619  0.5372 -0.8118 -0.3602
  829SOL     OW 3702   1.039   1.947   6.564 -0.0386  0.4200  0.3294
  829SOL    HW1 3703   1.102   1.954   6.635  1.8545 -1.6986 -0.9956
  829SOL    HW2 3704   0.998   1.861   6.577 -0.4532  0.4840 -0.4802
  830SOL     OW 3705   0.013   1.261   6.379  0.5905  0.1043 -0.0953
  830SOL    HW1 3706   0.023   1.237   6.471 -0.0847  0.8362  0.1767
  830SOL    HW2 3707   0.026   1.356   6.378 -2.2413  0.5707 -0.2935
  831SOL     OW 3708   0.844   1.503   7.233 -0.5248  0.4354  0.1934
  831SOL    HW1 3709   0.832   1.575   7.173  1.3389  1.5839  1.0794
  831SOL    HW2 3710   0.939   1.492   7.239 -0.7273 -1.8701  0.3679
  832SOL     OW 3711   2.002   0.320   5.553 -0.1176  0.1707 -0.1403
  832SOL    HW1 3712   1.908   0.302   5.557 -0.2607  1.1081  1.8303
  832SOL    HW2 3713   2.043   0.235   5.571 -0.6633  0.1933  1.4062
  833SOL     OW 3714   1.620   1.973   6.230  0.2058  0.4782 -0.2114
  833SOL    HW1 3715   1.528   1.993   6.245  0.6988  1.3337  2.0090
  833SOL    HW2 3716   1.632   1.886   6.268  0.5426  0.8537  0.5652
  834SOL     OW 3717   0.277   1.760   8.022 -0.3596  0.0286 -0.1241
  834SOL    HW1 3718   0.318   1.711   8.093 -1.4651  0.1963  0.6542
  834SOL    HW2 3719   0.211   1.701   7.986  0.0600  0.0138 -0.9050
  835SOL     OW 3720   1.439   1.228   6.200  0.2840  0.2362  0.1151
  835SOL    HW1 3721   1.402   1.155   6.151  0.3505 -1.4524  2.4215
  835SOL    HW2 3722   1.527   1.239   6.164  0.2520 -0.7996 -0.3130
  836SOL     OW 3723   0.369   1.871   6.641 -0.6165  0.3005 -0.2555
  836SOL    HW1 3724   0.304   1.908   6.580  0.2831  0.8884 -0.8881
  836SOL    HW2 3725   0.367   1.930   6.716 -0.9289  0.2183 -0.1963
  837SOL     OW 3726   0.870   1.435   5.639 -1.0128 -0.1597 -0.2645
  837SOL    HW1 3727   0.916   1.429   5.555 -2.7968 -2.3478 -1.2061
  837SOL    HW2 3728   0.780   1.458   5.615 -1.5352 -0.7303  1.0347
  838SOL     OW 3729   1.390   1.965   7.128  0.2737 -0.3066 -0.2504
  838SOL    HW1 3730   1.424   1.903   7.193 -0.8956 -1.0084 -0.2630
  838SOL    HW2 3731   1.381   1.912   7.049  2.5056  0.7454 -1.2838
  839SOL     OW 3732   2.249   8.665   6.496 -0.1216  0.5886 -0.2093
  839SOL    HW1 3733   2.291   8.647   6.580  1.2287  0.4182 -0.8990
  839SOL    HW2 3734   2.266   8.587   6.443  1.4884  1.7909 -1.5596
  840SOL     OW 3735   0.225   0.403   6.161 -0.2894  0.6649  0.8740
  840SOL    HW1 3736   0.152   0.393   6.222 -0.7171  1.6954  0.5578
  840SOL    HW2 3737   0.261   0.490   6.181 -0.7970  1.2777 -0.6789
  841SOL     OW 3738   1.523   1.095   5.255 -0.1483  0.4567  0.1087
  841SOL    HW1 3739   1.612   1.124   5.273  0.1065 -0.3505  0.1915
  841SOL    HW2 3740   1.477   1.174   5.226  0.4541  0.9837  0.5577
  842SOL     OW 3741   0.508   1.638   6.671 -0.2636 -0.6837 -0.0767
  842SOL    HW1 3742   0.597   1.666   6.649 -0.2290 -1.1769 -0.5995
  842SOL    HW2 3743   0.454   1.715   6.653  0.0682 -0.3366  0.3777
  843SOL     OW 3744   1.174   1.039   5.990  0.5375  0.3400 -0.2524
  843SOL    HW1 3745   1.223   0.959   5.971  1.4973  1.2634 -1.8657
  843SOL    HW2 3746   1.237   1.110   5.976  0.4922  1.3726  3.6888
  844SOL     OW 3747   1.267   1.541   5.483 -0.3568 -0.5219 -0.0256
  844SOL    HW1 3748   1.248   1.474   5.549 -2.5284 -2.6455 -2.6013
  844SOL    HW2 3749   1.359   1.528   5.462  0.0107 -0.7076  1.5581
  845SOL     OW 3750   0.385   1.244   6.997 -0.2916  0.3980  0.5594
  845SOL    HW1 3751   0.390   1.250   6.902  0.0912  0.7475  0.5984
  845SOL    HW2 3752   0.476   1.237   7.026 -0.4461 -0.4348  0.8591
  846SOL     OW 3753   1.305   1.432   6.613 -0.8020  0.1481  0.6552
  846SOL    HW1 3754   1.388   1.480   6.615 -0.3086 -0.5432 -1.1185
  846SOL    HW2 3755   1.238   1.500   6.620 -0.1013  0.8150  1.0632
  847SOL     OW 3756   0.727   0.672   6.048 -0.0186 -0.0745  0.0609
  847SOL    HW1 3757   0.787   0.602   6.074 -0.9753 -0.7747  0.4246
  847SOL    HW2 3758   0.652   0.663   6.107  0.3100  1.9633  0.8871
  848SOL     OW 3759   0.787   0.161   6.390 -0.0925 -0.1659 -0.0187
  848SOL    HW1 3760   0.724   0.097   6.423  0.2884 -1.8541 -2.3628
  848SOL    HW2 3761   0.747   0.195   6.310  1.2512 -0.0679 -0.6737
  849SOL     OW 3762   0.386   1.059   5.956  0.3238  0.0150  0.1417
  849SOL    HW1 3763   0.333   1.014   5.890  1.0165 -1.3965  0.4979
  849SOL    HW2 3764   0.445   0.991   5.989  1.4515  1.2152  0.6933
  850SOL     OW 3765   2.229   0.477   7.167 -0.2771  0.1802  0.0134
  850SOL    HW1 3766   2.250   0.397   7.216  0.2678  0.1103 -0.3266
  850SOL    HW2 3767   2.206   0.540   7.235 -0.9313 -0.3288  0.2733
  851SOL     OW 3768   0.301   1.603   5.806  0.1711 -0.2836 -0.5483
  851SOL    HW1 3769   0.303   1.597   5.902  1.0019  0.4141 -0.5029
  851SOL    HW2 3770   0.252   1.526   5.778 -3.0733  1.2003  0.5749
  852SOL     OW 3771   0.224   0.754   6.889  0.6077  0.4712 -0.1977
  852SOL    HW1 3772   0.154   0.734   6.951 -0.1169  1.6112 -0.6184
  852SOL    HW2 3773   0.183   0.744   6.803  1.1630  0.4643 -0.4638
  853SOL     OW 3774   0.578   0.070   6.620  0.2221 -0.2629 -0.1953
  853SOL    HW1 3775   0.545  -0.001   6.675 -1.1892 -1.3079 -2.2522
  853SOL    HW2 3776   0.560   0.150   6.670  1.3064 -1.2632  1.9075
  854SOL     OW 3777   0.144   0.373   5.120  0.4473  0.3706 -0.2953
  854SOL    HW1 3778   0.053   0.379   5.093  0.2926 -0.4407  0.0024
  854SOL    HW2 3779   0.155   0.442   5.185 -0.4995 -0.7574  1.1163
  855SOL     OW 3780   1.201   0.963   6.991 -0.0855  0.1738  0.3304
  855SOL    HW1 3781   1.111   0.948   6.962  0.0762 -0.8480  0.3048
  855SOL    HW2 3782   1.226   1.046   6.952  0.3198 -1.3517 -3.0097
  856SOL     OW 3783   8.820   0.215   5.782 -0.0711  0.6478 -0.1567
  856SOL    HW1 3784   8.833   0.155   5.855 -1.9343  0.0599 -0.2621
  856SOL    HW2 3785   8.861   0.297   5.811  0.9003 -0.1276  0.7328
  857SOL     OW 3786   1.247   1.309   5.631 -0.3130  0.0136 -0.8186
  857SOL    HW1 3787   1.270   1.227   5.588 -0.7990 -0.9863  0.7824
  857SOL    HW2 3788   1.162   1.294   5.670 -0.4099  1.2784 -0.4734
  858SOL     OW 3789   0.663   1.242   6.981 -0.0214  0.1247  0.0664
  858SOL    HW1 3790   0.750   1.257   7.018 -0.5952 -1.2634  2.2283
  858SOL    HW2 3791   0.662   1.149   6.960 -1.8231 -0.6246  2.8641
  859SOL     OW 3792   1.627   1.726   6.390  0.0782 -0.5001 -0.0801
  859SOL    HW1 3793   1.533   1.706   6.393  0.0155 -0.1641  0.4355
  859SOL    HW2 3794   1.664   1.680   6.465  0.3320 -0.6470 -0.2935
  860SOL     OW 3795   0.841   0.704   7.054 -0.1975  0.0614  0.1555
  860SOL    HW1 3796   0.797   0.678   7.134  0.2694  1.6826  0.9715
  860SOL    HW2 3797   0.906   0.635   7.039 -1.4773 -1.1959  0.1315
  861SOL     OW 3798   1.645   1.111   6.976 -0.4205 -0.3125  0.7174
  861SOL    HW1 3799   1.615   1.020   6.977  0.0268 -0.4840 -0.1128
  861SOL    HW2 3800   1.566   1.163   6.985 -0.7608 -0.7747  0.4219
  862SOL     OW 3801   0.311   1.952   7.372 -0.1951  0.3015  0.4385
  862SOL    HW1 3802   0.328   1.933   7.280  0.2822  2.2686  0.0884
  862SOL    HW2 3803   0.225   1.913   7.388  0.2746 -1.1927 -0.4557
  863SOL     OW 3804   1.233   0.999   6.691 -0.4343 -0.3815  0.0454
  863SOL    HW1 3805   1.309   1.056   6.698 -0.2770 -0.3523 -1.4712
  863SOL    HW2 3806   1.261   0.916   6.729  0.3929 -0.3833 -0.5315
  864SOL     OW 3807   1.271   0.247   5.765 -0.1082 -0.3214 -0.3542
  864SOL    HW1 3808   1.187   0.201   5.757  0.1707 -1.0075  0.4861
  864SOL    HW2 3809   1.337   0.181   5.741  0.3019 -0.3859  0.8937
  865SOL     OW 3810   0.788   0.437   6.164 -0.4239  0.4957  0.7307
  865SOL    HW1 3811   0.843   0.475   6.232 -0.6936  1.0523  0.6390
  865SOL    HW2 3812   0.703   0.424   6.207  0.0171 -1.2402  1.1541
  866SOL     OW 3813   1.836   0.713   7.158  0.0759 -0.3054  0.3398
  866SOL    HW1 3814   1.862   0.621   7.161  1.8590  0.1268 -0.0597
  866SOL    HW2 3815   1.894   0.756   7.221 -0.0604  0.6790 -0.1879
  867SOL     OW 3816   1.654   0.910   7.247 -0.2005 -0.4235 -0.1279
  867SOL    HW1 3817   1.605   0.899   7.165  0.1160  0.5084 -0.4659
  867SOL    HW2 3818   1.739   0.869   7.230 -0.4270 -0.9738  0.0374
  868SOL     OW 3819   0.933   1.142   5.543  0.1049  0.0255  0.0046
  868SOL    HW1 3820   0.972   1.213   5.493  1.5319 -0.8290 -0.1433
  868SOL    HW2 3821   0.951   1.165   5.635  0.4019 -0.0562 -0.0338
  869SOL     OW 3822   0.373   1.766   6.266  0.0187 -0.0465  0.1974
  869SOL    HW1 3823   0.440   1.811   6.215 -1.9706  0.2248 -2.4267
  869SOL    HW2 3824   0.417   1.689   6.302  2.0873  0.9831 -0.0164
  870SOL     OW 3825   1.087   0.991   6.463 -0.3219  0.4447 -0.1199
  870SOL    HW1 3826   1.152   0.972   6.396 -0.5797  0.3894 -0.3549
  870SOL    HW2 3827   1.138   1.004   6.543 -0.1322 -1.4304  0.1066
  871SOL     OW 3828   1.118   0.875   5.678  0.1692 -0.3972  0.0599
  871SOL    HW1 3829   1.068   0.821   5.617 -0.7710 -0.1895  0.6209
  871SOL    HW2 3830   1.057   0.944   5.705  1.4236  1.1134 -0.8266
  872SOL     OW 3831   2.019   1.275   6.610  0.2617 -0.0794 -0.1028
  872SOL    HW1 3832   2.033   1.291   6.516  0.4406 -0.5822 -0.1687
  872SOL    HW2 3833   2.103   1.242   6.641 -0.0138 -0.6378  0.0649
  873SOL     OW 3834   0.474   1.302   7.666 -0.0303  0.1025 -0.3509
  873SOL    HW1 3835   0.436   1.387   7.686 -2.8020 -0.7222 -1.5779
  873SOL    HW2 3836   0.399   1.247   7.642  1.8969 -1.9531 -2.1651
  874SOL     OW 3837   8.817   1.572   6.129  0.3881  0.5000  0.4381
  874SOL    HW1 3838   8.904   1.591   6.094  0.3781  0.7913  0.5694
  874SOL    HW2 3839   8.760   1.636   6.085  0.1635  0.0045 -0.0035
  875SOL     OW 3840   0.481   1.676   6.996 -0.3365 -0.6104 -0.1384
  875SOL    HW1 3841   0.432   1.602   7.032  2.1100 -2.6216 -0.6676
  875SOL    HW2 3842   0.476   1.665   6.901 -0.3441  0.2027 -0.2414
  876SOL     OW 3843   1.825   0.139   6.466  0.0050 -0.1354  0.5915
  876SOL    HW1 3844   1.799   0.132   6.558  0.2964 -1.8514  0.5784
  876SOL    HW2 3845   1.920   0.141   6.468 -0.0079  0.8762  0.3732
  877SOL     OW 3846   0.139   0.392   5.894  0.2113 -0.3712  0.2498
  877SOL    HW1 3847   0.174   0.476   5.863 -0.0032 -0.1449  0.6190
  877SOL    HW2 3848   0.196   0.367   5.966  0.5324 -0.7565 -0.1302
  878SOL     OW 3849   1.625   1.470   6.927 -0.1949  0.3276 -0.1517
  878SOL    HW1 3850   1.665   1.411   6.864 -1.6632  0.4855 -1.2874
  878SOL    HW2 3851   1.591   1.413   6.996  0.4212  0.0533 -0.0727
  879SOL     OW 3852   0.707   0.568   7.251 -0.0187  0.1324 -0.0817
  879SOL    HW1 3853   0.715   0.479   7.287 -2.0688  0.2944  0.9059
  879SOL    HW2 3854   0.613   0.582   7.243  0.2729  2.1854 -0.3014
  880SOL     OW 3855   0.693   1.301   5.856  0.6353 -0.5472 -0.3904
  880SOL    HW1 3856   0.768   1.333   5.805 -0.1218  0.9680 -0.6189
  880SOL    HW2 3857   0.630   1.271   5.791  0.2609  0.0221 -0.3013
  881SOL     OW 3858   1.380   8.644   6.829 -0.0520  0.1250  0.5279
  881SOL    HW1 3859   1.446   8.663   6.896 -1.2442  1.0853  1.4903
  881SOL    HW2 3860   1.300   8.684   6.863 -0.9168 -0.1885 -1.0510
  882SOL     OW 3861   0.833   8.547   6.318  0.7112 -0.4673 -0.4981
  882SOL    HW1 3862   0.880   8.550   6.401  0.9844  0.7666 -0.6862
  882SOL    HW2 3863   0.902   8.551   6.251  0.4097  0.1485 -0.7790
  883SOL     OW 3864   0.634   0.947   6.043 -0.0404 -0.2659  0.3834
  883SOL    HW1 3865   0.676   0.861   6.050 -0.3199 -0.5783 -1.3879
  883SOL    HW2 3866   0.640   0.969   5.950  0.4239  1.8493  0.8680
  884SOL     OW 3867   0.691   1.434   6.742  0.3113  0.1768  0.0215
  884SOL    HW1 3868   0.604   1.474   6.732 -0.5192 -1.2644  1.0869
  884SOL    HW2 3869   0.678   1.364   6.806  2.6820  1.1390  1.6961
  885SOL     OW 3870   1.469   0.060   5.710 -0.0252 -0.1971  0.0547
  885SOL    HW1 3871   1.527   0.088   5.780 -1.5618 -0.7015  1.6243
  885SOL    HW2 3872   1.509  -0.019   5.675 -0.0888 -0.9231  1.5688
  886SOL     OW 3873   1.461   0.230   6.339 -0.5054  0.3305  0.1691
  886SOL    HW1 3874   1.485   0.193   6.254 -0.4783  0.9157 -0.0773
  886SOL    HW2 3875   1.436   0.154   6.392  1.5424 -0.2883  0.3261
  887SOL     OW 3876   1.315   0.017   6.415  0.2682  0.3155 -0.0503
  887SOL    HW1 3877   1.254   0.091   6.411 -0.5133 -0.3064  0.3073
  887SOL    HW2 3878   1.272  -0.047   6.471  0.1291 -1.1491 -1.7614
  888SOL     OW 3879   0.373   1.290   6.130  0.5015 -0.0914 -0.4033
  888SOL    HW1 3880   0.453   1.305   6.181  0.7011  3.6904 -1.5381
  888SOL    HW2 3881   0.387   1.206   6.087  2.6020 -0.8474  1.5510
  889SOL     OW 3882   1.011   1.426   5.964  0.7382  1.0117 -0.3503
  889SOL    HW1 3883   0.941   1.490   5.949  1.7888  2.2695 -0.0029
  889SOL    HW2 3884   1.089   1.478   5.978  1.3128 -0.2820  1.6843
  890SOL     OW 3885   0.036   0.683   7.376  0.0660 -0.2487  0.5832
  890SOL    HW1 3886   0.008   0.726   7.457 -0.0474  2.1447 -0.6218
  890SOL    HW2 3887   0.118   0.726   7.353  1.1011 -2.2303  0.3791
  891SOL     OW 3888   0.458   0.268   8.239 -0.2178  0.4861 -0.1976
  891SOL    HW1 3889   0.476   0.210   8.164  2.7105  1.2857 -0.2056
  891SOL    HW2 3890   0.509   0.232   8.311  1.2132  2.6572 -0.0401
  892SOL     OW 3891   0.320   0.416   7.788  0.1724 -0.0739 -0.6134
  892SOL    HW1 3892   0.285   0.453   7.869 -1.6223  1.0019 -1.8346
  892SOL    HW2 3893   0.322   0.489   7.727 -1.1756 -1.4294 -2.3830
  893SOL     OW 3894   0.654   1.182   0.259  0.4377  0.4600  0.1080
  893SOL    HW1 3895   0.718   1.148   0.321  0.1920  1.7042  1.0986
  893SOL    HW2 3896   0.702   1.194   0.178  2.0106  3.0273  1.2797
  894SOL     OW 3897   1.672   1.625   8.061  0.1475  0.0075 -0.2701
  894SOL    HW1 3898   1.760   1.597   8.040 -0.4638 -0.1264 -3.0615
  894SOL    HW2 3899   1.622   1.544   8.071  0.1779  0.0847  0.5306
  895SOL     OW 3900   1.168   0.748   8.141  0.0442 -0.2020 -0.4530
  895SOL    HW1 3901   1.209   0.799   8.211 -2.1463  0.5727  0.3701
  895SOL    HW2 3902   1.149   0.812   8.073 -2.1520  0.0629  0.3204
  896SOL     OW 3903   1.575   0.614   7.197  0.4417  0.6531  0.1984
  896SOL    HW1 3904   1.588   0.534   7.248 -0.9683 -0.4173 -1.0272
  896SOL    HW2 3905   1.658   0.626   7.150 -0.4691 -2.2970 -2.4845
  897SOL     OW 3906   0.442   1.040   8.627  0.0331  0.1323  1.2578
  897SOL    HW1 3907   0.479   1.128   8.619  1.0285 -0.3865 -0.2202
  897SOL    HW2 3908   0.353   1.055   8.660 -0.3069  1.8094 -0.2192
  898SOL     OW 3909   0.698   0.951   7.858 -0.0270 -0.0979  0.0919
  898SOL    HW1 3910   0.736   1.028   7.815  1.0266 -0.8054 -0.2809
  898SOL    HW2 3911   0.733   0.954   7.947  0.8660 -0.6978 -0.2241
  899SOL     OW 3912   0.575   1.571   8.619 -0.2970 -0.3620 -0.2818
  899SOL    HW1 3913   0.535   1.652   8.586 -1.9033 -0.6635  0.8147
  899SOL    HW2 3914   0.504   1.507   8.618  0.7848 -1.6126 -0.5151
  900SOL     OW 3915   0.188   0.853   8.824 -0.0521  0.2215  0.0098
  900SOL    HW1 3916   0.175   0.903   8.905 -1.7062  0.2022 -0.2154
  900SOL    HW2 3917   0.156   0.765   8.844  3.4663 -1.0682  0.6127
  901SOL     OW 3918   1.648   0.549   8.272  0.3155 -0.1649 -0.3995
  901SOL    HW1 3919   1.565   0.510   8.297  1.7914 -2.9598  0.5537
  901SOL    HW2 3920   1.630   0.594   8.189 -2.3314  0.3392  0.3543
  902SOL     OW 3921   0.257   1.430   8.246 -0.1339 -0.2975 -0.3557
  902SOL    HW1 3922   0.180   1.376   8.264 -0.3153 -0.1550 -0.6917
  902SOL    HW2 3923   0.223   1.519   8.241 -0.2490 -0.4091 -2.2444
  903SOL     OW 3924   0.313   1.424   8.596  0.0385 -0.1887 -0.0240
  903SOL    HW1 3925   0.227   1.390   8.571  0.1192 -1.3925  1.2610
  903SOL    HW2 3926   0.371   1.395   8.526 -0.4535 -0.0094 -0.5161
  904SOL     OW 3927   0.183   1.163   7.969  0.1045  0.5505  0.1546
  904SOL    HW1 3928   0.147   1.157   7.881 -0.3014  0.6528  0.3128
  904SOL    HW2 3929   0.278   1.164   7.956  0.0732 -0.3958 -0.2236
  905SOL     OW 3930   0.685   1.756   8.329  1.3808  0.1424 -0.2515
  905SOL    HW1 3931   0.666   1.723   8.417  0.1673 -0.4853 -0.7186
  905SOL    HW2 3932   0.646   1.691   8.271 -1.2334  2.4402 -1.2447
  906SOL     OW 3933   0.508   1.025   7.553  0.2549  0.1966  0.4873
  906SOL    HW1 3934   0.569   1.089   7.589  1.7834 -0.7170 -0.3696
  906SOL    HW2 3935   0.563   0.949   7.531 -0.8134  0.0961 -2.2187
  907SOL     OW 3936   8.702   0.439   7.605 -0.6421  0.1764 -0.3946
  907SOL    HW1 3937   8.625   0.492   7.626  0.2097  0.3917  2.6888
  907SOL    HW2 3938   8.667   0.354   7.580 -1.9025  0.1841  1.2461
  908SOL     OW 3939   2.226   1.449   8.071  0.0627 -0.6014  0.5874
  908SOL    HW1 3940   2.286   1.514   8.108 -2.2719  0.8524  2.0864
  908SOL    HW2 3941   2.240   1.455   7.977  2.5501 -0.6705  0.8794
  909SOL     OW 3942   0.068   1.570   7.659 -0.3474 -0.2926 -0.0536
  909SOL    HW1 3943   0.074   1.541   7.568 -0.1822 -1.8670  0.4296
  909SOL    HW2 3944   0.006   1.509   7.700  0.6358 -0.4920  1.2056
  910SOL     OW 3945   1.801   0.759   8.344  0.3276  0.1818  0.3231
  910SOL    HW1 3946   1.886   0.726   8.372  0.8097 -0.1190 -1.3761
  910SOL    HW2 3947   1.750   0.680   8.324  0.5369  0.3811 -1.0934
  911SOL     OW 3948   1.663   1.349   8.206  0.4877 -0.0751 -0.2180
  911SOL    HW1 3949   1.686   1.290   8.135 -1.6224 -1.8830  0.5055
  911SOL    HW2 3950   1.717   1.321   8.280  1.2291  0.5048 -0.5287
  912SOL     OW 3951   0.842   1.050   8.455  0.1179 -0.5538 -0.1851
  912SOL    HW1 3952   0.847   1.007   8.369 -1.9278 -0.0409 -0.6211
  912SOL    HW2 3953   0.926   1.032   8.495  0.9055 -1.3559 -2.0474
  913SOL     OW 3954   0.979   0.261   7.812  0.4453  0.0747 -0.0366
  913SOL    HW1 3955   1.041   0.203   7.767  0.3860  0.6996 -0.9623
  913SOL    HW2 3956   1.031   0.338   7.835  0.3445 -0.0120  0.4895
  914SOL     OW 3957   0.092   0.995   8.627  0.5596 -0.0833 -0.8152
  914SOL    HW1 3958   0.137   0.945   8.695 -0.5448  0.9966  0.7966
  914SOL    HW2 3959   0.005   0.956   8.622  0.3767  0.3421 -1.0423
  915SOL     OW 3960   1.741   0.772   7.611 -0.0611  0.2509  0.4621
  915SOL    HW1 3961   1.724   0.864   7.630  0.7207  0.8329 -1.4092
  915SOL    HW2 3962   1.658   0.740   7.573 -0.3202  0.1768  1.0772
  916SOL     OW 3963   0.930   1.426   8.400 -0.1218 -0.3468  1.0439
  916SOL    HW1 3964   0.936   1.513   8.360 -0.0838 -1.3284 -1.2685
  916SOL    HW2 3965   0.974   1.435   8.484 -1.6021  2.2702  1.6489
  917SOL     OW 3966   2.037   1.793   7.764 -0.0815  0.0873 -0.0397
  917SOL    HW1 3967   1.952   1.750   7.761 -0.0305 -0.0002 -0.2923
  917SOL    HW2 3968   2.099   1.726   7.732 -0.0360  0.4271 -0.6758
  918SOL     OW 3969   1.139   0.606   7.874 -0.1804  0.0136  0.2999
  918SOL    HW1 3970   1.143   0.622   7.968  0.4528 -0.7320  0.4055
  918SOL    HW2 3971   1.166   0.515   7.863  0.8003  0.3958 -0.6833
  919SOL     OW 3972   1.474   0.892   8.294 -0.3273  0.1704 -0.3034
  919SOL    HW1 3973   1.493   0.805   8.330 -0.3297  0.4845  0.4904
  919SOL    HW2 3974   1.472   0.949   8.371  0.4096  1.0093 -0.8912
  920SOL     OW 3975   1.928   1.557   8.031 -0.1087  0.1497  0.4188
  920SOL    HW1 3976   1.958   1.638   7.990  0.6775 -1.8440 -3.4376
  920SOL    HW2 3977   2.008   1.514   8.061 -0.1430 -0.5394 -0.4268
  921SOL     OW 3978   1.094   0.701   0.100  0.2407  0.0483  0.0394
  921SOL    HW1 3979   1.025   0.729   0.039  2.0306 -0.1789 -2.2392
  921SOL    HW2 3980   1.115   0.612   0.072  1.5747  0.1882  0.5599
  922SOL     OW 3981   1.025   0.369   8.542 -0.0073 -0.2419 -0.0913
  922SOL    HW1 3982   0.935   0.401   8.538 -0.1779 -0.3866  1.8148
  922SOL    HW2 3983   1.028   0.298   8.478 -0.7549  0.8547 -1.3928
  923SOL     OW 3984   1.127   0.871   7.853 -0.1100 -0.5067  0.0142
  923SOL    HW1 3985   1.141   0.777   7.847 -0.7578 -0.6014 -0.0725
  923SOL    HW2 3986   1.159   0.905   7.770 -0.3021 -0.7104 -0.1457
  924SOL     OW 3987   8.835   0.712   7.913  0.6113  0.0502 -0.1388
  924SOL    HW1 3988   8.903   0.654   7.947  0.6546  0.4334  0.4378
  924SOL    HW2 3989   8.854   0.797   7.953 -0.7063 -0.0294  0.7157
  925SOL     OW 3990   0.380   1.722   8.801 -0.1857 -0.5825  0.4212
  925SOL    HW1 3991   0.368   1.816   8.816 -0.1395 -0.0886 -2.2076
  925SOL    HW2 3992   0.419   1.716   8.714  0.3667 -3.0372  0.7664
  926SOL     OW 3993   1.274   0.497   7.260  0.0785  0.5173 -0.1959
  926SOL    HW1 3994   1.263   0.575   7.205 -0.9500 -0.1894 -1.0395
  926SOL    HW2 3995   1.330   0.439   7.209  0.3960  0.4782  0.1911
  927SOL     OW 3996   1.434   1.418   7.817 -0.0503  0.0003 -0.4967
  927SOL    HW1 3997   1.398   1.484   7.877  1.3579 -0.3757  0.8148
  927SOL    HW2 3998   1.358   1.367   7.789 -0.7577  0.2157  0.9528
  928SOL     OW 3999   0.737   0.447   8.228 -0.4024  0.4834 -0.0744
  928SOL    HW1 4000   0.678   0.516   8.195 -0.8077 -0.5121 -1.5257
  928SOL    HW2 4001   0.691   0.411   8.304 -0.6894  1.1038  0.0535
  929SOL     OW 4002   0.849   1.330   7.476 -0.8251  0.1069  0.2347
  929SOL    HW1 4003   0.870   1.363   7.388 -2.7199  3.3398  0.8180
  929SOL    HW2 4004   0.932   1.334   7.524 -0.2862  0.8200 -0.7134
  930SOL     OW 4005   8.690   1.338   8.547 -0.8833 -0.2375  0.2147
  930SOL    HW1 4006   8.695   1.429   8.517  0.3418 -0.4347 -0.2140
  930SOL    HW2 4007   8.651   1.291   8.474 -1.1489 -0.1318  0.2861
  931SOL     OW 4008   1.277   1.252   8.060 -0.6120  0.0514  0.5304
  931SOL    HW1 4009   1.319   1.170   8.034  1.5306  0.6523  1.9083
  931SOL    HW2 4010   1.207   1.264   7.996 -0.7885 -2.6625  0.0849
  932SOL     OW 4011   0.398   0.508   7.490  0.5061  0.2596 -0.2118
  932SOL    HW1 4012   0.312   0.466   7.482  0.2035  0.7391  0.4178
  932SOL    HW2 4013   0.460   0.435   7.495  0.2525 -0.0895 -1.7229
  933SOL     OW 4014   1.390   1.000   8.079 -0.6671  0.0635 -0.4398
  933SOL    HW1 4015   1.407   0.960   8.165  0.1651  0.6017 -0.3448
  933SOL    HW2 4016   1.414   0.931   8.016  0.2951  0.2147 -0.2645
  934SOL     OW 4017   0.857   1.795   7.782  0.1417  0.3122  0.2224
  934SOL    HW1 4018   0.835   1.797   7.875 -1.1710 -0.4599 -0.0395
  934SOL    HW2 4019   0.946   1.760   7.779  0.9111  2.0610  1.2604
  935SOL     OW 4020   1.685   1.406   7.456  0.0595  0.5879 -0.1341
  935SOL    HW1 4021   1.737   1.332   7.425 -1.7056 -0.2595 -1.2692
  935SOL    HW2 4022   1.720   1.482   7.410  0.2256  0.0088 -0.9827
  936SOL     OW 4023   0.333   1.527   7.744 -0.1471 -0.5937  0.2556
  936SOL    HW1 4024   0.239   1.539   7.729 -0.0239 -1.9249 -2.2719
  936SOL    HW2 4025   0.350   1.568   7.828 -3.0021 -0.3731  0.8228
  937SOL     OW 4026   1.647   0.459   7.837  0.2612  0.6760 -0.1789
  937SOL    HW1 4027   1.739   0.473   7.813  0.3599  0.7596  0.2439
  937SOL    HW2 4028   1.623   0.379   7.790  0.5364  0.6775 -0.3300
  938SOL     OW 4029   0.031   1.817   8.682 -0.0060  0.1850 -0.5846
  938SOL    HW1 4030   0.035   1.747   8.747  0.7397 -0.2088 -1.0448
  938SOL    HW2 4031  -0.059   1.849   8.687 -0.9571 -2.0941 -1.6920
  939SOL     OW 4032   0.932   1.525   8.109 -0.3466 -0.5361 -0.3617
  939SOL    HW1 4033   0.917   1.432   8.122  0.1101 -0.7615 -1.3912
  939SOL    HW2 4034   0.866   1.553   8.047 -1.4826  0.1930  1.1014
  940SOL     OW 4035   0.347   0.829   7.920  0.7417 -0.2754 -0.4387
  940SOL    HW1 4036   0.429   0.794   7.886  0.5569 -0.1340 -1.0327
  940SOL    HW2 4037   0.357   0.924   7.914  0.2840 -0.2682 -1.1078
  941SOL     OW 4038   0.772   0.393   7.651  0.2342  0.0346  0.2653
  941SOL    HW1 4039   0.803   0.484   7.651  0.3466 -0.0015  0.5616
  941SOL    HW2 4040   0.810   0.355   7.730  4.0115 -1.5798 -2.0549
  942SOL     OW 4041   0.977   1.323   0.029  0.2333 -0.2818 -0.1198
  942SOL    HW1 4042   0.893   1.307  -0.015  1.4663 -3.1243 -1.7029
  942SOL    HW2 4043   0.980   1.260   0.101  0.0224  1.5325  1.5676
  943SOL     OW 4044   0.712   1.280   8.795 -0.0899  0.5963  0.6654
  943SOL    HW1 4045   0.732   1.278   8.701 -1.6219  1.2429  0.3035
  943SOL    HW2 4046   0.617   1.284   8.799 -0.0032  1.8660  2.2278
  944SOL     OW 4047   0.900   0.728   8.233 -0.1229 -0.0889 -0.4539
  944SOL    HW1 4048   0.985   0.768   8.216  1.3712 -2.4529  0.8290
  944SOL    HW2 4049   0.865   0.707   8.147 -0.1283  2.1488 -1.0646
  945SOL     OW 4050   0.562   0.332   7.944  0.2422 -0.2552 -0.0958
  945SOL    HW1 4051   0.488   0.339   7.884 -0.9287  1.0961  1.4182
  945SOL    HW2 4052   0.574   0.420   7.978  0.9089 -0.9465  1.5811
  946SOL     OW 4053   1.515   1.353   7.216 -0.1228  0.2133  0.4716
  946SOL    HW1 4054   1.578   1.369   7.286  0.0128 -0.8451  0.6105
  946SOL    HW2 4055   1.480   1.265   7.234  1.7211 -1.1943 -2.0986
  947SOL     OW 4056   0.103   0.369   7.499  0.3802  0.7506  0.0864
  947SOL    HW1 4057   0.023   0.402   7.539 -1.1077 -1.6858 -0.6514
  947SOL    HW2 4058   0.115   0.282   7.538  3.1730  1.3451  0.7738
  948SOL     OW 4059   1.156   0.355   7.457  0.1363  0.2762  0.2336
  948SOL    HW1 4060   1.160   0.274   7.405  0.3237 -0.0058  0.6876
  948SOL    HW2 4061   1.216   0.415   7.411  0.4533 -0.0361  0.2305
  949SOL     OW 4062   1.282   1.653   7.976 -0.1708  0.2064  0.3125
  949SOL    HW1 4063   1.313   1.738   8.007  0.5571  0.3032 -0.6314
  949SOL    HW2 4064   1.280   1.598   8.054 -0.7408  1.1097  0.9493
  950SOL     OW 4065   0.426   1.172   8.254 -0.1453 -0.4418  0.1195
  950SOL    HW1 4066   0.358   1.238   8.264  0.2829  0.3119 -1.6064
  950SOL    HW2 4067   0.493   1.214   8.199 -0.1378 -2.4835 -1.5687
  951SOL     OW 4068   1.490   2.079   8.044  0.1784  0.1826 -0.3612
  951SOL    HW1 4069   1.454   2.003   8.090  0.2635  1.1712  1.4105
  951SOL    HW2 4070   1.554   2.042   7.983 -1.8363 -1.3861 -1.6460
  952SOL     OW 4071   1.263   0.719   7.120 -0.2532 -0.0906 -0.4354
  952SOL    HW1 4072   1.314   0.768   7.184 -1.0512 -0.9377  0.9029
  952SOL    HW2 4073   1.235   0.784   7.056  1.5192  0.5796 -0.5932
  953SOL     OW 4074   0.572   0.657   8.189 -0.3953 -0.4905 -0.2202
  953SOL    HW1 4075   0.504   0.596   8.218  0.9577 -1.3023  1.3955
  953SOL    HW2 4076   0.535   0.743   8.203 -0.2012 -0.8465  3.1906
  954SOL     OW 4077   0.802   0.621   7.994 -0.3181  0.6940 -0.6473
  954SOL    HW1 4078   0.710   0.642   7.977 -0.2765  0.8043 -0.7378
  954SOL    HW2 4079   0.801   0.528   8.018 -0.6750  1.1437  1.1827
  955SOL     OW 4080   1.388   8.719   7.964 -0.2258  0.2134 -0.1676
  955SOL    HW1 4081   1.393   8.648   8.029  2.4951  0.0133 -0.4686
  955SOL    HW2 4082   1.347   8.679   7.887  1.4682 -1.1632 -0.4129
  956SOL     OW 4083   1.634   1.129   7.968 -0.1098 -0.2768  0.1220
  956SOL    HW1 4084   1.670   1.062   8.026  0.3578 -1.4446 -1.4401
  956SOL    HW2 4085   1.540   1.114   7.969  0.0340 -1.3689 -0.6459
  957SOL     OW 4086   1.402   1.226   8.586  0.0482 -0.0414 -0.0700
  957SOL    HW1 4087   1.475   1.168   8.565 -0.0464  0.1069 -0.8220
  957SOL    HW2 4088   1.365   1.252   8.501 -1.2332 -0.5539  0.3056
  958SOL     OW 4089   2.087   1.075   8.080 -0.5726 -0.1320 -0.3099
  958SOL    HW1 4090   2.130   1.037   8.004  1.8330  0.5408  0.6290
  958SOL    HW2 4091   2.020   1.134   8.043  2.1087  2.0666 -2.0894
  959SOL     OW 4092   0.167   1.191   7.408  0.0474 -0.3467  0.3071
  959SOL    HW1 4093   0.126   1.146   7.334 -2.5092 -0.2486  1.5625
  959SOL    HW2 4094   0.255   1.212   7.377 -0.2316 -2.0990 -1.9548
  960SOL     OW 4095   2.459   1.295   8.217 -0.3214 -0.5568 -0.3882
  960SOL    HW1 4096   2.474   1.219   8.272 -1.1969 -1.0372 -0.8038
  960SOL    HW2 4097   2.364   1.306   8.215 -0.3174 -0.6211 -1.8983
  961SOL     OW 4098   1.024   0.519   6.947  0.0966 -0.2766 -0.2764
  961SOL    HW1 4099   1.050   0.497   6.857 -0.7229 -0.3774 -0.4938
  961SOL    HW2 4100   1.097   0.487   7.001  0.1075 -1.1978 -0.8103
  962SOL     OW 4101   0.283   0.136   7.814  0.6413 -0.0289  0.5462
  962SOL    HW1 4102   0.191   0.138   7.788  1.1356 -0.9339 -1.5046
  962SOL    HW2 4103   0.312   0.227   7.805 -0.5003  0.6939  3.2830
  963SOL     OW 4104   1.621   0.924   0.504  0.5242  0.3105 -0.2407
  963SOL    HW1 4105   1.641   0.835   0.476 -0.5389  0.7366 -2.5361
  963SOL    HW2 4106   1.545   0.915   0.561 -0.2817 -0.1614 -1.3712
  964SOL     OW 4107   1.227   1.281   8.333  0.1264  0.2523  0.3415
  964SOL    HW1 4108   1.133   1.299   8.328 -0.2596 -1.0152  2.0515
  964SOL    HW2 4109   1.252   1.260   8.243 -1.7526 -1.6537  0.1701
  965SOL     OW 4110   1.811   1.159   8.655 -0.1377 -0.3210 -0.0167
  965SOL    HW1 4111   1.801   1.102   8.578 -0.1640  1.2313 -1.2187
  965SOL    HW2 4112   1.874   1.114   8.711 -0.6033 -1.8039 -0.6403
  966SOL     OW 4113   0.878   1.007   7.292 -0.2165  0.0008 -0.2182
  966SOL    HW1 4114   0.882   0.921   7.334  0.3942  0.7852  1.4237
  966SOL    HW2 4115   0.785   1.027   7.286 -0.3525 -0.6725 -0.4048
  967SOL     OW 4116   0.560   0.894   0.521  0.3788 -0.4209  0.2574
  967SOL    HW1 4117   0.490   0.843   0.562 -0.2674  0.8881  0.8441
  967SOL    HW2 4118   0.569   0.857   0.433 -0.1657 -1.4330  0.6165
  968SOL     OW 4119   1.406   0.661   8.450 -0.5541  0.3563 -0.2867
  968SOL    HW1 4120   1.430   0.655   8.542  1.1953  0.1111 -0.7194
  968SOL    HW2 4121   1.321   0.704   8.450 -0.8890 -0.2129  1.4696
  969SOL     OW 4122   0.199   1.558   0.223  0.0398 -0.3702 -0.1020
  969SOL    HW1 4123   0.239   1.471   0.227  1.6802  0.3071 -0.6530
  969SOL    HW2 4124   0.240   1.606   0.295 -0.4686  0.0943 -0.1130
  970SOL     OW 4125   0.427   1.103   7.922 -0.0177  0.4353 -0.1585
  970SOL    HW1 4126   0.510   1.132   7.961  1.2073 -0.4079 -1.9583
  970SOL    HW2 4127   0.450   1.083   7.831 -1.9100 -1.1429 -0.3532
  971SOL     OW 4128   0.411   0.520   8.605  0.3389  0.2318  0.2882
  971SOL    HW1 4129   0.336   0.542   8.550  0.2214  0.4053  0.5147
  971SOL    HW2 4130   0.402   0.577   8.682  0.1959 -0.3846  0.7398
  972SOL     OW 4131   1.085   1.457   7.623 -0.8482 -0.1923 -0.0293
  972SOL    HW1 4132   1.078   1.533   7.682 -0.6884  1.3468 -1.8758
  972SOL    HW2 4133   1.165   1.473   7.574 -0.5391 -1.8640 -0.1041
  973SOL     OW 4134   1.361   1.727   8.344  0.1275  0.3821 -0.3592
  973SOL    HW1 4135   1.393   1.650   8.390  0.4390 -0.2060 -1.5166
  973SOL    HW2 4136   1.276   1.700   8.308 -0.8781  1.3447  1.1509
  974SOL     OW 4137   1.475   0.524   8.051 -0.6643  0.0490  0.4713
  974SOL    HW1 4138   1.418   0.455   8.086 -2.0170  0.0470 -1.5509
  974SOL    HW2 4139   1.528   0.481   7.984 -0.0527  0.5714  0.6074
  975SOL     OW 4140   0.405   1.736   8.254 -0.3572  0.3508 -0.1951
  975SOL    HW1 4141   0.340   1.756   8.321  0.6739  0.6664  0.7459
  975SOL    HW2 4142   0.487   1.772   8.288  0.6365 -1.3703 -0.6139
  976SOL     OW 4143   0.569   0.810   8.497 -0.2050 -0.2768 -0.4289
  976SOL    HW1 4144   0.513   0.768   8.432 -1.7909 -0.6558  1.0877
  976SOL    HW2 4145   0.527   0.894   8.513  1.4909  0.8236 -1.5507
  977SOL     OW 4146   1.316   1.248   0.017 -0.2961 -0.0989 -0.2431
  977SOL    HW1 4147   1.351   1.234  -0.071 -2.0712 -1.5409 -0.7771
  977SOL    HW2 4148   1.390   1.229   0.075  0.0685 -2.5073 -1.3362
  978SOL     OW 4149   1.490   0.616   7.489  0.1650  0.1227  0.5549
  978SOL    HW1 4150   1.529   0.531   7.508 -1.1460 -0.5119  0.5566
  978SOL    HW2 4151   1.469   0.613   7.396 -0.0512  0.3751  0.5943
  979SOL     OW 4152   0.864   0.729   8.779 -0.2206 -0.0188 -0.5080
  979SOL    HW1 4153   0.828   0.641   8.786 -0.7809  0.1956 -0.6756
  979SOL    HW2 4154   0.862   0.748   8.685  0.4810 -0.0606 -0.5429
  980SOL     OW 4155   8.589   1.328   0.183  0.4803  0.5108 -0.5220
  980SOL    HW1 4156   8.589   1.300   0.275  0.7668 -1.4115 -1.0630
  980SOL    HW2 4157   8.635   1.258   0.137 -1.1724  0.5527 -2.3752
  981SOL     OW 4158   0.827   0.771   8.506 -1.0123  0.1836 -0.2143
  981SOL    HW1 4159   0.845   0.734   8.419  0.7516  1.4034 -0.4159
  981SOL    HW2 4160   0.734   0.793   8.504 -1.2251 -0.7322 -1.4292
  982SOL     OW 4161   0.002   8.677   8.451 -0.4516  0.2043  0.5734
  982SOL    HW1 4162   0.051   8.759   8.453 -1.3265  0.7374  1.1147
  982SOL    HW2 4163  -0.081   8.699   8.407 -0.5688 -0.4667  0.4345
  983SOL     OW 4164   1.345   0.813   7.618 -0.3886 -0.4449  0.1653
  983SOL    HW1 4165   1.265   0.801   7.568  0.1116 -0.6785 -0.5981
  983SOL    HW2 4166   1.404   0.744   7.587  0.9051  1.0756 -0.9520
  984SOL     OW 4167   1.085   1.125   8.567  0.0229  0.3321 -0.2451
  984SOL    HW1 4168   1.178   1.102   8.567  0.9910  3.5976 -2.3482
  984SOL    HW2 4169   1.083   1.214   8.603 -1.9469  1.2207 -2.3646
  985SOL     OW 4170   1.802   0.371   7.543 -0.0838 -0.2142 -0.4015
  985SOL    HW1 4171   1.809   0.320   7.623  1.9711 -0.2483 -0.5429
  985SOL    HW2 4172   1.865   0.443   7.555 -0.5903  0.4394 -1.5052
  986SOL     OW 4173   1.415   1.097   7.588 -0.2035 -0.9048 -0.0849
  986SOL    HW1 4174   1.344   1.110   7.526 -1.0091 -1.6926  0.6584
  986SOL    HW2 4175   1.399   1.012   7.628  0.8912 -0.8957  0.4421
  987SOL     OW 4176   0.900   1.264   8.149 -0.2585  0.4065 -0.8876
  987SOL    HW1 4177   0.908   1.288   8.241 -0.0262  0.0853 -0.8231
  987SOL    HW2 4178   0.934   1.175   8.144 -0.2350  0.4354 -1.2903
  988SOL     OW 4179   0.044   1.254   8.170  0.2628  0.7415 -0.5611
  988SOL    HW1 4180   0.025   1.167   8.206  0.5770 -0.1131 -2.3452
  988SOL    HW2 4181   0.093   1.237   8.090 -2.6367  2.3347 -2.9024
  989SOL     OW 4182   0.250   0.581   8.019  0.1817 -0.2924 -0.1075
  989SOL    HW1 4183   0.283   0.670   8.010 -1.8370  0.4522 -0.6075
  989SOL    HW2 4184   0.295   0.547   8.097  0.5108  1.3672  0.4698
  990SOL     OW 4185   1.408   0.169   0.031  0.0579  0.9955 -0.0163
  990SOL    HW1 4186   1.403   0.074   0.018 -0.1408  1.2093 -1.7422
  990SOL    HW2 4187   1.498   0.185   0.060 -0.9146 -0.0708  4.3461
  991SOL     OW 4188   0.129   1.101   7.686  0.3423  0.3494  0.1681
  991SOL    HW1 4189   0.096   1.154   7.614  2.9201  2.0134  0.0903
  991SOL    HW2 4190   0.174   1.028   7.644 -0.8916 -0.4641  0.2160
  992SOL     OW 4191   8.651   1.600   8.410  0.6997  0.5296 -0.2443
  992SOL    HW1 4192   8.699   1.591   8.327  2.1225  0.5189  0.5606
  992SOL    HW2 4193   8.616   1.689   8.409  1.7092  0.9282 -0.3365
  993SOL     OW 4194   0.539   1.719   7.921 -0.0822 -0.8694 -0.2199
  993SOL    HW1 4195   0.587   1.789   7.965  0.2263 -0.2371 -1.5354
  993SOL    HW2 4196   0.447   1.746   7.928 -0.0716 -0.9519  0.3212
  994SOL     OW 4197   0.718   0.932   0.006 -1.0544 -0.5702 -0.1204
  994SOL    HW1 4198   0.771   0.855  -0.018  1.5211  1.0267  0.0554
  994SOL    HW2 4199   0.697   0.973  -0.078 -0.6451 -0.3519 -0.1166
  995SOL     OW 4200   0.009   1.015   8.359  0.2462  0.3083 -0.0556
  995SOL    HW1 4201  -0.055   0.945   8.344  1.7095 -1.1060  0.0446
  995SOL    HW2 4202   0.043   0.998   8.447  1.9399  0.0244 -0.7292
  996SOL     OW 4203   1.145   0.680   7.454 -0.2854 -0.3859 -0.1933
  996SOL    HW1 4204   1.059   0.703   7.419  0.1746 -0.8213 -1.6511
  996SOL    HW2 4205   1.161   0.591   7.424  0.1572 -0.7783  1.1215
  997SOL     OW 4206   1.570   1.007   8.528 -0.2412 -0.1152  0.4331
  997SOL    HW1 4207   1.601   0.998   8.618 -0.9443 -1.5779  0.5447
  997SOL    HW2 4208   1.649   0.997   8.475  0.4293  2.1349  0.8803
  998SOL     OW 4209   0.671   0.557   8.825  0.1373  0.4298 -0.9498
  998SOL    HW1 4210   0.619   0.479   8.845 -0.9223  0.7723 -2.2299
  998SOL    HW2 4211   0.607   0.627   8.814  0.8401  0.8676 -2.5856
  999SOL     OW 4212   0.951   1.871   8.308 -0.1789  0.4198 -0.1792
  999SOL    HW1 4213   1.002   1.906   8.381  0.8869 -1.8635  0.2361
  999SOL    HW2 4214   0.860   1.886   8.335  0.1987  0.1814  1.3410
 1000SOL     OW 4215   0.948   0.612   7.684  0.1806  0.1831  0.5807
 1000SOL    HW1 4216   0.999   0.628   7.604 -1.0127 -1.5982 -0.6055
 1000SOL    HW2 4217   1.011   0.625   7.755  1.9004 -0.4445 -0.7440
 1001SOL     OW 4218   0.412   1.313   8.842 -0.1035  0.3144 -0.3843
 1001SOL    HW1 4219   0.380   1.390   8.795 -0.6753 -0.1482 -0.7696
 1001SOL    HW2 4220   0.347   1.299   8.911  0.7533  1.0152  0.5812
 1002SOL     OW 4221   1.380   0.840   0.121 -0.0529  0.3094 -0.2424
 1002SOL    HW1 4222   1.309   0.804   0.068 -0.1934  0.0289  0.1334
 1002SOL    HW2 4223   1.351   0.929   0.143  0.3421  0.7026 -1.2606
 1003SOL     OW 4224   1.434   0.786   7.901  0.0559 -0.0686 -0.0575
 1003SOL    HW1 4225   1.394   0.782   7.814 -0.0221  2.2149 -0.1885
 1003SOL    HW2 4226   1.439   0.695   7.929  0.9039 -0.9609 -2.8051
 1004SOL     OW 4227   1.958   1.972   8.796 -0.2943 -0.0730 -0.4058
 1004SOL    HW1 4228   1.939   1.952   8.704 -0.1024 -2.2587 -0.0139
 1004SOL    HW2 4229   1.914   1.903   8.845  0.5623  0.4056  1.0911
 1005SOL     OW 4230   1.498   1.810   8.118  0.0846 -0.1213 -0.0259
 1005SOL    HW1 4231   1.574   1.754   8.105 -1.1113 -1.7708 -0.1647
 1005SOL    HW2 4232   1.450   1.770   8.190 -2.1580 -0.8362 -1.8136
 1006SOL     OW 4233   8.208   1.117   8.139  0.1154  0.4674 -0.2611
 1006SOL    HW1 4234   8.223   1.046   8.077  0.7812 -1.7024  2.2352
 1006SOL    HW2 4235   8.286   1.173   8.130  0.1322  0.2749 -1.4368
 1007SOL     OW 4236   1.996   0.681   8.024 -0.2538 -0.0198 -0.4604
 1007SOL    HW1 4237   2.034   0.677   7.936 -1.0776 -1.8897 -0.7523
 1007SOL    HW2 4238   1.908   0.717   8.011  0.9329  3.5622  0.1339
 1008SOL     OW 4239   1.405   1.483   8.155 -0.2657  0.5509  0.2445
 1008SOL    HW1 4240   1.480   1.444   8.200  0.9187 -2.1204 -3.6362
 1008SOL    HW2 4241   1.345   1.410   8.138 -1.6506  1.8360 -0.6931
 1009SOL     OW 4242   1.679   1.027   7.685 -0.4038 -0.1210 -0.4675
 1009SOL    HW1 4243   1.699   1.087   7.757  0.5400  0.2315 -1.0098
 1009SOL    HW2 4244   1.625   1.078   7.625 -1.1407 -0.3963 -0.0479
 1010SOL     OW 4245   0.304   1.909   7.074 -0.1024  0.1124  0.0755
 1010SOL    HW1 4246   0.306   1.816   7.052  0.4998 -0.0339  0.7113
 1010SOL    HW2 4247   0.379   1.946   7.027 -0.5641  0.3499 -0.4796
 1011SOL     OW 4248   2.108   0.412   8.463 -0.2856  0.5283  0.4725
 1011SOL    HW1 4249   2.199   0.391   8.441 -0.0505  1.5021  0.4771
 1011SOL    HW2 4250   2.057   0.380   8.389  0.2424  1.5321 -0.3349
 1012SOL     OW 4251   0.166   0.238   8.214  0.4303 -0.0421 -0.5047
 1012SOL    HW1 4252   0.258   0.266   8.213  0.1929  0.7927  0.0355
 1012SOL    HW2 4253   0.139   0.244   8.122  1.0613 -0.8320 -0.7559
 1013SOL     OW 4254   1.135   1.318   7.337  0.5638  0.5489  0.4265
 1013SOL    HW1 4255   1.196   1.252   7.303  0.8889  1.4439 -0.8286
 1013SOL    HW2 4256   1.187   1.368   7.400  0.3298 -0.3288  1.3484
 1014SOL     OW 4257   0.866   1.224   0.500  0.3033  0.1509  0.5595
 1014SOL    HW1 4258   0.880   1.211   0.593 -0.5775 -1.2214  0.5229
 1014SOL    HW2 4259   0.861   1.136   0.463 -2.2545  0.5515 -0.2905
 1015SOL     OW 4260   1.187   1.273   7.783 -0.2832 -0.3234 -0.1245
 1015SOL    HW1 4261   1.193   1.189   7.738 -1.7345  0.1242 -1.2142
 1015SOL    HW2 4262   1.123   1.323   7.733  0.9985  1.6818  0.1465
 1016SOL     OW 4263   1.396   1.569   7.236  0.0880  0.2235  0.5076
 1016SOL    HW1 4264   1.461   1.499   7.240  0.7673  0.8204  0.0496
 1016SOL    HW2 4265   1.447   1.649   7.233 -0.6420  0.6563 -0.9466
 1017SOL     OW 4266   1.733   1.306   0.029  0.4383  0.0162 -0.3211
 1017SOL    HW1 4267   1.781   1.254  -0.036  1.6682  1.4145 -0.6105
 1017SOL    HW2 4268   1.679   1.243   0.076 -0.0569 -1.1254 -2.3257
 1018SOL     OW 4269   0.991   1.005   8.044  0.1814  0.0405 -0.1797
 1018SOL    HW1 4270   0.911   0.966   8.078 -0.5748  0.3689 -1.4987
 1018SOL    HW2 4271   1.024   0.941   7.981  0.8186  0.0205  0.1684
 1019SOL     OW 4272   1.242   0.362   7.892 -0.3637 -0.2194  0.8676
 1019SOL    HW1 4273   1.291   0.343   7.812  0.1640 -0.9626  1.3555
 1019SOL    HW2 4274   1.275   0.298   7.956 -0.2619  0.8141  1.8824
 1020SOL     OW 4275   0.644   1.283   8.035 -0.1607  0.1591  0.1420
 1020SOL    HW1 4276   0.708   1.284   8.106 -0.1727  0.8437  0.1581
 1020SOL    HW2 4277   0.678   1.348   7.973 -0.6763  0.2987  0.0034
 1021SOL     OW 4278   1.974   0.778   8.686 -0.0658  0.4362  0.1135
 1021SOL    HW1 4279   1.990   0.733   8.602 -1.1836 -0.1590  0.2003
 1021SOL    HW2 4280   2.044   0.843   8.691  1.7080 -1.3336  0.0104
 1022SOL     OW 4281   0.444   1.545   7.485  0.4247  0.3135  0.4542
 1022SOL    HW1 4282   0.413   1.533   7.575  0.2107 -0.9887  0.2353
 1022SOL    HW2 4283   0.364   1.558   7.434  0.5209  0.7116  0.4044
 1023SOL     OW 4284   0.026   8.634   7.716 -0.3811  0.4441  0.8057
 1023SOL    HW1 4285  -0.009   8.671   7.634 -0.3997 -1.4639 -0.1170
 1023SOL    HW2 4286  -0.043   8.651   7.780 -0.6933  1.3396  0.2632
 1024SOL     OW 4287   0.070   0.046   7.132 -0.1308  0.1584  0.2665
 1024SOL    HW1 4288  -0.004   0.100   7.160 -0.5307  0.0125 -0.4818
 1024SOL    HW2 4289   0.039  -0.044   7.136  0.1834  0.0549  0.4597
 1025SOL     OW 4290   1.318   1.477   7.493  0.0938  0.0509 -0.6055
 1025SOL    HW1 4291   1.407   1.447   7.513  0.0984  0.1962 -0.3974
 1025SOL    HW2 4292   1.325   1.518   7.407  0.5769  1.5283  0.1094
 1026SOL     OW 4293   0.689   0.835   0.237  0.2223  0.1987 -0.1869
 1026SOL    HW1 4294   0.686   0.888   0.158 -1.4471  1.0174  0.3839
 1026SOL    HW2 4295   0.732   0.754   0.210  0.7547  0.9320 -1.6241
 1027SOL     OW 4296   1.418   1.902   8.534 -0.2577 -0.6145  0.5163
 1027SOL    HW1 4297   1.395   1.825   8.483  1.6326 -1.8064  1.3304
 1027SOL    HW2 4298   1.476   1.953   8.477 -0.6139 -0.3753  0.3710
 1028SOL     OW 4299   0.469   1.833   8.548  0.1947 -0.5065 -0.3669
 1028SOL    HW1 4300   0.403   1.883   8.596  0.2917 -0.1153 -0.6386
 1028SOL    HW2 4301   0.516   1.898   8.496 -0.0719 -0.9460 -1.1863
 1029SOL     OW 4302   1.819   1.348   8.441 -0.2226  0.6046  0.3523
 1029SOL    HW1 4303   1.808   1.277   8.505 -0.3137 -0.4748 -0.8212
 1029SOL    HW2 4304   1.889   1.402   8.478  1.2906 -1.2234  0.3451
 1030SOL     OW 4305   1.927   0.459   7.170 -0.3861 -0.8139 -0.3246
 1030SOL    HW1 4306   1.901   0.371   7.197  0.8430 -1.2751 -0.5850
 1030SOL    HW2 4307   2.017   0.449   7.139 -0.0956  0.6046 -0.0049
 1031SOL     OW 4308   0.346   0.528   8.265  0.4281  1.2682  0.5280
 1031SOL    HW1 4309   0.269   0.532   8.323  1.4878  0.2229  2.1008
 1031SOL    HW2 4310   0.395   0.452   8.297  1.1836  0.7737 -1.6608
 1032SOL     OW 4311   1.900   0.892   0.129  0.0648 -0.5598 -0.2232
 1032SOL    HW1 4312   1.852   0.963   0.172  0.9452  0.6159 -1.0923
 1032SOL    HW2 4313   1.967   0.937   0.078  2.2855 -2.1408  1.1390
 1033SOL     OW 4314   0.566   1.364   7.269  0.3489  0.2193  0.1806
 1033SOL    HW1 4315   0.541   1.411   7.348  2.3061  1.5537  0.0598
 1033SOL    HW2 4316   0.654   1.395   7.249  2.0063 -3.7699  0.3207
 1034SOL     OW 4317   0.725   1.280   8.515  0.1576 -0.1199  0.7065
 1034SOL    HW1 4318   0.757   1.337   8.445 -0.5784 -0.0589  0.4128
 1034SOL    HW2 4319   0.777   1.200   8.506  0.7181  0.2449  0.6904
 1035SOL     OW 4320   0.744   0.944   8.142  0.2014 -0.1820 -0.4906
 1035SOL    HW1 4321   0.650   0.955   8.125 -0.3137  1.8449  2.7995
 1035SOL    HW2 4322   0.750   0.861   8.189 -0.0149 -0.0410 -0.2134
 1036SOL     OW 4323   1.100   1.061   7.502 -0.3135 -0.3986 -0.0742
 1036SOL    HW1 4324   1.084   1.121   7.429 -1.3690 -0.5618  0.0131
 1036SOL    HW2 4325   1.029   0.998   7.497  1.9107 -2.9802 -1.4869
 1037SOL     OW 4326   1.658   1.621   8.405 -0.3014 -0.2616 -0.2504
 1037SOL    HW1 4327   1.691   1.567   8.333 -2.2253  1.0525 -2.2873
 1037SOL    HW2 4328   1.565   1.599   8.410 -0.8826  1.9628 -0.3718
 1038SOL     OW 4329   0.049   0.929   8.097 -0.2397  0.3107  0.1951
 1038SOL    HW1 4330   0.056   0.922   8.192 -1.0378  1.3232  0.3438
 1038SOL    HW2 4331   0.102   1.005   8.074  1.0544 -0.7269 -0.3431
 1039SOL     OW 4332   1.731   8.846   8.586 -0.9274  0.1227 -0.3098
 1039SOL    HW1 4333   1.782   8.793   8.524  1.4220 -1.4218  2.6491
 1039SOL    HW2 4334   1.783   8.926   8.596 -0.7632 -0.0616  0.3413
 1040SOL     OW 4335   0.423   0.047   8.035 -0.3362 -0.3668  0.0459
 1040SOL    HW1 4336   0.517   0.043   8.015  0.1190  1.7356  1.4365
 1040SOL    HW2 4337   0.381   0.056   7.950  0.5964 -2.2743 -0.6790
 1041SOL     OW 4338   1.508   1.678   0.152  0.4009  0.5058  0.3304
 1041SOL    HW1 4339   1.514   1.720   0.065 -1.1831  1.6622  0.7347
 1041SOL    HW2 4340   1.451   1.603   0.139  0.4825  0.4469  0.3072
 1042SOL     OW 4341   8.686   0.922   8.650  0.0405 -0.6601 -0.0662
 1042SOL    HW1 4342   8.636   0.926   8.568  0.1588  1.4502 -0.0886
 1042SOL    HW2 4343   8.633   0.866   8.707 -0.5352 -1.3761 -1.2529
 1043SOL     OW 4344   0.736   1.538   7.863 -0.5476  0.8860  0.1558
 1043SOL    HW1 4345   0.663   1.594   7.888 -0.2421  1.4719 -0.2507
 1043SOL    HW2 4346   0.763   1.570   7.777  2.2082  2.7264  1.5783
 1044SOL     OW 4347   1.558   0.363   8.634 -0.5221  0.0144  0.2344
 1044SOL    HW1 4348   1.471   0.387   8.601 -0.4417  1.0633  0.7456
 1044SOL    HW2 4349   1.558   0.392   8.725  0.4783  0.3116  0.1492
 1045SOL     OW 4350   1.352   0.287   8.224  0.4432 -0.3044  0.1206
 1045SOL    HW1 4351   1.406   0.254   8.295  1.2629 -4.2040 -2.0150
 1045SOL    HW2 4352   1.265   0.249   8.240  0.2440  0.0219 -0.1765
 1046SOL     OW 4353   0.712   1.169   7.642 -0.1728 -0.3092  0.2919
 1046SOL    HW1 4354   0.768   1.198   7.570  0.0203 -1.6500 -0.1177
 1046SOL    HW2 4355   0.646   1.238   7.650  1.3456  1.1807  0.5992
 1047SOL     OW 4356   1.420   1.483   8.476  0.2782 -0.5966 -0.0174
 1047SOL    HW1 4357   1.400   1.445   8.561 -0.7335  1.4950  0.7538
 1047SOL    HW2 4358   1.368   1.434   8.414 -0.7270 -0.6982  0.8882
 1048SOL     OW 4359   1.442   8.520   7.793  0.4548 -0.5270 -0.6766
 1048SOL    HW1 4360   1.450   8.459   7.720 -0.0031  0.8489 -1.9409
 1048SOL    HW2 4361   1.508   8.587   7.775 -0.1499  0.2065 -0.2279
 1049SOL     OW 4362   1.149   0.765   8.505  0.2942 -0.1780  0.0984
 1049SOL    HW1 4363   1.179   0.819   8.578 -0.0507 -0.2182  0.2698
 1049SOL    HW2 4364   1.053   0.772   8.508  0.2579 -0.6532  0.0050
 1050SOL     OW 4365   1.791   0.360   8.497  0.1327 -0.0993  0.3016
 1050SOL    HW1 4366   1.730   0.343   8.569 -0.7016 -0.4947 -0.4801
 1050SOL    HW2 4367   1.747   0.425   8.443  1.1160  0.8131  0.5678
 1051SOL     OW 4368   0.285   0.892   7.614  0.0298 -0.4465  0.3487
 1051SOL    HW1 4369   0.366   0.941   7.598 -0.0808 -0.4396 -0.2097
 1051SOL    HW2 4370   0.291   0.866   7.705  0.3308  0.1710  0.5148
 1052SOL     OW 4371   0.089   2.636   8.756  0.1646 -0.1811  0.5306
 1052SOL    HW1 4372   0.005   2.619   8.799 -0.9467 -1.4179 -1.9150
 1052SOL    HW2 4373   0.067   2.687   8.679  1.8167  0.2710  0.3157
 1053SOL     OW 4374   0.144   2.321   0.878  0.1607 -0.1915 -0.0409
 1053SOL    HW1 4375   0.117   2.381   0.947 -0.2167  0.5361 -0.7922
 1053SOL    HW2 4376   0.221   2.362   0.840  0.3581 -0.5783 -0.0629
 1054SOL     OW 4377   0.317   1.998   0.179  0.1073  0.2937 -0.5345
 1054SOL    HW1 4378   0.267   1.927   0.220  0.9060 -1.1789 -1.9672
 1054SOL    HW2 4379   0.382   2.022   0.245  0.0197 -0.5186 -0.1384
 1055SOL     OW 4380   0.345   3.124   1.597 -0.3730  0.2661  0.7851
 1055SOL    HW1 4381   0.288   3.135   1.521  0.7264 -0.4962 -0.1769
 1055SOL    HW2 4382   0.393   3.207   1.603  2.4536 -0.9575 -1.8920
 1056SOL     OW 4383   1.940   3.280   1.272 -0.4482  0.2614 -0.1005
 1056SOL    HW1 4384   1.893   3.197   1.277 -3.9499  2.0488 -0.3700
 1056SOL    HW2 4385   1.938   3.303   1.179  1.4938  0.2112 -0.1984
 1057SOL     OW 4386   1.453   2.614   8.767 -0.3720  0.3178 -0.6313
 1057SOL    HW1 4387   1.383   2.570   8.719 -0.7930  0.3624 -0.0686
 1057SOL    HW2 4388   1.415   2.632   8.853  0.7389 -0.7979  0.1240
 1058SOL     OW 4389   1.879   2.592   0.187  0.4081 -0.4262 -0.0608
 1058SOL    HW1 4390   1.951   2.624   0.132 -0.3993  1.2327 -0.2122
 1058SOL    HW2 4391   1.825   2.669   0.202 -0.3903 -1.2586  1.5401
 1059SOL     OW 4392   0.643   3.196   1.383  0.5957 -0.2836 -0.1148
 1059SOL    HW1 4393   0.614   3.207   1.474  1.0417 -0.5961  0.0658
 1059SOL    HW2 4394   0.614   3.276   1.339 -0.8953 -0.7514 -0.0311
 1060SOL     OW 4395   0.825   2.541   2.143  0.1590  0.0923  0.0737
 1060SOL    HW1 4396   0.788   2.607   2.202  0.9154  0.3185  0.3049
 1060SOL    HW2 4397   0.904   2.581   2.108 -0.7794  0.3499 -1.8832
 1061SOL     OW 4398   1.027   2.898   0.962  0.0048 -0.0117  0.1031
 1061SOL    HW1 4399   1.090   2.970   0.963  2.1817 -1.7711 -0.2542
 1061SOL    HW2 4400   0.996   2.894   0.871 -0.8592  1.0091  0.3324
 1062SOL     OW 4401   0.863   3.079   1.515  0.5980 -0.1262 -0.3136
 1062SOL    HW1 4402   0.835   3.083   1.607 -0.2944  1.9713 -0.6106
 1062SOL    HW2 4403   0.794   3.126   1.468  2.6601  1.7510 -1.6231
 1063SOL     OW 4404   0.201   3.109   1.360  0.5968 -0.1279 -0.2964
 1063SOL    HW1 4405   0.105   3.111   1.364  0.6406  0.0196  0.9985
 1063SOL    HW2 4406   0.222   3.018   1.339  0.1762 -0.1777 -0.5164
 1064SOL     OW 4407   1.478   3.034   1.639  0.2743 -0.0558  0.1020
 1064SOL    HW1 4408   1.513   3.104   1.695  0.2366  0.1778 -0.1688
 1064SOL    HW2 4409   1.542   3.026   1.569 -0.3772  0.6028 -0.5845
 1065SOL     OW 4410   0.484   2.466   1.085 -0.0596 -0.3653  0.2577
 1065SOL    HW1 4411   0.534   2.492   1.162 -0.3920 -0.8023  0.6198
 1065SOL    HW2 4412   0.546   2.474   1.013  0.8783 -1.9798  0.8491
 1066SOL     OW 4413   1.027   2.587   0.850  0.8624  0.0974 -0.1980
 1066SOL    HW1 4414   1.030   2.637   0.931 -1.0909 -0.7893  0.5026
 1066SOL    HW2 4415   0.990   2.647   0.785  0.3693  0.1632  0.1393
 1067SOL     OW 4416   8.823   3.506   0.609  0.0932 -0.1187  0.2475
 1067SOL    HW1 4417   8.861   3.593   0.597  2.3022 -0.9556  0.5509
 1067SOL    HW2 4418   8.819   3.470   0.520  1.9938 -0.7408  0.3683
 1068SOL     OW 4419   1.054   3.426   2.122  0.0231  0.0013  0.5308
 1068SOL    HW1 4420   0.972   3.418   2.173 -0.3093 -0.7113 -0.1054
 1068SOL    HW2 4421   1.044   3.364   2.051  0.1640  1.5117 -0.8666
 1069SOL     OW 4422   0.390   3.113   0.276  0.0296  0.1756  0.1807
 1069SOL    HW1 4423   0.460   3.179   0.272 -0.5178  0.7835  0.4880
 1069SOL    HW2 4424   0.339   3.137   0.352 -0.8482  0.0586 -0.3615
 1070SOL     OW 4425   8.600   2.563   0.968 -0.4205 -0.3985 -0.1273
 1070SOL    HW1 4426   8.539   2.586   1.038 -1.8898 -0.3636 -1.3469
 1070SOL    HW2 4427   8.677   2.529   1.013 -1.1494 -0.0119  1.4966
 1071SOL     OW 4428   0.460   3.849   1.428  0.3489  0.1524  0.1369
 1071SOL    HW1 4429   0.456   3.789   1.502  2.6785 -0.0432  0.1793
 1071SOL    HW2 4430   0.523   3.916   1.454 -1.0687  1.8100 -0.5064
 1072SOL     OW 4431   0.382   2.862   0.174  0.0456  0.4280  0.4992
 1072SOL    HW1 4432   0.459   2.890   0.124 -1.1185  2.1820 -0.4332
 1072SOL    HW2 4433   0.352   2.942   0.218 -3.3160  0.7897 -2.0676
 1073SOL     OW 4434   1.612   2.027   1.295 -0.3410 -0.6549  0.7254
 1073SOL    HW1 4435   1.596   1.967   1.222 -1.4108 -0.1608  0.5431
 1073SOL    HW2 4436   1.526   2.040   1.335 -0.9507  3.5162 -1.3935
 1074SOL     OW 4437   8.602   2.523   0.378  0.1421 -0.5685  0.7587
 1074SOL    HW1 4438   8.563   2.597   0.331  0.2814  0.1643  1.7797
 1074SOL    HW2 4439   8.692   2.549   0.395 -0.2568 -0.2327  2.5944
 1075SOL     OW 4440   2.324   3.930   0.485 -0.1031  0.0313 -0.4583
 1075SOL    HW1 4441   2.258   3.999   0.472  2.0988  2.1793 -0.9530
 1075SOL    HW2 4442   2.382   3.965   0.552  2.0884 -0.4987 -1.9873
 1076SOL     OW 4443   0.180   3.395   8.483 -0.5248 -0.0303 -0.9618
 1076SOL    HW1 4444   0.245   3.418   8.549 -1.0375  1.9668 -1.1084
 1076SOL    HW2 4445   0.127   3.328   8.525  0.5171 -0.4082 -0.1907
 1077SOL     OW 4446   1.398   2.357   0.625  0.3652 -0.3361  0.0092
 1077SOL    HW1 4447   1.394   2.265   0.598 -0.4991  0.0180 -1.1438
 1077SOL    HW2 4448   1.415   2.353   0.719 -2.4743 -1.7581  0.5881
 1078SOL     OW 4449   1.833   2.977   0.471  0.1579 -0.3025 -0.4588
 1078SOL    HW1 4450   1.916   2.942   0.438 -0.1509  0.9090 -2.7068
 1078SOL    HW2 4451   1.837   2.964   0.565  2.4953 -1.1286 -0.6232
 1079SOL     OW 4452   0.342   2.632   1.709  0.2134  0.0615  0.0999
 1079SOL    HW1 4453   0.304   2.718   1.723 -0.7783 -0.1613 -1.0279
 1079SOL    HW2 4454   0.408   2.623   1.777 -3.8418 -0.8165  4.4419
 1080SOL     OW 4455   0.403   3.291   0.808 -0.0008 -0.3513  0.2068
 1080SOL    HW1 4456   0.378   3.375   0.846 -0.9287 -0.7683  0.5546
 1080SOL    HW2 4457   0.376   3.226   0.873 -2.2538 -1.1288 -1.3538
 1081SOL     OW 4458   1.308   3.134   1.252 -0.0663  0.1249 -0.0209
 1081SOL    HW1 4459   1.227   3.085   1.268  1.0645 -1.4414  1.3020
 1081SOL    HW2 4460   1.343   3.097   1.171 -0.0115 -0.1697  0.1334
 1082SOL     OW 4461   0.741   2.239   0.266 -0.1475  0.2539  0.3680
 1082SOL    HW1 4462   0.696   2.157   0.286  2.0834 -1.4095 -0.9778
 1082SOL    HW2 4463   0.819   2.238   0.322  0.2332  1.1222 -0.1275
 1083SOL     OW 4464   0.273   2.602   1.388 -0.3407 -0.0455  0.0937
 1083SOL    HW1 4465   0.361   2.571   1.410 -1.0382 -2.8634 -0.6739
 1083SOL    HW2 4466   0.222   2.586   1.467 -1.3145 -3.8043 -1.0749
 1084SOL     OW 4467   1.647   3.128   0.377 -0.5226  0.9503 -0.3691
 1084SOL    HW1 4468   1.727   3.078   0.388 -1.2637  0.1667  1.8186
 1084SOL    HW2 4469   1.615   3.103   0.290  1.1378  0.6532 -0.9293
 1085SOL     OW 4470   1.031   3.415   1.482  0.4133 -0.1005  0.1369
 1085SOL    HW1 4471   1.074   3.379   1.560  1.3208  0.8121  0.0758
 1085SOL    HW2 4472   1.021   3.508   1.502 -0.0967 -0.0123 -0.5125
 1086SOL     OW 4473   0.331   2.166   1.714  0.8897  0.2531 -0.1728
 1086SOL    HW1 4474   0.284   2.239   1.673  0.8010  0.1211 -0.3082
 1086SOL    HW2 4475   0.377   2.124   1.641  0.7585  0.0372 -0.1311
 1087SOL     OW 4476   1.678   3.320   0.854  0.1987 -0.2436 -0.0826
 1087SOL    HW1 4477   1.673   3.283   0.766 -3.6009  1.1941 -0.6615
 1087SOL    HW2 4478   1.670   3.415   0.840 -1.0373 -0.0212  1.7914
 1088SOL     OW 4479   1.318   3.669   0.952 -0.1032 -0.5406  1.3128
 1088SOL    HW1 4480   1.237   3.670   1.004 -1.1700 -1.6268 -0.2141
 1088SOL    HW2 4481   1.363   3.589   0.978  0.5055  0.0624  2.1603
 1089SOL     OW 4482   0.314   2.600   0.228 -0.1925 -0.2260  0.0757
 1089SOL    HW1 4483   0.313   2.586   0.323 -0.7058  0.4514  0.1799
 1089SOL    HW2 4484   0.335   2.693   0.218 -0.4133 -0.2340 -0.4648
 1090SOL     OW 4485   1.285   2.642   0.781 -0.4882  0.1748 -0.7378
 1090SOL    HW1 4486   1.316   2.588   0.707 -1.1349 -2.0793  0.5322
 1090SOL    HW2 4487   1.197   2.608   0.800  0.5789 -1.1318  2.6022
 1091SOL     OW 4488   1.935   3.440   0.477  0.2449  0.0367 -0.0687
 1091SOL    HW1 4489   1.890   3.466   0.397  0.5293  0.9111  0.0507
 1091SOL    HW2 4490   1.890   3.359   0.503  0.9879 -0.9915 -1.7933
 1092SOL     OW 4491   1.062   2.426   1.646 -0.1473 -0.1830  0.0876
 1092SOL    HW1 4492   1.076   2.387   1.560  1.4849 -0.4964  0.4691
 1092SOL    HW2 4493   1.009   2.504   1.629 -0.1844 -0.4602 -1.1344
 1093SOL     OW 4494   1.237   2.303   1.841 -0.0177 -0.3313  0.3198
 1093SOL    HW1 4495   1.194   2.362   1.779 -2.1464  0.1724  2.1597
 1093SOL    HW2 4496   1.330   2.325   1.833 -0.0424 -0.9399 -3.2700
 1094SOL     OW 4497   0.903   2.841   1.216 -0.2143  0.1646 -0.3350
 1094SOL    HW1 4498   0.816   2.881   1.211 -0.5277 -0.5763 -0.8223
 1094SOL    HW2 4499   0.940   2.852   1.129 -1.3315 -2.8921 -1.2862
 1095SOL     OW 4500   1.153   2.588   1.109  0.8842 -0.3582 -0.1236
 1095SOL    HW1 4501   1.170   2.597   1.203  0.7636 -1.2669 -0.0007
 1095SOL    HW2 4502   1.186   2.501   1.087  1.1638 -0.0458 -0.9899
 1096SOL     OW 4503   1.203   2.845   0.492 -0.0440 -0.0483  0.3952
 1096SOL    HW1 4504   1.255   2.898   0.433 -0.9647  1.6172  0.9983
 1096SOL    HW2 4505   1.131   2.812   0.438 -1.1310  1.8270  0.5719
 1097SOL     OW 4506   8.784   2.641   0.617 -0.0027  0.0372  0.1074
 1097SOL    HW1 4507   8.839   2.718   0.612 -0.8566  0.7940  1.6635
 1097SOL    HW2 4508   8.695   2.674   0.602 -0.1895 -0.9607 -1.1380
 1098SOL     OW 4509   0.045   3.660   1.767  0.0487  0.1078  0.1229
 1098SOL    HW1 4510   0.067   3.570   1.792  1.8270 -0.0399 -1.7726
 1098SOL    HW2 4511  -0.043   3.653   1.729  0.0320 -0.7520  0.2971
 1099SOL     OW 4512   1.004   2.721   0.340 -0.2995  0.4962 -0.3562
 1099SOL    HW1 4513   0.983   2.813   0.322  0.0801  0.5514 -0.5368
 1099SOL    HW2 4514   0.936   2.692   0.401 -0.3054  0.9592 -0.1384
 1100SOL     OW 4515   1.516   2.023   2.176 -0.0994  0.2484 -0.0016
 1100SOL    HW1 4516   1.570   2.099   2.196 -0.2103  0.1170  0.8635
 1100SOL    HW2 4517   1.567   1.972   2.114 -0.8053  1.9127 -2.0517
 1101SOL     OW 4518   1.400   3.261   8.784 -0.0251  0.3615 -0.1013
 1101SOL    HW1 4519   1.421   3.294   8.696  0.2426 -2.9049 -1.4114
 1101SOL    HW2 4520   1.309   3.230   8.777  0.2206 -0.5495  0.5296
 1102SOL     OW 4521   0.396   2.445   0.767  0.0344  0.0113  0.3148
 1102SOL    HW1 4522   0.423   2.404   0.685 -0.2712 -0.5863  0.5148
 1102SOL    HW2 4523   0.477   2.449   0.819  0.2849  0.6336 -0.1095
 1103SOL     OW 4524   1.167   3.150   8.695 -0.2469 -0.1491 -0.0861
 1103SOL    HW1 4525   1.149   3.096   8.618  0.9130  2.6062 -2.4719
 1103SOL    HW2 4526   1.084   3.191   8.716 -0.3878 -0.2755 -0.3930
 1104SOL     OW 4527   0.304   3.604   0.849 -0.0411  0.1877 -0.5611
 1104SOL    HW1 4528   0.220   3.649   0.842  0.4919  1.0189 -1.8056
 1104SOL    HW2 4529   0.346   3.617   0.764  0.4393 -2.0749 -0.7327
 1105SOL     OW 4530   1.743   3.069   0.961 -0.4345 -0.0436 -0.3269
 1105SOL    HW1 4531   1.794   3.029   0.891  0.5221 -1.4414  1.1164
 1105SOL    HW2 4532   1.756   3.163   0.949  2.4481 -0.3230 -0.1161
 1106SOL     OW 4533   1.067   3.189   1.684  0.1046  0.0445  0.1385
 1106SOL    HW1 4534   1.140   3.190   1.621  0.0400  0.6836  0.0684
 1106SOL    HW2 4535   0.989   3.177   1.630  0.0780  0.2685  0.1266
 1107SOL     OW 4536   0.391   2.608   8.808  0.1159 -0.3903 -0.3467
 1107SOL    HW1 4537   0.341   2.604   8.890  0.1974 -0.3201 -0.2938
 1107SOL    HW2 4538   0.368   2.692   8.769  0.7206 -0.0514  0.0131
 1108SOL     OW 4539   1.621   2.602   1.084 -0.0592 -0.4836 -0.2711
 1108SOL    HW1 4540   1.550   2.540   1.102 -1.4290  0.9685 -0.4755
 1108SOL    HW2 4541   1.599   2.639   0.998  0.5517  0.5269 -0.0089
 1109SOL     OW 4542   0.566   3.308   1.655  1.0496  0.4013 -0.6746
 1109SOL    HW1 4543   0.636   3.360   1.616 -0.5629  1.8362 -1.7958
 1109SOL    HW2 4544   0.529   3.364   1.724 -0.0421  0.3760 -1.2063
 1110SOL     OW 4545   1.414   3.716   0.420 -0.1306 -0.1428  0.1659
 1110SOL    HW1 4546   1.432   3.645   0.359 -2.1045  0.2670 -0.9982
 1110SOL    HW2 4547   1.395   3.792   0.364 -1.2249  0.4580  1.2898
 1111SOL     OW 4548   0.183   2.303   1.407  0.1470 -0.4042  0.0471
 1111SOL    HW1 4549   0.096   2.295   1.367  0.4987 -0.7779 -0.6504
 1111SOL    HW2 4550   0.167   2.351   1.488 -0.4027  1.5746 -1.1711
 1112SOL     OW 4551   1.488   3.509   0.268 -0.2121  0.6524 -0.0343
 1112SOL    HW1 4552   1.578   3.512   0.235  0.2529  3.1184  1.2361
 1112SOL    HW2 4553   1.466   3.416   0.269  1.8511  0.0736 -1.5776
 1113SOL     OW 4554   0.288   3.148   8.811  0.9627 -0.3051  0.2010
 1113SOL    HW1 4555   0.284   3.103   8.896  0.7583  0.3842  0.5666
 1113SOL    HW2 4556   0.307   3.239   8.833  2.4914 -0.4124 -0.5937
 1114SOL     OW 4557   1.038   2.033   0.348  0.4595  0.4870  0.0930
 1114SOL    HW1 4558   0.971   2.049   0.414  1.8843 -0.7044  1.9323
 1114SOL    HW2 4559   1.062   2.120   0.316  0.2271  1.1634  1.6633
 1115SOL     OW 4560   8.792   3.121   1.385 -0.3162  0.0605 -0.0429
 1115SOL    HW1 4561   8.750   3.123   1.300 -1.2195 -1.4086  0.3326
 1115SOL    HW2 4562   8.743   3.185   1.438  0.3600  1.1033 -0.6449
 1116SOL     OW 4563   0.636   3.518   0.755  0.3351  0.1931 -0.3522
 1116SOL    HW1 4564   0.566   3.581   0.733 -0.0642 -0.4615 -0.9832
 1116SOL    HW2 4565   0.589   3.441   0.787  0.8394  0.3394  0.7566
 1117SOL     OW 4566   0.248   2.560   0.496 -0.1326 -0.1160 -0.1392
 1117SOL    HW1 4567   0.323   2.526   0.544  0.7801  0.5437 -1.0547
 1117SOL    HW2 4568   0.178   2.496   0.513  0.6102 -0.7218  0.7557
 1118SOL     OW 4569   1.840   1.682   1.807  0.2865 -1.0103  0.1149
 1118SOL    HW1 4570   1.893   1.761   1.794  0.0961 -0.8023  0.5693
 1118SOL    HW2 4571   1.769   1.689   1.743  0.8063 -1.2979 -0.5083
 1119SOL     OW 4572   0.796   2.155   2.155 -0.3257  0.0555 -0.0608
 1119SOL    HW1 4573   0.842   2.153   2.071  1.6573  1.4009  0.9060
 1119SOL    HW2 4574   0.862   2.128   2.219 -1.7895 -0.9397  1.1039
 1120SOL     OW 4575   0.976   3.336   0.882 -0.6763 -0.5211 -0.0832
 1120SOL    HW1 4576   0.918   3.294   0.946 -2.8364  0.6766 -1.1135
 1120SOL    HW2 4577   0.957   3.430   0.891  1.0847 -0.0790 -0.5525
 1121SOL     OW 4578   1.376   2.566   1.366  0.3706  0.2121  0.6732
 1121SOL    HW1 4579   1.398   2.650   1.325  2.5112 -0.0907  1.0877
 1121SOL    HW2 4580   1.439   2.558   1.438 -0.8112 -1.0414  1.6058
 1122SOL     OW 4581   0.684   2.993   1.213 -0.5953 -0.4840 -0.4139
 1122SOL    HW1 4582   0.601   2.986   1.167 -0.9585 -0.2143  0.1882
 1122SOL    HW2 4583   0.666   3.054   1.285  0.2354 -0.0745 -0.5416
 1123SOL     OW 4584   1.172   1.965   0.718  0.2073 -0.3434 -0.0428
 1123SOL    HW1 4585   1.081   1.937   0.703  0.2817 -1.3642  1.2779
 1123SOL    HW2 4586   1.225   1.891   0.687  0.4692 -0.9561  1.7835
 1124SOL     OW 4587   0.485   2.373   0.518 -0.2924  0.3115 -0.3706
 1124SOL    HW1 4588   0.458   2.319   0.444  1.3932  0.9873 -1.5389
 1124SOL    HW2 4589   0.579   2.358   0.525 -0.4830 -0.1998  2.0673
 1125SOL     OW 4590   1.502   3.008   8.751  0.4012  0.2168 -0.1609
 1125SOL    HW1 4591   1.569   3.068   8.718 -0.0351  1.0149  0.3699
 1125SOL    HW2 4592   1.425   3.062   8.764 -0.3447 -0.6859 -0.7011
 1126SOL     OW 4593   1.125   2.251   0.206  0.4437  0.5995  0.4679
 1126SOL    HW1 4594   1.099   2.342   0.191  1.9866  1.4654  2.5764
 1126SOL    HW2 4595   1.219   2.255   0.224  0.2527 -1.1611  2.3151
 1127SOL     OW 4596   0.659   2.626   1.232 -0.0301  0.2703  0.0373
 1127SOL    HW1 4597   0.750   2.596   1.228 -0.1096  0.0188  0.0997
 1127SOL    HW2 4598   0.650   2.665   1.319  0.4873  1.8251 -0.5644
 1128SOL     OW 4599   0.762   3.504   0.493  0.0646 -0.1187  0.1215
 1128SOL    HW1 4600   0.729   3.503   0.583 -1.5529 -1.2148 -0.4517
 1128SOL    HW2 4601   0.774   3.597   0.473 -2.3739  0.3481  0.5098
 1129SOL     OW 4602   0.044   2.892   0.853  0.0099  0.1883  0.1696
 1129SOL    HW1 4603  -0.050   2.874   0.857  0.2216 -1.2187 -0.5817
 1129SOL    HW2 4604   0.086   2.810   0.877  1.0452  0.6365 -0.0444
 1130SOL     OW 4605   1.073   3.549   0.731  0.2775  0.0175 -0.2125
 1130SOL    HW1 4606   1.099   3.459   0.711  1.6772  0.0822  1.1344
 1130SOL    HW2 4607   1.114   3.601   0.663 -0.6005 -0.3493 -1.0434
 1131SOL     OW 4608   0.639   2.483   0.289  0.1863 -0.6374  0.2389
 1131SOL    HW1 4609   0.677   2.396   0.273  1.8832 -0.4255  2.6505
 1131SOL    HW2 4610   0.546   2.466   0.304 -0.3339 -1.4958 -3.0212
 1132SOL     OW 4611   0.184   2.701   0.998 -0.2513 -0.0807  0.1596
 1132SOL    HW1 4612   0.164   2.618   1.041  1.2632 -0.9300 -0.6716
 1132SOL    HW2 4613   0.212   2.759   1.069  0.5126 -0.8958  0.5420
 1133SOL     OW 4614   0.895   2.337   0.963  0.2217 -0.4378 -0.0768
 1133SOL    HW1 4615   0.976   2.315   1.009 -0.9654 -0.0895  2.3154
 1133SOL    HW2 4616   0.903   2.431   0.945  0.1598 -0.3084  0.5641
 1134SOL     OW 4617   0.779   2.632   0.490  0.7927  0.2437  0.1034
 1134SOL    HW1 4618   0.748   2.710   0.536 -1.2137 -2.0676  2.9736
 1134SOL    HW2 4619   0.714   2.617   0.421 -0.0886 -0.1215  0.9972
 1135SOL     OW 4620   0.890   2.828   0.726 -0.9588  0.3181  0.5662
 1135SOL    HW1 4621   0.922   2.835   0.636  0.1739  2.5419  1.0515
 1135SOL    HW2 4622   0.795   2.824   0.718 -0.9037  1.1069 -0.7294
 1136SOL     OW 4623   1.507   3.256   0.549 -0.4225  0.0831 -0.6115
 1136SOL    HW1 4624   1.538   3.187   0.491  2.1829 -1.7268  2.6121
 1136SOL    HW2 4625   1.576   3.322   0.548 -1.0678  0.7819 -0.6656
 1137SOL     OW 4626   1.226   2.331   1.015  0.1594 -0.3043 -0.2796
 1137SOL    HW1 4627   1.312   2.335   0.974  0.3144 -2.0246 -0.2054
 1137SOL    HW2 4628   1.212   2.238   1.033 -1.2229  0.0645  0.7710
 1138SOL     OW 4629   2.479   2.807   0.129  0.6310  0.4577 -0.3914
 1138SOL    HW1 4630   2.464   2.840   0.217  2.5439  0.5856 -0.0707
 1138SOL    HW2 4631   2.557   2.753   0.136  0.0870 -0.5775 -1.7784
 1139SOL     OW 4632   0.327   2.858   8.729 -0.6423 -0.6272 -0.1573
 1139SOL    HW1 4633   0.246   2.879   8.777 -1.7849  0.2310 -2.3213
 1139SOL    HW2 4634   0.376   2.940   8.728  0.6755 -1.3280  1.7807
 1140SOL     OW 4635   1.851   3.491   0.213  0.0996 -0.0290  0.0067
 1140SOL    HW1 4636   1.929   3.523   0.168 -0.6707  2.8661  0.4817
 1140SOL    HW2 4637   1.793   3.462   0.143  0.7938 -0.2784 -0.4816
 1141SOL     OW 4638   1.106   2.538   0.152 -0.1649 -0.0616  0.1646
 1141SOL    HW1 4639   1.071   2.599   0.217  1.5495 -1.2466  2.3793
 1141SOL    HW2 4640   1.193   2.571   0.133 -0.9165  0.6993 -2.2621
 1142SOL     OW 4641   0.719   1.959   0.307  0.0692  0.5490  0.2390
 1142SOL    HW1 4642   0.752   1.881   0.352  0.3282 -0.1995 -1.1744
 1142SOL    HW2 4643   0.740   1.943   0.215 -1.8504  1.2869 -0.3601
 1143SOL     OW 4644   1.616   2.785   1.684 -0.1453 -0.3159  0.1075
 1143SOL    HW1 4645   1.642   2.798   1.775 -0.1779  0.3746  0.0247
 1143SOL    HW2 4646   1.554   2.855   1.666 -0.8857 -1.0301 -0.1621
 1144SOL     OW 4647   0.977   3.477   1.206  0.1827  0.1973 -0.2837
 1144SOL    HW1 4648   1.002   3.439   1.290 -2.6781  0.3719  0.7583
 1144SOL    HW2 4649   0.923   3.410   1.164  0.7489  0.5068 -1.5659
 1145SOL     OW 4650   1.520   3.351   1.932  0.3158  0.3730  0.1917
 1145SOL    HW1 4651   1.491   3.430   1.977  0.3942  0.7627 -0.4323
 1145SOL    HW2 4652   1.587   3.314   1.989  1.0401  1.3290 -0.0128
 1146SOL     OW 4653   1.177   3.127   0.951  0.5020  0.4048 -0.3348
 1146SOL    HW1 4654   1.126   3.209   0.947 -0.1668 -0.0123 -0.6535
 1146SOL    HW2 4655   1.255   3.145   0.898  0.4337  0.8893 -0.2770
 1147SOL     OW 4656   1.683   2.742   1.319 -0.4542 -0.0052 -0.6769
 1147SOL    HW1 4657   1.680   2.670   1.256 -0.7358 -1.8057  1.2811
 1147SOL    HW2 4658   1.771   2.737   1.357 -0.0737  1.4468 -1.3005
 1148SOL     OW 4659   1.287   1.922   1.441 -0.0324  0.5851  0.7048
 1148SOL    HW1 4660   1.310   1.833   1.467 -1.6768  0.1777  0.8805
 1148SOL    HW2 4661   1.288   1.972   1.522 -0.4803  0.3981  0.8293
 1149SOL     OW 4662   1.057   3.043   1.337 -0.0849  0.5295 -0.0923
 1149SOL    HW1 4663   1.006   2.979   1.286  0.1509  0.8947 -0.8001
 1149SOL    HW2 4664   0.994   3.079   1.400 -0.4203  0.1728 -0.2186
 1150SOL     OW 4665   1.103   3.094   0.244  0.2428 -0.1698  0.0643
 1150SOL    HW1 4666   1.143   3.050   0.169  0.3870 -0.2741  0.2012
 1150SOL    HW2 4667   1.168   3.157   0.274 -0.6660  1.4779 -1.2696
 1151SOL     OW 4668   0.714   2.654   1.530  0.1808  0.4386  0.1119
 1151SOL    HW1 4669   0.643   2.716   1.513 -0.2602 -0.3606 -1.0261
 1151SOL    HW2 4670   0.678   2.594   1.595  0.2535  0.7445  0.4431
 1152SOL     OW 4671   1.503   2.359   1.214 -0.1939  0.2052 -0.3657
 1152SOL    HW1 4672   1.443   2.430   1.238  0.2933  0.3872  0.3527
 1152SOL    HW2 4673   1.455   2.279   1.235  0.2261  0.3519  1.3459
 1153SOL     OW 4674   0.200   3.388   1.489 -0.1225  0.1684 -0.4282
 1153SOL    HW1 4675   0.191   3.312   1.432 -1.5083  0.1138 -0.1682
 1153SOL    HW2 4676   0.156   3.363   1.570  0.3796  0.8484  0.0681
 1154SOL     OW 4677   0.082   2.929   0.323 -0.0505  0.3540  0.0013
 1154SOL    HW1 4678   0.149   2.927   0.391 -0.0465  1.5498  0.0619
 1154SOL    HW2 4679   0.072   2.838   0.295  2.8208  0.3157 -1.2070
 1155SOL     OW 4680   0.799   2.426   0.645 -0.1679  0.3703 -0.4682
 1155SOL    HW1 4681   0.787   2.494   0.579  1.3538  0.7821 -0.3616
 1155SOL    HW2 4682   0.894   2.425   0.662 -0.2205 -1.4186 -0.0846
 1156SOL     OW 4683   1.386   3.238   0.207  0.0214 -0.1925 -0.3232
 1156SOL    HW1 4684   1.405   3.150   0.239  1.7392  0.2568 -0.0135
 1156SOL    HW2 4685   1.389   3.229   0.111 -2.1224 -0.9014 -0.3903
 1157SOL     OW 4686   1.419   3.167   0.788  1.0794 -0.3181 -0.1561
 1157SOL    HW1 4687   1.446   3.225   0.717 -0.7895  0.3854 -0.3625
 1157SOL    HW2 4688   1.399   3.084   0.744 -0.7448  0.3167 -0.6433
 1158SOL     OW 4689   1.620   2.764   0.339  0.2017 -0.0640  0.5954
 1158SOL    HW1 4690   1.633   2.685   0.392  0.5704  0.8456  1.9162
 1158SOL    HW2 4691   1.663   2.833   0.390 -0.9059  1.1511 -0.0836
 1159SOL     OW 4692   0.123   3.534   1.195 -0.2921 -0.6323  0.4029
 1159SOL    HW1 4693   0.147   3.616   1.238  2.6774 -0.9492 -0.4047
 1159SOL    HW2 4694   0.081   3.562   1.113  1.1497  0.1455 -0.1061
 1160SOL     OW 4695   0.649   2.328   1.444  0.6051 -0.5328  0.1805
 1160SOL    HW1 4696   0.653   2.377   1.526  1.3537  0.8006 -0.6210
 1160SOL    HW2 4697   0.590   2.255   1.463 -0.5646  0.6729  1.4034
 1161SOL     OW 4698   1.315   2.612   1.820 -0.5864  0.3557 -0.0414
 1161SOL    HW1 4699   1.314   2.704   1.796  1.0862  0.9165  1.8164
 1161SOL    HW2 4700   1.335   2.611   1.913  1.6439 -1.9368 -0.4278
 1162SOL     OW 4701   1.309   1.996   2.323 -0.2729 -0.2916  0.7380
 1162SOL    HW1 4702   1.292   1.903   2.332 -0.4663 -0.2797  0.4954
 1162SOL    HW2 4703   1.379   2.001   2.258 -0.5368 -0.2476  0.4547
 1163SOL     OW 4704   0.548   1.797   1.630  0.3282  0.4100  0.1520
 1163SOL    HW1 4705   0.461   1.767   1.656  0.8206  0.7947  2.4407
 1163SOL    HW2 4706   0.548   1.790   1.534 -0.9706 -2.9175  0.2589
 1164SOL     OW 4707   0.315   3.045   0.935 -0.5628  0.0043  0.3747
 1164SOL    HW1 4708   0.289   2.962   0.895  1.4898 -0.9812  0.9812
 1164SOL    HW2 4709   0.356   3.020   1.018  1.8295  1.4478 -0.2826
 1165SOL     OW 4710   1.381   2.934   0.694 -0.4348  0.2761  0.0906
 1165SOL    HW1 4711   1.419   2.851   0.723  0.6533  0.1575 -1.5142
 1165SOL    HW2 4712   1.312   2.908   0.632  0.8600  0.5400 -1.5182
 1166SOL     OW 4713   1.344   2.661   0.183  0.1212  0.0543 -0.0605
 1166SOL    HW1 4714   1.404   2.634   0.253 -0.4897  0.4498  0.6230
 1166SOL    HW2 4715   1.345   2.757   0.187  0.8911  0.1234 -1.2958
 1167SOL     OW 4716   0.532   2.012   1.212  0.0749  0.1752 -0.6542
 1167SOL    HW1 4717   0.586   2.043   1.285 -0.4073  0.0071 -0.2244
 1167SOL    HW2 4718   0.584   1.942   1.172  0.8024  0.9595 -1.1230
 1168SOL     OW 4719   8.491   2.965   1.565  0.2131  0.5524  0.1887
 1168SOL    HW1 4720   8.449   2.918   1.492 -1.5041  1.8491  0.2709
 1168SOL    HW2 4721   8.511   3.052   1.529  0.4999  0.7945  0.9163
 1169SOL     OW 4722   0.631   2.792   0.713  0.1153 -0.3366  0.2280
 1169SOL    HW1 4723   0.584   2.871   0.687  0.2259 -0.9531 -2.0684
 1169SOL    HW2 4724   0.573   2.750   0.777 -0.6108  0.8740  0.3922
 1170SOL     OW 4725   1.503   2.547   1.604  0.4065 -0.3837 -0.6050
 1170SOL    HW1 4726   1.442   2.564   1.676 -0.2778 -0.9633 -1.0314
 1170SOL    HW2 4727   1.559   2.624   1.601  0.2948 -0.2484  0.3989
 1171SOL     OW 4728   0.126   1.605   8.819 -0.2060 -0.0845 -0.1128
 1171SOL    HW1 4729   0.216   1.608   8.785 -0.6788  2.2069 -1.3616
 1171SOL    HW2 4730   0.136   1.588   8.912  1.4122 -1.5670 -0.4904
 1172SOL     OW 4731   1.710   2.331   0.275  0.1595  0.3634  0.2523
 1172SOL    HW1 4732   1.701   2.248   0.321 -0.8401  0.4776  0.2959
 1172SOL    HW2 4733   1.666   2.394   0.332  0.0465  0.7406 -0.2504
 1173SOL     OW 4734   0.707   3.178   0.498 -0.1722  0.7531 -0.0552
 1173SOL    HW1 4735   0.714   3.236   0.421  0.6790 -0.1983 -0.7280
 1173SOL    HW2 4736   0.776   3.209   0.557  2.2272 -1.2298 -1.6158
 1174SOL     OW 4737   1.013   3.224   1.948 -0.6090  0.1688 -0.3324
 1174SOL    HW1 4738   1.034   3.199   1.858 -0.6761  1.2966 -0.6839
 1174SOL    HW2 4739   1.035   3.147   2.000  2.9611  0.6364 -0.8528
 1175SOL     OW 4740   1.726   3.264   2.090 -0.4444 -0.2297 -0.0265
 1175SOL    HW1 4741   1.739   3.221   2.175  0.4642 -0.2243 -0.1465
 1175SOL    HW2 4742   1.734   3.357   2.110 -4.2204  0.1151  0.5572
 1176SOL     OW 4743   0.870   2.813   1.860  0.1934 -0.1580  0.1764
 1176SOL    HW1 4744   0.927   2.769   1.922  0.0479 -0.4010  0.1399
 1176SOL    HW2 4745   0.909   2.795   1.774  0.2655 -0.0176  0.1800
 1177SOL     OW 4746   1.743   2.242   8.595  0.0083  0.2489  0.2683
 1177SOL    HW1 4747   1.806   2.170   8.605 -1.5722 -1.2235  0.0707
 1177SOL    HW2 4748   1.666   2.215   8.645 -0.7823  1.6423 -0.1186
 1178SOL     OW 4749   1.189   2.947   8.203  0.1307  0.0084  0.0863
 1178SOL    HW1 4750   1.232   2.883   8.147 -3.3588 -1.8389 -0.7126
 1178SOL    HW2 4751   1.143   3.005   8.143  1.1940  1.8348  0.9231
 1179SOL     OW 4752   0.935   3.167   0.624  0.3404  0.0053 -0.3179
 1179SOL    HW1 4753   1.022   3.165   0.584  0.6901 -0.6310  0.4535
 1179SOL    HW2 4754   0.945   3.222   0.702 -0.5042  1.8393 -1.4234
 1180SOL     OW 4755   0.204   2.477   1.126 -0.0938 -0.0748  0.6299
 1180SOL    HW1 4756   0.210   2.465   1.221 -0.0325  1.2078  0.8005
 1180SOL    HW2 4757   0.293   2.462   1.095  0.5434  2.2001  1.1386
 1181SOL     OW 4758   8.808   2.433   1.067  0.0837  0.0847  0.1358
 1181SOL    HW1 4759   8.891   2.470   1.095  0.2013 -0.7913  1.0113
 1181SOL    HW2 4760   8.772   2.392   1.146 -1.7711  1.4892  0.1074
 1182SOL     OW 4761   1.282   2.045   1.998 -0.1171 -0.5867  0.2025
 1182SOL    HW1 4762   1.272   2.129   1.953  0.0123 -0.1554  0.9609
 1182SOL    HW2 4763   1.361   2.056   2.052 -1.4859 -0.2525  2.2791
 1183SOL     OW 4764   1.149   2.357   1.378  0.5010 -0.7346  0.3721
 1183SOL    HW1 4765   1.174   2.300   1.306 -0.4672 -0.3641 -0.2832
 1183SOL    HW2 4766   1.231   2.395   1.409  0.9210 -0.8018 -0.6278
 1184SOL     OW 4767   0.287   2.916   0.536 -0.0797  0.1910 -0.4293
 1184SOL    HW1 4768   0.349   2.986   0.556 -1.5638  0.7528  3.1316
 1184SOL    HW2 4769   0.304   2.849   0.603 -0.1324 -1.9202 -2.4129
 1185SOL     OW 4770   8.630   3.674   1.006  0.0175 -0.2587  0.3594
 1185SOL    HW1 4771   8.716   3.641   0.979 -0.6675 -1.8144  0.0139
 1185SOL    HW2 4772   8.645   3.713   1.092  1.5008  1.5015 -0.6047
 1186SOL     OW 4773   0.560   3.380   1.164 -0.4228 -0.0725 -0.0047
 1186SOL    HW1 4774   0.564   3.463   1.115 -2.1374 -0.5491 -1.0713
 1186SOL    HW2 4775   0.468   3.353   1.156  0.4824 -3.0904 -1.4650
 1187SOL     OW 4776   1.264   2.143   1.253 -0.2066 -0.2595  0.6166
 1187SOL    HW1 4777   1.233   2.075   1.312  0.4131  0.6057  1.9900
 1187SOL    HW2 4778   1.291   2.096   1.174 -1.2530 -1.4221  0.9224
 1188SOL     OW 4779   0.210   2.844   1.289 -0.5907 -0.2252 -0.3365
 1188SOL    HW1 4780   0.115   2.853   1.300 -0.5161  0.0634  0.0792
 1188SOL    HW2 4781   0.233   2.767   1.341 -0.5590 -0.1375 -0.2198
 1189SOL     OW 4782   0.390   2.118   1.440 -0.3752 -0.2112 -0.2391
 1189SOL    HW1 4783   0.317   2.175   1.414  2.5465  3.5561 -1.0671
 1189SOL    HW2 4784   0.423   2.083   1.357 -1.1357 -1.9388  0.1358
 1190SOL     OW 4785   1.193   2.883   1.490  0.0103  0.6372 -0.8719
 1190SOL    HW1 4786   1.261   2.856   1.428  0.9341  2.6052 -0.7887
 1190SOL    HW2 4787   1.142   2.949   1.443 -0.6343  0.5810 -0.2711
 1191SOL     OW 4788   0.410   2.331   0.243  0.3634 -0.1963 -0.2932
 1191SOL    HW1 4789   0.373   2.389   0.176  0.4775 -0.2827 -0.4335
 1191SOL    HW2 4790   0.340   2.319   0.306  0.8462  1.4029  0.6063
 1192SOL     OW 4791   1.484   2.332   0.906  0.1724  0.7957 -0.4425
 1192SOL    HW1 4792   1.507   2.249   0.949 -1.4297 -0.4557 -1.8366
 1192SOL    HW2 4793   1.565   2.383   0.906  1.2788 -0.8769  0.2383
 1193SOL     OW 4794   0.471   3.467   1.843  0.2973  0.0996 -0.5065
 1193SOL    HW1 4795   0.375   3.471   1.848  0.3705  2.7361  2.8245
 1193SOL    HW2 4796   0.497   3.423   1.924  1.8722  1.4058 -0.2546
 1194SOL     OW 4797   0.659   2.408   0.866  0.1348  0.8620 -0.2086
 1194SOL    HW1 4798   0.701   2.415   0.780  1.9320  1.5672  0.6785
 1194SOL    HW2 4799   0.705   2.337   0.910 -0.2888  0.9805  0.4390
 1195SOL     OW 4800   0.532   3.706   1.679 -0.1159 -0.0445  0.3202
 1195SOL    HW1 4801   0.625   3.723   1.662 -0.5884  2.6522 -0.0142
 1195SOL    HW2 4802   0.527   3.611   1.692  2.4734 -0.4257 -0.8195
 1196SOL     OW 4803   0.053   2.372   0.608  0.2829 -0.1257  0.7485
 1196SOL    HW1 4804   0.068   2.346   0.699  0.8864  0.6570  0.8817
 1196SOL    HW2 4805  -0.011   2.443   0.614 -0.2647 -0.5961  0.5004
 1197SOL     OW 4806   8.620   2.775   1.679  0.9207 -0.5034 -0.8098
 1197SOL    HW1 4807   8.574   2.852   1.645  0.5146 -0.2369  0.2820
 1197SOL    HW2 4808   8.564   2.701   1.657  0.2105 -0.2394  0.0321
 1198SOL     OW 4809   1.311   2.849   1.039  0.1875 -0.1021  0.1888
 1198SOL    HW1 4810   1.272   2.767   1.008 -0.1129 -0.2803  1.0094
 1198SOL    HW2 4811   1.260   2.918   0.995  0.5930 -0.3421 -0.6872
 1199SOL     OW 4812   1.195   2.970   8.486 -0.3663 -0.3720 -0.3267
 1199SOL    HW1 4813   1.196   2.985   8.391 -0.0774 -2.0217 -0.6105
 1199SOL    HW2 4814   1.211   2.877   8.496 -3.0346 -0.7690  1.2572
 1200SOL     OW 4815   1.770   3.404   1.477 -0.7426 -0.2267 -0.2914
 1200SOL    HW1 4816   1.692   3.371   1.432 -2.1163  2.0557  0.2837
 1200SOL    HW2 4817   1.824   3.441   1.408 -2.5072  2.6101 -0.2952
 1201SOL     OW 4818   1.486   3.126   1.048 -0.0761  0.0093  0.1741
 1201SOL    HW1 4819   1.459   3.111   0.957  0.3746  1.6029 -0.2633
 1201SOL    HW2 4820   1.574   3.090   1.053 -0.2268 -0.3794  0.0833
 1202SOL     OW 4821   8.802   2.817   1.378 -0.2444 -0.0676 -0.4060
 1202SOL    HW1 4822   8.775   2.909   1.375  0.9703  0.2976 -1.9204
 1202SOL    HW2 4823   8.721   2.768   1.375 -0.8885  0.9704 -0.5656
 1203SOL     OW 4824   0.761   3.438   1.544 -0.1000  0.1738 -0.0940
 1203SOL    HW1 4825   0.747   3.511   1.485 -1.1436 -1.9480 -2.6381
 1203SOL    HW2 4826   0.852   3.413   1.529  0.0588  0.4945  0.2945
 1204SOL     OW 4827   1.066   2.021   0.069  0.1577 -0.0047  0.1112
 1204SOL    HW1 4828   1.017   1.976   0.138  0.4450 -1.9994 -0.9060
 1204SOL    HW2 4829   1.071   2.112   0.099 -0.2318 -0.6626  2.4120
 1205SOL     OW 4830   1.687   2.132   0.486 -0.2086 -0.7099 -0.3246
 1205SOL    HW1 4831   1.608   2.094   0.525  0.0973 -0.6281  0.3793
 1205SOL    HW2 4832   1.758   2.106   0.543  0.3806 -1.3040 -1.3003
 1206SOL     OW 4833   1.496   3.757   0.700  0.3116  0.0860 -0.2355
 1206SOL    HW1 4834   1.441   3.727   0.773  0.6455 -0.8386 -0.3518
 1206SOL    HW2 4835   1.452   3.724   0.622  0.3880  0.3906 -0.4096
 1207SOL     OW 4836   0.150   3.707   2.179  0.1178 -0.1782  0.2121
 1207SOL    HW1 4837   0.245   3.712   2.163  0.3442  0.6758  1.6199
 1207SOL    HW2 4838   0.111   3.752   2.105  0.8997  0.6962  0.3136
 1208SOL     OW 4839   1.803   3.247   0.619 -0.1598 -0.1242  0.1363
 1208SOL    HW1 4840   1.754   3.204   0.549  0.8077  0.4726 -0.9426
 1208SOL    HW2 4841   1.844   3.175   0.667 -0.4964 -0.5192 -0.1622
 1209SOL     OW 4842   0.687   3.641   1.392  0.4008  0.0758 -0.3022
 1209SOL    HW1 4843   0.592   3.649   1.390  0.4029  0.9344  1.4181
 1209SOL    HW2 4844   0.717   3.699   1.321 -0.2915  1.6122  0.6133
 1210SOL     OW 4845   0.724   3.426   0.054 -0.0894 -0.0961 -0.1110
 1210SOL    HW1 4846   0.801   3.408   0.107  0.2346 -1.0592 -0.8617
 1210SOL    HW2 4847   0.736   3.516   0.023  0.7774 -0.2614 -0.2788
 1211SOL     OW 4848   1.554   3.357   1.670  0.0962  0.0205 -0.1831
 1211SOL    HW1 4849   1.596   3.442   1.657  0.5588 -0.4353 -1.8531
 1211SOL    HW2 4850   1.538   3.353   1.765  3.0522  0.5853  0.4446
 1212SOL     OW 4851   1.929   2.064   0.657  0.6368 -0.1412  0.1762
 1212SOL    HW1 4852   1.930   1.968   0.656  1.9125 -0.1430 -1.2995
 1212SOL    HW2 4853   1.916   2.087   0.749 -0.8443 -1.7118  0.4101
 1213SOL     OW 4854   0.468   2.064   0.391 -0.4347  0.3769  0.1004
 1213SOL    HW1 4855   0.477   2.091   0.483  2.0046  1.2404 -0.3282
 1213SOL    HW2 4856   0.550   2.021   0.371 -0.3731  1.3801 -2.0548
 1214SOL     OW 4857   1.258   3.573   0.063 -0.1319 -0.2421 -0.1889
 1214SOL    HW1 4858   1.164   3.583   0.079 -0.6087 -1.4188 -2.0275
 1214SOL    HW2 4859   1.296   3.570   0.151 -1.7887  0.3933  0.5956
 1215SOL     OW 4860   0.807   3.245   1.105  0.7590 -0.2522  0.1157
 1215SOL    HW1 4861   0.731   3.299   1.127  1.2574  0.3192  0.4541
 1215SOL    HW2 4862   0.776   3.155   1.116 -1.1879 -0.2948 -3.8317
 1216SOL     OW 4863   0.834   2.950   0.426  0.2848 -0.2175 -0.0017
 1216SOL    HW1 4864   0.815   3.034   0.468  2.0781  0.6762 -0.8872
 1216SOL    HW2 4865   0.762   2.893   0.454  1.5052  0.0886  4.6959
 1217SOL     OW 4866   1.434   3.993   0.056 -0.2153  0.3978  0.3541
 1217SOL    HW1 4867   1.423   3.993  -0.039 -0.9246  0.8561  0.4263
 1217SOL    HW2 4868   1.502   3.928   0.073  1.1783  1.5221 -0.6169
 1218SOL     OW 4869   0.512   2.851   1.511 -0.1480  0.2790 -0.5174
 1218SOL    HW1 4870   0.431   2.901   1.522 -0.6824 -1.0450  2.5775
 1218SOL    HW2 4871   0.582   2.916   1.521 -0.8283  0.8923  0.3596
 1219SOL     OW 4872   1.652   3.027   1.447 -0.1643  0.1226 -0.6595
 1219SOL    HW1 4873   1.743   3.009   1.468 -0.3831 -0.1479  0.0861
 1219SOL    HW2 4874   1.616   2.943   1.419 -0.3542  0.0815 -0.2993
 1220SOL     OW 4875   1.172   3.298   0.577 -0.2116  0.4207  0.0950
 1220SOL    HW1 4876   1.264   3.273   0.578 -0.3170  0.0208  1.1001
 1220SOL    HW2 4877   1.169   3.377   0.523  0.4403 -0.5784 -1.4469
 1221SOL     OW 4878   1.101   2.055   0.973  0.5097 -0.1555 -0.5087
 1221SOL    HW1 4879   1.175   2.010   1.013  1.3744  2.3555  1.0198
 1221SOL    HW2 4880   1.117   2.051   0.879  1.7877 -0.9426 -0.2729
 1222SOL     OW 4881   0.513   3.041   0.645  0.7559 -0.0376  0.2517
 1222SOL    HW1 4882   0.591   3.083   0.609  2.5504 -1.3828  2.3418
 1222SOL    HW2 4883   0.461   3.112   0.681  0.3880  1.0008 -2.1339
 1223SOL     OW 4884   1.910   2.574   1.257  0.3033 -0.1276  0.0416
 1223SOL    HW1 4885   1.870   2.500   1.302 -1.8301  0.4399 -0.8146
 1223SOL    HW2 4886   1.964   2.534   1.188  0.7475 -0.8952  0.8102
 1224SOL     OW 4887   8.777   3.063   0.490 -0.3010 -0.4115 -0.4280
 1224SOL    HW1 4888   8.733   3.139   0.452  2.3268  1.4730  0.0142
 1224SOL    HW2 4889   8.827   3.025   0.418  0.6778  0.0825 -0.0304
 1225SOL     OW 4890   0.563   2.753   1.837  0.2730 -0.1991 -0.7239
 1225SOL    HW1 4891   0.572   2.811   1.761  1.3120  0.3075 -0.2351
 1225SOL    HW2 4892   0.641   2.698   1.835  0.9893  0.7003  0.6793
 1226SOL     OW 4893   0.771   1.942   1.418  0.1484  0.2230  0.1762
 1226SOL    HW1 4894   0.830   2.007   1.380  0.0561 -0.0565 -0.4579
 1226SOL    HW2 4895   0.805   1.927   1.506  1.8944 -0.9684 -0.6454
 1227SOL     OW 4896   8.444   2.390   8.599 -0.1119 -0.5785 -0.1625
 1227SOL    HW1 4897   8.467   2.338   8.522  0.3409  0.4215 -0.7119
 1227SOL    HW2 4898   8.518   2.379   8.658  1.6188  2.0692 -1.6427
 1228SOL     OW 4899   1.395   2.838   1.304  0.1383  0.2668  0.0033
 1228SOL    HW1 4900   1.367   2.869   1.218 -0.4168 -1.9209 -0.6693
 1228SOL    HW2 4901   1.490   2.830   1.296 -0.0636 -1.7915 -1.1522
 1229SOL     OW 4902   0.435   2.170   8.796  0.7524  0.1337 -0.1432
 1229SOL    HW1 4903   0.393   2.096   8.750 -0.0883  0.5424 -0.0559
 1229SOL    HW2 4904   0.426   2.148   8.889 -0.5728  0.8860 -0.0674
 1230SOL     OW 4905   1.048   3.740   0.103 -0.4497 -0.0860 -0.3360
 1230SOL    HW1 4906   1.015   3.772   0.186  1.3480 -0.3580  0.5424
 1230SOL    HW2 4907   0.982   3.765   0.039 -1.1300  1.5168  0.9350
 1231SOL     OW 4908   0.640   2.454   1.699 -0.0721 -0.4226  0.1529
 1231SOL    HW1 4909   0.593   2.474   1.780 -0.1153  1.1760 -0.2477
 1231SOL    HW2 4910   0.703   2.386   1.725 -1.0072 -0.9201  1.2062
 1232SOL     OW 4911   1.443   3.418   0.963  0.6773 -0.1028  0.9048
 1232SOL    HW1 4912   1.469   3.331   0.932  0.4081 -0.8576  2.6973
 1232SOL    HW2 4913   1.386   3.401   1.037 -1.6542  1.5736 -0.3587
 1233SOL     OW 4914   0.855   2.293   1.812  0.3594  0.3866 -0.1822
 1233SOL    HW1 4915   0.889   2.305   1.901 -0.5080  2.4668 -0.0781
 1233SOL    HW2 4916   0.933   2.279   1.759  0.9225 -0.5017  0.8159
 1234SOL     OW 4917   1.276   3.220   1.520  0.0246  0.0875 -0.1376
 1234SOL    HW1 4918   1.356   3.193   1.564  0.0008  0.9996  0.5036
 1234SOL    HW2 4919   1.281   3.180   1.434  1.2932  0.3400 -0.1971
 1235SOL     OW 4920   0.189   3.650   1.513  0.4922 -0.4834  0.1666
 1235SOL    HW1 4921   0.143   3.646   1.597  0.4907  1.1317  0.2867
 1235SOL    HW2 4922   0.216   3.560   1.496 -0.6240 -1.0623  1.2679
 1236SOL     OW 4923   2.137   2.682   1.000 -0.8677  0.1066 -0.7483
 1236SOL    HW1 4924   2.056   2.708   1.044 -0.8702 -2.9655  1.3862
 1236SOL    HW2 4925   2.112   2.607   0.946  0.4706 -0.7247 -0.2576
 1237SOL     OW 4926   1.394   2.305   0.230 -0.0743 -0.7611 -0.3110
 1237SOL    HW1 4927   1.452   2.377   0.259 -2.7710  0.8441  1.5395
 1237SOL    HW2 4928   1.454   2.239   0.195  2.8364  0.9286  1.0760
 1238SOL     OW 4929   0.582   2.799   0.374  0.1339 -0.2940 -0.0284
 1238SOL    HW1 4930   0.526   2.735   0.331 -0.9141  0.1616  0.6106
 1238SOL    HW2 4931   0.560   2.882   0.332  0.6765 -0.1783 -0.0900
 1239SOL     OW 4932   1.788   2.314   1.852  0.0666  0.1627  0.0834
 1239SOL    HW1 4933   1.865   2.336   1.799 -0.0470 -2.4802 -1.3311
 1239SOL    HW2 4934   1.812   2.235   1.899 -1.6161 -0.4654 -0.0522
 1240SOL     OW 4935   2.062   2.695   1.427  0.4867  0.3104  0.1680
 1240SOL    HW1 4936   2.004   2.701   1.503  1.0527 -0.1679  0.6626
 1240SOL    HW2 4937   2.007   2.661   1.357 -0.9393  4.0331 -0.6874
 1241SOL     OW 4938   0.954   3.318   8.749  0.3351 -0.2102  0.4646
 1241SOL    HW1 4939   0.881   3.327   8.810  0.0133  0.6484 -0.0233
 1241SOL    HW2 4940   0.916   3.334   8.663  1.1575  0.5923  0.2321
 1242SOL     OW 4941   0.447   3.729   1.027  0.2520  0.0315  0.2124
 1242SOL    HW1 4942   0.397   3.684   0.958  0.5110 -1.1749  0.7709
 1242SOL    HW2 4943   0.380   3.763   1.087 -0.0007  1.8053 -1.0375
 1243SOL     OW 4944   0.409   2.847   1.114  0.2726  0.2817  0.0065
 1243SOL    HW1 4945   0.466   2.780   1.151  1.2614  1.2000  0.2109
 1243SOL    HW2 4946   0.338   2.855   1.176 -0.2930 -1.1207 -0.4180
 1244SOL     OW 4947   1.137   2.918   0.016 -0.7138 -0.3394 -0.1378
 1244SOL    HW1 4948   1.120   2.836  -0.032 -0.0678 -0.5901  0.0450
 1244SOL    HW2 4949   1.179   2.975  -0.049 -2.1494  0.2734 -0.5856
 1245SOL     OW 4950   1.548   3.267   1.301  0.2870  0.1283 -0.4551
 1245SOL    HW1 4951   1.549   3.187   1.353 -1.2900 -0.5181 -1.3624
 1245SOL    HW2 4952   1.464   3.309   1.324  0.4405  0.7881 -1.0615
 1246SOL     OW 4953   0.324   3.346   2.426  0.1006 -0.5425 -0.4553
 1246SOL    HW1 4954   0.329   3.283   2.354  0.8966 -0.5920 -0.3663
 1246SOL    HW2 4955   0.243   3.324   2.471  1.1582 -2.6546  0.5948
 1247SOL     OW 4956   8.648   2.800   0.836  0.2446 -0.6839 -0.1705
 1247SOL    HW1 4957   8.622   2.714   0.870 -2.0075  0.9753  2.7640
 1247SOL    HW2 4958   8.566   2.840   0.806  0.4929  1.7469  2.0048
 1248SOL     OW 4959   0.659   3.068   1.701  0.0400  0.0608  0.2472
 1248SOL    HW1 4960   0.627   3.158   1.695 -0.6306 -0.1489  0.4936
 1248SOL    HW2 4961   0.659   3.050   1.795 -1.1992 -0.6550  0.1361
 1249SOL     OW 4962   1.666   2.114   0.955 -0.7270 -0.0445 -0.0563
 1249SOL    HW1 4963   1.729   2.047   0.983  0.1964  0.3618 -1.1022
 1249SOL    HW2 4964   1.620   2.074   0.882  1.6231  1.2883 -2.4476
 1250SOL     OW 4965   0.174   2.060   0.534 -0.3913  0.2308 -0.2283
 1250SOL    HW1 4966   0.102   2.017   0.487 -1.3684 -0.8893  2.1510
 1250SOL    HW2 4967   0.219   2.111   0.466 -1.1964 -1.9016 -2.5434
 1251SOL     OW 4968   1.561   2.820   0.921 -0.1233 -0.3260 -0.5674
 1251SOL    HW1 4969   1.481   2.826   0.973  0.6260 -1.4774  0.7995
 1251SOL    HW2 4970   1.598   2.908   0.924 -0.3700 -0.2352  0.4406
 1252SOL     OW 4971   0.365   2.725   0.777 -0.1320 -0.1057 -0.2809
 1252SOL    HW1 4972   0.302   2.745   0.847  0.9396  0.9347  0.4285
 1252SOL    HW2 4973   0.367   2.629   0.774  0.0751 -0.1895  1.3974
 1253SOL     OW 4974   0.901   3.400   0.266 -0.0224 -0.1303  0.3481
 1253SOL    HW1 4975   0.972   3.347   0.303  0.5157  0.4691  0.2025
 1253SOL    HW2 4976   0.861   3.441   0.342  0.4644  0.3459  0.3558
 1254SOL     OW 4977   1.760   2.259   1.196  0.0761 -0.4248  0.2812
 1254SOL    HW1 4978   1.684   2.318   1.193 -0.2025 -0.7046  1.4183
 1254SOL    HW2 4979   1.724   2.173   1.171 -0.1061 -0.6640  1.3246
 1255SOL     OW 4980   1.361   2.007   1.009 -0.2685 -0.0580 -0.2415
 1255SOL    HW1 4981   1.393   1.937   1.065 -0.5126 -0.0831 -0.1319
 1255SOL    HW2 4982   1.416   2.003   0.931 -0.4441 -0.5336 -0.3453
 1256SOL     OW 4983   0.843   3.043   0.177 -0.3862  0.1758 -0.1372
 1256SOL    HW1 4984   0.825   2.991   0.255  0.0943 -0.9356 -0.7468
 1256SOL    HW2 4985   0.932   3.075   0.191 -0.7408  1.0108  0.3141
 1257SOL     OW 4986   0.268   3.314   1.150 -0.2562  0.2585 -0.5184
 1257SOL    HW1 4987   0.236   3.238   1.199 -1.0081  0.2759 -0.9581
 1257SOL    HW2 4988   0.212   3.386   1.179 -0.1233  0.4535 -0.7443
 1258SOL     OW 4989   1.515   2.065   0.152 -0.0876 -0.0284  0.0269
 1258SOL    HW1 4990   1.493   2.005   0.081  0.4097 -0.9541  0.6429
 1258SOL    HW2 4991   1.466   2.033   0.228  0.8051 -0.1402  0.5650
 1259SOL     OW 4992   1.553   2.497   0.444  0.3214  0.1520 -0.1850
 1259SOL    HW1 4993   1.487   2.457   0.502  0.2164  0.2290 -0.2509
 1259SOL    HW2 4994   1.628   2.514   0.502  0.3123 -0.0056 -0.1260
 1260SOL     OW 4995   1.556   1.999   0.756  0.5313  0.4475 -0.7287
 1260SOL    HW1 4996   1.535   1.906   0.751 -1.4759  0.7510  0.4661
 1260SOL    HW2 4997   1.486   2.042   0.707  2.3347  1.2974 -2.6802
 1261SOL     OW 4998   8.826   3.335   8.832  0.5848  0.4306 -0.3711
 1261SOL    HW1 4999   8.848   3.262   8.890 -0.4387 -1.0426 -1.7533
 1261SOL    HW2 5000   8.754   3.380   8.876  0.2087 -0.3162 -0.2099
 1262SOL     OW 5001   1.202   3.543   0.448  0.1959  0.1396 -0.4944
 1262SOL    HW1 5002   1.146   3.616   0.420 -1.2981 -0.0660  1.7009
 1262SOL    HW2 5003   1.286   3.584   0.469 -0.5968  1.2621  0.6369
 1263SOL     OW 5004   0.141   2.382   1.974  0.2671 -0.0505  0.6808
 1263SOL    HW1 5005   0.129   2.308   2.034  0.7796 -0.4146  0.3380
 1263SOL    HW2 5006   0.234   2.403   1.979 -0.2594  2.3473  2.8138
 1264SOL     OW 5007   8.588   1.889   2.840  0.3467  0.0813  0.3122
 1264SOL    HW1 5008   8.672   1.897   2.794  0.8007 -1.6485  0.7691
 1264SOL    HW2 5009   8.543   1.816   2.798 -0.5721  0.4493  0.6242
 1265SOL     OW 5010   8.622   1.951   2.495 -0.1558  0.0422 -0.0504
 1265SOL    HW1 5011   8.562   1.902   2.551 -0.2918  0.6008  0.2990
 1265SOL    HW2 5012   8.568   1.980   2.422 -0.0504 -0.4077 -0.3159
 1266SOL     OW 5013   0.757   2.812   3.433 -0.3354  0.2442 -0.4508
 1266SOL    HW1 5014   0.699   2.775   3.500  0.8663  1.2372  1.2006
 1266SOL    HW2 5015   0.739   2.760   3.355 -0.8755 -1.8274  0.9685
 1267SOL     OW 5016   1.654   3.479   2.948  0.0915  0.2905  0.2633
 1267SOL    HW1 5017   1.609   3.479   3.032  0.0244 -1.2486  0.2488
 1267SOL    HW2 5018   1.665   3.387   2.926  0.0062  0.6618 -1.4790
 1268SOL     OW 5019   1.065   2.908   2.621  0.0032 -0.8395  0.1008
 1268SOL    HW1 5020   1.144   2.963   2.617 -0.0129 -0.8196  0.0552
 1268SOL    HW2 5021   1.020   2.936   2.700  0.7349 -1.7892  0.8776
 1269SOL     OW 5022   1.454   2.638   2.057  0.2993 -0.5989  0.5491
 1269SOL    HW1 5023   1.454   2.728   2.090 -1.3095  0.1187 -1.1789
 1269SOL    HW2 5024   1.500   2.587   2.124  1.3068  1.4994  1.5511
 1270SOL     OW 5025   0.513   2.524   2.988 -0.2956 -0.6678 -0.8292
 1270SOL    HW1 5026   0.484   2.535   2.898 -1.2781 -0.1674 -0.4697
 1270SOL    HW2 5027   0.603   2.557   2.989 -0.4514 -0.2021 -1.5198
 1271SOL     OW 5028   0.897   2.310   3.861  0.4891  0.2520  0.5043
 1271SOL    HW1 5029   0.927   2.397   3.885  0.6382 -0.0332  1.3713
 1271SOL    HW2 5030   0.829   2.289   3.925  0.3985 -0.2325  0.2524
 1272SOL     OW 5031   0.774   3.257   2.509  0.5400 -0.3482  0.0672
 1272SOL    HW1 5032   0.756   3.244   2.603  0.9297  0.2665  0.2336
 1272SOL    HW2 5033   0.716   3.195   2.465  0.3936 -0.6883  0.7181
 1273SOL     OW 5034   0.660   2.710   3.711  0.0809 -0.0492  0.2193
 1273SOL    HW1 5035   0.667   2.797   3.749 -1.7967  0.4970 -0.5657
 1273SOL    HW2 5036   0.674   2.650   3.784  1.4656  0.8801  0.7486
 1274SOL     OW 5037   0.564   3.132   3.131 -0.4326 -0.6906 -0.2168
 1274SOL    HW1 5038   0.609   3.059   3.087 -1.0552 -0.4836 -1.2266
 1274SOL    HW2 5039   0.556   3.103   3.222 -0.4164 -1.7747 -0.5405
 1275SOL     OW 5040   1.481   3.215   3.759 -0.4158  0.0094  0.5475
 1275SOL    HW1 5041   1.459   3.304   3.786 -0.2106  0.2820 -0.1443
 1275SOL    HW2 5042   1.575   3.208   3.773 -0.2966  0.1720 -0.1014
 1276SOL     OW 5043   0.428   2.297   3.161  0.2313  0.1244  0.2005
 1276SOL    HW1 5044   0.510   2.257   3.189  1.2109 -0.2827 -2.8956
 1276SOL    HW2 5045   0.454   2.379   3.120 -1.3730  2.0107  2.6424
 1277SOL     OW 5046   1.269   2.179   2.722  0.0686  0.1475 -0.0769
 1277SOL    HW1 5047   1.312   2.102   2.760  0.6905  0.2329 -0.5845
 1277SOL    HW2 5048   1.338   2.246   2.721 -0.3927  0.6344  0.1189
 1278SOL     OW 5049   0.196   4.325   2.284  0.1445 -0.1254  0.3658
 1278SOL    HW1 5050   0.197   4.241   2.331  0.7807 -0.0706  0.4606
 1278SOL    HW2 5051   0.271   4.372   2.319 -0.4847  0.6766  0.6483
 1279SOL     OW 5052   1.293   2.751   4.127 -0.6198  0.3843 -0.0934
 1279SOL    HW1 5053   1.363   2.724   4.067 -0.6546  2.0186 -0.9284
 1279SOL    HW2 5054   1.332   2.743   4.214 -0.4208 -1.6091 -0.3259
 1280SOL     OW 5055   0.656   3.992   2.421  0.8718  0.4867  0.3424
 1280SOL    HW1 5056   0.742   3.964   2.390  0.9776  0.8713  0.2789
 1280SOL    HW2 5057   0.629   4.059   2.358  0.5081  0.3371  0.3397
 1281SOL     OW 5058   0.209   3.226   2.739  0.3630 -0.2354  0.7147
 1281SOL    HW1 5059   0.172   3.144   2.706  2.3418 -0.8413 -0.1615
 1281SOL    HW2 5060   0.237   3.206   2.828 -0.3118 -0.1228  0.9558
 1282SOL     OW 5061   0.726   3.550   3.740  0.0899  0.0142  0.6003
 1282SOL    HW1 5062   0.751   3.481   3.679  0.3858  0.1738  0.5421
 1282SOL    HW2 5063   0.773   3.628   3.710 -1.9439  0.8246 -0.6783
 1283SOL     OW 5064   0.992   2.733   1.619 -0.5652 -0.6925  0.0310
 1283SOL    HW1 5065   0.933   2.736   1.544 -0.4499 -1.2783 -0.0910
 1283SOL    HW2 5066   1.066   2.788   1.594 -0.2350 -1.3769 -0.5520
 1284SOL     OW 5067   1.359   1.595   2.964 -0.1242  0.2800  0.2505
 1284SOL    HW1 5068   1.411   1.676   2.967 -1.6113  1.3384 -0.7726
 1284SOL    HW2 5069   1.277   1.622   2.923 -0.8597 -1.6716  0.3662
 1285SOL     OW 5070   0.167   2.619   2.347  0.3420 -0.1958  0.1268
 1285SOL    HW1 5071   0.247   2.630   2.296  0.4287  0.6755  0.4438
 1285SOL    HW2 5072   0.196   2.625   2.438 -0.0691 -0.0196  0.2482
 1286SOL     OW 5073   1.788   3.733   2.279 -0.2517 -0.2270 -0.2613
 1286SOL    HW1 5074   1.791   3.819   2.238  0.2563  0.0438  0.3385
 1286SOL    HW2 5075   1.719   3.740   2.345  1.3678  0.4915  1.4518
 1287SOL     OW 5076   0.210   3.432   1.860  0.2622  0.0479  0.2282
 1287SOL    HW1 5077   0.182   3.351   1.819  2.0886 -0.2373 -0.5542
 1287SOL    HW2 5078   0.144   3.450   1.927  0.0648 -2.3189  0.7302
 1288SOL     OW 5079   1.740   2.799   2.612  0.2251  0.6117 -0.1048
 1288SOL    HW1 5080   1.823   2.816   2.656  0.4574  0.1744 -0.3596
 1288SOL    HW2 5081   1.762   2.796   2.519 -0.0021  0.1117 -0.1486
 1289SOL     OW 5082   1.636   3.199   2.417  0.2892  0.5272  0.3580
 1289SOL    HW1 5083   1.584   3.122   2.392 -1.6808  1.3733  1.5950
 1289SOL    HW2 5084   1.727   3.173   2.401 -0.4598 -0.9611 -2.1186
 1290SOL     OW 5085   0.059   2.120   3.477  0.0368 -0.0829  0.4232
 1290SOL    HW1 5086   0.109   2.165   3.409 -1.3289  0.4582 -0.2715
 1290SOL    HW2 5087   0.040   2.188   3.541  0.7363 -0.4406  1.0285
 1291SOL     OW 5088   0.211   3.106   3.442  0.0395 -0.2602 -0.0155
 1291SOL    HW1 5089   0.158   3.168   3.492 -0.2242  0.1115 -0.7374
 1291SOL    HW2 5090   0.228   3.151   3.359  1.7336 -0.2354  0.2956
 1292SOL     OW 5091   1.071   3.053   3.171  0.4445 -0.3046  0.4238
 1292SOL    HW1 5092   1.126   3.132   3.173  0.7010 -0.4889  1.9689
 1292SOL    HW2 5093   0.986   3.082   3.202  0.5021 -0.6045  0.8701
 1293SOL     OW 5094   0.801   1.673   2.272 -0.7387 -0.7918 -0.3301
 1293SOL    HW1 5095   0.841   1.750   2.312 -0.8030 -0.5528 -0.7203
 1293SOL    HW2 5096   0.769   1.621   2.346 -0.2433 -0.6924 -0.0459
 1294SOL     OW 5097   0.487   2.832   3.051  0.5103  0.3747 -0.1400
 1294SOL    HW1 5098   0.535   2.838   2.969  0.0563  0.3638 -0.4103
 1294SOL    HW2 5099   0.397   2.814   3.025  0.6347 -1.1550  0.4195
 1295SOL     OW 5100   1.422   2.939   2.115 -0.8602  0.0459  0.0931
 1295SOL    HW1 5101   1.415   3.018   2.061 -1.9140  0.1346  0.3229
 1295SOL    HW2 5102   1.331   2.916   2.134 -0.5278 -0.0535  1.7109
 1296SOL     OW 5103   1.405   3.466   3.869 -0.3886 -0.4110  0.0428
 1296SOL    HW1 5104   1.427   3.470   3.962 -1.9213  0.6660  0.3977
 1296SOL    HW2 5105   1.479   3.507   3.825  1.3938 -2.8731  0.5249
 1297SOL     OW 5106   0.375   1.942   3.358 -0.0555  0.2263 -0.1916
 1297SOL    HW1 5107   0.468   1.958   3.340  0.3427 -1.1642  0.5212
 1297SOL    HW2 5108   0.337   2.030   3.365  1.1008  0.8181 -0.9354
 1298SOL     OW 5109   1.503   3.063   2.983 -0.2066  0.6102  0.3231
 1298SOL    HW1 5110   1.471   3.131   2.923 -1.1320 -0.3528 -0.3020
 1298SOL    HW2 5111   1.424   3.017   3.011  0.3694  0.0644  1.0980
 1299SOL     OW 5112   1.566   3.725   2.749 -0.8151  0.0442  0.5134
 1299SOL    HW1 5113   1.613   3.808   2.748  1.6014 -1.2192 -1.3811
 1299SOL    HW2 5114   1.592   3.684   2.832 -0.0696  0.1741  0.3542
 1300SOL     OW 5115   0.605   2.460   1.988  0.0260 -0.3810 -0.1851
 1300SOL    HW1 5116   0.693   2.447   2.023  0.2234  0.0257 -0.5158
 1300SOL    HW2 5117   0.570   2.372   1.975  0.3277 -0.5412  0.0921
 1301SOL     OW 5118   1.544   2.482   2.961  0.1531  0.0560  0.6116
 1301SOL    HW1 5119   1.615   2.432   3.000 -0.2740 -0.6115  0.5574
 1301SOL    HW2 5120   1.472   2.477   3.025  0.2844  1.0785  0.8589
 1302SOL     OW 5121   1.384   3.324   2.427  0.0780  0.1687  0.1717
 1302SOL    HW1 5122   1.473   3.289   2.423  0.1652  0.5406 -1.9543
 1302SOL    HW2 5123   1.332   3.251   2.462  1.0546 -0.3394  0.6152
 1303SOL     OW 5124   0.839   2.439   3.227 -0.2661 -0.0107 -0.3525
 1303SOL    HW1 5125   0.823   2.501   3.298 -0.8509  0.9472 -1.2988
 1303SOL    HW2 5126   0.823   2.489   3.147  0.8802 -0.9293 -1.1802
 1304SOL     OW 5127   1.436   2.001   3.585  0.4648 -1.0766 -0.4807
 1304SOL    HW1 5128   1.421   1.968   3.673 -2.2119  0.8483 -0.0860
 1304SOL    HW2 5129   1.450   1.923   3.532 -0.7098 -2.4951  1.1886
 1305SOL     OW 5130   1.242   2.666   3.482 -0.3078  0.1890 -0.8163
 1305SOL    HW1 5131   1.334   2.682   3.461 -0.4656  1.1874 -0.7949
 1305SOL    HW2 5132   1.210   2.749   3.517 -1.4039  0.0821 -1.5045
 1306SOL     OW 5133   1.247   2.362   3.075  0.3604 -0.0881 -0.2818
 1306SOL    HW1 5134   1.300   2.436   3.104  2.6643 -2.1226  1.1332
 1306SOL    HW2 5135   1.212   2.324   3.156  1.4365 -2.0557 -0.6779
 1307SOL     OW 5136   1.142   2.333   2.435 -0.1130  0.2389 -0.8034
 1307SOL    HW1 5137   1.223   2.289   2.461 -0.7309  0.5788  1.9531
 1307SOL    HW2 5138   1.166   2.426   2.428 -0.3141  0.3878  0.3593
 1308SOL     OW 5139   0.173   2.314   2.652  0.4811 -0.1064 -0.6898
 1308SOL    HW1 5140   0.240   2.327   2.585  0.0438  2.4232 -0.7644
 1308SOL    HW2 5141   0.094   2.351   2.613  0.2438  1.5561  1.2223
 1309SOL     OW 5142   0.213   3.505   3.358  0.2850  0.0609  0.1818
 1309SOL    HW1 5143   0.121   3.518   3.383  0.1980 -2.2805  1.3644
 1309SOL    HW2 5144   0.209   3.453   3.279  0.6074  0.3810 -0.0457
 1310SOL     OW 5145   0.515   2.121   2.522  0.2457 -0.3210 -0.3044
 1310SOL    HW1 5146   0.541   2.115   2.430  2.8556  1.3920  0.2210
 1310SOL    HW2 5147   0.595   2.104   2.571  0.6820  4.8980  1.4678
 1311SOL     OW 5148   2.434   2.313   4.214  0.1104 -0.2182 -0.2888
 1311SOL    HW1 5149   2.422   2.357   4.299  1.9951  1.0625 -0.6222
 1311SOL    HW2 5150   2.364   2.247   4.212 -0.6822  0.4452  1.7632
 1312SOL     OW 5151   1.042   3.284   2.898  0.1116 -0.1063  0.0667
 1312SOL    HW1 5152   1.138   3.287   2.893  0.0799  0.7008 -0.1970
 1312SOL    HW2 5153   1.023   3.292   2.992  0.2691  1.5734 -0.0199
 1313SOL     OW 5154   0.417   1.924   2.350 -0.0478 -0.5612  0.3286
 1313SOL    HW1 5155   0.422   2.007   2.397 -1.0272 -0.0798 -0.3806
 1313SOL    HW2 5156   0.483   1.868   2.392 -1.0103 -0.2384  2.3934
 1314SOL     OW 5157   1.022   3.356   2.627  0.1770  0.2101 -0.0175
 1314SOL    HW1 5158   0.941   3.306   2.625  0.5083 -0.3578  0.6101
 1314SOL    HW2 5159   1.064   3.332   2.709  0.9939  0.4797 -0.3403
 1315SOL     OW 5160   0.837   3.529   3.305  0.1085 -0.3997  0.0768
 1315SOL    HW1 5161   0.878   3.613   3.324  1.5900 -0.7383 -1.4708
 1315SOL    HW2 5162   0.776   3.548   3.233  0.7088 -0.7124 -0.5159
 1316SOL     OW 5163   1.714   2.818   3.002  0.0214  0.0504  0.4861
 1316SOL    HW1 5164   1.632   2.867   3.002  0.7023  1.2525 -0.4107
 1316SOL    HW2 5165   1.688   2.728   2.981 -1.2625 -0.0476  2.2245
 1317SOL     OW 5166   1.139   3.168   3.496 -0.1990 -0.0723  0.5059
 1317SOL    HW1 5167   1.162   3.193   3.586 -0.2418 -2.5850  1.3163
 1317SOL    HW2 5168   1.058   3.118   3.505  0.6582 -1.7937 -0.6560
 1318SOL     OW 5169   0.509   2.847   2.089  0.0682  0.2185 -0.5104
 1318SOL    HW1 5170   0.518   2.819   1.998 -1.9756 -2.8780  0.0837
 1318SOL    HW2 5171   0.555   2.780   2.140 -2.1523 -0.4037  0.8498
 1319SOL     OW 5172   1.420   2.503   2.479  0.1674 -0.2124 -0.1944
 1319SOL    HW1 5173   1.434   2.465   2.566 -0.4502 -0.4826 -0.2038
 1319SOL    HW2 5174   1.432   2.430   2.419  1.2889  0.1277 -0.3950
 1320SOL     OW 5175   0.585   2.946   3.821  0.5884 -0.4481  0.0075
 1320SOL    HW1 5176   0.654   3.002   3.784 -0.6336 -0.1395 -1.9940
 1320SOL    HW2 5177   0.531   3.006   3.872 -0.1875  0.0810 -1.3721
 1321SOL     OW 5178   1.141   3.632   2.511 -0.4959  0.0356 -0.0353
 1321SOL    HW1 5179   1.101   3.550   2.540 -1.1501  0.4555  0.2668
 1321SOL    HW2 5180   1.220   3.605   2.464 -0.7566 -0.7700 -0.0216
 1322SOL     OW 5181   0.166   1.871   2.885  0.0834  0.0672  0.2519
 1322SOL    HW1 5182   0.211   1.933   2.828 -1.0046 -1.1856 -2.0834
 1322SOL    HW2 5183   0.227   1.799   2.896 -0.4480 -0.6110 -1.0626
 1323SOL     OW 5184   1.300   3.312   2.173  0.3348 -0.6419 -0.0224
 1323SOL    HW1 5185   1.211   3.345   2.162  0.6392 -0.0154 -0.6928
 1323SOL    HW2 5186   1.317   3.318   2.267  0.5323  1.5478 -0.1574
 1324SOL     OW 5187   0.859   3.438   2.324  0.2295  0.2616 -0.1882
 1324SOL    HW1 5188   0.822   3.357   2.359  0.9411 -0.1334 -0.3309
 1324SOL    HW2 5189   0.901   3.479   2.400  1.9037 -0.6688 -0.5591
 1325SOL     OW 5190   1.811   1.834   2.503 -0.3230 -0.2963  0.0641
 1325SOL    HW1 5191   1.828   1.877   2.587 -0.4497  1.7372 -0.8759
 1325SOL    HW2 5192   1.895   1.796   2.478  0.1912  0.6905  0.2604
 1326SOL     OW 5193   0.753   3.356   3.504  0.0658 -0.2426 -0.0047
 1326SOL    HW1 5194   0.679   3.304   3.476 -0.4635 -0.3272  1.4702
 1326SOL    HW2 5195   0.754   3.431   3.444 -0.2544 -1.0100 -0.9938
 1327SOL     OW 5196   1.267   3.797   2.953 -0.1115  0.5520  0.2728
 1327SOL    HW1 5197   1.203   3.770   3.019 -0.3390  3.0069  1.1558
 1327SOL    HW2 5198   1.215   3.845   2.888  0.5421  0.6697 -0.1692
 1328SOL     OW 5199   0.592   3.107   2.392 -0.1787 -0.1963 -0.0008
 1328SOL    HW1 5200   0.550   3.080   2.473 -0.5637  0.9235  0.1918
 1328SOL    HW2 5201   0.527   3.089   2.323  0.0057 -0.8019 -0.0185
 1329SOL     OW 5202   1.631   1.612   3.624  0.8092 -1.1337  0.4954
 1329SOL    HW1 5203   1.670   1.599   3.710 -0.9290 -2.2090  1.1510
 1329SOL    HW2 5204   1.537   1.615   3.640  0.5023 -0.0281 -1.2216
 1330SOL     OW 5205   0.560   2.200   2.267  0.6666  0.2819  0.3939
 1330SOL    HW1 5206   0.509   2.151   2.202  1.0136 -1.0497  1.0809
 1330SOL    HW2 5207   0.646   2.210   2.226  1.3437 -1.8270  1.1394
 1331SOL     OW 5208   0.647   2.072   3.672 -0.4811 -0.1616 -0.0349
 1331SOL    HW1 5209   0.707   2.007   3.635 -0.7217 -0.2028 -0.3536
 1331SOL    HW2 5210   0.704   2.141   3.706 -0.2654  0.0169 -0.7405
 1332SOL     OW 5211   1.222   3.503   3.097  0.0374 -0.1203 -0.0208
 1332SOL    HW1 5212   1.302   3.551   3.078 -0.6958  0.8764 -0.6594
 1332SOL    HW2 5213   1.231   3.477   3.189  0.3749  1.3651  0.3843
 1333SOL     OW 5214   1.710   2.327   3.550  0.4025 -0.1525  0.2584
 1333SOL    HW1 5215   1.616   2.328   3.566  0.3929  0.0834  0.1869
 1333SOL    HW2 5216   1.731   2.234   3.540  0.5665 -0.4269  2.5454
 1334SOL     OW 5217   1.139   3.475   3.582 -0.3543  0.6460  0.3178
 1334SOL    HW1 5218   1.107   3.451   3.495 -1.4194  0.5875  0.7137
 1334SOL    HW2 5219   1.151   3.392   3.628 -0.2344  0.6973  0.3809
 1335SOL     OW 5220   0.649   2.364   2.696  0.1693  0.2673  0.4606
 1335SOL    HW1 5221   0.680   2.305   2.627  3.1692  1.3258  0.7523
 1335SOL    HW2 5222   0.695   2.335   2.775  0.1166  1.7001  1.0470
 1336SOL     OW 5223   0.563   1.658   2.184  0.0126 -0.4524  0.9226
 1336SOL    HW1 5224   0.654   1.682   2.198 -0.5271  1.6069  1.3410
 1336SOL    HW2 5225   0.548   1.582   2.239  0.6244  1.2528  3.6015
 1337SOL     OW 5226   1.332   3.138   1.955 -0.4953 -0.5301 -0.1585
 1337SOL    HW1 5227   1.389   3.215   1.952 -1.5508  0.2642 -0.2992
 1337SOL    HW2 5228   1.272   3.156   2.027 -2.1264 -0.2105 -1.5391
 1338SOL     OW 5229   0.325   1.901   1.848 -0.0418  0.1108  0.0538
 1338SOL    HW1 5230   0.355   1.985   1.814 -0.2704 -0.0282 -0.4932
 1338SOL    HW2 5231   0.404   1.862   1.887  0.4450 -0.1554 -1.1678
 1339SOL     OW 5232   1.034   2.116   2.299  0.1438 -0.0161  0.5911
 1339SOL    HW1 5233   1.123   2.086   2.283 -0.3998 -1.4907  0.0813
 1339SOL    HW2 5234   1.043   2.203   2.337  1.7690  0.1269 -0.0660
 1340SOL     OW 5235   1.450   2.211   3.834  0.0527 -0.0390 -0.1464
 1340SOL    HW1 5236   1.444   2.265   3.755 -2.2312 -0.6766 -0.4692
 1340SOL    HW2 5237   1.475   2.124   3.803 -0.5565 -0.2170 -0.1567
 1341SOL     OW 5238   1.457   3.131   3.491  0.6344  0.0693 -0.1432
 1341SOL    HW1 5239   1.446   3.155   3.583  1.3152 -2.0301  0.5237
 1341SOL    HW2 5240   1.541   3.169   3.466  1.4904 -1.1532  0.7698
 1342SOL     OW 5241   0.294   2.768   2.782 -0.6282  0.6296  0.7231
 1342SOL    HW1 5242   0.213   2.750   2.735  0.4751 -1.4736 -0.4975
 1342SOL    HW2 5243   0.350   2.693   2.764  1.5835  1.9689  1.5990
 1343SOL     OW 5244   1.332   3.285   2.984 -0.4218 -0.3992  0.1926
 1343SOL    HW1 5245   1.305   3.374   2.963 -0.3808 -0.7106 -1.3083
 1343SOL    HW2 5246   1.322   3.278   3.079 -1.5231  0.8435  0.1946
 1344SOL     OW 5247   1.039   2.350   2.008  0.2778 -0.3730 -0.0951
 1344SOL    HW1 5248   1.095   2.403   2.065 -0.0396 -0.3593  0.2071
 1344SOL    HW2 5249   1.099   2.313   1.943  1.0557 -2.1653  1.5148
 1345SOL     OW 5250   0.209   2.337   2.976 -0.7187  0.4875  0.1261
 1345SOL    HW1 5251   0.251   2.279   3.039 -2.8809 -2.1001 -0.6461
 1345SOL    HW2 5252   0.236   2.304   2.891 -1.1692  1.2959 -0.3451
 1346SOL     OW 5253   0.374   1.670   2.990 -0.0885 -0.3911  0.1070
 1346SOL    HW1 5254   0.469   1.661   2.996 -0.2959 -2.0264  1.9403
 1346SOL    HW2 5255   0.342   1.645   3.077 -2.3104 -1.4671 -0.9328
 1347SOL     OW 5256   1.012   2.212   2.650  0.3723 -0.5406 -0.4395
 1347SOL    HW1 5257   1.014   2.259   2.567  0.1924 -0.8016 -0.5918
 1347SOL    HW2 5258   1.104   2.194   2.670  0.4526  0.0041 -0.3043
 1348SOL     OW 5259   0.719   2.271   2.927  0.3690  0.1337  0.0857
 1348SOL    HW1 5260   0.681   2.226   3.003  0.8736  0.7878  0.7379
 1348SOL    HW2 5261   0.807   2.234   2.919 -0.2968 -1.2820 -1.3424
 1349SOL     OW 5262   1.736   2.569   2.795  0.0227 -0.2600  0.1490
 1349SOL    HW1 5263   1.657   2.550   2.844 -1.1404 -1.5052 -2.0679
 1349SOL    HW2 5264   1.706   2.622   2.721  1.3141 -0.4941 -0.5724
 1350SOL     OW 5265   2.001   2.694   2.852  0.0061 -0.0458  0.1110
 1350SOL    HW1 5266   2.079   2.642   2.873 -0.7705 -1.0036  0.6883
 1350SOL    HW2 5267   1.930   2.630   2.847 -0.8475  0.8778  0.1167
 1351SOL     OW 5268   1.693   2.177   2.730 -0.0539  0.1318  0.5704
 1351SOL    HW1 5269   1.678   2.175   2.824 -1.4777  1.7987  0.4339
 1351SOL    HW2 5270   1.770   2.232   2.719  0.6945 -0.8381  0.7747
 1352SOL     OW 5271   0.520   3.226   2.012 -0.4025 -0.4860  0.4856
 1352SOL    HW1 5272   0.583   3.157   1.992 -0.6037 -0.1325 -1.4847
 1352SOL    HW2 5273   0.466   3.188   2.082 -0.1602 -2.1246 -0.1624
 1353SOL     OW 5274   1.770   3.130   2.994 -0.4923 -0.0807  0.3105
 1353SOL    HW1 5275   1.676   3.111   2.986 -0.1603 -1.5260 -0.5195
 1353SOL    HW2 5276   1.794   3.096   3.080 -0.2253 -2.2444 -0.5456
 1354SOL     OW 5277   0.936   2.812   2.353  0.1742 -0.2448 -0.2314
 1354SOL    HW1 5278   1.007   2.749   2.367  1.1021  0.7048 -0.5210
 1354SOL    HW2 5279   0.948   2.876   2.423  0.8133  0.9736 -1.4197
 1355SOL     OW 5280   0.362   2.373   2.463  0.1247  0.6785  0.6510
 1355SOL    HW1 5281   0.416   2.295   2.452  0.7406  1.0568  0.9852
 1355SOL    HW2 5282   0.338   2.398   2.374  0.4555  0.4816  0.5045
 1356SOL     OW 5283   1.748   2.831   3.464  0.2141 -0.3382  0.0492
 1356SOL    HW1 5284   1.835   2.792   3.472  0.7883  0.9329  0.2698
 1356SOL    HW2 5285   1.751   2.880   3.382 -0.5808 -0.9633 -0.3639
 1357SOL     OW 5286   1.311   3.228   3.240  0.3091  0.4563 -0.8779
 1357SOL    HW1 5287   1.406   3.238   3.246  0.5011 -1.3891 -0.0577
 1357SOL    HW2 5288   1.283   3.221   3.331 -1.0219  3.7022 -0.9275
 1358SOL     OW 5289   1.571   3.530   4.085 -0.1134  0.3158  0.1160
 1358SOL    HW1 5290   1.593   3.613   4.043 -0.4651 -0.4215 -1.5965
 1358SOL    HW2 5291   1.650   3.477   4.077 -0.3386  0.0018 -0.0468
 1359SOL     OW 5292   1.292   2.897   3.055 -0.5571 -0.0246  0.3432
 1359SOL    HW1 5293   1.215   2.935   3.097 -0.6201 -0.8832  1.0181
 1359SOL    HW2 5294   1.262   2.869   2.969 -0.3664  1.9954 -0.4361
 1360SOL     OW 5295   1.509   2.701   3.409  0.0719 -0.4510  0.5629
 1360SOL    HW1 5296   1.603   2.719   3.411 -0.0760  0.2521  1.4669
 1360SOL    HW2 5297   1.470   2.782   3.377 -0.1796 -1.0468 -0.7465
 1361SOL     OW 5298   0.778   1.826   3.081  0.2432 -0.0399 -0.2152
 1361SOL    HW1 5299   0.785   1.782   3.166  0.2519 -0.1416 -0.2687
 1361SOL    HW2 5300   0.744   1.759   3.022 -0.7002  0.3101 -0.0741
 1362SOL     OW 5301   1.076   2.761   3.866  0.0502  0.0088  0.5334
 1362SOL    HW1 5302   1.071   2.711   3.948 -1.0918 -1.8065 -0.5884
 1362SOL    HW2 5303   1.061   2.696   3.797  0.0430  1.6546 -1.0858
 1363SOL     OW 5304   0.676   2.738   2.283  0.1531  0.1719 -0.0079
 1363SOL    HW1 5305   0.634   2.744   2.369  0.5100  1.3205  0.1094
 1363SOL    HW2 5306   0.767   2.762   2.299 -0.1170  2.0137 -0.9220
 1364SOL     OW 5307   0.252   2.589   3.102  0.0545  0.7246 -0.5427
 1364SOL    HW1 5308   0.231   2.513   3.048 -1.4054  1.1838 -0.6864
 1364SOL    HW2 5309   0.341   2.613   3.077 -0.4635  0.7187 -2.5206
 1365SOL     OW 5310   1.472   1.815   3.406  0.4044 -0.0812  0.0476
 1365SOL    HW1 5311   1.453   1.763   3.328  1.4614 -2.4629  1.2590
 1365SOL    HW2 5312   1.565   1.799   3.423 -0.1204 -0.9173  2.6018
 1366SOL     OW 5313   0.396   3.166   3.649 -1.0210  0.2124  0.3392
 1366SOL    HW1 5314   0.340   3.151   3.573 -1.9586 -1.6018  1.3195
 1366SOL    HW2 5315   0.359   3.243   3.691 -1.4478  0.3085 -0.1993
 1367SOL     OW 5316   0.368   3.064   2.203 -0.4029 -0.6431 -0.5101
 1367SOL    HW1 5317   0.291   3.043   2.255 -1.2925  0.4398 -1.3254
 1367SOL    HW2 5318   0.406   2.979   2.180 -0.8418 -1.1605  0.6332
 1368SOL     OW 5319   0.459   2.533   2.685  0.0870  0.0739  0.0775
 1368SOL    HW1 5320   0.539   2.484   2.703  0.8851  1.3067  0.0009
 1368SOL    HW2 5321   0.396   2.466   2.658  1.2888 -0.8481 -0.5541
 1369SOL     OW 5322   0.873   2.844   2.955 -0.3995 -0.4999 -0.4584
 1369SOL    HW1 5323   0.904   2.927   2.917  0.1964 -0.1148  0.8001
 1369SOL    HW2 5324   0.952   2.790   2.962 -0.1474  0.0400  1.6551
 1370SOL     OW 5325   1.696   3.288   3.426  0.4272 -0.0227 -0.1796
 1370SOL    HW1 5326   1.729   3.368   3.467  0.3918  0.9918 -2.0165
 1370SOL    HW2 5327   1.774   3.234   3.413  0.7824  0.6187 -0.7963
 1371SOL     OW 5328   1.449   2.870   2.629  0.1956  0.0657 -0.5013
 1371SOL    HW1 5329   1.483   2.861   2.540  1.4537  2.1224 -0.3202
 1371SOL    HW2 5330   1.528   2.883   2.683 -0.5661 -0.7452  0.8605
 1372SOL     OW 5331   0.628   3.054   3.400  0.3695 -0.1117  0.5118
 1372SOL    HW1 5332   0.663   2.966   3.409  0.4086 -0.1561 -0.0231
 1372SOL    HW2 5333   0.562   3.062   3.468  0.6014 -0.4367  0.7752
 1373SOL     OW 5334   0.812   2.531   2.967 -0.1912 -0.4257 -0.1885
 1373SOL    HW1 5335   0.793   2.442   2.937  0.6207 -0.3537 -0.9518
 1373SOL    HW2 5336   0.907   2.538   2.961 -0.3634  1.0703 -1.8456
 1374SOL     OW 5337   1.656   2.209   4.042 -0.3179 -0.4853 -0.4052
 1374SOL    HW1 5338   1.715   2.276   4.007 -0.2749 -0.2195  0.1565
 1374SOL    HW2 5339   1.570   2.233   4.010 -0.4874  0.5313  0.7535
 1375SOL     OW 5340   0.787   1.756   3.351  0.5319 -0.1663 -0.2197
 1375SOL    HW1 5341   0.702   1.714   3.343  0.3752  0.3991 -1.9212
 1375SOL    HW2 5342   0.842   1.691   3.394 -0.4716 -0.9684 -0.1200
 1376SOL     OW 5343   0.821   2.011   3.363  0.5589 -0.4078 -0.0736
 1376SOL    HW1 5344   0.915   2.022   3.376  0.4542 -1.2213  1.6505
 1376SOL    HW2 5345   0.809   1.918   3.344  0.2246 -0.0336 -1.9044
 1377SOL     OW 5346   1.074   2.598   3.033  0.5377 -0.1282  0.6247
 1377SOL    HW1 5347   1.062   2.634   3.121  1.2685 -0.5826  0.9208
 1377SOL    HW2 5348   1.129   2.521   3.046  2.1637  0.7917 -0.4031
 1378SOL     OW 5349   1.621   2.624   3.695 -0.3617 -0.1792 -0.2076
 1378SOL    HW1 5350   1.676   2.689   3.652 -0.3397 -0.1453 -0.1291
 1378SOL    HW2 5351   1.568   2.587   3.625 -2.6046  2.1001  0.1639
 1379SOL     OW 5352   1.606   2.661   2.321 -0.4883  1.0226  0.3477
 1379SOL    HW1 5353   1.647   2.579   2.295 -0.7036  0.3085  2.0894
 1379SOL    HW2 5354   1.568   2.643   2.407 -0.1303  3.0635  1.0097
 1380SOL     OW 5355   0.042   2.057   2.453  0.5108  0.2526 -0.3348
 1380SOL    HW1 5356   0.018   2.150   2.459 -1.5293 -0.2704  0.2046
 1380SOL    HW2 5357  -0.039   2.010   2.471  1.4402 -1.6549 -0.9066
 1381SOL     OW 5358   0.170   2.874   3.540  0.2885  0.2992  0.0328
 1381SOL    HW1 5359   0.212   2.956   3.516  0.4060  0.0933 -0.4738
 1381SOL    HW2 5360   0.203   2.810   3.476  1.0974 -0.4011  1.1022
 1382SOL     OW 5361   0.617   2.850   2.833 -0.2973  0.0391  0.3989
 1382SOL    HW1 5362   0.698   2.844   2.884 -0.4638  0.7135  0.7415
 1382SOL    HW2 5363   0.645   2.829   2.743  0.1593 -0.2421  0.5979
 1383SOL     OW 5364   2.061   2.504   4.132 -0.0172 -0.4090  0.6792
 1383SOL    HW1 5365   2.094   2.571   4.193 -0.5404  3.9886 -3.3184
 1383SOL    HW2 5366   2.125   2.503   4.061 -1.9142 -1.4268 -1.1231
 1384SOL     OW 5367   0.167   1.820   2.428  0.1971  0.3987 -0.2426
 1384SOL    HW1 5368   0.138   1.904   2.462  2.4275  1.9434 -1.8459
 1384SOL    HW2 5369   0.237   1.842   2.366  0.2901 -2.5911 -1.3783
 1385SOL     OW 5370   1.576   2.405   2.182  0.1321  0.1511 -0.0930
 1385SOL    HW1 5371   1.653   2.354   2.157 -0.4924 -0.6469 -0.4650
 1385SOL    HW2 5372   1.523   2.344   2.233 -0.4438  0.5529 -0.2013
 1386SOL     OW 5373   0.756   2.782   2.612 -0.2520 -0.1371  0.0908
 1386SOL    HW1 5374   0.785   2.694   2.589 -0.1545  0.4927 -2.5370
 1386SOL    HW2 5375   0.799   2.840   2.548 -0.4565  1.8054  1.6116
 1387SOL     OW 5376   1.186   3.029   3.889  0.2667 -0.0322  0.1800
 1387SOL    HW1 5377   1.163   2.936   3.894 -0.0495 -0.0854 -1.7541
 1387SOL    HW2 5378   1.223   3.049   3.976  1.9440 -2.3687  0.0996
 1388SOL     OW 5379   1.748   3.491   3.610  0.1129 -0.1273  0.1257
 1388SOL    HW1 5380   1.751   3.442   3.692 -0.4680  1.0360  0.8787
 1388SOL    HW2 5381   1.672   3.549   3.621 -0.5226 -0.5749 -1.6054
 1389SOL     OW 5382   0.509   2.553   3.332 -0.0739 -0.6781  0.0031
 1389SOL    HW1 5383   0.582   2.584   3.278 -2.6441  0.5341 -3.1074
 1389SOL    HW2 5384   0.509   2.458   3.321  1.0588 -0.7110  0.1668
 1390SOL     OW 5385   1.737   2.181   2.226 -0.1951 -0.4996 -0.2565
 1390SOL    HW1 5386   1.767   2.200   2.314  1.8798 -3.3726 -0.2390
 1390SOL    HW2 5387   1.816   2.158   2.177 -1.5473 -1.1857 -2.2709
 1391SOL     OW 5388   1.261   2.909   1.837  0.1073  0.2312 -1.0076
 1391SOL    HW1 5389   1.265   2.937   1.746  0.9993  0.3778 -0.9303
 1391SOL    HW2 5390   1.263   2.991   1.887 -1.1956  0.1969 -0.8594
 1392SOL     OW 5391   0.921   3.065   2.808  0.4155 -0.4872  0.1116
 1392SOL    HW1 5392   0.830   3.094   2.806  1.0517  1.5748 -1.3866
 1392SOL    HW2 5393   0.970   3.140   2.841  1.6521 -1.3926  0.4187
 1393SOL     OW 5394   0.139   2.986   2.610  0.5590  0.3255 -0.6698
 1393SOL    HW1 5395   0.057   2.941   2.627  0.8494  0.2296  0.5546
 1393SOL    HW2 5396   0.153   2.976   2.516 -1.2095  1.0010 -1.0481
 1394SOL     OW 5397   0.319   2.060   2.704 -0.3135  0.4644 -0.3540
 1394SOL    HW1 5398   0.271   2.137   2.675 -1.8672 -0.6773 -0.9894
 1394SOL    HW2 5399   0.406   2.070   2.665 -0.1172  2.3669  0.4547
 1395SOL     OW 5400   1.439   2.271   3.572 -0.2703  0.4109  0.6161
 1395SOL    HW1 5401   1.388   2.293   3.494 -0.9710 -1.5132  0.4787
 1395SOL    HW2 5402   1.446   2.176   3.570  0.0515  0.3490  2.6955
 1396SOL     OW 5403   1.132   2.148   3.806 -0.2694  0.2907 -0.7717
 1396SOL    HW1 5404   1.040   2.173   3.807 -0.6062 -0.8939  0.5089
 1396SOL    HW2 5405   1.176   2.220   3.761 -1.5543  1.8133  0.3000
 1397SOL     OW 5406   8.807   3.116   2.258 -0.2485 -0.0989 -0.0244
 1397SOL    HW1 5407   8.802   3.104   2.163  1.5160 -0.2701 -0.1278
 1397SOL    HW2 5408   8.895   3.150   2.273  0.2959 -2.1110  1.7562
 1398SOL     OW 5409   0.467   3.789   2.985 -0.1559 -0.0333  0.4406
 1398SOL    HW1 5410   0.494   3.873   2.946 -1.4182  0.3468  0.3453
 1398SOL    HW2 5411   0.458   3.730   2.911 -0.2368  0.0257  0.4032
 1399SOL     OW 5412   0.524   3.398   3.083 -0.3272  0.0027  0.0712
 1399SOL    HW1 5413   0.548   3.305   3.082  2.2902  0.6114 -1.2344
 1399SOL    HW2 5414   0.517   3.422   2.991  0.8470  1.4808  0.3286
 1400SOL     OW 5415   1.356   2.574   3.173 -0.5196  0.0277 -0.5147
 1400SOL    HW1 5416   1.337   2.658   3.133 -0.0017 -0.0131 -0.8531
 1400SOL    HW2 5417   1.408   2.595   3.250  1.7935 -0.1011 -1.9525
 1401SOL     OW 5418   8.786   2.340   2.486 -0.1008 -0.0080  0.2972
 1401SOL    HW1 5419   8.728   2.396   2.537  0.7200  1.5252 -0.3778
 1401SOL    HW2 5420   8.770   2.365   2.395  0.5376 -0.6286  0.0062
 1402SOL     OW 5421   8.745   1.957   3.284 -0.0195 -0.2938 -0.2990
 1402SOL    HW1 5422   8.741   1.997   3.371  1.8431 -0.4414 -0.0956
 1402SOL    HW2 5423   8.795   1.876   3.297  0.6202 -0.1324 -1.5629
 1403SOL     OW 5424   1.553   2.460   4.235  0.1630  0.1015 -0.1463
 1403SOL    HW1 5425   1.500   2.424   4.164  0.8796  0.9090 -1.1239
 1403SOL    HW2 5426   1.643   2.435   4.213  0.2621 -0.9751  1.3154
 1404SOL     OW 5427   0.852   2.521   2.605  0.0278  0.3802 -0.0005
 1404SOL    HW1 5428   0.790   2.465   2.653  0.5080 -1.7848 -1.7501
 1404SOL    HW2 5429   0.847   2.491   2.514  1.0709  2.5685 -0.8637
 1405SOL     OW 5430   1.983   2.243   3.227  0.5245 -0.0971 -0.1983
 1405SOL    HW1 5431   1.970   2.273   3.317  0.4767  1.1511 -0.5900
 1405SOL    HW2 5432   2.069   2.200   3.228  0.3169 -0.5083  0.5328
 1406SOL     OW 5433   0.273   3.396   3.694 -0.3032  0.3496  0.1641
 1406SOL    HW1 5434   0.348   3.444   3.659  0.1634  0.8793  1.7842
 1406SOL    HW2 5435   0.199   3.423   3.639  0.6608 -0.1661 -1.4454
 1407SOL     OW 5436   1.023   2.197   3.238  0.0581  0.4527  0.2007
 1407SOL    HW1 5437   0.962   2.267   3.214  0.5149  0.5512 -0.7172
 1407SOL    HW2 5438   1.005   2.127   3.175  0.8078  0.4391 -0.0028
 1408SOL     OW 5439   1.081   3.421   3.318  0.0390  0.0312 -0.3766
 1408SOL    HW1 5440   0.991   3.454   3.318 -0.1268 -0.3925  0.2576
 1408SOL    HW2 5441   1.071   3.326   3.313  0.5164  0.0585 -2.3777
 1409SOL     OW 5442   0.430   2.216   1.965  0.1308 -0.0002  0.0861
 1409SOL    HW1 5443   0.398   2.140   2.014  0.3416  0.4570  0.9489
 1409SOL    HW2 5444   0.402   2.199   1.874  0.1645 -1.0956  0.2627
 1410SOL     OW 5445   0.456   2.650   3.569 -0.4186 -0.4158 -0.0207
 1410SOL    HW1 5446   0.493   2.607   3.492 -1.2276 -0.8356 -0.1821
 1410SOL    HW2 5447   0.531   2.666   3.626  0.3311  0.6636 -1.2530
 1411SOL     OW 5448   1.088   2.609   2.720  0.6650 -0.6141  0.0102
 1411SOL    HW1 5449   1.020   2.592   2.655  0.1636  0.2045  0.3070
 1411SOL    HW2 5450   1.045   2.594   2.804  1.4195 -2.0686  0.1667
 1412SOL     OW 5451   1.549   2.931   2.367 -0.3704  0.1479  0.0266
 1412SOL    HW1 5452   1.484   2.929   2.297 -0.3406 -0.4584  0.0100
 1412SOL    HW2 5453   1.603   2.854   2.352  2.2895  2.1855 -1.7288
 1413SOL     OW 5454   1.732   3.320   3.831  0.2076 -0.5382 -0.6057
 1413SOL    HW1 5455   1.698   3.317   3.920  1.7210  2.1110  0.1853
 1413SOL    HW2 5456   1.801   3.254   3.830  1.6462  0.8377  0.9687
 1414SOL     OW 5457   1.405   3.658   3.312 -0.0100 -0.1472 -0.7782
 1414SOL    HW1 5458   1.358   3.739   3.294 -2.3347 -1.5149 -1.3979
 1414SOL    HW2 5459   1.366   3.625   3.393 -1.2155 -1.9793 -1.9975
 1415SOL     OW 5460   8.786   2.925   3.301 -0.1255  0.4735  0.5262
 1415SOL    HW1 5461   8.806   2.840   3.264 -0.0490  0.4624  0.5919
 1415SOL    HW2 5462   8.849   2.936   3.373  0.4799  0.9852 -0.0605
 1416SOL     OW 5463   0.778   3.133   3.689 -0.2153  0.0555 -0.0692
 1416SOL    HW1 5464   0.826   3.077   3.628  1.8296  0.9218  0.6197
 1416SOL    HW2 5465   0.787   3.221   3.652  0.5226  0.5074  1.1240
 1417SOL     OW 5466   1.451   2.233   2.357 -0.3468 -0.1172  0.3952
 1417SOL    HW1 5467   1.530   2.191   2.392  0.6212  1.9299  0.7783
 1417SOL    HW2 5468   1.383   2.166   2.365  0.1452 -0.3562  4.8039
 1418SOL     OW 5469   1.281   3.072   2.581 -0.5768 -0.0956  0.0641
 1418SOL    HW1 5470   1.335   2.992   2.576 -0.0814  0.2533 -0.2327
 1418SOL    HW2 5471   1.325   3.127   2.645 -0.7814  0.0470  0.0842
 1419SOL     OW 5472   8.793   3.645   3.697 -0.1653  0.1181  0.3886
 1419SOL    HW1 5473   8.719   3.696   3.731 -0.5858  0.5547 -1.0934
 1419SOL    HW2 5474   8.855   3.641   3.770 -0.7564  1.5113  1.0056
 1420SOL     OW 5475   1.242   2.814   2.812 -0.0602  0.4750 -0.1823
 1420SOL    HW1 5476   1.186   2.746   2.775  0.5853 -0.2540  0.1702
 1420SOL    HW2 5477   1.320   2.814   2.757 -0.2786  1.2987 -0.5038
 1421SOL     OW 5478   1.016   2.782   3.247  0.3341 -0.2450  0.1950
 1421SOL    HW1 5479   0.994   2.869   3.214 -0.3464 -0.5302 -0.1179
 1421SOL    HW2 5480   0.991   2.784   3.339  1.0852  0.1510  0.3984
 1422SOL     OW 5481   0.770   3.371   1.951  0.0116  0.1985  0.0581
 1422SOL    HW1 5482   0.841   3.316   1.918  0.7356  0.3623  1.2889
 1422SOL    HW2 5483   0.711   3.310   1.995  0.9515  0.3949  1.6578
 1423SOL     OW 5484   1.588   3.434   3.225  0.6664  0.0447  0.3085
 1423SOL    HW1 5485   1.529   3.492   3.272 -1.1343 -1.1889 -0.3443
 1423SOL    HW2 5486   1.622   3.374   3.292 -0.6883 -0.7295  0.3287
 1424SOL     OW 5487   1.482   2.369   2.710  0.1349 -0.6214 -0.1147
 1424SOL    HW1 5488   1.475   2.418   2.793 -0.1461 -0.0445 -0.4721
 1424SOL    HW2 5489   1.556   2.310   2.724  0.3158 -0.2806  0.4241
 1425SOL     OW 5490   0.396   2.566   2.176 -0.4775  0.4250 -0.1952
 1425SOL    HW1 5491   0.355   2.479   2.173  1.7432 -0.6722 -0.6443
 1425SOL    HW2 5492   0.462   2.564   2.107 -1.2457  2.9983 -1.1311
 1426SOL     OW 5493   0.814   3.090   2.232  0.7929  0.1543  0.4104
 1426SOL    HW1 5494   0.877   3.125   2.295  0.5007 -1.2331  1.5151
 1426SOL    HW2 5495   0.737   3.066   2.285  0.6873 -1.4072 -0.3825
 1427SOL     OW 5496   1.372   2.919   3.318  0.6166  0.0467  0.4295
 1427SOL    HW1 5497   1.313   2.935   3.244 -0.0742  1.3151  1.2064
 1427SOL    HW2 5498   1.392   3.007   3.351  0.7116 -0.5000  1.8895
 1428SOL     OW 5499   1.088   3.034   2.141  0.1834 -0.5314  0.6557
 1428SOL    HW1 5500   1.081   3.079   2.226  1.3597  0.4051  0.2778
 1428SOL    HW2 5501   1.031   2.957   2.151 -1.6296  0.8221  1.4397
 1429SOL     OW 5502   1.140   3.701   2.080  0.2684  0.4891  0.2775
 1429SOL    HW1 5503   1.124   3.613   2.113 -0.1370  0.7922  0.9091
 1429SOL    HW2 5504   1.144   3.691   1.985 -0.2852 -0.1269  0.3163
 1430SOL     OW 5505   0.700   2.695   3.183 -0.0512 -0.1599  0.4464
 1430SOL    HW1 5506   0.619   2.729   3.144 -0.3541  0.4101  1.5454
 1430SOL    HW2 5507   0.768   2.754   3.150 -0.0949 -0.5203 -0.3202
 1431SOL     OW 5508   1.960   3.170   3.693 -0.2816  0.4380 -0.4545
 1431SOL    HW1 5509   2.011   3.251   3.687 -0.4840  0.4889 -1.6893
 1431SOL    HW2 5510   1.925   3.157   3.605 -0.0935 -1.0946 -0.3358
 1432SOL     OW 5511   0.664   3.110   2.750  0.2203  0.1486  0.0024
 1432SOL    HW1 5512   0.586   3.154   2.714 -0.5851 -0.8265  0.5011
 1432SOL    HW2 5513   0.629   3.035   2.798  1.2217  1.3343  2.7730
 1433SOL     OW 5514   0.655   1.636   2.922  0.1298 -0.5934 -0.5681
 1433SOL    HW1 5515   0.632   1.640   2.830 -2.6504 -0.4172  0.0447
 1433SOL    HW2 5516   0.665   1.542   2.941 -0.1507 -0.6814 -0.8626
 1434SOL     OW 5517   0.301   3.144   3.000 -0.2534  0.3043  0.4081
 1434SOL    HW1 5518   0.380   3.112   3.045  1.2232  0.9896 -1.5495
 1434SOL    HW2 5519   0.244   3.068   2.996  0.9394 -0.6362  0.5848
 1435SOL     OW 5520   1.789   2.518   3.384 -0.3342  0.1699 -0.0953
 1435SOL    HW1 5521   1.763   2.450   3.445 -1.5486  1.0823  0.4383
 1435SOL    HW2 5522   1.879   2.540   3.409  0.0109 -1.0861 -0.1629
 1436SOL     OW 5523   0.069   3.272   2.497 -0.4411 -0.0873  0.2853
 1436SOL    HW1 5524   0.099   3.206   2.561 -0.5309 -0.7789 -0.3714
 1436SOL    HW2 5525  -0.016   3.301   2.532 -2.3213 -3.1129 -1.2691
 1437SOL     OW 5526   0.199   2.296   3.338 -0.3541  0.3790  0.2842
 1437SOL    HW1 5527   0.231   2.341   3.417 -0.1292 -0.3689  0.6257
 1437SOL    HW2 5528   0.274   2.295   3.279 -0.2131  0.0052  0.4722
 1438SOL     OW 5529   1.092   2.029   3.442  0.0206 -0.5106 -0.5052
 1438SOL    HW1 5530   1.082   2.102   3.381  1.7607 -0.2866 -0.5811
 1438SOL    HW2 5531   1.186   2.026   3.461 -0.1593 -2.0456  0.3543
 1439SOL     OW 5532   8.790   2.238   2.125 -0.5056 -0.5870 -0.0509
 1439SOL    HW1 5533   8.794   2.328   2.157 -0.6616  0.3234 -2.3572
 1439SOL    HW2 5534   8.707   2.234   2.077 -0.4363 -1.9205 -0.0912
 1440SOL     OW 5535   1.202   2.896   3.621  0.0480  0.1043 -0.4064
 1440SOL    HW1 5536   1.268   2.953   3.581 -1.0529  1.5070 -0.3390
 1440SOL    HW2 5537   1.220   2.901   3.715 -0.5635  1.0787 -0.3242
 1441SOL     OW 5538   0.267   2.315   2.214  0.2943 -0.2465  0.1541
 1441SOL    HW1 5539   0.234   2.243   2.267 -1.4639 -0.3827 -1.0464
 1441SOL    HW2 5540   0.317   2.273   2.144  1.0817 -0.1631  0.6555
 1442SOL     OW 5541   1.066   3.147   2.391  0.7186  0.5427  0.0247
 1442SOL    HW1 5542   0.999   3.173   2.454  0.0200 -1.8917  0.3750
 1442SOL    HW2 5543   1.147   3.146   2.441  0.0964 -1.8591  1.1417
 1443SOL     OW 5544   1.242   2.356   3.401 -0.0217  0.1143  0.3074
 1443SOL    HW1 5545   1.150   2.349   3.425 -0.2161  0.5966 -0.2864
 1443SOL    HW2 5546   1.262   2.450   3.409  0.0218  0.2262 -1.0009
 1444SOL     OW 5547   1.749   4.022   3.064 -0.4608  0.0811 -0.9622
 1444SOL    HW1 5548   1.819   3.957   3.059 -0.5443 -0.1179  0.1522
 1444SOL    HW2 5549   1.668   3.972   3.058 -0.6181 -0.3432  2.6090
 1445SOL     OW 5550   0.547   2.264   3.451  0.6304 -0.5049 -0.0197
 1445SOL    HW1 5551   0.605   2.212   3.507  1.2551 -0.6644 -0.7986
 1445SOL    HW2 5552   0.514   2.333   3.509  2.1294 -0.0074  0.2965
 1446SOL     OW 5553   1.531   2.630   3.953 -0.1318 -0.4273  0.1200
 1446SOL    HW1 5554   1.616   2.638   3.997  1.0586  0.0193 -2.1079
 1446SOL    HW2 5555   1.553   2.628   3.860 -2.5876 -0.4052 -0.5164
 1447SOL     OW 5556   0.340   3.738   3.865 -0.5005 -0.2080 -0.1824
 1447SOL    HW1 5557   0.363   3.748   3.773  0.1360  0.4550  0.0364
 1447SOL    HW2 5558   0.349   3.827   3.901  1.7779 -0.8582  1.0680
 1448SOL     OW 5559   1.831   2.928   3.216  0.1157  0.2344 -0.1427
 1448SOL    HW1 5560   1.917   2.889   3.229  0.5441  1.4380  0.8869
 1448SOL    HW2 5561   1.790   2.874   3.149  1.3264 -0.8959 -0.0158
 1449SOL     OW 5562   1.494   1.759   2.467  0.1966 -0.1919 -0.2703
 1449SOL    HW1 5563   1.477   1.853   2.474 -1.0564 -0.2954 -1.4840
 1449SOL    HW2 5564   1.583   1.748   2.499  1.3594  1.7802 -2.5269
 1450SOL     OW 5565   0.989   2.289   2.925  0.6190  0.4896 -0.3749
 1450SOL    HW1 5566   1.076   2.313   2.957  1.2589 -1.5432 -0.4611
 1450SOL    HW2 5567   1.004   2.249   2.840 -0.2315 -1.0466  0.1556
 1451SOL     OW 5568   1.190   1.609   3.405 -0.2752 -0.8863 -0.0198
 1451SOL    HW1 5569   1.172   1.643   3.318 -1.0564 -1.0740  0.0600
 1451SOL    HW2 5570   1.142   1.667   3.464 -0.1894 -1.0826  0.2474
 1452SOL     OW 5571   1.172   2.295   4.110  0.3781 -0.4754  0.3399
 1452SOL    HW1 5572   1.253   2.340   4.086  0.7990 -0.8507  1.0332
 1452SOL    HW2 5573   1.200   2.209   4.141 -0.3176 -0.7462  0.2442
 1453SOL     OW 5574   0.754   3.060   1.969 -0.1763 -0.2286 -0.2845
 1453SOL    HW1 5575   0.790   3.069   2.057 -3.0011  0.1789  0.9213
 1453SOL    HW2 5576   0.771   2.968   1.946 -0.2776 -0.6147  1.0949
 1454SOL     OW 5577   1.028   3.710   3.101  0.0738  0.2859 -0.1198
 1454SOL    HW1 5578   0.941   3.693   3.066  0.3990  1.5096 -1.6525
 1454SOL    HW2 5579   1.073   3.626   3.096 -0.5818 -0.0442 -0.6253
 1455SOL     OW 5580   0.463   2.965   2.583 -0.3234 -0.1648 -0.0849
 1455SOL    HW1 5581   0.413   2.950   2.664 -0.0854 -0.1471  0.0691
 1455SOL    HW2 5582   0.486   2.877   2.553  1.3112 -0.1463  0.9696
 1456SOL     OW 5583   1.103   2.729   1.959  0.0241 -0.0690  0.1294
 1456SOL    HW1 5584   1.134   2.665   1.897  1.4387  0.8721 -0.1791
 1456SOL    HW2 5585   1.136   2.813   1.927  0.9826  0.4303  2.2330
 1457SOL     OW 5586   1.868   3.625   2.869  0.0128  0.1340  0.0110
 1457SOL    HW1 5587   1.855   3.633   2.775  2.4510  0.4246 -0.3704
 1457SOL    HW2 5588   1.782   3.601   2.904 -0.3704 -3.0671 -2.6374
 1458SOL     OW 5589   0.236   2.671   3.379 -0.5474 -0.4550  0.1136
 1458SOL    HW1 5590   0.230   2.634   3.291 -2.0905 -1.6467  0.6742
 1458SOL    HW2 5591   0.327   2.654   3.406 -0.0567 -0.0653 -1.2348
 1459SOL     OW 5592   0.693   3.449   2.773 -0.6391  0.4207  0.2413
 1459SOL    HW1 5593   0.686   3.522   2.711  1.2328 -0.1415 -0.7015
 1459SOL    HW2 5594   0.615   3.396   2.756 -1.2982  1.4409 -0.0493
 1460SOL     OW 5595   0.949   2.952   3.572  0.3568 -0.0574 -0.3392
 1460SOL    HW1 5596   1.040   2.925   3.587  0.1665 -0.4005  0.2184
 1460SOL    HW2 5597   0.904   2.871   3.547  0.1653  0.0853 -0.4571
 1461SOL     OW 5598   1.419   2.164   3.038 -0.0753  0.1579  0.1104
 1461SOL    HW1 5599   1.464   2.148   3.121  0.9295  2.6886  0.1598
 1461SOL    HW2 5600   1.356   2.233   3.059 -1.2073 -0.5547 -0.8492
 1462SOL     OW 5601   0.762   2.115   2.622  0.1642  0.2243  0.4964
 1462SOL    HW1 5602   0.850   2.151   2.611  0.1432  0.3718  0.8262
 1462SOL    HW2 5603   0.771   2.050   2.691 -0.4868  2.0021  2.3277
 1463SOL     OW 5604   1.745   3.204   2.706 -0.0664 -0.7914  0.0811
 1463SOL    HW1 5605   1.791   3.172   2.784  1.9328 -0.0527 -0.7391
 1463SOL    HW2 5606   1.781   3.154   2.634 -0.6330 -0.2461 -0.6013
 1464SOL     OW 5607   8.842   2.657   3.195 -0.3061 -0.3489  0.1427
 1464SOL    HW1 5608   8.929   2.644   3.157 -1.6704 -1.9638 -2.7756
 1464SOL    HW2 5609   8.799   2.572   3.187 -3.3999  1.2490 -2.2079
 1465SOL     OW 5610   0.806   3.601   2.985 -0.7286 -0.0985  0.0312
 1465SOL    HW1 5611   0.790   3.533   2.921 -0.7630  1.0072 -1.1798
 1465SOL    HW2 5612   0.791   3.683   2.938  0.5124  0.7931  1.0857
 1466SOL     OW 5613   0.976   1.994   3.071  0.2170  0.1041 -0.0289
 1466SOL    HW1 5614   1.012   1.952   2.993  0.2083  2.1408 -1.1897
 1466SOL    HW2 5615   0.888   1.958   3.079  0.1255  0.0542 -1.1247
 1467SOL     OW 5616   0.569   1.803   2.534  0.2177 -0.1785  0.2695
 1467SOL    HW1 5617   0.656   1.802   2.574  0.0130  0.4789  0.7516
 1467SOL    HW2 5618   0.520   1.737   2.583  0.5413 -0.8047 -0.2401
 1468SOL     OW 5619   0.476   3.316   2.702 -0.8378  0.0240 -0.0677
 1468SOL    HW1 5620   0.482   3.334   2.608 -1.9814  3.4871  0.3874
 1468SOL    HW2 5621   0.390   3.276   2.713 -0.7036 -0.3856 -0.4890
 1469SOL     OW 5622   0.873   3.200   3.308 -0.4541  0.5003 -0.8850
 1469SOL    HW1 5623   0.876   3.268   3.374  0.1214 -1.0248  0.7266
 1469SOL    HW2 5624   0.787   3.159   3.320  0.6241 -1.4856  0.8100
 1470SOL     OW 5625   1.542   1.641   2.217  0.2695  0.2117 -0.5920
 1470SOL    HW1 5626   1.508   1.654   2.306  1.8877  0.7718 -0.0199
 1470SOL    HW2 5627   1.501   1.560   2.187 -0.2052 -0.0486  0.7137
 1471SOL     OW 5628   1.176   2.600   2.430  0.0250 -0.1536 -0.4052
 1471SOL    HW1 5629   1.270   2.586   2.421  0.0134 -1.6646  1.2901
 1471SOL    HW2 5630   1.164   2.631   2.520 -1.0174  1.1073 -0.9421
 1472SOL     OW 5631   1.740   2.359   3.108  0.0934  0.0489  0.3539
 1472SOL    HW1 5632   1.828   2.331   3.086  0.5211  1.5934 -0.0468
 1472SOL    HW2 5633   1.749   2.407   3.190 -0.0052  1.8980 -0.6661
 1473SOL     OW 5634   0.140   2.914   2.340 -0.0342 -0.0904  0.5239
 1473SOL    HW1 5635   0.102   2.827   2.346 -0.0616  0.0096  3.5115
 1473SOL    HW2 5636   0.070   2.969   2.306 -0.2593 -1.0679 -0.6468
 1474SOL     OW 5637   0.707   3.718   2.591  0.3543 -0.7210 -0.2792
 1474SOL    HW1 5638   0.634   3.696   2.534  1.3853 -0.8191 -1.6195
 1474SOL    HW2 5639   0.777   3.744   2.532  1.2200 -0.0267  0.9894
 1475SOL     OW 5640   0.309   2.401   3.595  0.1565  0.2866 -0.0728
 1475SOL    HW1 5641   0.276   2.408   3.685 -1.9822 -0.0492 -0.7731
 1475SOL    HW2 5642   0.373   2.472   3.588 -0.4947  1.0711  1.3621
 1476SOL     OW 5643   0.512   2.235   4.948  0.0737 -0.1388 -0.5301
 1476SOL    HW1 5644   0.482   2.188   5.026  1.9997 -1.1636 -0.3620
 1476SOL    HW2 5645   0.470   2.321   4.955 -0.1117 -0.3404  1.4186
 1477SOL     OW 5646   0.062   2.482   4.194  0.2700  0.7260 -0.4596
 1477SOL    HW1 5647   0.036   2.488   4.102  0.5457  2.6421 -0.4603
 1477SOL    HW2 5648   0.155   2.461   4.192  0.0662 -0.1937 -0.5850
 1478SOL     OW 5649   0.709   3.650   5.048 -0.2597 -0.4175 -0.6098
 1478SOL    HW1 5650   0.733   3.572   4.997 -0.4044 -1.1016  0.3338
 1478SOL    HW2 5651   0.719   3.622   5.139 -2.0331  0.1059 -0.2203
 1479SOL     OW 5652   1.638   3.333   4.552 -0.0426 -0.0022 -0.8076
 1479SOL    HW1 5653   1.555   3.372   4.526 -1.2681 -1.4473  0.6833
 1479SOL    HW2 5654   1.647   3.254   4.498 -0.7717 -1.0175  0.4853
 1480SOL     OW 5655   0.889   2.856   4.449 -0.5403  0.4663 -0.1522
 1480SOL    HW1 5656   0.862   2.890   4.364  2.2082  0.7004 -1.0221
 1480SOL    HW2 5657   0.904   2.934   4.502  1.1871  0.5061 -0.6424
 1481SOL     OW 5658   2.698   2.229   4.032  0.6185 -0.1161  0.1765
 1481SOL    HW1 5659   2.696   2.174   4.110  0.9618 -0.4810 -0.0705
 1481SOL    HW2 5660   2.781   2.208   3.989  1.4262  1.5868  0.7828
 1482SOL     OW 5661   0.512   3.069   5.318 -0.3475  0.5471 -0.2521
 1482SOL    HW1 5662   0.441   3.088   5.257 -1.2333  0.0540  0.5920
 1482SOL    HW2 5663   0.592   3.088   5.269 -0.9565 -1.3048 -2.1211
 1483SOL     OW 5664   0.934   2.205   5.687  0.0421 -0.6674  0.4129
 1483SOL    HW1 5665   0.901   2.260   5.758 -1.4418  0.0467 -0.7901
 1483SOL    HW2 5666   1.013   2.251   5.657  0.2860 -0.6074  1.1162
 1484SOL     OW 5667   0.700   2.565   4.471  0.5365  0.2621 -0.2753
 1484SOL    HW1 5668   0.770   2.623   4.501 -0.1601  0.2623  1.4662
 1484SOL    HW2 5669   0.619   2.610   4.495 -0.0262 -1.1408  0.6489
 1485SOL     OW 5670   0.916   3.205   5.500 -0.2054 -0.3651 -0.2079
 1485SOL    HW1 5671   0.906   3.116   5.466 -0.4675 -0.2409 -0.4608
 1485SOL    HW2 5672   0.965   3.251   5.432  1.6008 -0.7926  0.7212
 1486SOL     OW 5673   0.366   3.177   5.097  0.1102  0.5278 -0.6705
 1486SOL    HW1 5674   0.421   3.099   5.085 -0.9446 -0.1572 -1.1545
 1486SOL    HW2 5675   0.411   3.246   5.048  1.7015  0.5740  0.7389
 1487SOL     OW 5676   1.364   2.412   5.293 -0.3231  0.2184  0.1998
 1487SOL    HW1 5677   1.446   2.454   5.318 -0.5648  0.0720  1.3136
 1487SOL    HW2 5678   1.303   2.485   5.278 -0.7726  0.3360  2.2281
 1488SOL     OW 5679   0.363   2.485   5.026 -0.0769  0.0093  0.4674
 1488SOL    HW1 5680   0.423   2.554   5.054 -0.5750  0.3303  0.7708
 1488SOL    HW2 5681   0.307   2.470   5.103  0.6927 -1.4811  0.7793
 1489SOL     OW 5682   1.975   1.860   4.812 -0.4210 -0.2488  0.2972
 1489SOL    HW1 5683   1.991   1.884   4.904 -0.1492  0.6994  0.0158
 1489SOL    HW2 5684   1.881   1.845   4.807 -0.4491 -0.2374  0.7106
 1490SOL     OW 5685   0.530   3.642   4.175  0.2934 -0.3475 -0.0317
 1490SOL    HW1 5686   0.511   3.582   4.102  0.2022 -0.0269 -0.2775
 1490SOL    HW2 5687   0.452   3.697   4.181  0.8346  0.4968 -0.5613
 1491SOL     OW 5688   1.202   3.484   5.968  0.1104 -0.0377 -0.2135
 1491SOL    HW1 5689   1.265   3.552   5.989 -1.4521  1.5005 -0.2490
 1491SOL    HW2 5690   1.178   3.446   6.052  0.4273 -0.0291 -0.1195
 1492SOL     OW 5691   0.653   3.312   4.472 -0.5505 -0.1873 -0.5659
 1492SOL    HW1 5692   0.658   3.218   4.486 -0.0670 -0.1982 -0.7927
 1492SOL    HW2 5693   0.695   3.326   4.387 -0.6184  0.2334 -0.5349
 1493SOL     OW 5694   8.788   3.001   4.728  0.0939 -0.1692  0.2769
 1493SOL    HW1 5695   8.879   3.029   4.737  1.3442 -3.6567 -0.1067
 1493SOL    HW2 5696   8.750   3.013   4.815  0.9270  1.2213  0.4711
 1494SOL     OW 5697   0.312   4.202   5.106 -0.6533 -0.1636 -0.0485
 1494SOL    HW1 5698   0.361   4.121   5.088 -0.4633  0.6302 -4.0611
 1494SOL    HW2 5699   0.223   4.183   5.078 -1.4714  0.0322  2.2683
 1495SOL     OW 5700   0.374   2.569   3.969  0.0466 -0.6223 -0.7082
 1495SOL    HW1 5701   0.360   2.641   3.907  1.9321 -0.4859 -1.0598
 1495SOL    HW2 5702   0.451   2.597   4.019 -2.0165 -0.2380  2.4908
 1496SOL     OW 5703   1.691   1.827   5.967  0.0463 -0.2057 -0.0267
 1496SOL    HW1 5704   1.742   1.877   5.903 -0.2329  0.2177  0.0802
 1496SOL    HW2 5705   1.724   1.855   6.052 -0.4264  0.1392  0.0452
 1497SOL     OW 5706   0.206   2.334   4.546 -0.0371 -0.1424 -0.0557
 1497SOL    HW1 5707   0.113   2.347   4.565  0.1140  0.2351  0.4461
 1497SOL    HW2 5708   0.251   2.386   4.613  0.5368 -0.6999 -0.0072
 1498SOL     OW 5709   2.102   3.927   4.404  0.3246 -0.1422 -0.4810
 1498SOL    HW1 5710   2.160   3.853   4.424 -0.4999 -0.9606 -1.0069
 1498SOL    HW2 5711   2.014   3.894   4.426  0.1216  1.4091  1.2895
 1499SOL     OW 5712   8.737   3.585   3.385 -0.1165  0.2964  0.1854
 1499SOL    HW1 5713   8.739   3.605   3.479  0.5513 -1.7868  0.6618
 1499SOL    HW2 5714   8.722   3.490   3.381  1.1950  0.1230 -1.7799
 1500SOL     OW 5715   1.723   2.413   4.611  0.3746  0.9641  0.1418
 1500SOL    HW1 5716   1.675   2.444   4.688  0.3588  0.1649  0.4668
 1500SOL    HW2 5717   1.655   2.391   4.548  0.3986  2.0012 -0.2664
 1501SOL     OW 5718   1.768   2.884   4.746 -0.1016 -0.8111 -0.0567
 1501SOL    HW1 5719   1.851   2.929   4.735 -0.1100 -1.0320 -1.1481
 1501SOL    HW2 5720   1.775   2.841   4.831  0.1273  0.7489  0.7581
 1502SOL     OW 5721   0.095   2.727   5.308 -0.3794 -0.3111 -0.6408
 1502SOL    HW1 5722   0.122   2.653   5.255  1.5685  0.1459 -0.3439
 1502SOL    HW2 5723   0.153   2.726   5.384 -1.8494  0.1708  0.5423
 1503SOL     OW 5724   0.365   3.046   4.431 -0.0443  0.0275  0.1481
 1503SOL    HW1 5725   0.426   3.052   4.358  0.3550 -1.1539  0.3692
 1503SOL    HW2 5726   0.419   3.019   4.506 -0.6029  0.3315  0.6699
 1504SOL     OW 5727   1.640   2.799   5.618  0.4170 -0.7917  0.0854
 1504SOL    HW1 5728   1.625   2.732   5.551  1.6193 -0.6708 -0.3215
 1504SOL    HW2 5729   1.721   2.841   5.592  0.1174  0.2681  0.8105
 1505SOL     OW 5730   0.600   1.873   4.767  0.3907 -0.1138  0.1597
 1505SOL    HW1 5731   0.598   1.966   4.747  1.7381 -0.1059 -0.0529
 1505SOL    HW2 5732   0.647   1.867   4.850  3.0890 -0.7580 -1.2932
 1506SOL     OW 5733   8.774   2.951   5.358  0.5728  0.2287  0.0498
 1506SOL    HW1 5734   8.808   2.863   5.373  0.0552 -0.0921 -0.6394
 1506SOL    HW2 5735   8.828   2.987   5.288 -0.0764 -0.0394 -0.5929
 1507SOL     OW 5736   1.450   2.716   4.351  0.4251  0.6750 -0.2334
 1507SOL    HW1 5737   1.490   2.633   4.325  1.4203  0.3531  2.0964
 1507SOL    HW2 5738   1.422   2.701   4.441  0.3755  2.7943  0.1433
 1508SOL     OW 5739   1.196   3.735   5.459  0.7765 -0.2559 -0.0181
 1508SOL    HW1 5740   1.101   3.734   5.468  0.8927  2.1745  2.7600
 1508SOL    HW2 5741   1.211   3.730   5.364 -2.0552 -0.8080 -0.5303
 1509SOL     OW 5742   0.526   2.522   5.548  0.5951  0.3343 -0.4443
 1509SOL    HW1 5743   0.449   2.478   5.583  1.9539 -1.4404  0.5428
 1509SOL    HW2 5744   0.553   2.468   5.474  1.9843 -0.2486  0.4460
 1510SOL     OW 5745   1.360   3.151   4.538  0.5876 -0.2771 -0.2612
 1510SOL    HW1 5746   1.295   3.137   4.469 -0.1598  2.0610 -0.1101
 1510SOL    HW2 5747   1.444   3.133   4.496 -0.0029 -1.7397 -0.9149
 1511SOL     OW 5748   1.835   3.514   4.688  0.2532  0.5021 -0.1483
 1511SOL    HW1 5749   1.779   3.453   4.640 -1.6884 -0.1175  2.6233
 1511SOL    HW2 5750   1.923   3.478   4.681 -0.9624 -3.6314  2.5245
 1512SOL     OW 5751   0.773   2.454   3.533  0.1821 -0.5384 -0.2525
 1512SOL    HW1 5752   0.839   2.394   3.498  0.8960  0.6345 -1.0067
 1512SOL    HW2 5753   0.766   2.431   3.625  2.3724 -0.1169  0.0828
 1513SOL     OW 5754   1.235   2.144   4.739  0.4546 -0.8163  0.5977
 1513SOL    HW1 5755   1.209   2.052   4.740 -1.2563 -0.3765  1.5889
 1513SOL    HW2 5756   1.292   2.155   4.815 -1.6124 -0.5447  2.2273
 1514SOL     OW 5757   1.648   3.657   4.336  0.1329  0.6067  0.0836
 1514SOL    HW1 5758   1.576   3.644   4.398  0.8024 -0.7212  0.6270
 1514SOL    HW2 5759   1.607   3.663   4.251 -0.6759  0.6299  0.4707
 1515SOL     OW 5760   0.770   2.358   5.420  0.3099  0.1640  0.0048
 1515SOL    HW1 5761   0.774   2.345   5.515  1.3368  1.4950  0.1728
 1515SOL    HW2 5762   0.846   2.310   5.386 -0.2380 -0.5863 -0.2111
 1516SOL     OW 5763   1.608   2.242   5.589 -0.4034 -0.4783 -0.5224
 1516SOL    HW1 5764   1.686   2.296   5.604 -1.9046  1.3019  1.3950
 1516SOL    HW2 5765   1.568   2.232   5.675 -1.8479 -2.1266 -1.3152
 1517SOL     OW 5766   1.021   2.614   5.470  0.3647  0.3411  0.5022
 1517SOL    HW1 5767   1.023   2.532   5.519 -0.5835  1.6186  2.8440
 1517SOL    HW2 5768   1.061   2.678   5.529  0.6869  1.6604 -1.0806
 1518SOL     OW 5769   0.840   2.448   5.108  0.4163  0.1543 -0.3913
 1518SOL    HW1 5770   0.807   2.415   5.024 -1.3426 -1.1392  0.7383
 1518SOL    HW2 5771   0.824   2.377   5.170 -0.9997  2.0955  1.6360
 1519SOL     OW 5772   0.914   2.793   4.755  0.1368  0.5585  0.4618
 1519SOL    HW1 5773   0.954   2.844   4.685  0.0166  0.1715  0.1075
 1519SOL    HW2 5774   0.988   2.752   4.800  0.1993  0.5762  0.3757
 1520SOL     OW 5775   0.315   2.407   4.299 -1.3440  0.1316  0.6719
 1520SOL    HW1 5776   0.300   2.377   4.389 -1.2600 -1.6660  0.1201
 1520SOL    HW2 5777   0.332   2.501   4.308 -1.7112  0.0618  2.4880
 1521SOL     OW 5778   0.055   3.698   5.100  0.0766 -0.7730  0.0720
 1521SOL    HW1 5779   0.043   3.604   5.092  0.3487 -0.8507  0.5194
 1521SOL    HW2 5780   0.097   3.724   5.018 -1.8813 -0.6885 -0.9543
 1522SOL     OW 5781   1.056   1.591   3.717 -0.7910 -0.3073 -0.5639
 1522SOL    HW1 5782   1.026   1.675   3.682 -1.0149 -0.8766 -1.7967
 1522SOL    HW2 5783   1.033   1.527   3.649 -0.8212 -1.3990  0.4443
 1523SOL     OW 5784   1.934   2.326   5.780 -0.0723  0.4728 -0.3852
 1523SOL    HW1 5785   1.926   2.403   5.723  1.4245  2.1812  1.5226
 1523SOL    HW2 5786   2.026   2.301   5.775 -0.5284 -1.2332 -0.9369
 1524SOL     OW 5787   1.280   2.916   4.695  0.3982  0.0611  0.0684
 1524SOL    HW1 5788   1.260   2.966   4.775  0.3814 -0.4123  0.3644
 1524SOL    HW2 5789   1.298   2.983   4.629 -1.1142  0.5097  0.0586
 1525SOL     OW 5790   0.522   2.135   4.703  0.3959  0.3814  0.2623
 1525SOL    HW1 5791   0.517   2.180   4.787  1.7215  0.8829  0.0980
 1525SOL    HW2 5792   0.566   2.197   4.645  0.6058 -0.4288 -0.4720
 1526SOL     OW 5793   1.116   3.311   4.649 -0.2049 -0.2840  0.2654
 1526SOL    HW1 5794   1.206   3.295   4.623 -0.2187 -1.2725  0.7708
 1526SOL    HW2 5795   1.086   3.382   4.593  0.1387 -1.5210 -1.5624
 1527SOL     OW 5796   0.496   3.558   4.445  0.0871 -0.1933 -0.0641
 1527SOL    HW1 5797   0.464   3.559   4.355 -1.0072 -1.1693  0.2953
 1527SOL    HW2 5798   0.496   3.466   4.470 -0.7212  0.1577  1.3085
 1528SOL     OW 5799   1.573   2.501   4.819  0.2765  0.3755  0.2097
 1528SOL    HW1 5800   1.542   2.585   4.785 -0.9474  0.2321  0.9231
 1528SOL    HW2 5801   1.650   2.523   4.870  0.0328  1.0503  0.2960
 1529SOL     OW 5802   1.192   3.123   5.507  0.7798  0.1518  0.5835
 1529SOL    HW1 5803   1.245   3.196   5.472  0.3838 -0.0287 -0.4143
 1529SOL    HW2 5804   1.179   3.146   5.599  0.0968  1.6967  0.1417
 1530SOL     OW 5805   0.049   2.751   4.135 -0.0326  0.4134 -0.0774
 1530SOL    HW1 5806  -0.029   2.737   4.080  0.7234  0.0787 -1.1150
 1530SOL    HW2 5807   0.071   2.663   4.168  1.7731 -0.1543 -2.4757
 1531SOL     OW 5808   1.533   2.207   4.828 -0.3982  0.1351  0.0648
 1531SOL    HW1 5809   1.585   2.155   4.766 -1.0534 -1.7573  1.0078
 1531SOL    HW2 5810   1.586   2.285   4.845  0.8635 -0.4314 -1.0695
 1532SOL     OW 5811   0.729   3.267   5.681  0.2127 -0.0639  0.3270
 1532SOL    HW1 5812   0.687   3.184   5.700  0.7268 -0.6922 -1.1272
 1532SOL    HW2 5813   0.790   3.248   5.610  0.4908  1.5162  0.0891
 1533SOL     OW 5814   1.183   3.423   4.316  0.2269  0.4570 -0.1701
 1533SOL    HW1 5815   1.118   3.449   4.381 -1.1630 -1.2322 -0.8121
 1533SOL    HW2 5816   1.133   3.417   4.234  1.0109 -1.5978 -0.5397
 1534SOL     OW 5817   0.361   2.144   5.140 -0.1486 -0.3653  0.0671
 1534SOL    HW1 5818   0.333   2.072   5.196  0.8153 -1.0363 -0.2775
 1534SOL    HW2 5819   0.380   2.216   5.200  0.4088 -0.9219  0.5706
 1535SOL     OW 5820   2.047   2.895   4.090  0.0462  0.0632  0.1395
 1535SOL    HW1 5821   1.984   2.959   4.124 -1.0388 -1.7618  1.7613
 1535SOL    HW2 5822   2.019   2.879   4.000 -0.4144  0.9452  0.1157
 1536SOL     OW 5823   0.887   3.775   4.411 -0.0804  0.3647  0.0361
 1536SOL    HW1 5824   0.874   3.721   4.333 -0.8977 -3.2537  2.3851
 1536SOL    HW2 5825   0.798   3.793   4.443  0.1709 -1.0874  1.7682
 1537SOL     OW 5826   1.938   2.137   4.258 -0.1260 -0.4157  0.7284
 1537SOL    HW1 5827   1.846   2.131   4.283 -0.4705  1.5580  0.0953
 1537SOL    HW2 5828   1.976   2.054   4.287 -2.0477 -1.1965  1.1666
 1538SOL     OW 5829   0.352   3.682   4.633  0.3345  0.1013  0.3021
 1538SOL    HW1 5830   0.401   3.622   4.578  0.2905  0.0023  0.3708
 1538SOL    HW2 5831   0.321   3.750   4.573 -0.6380 -0.5747  0.0073
 1539SOL     OW 5832   1.092   3.552   4.896  0.4197  0.0406 -0.5558
 1539SOL    HW1 5833   1.155   3.496   4.940 -0.8318 -0.7258  0.3079
 1539SOL    HW2 5834   1.113   3.542   4.803  1.6671 -0.0468 -0.2889
 1540SOL     OW 5835   0.457   2.238   4.129  0.0349  0.2305 -0.0494
 1540SOL    HW1 5836   0.401   2.296   4.181 -0.6175 -0.9843  0.6342
 1540SOL    HW2 5837   0.407   2.222   4.049  0.6070  1.2974 -0.6471
 1541SOL     OW 5838   2.054   1.472   5.525 -0.5588 -0.3535  0.3733
 1541SOL    HW1 5839   2.036   1.507   5.612  0.5090 -2.0010  1.3197
 1541SOL    HW2 5840   2.047   1.377   5.535  1.0130 -0.6685 -0.9475
 1542SOL     OW 5841   0.246   1.934   3.597 -0.2983 -0.5712 -0.2102
 1542SOL    HW1 5842   0.297   1.923   3.517 -0.4224 -1.6586 -0.1636
 1542SOL    HW2 5843   0.162   1.968   3.568  0.3630  1.0527 -0.3059
 1543SOL     OW 5844   0.916   1.959   5.436  0.4222  0.0215 -0.3090
 1543SOL    HW1 5845   1.006   1.973   5.465  0.5140  0.9050 -0.9733
 1543SOL    HW2 5846   0.924   1.896   5.364  0.3745 -0.8117  0.3990
 1544SOL     OW 5847   0.986   2.947   5.457 -0.4605  0.0781  0.4577
 1544SOL    HW1 5848   1.025   3.028   5.488 -0.7957  0.1552  0.6791
 1544SOL    HW2 5849   1.020   2.879   5.515  0.1275 -0.0019  0.0326
 1545SOL     OW 5850   1.341   2.231   5.478 -0.7111  0.0921 -0.3602
 1545SOL    HW1 5851   1.347   2.278   5.394 -1.9905 -0.4363 -0.7776
 1545SOL    HW2 5852   1.430   2.232   5.512  0.1720 -0.9795 -2.4417
 1546SOL     OW 5853   1.024   3.230   5.256 -0.0320 -0.6055  0.1818
 1546SOL    HW1 5854   1.116   3.205   5.258  0.2425  0.1567 -1.2745
 1546SOL    HW2 5855   1.025   3.324   5.236 -1.1288 -0.9937 -2.0584
 1547SOL     OW 5856   0.707   2.664   4.881 -0.5633  0.2207  0.0674
 1547SOL    HW1 5857   0.786   2.706   4.849  0.0532  0.1889  1.4833
 1547SOL    HW2 5858   0.706   2.578   4.838  0.8561 -0.2824  0.9892
 1548SOL     OW 5859   0.342   2.045   4.309 -0.1860 -0.4192  0.1701
 1548SOL    HW1 5860   0.350   2.140   4.298 -0.4539 -0.3014  0.9013
 1548SOL    HW2 5861   0.388   2.008   4.234 -1.6348  0.3045 -1.1329
 1549SOL     OW 5862   1.202   3.238   3.734 -0.1834 -0.1474 -0.3797
 1549SOL    HW1 5863   1.297   3.247   3.731 -0.2859  0.8192 -1.3533
 1549SOL    HW2 5864   1.187   3.163   3.791  1.2236 -1.2379 -1.3653
 1550SOL     OW 5865   0.127   1.840   3.858 -0.0089 -0.2775 -0.1919
 1550SOL    HW1 5866   0.140   1.882   3.773 -0.7719 -0.3042 -0.3311
 1550SOL    HW2 5867   0.205   1.786   3.871 -0.7626 -1.8695 -1.8109
 1551SOL     OW 5868   0.937   2.137   4.272  0.3237 -0.0475 -0.2169
 1551SOL    HW1 5869   0.942   2.230   4.251 -0.3342 -0.4154 -2.2571
 1551SOL    HW2 5870   0.846   2.112   4.251 -0.0857 -0.7808  2.1148
 1552SOL     OW 5871   1.143   2.662   4.859  0.0041  0.5894  0.2045
 1552SOL    HW1 5872   1.210   2.605   4.897 -0.2854  0.4443  0.4902
 1552SOL    HW2 5873   1.193   2.737   4.825  0.4425 -0.0783 -0.6610
 1553SOL     OW 5874   1.370   3.480   4.934  0.8752 -0.3467 -0.1318
 1553SOL    HW1 5875   1.346   3.456   5.023 -0.8276  0.1658 -0.4203
 1553SOL    HW2 5876   1.381   3.397   4.888 -0.3025 -0.6251  0.0565
 1554SOL     OW 5877   0.357   2.698   4.276  0.3289 -0.0260  0.6456
 1554SOL    HW1 5878   0.329   2.741   4.357 -1.4000 -1.8028  1.0790
 1554SOL    HW2 5879   0.301   2.735   4.208 -0.0740 -0.4144  0.7550
 1555SOL     OW 5880   1.908   3.555   5.115 -0.0768 -0.1142  0.3601
 1555SOL    HW1 5881   1.923   3.480   5.173  1.7657  0.8590  1.2098
 1555SOL    HW2 5882   1.845   3.523   5.051 -1.3284 -1.5875  2.2184
 1556SOL     OW 5883   1.010   1.788   3.526  0.1144  0.6006  0.2754
 1556SOL    HW1 5884   0.940   1.810   3.587 -0.0858  0.2050  0.1893
 1556SOL    HW2 5885   1.040   1.873   3.493 -0.9860  0.7304 -0.4386
 1557SOL     OW 5886   0.220   2.486   5.264 -0.1459 -0.6601  0.1703
 1557SOL    HW1 5887   0.169   2.417   5.222 -2.3449  0.0934  1.4521
 1557SOL    HW2 5888   0.193   2.483   5.356  1.5991  0.2866  0.7569
 1558SOL     OW 5889   0.733   1.672   5.116  0.1048 -0.0176  0.8128
 1558SOL    HW1 5890   0.665   1.605   5.117 -0.0305  0.0310 -1.0671
 1558SOL    HW2 5891   0.685   1.755   5.114  0.0695 -0.0012 -2.3686
 1559SOL     OW 5892   0.692   2.337   4.048 -0.1243  0.3904 -0.0392
 1559SOL    HW1 5893   0.599   2.329   4.071 -0.2892  0.7542 -0.5649
 1559SOL    HW2 5894   0.737   2.335   4.132 -0.6405  0.6207  0.2519
 1560SOL     OW 5895   0.906   2.010   4.837 -0.4467  0.6646 -0.0550
 1560SOL    HW1 5896   0.910   1.970   4.924 -2.0312 -0.2948 -0.4018
 1560SOL    HW2 5897   0.895   1.937   4.777 -0.1704  1.3877 -1.0135
 1561SOL     OW 5898   1.141   3.003   4.912 -0.6647 -0.2935 -0.3703
 1561SOL    HW1 5899   1.095   3.018   4.995 -1.2453  1.6889 -0.9967
 1561SOL    HW2 5900   1.077   2.955   4.859 -0.3424 -1.4465  0.2377
 1562SOL     OW 5901   1.815   1.919   4.455  0.1934 -0.1435 -0.6423
 1562SOL    HW1 5902   1.736   1.911   4.507  0.0523 -0.6775 -0.9370
 1562SOL    HW2 5903   1.797   1.869   4.375 -0.1113  1.7291 -1.8127
 1563SOL     OW 5904   1.503   2.297   4.450  0.5284 -0.5382 -0.2874
 1563SOL    HW1 5905   1.535   2.210   4.426  1.4395 -0.2498 -0.1506
 1563SOL    HW2 5906   1.514   2.350   4.371 -1.0630 -0.8072 -0.7175
 1564SOL     OW 5907   0.355   2.775   3.808  0.3711 -0.5250  0.0444
 1564SOL    HW1 5908   0.328   2.757   3.718 -0.1530 -0.7463  0.2433
 1564SOL    HW2 5909   0.425   2.841   3.799  0.1465 -0.3522 -0.5074
 1565SOL     OW 5910   1.699   2.649   5.070 -0.1739  0.1563  0.0708
 1565SOL    HW1 5911   1.657   2.724   5.111 -0.2506  0.2064 -0.0965
 1565SOL    HW2 5912   1.786   2.681   5.044 -0.7977  0.6833 -1.4778
 1566SOL     OW 5913   1.376   1.744   3.877 -0.4027  0.4113  0.2948
 1566SOL    HW1 5914   1.368   1.712   3.787  0.2760 -1.0947  0.7278
 1566SOL    HW2 5915   1.465   1.778   3.883 -0.2887  0.0909  0.4996
 1567SOL     OW 5916   0.770   1.830   3.661  0.7033  0.3565  0.7745
 1567SOL    HW1 5917   0.756   1.838   3.756 -0.1749 -0.0094  0.6827
 1567SOL    HW2 5918   0.731   1.746   3.638 -1.9094  1.7500 -0.4082
 1568SOL     OW 5919   1.891   2.577   5.614 -0.5261 -0.5305 -0.5757
 1568SOL    HW1 5920   1.834   2.615   5.680 -1.0548  0.7411 -1.7162
 1568SOL    HW2 5921   1.910   2.649   5.554  1.2672 -1.2448 -0.9192
 1569SOL     OW 5922   1.197   2.636   5.243 -0.1918 -0.1116  0.0137
 1569SOL    HW1 5923   1.148   2.640   5.325 -0.5879 -0.3286 -0.2091
 1569SOL    HW2 5924   1.131   2.646   5.175  0.2707  1.3127 -0.2701
 1570SOL     OW 5925   1.802   3.743   5.478  0.2184 -0.2360  0.0956
 1570SOL    HW1 5926   1.813   3.831   5.514  1.0336 -0.1430 -0.3570
 1570SOL    HW2 5927   1.834   3.750   5.388 -2.2304 -0.3428 -0.8699
 1571SOL     OW 5928   0.723   3.144   5.143 -0.0656 -0.2683 -0.0289
 1571SOL    HW1 5929   0.780   3.221   5.148  0.6905 -0.7882 -0.3789
 1571SOL    HW2 5930   0.784   3.070   5.141 -0.7596 -0.8369 -0.3927
 1572SOL     OW 5931   1.481   2.747   4.778 -0.3788 -0.2438  0.3358
 1572SOL    HW1 5932   1.406   2.795   4.744  0.0928 -1.1817 -2.2809
 1572SOL    HW2 5933   1.542   2.815   4.806 -1.4058  0.5588  0.6951
 1573SOL     OW 5934   1.156   2.097   5.209 -0.8248 -0.2931 -0.7297
 1573SOL    HW1 5935   1.131   2.014   5.169  1.8730 -1.5681 -0.0112
 1573SOL    HW2 5936   1.231   2.127   5.158 -0.9290  1.0106 -0.1544
 1574SOL     OW 5937   1.179   2.788   5.647 -0.5322  0.3122 -0.2656
 1574SOL    HW1 5938   1.241   2.850   5.608  0.2206 -1.2706 -1.7018
 1574SOL    HW2 5939   1.219   2.765   5.731  1.0715 -0.9262 -1.3084
 1575SOL     OW 5940   0.597   2.597   4.184 -0.5610 -0.2807 -0.0875
 1575SOL    HW1 5941   0.524   2.651   4.213 -0.7803 -0.4676 -0.2821
 1575SOL    HW2 5942   0.643   2.573   4.265 -0.0104  0.8181 -0.0539
 1576SOL     OW 5943   0.412   2.888   5.078 -0.5359 -0.0422 -0.2391
 1576SOL    HW1 5944   0.497   2.846   5.093  0.5306  2.1725  0.2828
 1576SOL    HW2 5945   0.380   2.847   4.997  0.6317 -1.4898 -0.0295
 1577SOL     OW 5946   1.013   2.273   5.371 -0.2379  0.1322  0.3792
 1577SOL    HW1 5947   1.080   2.311   5.428  1.3891  0.4646 -1.6213
 1577SOL    HW2 5948   1.063   2.216   5.312 -2.0060 -1.1819  0.1030
 1578SOL     OW 5949   0.392   3.606   5.101 -0.2602 -0.0685 -0.0786
 1578SOL    HW1 5950   0.361   3.546   5.169 -0.3640 -0.2204 -0.2567
 1578SOL    HW2 5951   0.431   3.548   5.035 -0.8055  0.0200 -0.4861
 1579SOL     OW 5952   0.469   3.069   4.185  0.2967 -0.0984 -0.1622
 1579SOL    HW1 5953   0.398   3.017   4.147  0.1411 -0.1382  0.1785
 1579SOL    HW2 5954   0.480   3.142   4.125 -0.6280  0.3825  0.2226
 1580SOL     OW 5955   0.700   1.971   4.483  0.1689  0.2330 -0.5541
 1580SOL    HW1 5956   0.687   2.010   4.397  0.2146  0.0254 -0.6555
 1580SOL    HW2 5957   0.663   2.035   4.544 -0.7484 -0.0583 -0.7879
 1581SOL     OW 5958   1.384   3.226   4.820 -0.1943  0.0706  0.3885
 1581SOL    HW1 5959   1.375   3.196   4.729 -0.6419  0.8472  0.1678
 1581SOL    HW2 5960   1.416   3.149   4.867  1.3108  0.0203 -0.6502
 1582SOL     OW 5961   1.349   2.887   5.309 -0.0735 -0.2451 -0.1163
 1582SOL    HW1 5962   1.293   2.810   5.305 -0.6510  0.0908  0.9995
 1582SOL    HW2 5963   1.294   2.955   5.351  1.2498 -0.0225  1.3721
 1583SOL     OW 5964   1.048   2.641   4.330  0.0838  0.7407 -0.5142
 1583SOL    HW1 5965   1.126   2.633   4.385 -0.5677 -1.2296  0.2077
 1583SOL    HW2 5966   0.986   2.691   4.383  0.0515  0.2876 -0.1117
 1584SOL     OW 5967   0.308   3.466   5.317  0.6859  0.2644  0.5310
 1584SOL    HW1 5968   0.340   3.421   5.395  1.5973  0.4681  0.2913
 1584SOL    HW2 5969   0.213   3.462   5.324  0.5753 -3.9601 -0.7038
 1585SOL     OW 5970   0.464   2.372   5.304  0.1204  0.0264  0.4585
 1585SOL    HW1 5971   0.547   2.410   5.273  0.3669  0.7346  1.9047
 1585SOL    HW2 5972   0.400   2.442   5.294 -0.4277 -0.6412 -1.0161
 1586SOL     OW 5973   1.839   2.353   5.466  0.4492 -0.1610 -0.3270
 1586SOL    HW1 5974   1.858   2.437   5.509 -1.2834  0.4274 -0.6193
 1586SOL    HW2 5975   1.812   2.378   5.378 -0.5749 -0.9737 -0.2553
 1587SOL     OW 5976   1.092   1.704   5.716 -0.5935 -0.3781 -0.0335
 1587SOL    HW1 5977   1.078   1.798   5.706  0.9862 -0.2357 -1.3597
 1587SOL    HW2 5978   1.097   1.671   5.626 -0.6581 -1.6624  0.4136
 1588SOL     OW 5979   0.620   2.176   5.680  0.6627  0.4659  0.0514
 1588SOL    HW1 5980   0.532   2.204   5.703 -0.1037 -1.4707 -0.3749
 1588SOL    HW2 5981   0.677   2.240   5.723 -0.9002  1.0195  1.4005
 1589SOL     OW 5982   0.677   3.109   4.855 -0.4472  0.2831  0.0799
 1589SOL    HW1 5983   0.616   3.172   4.815 -1.7982 -0.7627  0.4345
 1589SOL    HW2 5984   0.696   3.147   4.941 -0.1912  0.8739 -0.2323
 1590SOL     OW 5985   1.342   2.382   4.650 -0.0704  0.2762 -0.5225
 1590SOL    HW1 5986   1.413   2.348   4.595 -1.4314 -0.4144 -1.9375
 1590SOL    HW2 5987   1.299   2.303   4.684  0.7152  0.6935  1.5521
 1591SOL     OW 5988   1.037   2.555   4.049  0.7290 -0.0287 -0.4687
 1591SOL    HW1 5989   1.068   2.466   4.067 -0.9720 -0.4594  0.6487
 1591SOL    HW2 5990   1.054   2.603   4.130  0.4648  0.2892 -0.5979
 1592SOL     OW 5991   0.317   1.979   4.763 -0.6772  0.0030 -0.0455
 1592SOL    HW1 5992   0.385   1.931   4.717  0.4681 -1.0080  2.5078
 1592SOL    HW2 5993   0.345   2.070   4.760 -0.3381 -0.1217 -0.8018
 1593SOL     OW 5994   0.129   3.385   5.649 -0.5251 -0.2325 -0.2779
 1593SOL    HW1 5995   0.201   3.407   5.707 -0.8521  2.1441 -0.6985
 1593SOL    HW2 5996   0.134   3.290   5.640  3.2812 -0.0764 -1.2303
 1594SOL     OW 5997   0.575   2.663   5.110  0.3209 -0.1605  0.2989
 1594SOL    HW1 5998   0.619   2.666   5.025 -1.0953 -0.7748 -0.4868
 1594SOL    HW2 5999   0.646   2.653   5.174  1.5314  1.7730 -0.6591
 1595SOL     OW 6000   2.146   2.047   6.264 -0.2446  0.0389 -0.0872
 1595SOL    HW1 6001   2.227   2.078   6.305 -0.3768  0.4952 -0.1619
 1595SOL    HW2 6002   2.154   1.952   6.264 -0.1804  0.0415  0.8554
 1596SOL     OW 6003   0.306   1.571   4.557 -0.5238 -0.3244  0.3701
 1596SOL    HW1 6004   0.349   1.649   4.522 -1.1938 -0.0586  0.1247
 1596SOL    HW2 6005   0.252   1.603   4.629  1.0414 -0.9030  1.8668
 1597SOL     OW 6006   1.742   1.843   4.202  0.1968  0.1134  1.1086
 1597SOL    HW1 6007   1.801   1.829   4.127 -0.7147  2.3164 -0.1236
 1597SOL    HW2 6008   1.679   1.771   4.197  1.6053 -1.1761  1.2957
 1598SOL     OW 6009   0.964   2.235   4.690  0.5776  0.1114  0.4303
 1598SOL    HW1 6010   0.949   2.152   4.735  0.5418  0.6003  1.3598
 1598SOL    HW2 6011   1.058   2.238   4.676  0.4970 -0.3905 -0.2222
 1599SOL     OW 6012   0.946   3.730   5.678  0.2761  0.8798  0.0968
 1599SOL    HW1 6013   0.883   3.726   5.750 -0.4532  1.3291 -0.5025
 1599SOL    HW2 6014   0.987   3.643   5.678 -0.1196  0.6835  0.6883
 1600SOL     OW 6015   1.672   3.495   5.494  0.2514  0.4193 -0.0362
 1600SOL    HW1 6016   1.646   3.478   5.584 -0.0952 -0.5036 -0.2995
 1600SOL    HW2 6017   1.744   3.558   5.500  2.0354 -1.5900  1.0354
 1601SOL     OW 6018   0.378   2.786   5.376 -1.0248  0.0123  0.2232
 1601SOL    HW1 6019   0.466   2.819   5.395 -0.3552 -1.5595 -0.0570
 1601SOL    HW2 6020   0.355   2.827   5.292  0.3768 -1.2825 -0.8437
 1602SOL     OW 6021   1.360   1.580   3.671  0.2124 -0.0808 -0.8019
 1602SOL    HW1 6022   1.279   1.581   3.621  0.7255 -1.3282 -1.7004
 1602SOL    HW2 6023   1.368   1.490   3.702  0.3717  0.4493  0.7774
 1603SOL     OW 6024   1.605   1.949   3.823 -0.7119  0.5618  0.1863
 1603SOL    HW1 6025   1.683   1.970   3.875 -0.3473 -0.9990  0.3323
 1603SOL    HW2 6026   1.632   1.963   3.733 -0.0917 -0.4269  0.2059
 1604SOL     OW 6027   1.310   3.189   5.217  0.1612 -0.2219  0.6920
 1604SOL    HW1 6028   1.339   3.272   5.178 -0.7990  0.4682  1.4047
 1604SOL    HW2 6029   1.391   3.149   5.250  0.6626  0.3358  0.1641
 1605SOL     OW 6030   0.170   3.126   4.777 -0.6930  0.1830  0.3046
 1605SOL    HW1 6031   0.188   3.180   4.854  1.7166 -2.2526  1.6071
 1605SOL    HW2 6032   0.203   3.177   4.703  0.6401  0.9287  1.3655
 1606SOL     OW 6033   0.489   2.732   4.523  0.1850 -0.6424  0.3573
 1606SOL    HW1 6034   0.511   2.781   4.602 -0.9024 -1.6740  1.3314
 1606SOL    HW2 6035   0.403   2.694   4.541 -1.3252  1.1632 -2.2755
 1607SOL     OW 6036   1.130   2.385   5.589  0.0885 -0.0571  0.2789
 1607SOL    HW1 6037   1.154   2.412   5.678  0.4760  0.0300  0.1490
 1607SOL    HW2 6038   1.210   2.348   5.553 -0.0935 -0.1778 -0.0041
 1608SOL     OW 6039   1.183   2.005   5.494  0.3389  0.0673 -0.7321
 1608SOL    HW1 6040   1.269   1.965   5.501  1.1975  1.9180 -0.1985
 1608SOL    HW2 6041   1.199   2.090   5.452 -0.3904  2.7392  3.7942
 1609SOL     OW 6042   0.319   3.357   4.463  0.2893 -0.2596  0.1057
 1609SOL    HW1 6043   0.377   3.281   4.466  1.8720  0.7166 -2.3603
 1609SOL    HW2 6044   0.264   3.342   4.386 -0.6820  0.2622  0.6698
 1610SOL     OW 6045   0.055   3.687   4.305  0.1352 -0.4996 -0.5243
 1610SOL    HW1 6046   0.113   3.704   4.379 -1.5730  1.9470  0.3980
 1610SOL    HW2 6047   0.002   3.767   4.297 -2.4165 -2.1787 -1.8915
 1611SOL     OW 6048   0.440   3.314   4.835  0.3979  0.3165  0.1907
 1611SOL    HW1 6049   0.510   3.368   4.798 -0.7489  0.1612 -2.4007
 1611SOL    HW2 6050   0.361   3.369   4.829 -0.5781 -1.1524 -1.4642
 1612SOL     OW 6051   0.947   2.957   5.133  0.1949 -0.2526  0.2055
 1612SOL    HW1 6052   1.002   2.985   5.206  0.1924  1.9673 -0.5657
 1612SOL    HW2 6053   0.947   2.862   5.138  0.8760 -0.1884  2.5794
 1613SOL     OW 6054   0.045   2.891   5.069 -0.5857  0.0849  0.1780
 1613SOL    HW1 6055   0.060   2.816   5.011 -0.0908 -0.4060  0.9334
 1613SOL    HW2 6056   0.048   2.855   5.157 -1.4027  0.8163  0.5232
 1614SOL     OW 6057   0.116   2.210   5.326  0.2576  0.1700  0.1621
 1614SOL    HW1 6058   0.106   2.115   5.339  0.0582  0.2236  0.4188
 1614SOL    HW2 6059   0.131   2.244   5.414  0.5729  0.3506  0.0390
 1615SOL     OW 6060   1.601   2.588   5.368  0.2761  0.1298 -0.0061
 1615SOL    HW1 6061   1.590   2.663   5.310 -0.1814 -0.1938 -0.3500
 1615SOL    HW2 6062   1.648   2.523   5.316 -0.7326 -0.4214 -0.2610
 1616SOL     OW 6063   0.613   2.336   3.775 -0.4158  0.2572  0.4110
 1616SOL    HW1 6064   0.525   2.302   3.791  0.2194 -2.7861 -1.5825
 1616SOL    HW2 6065   0.647   2.356   3.862 -1.1449 -4.0404  1.9555
 1617SOL     OW 6066   1.747   2.137   4.691  0.2475 -0.4619 -0.3505
 1617SOL    HW1 6067   1.819   2.083   4.659  0.8150  0.5682 -0.8493
 1617SOL    HW2 6068   1.773   2.227   4.671  0.2597  0.1945  2.2189
 1618SOL     OW 6069   8.748   3.515   5.730  0.2466  0.4860 -0.0586
 1618SOL    HW1 6070   8.818   3.455   5.705  1.1985  1.5209  0.0454
 1618SOL    HW2 6071   8.783   3.562   5.806 -1.2307 -0.1713  1.0878
 1619SOL     OW 6072   0.728   2.259   4.531 -0.4884  0.4500 -0.6534
 1619SOL    HW1 6073   0.819   2.242   4.556 -0.0513  1.8492 -1.1616
 1619SOL    HW2 6074   0.718   2.354   4.542 -2.0070  0.2670 -0.2623
 1620SOL     OW 6075   1.041   3.476   5.668 -0.6267 -0.3851 -0.0162
 1620SOL    HW1 6076   1.037   3.406   5.603 -0.6376 -0.2663 -0.1438
 1620SOL    HW2 6077   1.032   3.431   5.753  0.5689 -0.6810 -0.0287
 1621SOL     OW 6078   0.437   2.013   3.822 -0.3217 -0.6926 -0.5335
 1621SOL    HW1 6079   0.507   2.046   3.766 -0.3971 -1.1761 -0.9160
 1621SOL    HW2 6080   0.381   1.962   3.764 -0.6959 -0.7615 -0.1218
 1622SOL     OW 6081   0.115   3.119   5.594 -0.5203  0.3006 -0.0242
 1622SOL    HW1 6082   0.198   3.082   5.562 -0.7876  0.0927 -0.4954
 1622SOL    HW2 6083   0.048   3.064   5.553 -0.9089  0.9006 -0.1979
 1623SOL     OW 6084   0.974   2.673   5.078 -0.7018  0.1106 -0.0477
 1623SOL    HW1 6085   0.909   2.603   5.075 -1.6068  0.9694 -0.7637
 1623SOL    HW2 6086   1.027   2.659   5.000 -0.4194 -0.1987  0.1938
 1624SOL     OW 6087   1.415   2.402   4.025 -0.9217  0.4756  0.1656
 1624SOL    HW1 6088   1.431   2.352   3.944 -0.1364  1.2198 -0.1560
 1624SOL    HW2 6089   1.445   2.491   4.004 -1.4984  0.8784  1.0097
 1625SOL     OW 6090   1.607   3.346   5.270 -0.0811  0.3280  0.6919
 1625SOL    HW1 6091   1.673   3.278   5.259 -0.6294 -0.2611  0.9889
 1625SOL    HW2 6092   1.650   3.414   5.322 -0.3879 -1.1005  2.9786
 1626SOL     OW 6093   1.401   3.299   5.502  0.0139  0.1941  0.1304
 1626SOL    HW1 6094   1.381   3.385   5.538  0.3343  1.4002 -2.3212
 1626SOL    HW2 6095   1.486   3.309   5.460 -0.9301 -0.5842 -2.1696
 1627SOL     OW 6096   0.092   3.154   5.082 -0.1926 -0.4610 -0.0490
 1627SOL    HW1 6097   0.184   3.158   5.109 -0.2989  0.3481  0.2154
 1627SOL    HW2 6098   0.075   3.060   5.069  1.0850 -0.5159 -1.5875
 1628SOL     OW 6099   0.754   3.529   5.303  0.6946  0.0544 -0.2863
 1628SOL    HW1 6100   0.836   3.542   5.349  0.4430 -1.5025  0.6735
 1628SOL    HW2 6101   0.772   3.461   5.238  0.4075  0.4409 -0.7865
 1629SOL     OW 6102   1.641   2.105   4.275 -0.1895 -0.5172  0.2362
 1629SOL    HW1 6103   1.623   2.012   4.257 -0.0698 -0.5994  0.5289
 1629SOL    HW2 6104   1.645   2.146   4.189 -1.2424 -0.5906  0.1457
 1630SOL     OW 6105   1.416   3.497   4.476 -0.5280 -0.0318 -0.1365
 1630SOL    HW1 6106   1.406   3.544   4.559  0.8050  1.1028 -0.5786
 1630SOL    HW2 6107   1.351   3.537   4.418 -0.4426  0.2101 -0.0656
 1631SOL     OW 6108   0.069   3.843   5.608  0.3939 -0.8056  0.3563
 1631SOL    HW1 6109   0.001   3.789   5.568 -1.2371  0.2803  1.5445
 1631SOL    HW2 6110   0.080   3.806   5.696  3.0812 -2.4216 -0.5315
 1632SOL     OW 6111   1.241   2.609   4.520  0.1869  0.1021  0.5012
 1632SOL    HW1 6112   1.288   2.533   4.553  1.1065  0.7372  0.7035
 1632SOL    HW2 6113   1.166   2.618   4.579  1.0259  0.3681  1.5532
 1633SOL     OW 6114   0.980   3.052   5.790  0.4932  0.7411 -0.2370
 1633SOL    HW1 6115   0.924   3.055   5.712  0.8483 -0.0674 -0.5372
 1633SOL    HW2 6116   0.976   3.141   5.826 -1.1843  0.6450 -0.1038
 1634SOL     OW 6117   0.997   3.333   4.124 -0.3085 -0.6298  0.2567
 1634SOL    HW1 6118   0.969   3.402   4.064  0.2229  0.0866  0.8145
 1634SOL    HW2 6119   1.013   3.257   4.068  2.0076  0.5417 -0.7896
 1635SOL     OW 6120   1.497   3.733   5.620  0.1360 -0.0365 -0.4531
 1635SOL    HW1 6121   1.486   3.826   5.600  0.2658  0.0600 -0.0771
 1635SOL    HW2 6122   1.545   3.698   5.545  0.6078  0.3228 -0.3228
 1636SOL     OW 6123   2.077   1.882   4.532  0.1193  0.1107 -0.1919
 1636SOL    HW1 6124   1.993   1.871   4.487  0.1717 -0.4906 -0.1529
 1636SOL    HW2 6125   2.056   1.927   4.613 -0.0573  0.6810 -0.5468
 1637SOL     OW 6126   0.315   1.837   4.511 -0.3271  0.3047 -0.1350
 1637SOL    HW1 6127   0.352   1.894   4.443  0.1638  0.4800  0.2796
 1637SOL    HW2 6128   0.265   1.896   4.567 -1.2674  0.0657 -0.7055
 1638SOL     OW 6129   1.428   3.354   4.220  0.6648 -0.2729  0.3746
 1638SOL    HW1 6130   1.481   3.432   4.207  1.5477 -0.9830 -0.4814
 1638SOL    HW2 6131   1.364   3.378   4.286  1.0198  1.1186  0.2266
 1639SOL     OW 6132   0.383   3.097   5.561 -0.5531  0.5194 -0.0239
 1639SOL    HW1 6133   0.408   3.186   5.584 -0.7263  0.3944  0.6549
 1639SOL    HW2 6134   0.428   3.081   5.478  0.3930  0.8403  0.4020
 1640SOL     OW 6135   1.088   2.915   4.226  0.3797 -0.1344 -0.2514
 1640SOL    HW1 6136   1.164   2.882   4.179  0.6660 -0.8962  0.7147
 1640SOL    HW2 6137   1.044   2.837   4.259  1.0321  0.3714  2.0208
 1641SOL     OW 6138   1.267   3.122   4.126  0.0166 -0.1254  0.3180
 1641SOL    HW1 6139   1.296   3.212   4.141 -1.5128  0.2173  1.5691
 1641SOL    HW2 6140   1.214   3.101   4.204 -1.5956 -1.2455 -1.0066
 1642SOL     OW 6141   0.439   3.364   5.612 -0.2282  0.1180  0.5807
 1642SOL    HW1 6142   0.491   3.434   5.572  0.4756 -0.5408  0.3256
 1642SOL    HW2 6143   0.454   3.374   5.706  2.3258 -1.4881  0.4594
 1643SOL     OW 6144   1.593   2.859   5.206  0.2639 -0.2087 -0.2399
 1643SOL    HW1 6145   1.659   2.921   5.235  0.9916 -0.8571 -0.4842
 1643SOL    HW2 6146   1.516   2.878   5.260  1.3148 -0.8426  1.5581
 1644SOL     OW 6147   0.882   3.102   3.963  0.1566  0.1599 -0.0610
 1644SOL    HW1 6148   0.837   3.113   3.879  0.5602 -1.8940 -0.5943
 1644SOL    HW2 6149   0.956   3.046   3.944  0.2342 -0.3968  1.6849
 1645SOL     OW 6150   0.758   2.367   4.864 -0.0708  0.3324 -0.4270
 1645SOL    HW1 6151   0.685   2.306   4.873 -0.2429  0.1621 -2.5473
 1645SOL    HW2 6152   0.820   2.323   4.807 -0.2597  2.1162 -2.1480
 1646SOL     OW 6153   0.742   3.291   4.197 -0.2196 -0.4830  0.4739
 1646SOL    HW1 6154   0.683   3.321   4.128 -1.4286 -2.7785  0.4181
 1646SOL    HW2 6155   0.830   3.314   4.166 -0.8623  0.1551 -0.9383
 1647SOL     OW 6156   1.613   1.753   5.272  0.1999 -0.5536  0.0945
 1647SOL    HW1 6157   1.627   1.821   5.207  0.1975 -1.7226 -1.1724
 1647SOL    HW2 6158   1.682   1.766   5.337  0.5845  0.2465 -0.4674
 1648SOL     OW 6159   0.209   3.221   4.010  0.0086  0.5420 -0.4416
 1648SOL    HW1 6160   0.165   3.138   3.989  0.2176  0.0387  0.9821
 1648SOL    HW2 6161   0.151   3.288   3.975 -0.3763 -0.1808 -1.2566
 1649SOL     OW 6162   0.208   3.059   5.865  0.1481  0.1310  0.3829
 1649SOL    HW1 6163   0.161   3.087   5.786 -0.6646 -1.1511  0.3704
 1649SOL    HW2 6164   0.194   3.130   5.928  0.3861  0.9402 -0.4598
 1650SOL     OW 6165   0.762   2.098   5.175 -0.5119 -0.4444  0.1952
 1650SOL    HW1 6166   0.855   2.113   5.190 -0.1853 -1.1763 -0.8825
 1650SOL    HW2 6167   0.724   2.090   5.262  0.5217 -0.6026  0.6492
 1651SOL     OW 6168   0.000   1.443   3.643  0.7217 -0.2941  0.4647
 1651SOL    HW1 6169  -0.063   1.399   3.585 -1.7215  0.1197  2.6115
 1651SOL    HW2 6170  -0.005   1.535   3.619 -0.3188 -0.1172  1.3056
 1652SOL     OW 6171   1.345   2.507   4.952 -0.2192 -0.1364  0.1959
 1652SOL    HW1 6172   1.385   2.570   5.011  2.0288 -0.9737 -0.3449
 1652SOL    HW2 6173   1.411   2.492   4.884 -0.7942 -2.7890  0.1251
 1653SOL     OW 6174   0.236   2.192   3.965 -0.2166  0.3842 -0.1157
 1653SOL    HW1 6175   0.274   2.125   3.908  1.5736 -0.0802  1.5086
 1653SOL    HW2 6176   0.148   2.160   3.985  0.1823 -0.8910 -0.3292
 1654SOL     OW 6177   1.110   3.116   4.390 -0.3685 -0.3903  0.2617
 1654SOL    HW1 6178   1.085   3.046   4.331 -2.1021 -1.2254  1.8804
 1654SOL    HW2 6179   1.055   3.190   4.365  0.9888  0.2343 -1.0133
 1655SOL     OW 6180   0.767   2.661   5.304  0.1656  0.0021 -0.4473
 1655SOL    HW1 6181   0.856   2.656   5.269  0.5504 -0.4161  0.5832
 1655SOL    HW2 6182   0.764   2.597   5.375 -0.2153  1.6660  1.1221
 1656SOL     OW 6183   1.639   3.602   4.987  0.2822  0.0967  0.2268
 1656SOL    HW1 6184   1.656   3.529   4.927 -0.4053 -1.2020  1.5211
 1656SOL    HW2 6185   1.543   3.603   4.996  0.3664  0.3626  1.1566
 1657SOL     OW 6186   0.658   2.069   5.431  0.3947 -0.7557  0.0539
 1657SOL    HW1 6187   0.634   2.120   5.508  0.2144 -0.5665 -0.1241
 1657SOL    HW2 6188   0.752   2.057   5.438  0.4488 -0.3472  0.0712
 1658SOL     OW 6189   1.853   3.003   5.637  0.0554 -0.0852 -0.1203
 1658SOL    HW1 6190   1.791   3.054   5.689 -0.1013 -2.1814  1.9047
 1658SOL    HW2 6191   1.928   2.991   5.694  1.2496  0.1585 -1.5738
 1659SOL     OW 6192   0.262   3.780   5.256  0.1237 -0.4153 -0.1199
 1659SOL    HW1 6193   0.179   3.790   5.209 -0.3885 -0.2249  0.8031
 1659SOL    HW2 6194   0.317   3.728   5.197  0.3059  1.6679 -1.9205
 1660SOL     OW 6195   1.734   2.180   5.005  0.3860 -0.0023 -0.5322
 1660SOL    HW1 6196   1.667   2.127   5.048 -0.6056  1.1534 -0.6011
 1660SOL    HW2 6197   1.724   2.160   4.912  0.7110 -0.4543 -0.4754
 1661SOL     OW 6198   1.174   2.029   4.231  0.4742 -0.8092 -1.0619
 1661SOL    HW1 6199   1.090   2.068   4.256  0.2478 -1.3779 -0.9377
 1661SOL    HW2 6200   1.228   2.038   4.309  0.3475 -0.9601 -0.9574
 1662SOL     OW 6201   0.958   3.051   4.657  0.3489 -0.1799 -0.3169
 1662SOL    HW1 6202   1.024   3.104   4.614  1.0402  0.3850  1.3695
 1662SOL    HW2 6203   0.923   3.108   4.726  0.3611 -1.5363  0.8459
 1663SOL     OW 6204   1.917   1.758   5.373 -0.0979 -0.8783  0.6003
 1663SOL    HW1 6205   1.908   1.848   5.404  0.0392 -0.8918  0.6807
 1663SOL    HW2 6206   1.957   1.711   5.446 -0.4294 -1.0685  0.6655
 1664SOL     OW 6207   1.749   2.404   5.204 -0.4224  0.0924  0.0623
 1664SOL    HW1 6208   1.705   2.452   5.133 -3.7246 -1.4354  0.8388
 1664SOL    HW2 6209   1.743   2.312   5.176  2.9845 -0.2167  0.0044
 1665SOL     OW 6210   0.788   2.965   4.182 -0.0072  0.2737 -0.2482
 1665SOL    HW1 6211   0.826   3.018   4.112 -1.1239  0.1558 -0.9560
 1665SOL    HW2 6212   0.694   2.969   4.167 -0.1258 -4.0004 -1.8761
 1666SOL     OW 6213   0.795   3.416   4.962 -0.3897  0.8812 -0.0628
 1666SOL    HW1 6214   0.886   3.399   4.936 -0.1817  2.4830 -0.4956
 1666SOL    HW2 6215   0.744   3.398   4.883 -0.7958 -2.2609  0.7876
 1667SOL     OW 6216   0.560   2.841   4.763  0.1254 -0.1969  0.8475
 1667SOL    HW1 6217   0.562   2.914   4.826  0.2814 -0.7311  1.4708
 1667SOL    HW2 6218   0.608   2.771   4.806  1.0662 -0.2670 -0.2755
 1668SOL     OW 6219   0.760   2.606   3.960 -0.2783 -0.0359  0.4391
 1668SOL    HW1 6220   0.714   2.604   4.044 -1.8515  0.5398 -0.3734
 1668SOL    HW2 6221   0.842   2.653   3.978 -0.7278  0.3359  1.5789
 1669SOL     OW 6222   1.665   3.347   4.861 -0.2920  0.7704 -0.6616
 1669SOL    HW1 6223   1.743   3.339   4.806  0.7312 -1.2345  0.9530
 1669SOL    HW2 6224   1.592   3.347   4.798  0.8292 -1.2939 -2.0932
 1670SOL     OW 6225   8.674   2.878   5.872 -0.7352  0.4090  0.8300
 1670SOL    HW1 6226   8.672   2.973   5.887 -1.4170  0.5601 -0.1072
 1670SOL    HW2 6227   8.663   2.840   5.959 -1.9692  1.2095  1.0498
 1671SOL     OW 6228   0.178   3.411   4.865 -0.1099 -0.1529  0.3708
 1671SOL    HW1 6229   0.115   3.373   4.926  1.4537 -1.7228  1.1300
 1671SOL    HW2 6230   0.164   3.505   4.871 -2.9804 -0.4449 -0.2243
 1672SOL     OW 6231   0.571   3.589   5.506 -0.7245  0.3754 -0.3536
 1672SOL    HW1 6232   0.632   3.590   5.432 -0.2883  1.0706 -0.0001
 1672SOL    HW2 6233   0.486   3.606   5.466 -0.2359  2.8006 -0.5219
 1673SOL     OW 6234   1.623   2.047   5.402 -0.2106 -0.5524 -0.5834
 1673SOL    HW1 6235   1.717   2.042   5.419 -0.0403 -1.8383 -1.6944
 1673SOL    HW2 6236   1.590   2.112   5.464  0.9590 -2.0826  1.7831
 1674SOL     OW 6237   0.575   1.961   4.050  0.1628  0.1935  0.3130
 1674SOL    HW1 6238   0.641   1.898   4.018 -0.0375  0.4158 -0.5618
 1674SOL    HW2 6239   0.520   1.978   3.974 -1.3717 -0.5425  1.2027
 1675SOL     OW 6240   1.425   3.004   4.963  0.0489 -0.0139 -0.2722
 1675SOL    HW1 6241   1.449   2.983   5.054 -1.4642 -0.3537  0.0836
 1675SOL    HW2 6242   1.331   2.988   4.959  0.4221 -2.2150 -2.5240
 1676SOL     OW 6243   0.276   2.813   4.860 -0.0968 -0.5852 -0.5261
 1676SOL    HW1 6244   0.232   2.896   4.842  0.6065 -0.1390 -0.2093
 1676SOL    HW2 6245   0.331   2.797   4.783  0.0045 -0.6006 -0.4508
 1677SOL     OW 6246   1.044   3.266   4.888 -0.1124  0.0567 -0.3384
 1677SOL    HW1 6247   1.053   3.296   4.798  0.8461 -0.1465 -0.3258
 1677SOL    HW2 6248   1.121   3.211   4.902 -1.2988 -1.6195 -0.0593
 1678SOL     OW 6249   1.549   1.994   5.156  0.0564  0.1408  0.1438
 1678SOL    HW1 6250   1.456   2.011   5.149 -0.7852 -2.8654  2.0930
 1678SOL    HW2 6251   1.572   2.018   5.246  0.1984 -2.5209  0.9126
 1679SOL     OW 6252   1.244   1.881   4.788  0.0497  0.1335 -0.4063
 1679SOL    HW1 6253   1.277   1.794   4.763 -0.3846 -0.1843  0.1032
 1679SOL    HW2 6254   1.182   1.863   4.859 -0.1937  0.8469 -0.4376
 1680SOL     OW 6255   0.659   3.046   4.517  0.2289  0.3581  0.0405
 1680SOL    HW1 6256   0.720   3.045   4.591 -1.1101 -1.0893  1.2262
 1680SOL    HW2 6257   0.632   2.954   4.507 -1.8424  0.9421 -0.2993
 1681SOL     OW 6258   1.042   3.533   5.176  0.1774  0.8609  0.3960
 1681SOL    HW1 6259   1.032   3.550   5.082 -1.1455  1.8235  0.6832
 1681SOL    HW2 6260   1.126   3.574   5.199  0.2507  1.0917 -0.2590
 1682SOL     OW 6261   1.929   1.825   4.012  0.5859 -0.0410 -0.4792
 1682SOL    HW1 6262   1.972   1.900   3.971 -1.1282  1.0661 -0.3569
 1682SOL    HW2 6263   1.989   1.798   4.082  1.3068  1.1287 -0.6209
 1683SOL     OW 6264   0.823   2.411   4.272 -0.6202 -0.1260  0.1838
 1683SOL    HW1 6265   0.774   2.426   4.352 -1.3739 -0.2781 -0.2392
 1683SOL    HW2 6266   0.895   2.475   4.276 -1.0262  0.3119  0.6709
 1684SOL     OW 6267   1.334   2.209   5.025  0.0341 -0.2785  0.4475
 1684SOL    HW1 6268   1.315   2.303   5.032 -1.7055 -0.4845 -0.8717
 1684SOL    HW2 6269   1.401   2.204   4.956  1.1584  0.0556  1.4714
 1685SOL     OW 6270   0.118   2.941   4.428  0.3143 -0.3537 -0.1669
 1685SOL    HW1 6271   0.206   2.972   4.406  0.7887 -2.2584 -1.0719
 1685SOL    HW2 6272   0.066   2.955   4.349  0.5286 -1.7865 -0.5810
 1686SOL     OW 6273   1.002   3.510   4.486 -0.3510  0.6188  0.2202
 1686SOL    HW1 6274   0.923   3.501   4.434 -0.3273 -2.7893  0.6088
 1686SOL    HW2 6275   1.032   3.600   4.468 -2.4034  0.8689 -2.5734
 1687SOL     OW 6276   0.617   3.012   6.023 -0.4544  0.3525 -0.6385
 1687SOL    HW1 6277   0.548   3.074   6.046  0.2025  0.5468  0.9104
 1687SOL    HW2 6278   0.606   2.998   5.929 -1.2390  2.0394 -0.8348
 1688SOL     OW 6279   0.387   2.306   6.634  0.6871  0.2907 -0.9797
 1688SOL    HW1 6280   0.400   2.294   6.540 -0.7386 -1.6736 -0.9956
 1688SOL    HW2 6281   0.297   2.339   6.642  0.3188 -0.8259 -0.2802
 1689SOL     OW 6282   0.039   2.438   6.024  0.0013 -0.9446 -0.6892
 1689SOL    HW1 6283   0.023   2.528   6.050 -3.0322 -1.6806  0.2975
 1689SOL    HW2 6284   0.037   2.440   5.928  0.8518  0.1174 -0.7049
 1690SOL     OW 6285   0.392   3.164   6.706  0.6186 -0.2532 -0.1747
 1690SOL    HW1 6286   0.316   3.135   6.655  0.3146 -0.9639  0.6556
 1690SOL    HW2 6287   0.456   3.191   6.640  0.0698 -0.7187 -0.9171
 1691SOL     OW 6288   1.552   3.249   6.423  0.3634 -0.3136  0.0197
 1691SOL    HW1 6289   1.546   3.156   6.401  1.0084 -0.6057  1.0065
 1691SOL    HW2 6290   1.499   3.293   6.356  2.3318 -1.1234 -2.2501
 1692SOL     OW 6291   1.446   2.608   6.185 -0.7625 -0.3058 -0.2607
 1692SOL    HW1 6292   1.385   2.669   6.226  1.7035  0.4567  2.6640
 1692SOL    HW2 6293   1.532   2.651   6.192  0.3850 -1.9638 -2.7213
 1693SOL     OW 6294   1.692   2.212   6.023  0.1575  0.0834 -0.3538
 1693SOL    HW1 6295   1.668   2.198   6.115 -1.4377  1.0972 -0.5692
 1693SOL    HW2 6296   1.783   2.184   6.017  0.2525 -0.1217  1.5088
 1694SOL     OW 6297   0.790   3.096   7.132 -0.3764 -0.0194 -0.4090
 1694SOL    HW1 6298   0.838   3.164   7.178 -1.6999 -0.2988  1.4867
 1694SOL    HW2 6299   0.706   3.090   7.178 -0.4677 -2.6162 -0.7658
 1695SOL     OW 6300   1.109   2.599   7.084 -0.0864  0.2098 -0.0203
 1695SOL    HW1 6301   1.062   2.668   7.130 -1.3359 -0.3511 -0.4234
 1695SOL    HW2 6302   1.042   2.552   7.035  1.0112 -0.0789 -1.3163
 1696SOL     OW 6303   0.379   3.394   6.305 -0.0152  0.9605 -0.2418
 1696SOL    HW1 6304   0.303   3.383   6.362 -1.3734  0.3894 -2.0906
 1696SOL    HW2 6305   0.348   3.444   6.231  1.0543 -0.3897 -1.6743
 1697SOL     OW 6306   0.746   2.819   7.261 -0.3114 -0.1315  0.6551
 1697SOL    HW1 6307   0.691   2.891   7.292  0.1066  2.1680 -3.1956
 1697SOL    HW2 6308   0.701   2.788   7.182  1.6547 -1.2874 -0.0722
 1698SOL     OW 6309   1.240   3.190   6.815  0.3537 -0.5219 -0.1576
 1698SOL    HW1 6310   1.207   3.132   6.883 -0.8931  0.8627  0.4876
 1698SOL    HW2 6311   1.257   3.273   6.859 -0.2362  0.3358 -1.4602
 1699SOL     OW 6312   1.573   3.354   6.893 -0.1710 -0.5952  0.3245
 1699SOL    HW1 6313   1.646   3.337   6.833  0.2611 -1.5592  1.0952
 1699SOL    HW2 6314   1.567   3.275   6.947 -1.6865 -0.4659  0.3886
 1700SOL     OW 6315   0.525   2.605   7.376  0.6111  0.5043 -0.3023
 1700SOL    HW1 6316   0.528   2.674   7.442 -1.0750  0.5910 -0.2577
 1700SOL    HW2 6317   0.514   2.652   7.293 -2.7790  0.3697 -0.0824
 1701SOL     OW 6318   1.602   2.354   6.294  0.0304 -0.5589 -0.2661
 1701SOL    HW1 6319   1.602   2.401   6.211 -1.3368  0.5403  0.3031
 1701SOL    HW2 6320   1.521   2.381   6.336  0.9083 -0.7234  1.6347
 1702SOL     OW 6321   0.510   4.312   6.138  0.7417 -0.2786  0.1064
 1702SOL    HW1 6322   0.570   4.385   6.155 -0.4940  0.6714  0.5699
 1702SOL    HW2 6323   0.535   4.280   6.051  1.6655  0.3356  0.1334
 1703SOL     OW 6324   1.265   3.279   7.275 -0.0739 -0.1793 -0.1738
 1703SOL    HW1 6325   1.229   3.355   7.230 -2.1665 -1.2200 -0.3874
 1703SOL    HW2 6326   1.358   3.299   7.286 -0.6338  2.6348  0.2852
 1704SOL     OW 6327   0.296   3.812   5.952 -0.4359 -0.1430 -0.2729
 1704SOL    HW1 6328   0.379   3.808   5.999 -0.9738  1.1069  0.8512
 1704SOL    HW2 6329   0.292   3.901   5.917 -0.2985 -0.8860 -2.2765
 1705SOL     OW 6330   0.295   3.507   6.067  0.2404  0.3243  0.0251
 1705SOL    HW1 6331   0.296   3.603   6.072 -0.1302  0.2488  2.1546
 1705SOL    HW2 6332   0.212   3.487   6.024  0.2933  0.9437 -0.3893
 1706SOL     OW 6333   0.796   3.731   6.877 -0.0901 -0.3055 -0.5778
 1706SOL    HW1 6334   0.808   3.676   6.954  0.8438  0.5208 -0.1066
 1706SOL    HW2 6335   0.872   3.712   6.822 -0.2203 -0.1477 -0.8116
 1707SOL     OW 6336   0.649   2.793   5.554 -0.4454 -0.2700  0.0528
 1707SOL    HW1 6337   0.685   2.794   5.465 -0.8688 -0.0501 -0.1171
 1707SOL    HW2 6338   0.598   2.713   5.559  0.1086 -0.6171  0.3176
 1708SOL     OW 6339   1.245   1.985   6.767 -0.8403  0.5973 -0.2415
 1708SOL    HW1 6340   1.270   1.927   6.839 -0.6719  1.3185  0.2935
 1708SOL    HW2 6341   1.326   2.030   6.742 -1.4258  2.5314  1.1256
 1709SOL     OW 6342   8.533   3.116   5.991  0.3989  0.2830  0.5055
 1709SOL    HW1 6343   8.479   3.153   5.920  2.4790  1.1209 -0.7338
 1709SOL    HW2 6344   8.485   3.038   6.019 -1.0894  0.5750 -1.0180
 1710SOL     OW 6345   2.007   3.736   6.563  0.1151  0.0274 -0.6518
 1710SOL    HW1 6346   1.946   3.801   6.598 -0.7572 -0.6189 -0.9423
 1710SOL    HW2 6347   2.066   3.786   6.507  1.1870  0.9947  1.2658
 1711SOL     OW 6348   8.683   3.785   6.050 -0.2276 -0.6340 -0.3108
 1711SOL    HW1 6349   8.621   3.808   5.980 -2.8643  0.9384  2.3512
 1711SOL    HW2 6350   8.659   3.695   6.074 -1.1730 -0.2089  0.3678
 1712SOL     OW 6351   1.736   2.504   5.956  0.0493  0.0066  0.5340
 1712SOL    HW1 6352   1.766   2.487   6.046 -0.2866 -0.2889  0.5958
 1712SOL    HW2 6353   1.792   2.449   5.901 -0.1148 -0.2447  0.6146
 1713SOL     OW 6354   1.867   2.715   5.872 -0.0173 -0.2304  0.0500
 1713SOL    HW1 6355   1.809   2.647   5.906 -1.8612  1.2914  0.0794
 1713SOL    HW2 6356   1.831   2.797   5.906  1.4652  0.8747 -0.9125
 1714SOL     OW 6357   0.270   2.728   6.923 -0.2301 -0.5155 -0.1315
 1714SOL    HW1 6358   0.273   2.645   6.970  0.9430 -0.7409 -0.5580
 1714SOL    HW2 6359   0.357   2.736   6.883  0.4879  1.9388  1.6932
 1715SOL     OW 6360   1.078   3.386   6.196  0.2326  0.0629  0.9012
 1715SOL    HW1 6361   1.010   3.447   6.168  1.4357  1.6289  1.2231
 1715SOL    HW2 6362   1.037   3.300   6.189 -1.6345  0.9074  0.7188
 1716SOL     OW 6363   1.575   3.064   7.021 -0.2278  0.1397  0.2669
 1716SOL    HW1 6364   1.650   3.026   7.066 -0.7851 -1.4291 -0.0726
 1716SOL    HW2 6365   1.499   3.032   7.069 -0.7703 -0.3908 -0.8926
 1717SOL     OW 6366   1.121   1.863   5.987 -0.5683  0.0419 -0.6240
 1717SOL    HW1 6367   1.045   1.899   5.940 -1.3931  0.4673  0.9422
 1717SOL    HW2 6368   1.124   1.771   5.962 -0.4610  0.4343 -2.1374
 1718SOL     OW 6369   0.591   2.966   6.773  0.5359  0.1677 -0.3183
 1718SOL    HW1 6370   0.510   3.016   6.785 -0.1183 -0.1958 -2.6870
 1718SOL    HW2 6371   0.648   3.025   6.724  0.8226 -0.3982 -0.6677
 1719SOL     OW 6372   1.498   2.596   5.794  0.3924 -0.1297  0.1325
 1719SOL    HW1 6373   1.548   2.584   5.875 -1.5281 -1.5327  1.1881
 1719SOL    HW2 6374   1.545   2.665   5.747  2.5550 -0.4907  1.6203
 1720SOL     OW 6375   0.953   3.541   7.454  0.4557  0.1316 -0.6781
 1720SOL    HW1 6376   1.049   3.542   7.455  0.4970  0.1831 -2.3503
 1720SOL    HW2 6377   0.929   3.501   7.537  1.9138  0.5930 -0.0011
 1721SOL     OW 6378   0.732   2.468   7.447  0.7024  0.0083  0.1457
 1721SOL    HW1 6379   0.708   2.391   7.498  0.9183  0.0581  0.3287
 1721SOL    HW2 6380   0.649   2.507   7.421  0.5882 -0.0756  0.3789
 1722SOL     OW 6381   1.533   3.692   6.285 -0.3526  0.4212 -0.2502
 1722SOL    HW1 6382   1.525   3.676   6.191  0.4541  0.3859 -0.3170
 1722SOL    HW2 6383   1.551   3.785   6.292 -0.3612  0.4145 -0.1384
 1723SOL     OW 6384   1.776   3.987   6.086 -0.3574 -0.3592 -0.1348
 1723SOL    HW1 6385   1.809   3.898   6.095 -2.1631 -1.1519 -0.7715
 1723SOL    HW2 6386   1.800   4.030   6.168  1.3495 -1.1280 -0.1878
 1724SOL     OW 6387   0.984   2.301   5.961  0.2012  0.0859 -0.0035
 1724SOL    HW1 6388   1.048   2.253   5.908  0.5977 -0.3342  0.8369
 1724SOL    HW2 6389   1.036   2.361   6.013 -0.3968  2.6922 -2.2270
 1725SOL     OW 6390   1.266   2.206   6.313 -0.2205 -0.0417 -0.7894
 1725SOL    HW1 6391   1.193   2.204   6.375  0.6151 -0.6958  0.2176
 1725SOL    HW2 6392   1.274   2.298   6.287  0.4608  0.5915  1.4105
 1726SOL     OW 6393   1.633   3.969   5.852  0.0754  0.2875 -0.0713
 1726SOL    HW1 6394   1.683   3.992   5.931  0.0565 -0.7253  0.2595
 1726SOL    HW2 6395   1.547   4.009   5.866 -1.0897 -2.6116  2.0682
 1727SOL     OW 6396   0.776   2.311   7.236 -0.0241 -0.0450  0.5470
 1727SOL    HW1 6397   0.831   2.247   7.282  0.8695  1.4060  1.5770
 1727SOL    HW2 6398   0.772   2.386   7.296 -0.1183  1.3061 -1.0888
 1728SOL     OW 6399   1.665   2.543   7.560 -0.0106 -0.1463 -0.0712
 1728SOL    HW1 6400   1.652   2.458   7.603  0.8989 -0.2499  0.0281
 1728SOL    HW2 6401   1.633   2.529   7.471 -0.7198 -0.3130  0.2040
 1729SOL     OW 6402   1.037   2.870   7.106  0.3611 -0.5313  0.3250
 1729SOL    HW1 6403   0.956   2.819   7.114  0.1957 -0.3147  0.0554
 1729SOL    HW2 6404   1.019   2.951   7.155  0.5890 -0.6894  0.6718
 1730SOL     OW 6405   1.017   2.078   6.906  0.5185 -0.2998  0.1483
 1730SOL    HW1 6406   1.083   2.018   6.873  3.7472  1.6989  2.4558
 1730SOL    HW2 6407   1.037   2.087   6.999 -2.3237  1.3390  0.7204
 1731SOL     OW 6408   0.763   3.255   6.243  0.3013 -0.0700  0.1974
 1731SOL    HW1 6409   0.686   3.199   6.250 -0.7076  1.0679 -1.2913
 1731SOL    HW2 6410   0.836   3.199   6.271 -0.7837 -1.8085 -0.2965
 1732SOL     OW 6411   0.442   3.173   6.138 -0.1715 -0.3740  0.1501
 1732SOL    HW1 6412   0.361   3.146   6.096  0.5307  1.8823 -3.0412
 1732SOL    HW2 6413   0.421   3.258   6.177  0.7058  0.4137 -1.0480
 1733SOL     OW 6414   0.046   3.339   7.112 -0.1555  0.1608 -0.5174
 1733SOL    HW1 6415  -0.032   3.378   7.153 -0.5664  2.5429 -3.2333
 1733SOL    HW2 6416   0.011   3.269   7.056 -0.1050 -0.0796 -0.2507
 1734SOL     OW 6417   0.956   1.947   5.775  0.7816 -0.1868  0.6787
 1734SOL    HW1 6418   0.880   1.911   5.730  1.1234 -0.5179  0.3509
 1734SOL    HW2 6419   0.968   2.034   5.736  3.0133 -1.6385 -2.3595
 1735SOL     OW 6420   1.939   2.519   7.512  0.2396 -0.0073  0.2786
 1735SOL    HW1 6421   1.851   2.544   7.540  0.2557 -1.8242  2.1688
 1735SOL    HW2 6422   1.938   2.423   7.511  1.9709 -0.0571 -0.5098
 1736SOL     OW 6423   1.524   3.649   5.996  0.1514  0.1595 -0.7263
 1736SOL    HW1 6424   1.461   3.721   6.007 -0.5900 -0.3086 -1.7530
 1736SOL    HW2 6425   1.587   3.682   5.932  0.8950  0.5812  0.2087
 1737SOL     OW 6426   0.705   1.760   6.532  0.4911 -0.1262  0.4240
 1737SOL    HW1 6427   0.690   1.853   6.515 -0.0463 -0.0611  1.1610
 1737SOL    HW2 6428   0.681   1.716   6.451  0.8791  0.3881  0.0279
 1738SOL     OW 6429   1.155   3.833   6.360 -0.2151 -0.0174 -0.1114
 1738SOL    HW1 6430   1.106   3.811   6.281 -0.6004 -0.1506  0.1582
 1738SOL    HW2 6431   1.091   3.877   6.416 -0.2072 -0.7645  0.5065
 1739SOL     OW 6432   0.624   4.047   6.490  0.0888 -0.1755  0.1505
 1739SOL    HW1 6433   0.548   4.001   6.457  0.5010  0.2938 -1.5914
 1739SOL    HW2 6434   0.654   3.995   6.565 -2.0116 -0.2582  0.9865
 1740SOL     OW 6435   1.693   2.755   6.200 -0.3250  0.5634 -0.2059
 1740SOL    HW1 6436   1.745   2.792   6.272  0.4483 -0.5268 -0.1793
 1740SOL    HW2 6437   1.718   2.808   6.124  1.3018 -0.2827 -0.3127
 1741SOL     OW 6438   1.304   3.433   6.915  0.4234 -0.4636  0.0962
 1741SOL    HW1 6439   1.398   3.412   6.920  0.4035 -0.3659  1.0950
 1741SOL    HW2 6440   1.301   3.519   6.873  0.8716  0.0912  1.1607
 1742SOL     OW 6441   0.139   3.221   6.078  0.8637 -0.2547  0.2613
 1742SOL    HW1 6442   0.087   3.301   6.078  3.8070  1.8365  0.6447
 1742SOL    HW2 6443   0.096   3.164   6.141 -1.6068  0.7681 -0.3679
 1743SOL     OW 6444   1.319   2.742   6.375 -0.1810 -0.2017  0.0441
 1743SOL    HW1 6445   1.258   2.786   6.434 -1.1893  0.8020 -1.6977
 1743SOL    HW2 6446   1.404   2.753   6.417 -0.8523  0.5825  1.2592
 1744SOL     OW 6447   0.137   3.073   7.597 -0.1758  0.3335  0.1893
 1744SOL    HW1 6448   0.098   2.987   7.581 -1.7352  1.2217 -1.0514
 1744SOL    HW2 6449   0.196   3.087   7.523 -0.3432  0.5643  0.0993
 1745SOL     OW 6450   1.348   3.522   5.666  0.2901  0.4500 -0.1291
 1745SOL    HW1 6451   1.254   3.511   5.685  0.4776 -0.0429  0.5604
 1745SOL    HW2 6452   1.358   3.616   5.650 -0.8643  0.1602 -3.3104
 1746SOL     OW 6453   0.002   2.249   6.816 -0.1199 -0.1763  0.2624
 1746SOL    HW1 6454   0.042   2.170   6.850  1.2119  0.1237 -0.5642
 1746SOL    HW2 6455   0.013   2.244   6.721  1.8299  1.8962  0.2814
 1747SOL     OW 6456   1.927   3.455   6.050  0.2925  0.1695 -0.0988
 1747SOL    HW1 6457   1.861   3.403   6.097 -0.3428  0.3661 -0.7455
 1747SOL    HW2 6458   1.901   3.545   6.066  0.3948  0.2468 -0.3729
 1748SOL     OW 6459   0.699   3.801   6.079  0.3111 -0.5129 -0.3101
 1748SOL    HW1 6460   0.690   3.888   6.118 -0.6258 -0.0642 -1.4633
 1748SOL    HW2 6461   0.737   3.817   5.993  0.0544 -1.2327 -0.5655
 1749SOL     OW 6462   0.562   4.129   6.866  0.4498 -0.0226  0.2113
 1749SOL    HW1 6463   0.619   4.095   6.936  0.1566 -0.7032  0.1188
 1749SOL    HW2 6464   0.590   4.082   6.788  1.9657  1.9635 -0.5342
 1750SOL     OW 6465   1.267   3.368   6.599 -0.1364  0.4903  0.4054
 1750SOL    HW1 6466   1.243   3.302   6.665 -1.2539  1.8016  1.3707
 1750SOL    HW2 6467   1.327   3.427   6.645  0.7976  0.2022 -0.4282
 1751SOL     OW 6468   0.697   2.929   6.259 -0.7525  0.0222 -0.1153
 1751SOL    HW1 6469   0.722   2.840   6.235  0.6709  0.6032 -0.9224
 1751SOL    HW2 6470   0.683   2.974   6.175 -1.8106  0.4685  0.2864
 1752SOL     OW 6471   1.657   1.806   6.712 -0.5887 -0.6881 -0.2204
 1752SOL    HW1 6472   1.743   1.845   6.724  0.0214 -2.0916  0.1118
 1752SOL    HW2 6473   1.599   1.881   6.694  0.4492  0.3962  0.7942
 1753SOL     OW 6474   0.606   1.969   5.847  0.7179 -0.7131  0.0072
 1753SOL    HW1 6475   0.574   1.891   5.801 -0.4629 -0.8260  0.9816
 1753SOL    HW2 6476   0.617   2.035   5.777 -0.1310 -1.1686 -0.5811
 1754SOL     OW 6477   0.930   2.149   7.414  0.3177 -0.0982  0.1246
 1754SOL    HW1 6478   0.935   2.181   7.504  0.0969 -1.5483  0.6858
 1754SOL    HW2 6479   0.909   2.056   7.423 -0.4867 -0.0947 -1.4580
 1755SOL     OW 6480   1.114   3.487   7.077  0.6281 -0.2700 -0.0006
 1755SOL    HW1 6481   1.062   3.408   7.060  0.5999 -0.0815 -0.8717
 1755SOL    HW2 6482   1.194   3.475   7.025  0.8524  0.0454  0.2651
 1756SOL     OW 6483   1.326   2.468   7.193 -0.3658  0.0747 -0.1176
 1756SOL    HW1 6484   1.345   2.389   7.143  0.0512  0.4091 -0.4964
 1756SOL    HW2 6485   1.244   2.501   7.154 -0.4942 -0.1207 -0.0151
 1757SOL     OW 6486   1.011   3.419   6.479  0.0239 -0.7014  0.0231
 1757SOL    HW1 6487   1.101   3.435   6.507 -0.1786 -0.3273  0.4777
 1757SOL    HW2 6488   1.020   3.371   6.397  0.6232 -2.7322  1.2276
 1758SOL     OW 6489   0.838   2.641   6.479 -0.3428  0.0889 -0.0810
 1758SOL    HW1 6490   0.929   2.612   6.484  0.2671  1.8782 -0.1022
 1758SOL    HW2 6491   0.843   2.736   6.485 -2.1544  0.2755 -0.9694
 1759SOL     OW 6492   0.425   2.591   5.879 -0.1107  0.1005  0.3337
 1759SOL    HW1 6493   0.502   2.621   5.927 -0.7214  0.4973  1.0828
 1759SOL    HW2 6494   0.437   2.626   5.790  0.5904  0.1098  0.4254
 1760SOL     OW 6495   1.769   2.931   5.998 -0.1240  0.5361  0.1060
 1760SOL    HW1 6496   1.835   2.986   5.956  1.2645 -1.0956  0.0194
 1760SOL    HW2 6497   1.704   2.992   6.033 -0.6304  2.0861 -3.1211
 1761SOL     OW 6498   8.685   2.235   5.837 -0.2763  0.2870  0.2006
 1761SOL    HW1 6499   8.752   2.219   5.770 -0.7990 -1.5826  0.0487
 1761SOL    HW2 6500   8.716   2.186   5.913  1.1507  3.7101  2.0136
 1762SOL     OW 6501   1.024   2.020   6.242 -0.4634  0.5631  0.0010
 1762SOL    HW1 6502   0.983   2.096   6.283  0.6299 -0.0084  2.3746
 1762SOL    HW2 6503   0.952   1.957   6.231 -1.1106  1.4074 -0.6358
 1763SOL     OW 6504   1.064   2.307   6.748  0.1669 -0.0606  0.3774
 1763SOL    HW1 6505   1.042   2.254   6.824 -1.6435 -1.0521 -0.7805
 1763SOL    HW2 6506   1.114   2.381   6.784 -0.3051 -0.6898  2.4518
 1764SOL     OW 6507   1.338   3.660   6.479  0.3355 -0.5266  0.1050
 1764SOL    HW1 6508   1.269   3.715   6.442 -0.4160 -1.8163 -0.4850
 1764SOL    HW2 6509   1.416   3.679   6.426 -0.2426 -0.9569 -0.9180
 1765SOL     OW 6510   0.990   3.109   6.296  0.2836  0.6578  0.6201
 1765SOL    HW1 6511   0.995   3.026   6.250 -0.7383  1.1859 -0.4735
 1765SOL    HW2 6512   1.048   3.098   6.372  1.5293 -0.4290 -0.4515
 1766SOL     OW 6513   1.192   3.897   5.707  0.1651 -0.3402 -0.8827
 1766SOL    HW1 6514   1.196   3.852   5.622  0.2702 -1.7213 -0.1777
 1766SOL    HW2 6515   1.099   3.903   5.727  0.1652 -0.5849 -0.8073
 1767SOL     OW 6516   1.191   2.190   5.824 -0.7581 -0.0403 -0.0018
 1767SOL    HW1 6517   1.181   2.112   5.769  0.4910  0.5687 -1.1600
 1767SOL    HW2 6518   1.250   2.247   5.774 -0.9694  1.2887  1.2051
 1768SOL     OW 6519   0.182   3.016   7.007 -0.5109  0.3812  0.0191
 1768SOL    HW1 6520   0.218   3.100   6.978  0.1606  1.0747  2.6250
 1768SOL    HW2 6521   0.243   2.950   6.973  0.1670  1.1220 -0.2286
 1769SOL     OW 6522   0.640   2.017   6.492  0.3406  0.4833  0.1661
 1769SOL    HW1 6523   0.551   2.023   6.526 -0.4277 -2.1592 -1.1381
 1769SOL    HW2 6524   0.687   2.089   6.535 -2.3545  1.9098  0.9620
 1770SOL     OW 6525   0.712   2.238   5.998  0.2946 -0.7846  0.0713
 1770SOL    HW1 6526   0.700   2.153   5.955  2.3195 -1.6515  1.0755
 1770SOL    HW2 6527   0.802   2.262   5.977 -0.2262  1.1262 -0.1391
 1771SOL     OW 6528   0.686   1.655   6.275  0.1731  0.1907 -0.0952
 1771SOL    HW1 6529   0.628   1.654   6.199 -0.5444 -0.5339  0.4441
 1771SOL    HW2 6530   0.768   1.616   6.243 -0.2821 -0.5570 -0.3741
 1772SOL     OW 6531   1.575   3.119   6.048 -0.3615  1.0140  0.1051
 1772SOL    HW1 6532   1.575   3.104   5.953 -0.4672  1.2787  0.0614
 1772SOL    HW2 6533   1.548   3.211   6.057  0.5032  1.2524  0.3433
 1773SOL     OW 6534   1.558   2.800   6.497  0.2703 -0.1599 -0.4437
 1773SOL    HW1 6535   1.648   2.831   6.487  0.4839  0.2896  2.2297
 1773SOL    HW2 6536   1.566   2.712   6.534 -0.3310  0.4198  1.1693
 1774SOL     OW 6537   1.991   2.700   6.131 -0.8828 -0.3262  0.1685
 1774SOL    HW1 6538   1.934   2.633   6.169 -1.6293 -0.9809 -1.9753
 1774SOL    HW2 6539   1.985   2.686   6.037  3.4479 -0.8958 -0.1795
 1775SOL     OW 6540   0.304   3.700   5.525 -0.2528  0.7048  0.0093
 1775SOL    HW1 6541   0.289   3.744   5.441 -0.5305  3.4844  1.3922
 1775SOL    HW2 6542   0.217   3.691   5.563 -0.1130 -0.4031  0.0924
 1776SOL     OW 6543   1.723   3.191   5.802  0.1134 -0.0246 -0.5180
 1776SOL    HW1 6544   1.805   3.239   5.813 -0.0897  0.5538 -1.3812
 1776SOL    HW2 6545   1.658   3.259   5.787 -0.3988 -0.5187 -0.5543
 1777SOL     OW 6546   1.529   2.278   5.841  0.2274 -0.1464  0.7033
 1777SOL    HW1 6547   1.598   2.248   5.900 -0.1602  0.6295  1.5795
 1777SOL    HW2 6548   1.529   2.373   5.852 -1.9503 -0.2281  1.8592
 1778SOL     OW 6549   0.676   2.644   5.969  0.1152  0.7385 -0.7965
 1778SOL    HW1 6550   0.728   2.720   5.944  0.1136  1.0040 -0.0266
 1778SOL    HW2 6551   0.696   2.630   6.062 -0.7421  0.4934 -0.6340
 1779SOL     OW 6552   2.062   2.881   7.178 -0.4960 -0.0565 -0.2403
 1779SOL    HW1 6553   2.038   2.942   7.247 -0.1189 -0.3183  0.1280
 1779SOL    HW2 6554   2.147   2.911   7.147 -0.3359 -0.3561 -0.0981
 1780SOL     OW 6555   1.270   3.081   7.074  0.0960 -0.0487 -0.4597
 1780SOL    HW1 6556   1.214   3.004   7.088  0.9937 -1.0259 -1.8855
 1780SOL    HW2 6557   1.257   3.135   7.152  0.4322 -2.2885  1.2498
 1781SOL     OW 6558   1.243   3.819   7.585  0.2416  0.1570 -0.4119
 1781SOL    HW1 6559   1.165   3.875   7.590 -0.5975 -0.9381 -0.9376
 1781SOL    HW2 6560   1.208   3.730   7.585  1.5152 -0.3513 -0.4998
 1782SOL     OW 6561   1.451   2.688   6.742  1.1696 -0.4642 -0.8106
 1782SOL    HW1 6562   1.511   2.675   6.815 -1.3075 -1.9932  1.1307
 1782SOL    HW2 6563   1.444   2.783   6.732  0.0216 -0.0911  2.4427
 1783SOL     OW 6564   1.965   3.031   6.548  0.2775  0.2355 -0.1143
 1783SOL    HW1 6565   1.931   3.036   6.459 -0.1742 -0.0058  0.0380
 1783SOL    HW2 6566   1.887   3.035   6.604  0.4205 -1.1007  0.2227
 1784SOL     OW 6567   1.078   2.047   7.178 -0.1621 -0.1335  0.1251
 1784SOL    HW1 6568   1.043   1.968   7.220  0.1520 -0.4450 -0.1874
 1784SOL    HW2 6569   1.073   2.115   7.245  0.0988 -0.5608  0.5811
 1785SOL     OW 6570   1.376   2.753   7.142  0.8297 -0.4649 -0.3396
 1785SOL    HW1 6571   1.357   2.662   7.165  1.2016 -0.9182 -1.7271
 1785SOL    HW2 6572   1.292   2.788   7.112  0.6406 -0.2800  0.3935
 1786SOL     OW 6573   1.370   3.366   6.271 -0.4819  0.0868 -0.1967
 1786SOL    HW1 6574   1.280   3.340   6.252 -0.4906  1.2173 -1.9244
 1786SOL    HW2 6575   1.362   3.435   6.337 -0.8416 -0.2406  0.0993
 1787SOL     OW 6576   0.593   2.697   7.071  0.7345  0.1975  0.5755
 1787SOL    HW1 6577   0.613   2.604   7.083  2.0596  0.4965  0.8205
 1787SOL    HW2 6578   0.569   2.705   6.979 -1.3714 -0.7105  0.9905
 1788SOL     OW 6579   1.398   2.239   7.092  0.4339 -0.5447  0.2960
 1788SOL    HW1 6580   1.401   2.151   7.130  1.7681 -0.2328  0.9713
 1788SOL    HW2 6581   1.427   2.227   7.001  1.4293 -0.7040  0.6235
 1789SOL     OW 6582   0.821   3.548   7.068  0.2795  0.3742  0.1953
 1789SOL    HW1 6583   0.772   3.481   7.021  0.9536 -1.2671  1.7154
 1789SOL    HW2 6584   0.902   3.504   7.095 -0.5855  0.7013  3.9626
 1790SOL     OW 6585   0.485   3.364   5.915  0.1261  0.1429 -0.1596
 1790SOL    HW1 6586   0.511   3.301   5.981  0.0019  1.3430  1.0987
 1790SOL    HW2 6587   0.415   3.415   5.957 -0.9283  0.0677 -1.7168
 1791SOL     OW 6588   8.744   2.526   6.365  0.2610  0.3820 -0.3875
 1791SOL    HW1 6589   8.699   2.575   6.434  2.0318  0.8885  0.4687
 1791SOL    HW2 6590   8.686   2.452   6.347 -0.9117  1.0139  0.6436
 1792SOL     OW 6591   0.911   3.338   5.876 -0.3786 -0.4106  0.0264
 1792SOL    HW1 6592   0.829   3.321   5.829 -1.1882  0.3337  1.1170
 1792SOL    HW2 6593   0.884   3.387   5.954  1.3231  1.6019 -0.5934
 1793SOL     OW 6594   1.821   3.325   6.309  0.0584  0.1445 -0.6119
 1793SOL    HW1 6595   1.818   3.420   6.322  1.0888  0.0393  0.5697
 1793SOL    HW2 6596   1.740   3.293   6.350 -0.3510  0.5078 -1.1188
 1794SOL     OW 6597   1.257   2.453   6.091  0.0274 -0.3528  0.0305
 1794SOL    HW1 6598   1.332   2.500   6.126 -1.2979  1.8639  0.0945
 1794SOL    HW2 6599   1.264   2.463   5.996  0.1301 -0.6756  0.0028
 1795SOL     OW 6600   0.546   3.308   6.513 -0.5039 -0.0078  0.0903
 1795SOL    HW1 6601   0.608   3.370   6.550  1.9281 -1.1403 -1.8237
 1795SOL    HW2 6602   0.497   3.359   6.448 -1.7483  0.9073  1.6638
 1796SOL     OW 6603   0.283   2.496   7.027 -0.6393 -0.7560  0.0425
 1796SOL    HW1 6604   0.263   2.420   7.081 -3.3228 -0.8213 -0.8881
 1796SOL    HW2 6605   0.374   2.483   6.999 -0.0375 -2.0172  2.3600
 1797SOL     OW 6606   1.963   2.637   7.173  0.2138  0.1399 -0.5656
 1797SOL    HW1 6607   2.000   2.725   7.160  0.9927 -0.2923 -1.4549
 1797SOL    HW2 6608   1.971   2.621   7.267  0.8350  0.6934 -0.5157
 1798SOL     OW 6609   1.204   1.886   7.557 -0.2594  0.3205 -0.3918
 1798SOL    HW1 6610   1.284   1.870   7.607  0.5485  1.1574 -1.3573
 1798SOL    HW2 6611   1.229   1.953   7.493 -2.2429  2.0724  0.5500
 1799SOL     OW 6612   0.245   2.292   7.185 -0.3211  0.1287  0.1638
 1799SOL    HW1 6613   0.288   2.312   7.268 -0.3119  0.5746  0.0499
 1799SOL    HW2 6614   0.207   2.205   7.199 -0.2912  0.1860  0.6230
 1800SOL     OW 6615   0.788   2.888   6.941 -0.3292  0.2845  0.4486
 1800SOL    HW1 6616   0.719   2.929   6.890  1.6522  3.1909 -0.1899
 1800SOL    HW2 6617   0.809   2.953   7.008  1.6660 -0.5358  0.6856
 1801SOL     OW 6618   1.465   2.999   6.327 -0.0134  0.5351  0.0256
 1801SOL    HW1 6619   1.510   2.933   6.378 -0.9616 -0.9435 -0.9655
 1801SOL    HW2 6620   1.496   2.986   6.237 -0.5764  1.1024 -0.2644
 1802SOL     OW 6621   1.060   2.902   6.151  0.0166  0.0990 -0.0116
 1802SOL    HW1 6622   1.060   2.811   6.179 -0.4174 -0.2776 -1.1837
 1802SOL    HW2 6623   1.145   2.915   6.110  0.2660  0.3662  0.5804
 1803SOL     OW 6624   0.343   2.049   6.847 -0.3717 -0.1277  0.4157
 1803SOL    HW1 6625   0.253   2.046   6.880 -0.3931  0.6063  0.4343
 1803SOL    HW2 6626   0.361   2.142   6.834  0.5486 -0.2287  0.8610
 1804SOL     OW 6627   0.093   3.066   7.269  0.1720  0.1785 -0.3501
 1804SOL    HW1 6628   0.138   3.018   7.200 -0.7760  1.8514 -2.2057
 1804SOL    HW2 6629   0.062   3.146   7.228 -0.3779  1.3039  2.0434
 1805SOL     OW 6630   0.456   2.658   6.246 -0.4183  0.3174  0.0545
 1805SOL    HW1 6631   0.538   2.617   6.220 -0.8582 -1.4076  1.1606
 1805SOL    HW2 6632   0.482   2.738   6.292  0.5670  0.3742 -0.5791
 1806SOL     OW 6633   1.733   3.027   7.466  0.2392  0.1545  0.0767
 1806SOL    HW1 6634   1.742   2.956   7.531 -1.3343  0.7332  0.9841
 1806SOL    HW2 6635   1.680   2.989   7.396  0.6374 -0.0016 -0.1430
 1807SOL     OW 6636   1.168   2.817   6.597 -0.4582 -0.1401  0.4899
 1807SOL    HW1 6637   1.133   2.879   6.533 -0.1768  1.9361  2.2411
 1807SOL    HW2 6638   1.159   2.861   6.681 -0.7369 -2.7387  1.9239
 1808SOL     OW 6639   0.886   2.239   6.304 -0.2249 -0.3875  0.3832
 1808SOL    HW1 6640   0.865   2.318   6.254  0.5737 -1.2459 -1.3542
 1808SOL    HW2 6641   0.940   2.271   6.377  2.0311  0.4769 -1.5471
 1809SOL     OW 6642   1.056   2.614   6.244 -0.8679  0.0931  0.2977
 1809SOL    HW1 6643   1.119   2.562   6.195 -1.9034 -0.4567 -0.4845
 1809SOL    HW2 6644   1.080   2.601   6.336  0.0862 -0.1741  0.0208
 1810SOL     OW 6645   1.039   3.128   7.370  0.1296 -0.0551 -0.3460
 1810SOL    HW1 6646   0.963   3.158   7.320  0.2595 -0.4288 -0.7870
 1810SOL    HW2 6647   1.112   3.181   7.337  0.5289 -1.4127 -1.7755
 1811SOL     OW 6648   1.516   3.358   7.223 -0.4772  0.0636 -0.2097
 1811SOL    HW1 6649   1.545   3.446   7.246 -0.7718  0.9484 -2.9132
 1811SOL    HW2 6650   1.597   3.308   7.214 -0.2273  0.4295 -0.0576
 1812SOL     OW 6651   0.177   2.629   7.745  0.1828 -0.1637 -0.1787
 1812SOL    HW1 6652   0.084   2.625   7.769  0.2506  0.2520  0.1691
 1812SOL    HW2 6653   0.192   2.549   7.696 -0.6441  0.3262 -1.2674
 1813SOL     OW 6654   1.340   2.172   6.027  0.6968  0.1972 -0.2326
 1813SOL    HW1 6655   1.271   2.188   5.963  1.3911 -1.9950 -1.6545
 1813SOL    HW2 6656   1.419   2.209   5.987  0.6092  1.6769  0.8715
 1814SOL     OW 6657   1.420   2.929   5.711  0.5511  0.3651  0.5299
 1814SOL    HW1 6658   1.504   2.890   5.688 -0.6254 -1.1973 -1.3966
 1814SOL    HW2 6659   1.408   2.999   5.646 -0.2802 -0.4084 -0.1764
 1815SOL     OW 6660   1.465   3.008   6.772  0.8889  0.1716 -0.2130
 1815SOL    HW1 6661   1.380   3.053   6.769  0.7615  0.0165  0.6850
 1815SOL    HW2 6662   1.500   3.030   6.859  1.1947 -0.7889 -0.0838
 1816SOL     OW 6663   0.169   3.393   6.473  0.5144  0.0669  0.7773
 1816SOL    HW1 6664   0.108   3.338   6.522  1.4527 -1.5440  0.1902
 1816SOL    HW2 6665   0.201   3.456   6.538  0.2264 -0.7446  1.7265
 1817SOL     OW 6666   0.777   3.191   6.693  0.8824 -0.0319  0.4673
 1817SOL    HW1 6667   0.749   3.267   6.642 -0.4548 -1.8337 -1.6641
 1817SOL    HW2 6668   0.870   3.183   6.674  0.8760  0.6156  0.1006
 1818SOL     OW 6669   1.296   2.069   7.394 -0.2062 -0.4144  0.3037
 1818SOL    HW1 6670   1.282   2.050   7.301  1.6173 -2.2016  0.3340
 1818SOL    HW2 6671   1.389   2.091   7.401 -0.3852  0.0294  1.6802
 1819SOL     OW 6672   1.105   2.557   6.526 -0.1114 -0.4681  0.7021
 1819SOL    HW1 6673   1.140   2.489   6.583 -0.0724 -0.7794  0.3045
 1819SOL    HW2 6674   1.129   2.639   6.570 -0.2116 -0.7038  1.2090
 1820SOL     OW 6675   8.577   3.432   6.151 -0.0069 -0.1989  0.0257
 1820SOL    HW1 6676   8.485   3.410   6.156  0.4186 -2.0842  0.1673
 1820SOL    HW2 6677   8.623   3.354   6.183  1.6420  0.5502 -0.3918
 1821SOL     OW 6678   0.428   3.891   6.373  0.3347 -0.1236  0.4083
 1821SOL    HW1 6679   0.470   3.824   6.319  0.9672 -0.9854  1.9127
 1821SOL    HW2 6680   0.387   3.842   6.444  0.0091  1.0233  1.0324
 1822SOL     OW 6681   0.751   3.467   6.598 -0.1844 -0.2452  0.5164
 1822SOL    HW1 6682   0.748   3.526   6.673  1.1236  0.9138 -0.3099
 1822SOL    HW2 6683   0.843   3.462   6.574 -0.5799 -0.5033 -1.0878
 1823SOL     OW 6684   1.052   2.905   6.815  0.0676  0.6256  0.2969
 1823SOL    HW1 6685   0.964   2.877   6.839  0.0072  1.4189  1.0765
 1823SOL    HW2 6686   1.105   2.884   6.892  0.0934  2.2242  0.7447
 1824SOL     OW 6687   0.527   2.721   6.819  0.6673  0.0322 -0.5976
 1824SOL    HW1 6688   0.515   2.668   6.740  3.0953 -0.4724 -0.7308
 1824SOL    HW2 6689   0.570   2.800   6.787 -0.4710  0.8879 -0.0478
 1825SOL     OW 6690   0.006   2.485   6.944  0.4454  0.3356 -0.6935
 1825SOL    HW1 6691  -0.002   2.390   6.939  0.3682  0.2735  0.3761
 1825SOL    HW2 6692   0.098   2.501   6.965  0.5370  0.5181 -1.2168
 1826SOL     OW 6693   1.788   2.888   7.069 -0.0106 -0.4922  0.3516
 1826SOL    HW1 6694   1.800   2.845   6.984 -0.1342 -1.6051  0.8811
 1826SOL    HW2 6695   1.874   2.887   7.109  0.2850  0.9982 -0.1743
 1827SOL     OW 6696   0.718   2.411   5.758  0.0911 -0.3838  0.0166
 1827SOL    HW1 6697   0.675   2.469   5.696 -0.5713 -1.1165 -0.2184
 1827SOL    HW2 6698   0.682   2.436   5.843 -0.6775 -0.8734 -0.1577
 1828SOL     OW 6699   1.489   2.344   6.759  0.2809 -0.3420  0.0005
 1828SOL    HW1 6700   1.572   2.361   6.714  0.1757 -0.2301 -0.1513
 1828SOL    HW2 6701   1.446   2.429   6.765  0.3503 -0.3351  0.4298
 1829SOL     OW 6702   0.224   3.432   7.493  0.0138  0.1324 -0.2136
 1829SOL    HW1 6703   0.144   3.396   7.531  0.4381 -0.5003  0.0863
 1829SOL    HW2 6704   0.204   3.525   7.479 -0.8589 -0.0721 -0.3820
 1830SOL     OW 6705   0.668   2.436   6.575 -0.4766 -0.3786 -0.4239
 1830SOL    HW1 6706   0.743   2.489   6.550 -0.5695 -0.5893 -1.1531
 1830SOL    HW2 6707   0.596   2.499   6.585 -0.0862 -0.1047  0.8210
 1831SOL     OW 6708   0.930   3.778   7.322  0.0234 -0.0413  0.0781
 1831SOL    HW1 6709   0.854   3.750   7.270 -1.2950 -0.1914  1.9592
 1831SOL    HW2 6710   0.923   3.727   7.403  0.7024  1.7682  1.3415
 1832SOL     OW 6711   0.592   3.007   5.730  0.4033  0.0071 -0.2903
 1832SOL    HW1 6712   0.622   2.933   5.677  1.5338  1.1021 -1.2602
 1832SOL    HW2 6713   0.512   3.036   5.687  0.1608 -0.4037 -0.1270
 1833SOL     OW 6714   0.267   2.832   7.251 -0.0560  0.1957 -0.3749
 1833SOL    HW1 6715   0.212   2.771   7.202  0.8227 -0.4447 -0.5928
 1833SOL    HW2 6716   0.231   2.832   7.339 -0.3935 -0.2280 -0.5131
 1834SOL     OW 6717   1.727   3.027   6.699  0.6189  0.2518 -0.5824
 1834SOL    HW1 6718   1.739   3.121   6.684 -1.7920  0.6916 -0.1190
 1834SOL    HW2 6719   1.632   3.015   6.703  0.8625 -2.2472 -0.7650
 1835SOL     OW 6720   1.233   2.953   5.935  0.2955  0.2774 -0.6780
 1835SOL    HW1 6721   1.162   2.972   5.874  0.3055  0.6272 -0.5825
 1835SOL    HW2 6722   1.308   2.932   5.880 -0.0478 -0.7429 -0.7822
 1836SOL     OW 6723   1.603   3.625   7.058 -0.4588  0.1863 -0.2638
 1836SOL    HW1 6724   1.670   3.661   6.999 -0.6062 -0.2662 -0.7161
 1836SOL    HW2 6725   1.595   3.533   7.032 -0.0783 -0.1915  0.8871
 1837SOL     OW 6726   1.307   3.648   6.744  0.5970 -0.7133 -0.4151
 1837SOL    HW1 6727   1.318   3.738   6.775 -0.8775 -0.4554 -0.5781
 1837SOL    HW2 6728   1.333   3.650   6.652 -0.1269 -0.2787 -0.6175
 1838SOL     OW 6729   0.268   3.557   6.678  0.1215 -0.4540  0.0233
 1838SOL    HW1 6730   0.316   3.627   6.635  0.7959 -1.3890 -0.8066
 1838SOL    HW2 6731   0.241   3.594   6.762 -1.7304  1.6168 -1.3991
 1839SOL     OW 6732   0.522   3.221   7.086  0.2595  0.1782  0.5719
 1839SOL    HW1 6733   0.490   3.132   7.092 -0.7078  0.3526 -1.2723
 1839SOL    HW2 6734   0.451   3.275   7.120 -0.2315  0.3750 -0.7078
 1840SOL     OW 6735   1.420   1.813   6.102  0.6983  0.4505 -0.3936
 1840SOL    HW1 6736   1.508   1.829   6.070  0.8261  0.0574 -0.2413
 1840SOL    HW2 6737   1.410   1.718   6.100  0.8523  0.3772  1.0937
 1841SOL     OW 6738   1.274   3.787   5.958  0.0180  0.2064 -0.4602
 1841SOL    HW1 6739   1.182   3.774   5.977 -0.8242  3.0734 -1.9531
 1841SOL    HW2 6740   1.276   3.816   5.867  2.4386 -0.0646 -0.5674
 1842SOL     OW 6741   8.551   3.763   7.768  0.5409 -0.1041  0.0216
 1842SOL    HW1 6742   8.490   3.720   7.828  0.5471  0.4224  0.4114
 1842SOL    HW2 6743   8.565   3.699   7.698  0.5094 -0.7204  0.5669
 1843SOL     OW 6744   1.561   3.392   6.086  0.0233 -0.3405  0.2351
 1843SOL    HW1 6745   1.485   3.374   6.141 -0.0965  0.2644  0.2731
 1843SOL    HW2 6746   1.544   3.479   6.049  0.5368 -0.3443 -0.0197
 1844SOL     OW 6747   0.814   3.285   7.350  0.4318  0.5420  0.0958
 1844SOL    HW1 6748   0.753   3.243   7.411  0.2367 -1.7542 -1.5176
 1844SOL    HW2 6749   0.809   3.378   7.370  0.6468 -0.1062  3.7592
 1845SOL     OW 6750   0.782   4.417   5.896 -0.5819  0.1523  0.3101
 1845SOL    HW1 6751   0.851   4.415   5.830  0.8384 -1.4547  1.7347
 1845SOL    HW2 6752   0.791   4.503   5.938 -0.8796  0.8040 -0.9197
 1846SOL     OW 6753   1.757   3.854   6.594  0.3927 -0.0728 -0.3022
 1846SOL    HW1 6754   1.812   3.928   6.568 -0.7429  1.3831  1.2914
 1846SOL    HW2 6755   1.668   3.888   6.589 -0.2105 -1.6081 -0.3258
 1847SOL     OW 6756   1.983   1.646   6.544 -0.1076 -0.8734  0.4549
 1847SOL    HW1 6757   1.913   1.590   6.575  0.5192 -1.6865  0.4405
 1847SOL    HW2 6758   1.963   1.732   6.580 -1.4203 -0.9531 -0.0431
 1848SOL     OW 6759   0.317   2.383   6.036  0.3357  0.5752  0.0607
 1848SOL    HW1 6760   0.360   2.458   5.994  1.6026 -1.0263 -1.6914
 1848SOL    HW2 6761   0.228   2.413   6.053  0.7435  2.4095 -0.7327
 1849SOL     OW 6762   1.587   3.434   5.771  0.0743 -0.5202 -0.0173
 1849SOL    HW1 6763   1.629   3.506   5.819  0.8621 -1.1287  0.2176
 1849SOL    HW2 6764   1.501   3.469   5.748  0.9612  1.0285 -1.1481
 1850SOL     OW 6765   0.923   2.408   7.026  0.3643  0.7187 -0.0984
 1850SOL    HW1 6766   0.895   2.380   7.113  1.1544  0.9181  0.2369
 1850SOL    HW2 6767   0.843   2.410   6.974  0.3228 -3.2325 -0.4953
 1851SOL     OW 6768   1.036   2.622   5.919  0.2195 -0.1782  0.4906
 1851SOL    HW1 6769   0.966   2.576   5.965  0.3112 -0.1237  0.6849
 1851SOL    HW2 6770   0.996   2.704   5.890 -0.0529 -0.5349 -0.1844
 1852SOL     OW 6771   1.733   3.704   5.856 -0.0374 -0.0481 -0.0315
 1852SOL    HW1 6772   1.812   3.704   5.910 -0.1518  1.3521  0.1689
 1852SOL    HW2 6773   1.708   3.796   5.850 -1.2391 -0.3989 -0.7097
 1853SOL     OW 6774   0.716   3.334   6.939 -0.1126 -0.1911  0.0087
 1853SOL    HW1 6775   0.645   3.296   6.990 -0.3213 -0.9604 -0.8316
 1853SOL    HW2 6776   0.720   3.281   6.860  1.1418  0.0822 -0.1346
 1854SOL     OW 6777   2.003   3.022   6.881  0.7488  0.2957  0.4562
 1854SOL    HW1 6778   2.082   2.974   6.857  0.9170 -1.0236  3.2624
 1854SOL    HW2 6779   1.931   2.969   6.848  0.9940  0.5158 -0.4462
 1855SOL     OW 6780   1.016   3.105   6.629  0.1839  0.2246 -0.2082
 1855SOL    HW1 6781   1.016   3.041   6.700  1.3407 -1.4071 -1.5941
 1855SOL    HW2 6782   1.107   3.133   6.622  0.1569  0.0747 -1.2865
 1856SOL     OW 6783   1.062   2.193   6.508  0.6219 -0.5035  0.3367
 1856SOL    HW1 6784   1.045   2.100   6.522 -1.2402 -0.2700 -0.1494
 1856SOL    HW2 6785   1.053   2.232   6.595 -3.9328 -0.0808 -0.1064
 1857SOL     OW 6786   0.845   3.575   6.046  0.1395  0.3811 -0.0709
 1857SOL    HW1 6787   0.764   3.598   6.001  0.9493  2.8479 -0.4236
 1857SOL    HW2 6788   0.831   3.600   6.137  0.2954  0.2570 -0.0108
 1858SOL     OW 6789   2.056   2.033   6.946  0.6232 -0.3801 -0.3955
 1858SOL    HW1 6790   2.085   1.943   6.931 -0.7277 -0.9143  0.0356
 1858SOL    HW2 6791   2.136   2.085   6.943  1.6184 -1.7706  0.7435
 1859SOL     OW 6792   0.054   3.713   5.872  0.1824  0.0935  0.2012
 1859SOL    HW1 6793   0.130   3.763   5.903 -0.8185  2.0333 -0.3575
 1859SOL    HW2 6794  -0.015   3.731   5.935 -0.5193  0.3353 -0.6157
 1860SOL     OW 6795   8.419   2.322   7.826 -0.2482 -0.4879 -0.2258
 1860SOL    HW1 6796   8.468   2.241   7.813  1.7840  0.5309  0.6449
 1860SOL    HW2 6797   8.403   2.355   7.738  1.8197 -0.2202 -0.5487
 1861SOL     OW 6798   0.755   2.005   6.883  0.2125 -0.7621 -0.0776
 1861SOL    HW1 6799   0.715   2.063   6.819 -0.4443 -1.4145 -0.2699
 1861SOL    HW2 6800   0.843   2.041   6.896  1.2938 -1.9156 -3.1249
 1862SOL     OW 6801   0.168   2.079   5.774 -0.2221 -0.3846 -0.4926
 1862SOL    HW1 6802   0.120   2.077   5.692  0.4301 -1.7598 -0.8715
 1862SOL    HW2 6803   0.199   1.989   5.786 -1.4098 -0.5598  1.9247
 1863SOL     OW 6804   1.617   2.633   6.966  0.2025 -0.0388  0.3925
 1863SOL    HW1 6805   1.648   2.544   6.984 -2.3422 -1.2331 -0.5254
 1863SOL    HW2 6806   1.611   2.674   7.053  1.0318 -0.8994  0.8788
 1864SOL     OW 6807   8.515   1.955   5.588 -0.3653  0.3203  0.1405
 1864SOL    HW1 6808   8.482   1.872   5.554 -0.0261  0.2005  0.1080
 1864SOL    HW2 6809   8.586   1.930   5.646 -0.8637  0.5286  0.8527
 1865SOL     OW 6810   1.217   3.263   5.769  0.1911 -0.7227  0.1156
 1865SOL    HW1 6811   1.301   3.223   5.749 -0.1319 -0.1285 -2.8468
 1865SOL    HW2 6812   1.237   3.324   5.841  2.9637  1.2884 -2.0917
 1866SOL     OW 6813   0.545   2.412   7.019  0.4478 -0.4100 -0.2706
 1866SOL    HW1 6814   0.564   2.353   6.946 -0.4504 -0.2014 -0.6784
 1866SOL    HW2 6815   0.567   2.360   7.097 -0.2221 -1.2523 -0.6276
 1867SOL     OW 6816   1.327   3.958   6.765 -0.5364  0.0903 -0.1296
 1867SOL    HW1 6817   1.274   4.034   6.741 -0.0256  0.3939 -0.3196
 1867SOL    HW2 6818   1.417   3.985   6.747 -0.3001 -0.3546  0.3494
 1868SOL     OW 6819   0.337   2.414   7.413  0.1404 -0.5940 -0.3769
 1868SOL    HW1 6820   0.336   2.402   7.507 -1.3427  0.9037 -0.1606
 1868SOL    HW2 6821   0.401   2.484   7.398  1.0710 -1.4687 -0.6023
 1869SOL     OW 6822   1.806   3.307   7.181 -0.2458 -0.3367 -0.2930
 1869SOL    HW1 6823   1.834   3.306   7.090 -0.9961 -0.0688 -0.5318
 1869SOL    HW2 6824   1.852   3.233   7.221  2.7652  1.4927 -0.0457
 1870SOL     OW 6825   0.545   3.803   7.202  0.3061  0.2049 -0.2758
 1870SOL    HW1 6826   0.604   3.862   7.154  1.7535 -0.2940  0.8103
 1870SOL    HW2 6827   0.559   3.717   7.162  0.9713 -0.0724  0.5237
 1871SOL     OW 6828   1.706   2.597   6.584  0.4689 -0.6422  0.3636
 1871SOL    HW1 6829   1.722   2.512   6.625  1.6461 -0.4905  0.2756
 1871SOL    HW2 6830   1.791   2.622   6.548 -0.5940 -1.0897 -2.7895
 1872SOL     OW 6831   0.775   2.644   6.216  0.0594  0.1759 -0.1900
 1872SOL    HW1 6832   0.752   2.643   6.309  0.1011 -0.7309 -0.1852
 1872SOL    HW2 6833   0.870   2.656   6.216  0.0406  0.3304 -0.1219
 1873SOL     OW 6834   0.447   2.594   6.580 -0.1229  0.8025 -0.2622
 1873SOL    HW1 6835   0.392   2.521   6.549 -1.4348  0.8404  1.7933
 1873SOL    HW2 6836   0.407   2.672   6.541  1.3341  0.5174 -2.5387
 1874SOL     OW 6837   1.480   2.067   6.650 -0.5568  0.0970  0.4532
 1874SOL    HW1 6838   1.544   2.070   6.579 -0.0685 -0.9292  0.8362
 1874SOL    HW2 6839   1.492   2.150   6.697 -0.7974  0.7257 -0.5612
 1875SOL     OW 6840   1.836   2.789   6.793 -0.5280  0.1042  0.3883
 1875SOL    HW1 6841   1.785   2.855   6.746  1.1178  0.5914 -0.8090
 1875SOL    HW2 6842   1.829   2.710   6.740 -0.2931  0.0879  0.3803
 1876SOL     OW 6843   1.021   3.814   6.110  0.1416  0.2446  0.2972
 1876SOL    HW1 6844   0.985   3.897   6.080  0.6515  0.2419 -0.3369
 1876SOL    HW2 6845   0.945   3.756   6.118 -0.0204  0.2798 -0.8764
 1877SOL     OW 6846   0.994   3.247   7.003  0.5168 -0.1435  0.6617
 1877SOL    HW1 6847   0.965   3.276   6.917 -0.8095  1.3449  1.5475
 1877SOL    HW2 6848   0.919   3.200   7.039  1.8537 -2.8171  0.1622
 1878SOL     OW 6849   1.255   3.120   6.469  0.5535  0.3352 -0.0216
 1878SOL    HW1 6850   1.328   3.084   6.420  1.6616  0.6484  1.3444
 1878SOL    HW2 6851   1.285   3.205   6.500 -1.6322  2.0850 -2.2681
 1879SOL     OW 6852   1.251   2.487   5.806 -0.0395 -0.3000  0.3795
 1879SOL    HW1 6853   1.190   2.548   5.847 -1.3623 -0.6930 -0.9251
 1879SOL    HW2 6854   1.323   2.541   5.775 -0.9667  0.5586 -0.3409
 1880SOL     OW 6855   1.176   4.148   6.674 -0.2955  0.7186  0.8088
 1880SOL    HW1 6856   1.212   4.226   6.716 -1.7725  1.3849  0.8754
 1880SOL    HW2 6857   1.216   4.148   6.586  2.3406 -0.3524  1.8921
 1881SOL     OW 6858   8.827   3.349   7.550 -0.1004  0.3056  0.0147
 1881SOL    HW1 6859   8.751   3.310   7.508 -0.6923  0.6472  0.7325
 1881SOL    HW2 6860   8.827   3.312   7.639  2.1053 -1.7343 -0.7330
 1882SOL     OW 6861   8.597   3.613   6.364 -0.7565  0.3456  0.1842
 1882SOL    HW1 6862   8.675   3.669   6.364 -2.1522  2.3841  0.6993
 1882SOL    HW2 6863   8.611   3.553   6.291  1.0387  1.0326 -0.0892
 1883SOL     OW 6864   0.478   2.957   7.124 -0.2298 -0.4591 -0.0234
 1883SOL    HW1 6865   0.417   2.907   7.179  1.6912 -2.1092  0.7316
 1883SOL    HW2 6866   0.527   2.890   7.076 -2.0207  0.8614 -4.2039
 1884SOL     OW 6867   2.258   1.813   6.876 -0.3690  0.2038 -0.0145
 1884SOL    HW1 6868   2.283   1.728   6.840 -0.0713 -0.0259  0.7115
 1884SOL    HW2 6869   2.274   1.875   6.805  1.9735  0.0296  0.2817
 1885SOL     OW 6870   0.870   2.840   5.975 -0.3600  0.0713  0.2570
 1885SOL    HW1 6871   0.940   2.854   6.040  0.8140 -0.9580 -0.7329
 1885SOL    HW2 6872   0.857   2.927   5.936  0.7707  0.1929  0.0961
 1886SOL     OW 6873   1.731   3.300   6.642  0.5609 -0.4737 -0.4508
 1886SOL    HW1 6874   1.655   3.308   6.584 -1.4802  0.4344  2.1334
 1886SOL    HW2 6875   1.784   3.378   6.624 -0.8612  0.6161 -0.0748
 1887SOL     OW 6876   0.586   2.242   6.806 -0.4671 -0.5147 -0.1627
 1887SOL    HW1 6877   0.523   2.261   6.737 -0.8691 -0.6401  0.1600
 1887SOL    HW2 6878   0.671   2.247   6.764 -0.6877 -0.2306 -0.5824
 1888SOL     OW 6879   0.477   3.672   6.188  0.0558  0.5653 -1.2049
 1888SOL    HW1 6880   0.562   3.687   6.146 -0.1222  0.6847 -1.5293
 1888SOL    HW2 6881   0.497   3.618   6.264  0.5170  1.2397 -0.8402
 1889SOL     OW 6882   1.470   1.620   6.777  0.1405  0.3699 -0.5089
 1889SOL    HW1 6883   1.521   1.690   6.739 -0.9053  1.9485  0.8535
 1889SOL    HW2 6884   1.530   1.576   6.837  1.6203 -1.7621 -3.3213
 1890SOL     OW 6885   1.321   1.788   6.944 -0.1072  0.1952 -0.6681
 1890SOL    HW1 6886   1.356   1.727   6.879 -3.3787 -1.1405 -1.3751
 1890SOL    HW2 6887   1.282   1.731   7.011  0.2015  1.5705  0.7372
 1891SOL     OW 6888   0.710   3.539   5.738 -0.1374  0.1096 -0.3906
 1891SOL    HW1 6889   0.686   3.581   5.655  2.3830 -0.6248 -1.5975
 1891SOL    HW2 6890   0.706   3.445   5.719  0.5342 -0.0661  0.3083
 1892SOL     OW 6891   1.127   3.759   7.138  0.1780  0.2152  0.4465
 1892SOL    HW1 6892   1.116   3.666   7.116 -0.4296  0.3880  0.0046
 1892SOL    HW2 6893   1.072   3.771   7.216 -0.6588  0.4621 -0.1736
 1893SOL     OW 6894   1.269   1.944   6.406 -0.2741  0.6030 -0.3671
 1893SOL    HW1 6895   1.310   2.029   6.424 -0.6474  0.2374  2.9310
 1893SOL    HW2 6896   1.189   1.945   6.459 -0.6266 -1.5513 -0.7845
 1894SOL     OW 6897   0.887   2.925   6.468  0.3008  0.0283  0.0249
 1894SOL    HW1 6898   0.839   2.956   6.391 -1.0558 -0.3987  0.6733
 1894SOL    HW2 6899   0.883   2.997   6.530 -1.5094 -0.7807  0.9349
 1895SOL     OW 6900   1.919   1.911   6.638  0.0605  0.4727  0.7678
 1895SOL    HW1 6901   1.900   1.965   6.561 -0.3197 -1.1648 -0.3388
 1895SOL    HW2 6902   1.950   1.973   6.703 -0.2934  2.0179 -0.4609
 1896SOL     OW 6903   8.707   3.185   5.720  0.1525 -0.4810 -0.2834
 1896SOL    HW1 6904   8.786   3.224   5.681  1.1732 -1.6715  0.5007
 1896SOL    HW2 6905   8.707   3.216   5.810 -0.4758 -0.2287 -0.3660
 1897SOL     OW 6906   0.823   3.903   5.860  0.0868  0.4893  0.0816
 1897SOL    HW1 6907   0.875   3.983   5.860 -0.1851  0.7524  2.6446
 1897SOL    HW2 6908   0.756   3.918   5.793  1.3727  1.4462 -1.0367
 1898SOL     OW 6909   8.753   2.594   7.785  0.2630  0.4694  0.1152
 1898SOL    HW1 6910   8.676   2.546   7.816 -0.4377  0.0605 -2.0864
 1898SOL    HW2 6911   8.718   2.655   7.720  1.6561  1.0925 -0.0723
 1899SOL     OW 6912   0.187   1.970   7.891 -0.2056 -0.0403 -0.6798
 1899SOL    HW1 6913   0.262   2.027   7.902 -0.1790 -0.2859  0.5454
 1899SOL    HW2 6914   0.204   1.895   7.949 -0.3220 -1.2169 -2.0989
 1900SOL     OW 6915   0.637   2.271   7.626 -0.1894  0.3053 -0.2863
 1900SOL    HW1 6916   0.557   2.223   7.607 -0.5382  0.4927  0.6794
 1900SOL    HW2 6917   0.697   2.204   7.660  0.4863 -0.0590 -2.0428
 1901SOL     OW 6918   0.738   3.154   8.783 -0.0777  0.6468 -0.0060
 1901SOL    HW1 6919   0.808   3.128   8.842 -1.2369 -1.8401  0.3905
 1901SOL    HW2 6920   0.689   3.220   8.831 -0.2009 -0.3489  1.2930
 1902SOL     OW 6921   1.430   3.746   8.256  0.1972  0.4182 -0.3323
 1902SOL    HW1 6922   1.479   3.827   8.274  0.5389 -0.0504  0.9383
 1902SOL    HW2 6923   1.341   3.776   8.236  0.2052  1.0932  0.5748
 1903SOL     OW 6924   1.133   2.492   7.994  0.4804  0.0352 -0.1926
 1903SOL    HW1 6925   1.114   2.527   7.907  0.8265  0.7112 -0.0005
 1903SOL    HW2 6926   1.058   2.436   8.014  1.0078 -1.2082 -1.4790
 1904SOL     OW 6927   1.666   2.493   7.881 -0.0110 -0.2947 -0.0375
 1904SOL    HW1 6928   1.618   2.538   7.950 -1.0156  0.4320 -1.1703
 1904SOL    HW2 6929   1.598   2.454   7.826  0.6659  0.6691 -1.6353
 1905SOL     OW 6930   0.267   2.883   8.421 -0.0770 -0.0212  0.1532
 1905SOL    HW1 6931   0.273   2.865   8.514 -0.6508 -0.8635  0.0336
 1905SOL    HW2 6932   0.201   2.822   8.388 -1.0807  1.3556 -0.5107
 1906SOL     OW 6933   0.448   2.587   8.321  0.8059  0.0657 -0.8576
 1906SOL    HW1 6934   0.368   2.558   8.277  1.7118 -2.3065 -1.1031
 1906SOL    HW2 6935   0.432   2.679   8.342 -1.7020 -0.1529 -1.4820
 1907SOL     OW 6936   0.136   3.086   8.294 -0.3354 -0.0780  0.2520
 1907SOL    HW1 6937   0.192   3.023   8.340 -0.8687  0.0371  1.0872
 1907SOL    HW2 6938   0.113   3.042   8.212  1.1320 -0.0462 -0.2087
 1908SOL     OW 6939   0.252   2.151   8.409 -0.4205  0.0352 -0.6108
 1908SOL    HW1 6940   0.328   2.209   8.401  1.7933 -2.5561  0.2089
 1908SOL    HW2 6941   0.262   2.088   8.339 -2.1242 -0.1370 -0.7533
 1909SOL     OW 6942   1.510   2.147   8.683  0.1082 -0.7346 -0.1236
 1909SOL    HW1 6943   1.471   2.164   8.769  0.1579 -1.5653  0.0757
 1909SOL    HW2 6944   1.481   2.059   8.661  0.2466 -0.5952 -0.8817
 1910SOL     OW 6945   0.482   3.720   8.204  0.4860  0.1793  0.4429
 1910SOL    HW1 6946   0.488   3.666   8.283  0.8578  0.4036  0.5675
 1910SOL    HW2 6947   0.472   3.657   8.133  2.9287 -0.2013  0.3457
 1911SOL     OW 6948   0.424   3.580   7.978  0.2779  0.1687  0.5897
 1911SOL    HW1 6949   0.340   3.547   7.946  0.7242 -2.0590  1.5277
 1911SOL    HW2 6950   0.481   3.576   7.902  0.3700 -1.5492  0.7095
 1912SOL     OW 6951   0.048   2.744   8.355 -0.6445 -0.2567 -0.2275
 1912SOL    HW1 6952  -0.019   2.675   8.352 -1.0504  0.1595 -1.6057
 1912SOL    HW2 6953   0.027   2.800   8.280  1.2588 -0.1144 -0.6985
 1913SOL     OW 6954   0.495   3.524   0.302 -0.4469  0.8020  0.8417
 1913SOL    HW1 6955   0.533   3.465   0.367  0.0681  2.2430  1.9035
 1913SOL    HW2 6956   0.401   3.523   0.319 -0.3998  0.5670  1.0813
 1914SOL     OW 6957   0.309   2.685   7.989 -0.6028  0.1981  0.0206
 1914SOL    HW1 6958   0.263   2.656   8.068 -0.6100  1.7921  0.6517
 1914SOL    HW2 6959   0.249   2.663   7.917 -0.6480 -1.1735  0.4438
 1915SOL     OW 6960   0.085   2.246   7.797 -0.2777 -0.3245 -0.3130
 1915SOL    HW1 6961  -0.008   2.231   7.778  0.0020 -1.0453 -1.2133
 1915SOL    HW2 6962   0.113   2.168   7.844 -0.3532  0.3392  0.8585
 1916SOL     OW 6963   1.849   3.451   7.683  0.1250 -0.0873  0.0772
 1916SOL    HW1 6964   1.907   3.523   7.708 -0.1702  0.4924 -0.8301
 1916SOL    HW2 6965   1.801   3.485   7.607 -3.1194  0.4013  2.1244
 1917SOL     OW 6966   0.343   3.426   7.156 -0.2030  0.0996 -0.1462
 1917SOL    HW1 6967   0.327   3.519   7.169 -1.4892  0.2864 -2.4406
 1917SOL    HW2 6968   0.256   3.387   7.152  0.3257 -1.4368  1.8677
 1918SOL     OW 6969   1.992   3.115   8.036 -0.3746 -0.3621  0.0433
 1918SOL    HW1 6970   1.979   3.055   8.109 -0.8480  0.5214  0.7068
 1918SOL    HW2 6971   2.021   3.060   7.964 -0.3787 -1.3173  0.7603
 1919SOL     OW 6972   2.260   3.376   7.582  0.0623  0.2791  0.1859
 1919SOL    HW1 6973   2.304   3.332   7.510  2.3313 -0.5942  1.9996
 1919SOL    HW2 6974   2.305   3.460   7.591 -1.0558  0.9524 -0.1597
 1920SOL     OW 6975   0.472   2.941   8.233 -0.1490 -0.4912  0.0376
 1920SOL    HW1 6976   0.400   2.923   8.293  0.0257  2.5472  1.3784
 1920SOL    HW2 6977   0.430   2.983   8.158 -0.0659 -1.6927 -0.7021
 1921SOL     OW 6978   0.949   1.856   7.491 -0.9877  0.0021  0.0538
 1921SOL    HW1 6979   1.028   1.878   7.539 -1.6389  0.9373  0.7454
 1921SOL    HW2 6980   0.978   1.797   7.421  0.1924 -0.2103  0.7104
 1922SOL     OW 6981   0.064   2.906   8.594 -0.3218  0.1739  0.3039
 1922SOL    HW1 6982   0.082   2.990   8.552 -0.2317  0.2794  0.5501
 1922SOL    HW2 6983   0.022   2.853   8.526 -0.0619  0.2997  0.0471
 1923SOL     OW 6984   1.698   2.979   7.830  0.1678  0.2943  0.0594
 1923SOL    HW1 6985   1.673   2.910   7.768  0.7649  1.2157 -1.2662
 1923SOL    HW2 6986   1.620   2.993   7.883 -0.2388 -0.8075 -0.2161
 1924SOL     OW 6987   2.054   3.718   8.064  0.3206 -0.3822 -0.3176
 1924SOL    HW1 6988   2.051   3.813   8.058  0.5732 -0.2510  1.2391
 1924SOL    HW2 6989   2.121   3.692   8.000 -0.0627  0.4263 -1.0729
 1925SOL     OW 6990   1.446   3.965   8.049 -0.3091 -0.0074  0.3030
 1925SOL    HW1 6991   1.356   3.933   8.041 -0.5000  0.0721  1.8917
 1925SOL    HW2 6992   1.448   4.008   8.134 -0.1039  4.3498 -1.6384
 1926SOL     OW 6993   0.500   2.836   7.604 -0.0575  0.1737 -0.0010
 1926SOL    HW1 6994   0.487   2.859   7.696  0.6686  0.3250  0.0708
 1926SOL    HW2 6995   0.488   2.918   7.556 -0.4314  0.0956 -0.0452
 1927SOL     OW 6996   1.152   2.084   8.548 -0.0924 -0.0368 -0.0245
 1927SOL    HW1 6997   1.125   2.150   8.485  1.4904  0.4920 -0.2099
 1927SOL    HW2 6998   1.248   2.088   8.547  0.0617 -2.2411  0.0394
 1928SOL     OW 6999   1.754   3.317   7.939 -0.4273  0.4702 -0.3273
 1928SOL    HW1 7000   1.815   3.244   7.945 -0.1650  0.7451  0.5718
 1928SOL    HW2 7001   1.774   3.360   7.856 -1.0421 -0.8653 -1.2044
 1929SOL     OW 7002   0.176   2.293   0.363 -0.0779 -0.4414  0.0069
 1929SOL    HW1 7003   0.119   2.319   0.290 -1.1280  0.9088  1.2379
 1929SOL    HW2 7004   0.118   2.293   0.439  1.3028 -0.3528  1.0866
 1930SOL     OW 7005   0.858   2.334   0.033 -0.0976  0.3074  0.4000
 1930SOL    HW1 7006   0.793   2.404   0.019  0.3617  0.4096 -1.3769
 1930SOL    HW2 7007   0.819   2.279   0.101 -2.0972  0.3279 -0.6590
 1931SOL     OW 7008   1.103   2.583   7.446 -0.1523 -0.8626  0.0069
 1931SOL    HW1 7009   1.029   2.540   7.489  0.9261 -0.9400  1.9379
 1931SOL    HW2 7010   1.072   2.671   7.426 -0.9050 -1.0375  0.3722
 1932SOL     OW 7011   8.485   2.196   8.377 -0.2270  0.5150  0.1000
 1932SOL    HW1 7012   8.471   2.141   8.300  1.2473  0.3833 -0.0945
 1932SOL    HW2 7013   8.563   2.161   8.419 -1.4050  0.1090  2.1155
 1933SOL     OW 7014   8.816   3.447   0.342  0.0393  0.2482  0.1985
 1933SOL    HW1 7015   8.758   3.378   0.309 -0.3430  0.0983  1.1668
 1933SOL    HW2 7016   8.792   3.525   0.292 -0.6577  0.0657  0.2404
 1934SOL     OW 7017   1.139   2.253   7.615  0.3585 -0.3370  0.2537
 1934SOL    HW1 7018   1.194   2.231   7.690  1.0704  0.3116 -0.0546
 1934SOL    HW2 7019   1.178   2.205   7.542 -1.1133 -2.0223  0.5012
 1935SOL     OW 7020   1.497   3.013   8.080  0.7792 -0.0359 -0.1840
 1935SOL    HW1 7021   1.469   3.098   8.046 -0.3107 -0.0287  0.6880
 1935SOL    HW2 7022   1.422   2.956   8.067  1.1250 -0.5951  0.2249
 1936SOL     OW 7023   0.751   1.855   8.058 -0.2421 -0.0833  0.5856
 1936SOL    HW1 7024   0.761   1.832   8.150  1.5120 -3.2810 -0.2269
 1936SOL    HW2 7025   0.809   1.930   8.046 -1.9933  1.6506  2.4019
 1937SOL     OW 7026   1.048   3.180   8.003 -0.2811 -0.1098 -0.2689
 1937SOL    HW1 7027   1.092   3.219   7.928 -1.3761  0.5922 -0.5753
 1937SOL    HW2 7028   0.955   3.179   7.978 -0.3166 -3.0456 -0.3323
 1938SOL     OW 7029   0.368   3.477   8.688 -0.0265 -0.4618  0.5969
 1938SOL    HW1 7030   0.453   3.486   8.731 -0.3037 -1.9734  1.5369
 1938SOL    HW2 7031   0.327   3.563   8.698  1.7220  0.6319 -0.7494
 1939SOL     OW 7032   2.045   3.258   8.339  0.5139  0.0869  0.4798
 1939SOL    HW1 7033   2.003   3.172   8.333 -1.3939  0.9319  1.0883
 1939SOL    HW2 7034   2.082   3.272   8.252 -0.8054 -0.5417 -0.2061
 1940SOL     OW 7035   8.519   2.534   7.930 -0.6118 -0.2410 -0.1608
 1940SOL    HW1 7036   8.477   2.460   7.886  1.5016 -1.6939  0.1147
 1940SOL    HW2 7037   8.455   2.563   7.994 -1.2751 -2.2976  0.1912
 1941SOL     OW 7038   1.660   2.824   8.193  0.1018  0.3226 -0.5871
 1941SOL    HW1 7039   1.591   2.882   8.161  0.3653  0.2854 -1.2394
 1941SOL    HW2 7040   1.687   2.862   8.276 -0.7161  0.3229 -0.3109
 1942SOL     OW 7041   1.113   3.066   7.657 -0.2908  0.0028 -0.7417
 1942SOL    HW1 7042   1.126   3.147   7.705 -0.0977 -1.3962  1.7335
 1942SOL    HW2 7043   1.132   3.088   7.566 -0.1738  2.6774 -0.1323
 1943SOL     OW 7044   1.950   3.126   7.329 -0.4829 -0.4743 -0.0012
 1943SOL    HW1 7045   1.972   3.165   7.414  0.7515 -0.5071 -0.2902
 1943SOL    HW2 7046   1.867   3.080   7.345 -0.6477  0.1297  0.9906
 1944SOL     OW 7047   0.442   3.608   7.522  0.2050  0.4863 -0.5681
 1944SOL    HW1 7048   0.366   3.551   7.512  1.1783 -0.7028 -1.4644
 1944SOL    HW2 7049   0.501   3.562   7.581 -0.3556  2.0952  1.3746
 1945SOL     OW 7050   1.900   2.039   8.164 -0.1364 -0.0058  0.2436
 1945SOL    HW1 7051   1.963   2.110   8.176  0.2796 -0.5750  1.5321
 1945SOL    HW2 7052   1.951   1.959   8.170 -1.1526 -0.5588  3.1878
 1946SOL     OW 7053   8.396   3.377   8.439 -0.4894 -0.1235  0.1118
 1946SOL    HW1 7054   8.479   3.388   8.486 -0.0102 -2.8211  0.0409
 1946SOL    HW2 7055   8.331   3.362   8.508 -0.5355 -0.1019  0.0735
 1947SOL     OW 7056   1.000   3.444   8.232  0.3206 -0.1060 -0.2053
 1947SOL    HW1 7057   1.000   3.539   8.248  0.5161 -0.3214  1.1775
 1947SOL    HW2 7058   1.057   3.433   8.156  1.7387  0.7427  0.6789
 1948SOL     OW 7059   0.442   2.441   7.912  0.4635  0.0077 -0.6146
 1948SOL    HW1 7060   0.440   2.530   7.946  1.6658 -0.0761 -0.2672
 1948SOL    HW2 7061   0.425   2.385   7.988 -1.3749 -0.0574 -1.0244
 1949SOL     OW 7062   0.646   1.830   7.361 -0.2442  0.3226  0.8902
 1949SOL    HW1 7063   0.683   1.799   7.279  0.0613  1.1785  0.6894
 1949SOL    HW2 7064   0.560   1.865   7.337 -0.1160  0.6598  0.9079
 1950SOL     OW 7065   0.843   3.385   8.485 -0.0027 -0.8471 -0.2408
 1950SOL    HW1 7066   0.866   3.417   8.398 -1.8500 -0.8657 -0.7809
 1950SOL    HW2 7067   0.872   3.294   8.485 -0.9154 -1.1584 -1.2497
 1951SOL     OW 7068   0.706   2.656   8.055  0.2170 -0.4204 -0.4018
 1951SOL    HW1 7069   0.801   2.646   8.048  0.4709  1.7620 -0.9243
 1951SOL    HW2 7070   0.688   2.657   8.149  0.8888  0.2443 -0.2664
 1952SOL     OW 7071   1.043   2.344   8.683  0.1217 -1.0628  0.5916
 1952SOL    HW1 7072   1.056   2.251   8.702 -0.8529 -1.3818 -0.2207
 1952SOL    HW2 7073   1.016   2.382   8.766 -2.3532 -2.0872  0.3190
 1953SOL     OW 7074   0.796   2.089   7.730 -0.2006 -0.0853  0.4239
 1953SOL    HW1 7075   0.856   2.133   7.790  0.4094  0.1034 -0.3076
 1953SOL    HW2 7076   0.801   1.997   7.754 -0.3016  0.0420  0.9478
 1954SOL     OW 7077   1.474   3.164   7.570 -0.2491  0.0666  0.3318
 1954SOL    HW1 7078   1.568   3.150   7.566 -0.0569  0.8182  1.6226
 1954SOL    HW2 7079   1.436   3.077   7.573  0.5015 -0.2460  1.2979
 1955SOL     OW 7080   0.409   2.127   7.574  0.4108 -0.1863 -0.5797
 1955SOL    HW1 7081   0.379   2.085   7.494 -0.8776 -1.4508  0.4990
 1955SOL    HW2 7082   0.335   2.180   7.603  1.1194  0.8361 -0.5740
 1956SOL     OW 7083   1.768   2.036   7.919  0.5181  0.1705 -0.0271
 1956SOL    HW1 7084   1.810   2.003   7.998 -1.3240  0.6718  1.2301
 1956SOL    HW2 7085   1.801   2.126   7.910 -2.2075  1.5943  2.5738
 1957SOL     OW 7086   0.982   3.688   8.319 -0.3868  0.1573  0.7362
 1957SOL    HW1 7087   0.977   3.720   8.409  0.1486  0.0566  0.8027
 1957SOL    HW2 7088   0.984   3.768   8.265 -3.0537  0.2538  0.6474
 1958SOL     OW 7089   0.098   2.976   7.870 -0.8073  0.5368 -0.2210
 1958SOL    HW1 7090   0.176   2.991   7.923 -0.5433  1.1833 -0.7794
 1958SOL    HW2 7091   0.122   3.008   7.783 -0.1783 -3.0592 -1.5770
 1959SOL     OW 7092   1.214   3.541   8.084  0.1832 -0.1485  0.0389
 1959SOL    HW1 7093   1.266   3.511   8.009 -0.4738  1.5385 -1.1822
 1959SOL    HW2 7094   1.276   3.586   8.140  0.3454  0.4403 -0.5939
 1960SOL     OW 7095   0.542   2.091   7.167  0.3021 -0.3740  0.0786
 1960SOL    HW1 7096   0.606   2.139   7.220 -1.8998  1.6415  1.1342
 1960SOL    HW2 7097   0.579   2.092   7.078  2.2987 -0.4628  0.8590
 1961SOL     OW 7098   0.558   2.028   8.392  0.1918 -0.1195 -0.5656
 1961SOL    HW1 7099   0.539   2.117   8.420  0.6453 -0.5337  1.1791
 1961SOL    HW2 7100   0.618   2.039   8.318 -0.4646  1.0206 -0.9499
 1962SOL     OW 7101   0.863   2.400   7.988  0.1928 -0.6614  0.4009
 1962SOL    HW1 7102   0.837   2.442   7.906  0.7956 -1.5645 -0.2821
 1962SOL    HW2 7103   0.790   2.415   8.048 -0.3291 -0.1288 -0.3534
 1963SOL     OW 7104   1.123   1.688   7.780 -0.1203 -0.0730 -0.1973
 1963SOL    HW1 7105   1.179   1.738   7.720 -0.5429  0.5022 -0.1125
 1963SOL    HW2 7106   1.182   1.662   7.852  0.1707  0.0222 -0.4006
 1964SOL     OW 7107   1.483   3.079   8.383  0.2321 -0.0431  0.4190
 1964SOL    HW1 7108   1.458   3.163   8.421  1.5028 -0.3435  2.0477
 1964SOL    HW2 7109   1.506   3.100   8.292 -1.7192  0.9212  0.0875
 1965SOL     OW 7110   1.327   2.790   7.967 -0.0919 -0.1121  0.2693
 1965SOL    HW1 7111   1.334   2.702   8.004 -0.4545  0.3509  1.5022
 1965SOL    HW2 7112   1.300   2.776   7.876  0.2789 -1.2805  0.3296
 1966SOL     OW 7113   1.548   2.600   8.095 -0.0378 -0.5104 -0.1178
 1966SOL    HW1 7114   1.517   2.544   8.166 -1.1494  0.3640  0.0989
 1966SOL    HW2 7115   1.595   2.671   8.138 -0.3204 -0.2214 -0.2877
 1967SOL     OW 7116   0.555   3.217   7.514 -0.4382  0.2768 -0.0652
 1967SOL    HW1 7117   0.474   3.220   7.463 -1.2178  0.0293  1.0979
 1967SOL    HW2 7118   0.542   3.282   7.583  0.1018 -0.1874  0.4813
 1968SOL     OW 7119   1.671   3.433   8.153  0.5062  0.0211 -0.0703
 1968SOL    HW1 7120   1.706   3.397   8.071 -2.5805  0.9576 -1.9873
 1968SOL    HW2 7121   1.594   3.378   8.172  2.1336 -1.3602  3.3845
 1969SOL     OW 7122   1.469   2.384   7.727 -0.1905  0.5432 -0.3915
 1969SOL    HW1 7123   1.394   2.342   7.770 -0.6486  1.4526 -0.2922
 1969SOL    HW2 7124   1.446   2.385   7.635  0.2072 -0.1916 -0.5112
 1970SOL     OW 7125   0.517   1.879   7.643 -0.0219  0.6867 -0.1095
 1970SOL    HW1 7126   0.491   1.969   7.660  0.2791  0.2782  3.1455
 1970SOL    HW2 7127   0.445   1.842   7.591 -1.0903  2.2670  0.1885
 1971SOL     OW 7128   1.457   2.918   0.180 -0.3594 -0.0257  0.3042
 1971SOL    HW1 7129   1.535   2.876   0.217  0.5004  1.6007  0.4025
 1971SOL    HW2 7130   1.472   2.918   0.086  0.2011  1.1235  0.3892
 1972SOL     OW 7131   0.910   2.940   8.285 -0.6701  0.0345 -0.5681
 1972SOL    HW1 7132   0.978   2.915   8.221  0.9714  0.9029  0.7536
 1972SOL    HW2 7133   0.876   2.857   8.317 -1.0499 -0.4170 -2.0622
 1973SOL     OW 7134   1.707   2.925   8.472 -0.0246  0.0390  0.2544
 1973SOL    HW1 7135   1.745   3.002   8.513  0.2225  0.1589 -0.1895
 1973SOL    HW2 7136   1.613   2.934   8.485 -0.0704  0.8916 -0.5975
 1974SOL     OW 7137   0.404   3.099   8.015  0.3480  0.1863  0.3208
 1974SOL    HW1 7138   0.459   3.037   7.968  0.9257 -1.4875  3.0152
 1974SOL    HW2 7139   0.454   3.181   8.014  1.0453 -0.2374 -0.5872
 1975SOL     OW 7140   0.663   2.515   8.837 -0.2065 -0.1602  0.2628
 1975SOL    HW1 7141   0.646   2.525   8.931  0.1477  0.5226  0.2618
 1975SOL    HW2 7142   0.582   2.542   8.795 -0.3823 -0.5129  0.3761
 1976SOL     OW 7143   1.032   2.450   8.442 -0.4488  0.3316  0.3411
 1976SOL    HW1 7144   1.068   2.532   8.476  0.5914 -0.3619  0.9851
 1976SOL    HW2 7145   1.016   2.397   8.521 -0.2263 -0.4250 -0.1130
 1977SOL     OW 7146   8.741   3.670   0.199 -0.3373 -0.3534  0.3635
 1977SOL    HW1 7147   8.711   3.731   0.266 -2.0311  1.9880 -2.2681
 1977SOL    HW2 7148   8.827   3.704   0.172 -0.4954 -0.1669  0.0903
 1978SOL     OW 7149   0.307   3.189   7.391 -0.4949  0.5528 -0.1530
 1978SOL    HW1 7150   0.266   3.272   7.417 -1.8567 -0.0586 -0.2767
 1978SOL    HW2 7151   0.240   3.145   7.339 -0.1784 -1.0900  0.7762
 1979SOL     OW 7152   0.804   2.188   8.340 -0.0366  0.5608  0.4044
 1979SOL    HW1 7153   0.804   2.283   8.327  0.8640  0.4653 -0.3893
 1979SOL    HW2 7154   0.816   2.177   8.434 -0.5136  1.2360  0.5556
 1980SOL     OW 7155   1.002   2.873   7.833 -0.3234  0.7025  0.3848
 1980SOL    HW1 7156   0.914   2.846   7.808 -1.3088  0.9958  3.2258
 1980SOL    HW2 7157   1.024   2.942   7.771 -2.3163  0.9891 -0.0770
 1981SOL     OW 7158   1.408   3.307   8.515  0.4461  0.0228  0.1968
 1981SOL    HW1 7159   1.317   3.295   8.489  0.0383  0.5088  1.3236
 1981SOL    HW2 7160   1.434   3.390   8.476  1.3130 -1.3503 -2.4089
 1982SOL     OW 7161   1.299   2.670   7.688  0.0489  0.2284  0.1235
 1982SOL    HW1 7162   1.342   2.609   7.628  0.4394  1.0959 -0.4947
 1982SOL    HW2 7163   1.207   2.643   7.687  0.1617 -0.1625 -0.3747
 1983SOL     OW 7164   8.650   3.800   0.433 -0.4106  0.0985  0.1636
 1983SOL    HW1 7165   8.595   3.817   0.509 -2.0414  0.8080 -1.1188
 1983SOL    HW2 7166   8.712   3.733   0.462 -2.0669 -0.8857  1.6333
 1984SOL     OW 7167   0.383   2.398   8.643 -0.0372  0.3312 -0.2847
 1984SOL    HW1 7168   0.392   2.477   8.697  0.7348  0.0644 -0.0048
 1984SOL    HW2 7169   0.392   2.326   8.705 -1.8668 -0.0011 -0.3552
 1985SOL     OW 7170   1.924   2.763   8.167 -0.1429 -0.1723  0.1430
 1985SOL    HW1 7171   1.933   2.691   8.229  1.6096 -0.7724 -0.7483
 1985SOL    HW2 7172   1.830   2.769   8.151 -0.3899 -1.8121  0.7707
 1986SOL     OW 7173   1.347   2.470   7.495 -0.0725  0.0708 -0.4859
 1986SOL    HW1 7174   1.378   2.471   7.404 -0.8011  1.2231 -0.7360
 1986SOL    HW2 7175   1.255   2.494   7.490 -0.2155 -0.2062  0.5377
 1987SOL     OW 7176   0.263   1.971   8.652  0.2393 -0.0119  0.2265
 1987SOL    HW1 7177   0.183   1.920   8.667  0.6253 -0.7190 -0.0904
 1987SOL    HW2 7178   0.245   2.022   8.573 -0.0139  0.0708  0.3375
 1988SOL     OW 7179   8.785   3.602   8.739  0.6943  0.3323 -0.0292
 1988SOL    HW1 7180   8.807   3.523   8.789 -0.7951 -0.4102 -0.4982
 1988SOL    HW2 7181   8.837   3.671   8.780  1.9384 -0.8525  0.4726
 1989SOL     OW 7182   0.910   2.060   8.119  0.2470  0.3406  0.2226
 1989SOL    HW1 7183   0.888   2.124   8.186  0.0384 -0.4046  0.8902
 1989SOL    HW2 7184   0.942   1.984   8.169  1.6363  0.3598 -0.5905
 1990SOL     OW 7185   0.431   2.152   7.877  0.4357  0.7266  0.0245
 1990SOL    HW1 7186   0.461   2.191   7.959  0.1806  1.2956 -0.1487
 1990SOL    HW2 7187   0.506   2.157   7.819  0.9046 -0.4752  0.4767
 1991SOL     OW 7188   1.587   2.203   7.393  0.2009 -0.3940 -0.1835
 1991SOL    HW1 7189   1.586   2.287   7.348 -0.4276  0.8152  1.9375
 1991SOL    HW2 7190   1.625   2.222   7.479 -3.4290 -1.3449  1.8651
 1992SOL     OW 7191   0.878   2.648   8.295 -0.3655 -0.3991 -0.2195
 1992SOL    HW1 7192   0.936   2.650   8.219 -0.0862 -2.3970 -0.1123
 1992SOL    HW2 7193   0.930   2.687   8.366  0.5680 -1.4326 -0.3185
 1993SOL     OW 7194   1.756   2.073   7.643  0.2256 -0.5852 -0.5174
 1993SOL    HW1 7195   1.737   1.994   7.591 -0.2201 -0.5945 -0.3472
 1993SOL    HW2 7196   1.737   2.047   7.733 -0.5094 -0.1059 -0.5265
 1994SOL     OW 7197   0.981   2.832   7.409 -0.0592 -0.0538  0.3765
 1994SOL    HW1 7198   0.894   2.842   7.370  1.3588 -0.2020 -3.2388
 1994SOL    HW2 7199   1.012   2.922   7.422  0.3092  0.0991 -1.2400
 1995SOL     OW 7200   1.438   3.296   8.185  0.1503  0.0127 -0.9444
 1995SOL    HW1 7201   1.429   3.257   8.098 -0.2803 -0.4161 -0.7127
 1995SOL    HW2 7202   1.351   3.289   8.224  0.5489 -0.6256 -0.1398
 1996SOL     OW 7203   8.776   2.615   8.087 -0.7302 -0.4570 -0.2222
 1996SOL    HW1 7204   8.801   2.611   7.994 -0.7743 -2.5858 -0.1712
 1996SOL    HW2 7205   8.681   2.629   8.085 -0.6229  0.2841 -0.4746
 1997SOL     OW 7206   8.652   2.284   8.045 -0.8428  0.2772 -0.4480
 1997SOL    HW1 7207   8.573   2.335   8.065 -0.7464  0.1687  0.2408
 1997SOL    HW2 7208   8.662   2.291   7.950 -1.1230  1.1083 -0.4214
 1998SOL     OW 7209   0.807   2.210   8.617  0.4940  0.3829 -0.3155
 1998SOL    HW1 7210   0.732   2.225   8.675  0.8061 -0.9953  0.4907
 1998SOL    HW2 7211   0.880   2.252   8.661  0.8332 -1.0927  0.5906
 1999SOL     OW 7212   8.818   3.290   7.822 -0.5055 -0.4530 -0.2667
 1999SOL    HW1 7213   8.726   3.299   7.848  0.0317  0.3371  1.4718
 1999SOL    HW2 7214   8.866   3.282   7.904  1.0309 -0.5624 -1.1309
 2000SOL     OW 7215   0.009   3.637   8.120 -0.6831 -0.2765  0.0132
 2000SOL    HW1 7216  -0.002   3.579   8.196 -3.6524  1.8915  1.4281
 2000SOL    HW2 7217   0.058   3.584   8.057  0.8957 -2.6227  2.9236
 2001SOL     OW 7218   0.361   3.340   8.262 -0.5715 -0.5729  0.1030
 2001SOL    HW1 7219   0.362   3.244   8.252 -2.2740 -0.6245  0.1051
 2001SOL    HW2 7220   0.300   3.355   8.334 -0.2586  0.5327  0.1512
 2002SOL     OW 7221   1.048   2.750   8.564  0.5563  0.2566 -0.1167
 2002SOL    HW1 7222   0.989   2.736   8.638  1.4053 -0.3797  0.4616
 2002SOL    HW2 7223   1.124   2.697   8.585  1.7253  1.7611 -0.4150
 2003SOL     OW 7224   8.302   2.968   8.473  0.0139  0.3061  0.4717
 2003SOL    HW1 7225   8.362   3.042   8.465  0.8991 -0.5538 -2.4888
 2003SOL    HW2 7226   8.265   2.958   8.385 -1.2965 -1.7567  1.1836
 2004SOL     OW 7227   0.989   2.523   7.730 -0.2140 -0.4225  0.8296
 2004SOL    HW1 7228   0.897   2.543   7.718 -0.1966 -0.3210  0.8571
 2004SOL    HW2 7229   1.004   2.443   7.681 -0.1477 -0.0232  0.1867
 2005SOL     OW 7230   1.713   2.468   8.757  0.0261  0.4771 -0.1510
 2005SOL    HW1 7231   1.725   2.420   8.675  0.0789 -0.5004  0.4191
 2005SOL    HW2 7232   1.624   2.502   8.753  0.3023  1.1426 -0.9713
 2006SOL     OW 7233   0.493   2.283   8.429 -0.1778  0.3028 -0.1968
 2006SOL    HW1 7234   0.450   2.326   8.503 -1.1237  0.1276 -0.6304
 2006SOL    HW2 7235   0.567   2.340   8.408  1.7736 -0.9795  2.5622
 2007SOL     OW 7236   1.033   3.762   8.605 -0.2405 -0.5456 -0.0533
 2007SOL    HW1 7237   0.954   3.746   8.657 -0.7519  0.9140 -0.3513
 2007SOL    HW2 7238   1.080   3.678   8.608 -0.9199 -0.9111  1.6082
 2008SOL     OW 7239   0.301   2.347   7.681 -0.3487  0.7300  0.1067
 2008SOL    HW1 7240   0.360   2.360   7.755 -0.6019 -0.1300  0.4718
 2008SOL    HW2 7241   0.216   2.325   7.720 -0.8143  1.5258 -0.4203
 2009SOL     OW 7242   0.058   3.193   8.625  0.1995 -0.0372  0.3456
 2009SOL    HW1 7243   0.021   3.255   8.688 -0.5011 -0.5792  0.4880
 2009SOL    HW2 7244   0.129   3.150   8.673  0.8419  0.8182  0.1655
 2010SOL     OW 7245   1.259   2.543   8.590 -0.4707 -0.0367  0.0282
 2010SOL    HW1 7246   1.195   2.474   8.608  1.5120 -1.8480  0.6541
 2010SOL    HW2 7247   1.333   2.496   8.550  1.1719  1.6423  0.9356
 2011SOL     OW 7248   1.601   2.786   7.671  0.6159 -0.3025 -0.7510
 2011SOL    HW1 7249   1.510   2.810   7.656  0.5794  0.1878  0.1622
 2011SOL    HW2 7250   1.613   2.706   7.621 -0.8494 -1.3979  0.5260
 2012SOL     OW 7251   1.611   3.811   0.164 -0.4330 -0.2482  0.1562
 2012SOL    HW1 7252   1.607   3.721   0.132 -0.0866 -0.5651  0.9911
 2012SOL    HW2 7253   1.690   3.815   0.217 -0.0162  0.7641 -0.5067
 2013SOL     OW 7254   1.325   3.771   8.735 -0.6691  0.0496  0.4822
 2013SOL    HW1 7255   1.324   3.694   8.678  0.5210 -0.2873  0.8799
 2013SOL    HW2 7256   1.277   3.743   8.814  2.2863 -1.4114  1.9298
 2014SOL     OW 7257   8.700   3.209   8.107  0.3967  0.1835 -0.5314
 2014SOL    HW1 7258   8.659   3.244   8.028  1.2814  1.2542 -0.5405
 2014SOL    HW2 7259   8.777   3.162   8.076  0.0960 -0.4165 -0.3879
 2015SOL     OW 7260   1.341   2.358   8.112 -0.0768 -0.0831  0.2387
 2015SOL    HW1 7261   1.281   2.422   8.073 -0.8256 -0.1191  1.2896
 2015SOL    HW2 7262   1.361   2.298   8.041 -0.6585  0.3917 -0.3371
 2016SOL     OW 7263   1.467   3.241   7.934 -0.5000  0.1826  0.2227
 2016SOL    HW1 7264   1.561   3.261   7.925  0.3448 -2.5768  1.7618
 2016SOL    HW2 7265   1.432   3.253   7.846  1.2359  1.4918 -0.3616
 2017SOL     OW 7266   0.787   2.793   7.658 -0.1927  0.5717 -0.0042
 2017SOL    HW1 7267   0.710   2.786   7.602 -0.2181 -1.2528  0.2068
 2017SOL    HW2 7268   0.859   2.813   7.597 -0.4924  0.1846 -0.4951
 2018SOL     OW 7269   0.741   3.609   7.902  0.3814  0.4085  0.2732
 2018SOL    HW1 7270   0.679   3.681   7.886  0.9493  0.9417  0.4582
 2018SOL    HW2 7271   0.740   3.597   7.996  0.6351  0.4906  0.2875
 2019SOL     OW 7272   1.648   1.981   8.397 -0.2552  0.2558  0.7719
 2019SOL    HW1 7273   1.686   1.936   8.321 -1.0757  0.0014  0.5094
 2019SOL    HW2 7274   1.639   2.072   8.368  1.4291  0.6322  1.3125
 2020SOL     OW 7275   0.471   2.258   8.132  0.0385 -0.4554  0.0410
 2020SOL    HW1 7276   0.530   2.291   8.200  0.4885 -1.4157  0.1362
 2020SOL    HW2 7277   0.417   2.193   8.177 -0.2968 -0.4233 -0.3116
 2021SOL     OW 7278   1.434   3.435   7.602  0.4472  0.1720  0.2566
 2021SOL    HW1 7279   1.446   3.344   7.575 -0.1476  0.7524 -2.1180
 2021SOL    HW2 7280   1.518   3.477   7.581  0.5519  0.3071  0.9075
 2022SOL     OW 7281   0.952   3.161   8.474 -0.3231 -0.4819  0.0513
 2022SOL    HW1 7282   0.962   3.105   8.397  0.1316  0.7944 -0.8475
 2022SOL    HW2 7283   0.896   3.110   8.533 -2.0374 -0.8324 -1.7767
 2023SOL     OW 7284   0.725   3.001   7.843 -0.3227 -0.2047 -0.3363
 2023SOL    HW1 7285   0.653   2.975   7.900  1.1074 -1.9010  0.8357
 2023SOL    HW2 7286   0.754   2.919   7.803  0.9969  0.4057 -0.6922
 2024SOL     OW 7287   1.336   3.553   7.813  0.6292  0.4631 -0.1279
 2024SOL    HW1 7288   1.412   3.602   7.846  0.3627  0.4537  0.5162
 2024SOL    HW2 7289   1.364   3.521   7.727  0.2682  3.1019 -1.3351
 2025SOL     OW 7290   1.621   3.525   0.031 -0.5775 -0.2132  0.3596
 2025SOL    HW1 7291   1.680   3.550  -0.040  0.2700  0.3119  1.2177
 2025SOL    HW2 7292   1.546   3.484  -0.013 -0.7726  1.4217 -0.9435
 2026SOL     OW 7293   1.020   2.741   8.070  0.3756  0.2822  0.0321
 2026SOL    HW1 7294   1.035   2.793   7.991 -1.0445 -1.0608 -1.1895
 2026SOL    HW2 7295   1.083   2.669   8.063 -0.1443 -0.1603 -0.2134
 2027SOL     OW 7296   1.014   2.194   7.919  0.2587  0.6990 -0.1435
 2027SOL    HW1 7297   0.993   2.133   7.989 -0.4727  0.5804 -0.4575
 2027SOL    HW2 7298   0.973   2.276   7.945 -0.0581  0.6401 -0.4558
 2028SOL     OW 7299   0.520   3.405   7.699 -0.5030  0.1237  0.4019
 2028SOL    HW1 7300   0.583   3.388   7.770  1.4756  1.0129 -1.0416
 2028SOL    HW2 7301   0.436   3.379   7.735  0.6047 -0.6319  2.6365
 2029SOL     OW 7302   0.262   3.346   7.767  0.4551 -0.3581 -0.9473
 2029SOL    HW1 7303   0.234   3.294   7.693 -0.9365 -0.7881 -0.1472
 2029SOL    HW2 7304   0.222   3.304   7.843  1.3401  0.4242 -0.0104
 2030SOL     OW 7305   0.765   1.891   0.040 -0.1087  0.6657 -0.3571
 2030SOL    HW1 7306   0.753   1.796   0.036 -1.1261  0.6771  1.5974
 2030SOL    HW2 7307   0.823   1.910  -0.034  2.5369 -1.8457  0.8515
 2031SOL     OW 7308   0.029   2.113   7.221 -0.1657 -0.0243  0.0202
 2031SOL    HW1 7309   0.019   2.191   7.276 -0.9743 -0.3616  0.3756
 2031SOL    HW2 7310   0.010   2.039   7.280 -0.9915 -0.3964 -0.6897
 2032SOL     OW 7311   8.604   1.777   7.642 -0.1003 -0.0789 -0.6595
 2032SOL    HW1 7312   8.635   1.752   7.555  1.1369 -1.4792  0.1469
 2032SOL    HW2 7313   8.676   1.828   7.680 -0.5279  0.3104 -0.3550
 2033SOL     OW 7314   1.591   2.876   7.290  0.0427 -0.9693  0.2327
 2033SOL    HW1 7315   1.658   2.885   7.223  0.9319 -2.0650  0.9448
 2033SOL    HW2 7316   1.521   2.825   7.248  0.8781 -2.2222  0.3015
 2034SOL     OW 7317   0.932   2.623   8.797 -0.2732  0.3947  0.2511
 2034SOL    HW1 7318   0.842   2.592   8.800 -0.1345 -0.5871 -2.3748
 2034SOL    HW2 7319   0.978   2.570   8.861 -1.5063  0.7959  1.5090
 2035SOL     OW 7320   1.668   4.201   8.452  0.0045  0.3066  0.0073
 2035SOL    HW1 7321   1.688   4.108   8.462 -0.0755  0.3744  0.8627
 2035SOL    HW2 7322   1.691   4.240   8.536 -0.0085  1.0538 -0.3275
 2036SOL     OW 7323   0.615   3.265   0.251  0.4198 -0.0620  0.0538
 2036SOL    HW1 7324   0.619   3.329   0.180 -2.3808 -1.1709 -1.2818
 2036SOL    HW2 7325   0.681   3.200   0.230  2.4352  1.6392  0.7610
 2037SOL     OW 7326   1.833   2.694   8.566  0.1020 -0.7029 -0.1375
 2037SOL    HW1 7327   1.807   2.705   8.657  0.7839 -0.0840 -0.0069
 2037SOL    HW2 7328   1.839   2.783   8.532  0.7776 -0.8865 -0.5137
 2038SOL     OW 7329   1.404   1.724   7.646  0.2439  0.6010  0.0584
 2038SOL    HW1 7330   1.392   1.643   7.695  0.2210  1.9923  2.5165
 2038SOL    HW2 7331   1.461   1.699   7.573  1.6220 -1.3239  1.6706
 2039SOL     OW 7332   0.688   2.452   8.322  0.1148 -0.3175 -0.1982
 2039SOL    HW1 7333   0.750   2.525   8.326 -0.3557  0.1421 -1.0321
 2039SOL    HW2 7334   0.602   2.494   8.313 -0.4039 -0.9298  1.4606
 2040SOL     OW 7335   1.692   2.527   8.397  0.0076  0.2663 -0.1559
 2040SOL    HW1 7336   1.746   2.516   8.319  0.5367  0.8845  0.1157
 2040SOL    HW2 7337   1.737   2.595   8.448 -1.0892  0.8724  0.0246
 2041SOL     OW 7338   0.610   3.027   7.348 -0.4574  0.1882  0.1642
 2041SOL    HW1 7339   0.529   3.024   7.298 -1.1403 -0.1761  1.2642
 2041SOL    HW2 7340   0.589   3.077   7.426  0.2197 -0.3595  0.7133
 2042SOL     OW 7341   0.720   3.152   8.175 -0.6584  0.0312 -0.0098
 2042SOL    HW1 7342   0.664   3.076   8.190 -0.9930  0.0877 -0.9204
 2042SOL    HW2 7343   0.791   3.143   8.239 -0.5004 -1.2308 -0.3336
 2043SOL     OW 7344   0.517   2.856   7.950  0.6846  0.4323 -0.4653
 2043SOL    HW1 7345   0.429   2.822   7.967  0.2605  2.0136  0.6933
 2043SOL    HW2 7346   0.576   2.796   7.997  0.1332  0.0664 -0.2352
 2044SOL     OW 7347   1.324   2.918   7.615 -0.8205  0.5742  0.1325
 2044SOL    HW1 7348   1.242   2.961   7.639 -0.4598 -0.1101  2.8857
 2044SOL    HW2 7349   1.310   2.826   7.640  0.4352  0.2447 -0.3298
 2045SOL     OW 7350   1.148   3.513   8.639 -0.7199  0.5913  0.1486
 2045SOL    HW1 7351   1.157   3.472   8.725 -1.3089 -1.5138 -0.7353
 2045SOL    HW2 7352   1.178   3.447   8.577 -1.7822  1.4678 -1.3886
 2046SOL     OW 7353   8.630   3.408   8.592 -0.2771  0.1034 -0.3477
 2046SOL    HW1 7354   8.699   3.467   8.623 -0.3091 -1.0779  2.1926
 2046SOL    HW2 7355   8.674   3.350   8.530  0.9029 -0.2398  0.7682
 2047SOL     OW 7356   1.757   2.159   0.020 -0.2203 -0.0375  1.2013
 2047SOL    HW1 7357   1.693   2.102   0.063  0.8031 -1.5304  0.8074
 2047SOL    HW2 7358   1.833   2.104   0.006  0.7686  1.4059  0.6558
 2048SOL     OW 7359   0.708   2.515   7.789  0.0478 -0.7194 -0.2801
 2048SOL    HW1 7360   0.660   2.598   7.783 -0.0579 -0.7779 -0.2584
 2048SOL    HW2 7361   0.647   2.451   7.751 -0.4955 -1.0501  1.0993
 2049SOL     OW 7362   1.171   3.318   8.392  0.2613  0.4289 -0.7155
 2049SOL    HW1 7363   1.097   3.365   8.354 -0.6490  1.0833  1.7007
 2049SOL    HW2 7364   1.130   3.246   8.441  1.3229 -0.0497 -0.5166
 2050SOL     OW 7365   0.225   2.499   8.213  0.2369 -0.1280 -0.4620
 2050SOL    HW1 7366   0.219   2.412   8.174  0.5517  0.2369 -1.3361
 2050SOL    HW2 7367   0.135   2.519   8.241 -0.2771  0.1326 -2.1899
 2051SOL     OW 7368   0.809   3.255   7.878  0.4456  0.3660  0.0397
 2051SOL    HW1 7369   0.743   3.268   7.947  1.1950 -0.0495  0.8556
 2051SOL    HW2 7370   0.800   3.162   7.854  0.9578  0.2207  0.3978
 2052SOL     OW 7371   1.177   2.247   8.317 -0.0050 -0.0817  0.3800
 2052SOL    HW1 7372   1.256   2.272   8.268 -0.3261 -0.1456 -0.1703
 2052SOL    HW2 7373   1.125   2.327   8.321 -0.8227 -0.5166 -0.9840
 2053SOL     OW 7374   1.118   1.640   8.278 -0.2227 -0.0418  0.0510
 2053SOL    HW1 7375   1.063   1.590   8.218  0.4188  0.4558 -0.9768
 2053SOL    HW2 7376   1.075   1.725   8.285 -0.8133 -0.4078  1.0703
 2054SOL     OW 7377   0.577   3.337   8.006 -0.2723 -0.0422 -0.3302
 2054SOL    HW1 7378   0.626   3.326   8.088  0.0063 -0.9378 -0.6056
 2054SOL    HW2 7379   0.528   3.419   8.018 -0.5831 -0.3929  0.9070
 2055SOL     OW 7380   0.677   3.559   8.655  0.1804  0.1708  0.0915
 2055SOL    HW1 7381   0.718   3.645   8.667 -1.2153  0.8465  0.2609
 2055SOL    HW2 7382   0.739   3.511   8.600  0.8624  1.3844 -0.2606
 2056SOL     OW 7383   1.793   1.665   7.731 -0.6687  0.1316 -0.4822
 2056SOL    HW1 7384   1.743   1.724   7.787 -1.7866 -0.1412 -1.1682
 2056SOL    HW2 7385   1.780   1.578   7.770 -0.1032  0.1579 -0.2287
 2057SOL     OW 7386   1.273   2.201   7.856  0.1053 -0.1708 -0.0520
 2057SOL    HW1 7387   1.332   2.141   7.902 -0.6380  0.3400  1.6593
 2057SOL    HW2 7388   1.186   2.180   7.891 -0.8615 -1.1632 -2.7749
 2058SOL     OW 7389   1.292   2.006   8.788 -0.2080  0.2031  0.9343
 2058SOL    HW1 7390   1.242   1.975   8.713 -0.0629 -0.3129  1.0471
 2058SOL    HW2 7391   1.232   1.999   8.862 -0.2794  0.4996  0.9045
 2059SOL     OW 7392   0.124   2.778   7.528  0.0989 -0.1059 -0.3424
 2059SOL    HW1 7393   0.035   2.744   7.539 -0.6825  2.0789  0.5256
 2059SOL    HW2 7394   0.175   2.733   7.595 -0.5057 -0.7857 -0.3223
 2060SOL     OW 7395   1.177   3.326   7.756 -0.2590 -0.0337  0.4058
 2060SOL    HW1 7396   1.241   3.381   7.802  0.4339 -1.7174  1.5622
 2060SOL    HW2 7397   1.105   3.385   7.735  0.6072  1.3920  1.2629
 2061SOL     OW 7398   0.278   4.236   0.583 -0.2234 -0.1261 -0.2478
 2061SOL    HW1 7399   0.217   4.282   0.526  0.6153  0.3692 -0.7710
 2061SOL    HW2 7400   0.359   4.232   0.532 -0.0155 -1.3889  0.1495
 2062SOL     OW 7401   0.095   3.813   0.813 -0.4976  0.1807 -0.1499
 2062SOL    HW1 7402   0.110   3.899   0.853  0.0552 -0.9558  2.3113
 2062SOL    HW2 7403   0.045   3.765   0.879 -1.9814 -0.9929 -2.0276
 2063SOL     OW 7404   8.243   4.441   0.213 -0.4672  0.3141 -0.9525
 2063SOL    HW1 7405   8.209   4.364   0.166 -0.6746  0.2889 -0.7625
 2063SOL    HW2 7406   8.317   4.470   0.160  1.0457 -1.3518  0.1193
 2064SOL     OW 7407   0.501   4.836   1.083 -0.1604  0.0128 -0.7937
 2064SOL    HW1 7408   0.436   4.782   1.039 -0.3484  0.0148 -0.5221
 2064SOL    HW2 7409   0.460   4.860   1.166  0.2812 -0.1912 -0.5126
 2065SOL     OW 7410   1.398   5.333   1.281 -0.3193  0.6118 -0.0670
 2065SOL    HW1 7411   1.316   5.299   1.318  0.9150 -0.3301  2.0362
 2065SOL    HW2 7412   1.397   5.307   1.189 -1.6018 -0.9220  0.3495
 2066SOL     OW 7413   0.971   4.177   0.574 -0.3558 -0.1982 -0.4083
 2066SOL    HW1 7414   1.051   4.212   0.536 -0.8122 -2.2440 -3.6682
 2066SOL    HW2 7415   0.908   4.248   0.566  0.5618  0.7248  0.2748
 2067SOL     OW 7416   1.476   4.548   0.461 -0.0892 -0.1039 -0.6451
 2067SOL    HW1 7417   1.566   4.580   0.451 -0.7236  1.5564 -1.3133
 2067SOL    HW2 7418   1.479   4.458   0.429  1.5972 -0.5159  0.5475
 2068SOL     OW 7419   0.324   4.700   0.955 -0.6664 -0.2377  0.3331
 2068SOL    HW1 7420   0.306   4.611   0.984 -0.2262 -0.8870 -1.2514
 2068SOL    HW2 7421   0.271   4.710   0.876 -0.7359  0.9234  0.5102
 2069SOL     OW 7422   0.744   4.367   2.188 -0.6252 -0.6070 -0.2132
 2069SOL    HW1 7423   0.723   4.275   2.174 -2.0285 -0.3530  0.0373
 2069SOL    HW2 7424   0.661   4.413   2.174  0.5624  0.9318 -2.9315
 2070SOL     OW 7425   0.976   4.112   1.237  0.1545 -0.5032  0.4696
 2070SOL    HW1 7426   0.987   4.092   1.143 -2.0842 -1.1269  0.2922
 2070SOL    HW2 7427   1.025   4.193   1.250  2.4198 -1.5882 -0.7043
 2071SOL     OW 7428   0.976   5.346   2.151 -0.1437 -0.7713 -0.3533
 2071SOL    HW1 7429   0.881   5.345   2.158 -0.1326 -0.2107 -0.0580
 2071SOL    HW2 7430   1.004   5.262   2.187 -0.3799  0.0373  1.8225
 2072SOL     OW 7431   0.335   5.034   0.943  0.0215  0.2815 -0.3069
 2072SOL    HW1 7432   0.372   4.952   0.974  0.1799  1.3255  2.4897
 2072SOL    HW2 7433   0.241   5.016   0.933  0.3059 -0.6888 -1.5458
 2073SOL     OW 7434   1.532   5.567   1.277 -0.2164 -0.5724  0.4846
 2073SOL    HW1 7435   1.479   5.488   1.289 -0.8344 -0.5730 -1.7121
 2073SOL    HW2 7436   1.498   5.606   1.196 -0.5024  2.4331  1.9304
 2074SOL     OW 7437   0.284   3.820   1.780 -0.2455 -0.1257 -0.3776
 2074SOL    HW1 7438   0.362   3.774   1.750  0.5505 -0.5638  2.1597
 2074SOL    HW2 7439   0.212   3.758   1.764  0.1787 -0.4900 -0.9367
 2075SOL     OW 7440   1.371   4.096   0.807  0.3782  0.2576 -0.4662
 2075SOL    HW1 7441   1.441   4.071   0.868  0.5204  0.5755 -0.4972
 2075SOL    HW2 7442   1.409   4.082   0.720 -0.0142 -0.7294 -0.4939
 2076SOL     OW 7443   0.153   5.234   0.815 -0.3131 -0.0295  0.4531
 2076SOL    HW1 7444   0.243   5.267   0.815  0.1710 -1.2376 -0.6231
 2076SOL    HW2 7445   0.113   5.272   0.893  1.8080 -1.2977  2.2771
 2077SOL     OW 7446   1.361   4.873   2.166 -0.0203  0.5435 -0.1406
 2077SOL    HW1 7447   1.272   4.840   2.161  1.1455 -3.0039 -0.1440
 2077SOL    HW2 7448   1.368   4.910   2.254 -1.6554  1.5645 -0.4029
 2078SOL     OW 7449   0.693   4.620   0.698  0.2569 -0.1280 -0.2555
 2078SOL    HW1 7450   0.702   4.689   0.764 -0.5543 -2.4177  2.4519
 2078SOL    HW2 7451   0.610   4.639   0.655  1.6738  2.4713 -2.1512
 2079SOL     OW 7452   0.051   4.905   0.944  0.0195 -0.4642 -0.1122
 2079SOL    HW1 7453   0.053   4.810   0.936  0.8019 -0.5645  1.0418
 2079SOL    HW2 7454   0.032   4.936   0.856  0.8400 -1.6495 -0.7377
 2080SOL     OW 7455   0.536   5.316   1.299  1.0811 -0.6499 -0.1173
 2080SOL    HW1 7456   0.537   5.250   1.369  1.1651 -0.3780  0.1392
 2080SOL    HW2 7457   0.627   5.346   1.294  1.0008 -0.4027 -0.0894
 2081SOL     OW 7458   1.092   4.639   0.633  0.5333  0.5356  0.7005
 2081SOL    HW1 7459   1.024   4.705   0.625 -2.0118 -2.0221 -0.4174
 2081SOL    HW2 7460   1.064   4.582   0.704  2.2078  0.1267  1.0919
 2082SOL     OW 7461   1.409   3.578   2.038  0.0749 -0.3331 -0.0323
 2082SOL    HW1 7462   1.318   3.547   2.035 -0.5577  1.3258  0.9631
 2082SOL    HW2 7463   1.405   3.668   2.007  1.1846  0.1441  1.1083
 2083SOL     OW 7464   0.083   4.343   0.435  0.1867 -0.2729 -0.1512
 2083SOL    HW1 7465   0.072   4.372   0.345  0.6223  1.8855  0.4424
 2083SOL    HW2 7466  -0.005   4.320   0.464 -0.4139  1.6810 -0.2965
 2084SOL     OW 7467   2.545   5.160   0.768  0.2807 -0.3162  0.7687
 2084SOL    HW1 7468   2.490   5.082   0.757  1.6791 -1.3984  1.1234
 2084SOL    HW2 7469   2.549   5.173   0.863 -1.7783  1.6027  0.6668
 2085SOL     OW 7470   8.841   5.047   0.256  0.2807 -0.2935  0.1115
 2085SOL    HW1 7471   8.804   5.032   0.343 -0.4468 -1.3602 -0.3633
 2085SOL    HW2 7472   8.797   4.983   0.200  0.2088  0.8622 -1.1880
 2086SOL     OW 7473   1.794   4.638   0.745 -0.1555 -0.7625 -0.5638
 2086SOL    HW1 7474   1.821   4.670   0.659  0.7161  1.4311  0.4619
 2086SOL    HW2 7475   1.702   4.665   0.753  0.0151 -0.1822 -0.4871
 2087SOL     OW 7476   1.574   4.817   0.797  0.4916 -0.1754  0.7602
 2087SOL    HW1 7477   1.501   4.758   0.781  0.5761 -0.1254  0.1791
 2087SOL    HW2 7478   1.539   4.883   0.858  0.1855 -0.4024  0.8284
 2088SOL     OW 7479   0.343   4.402   1.490  0.2813 -0.1469  0.0435
 2088SOL    HW1 7480   0.351   4.495   1.510 -1.2572 -0.0490  0.3240
 2088SOL    HW2 7481   0.348   4.359   1.575 -2.1755 -0.0456  0.2902
 2089SOL     OW 7482   0.873   5.248   1.090 -0.1263  0.3406  0.1915
 2089SOL    HW1 7483   0.914   5.241   1.177 -0.2947 -1.8641  0.1478
 2089SOL    HW2 7484   0.833   5.162   1.076 -3.2830  1.7944 -0.5485
 2090SOL     OW 7485   1.486   5.305   1.582 -0.0892 -0.5137 -0.1652
 2090SOL    HW1 7486   1.500   5.286   1.489 -0.3232  0.5301 -0.4291
 2090SOL    HW2 7487   1.414   5.368   1.582  2.8876  3.1932  0.3523
 2091SOL     OW 7488   1.090   3.762   0.397  0.1596  0.2450  0.0870
 2091SOL    HW1 7489   1.061   3.840   0.444 -0.3708 -0.5314  1.0847
 2091SOL    HW2 7490   1.130   3.796   0.317 -2.2389  1.4546 -0.7080
 2092SOL     OW 7491   0.098   4.709   1.325  0.5653  0.1067 -0.2439
 2092SOL    HW1 7492   0.085   4.767   1.250  2.0571  0.6510 -0.1030
 2092SOL    HW2 7493   0.115   4.623   1.287 -0.7145 -0.0647 -0.4707
 2093SOL     OW 7494   1.404   4.734   1.207  0.2316  0.8440  0.2186
 2093SOL    HW1 7495   1.458   4.802   1.166  1.1153 -0.1596 -0.3285
 2093SOL    HW2 7496   1.314   4.762   1.191  0.5666  1.0065 -1.5466
 2094SOL     OW 7497   1.102   5.491   1.776  0.2390  0.8587  0.4689
 2094SOL    HW1 7498   1.082   5.401   1.750 -2.4179  1.3970  0.3551
 2094SOL    HW2 7499   1.138   5.483   1.864  0.4400 -0.3295  0.3005
 2095SOL     OW 7500   0.472   3.971   1.922 -0.4845  0.1804 -0.3326
 2095SOL    HW1 7501   0.535   3.904   1.949  0.1054  0.5540 -0.7690
 2095SOL    HW2 7502   0.396   3.921   1.892 -0.3883 -0.2732  0.1592
 2096SOL     OW 7503   1.622   5.568   0.972  0.2916 -0.1541 -0.1839
 2096SOL    HW1 7504   1.679   5.633   0.930  1.2109  0.5127  1.9850
 2096SOL    HW2 7505   1.534   5.602   0.958  0.7356  1.4003  0.5769
 2097SOL     OW 7506   2.038   5.670   0.420 -0.2148  0.2628 -0.4540
 2097SOL    HW1 7507   2.095   5.636   0.489 -1.0054  0.9938  0.5991
 2097SOL    HW2 7508   2.091   5.735   0.374 -0.0335  0.5713  0.1880
 2098SOL     OW 7509   0.511   4.243   0.426 -0.0083 -0.2069  0.4619
 2098SOL    HW1 7510   0.584   4.273   0.481 -0.6510  0.7542  0.8124
 2098SOL    HW2 7511   0.545   4.247   0.337 -0.1664  2.0436  0.4321
 2099SOL     OW 7512   1.566   4.068   1.017 -0.8054  0.8082  0.6176
 2099SOL    HW1 7513   1.552   3.973   1.020  0.4332  0.5679 -0.3380
 2099SOL    HW2 7514   1.656   4.080   1.047 -0.0074  1.3996 -1.8095
 2100SOL     OW 7515   1.682   5.148   0.355 -0.0988  0.1342 -0.2823
 2100SOL    HW1 7516   1.672   5.230   0.403 -0.4595  0.6548 -1.2243
 2100SOL    HW2 7517   1.655   5.080   0.418  0.8264  0.6687  0.7140
 2101SOL     OW 7518   1.347   3.940   1.558 -0.3708 -0.4015  0.0701
 2101SOL    HW1 7519   1.312   4.028   1.575 -0.6513 -0.6802  1.0228
 2101SOL    HW2 7520   1.420   3.931   1.619  0.5867 -0.2994 -1.0324
 2102SOL     OW 7521   1.440   4.155   1.808 -0.1497  0.2610 -0.0018
 2102SOL    HW1 7522   1.521   4.202   1.825 -1.2892  1.7514  1.6356
 2102SOL    HW2 7523   1.405   4.194   1.728  0.5048 -0.0685 -0.4525
 2103SOL     OW 7524   1.011   4.477   1.781 -0.0981 -0.2174  0.3016
 2103SOL    HW1 7525   1.015   4.490   1.687 -1.0487 -2.2080 -0.0601
 2103SOL    HW2 7526   1.097   4.504   1.813  0.1689  0.6508 -1.0888
 2104SOL     OW 7527   1.371   4.104   1.282 -0.7571 -0.3388  0.1729
 2104SOL    HW1 7528   1.307   4.169   1.252  0.3094  0.4883 -0.3861
 2104SOL    HW2 7529   1.323   4.021   1.282 -1.2129 -0.1688 -2.5929
 2105SOL     OW 7530   1.533   4.105   0.576 -0.6174  0.2620  0.0383
 2105SOL    HW1 7531   1.561   4.015   0.564 -3.6330 -0.8698  0.6577
 2105SOL    HW2 7532   1.605   4.147   0.622  1.0657 -1.6555 -0.6944
 2106SOL     OW 7533   8.817   4.252   0.913  0.7200 -0.1491  0.1710
 2106SOL    HW1 7534   8.845   4.217   0.998 -0.6551 -1.4815  0.1086
 2106SOL    HW2 7535   8.757   4.323   0.935 -1.5990 -2.0888  0.3951
 2107SOL     OW 7536   8.825   5.490   1.514 -0.2450  0.4459  0.4182
 2107SOL    HW1 7537   8.869   5.571   1.539 -0.6144  0.8384 -0.1703
 2107SOL    HW2 7538   8.822   5.438   1.595  1.9855  0.0521  0.2905
 2108SOL     OW 7539   1.261   3.916   0.254  0.1952  0.6262 -0.4368
 2108SOL    HW1 7540   1.189   3.970   0.224 -1.9671 -2.4655 -1.3056
 2108SOL    HW2 7541   1.330   3.929   0.189  0.8249  4.1147  0.7432
 2109SOL     OW 7542   2.061   4.350   1.770  0.3581  0.7040 -0.6325
 2109SOL    HW1 7543   2.054   4.331   1.677 -0.9742 -0.3355 -0.3538
 2109SOL    HW2 7544   2.125   4.286   1.803  2.3320  2.3200 -1.1113
 2110SOL     OW 7545   1.225   4.957   1.327 -0.1303  0.5305 -0.2001
 2110SOL    HW1 7546   1.147   4.930   1.279 -1.5379 -1.9903  3.0536
 2110SOL    HW2 7547   1.197   5.031   1.380  0.5155  1.3549 -0.9899
 2111SOL     OW 7548   0.405   3.678   0.614 -0.2529 -0.2278 -0.2201
 2111SOL    HW1 7549   0.403   3.773   0.602  1.5035 -0.0209  0.6850
 2111SOL    HW2 7550   0.410   3.643   0.525  0.5560  0.6205 -0.5278
 2112SOL     OW 7551   1.129   5.427   0.851  0.6277 -0.5394  0.4949
 2112SOL    HW1 7552   1.153   5.460   0.764 -1.5296 -0.1600 -0.0143
 2112SOL    HW2 7553   1.092   5.341   0.835  1.5603 -1.1078  1.2518
 2113SOL     OW 7554   0.017   5.437   0.963  0.0605 -0.1855  0.1123
 2113SOL    HW1 7555   0.019   5.445   1.059  0.4954 -4.4656  0.6396
 2113SOL    HW2 7556  -0.072   5.465   0.939  0.5790  3.0424  1.3380
 2114SOL     OW 7557   1.435   4.975   0.979  0.1169 -0.0884 -0.3166
 2114SOL    HW1 7558   1.397   5.063   0.982  0.7824  0.1895  0.0631
 2114SOL    HW2 7559   1.483   4.966   1.061  0.4933 -0.6083 -0.5844
 2115SOL     OW 7560   1.368   5.135   1.970  0.0769 -0.3305 -0.3331
 2115SOL    HW1 7561   1.302   5.198   1.998 -0.2171 -0.6374 -0.3349
 2115SOL    HW2 7562   1.337   5.051   2.003  1.3323 -0.2546  1.1620
 2116SOL     OW 7563   0.836   4.425   0.560 -0.5405 -0.6436 -0.0844
 2116SOL    HW1 7564   0.869   4.465   0.480 -0.7024 -1.1230 -0.3902
 2116SOL    HW2 7565   0.782   4.493   0.600  0.4707  0.0063  0.2117
 2117SOL     OW 7566   1.473   4.799   1.469  0.0297  0.8049  0.2221
 2117SOL    HW1 7567   1.558   4.824   1.432  0.2177  1.5429  1.1228
 2117SOL    HW2 7568   1.419   4.778   1.392  1.2309 -0.4163 -0.3283
 2118SOL     OW 7569   0.454   5.206   1.758  0.1626 -0.4464 -0.9352
 2118SOL    HW1 7570   0.535   5.196   1.809 -0.8947  0.6863  1.0759
 2118SOL    HW2 7571   0.392   5.145   1.800 -0.8990  0.9222 -0.4612
 2119SOL     OW 7572   1.427   5.409   0.486 -0.4202  0.2564  0.0571
 2119SOL    HW1 7573   1.341   5.421   0.447 -0.4996  0.0514  0.1646
 2119SOL    HW2 7574   1.428   5.318   0.515 -0.5003  0.5048  0.8656
 2120SOL     OW 7575   0.074   3.886   1.447  0.4548  0.1918  0.2177
 2120SOL    HW1 7576   0.150   3.937   1.418  1.0218  1.0092  2.8378
 2120SOL    HW2 7577   0.111   3.805   1.482  0.1598  0.5762  1.4683
 2121SOL     OW 7578   1.439   5.201   0.227  0.3099 -0.1990 -0.4166
 2121SOL    HW1 7579   1.470   5.231   0.142 -1.4090  2.0488 -0.3201
 2121SOL    HW2 7580   1.519   5.174   0.274  1.5738  1.0917 -1.7528
 2122SOL     OW 7581   0.621   5.378   0.388  0.2732  0.8678 -0.0478
 2122SOL    HW1 7582   0.612   5.288   0.420  0.5041  0.7126 -0.4110
 2122SOL    HW2 7583   0.676   5.421   0.454  1.3560  0.3532 -0.5808
 2123SOL     OW 7584   1.179   4.340   0.486 -1.1739  0.2763  0.0130
 2123SOL    HW1 7585   1.186   4.353   0.581 -3.3332  0.1917  0.2179
 2123SOL    HW2 7586   1.267   4.360   0.453 -1.4283  4.8954  1.4660
 2124SOL     OW 7587   8.558   5.450   1.202  0.3249  0.0110 -0.4798
 2124SOL    HW1 7588   8.534   5.361   1.179 -1.9189 -0.1169  1.8660
 2124SOL    HW2 7589   8.531   5.503   1.126 -1.2759 -0.9844 -0.6466
 2125SOL     OW 7590   0.990   5.908   1.336  0.0797 -0.6975  0.3945
 2125SOL    HW1 7591   0.979   5.895   1.242  1.7716 -0.0651  0.0628
 2125SOL    HW2 7592   0.902   5.899   1.372 -0.3492 -2.9364 -0.9724
 2126SOL     OW 7593   0.334   4.404   0.797 -0.0243  0.2132 -0.4971
 2126SOL    HW1 7594   0.327   4.330   0.737 -0.0502  0.4919 -0.8340
 2126SOL    HW2 7595   0.351   4.480   0.742 -2.9399  0.9879 -0.4609
 2127SOL     OW 7596   1.875   4.029   1.916 -0.1226 -0.0327  0.0913
 2127SOL    HW1 7597   1.844   4.042   1.827  0.1529 -0.6487 -0.0966
 2127SOL    HW2 7598   1.822   4.089   1.969  0.1922  0.8578 -0.5730
 2128SOL     OW 7599   0.858   3.915   1.888 -0.0979  0.0999 -0.4095
 2128SOL    HW1 7600   0.876   3.830   1.848  0.0572  0.1115 -0.3626
 2128SOL    HW2 7601   0.927   3.972   1.854  0.2607  0.0196  0.1727
 2129SOL     OW 7602   1.224   5.620   1.286 -0.7136  0.2356 -0.2446
 2129SOL    HW1 7603   1.276   5.630   1.206 -1.2947 -0.6729 -0.7565
 2129SOL    HW2 7604   1.243   5.698   1.337  0.6258  0.2468 -0.7229
 2130SOL     OW 7605   1.612   4.001   1.408 -0.3955 -0.1291  0.1439
 2130SOL    HW1 7606   1.520   4.025   1.402 -1.1164 -2.8834 -1.6282
 2130SOL    HW2 7607   1.651   4.035   1.327 -0.4435 -1.0521 -0.2799
 2131SOL     OW 7608   0.852   5.071   1.350 -0.1350 -0.3982 -0.3313
 2131SOL    HW1 7609   0.857   4.995   1.407  1.7761 -0.2953 -0.3154
 2131SOL    HW2 7610   0.833   5.144   1.409  0.0065 -0.5663 -0.0754
 2132SOL     OW 7611   0.859   3.651   0.851  0.4415 -0.0135 -0.8601
 2132SOL    HW1 7612   0.789   3.607   0.804  0.7012 -2.1564  0.6316
 2132SOL    HW2 7613   0.940   3.615   0.815  0.6433 -1.6883  1.1232
 2133SOL     OW 7614   0.218   3.801   0.341  0.2945 -0.0653  0.0707
 2133SOL    HW1 7615   0.256   3.877   0.297 -0.7462 -0.0763 -0.8998
 2133SOL    HW2 7616   0.235   3.728   0.282  1.8848 -0.7655  1.3081
 2134SOL     OW 7617   1.134   5.027   0.633  0.2530  0.1655  0.4174
 2134SOL    HW1 7618   1.145   4.970   0.709 -0.0991 -0.2010  0.1979
 2134SOL    HW2 7619   1.081   4.976   0.572  1.2453  0.1212 -0.4266
 2135SOL     OW 7620   0.966   3.914   0.604 -0.3515 -0.4097 -0.6507
 2135SOL    HW1 7621   0.955   4.009   0.613  1.9130  0.0023 -1.4760
 2135SOL    HW2 7622   1.042   3.894   0.659 -0.1138 -1.5474 -1.3681
 2136SOL     OW 7623   1.031   4.540   1.512  0.7767  0.6610 -0.7283
 2136SOL    HW1 7624   1.029   4.633   1.537 -1.2705  0.2632  0.8510
 2136SOL    HW2 7625   1.022   4.541   1.416 -0.4655  2.0927 -0.6342
 2137SOL     OW 7626   1.196   5.197   1.466  0.1515 -0.0140 -0.1001
 2137SOL    HW1 7627   1.159   5.279   1.500  2.8200  1.1372  0.2680
 2137SOL    HW2 7628   1.223   5.149   1.544  2.4754  0.7518 -0.3482
 2138SOL     OW 7629   0.637   4.830   0.833  0.2258 -0.5118 -0.0589
 2138SOL    HW1 7630   0.583   4.892   0.784  1.6256  1.0007  0.2113
 2138SOL    HW2 7631   0.597   4.827   0.920  0.7746  0.9363  0.2756
 2139SOL     OW 7632   0.714   5.890   1.389  0.5402 -0.1233  0.0105
 2139SOL    HW1 7633   0.652   5.864   1.457  1.1135 -0.8784  0.2664
 2139SOL    HW2 7634   0.667   5.876   1.307 -0.3740  1.3820  0.2427
 2140SOL     OW 7635   1.029   4.299   0.298  0.3462 -0.2689  0.8013
 2140SOL    HW1 7636   1.100   4.318   0.359 -0.0677 -0.3170  1.3012
 2140SOL    HW2 7637   0.974   4.377   0.300  0.2366 -0.3415  0.6261
 2141SOL     OW 7638   0.025   4.372   1.329  0.0440 -0.4809 -0.4981
 2141SOL    HW1 7639  -0.066   4.343   1.324 -0.6035  1.6279 -2.1873
 2141SOL    HW2 7640   0.027   4.431   1.405  0.6683 -2.3994  1.0791
 2142SOL     OW 7641   0.288   3.827   1.215  0.0961 -0.0728  0.4639
 2142SOL    HW1 7642   0.347   3.812   1.288 -1.0233  1.1323  1.6682
 2142SOL    HW2 7643   0.294   3.921   1.197  1.4351 -0.5481 -1.9927
 2143SOL     OW 7644   0.752   3.780   0.461  0.1778  0.3266  0.1712
 2143SOL    HW1 7645   0.694   3.849   0.490  1.0802  0.3499  2.1063
 2143SOL    HW2 7646   0.838   3.805   0.495  2.0843  1.6994 -4.7882
 2144SOL     OW 7647   0.713   3.816   1.028 -0.1340  0.5981 -0.1731
 2144SOL    HW1 7648   0.624   3.781   1.020 -0.6040  1.5922  0.4901
 2144SOL    HW2 7649   0.762   3.772   0.959 -1.0686 -0.1936 -0.3544
 2145SOL     OW 7650   0.749   4.966   1.078 -0.0057 -0.2062  0.1413
 2145SOL    HW1 7651   0.663   4.926   1.065 -0.3581 -0.1238  2.0555
 2145SOL    HW2 7652   0.741   5.018   1.157  1.5036  0.7320 -0.2754
 2146SOL     OW 7653   1.893   4.008   0.965  0.4556 -0.5731 -0.2039
 2146SOL    HW1 7654   1.928   3.920   0.974  1.2486 -0.1913  0.6431
 2146SOL    HW2 7655   1.916   4.034   0.876 -1.3106 -1.8392 -1.0762
 2147SOL     OW 7656   1.844   4.159   0.589 -0.4808  0.0915 -0.0989
 2147SOL    HW1 7657   1.906   4.135   0.658  0.3154 -0.3322 -0.9247
 2147SOL    HW2 7658   1.795   4.233   0.624  0.3732  0.3141  0.6576
 2148SOL     OW 7659   0.376   4.908   0.534  0.5199 -0.0630  0.0814
 2148SOL    HW1 7660   0.427   4.943   0.607 -1.1535 -0.2906  1.4222
 2148SOL    HW2 7661   0.324   4.838   0.573 -0.8873  0.2173 -1.1998
 2149SOL     OW 7662   1.576   4.944   0.514  0.1403  0.3441  0.1138
 2149SOL    HW1 7663   1.574   4.882   0.587 -0.5822  0.6861  0.3953
 2149SOL    HW2 7664   1.533   4.899   0.442  1.5530 -0.2951 -0.3672
 2150SOL     OW 7665   1.447   4.309   0.376 -0.1591 -0.3745  0.6076
 2150SOL    HW1 7666   1.457   4.223   0.416  1.5561 -0.6438 -0.2907
 2150SOL    HW2 7667   1.461   4.293   0.283  2.7013  1.2035  0.6834
 2151SOL     OW 7668   0.045   4.441   0.174 -0.1510 -0.7798  0.3413
 2151SOL    HW1 7669   0.060   4.360   0.126  1.1089 -0.5005  0.2187
 2151SOL    HW2 7670  -0.006   4.496   0.114 -0.4716 -1.2453  0.1880
 2152SOL     OW 7671   1.672   4.956   1.872  0.0068 -0.2307 -0.0731
 2152SOL    HW1 7672   1.627   5.017   1.930 -0.4526 -0.0773 -0.5894
 2152SOL    HW2 7673   1.654   4.987   1.784 -0.5268 -1.2990 -0.3604
 2153SOL     OW 7674   0.931   4.946   1.755  0.1869 -0.7014  0.5292
 2153SOL    HW1 7675   0.862   4.924   1.817 -1.8944  1.1687 -0.9909
 2153SOL    HW2 7676   1.011   4.911   1.795 -1.3041 -1.1715  3.3266
 2154SOL     OW 7677   1.344   5.619   1.936  0.0252  0.0258 -0.0236
 2154SOL    HW1 7678   1.273   5.646   1.995 -2.3335 -0.5022 -2.4069
 2154SOL    HW2 7679   1.339   5.524   1.934  1.8520 -0.1296  0.8847
 2155SOL     OW 7680   0.634   4.605   1.200  0.1200 -0.2953 -0.2489
 2155SOL    HW1 7681   0.613   4.686   1.154 -1.8854 -1.1912 -1.0439
 2155SOL    HW2 7682   0.568   4.543   1.170  0.2771 -1.6368  1.9525
 2156SOL     OW 7683   1.640   4.875   1.134 -0.2566 -0.0331  0.5415
 2156SOL    HW1 7684   1.689   4.811   1.082  0.0724  0.9078 -0.3539
 2156SOL    HW2 7685   1.677   4.868   1.222  0.5168 -0.3120  0.2032
 2157SOL     OW 7686   1.052   3.701   1.526  0.0004 -0.6019  0.2556
 2157SOL    HW1 7687   1.055   3.701   1.622  0.5492 -1.1552  0.2465
 2157SOL    HW2 7688   1.130   3.749   1.500  0.5337 -1.5463  0.0828
 2158SOL     OW 7689   1.227   4.849   1.636 -0.3000  0.3678 -0.0057
 2158SOL    HW1 7690   1.274   4.827   1.556 -0.5229 -0.0766 -0.0167
 2158SOL    HW2 7691   1.277   4.921   1.674 -0.3355  0.7510 -0.6727
 2159SOL     OW 7692   1.030   4.528   0.876  0.1548  0.6738  0.0012
 2159SOL    HW1 7693   0.958   4.470   0.900 -0.4011  1.2663 -0.2205
 2159SOL    HW2 7694   1.099   4.469   0.846  0.5130 -0.0390  2.0660
 2160SOL     OW 7695   0.278   4.077   1.414 -0.2503  0.5381  0.3995
 2160SOL    HW1 7696   0.360   4.027   1.414  1.6527  3.2033 -3.4533
 2160SOL    HW2 7697   0.305   4.168   1.424 -2.7880  1.4946 -0.6084
 2161SOL     OW 7698   1.296   3.500   1.630  0.5312  0.8103 -0.2688
 2161SOL    HW1 7699   1.297   3.531   1.539  0.5286 -1.5355 -1.1398
 2161SOL    HW2 7700   1.298   3.405   1.623 -0.2032  0.5372  2.2017
 2162SOL     OW 7701   8.771   5.252   1.689 -0.2295 -0.0830  0.1818
 2162SOL    HW1 7702   8.861   5.223   1.673 -0.1706 -0.6394  1.3724
 2162SOL    HW2 7703   8.728   5.244   1.604  1.0558  1.0490 -0.6232
 2163SOL     OW 7704   0.189   4.743   0.670  0.4765 -0.4685  0.3874
 2163SOL    HW1 7705   0.144   4.660   0.681  0.5131 -0.7857 -1.5409
 2163SOL    HW2 7706   0.119   4.807   0.654  0.4208 -0.0160  2.2112
 2164SOL     OW 7707   0.474   4.453   1.026 -0.1797 -0.0772  0.1787
 2164SOL    HW1 7708   0.418   4.464   0.949 -1.5967  1.6288  1.3801
 2164SOL    HW2 7709   0.504   4.362   1.021 -2.0335 -0.6660 -1.1980
 2165SOL     OW 7710   1.363   5.599   0.848 -0.1053  0.1516  0.5582
 2165SOL    HW1 7711   1.285   5.553   0.817  0.2081  0.2426 -0.3828
 2165SOL    HW2 7712   1.419   5.607   0.771  0.8467  0.0789  1.2247
 2166SOL     OW 7713   1.368   5.089   1.701  0.2213  0.0731  0.5162
 2166SOL    HW1 7714   1.377   5.112   1.794  0.7983  0.9212  0.2606
 2166SOL    HW2 7715   1.435   5.141   1.657  0.4017 -0.8220 -0.3090
 2167SOL     OW 7716   1.685   4.356   0.730  0.3313 -0.1554  0.0164
 2167SOL    HW1 7717   1.652   4.442   0.703  1.2557 -0.1575 -1.2320
 2167SOL    HW2 7718   1.667   4.351   0.824 -0.1319  1.2184  0.0177
 2168SOL     OW 7719   0.476   5.132   1.482 -0.3564 -0.3853  0.0688
 2168SOL    HW1 7720   0.472   5.182   1.564  1.1588 -0.4563  0.2291
 2168SOL    HW2 7721   0.545   5.067   1.498  1.2032  0.7125 -1.8114
 2169SOL     OW 7722   1.114   4.255   1.595  0.3528  0.0001 -0.0130
 2169SOL    HW1 7723   1.200   4.291   1.574  0.4936 -0.5381 -0.3877
 2169SOL    HW2 7724   1.056   4.330   1.596  0.9700  0.4944  1.0865
 2170SOL     OW 7725   2.026   4.398   1.493  0.2318  0.0913  0.1834
 2170SOL    HW1 7726   1.935   4.367   1.484  0.6386 -0.7604 -1.2388
 2170SOL    HW2 7727   2.020   4.492   1.478 -0.5505  0.2136  1.1313
 2171SOL     OW 7728   1.031   3.993   2.132  0.0588 -0.4207  0.2011
 2171SOL    HW1 7729   1.113   4.001   2.084  0.2089 -0.4970  0.4414
 2171SOL    HW2 7730   0.978   3.932   2.081 -1.5801  2.8346 -2.3522
 2172SOL     OW 7731   0.634   3.771   2.002  0.0657 -0.2878  0.1738
 2172SOL    HW1 7732   0.728   3.787   2.012  0.2715 -1.2631 -0.0734
 2172SOL    HW2 7733   0.627   3.677   1.989 -1.1267 -0.4989  2.0673
 2173SOL     OW 7734   0.478   4.290   1.291  0.7645  0.7212 -0.1625
 2173SOL    HW1 7735   0.447   4.337   1.368 -0.8717 -2.8937  1.5729
 2173SOL    HW2 7736   0.563   4.254   1.317  0.9623  0.8294 -0.6479
 2174SOL     OW 7737   1.460   4.552   0.977  0.4580 -0.1260  0.3029
 2174SOL    HW1 7738   1.385   4.576   0.923 -0.8298 -1.9134  1.2097
 2174SOL    HW2 7739   1.445   4.600   1.059  1.7486  1.5875 -0.4022
 2175SOL     OW 7740   1.095   4.126   0.093 -0.3682 -0.4067 -0.0092
 2175SOL    HW1 7741   1.179   4.141   0.048 -0.0941 -0.0983  0.5958
 2175SOL    HW2 7742   1.088   4.199   0.155 -0.4180 -1.1874  0.9210
 2176SOL     OW 7743   0.018   3.840   1.125  0.2819 -0.7345 -0.3240
 2176SOL    HW1 7744  -0.012   3.912   1.181  0.5392 -1.3331  0.6140
 2176SOL    HW2 7745   0.107   3.820   1.157  0.1156 -1.6376 -0.3864
 2177SOL     OW 7746   8.554   4.922   1.235  0.5027  0.0438  0.1374
 2177SOL    HW1 7747   8.557   4.878   1.320  0.7988 -0.1452  0.0276
 2177SOL    HW2 7748   8.576   4.855   1.171  0.7854  0.3078 -0.0469
 2178SOL     OW 7749   0.573   4.065   1.004 -0.0808 -0.0524 -0.5056
 2178SOL    HW1 7750   0.630   4.100   0.936 -1.9140  1.0447 -1.5495
 2178SOL    HW2 7751   0.616   3.984   1.031  0.7311 -0.5430 -2.9732
 2179SOL     OW 7752   2.025   4.736   2.050 -0.0681 -0.3386  0.2828
 2179SOL    HW1 7753   1.963   4.732   2.123 -0.4443 -1.0349 -0.0600
 2179SOL    HW2 7754   2.057   4.646   2.041 -0.2005 -0.3098 -0.5543
 2180SOL     OW 7755   0.275   3.241   0.553  0.3511  0.1387 -0.7231
 2180SOL    HW1 7756   0.203   3.185   0.585 -0.6718  1.7188 -0.1486
 2180SOL    HW2 7757   0.324   3.263   0.632 -0.6983  1.9986 -0.5429
 2181SOL     OW 7758   1.952   3.883   0.587 -0.2481  0.1264 -0.1048
 2181SOL    HW1 7759   1.870   3.847   0.621  1.1582 -1.9622  1.3776
 2181SOL    HW2 7760   1.982   3.943   0.655  0.7681 -1.2632  0.7322
 2182SOL     OW 7761   1.077   3.699   1.084 -0.1110 -0.0387  0.1318
 2182SOL    HW1 7762   1.054   3.621   1.134  2.1517 -1.7257 -1.2794
 2182SOL    HW2 7763   1.014   3.700   1.012  0.3237 -1.0321 -0.2802
 2183SOL     OW 7764   0.563   4.651   1.835  0.2635  0.1663 -0.2026
 2183SOL    HW1 7765   0.537   4.640   1.743  1.5617 -1.0844 -0.4657
 2183SOL    HW2 7766   0.549   4.564   1.873 -0.0457  0.6224  0.7317
 2184SOL     OW 7767   1.739   5.435   1.695 -0.5381 -0.0409  0.6870
 2184SOL    HW1 7768   1.674   5.467   1.632  0.4595  1.6207  0.4169
 2184SOL    HW2 7769   1.718   5.343   1.707 -0.8070 -0.4327 -2.0849
 2185SOL     OW 7770   0.698   4.487   1.638  0.4747 -0.2276 -0.3840
 2185SOL    HW1 7771   0.662   4.403   1.611  0.1211 -0.1507 -0.1497
 2185SOL    HW2 7772   0.749   4.468   1.717 -0.8571  0.0242  0.5603
 2186SOL     OW 7773   1.670   3.869   0.507  0.2598  0.1252 -0.2331
 2186SOL    HW1 7774   1.595   3.833   0.459 -0.5746  1.2082  0.2303
 2186SOL    HW2 7775   1.684   3.808   0.579 -0.2806  0.0064 -0.2269
 2187SOL     OW 7776   1.314   4.520   0.155  0.5418  0.3109  0.2438
 2187SOL    HW1 7777   1.375   4.447   0.171  0.4997 -0.2253 -1.8138
 2187SOL    HW2 7778   1.277   4.538   0.241  0.7489 -1.9415  0.8817
 2188SOL     OW 7779   1.031   5.482   1.416 -0.1359 -0.3192  0.3129
 2188SOL    HW1 7780   1.002   5.545   1.482  0.4853 -2.1802  2.4934
 2188SOL    HW2 7781   1.098   5.527   1.366 -2.0437  1.8331 -0.4777
 2189SOL     OW 7782   0.236   4.504   1.208 -0.1054 -0.0056  0.2301
 2189SOL    HW1 7783   0.311   4.465   1.163 -0.1599  0.4108 -0.2277
 2189SOL    HW2 7784   0.197   4.431   1.256  0.8112 -0.1462  0.7832
 2190SOL     OW 7785   0.069   4.176   1.147 -0.4645 -0.1660 -0.1270
 2190SOL    HW1 7786   0.069   4.242   1.216 -0.7550 -1.1860  0.8746
 2190SOL    HW2 7787   0.160   4.147   1.141 -0.4381 -0.0721 -0.1833
 2191SOL     OW 7788   1.332   3.840   1.894 -0.2599 -0.7490  0.0105
 2191SOL    HW1 7789   1.402   3.885   1.845  0.8114 -0.9548  1.2837
 2191SOL    HW2 7790   1.287   3.911   1.941 -1.1042 -0.5848 -1.0209
 2192SOL     OW 7791   1.174   3.648   1.789  0.8185 -0.6796  0.0635
 2192SOL    HW1 7792   1.242   3.711   1.814  1.3717 -0.3119 -2.1592
 2192SOL    HW2 7793   1.219   3.584   1.734  0.1636 -2.8118  1.8953
 2193SOL     OW 7794   8.816   4.925   0.661  0.1449  0.3511 -0.2106
 2193SOL    HW1 7795   8.777   5.011   0.649 -0.6026  0.0919  0.2480
 2193SOL    HW2 7796   8.782   4.872   0.589  1.8882  0.8376 -1.4549
 2194SOL     OW 7797   8.605   5.525   0.898 -0.1121  0.6120 -0.3638
 2194SOL    HW1 7798   8.543   5.454   0.876 -0.5711 -0.1329  2.8050
 2194SOL    HW2 7799   8.561   5.605   0.869 -0.6628 -0.1884 -1.8625
 2195SOL     OW 7800   0.508   5.052   0.738 -0.4885 -0.5944  0.0508
 2195SOL    HW1 7801   0.451   5.058   0.815  0.7228 -1.7379  1.0974
 2195SOL    HW2 7802   0.578   5.114   0.756 -0.2574 -0.7865 -0.1826
 2196SOL     OW 7803   1.157   4.343   1.237  0.2593 -0.0719  0.1672
 2196SOL    HW1 7804   1.222   4.388   1.291 -0.8257  0.4241  1.0787
 2196SOL    HW2 7805   1.087   4.407   1.224 -0.1865 -0.6865 -0.5794
 2197SOL     OW 7806   8.650   3.658   1.640  0.1779  0.2079  0.6335
 2197SOL    HW1 7807   8.582   3.617   1.586 -0.5944  2.1962 -0.0146
 2197SOL    HW2 7808   8.614   3.744   1.662  1.7834  0.6381  1.7461
 2198SOL     OW 7809   0.063   4.096   1.627 -0.2307  0.2824  0.6539
 2198SOL    HW1 7810   0.018   4.012   1.634  0.6530 -0.3308 -0.5792
 2198SOL    HW2 7811   0.133   4.080   1.563  1.4561  1.3147  2.1580
 2199SOL     OW 7812   1.486   4.602   1.650 -0.3800 -0.3602  0.0234
 2199SOL    HW1 7813   1.568   4.624   1.694 -0.4936 -0.7108  0.4212
 2199SOL    HW2 7814   1.477   4.667   1.580 -0.4110  0.4675  0.7881
 2200SOL     OW 7815   0.572   3.958   0.524  0.1901 -0.4896 -0.4742
 2200SOL    HW1 7816   0.528   3.942   0.607  2.5670  0.7313  1.1097
 2200SOL    HW2 7817   0.521   4.027   0.482 -0.7129 -0.7267  0.2052
 2201SOL     OW 7818   1.383   4.363   1.556  0.2616  0.4620  0.2651
 2201SOL    HW1 7819   1.420   4.438   1.603  1.0195  0.6635 -0.6086
 2201SOL    HW2 7820   1.425   4.366   1.470 -1.6530  0.5737 -0.7175
 2202SOL     OW 7821   0.167   5.231   1.574  0.4514 -0.2244 -0.1436
 2202SOL    HW1 7822   0.157   5.257   1.483  0.8791 -0.4250 -0.2482
 2202SOL    HW2 7823   0.256   5.256   1.597  1.3113 -2.6158 -0.5971
 2203SOL     OW 7824   0.763   3.881   1.282  0.0833  0.0071  0.0066
 2203SOL    HW1 7825   0.814   3.957   1.255  2.0979 -1.3717 -0.3089
 2203SOL    HW2 7826   0.734   3.841   1.200 -1.1635  0.5466  0.1756
 2204SOL     OW 7827   0.372   5.425   1.626  0.0967  0.0568 -0.4327
 2204SOL    HW1 7828   0.334   5.476   1.698  1.3833  0.5136 -0.0479
 2204SOL    HW2 7829   0.408   5.347   1.668  0.3591  0.0523 -0.6663
 2205SOL     OW 7830   0.273   4.023   0.214  0.5002  0.1589 -0.3428
 2205SOL    HW1 7831   0.329   4.024   0.137  0.4915 -0.3784 -0.3590
 2205SOL    HW2 7832   0.285   4.109   0.253 -1.2446  1.3235 -2.1835
 2206SOL     OW 7833   0.352   4.838   1.303  0.5569 -0.5467  0.1369
 2206SOL    HW1 7834   0.350   4.864   1.395 -1.0872  0.2517 -0.0986
 2206SOL    HW2 7835   0.286   4.769   1.297 -0.8064  0.7834 -0.8050
 2207SOL     OW 7836   0.986   4.844   1.492  0.5090 -0.3660 -0.3025
 2207SOL    HW1 7837   1.070   4.864   1.533  0.1693  0.8569 -0.1512
 2207SOL    HW2 7838   0.921   4.868   1.559 -0.0207  0.7805 -1.1933
 2208SOL     OW 7839   1.363   4.652   0.695  0.1579 -0.3732  0.1656
 2208SOL    HW1 7840   1.296   4.719   0.684  0.1241 -0.2945  0.8100
 2208SOL    HW2 7841   1.389   4.628   0.605 -0.7834 -0.4701 -0.0881
 2209SOL     OW 7842   2.241   5.371   0.744  0.5114 -0.0862  0.1740
 2209SOL    HW1 7843   2.290   5.384   0.825  0.7378 -1.5490  0.3104
 2209SOL    HW2 7844   2.243   5.276   0.731  0.6008  0.1287 -1.6202
 2210SOL     OW 7845   1.758   5.722   1.215 -0.2207 -0.3142  0.2500
 2210SOL    HW1 7846   1.681   5.667   1.231  0.4844 -0.7992  2.2695
 2210SOL    HW2 7847   1.832   5.664   1.232  0.6061  0.3254 -1.0391
 2211SOL     OW 7848   0.020   4.635   0.901  0.0810 -0.2834  0.1497
 2211SOL    HW1 7849   0.007   4.608   0.810  1.6442 -0.9324  0.0864
 2211SOL    HW2 7850  -0.006   4.559   0.952 -0.6959  0.0446  0.2598
 2212SOL     OW 7851   0.336   5.637   1.442  0.5372 -0.3692  0.3985
 2212SOL    HW1 7852   0.326   5.553   1.486 -0.8552 -0.8665 -0.7582
 2212SOL    HW2 7853   0.328   5.616   1.349 -2.1360  1.2508  0.1326
 2213SOL     OW 7854   1.328   4.368   8.612  0.0057  0.1059 -0.3986
 2213SOL    HW1 7855   1.367   4.404   8.532  2.2058 -1.2965 -0.0577
 2213SOL    HW2 7856   1.384   4.400   8.683 -1.4719  0.7259  0.5301
 2214SOL     OW 7857   1.806   3.615   1.272 -0.2743  0.2295 -0.2440
 2214SOL    HW1 7858   1.765   3.546   1.220 -0.4588  1.8674 -2.4196
 2214SOL    HW2 7859   1.736   3.650   1.326 -0.5383 -0.2373 -0.2786
 2215SOL     OW 7860   1.381   5.265   1.001 -0.5698  0.1316  0.0525
 2215SOL    HW1 7861   1.360   5.298   0.913  0.5505 -0.8893 -0.6328
 2215SOL    HW2 7862   1.470   5.297   1.018 -0.8451  0.4724  0.9091
 2216SOL     OW 7863   0.028   5.724   1.943 -0.2847 -0.6010 -0.5321
 2216SOL    HW1 7864  -0.036   5.790   1.915  0.1531 -0.3801 -1.0324
 2216SOL    HW2 7865  -0.013   5.640   1.921 -1.7881 -0.6477  2.0287
 2217SOL     OW 7866   1.238   4.393   0.761 -0.3179 -0.3645  0.3283
 2217SOL    HW1 7867   1.296   4.319   0.779  0.2557 -0.6243 -2.1978
 2217SOL    HW2 7868   1.296   4.462   0.729 -1.2469 -0.3084 -1.3590
 2218SOL     OW 7869   0.676   4.698   1.482  0.2241 -0.5106 -0.3955
 2218SOL    HW1 7870   0.696   4.621   1.534  1.7050  0.3177  0.3453
 2218SOL    HW2 7871   0.675   4.667   1.392  0.0105 -1.5213 -0.0532
 2219SOL     OW 7872   0.806   5.375   0.195  0.1430  0.2505  0.6256
 2219SOL    HW1 7873   0.865   5.317   0.243 -0.5394  0.5509  1.8753
 2219SOL    HW2 7874   0.727   5.379   0.249 -1.4478 -0.9184 -1.4528
 2220SOL     OW 7875   1.950   5.424   1.513 -0.0474 -0.1988  0.7311
 2220SOL    HW1 7876   1.936   5.343   1.466  0.4116 -0.4019  0.9348
 2220SOL    HW2 7877   1.872   5.435   1.567 -0.3155 -0.2609  0.3572
 2221SOL     OW 7878   1.578   3.715   1.352  0.0373 -0.3394 -0.3070
 2221SOL    HW1 7879   1.582   3.800   1.396 -1.0079  0.0010 -0.8312
 2221SOL    HW2 7880   1.492   3.680   1.375 -0.1622 -0.5552 -1.3252
 2222SOL     OW 7881   8.787   4.028   0.655  0.0722  0.4813  0.3135
 2222SOL    HW1 7882   8.848   4.071   0.717  0.2646 -0.4951  0.8161
 2222SOL    HW2 7883   8.771   3.942   0.693 -0.0339 -0.0334 -0.8655
 2223SOL     OW 7884   1.073   5.191   0.059 -0.0385  0.0740 -0.0713
 2223SOL    HW1 7885   1.059   5.097   0.053 -0.4152  0.1403 -0.2291
 2223SOL    HW2 7886   1.043   5.226  -0.025 -0.9725  0.4579  0.4061
 2224SOL     OW 7887   1.076   4.061   0.969 -0.0779 -0.6939 -0.0805
 2224SOL    HW1 7888   1.092   3.978   0.925 -0.0827 -0.7723  0.0650
 2224SOL    HW2 7889   1.151   4.115   0.946 -0.7785 -0.2183 -1.4019
 2225SOL     OW 7890   1.168   4.697   1.041  0.1573  0.1184  0.0478
 2225SOL    HW1 7891   1.121   4.626   0.998  0.5105 -2.1273  3.0260
 2225SOL    HW2 7892   1.108   4.728   1.109  0.3326  2.1933 -0.6725
 2226SOL     OW 7893   1.726   5.631   0.251  0.0797 -0.5431 -0.0588
 2226SOL    HW1 7894   1.773   5.711   0.228 -1.0685 -0.0023 -0.6061
 2226SOL    HW2 7895   1.753   5.612   0.341  0.3203  0.5001  0.0974
 2227SOL     OW 7896   8.775   5.042   1.456 -0.2323  0.2144 -0.1428
 2227SOL    HW1 7897   8.817   5.009   1.377 -0.9588 -0.5182 -0.2395
 2227SOL    HW2 7898   8.713   5.107   1.424  0.1170  0.5752 -0.0902
 2228SOL     OW 7899   1.611   5.167   1.294 -0.7537 -0.5505 -0.2204
 2228SOL    HW1 7900   1.649   5.196   1.212 -0.3178 -0.8205 -0.1195
 2228SOL    HW2 7901   1.525   5.209   1.298 -0.1426  0.7372 -0.0704
 2229SOL     OW 7902   0.995   4.808   1.223 -0.5179 -0.3168  0.4487
 2229SOL    HW1 7903   0.977   4.828   1.314  0.9511 -0.2303  0.7437
 2229SOL    HW2 7904   0.917   4.838   1.176 -1.0275  0.2171  1.5940
 2230SOL     OW 7905   1.176   3.897   1.270 -0.7449  0.7273  0.2425
 2230SOL    HW1 7906   1.140   3.831   1.211  0.0453 -0.8624  1.4735
 2230SOL    HW2 7907   1.099   3.943   1.304 -1.4125 -0.5103  0.4426
 2231SOL     OW 7908   0.962   5.243   0.597 -0.3283 -0.3435  0.7851
 2231SOL    HW1 7909   1.036   5.190   0.626  0.8916 -0.4152 -2.0760
 2231SOL    HW2 7910   0.924   5.192   0.525 -0.0463  1.9047 -1.0823
 2232SOL     OW 7911   1.562   3.885   1.728 -0.4840  0.4158 -0.4249
 2232SOL    HW1 7912   1.620   3.945   1.682 -0.4745 -0.2863 -1.3565
 2232SOL    HW2 7913   1.617   3.810   1.749 -0.6542  0.4529  0.1563
 2233SOL     OW 7914   0.369   5.257   0.554  0.3600  0.2318  0.1803
 2233SOL    HW1 7915   0.350   5.319   0.624 -3.6392 -2.3769  1.7719
 2233SOL    HW2 7916   0.427   5.192   0.595  0.6481  0.4080  0.0498
 2234SOL     OW 7917   0.415   4.659   1.556 -0.0639  0.2287  0.4818
 2234SOL    HW1 7918   0.503   4.672   1.519  0.8985  2.3045  3.1549
 2234SOL    HW2 7919   0.369   4.740   1.534 -1.1319 -0.5528 -0.2697
 2235SOL     OW 7920   0.812   3.861   1.551 -0.2565 -0.0175 -0.1627
 2235SOL    HW1 7921   0.884   3.798   1.554  1.2299  1.5891  0.0097
 2235SOL    HW2 7922   0.794   3.872   1.457  1.3264  1.2363 -0.3564
 2236SOL     OW 7923   8.787   3.697   8.480  0.2312 -0.1397  0.4502
 2236SOL    HW1 7924   8.860   3.758   8.483 -0.4565  0.9040 -2.0159
 2236SOL    HW2 7925   8.789   3.654   8.566  2.5556  1.1755  1.1517
 2237SOL     OW 7926   1.739   4.380   1.494  0.5240  0.3127  0.2524
 2237SOL    HW1 7927   1.722   4.474   1.503  0.1457  0.1749  1.1069
 2237SOL    HW2 7928   1.684   4.353   1.420  1.3570  0.9319 -0.6180
 2238SOL     OW 7929   8.779   4.053   0.326 -0.3834  0.0478  0.2588
 2238SOL    HW1 7930   8.840   4.031   0.396  0.4570  2.3640  0.3244
 2238SOL    HW2 7931   8.693   4.029   0.362  0.2630 -1.3606  0.9589
 2239SOL     OW 7932   1.253   4.874   0.830 -0.6893  0.1895  0.0587
 2239SOL    HW1 7933   1.236   4.804   0.893  0.7155  0.0460  0.3183
 2239SOL    HW2 7934   1.315   4.932   0.874 -1.7881  1.5813 -0.1802
 2240SOL     OW 7935   0.731   4.215   1.372  0.2223 -0.0675  0.4526
 2240SOL    HW1 7936   0.809   4.206   1.317  0.1146 -0.5764  0.3741
 2240SOL    HW2 7937   0.744   4.151   1.442 -0.7203 -1.1229 -0.2864
 2241SOL     OW 7938   2.172   5.365   1.182  0.0005  0.6623  0.0867
 2241SOL    HW1 7939   2.132   5.439   1.136  0.1456 -0.1137 -1.3548
 2241SOL    HW2 7940   2.259   5.356   1.143  0.1287 -0.0251  0.5100
 2242SOL     OW 7941   1.046   4.088   1.800  0.1976  0.2465 -0.1248
 2242SOL    HW1 7942   1.128   4.092   1.849 -0.5363  3.1280  1.1266
 2242SOL    HW2 7943   1.062   4.142   1.722 -0.4732  0.8452  0.1375
 2243SOL     OW 7944   1.689   4.680   1.815  0.3925 -0.1290 -0.1555
 2243SOL    HW1 7945   1.705   4.613   1.881  0.4115  0.5339  0.5346
 2243SOL    HW2 7946   1.670   4.759   1.866  2.0036  0.7957 -0.9055
 2244SOL     OW 7947   0.304   5.514   1.193  0.3021 -0.6002  0.3117
 2244SOL    HW1 7948   0.213   5.485   1.188  0.2862 -0.3662 -1.3145
 2244SOL    HW2 7949   0.355   5.433   1.204  0.0703 -1.0540 -1.6000
 2245SOL     OW 7950   1.550   4.322   1.300 -0.0704  0.2027 -0.7239
 2245SOL    HW1 7951   1.611   4.335   1.228 -0.0318  0.0745 -0.7145
 2245SOL    HW2 7952   1.519   4.232   1.290  0.4019 -0.0231 -0.2255
 2246SOL     OW 7953   1.172   3.852   0.771 -0.6708 -0.0514  0.1202
 2246SOL    HW1 7954   1.193   3.790   0.841 -1.6070 -1.4984 -0.8155
 2246SOL    HW2 7955   1.252   3.904   0.761  1.1245 -2.7028 -0.6234
 2247SOL     OW 7956   0.799   4.410   0.945 -0.2475 -0.7042  0.1501
 2247SOL    HW1 7957   0.794   4.320   0.911  0.4038 -0.3316 -0.9902
 2247SOL    HW2 7958   0.731   4.457   0.897  1.0524 -0.0422 -1.1158
 2248SOL     OW 7959   1.838   4.121   1.656 -0.3795 -0.1493  0.4760
 2248SOL    HW1 7960   1.792   4.196   1.617 -0.8663 -0.9591 -0.5293
 2248SOL    HW2 7961   1.900   4.093   1.589  0.2547 -0.2619  1.0955
 2249SOL     OW 7962   1.941   4.753   1.764 -0.2324 -0.6449  0.0452
 2249SOL    HW1 7963   1.865   4.698   1.782  0.2022 -1.1764  0.2946
 2249SOL    HW2 7964   1.983   4.765   1.850  0.7606 -1.5670 -0.2805
 2250SOL     OW 7965   0.847   5.144   0.368 -0.2456 -0.2049  0.3721
 2250SOL    HW1 7966   0.918   5.080   0.368 -0.2284 -0.2111 -1.0315
 2250SOL    HW2 7967   0.767   5.091   0.366 -0.2257 -0.2261 -1.4430
 2251SOL     OW 7968   0.611   5.822   1.124  0.0619 -0.2966 -0.3853
 2251SOL    HW1 7969   0.537   5.869   1.084 -1.6557 -0.6075  2.2102
 2251SOL    HW2 7970   0.602   5.733   1.092 -0.3900 -0.2179 -0.4927
 2252SOL     OW 7971   0.911   4.511   1.247 -0.3508  0.3560  0.0589
 2252SOL    HW1 7972   0.834   4.566   1.262  0.0827  1.1985 -0.7083
 2252SOL    HW2 7973   0.890   4.463   1.166  0.2342  1.1784 -0.5967
 2253SOL     OW 7974   1.264   4.977   0.258  0.4594 -0.2726  0.9194
 2253SOL    HW1 7975   1.297   5.065   0.241  0.5702 -0.5460 -0.4231
 2253SOL    HW2 7976   1.342   4.924   0.274  0.5801 -0.5233 -0.3414
 2254SOL     OW 7977   1.924   5.520   1.231 -0.2237 -0.0044 -0.5330
 2254SOL    HW1 7978   1.987   5.521   1.303  0.3214  0.8384 -1.0059
 2254SOL    HW2 7979   1.886   5.432   1.234  0.0558 -0.1070  0.5452
 2255SOL     OW 7980   0.238   4.925   1.535  0.0209 -0.4547 -0.1823
 2255SOL    HW1 7981   0.165   4.863   1.541  0.3142 -0.8531 -0.6905
 2255SOL    HW2 7982   0.199   5.010   1.556 -0.2566 -0.8877  1.1615
 2256SOL     OW 7983   0.010   4.961   1.202  0.3929  0.0014  0.5209
 2256SOL    HW1 7984   0.028   4.962   1.108 -0.1075 -0.0910  0.4229
 2256SOL    HW2 7985  -0.082   4.936   1.209  0.1978  0.8076  1.0002
 2257SOL     OW 7986   0.822   4.681   1.952  0.3926 -0.5772  0.0313
 2257SOL    HW1 7987   0.813   4.587   1.937  0.0254 -0.7185  1.0820
 2257SOL    HW2 7988   0.749   4.720   1.904 -0.4434 -0.9709  0.9607
 2258SOL     OW 7989   1.809   3.763   1.784 -0.3158 -0.0610  0.0695
 2258SOL    HW1 7990   1.853   3.766   1.700 -0.7571  1.9105 -0.1422
 2258SOL    HW2 7991   1.853   3.830   1.837 -0.3181 -0.9770  1.2775
 2259SOL     OW 7992   0.397   3.929   0.744 -0.3075 -0.2639  0.2296
 2259SOL    HW1 7993   0.450   3.934   0.824 -0.8737  0.0694  0.5964
 2259SOL    HW2 7994   0.316   3.975   0.767 -0.4288 -0.0617 -0.5786
 2260SOL     OW 7995   1.730   4.937   1.389  0.3403  0.2984 -0.3264
 2260SOL    HW1 7996   1.686   5.019   1.368  1.7474  0.6482 -2.1028
 2260SOL    HW2 7997   1.784   4.957   1.466 -3.1905 -0.4218  2.6444
 2261SOL     OW 7998   0.340   4.111   1.124  0.2817 -0.9535  0.3176
 2261SOL    HW1 7999   0.405   4.076   1.062  0.1172  0.2280 -0.5576
 2261SOL    HW2 8000   0.393   4.158   1.189  0.3657 -0.6896  0.0640
 2262SOL     OW 8001   0.685   5.318   0.658  0.0093  0.0163  0.0340
 2262SOL    HW1 8002   0.676   5.392   0.717 -0.3071  0.6259 -0.7667
 2262SOL    HW2 8003   0.779   5.298   0.658  0.1894  0.8258 -0.2307
 2263SOL     OW 8004   1.709   3.384   1.121  0.8127 -0.7409  0.2935
 2263SOL    HW1 8005   1.675   3.360   1.035  4.2061 -2.1245 -0.8469
 2263SOL    HW2 8006   1.650   3.341   1.183 -0.9640 -0.7980 -1.3366
 2264SOL     OW 8007   1.256   3.406   1.184  0.3694 -0.1510 -0.0947
 2264SOL    HW1 8008   1.267   3.313   1.203 -0.1893  0.0818  1.4797
 2264SOL    HW2 8009   1.181   3.433   1.236 -1.6739  0.4771 -3.0742
 2265SOL     OW 8010   0.907   4.841   0.658  0.1293 -0.0059 -0.3543
 2265SOL    HW1 8011   0.838   4.831   0.593  1.3724 -0.1215 -1.7055
 2265SOL    HW2 8012   0.866   4.816   0.741 -1.9654  1.7638 -0.7750
 2266SOL     OW 8013   0.664   4.958   1.579 -0.1492  0.1617 -0.0907
 2266SOL    HW1 8014   0.673   4.864   1.591  1.2853  0.3899  0.7883
 2266SOL    HW2 8015   0.714   4.997   1.650  0.0158  1.5967 -0.9479
 2267SOL     OW 8016   1.752   3.735   0.732 -1.2153 -0.2415  0.6170
 2267SOL    HW1 8017   1.661   3.730   0.759 -1.0123  0.1926  1.4008
 2267SOL    HW2 8018   1.802   3.737   0.814 -0.5485  0.3164  0.2072
 2268SOL     OW 8019   0.851   4.138   0.845 -0.4989  0.2061  0.0280
 2268SOL    HW1 8020   0.872   4.130   0.752  0.7421  2.1262  0.0735
 2268SOL    HW2 8021   0.936   4.135   0.889 -0.8720  1.4206  0.8842
 2269SOL     OW 8022   1.312   3.714   1.438 -0.7461  0.2684  0.3428
 2269SOL    HW1 8023   1.280   3.741   1.351 -0.0024  1.3883  0.4036
 2269SOL    HW2 8024   1.308   3.793   1.491 -0.1114 -0.1441  1.0236
 2270SOL     OW 8025   0.107   4.686   0.294 -0.0701 -0.0670 -0.4331
 2270SOL    HW1 8026   0.076   4.596   0.285  1.4258 -0.8918  1.7303
 2270SOL    HW2 8027   0.030   4.734   0.325 -0.4317 -1.0104  0.1841
 2271SOL     OW 8028   1.105   5.406   0.270  0.5490  0.2236 -0.4504
 2271SOL    HW1 8029   1.113   5.341   0.340  0.0170 -0.7880 -1.3128
 2271SOL    HW2 8030   1.066   5.359   0.197  0.0195  1.5508 -1.0574
 2272SOL     OW 8031   0.484   4.134   2.274  0.1796 -0.0298 -0.1488
 2272SOL    HW1 8032   0.516   4.173   2.193  1.0725 -0.3257  0.0437
 2272SOL    HW2 8033   0.404   4.088   2.249 -0.6467  1.5048 -0.4673
 2273SOL     OW 8034   0.614   3.737   3.236  0.4140  0.1773 -0.2139
 2273SOL    HW1 8035   0.595   3.654   3.279  3.7813 -2.1612 -2.6484
 2273SOL    HW2 8036   0.543   3.748   3.173 -3.0413  2.2296  3.5516
 2274SOL     OW 8037   0.187   4.132   2.468 -0.2762  0.5440 -0.3954
 2274SOL    HW1 8038   0.108   4.136   2.522 -0.2702  2.6525 -0.4396
 2274SOL    HW2 8039   0.198   4.040   2.447 -1.3804 -0.0889  1.5882
 2275SOL     OW 8040   0.636   5.174   3.393  0.5497 -0.5802 -0.1515
 2275SOL    HW1 8041   0.661   5.120   3.469  0.0247 -0.1230  0.3523
 2275SOL    HW2 8042   0.656   5.264   3.420  1.1088 -0.4800 -0.8630
 2276SOL     OW 8043   1.600   5.233   2.578 -0.5358  0.3931  0.0100
 2276SOL    HW1 8044   1.591   5.326   2.598 -2.2871  0.4295 -0.7295
 2276SOL    HW2 8045   1.613   5.230   2.483  0.9312 -0.0687  0.2091
 2277SOL     OW 8046   1.261   4.154   2.669 -0.1445  0.3685 -0.1604
 2277SOL    HW1 8047   1.340   4.113   2.703 -0.3797 -1.4243 -1.6227
 2277SOL    HW2 8048   1.204   4.163   2.745  0.2756 -1.2376  0.3771
 2278SOL     OW 8049   2.146   4.491   2.000 -0.4294 -0.3149 -0.0533
 2278SOL    HW1 8050   2.225   4.449   2.034 -1.4979 -0.0165  3.1433
 2278SOL    HW2 8051   2.108   4.427   1.940  1.3408 -1.1328 -0.3525
 2279SOL     OW 8052   1.475   4.982   3.150  0.2381 -0.3107  0.0467
 2279SOL    HW1 8053   1.472   4.897   3.193 -0.3819 -0.4345 -0.2271
 2279SOL    HW2 8054   1.483   4.961   3.057  0.6277 -0.0597  0.0221
 2280SOL     OW 8055   0.516   4.210   3.923  0.5356 -0.2040 -0.1788
 2280SOL    HW1 8056   0.511   4.269   3.847  0.0817 -0.8538 -0.6580
 2280SOL    HW2 8057   0.507   4.268   3.998 -1.1230  0.2200 -0.6718
 2281SOL     OW 8058   0.781   4.687   2.432  0.2386  0.8053 -0.2217
 2281SOL    HW1 8059   0.809   4.777   2.450 -1.0867  1.4600 -1.2305
 2281SOL    HW2 8060   0.729   4.694   2.352  0.6839 -0.9866 -0.6896
 2282SOL     OW 8061   1.209   4.785   3.814 -0.2335 -0.1460 -0.3141
 2282SOL    HW1 8062   1.177   4.875   3.824  0.9631  0.1617  1.1580
 2282SOL    HW2 8063   1.178   4.741   3.893  0.1847 -0.6961 -0.4539
 2283SOL     OW 8064   0.407   5.329   2.567  0.0719 -0.1392 -0.1344
 2283SOL    HW1 8065   0.447   5.273   2.501 -1.2568  1.4267 -2.4101
 2283SOL    HW2 8066   0.326   5.361   2.526  0.4725  2.9927  1.2052
 2284SOL     OW 8067   1.384   5.677   2.967  0.3825 -0.0038  0.4078
 2284SOL    HW1 8068   1.310   5.626   3.001 -0.4796  0.1272 -1.2006
 2284SOL    HW2 8069   1.373   5.763   3.007 -0.8876  0.2865 -0.5045
 2285SOL     OW 8070   0.217   4.156   3.403  0.0519 -0.1569 -0.0697
 2285SOL    HW1 8071   0.301   4.184   3.369 -1.6283  2.0986 -2.7781
 2285SOL    HW2 8072   0.184   4.094   3.337 -0.7037 -0.5198  0.6266
 2286SOL     OW 8073   1.533   4.087   2.759 -0.5892  0.5619 -0.1260
 2286SOL    HW1 8074   1.625   4.064   2.770 -1.2897 -2.4720  0.4021
 2286SOL    HW2 8075   1.515   4.150   2.829  0.8493  0.4501  0.3724
 2287SOL     OW 8076   0.302   5.582   2.232  0.1908 -0.1025  0.2059
 2287SOL    HW1 8077   0.353   5.606   2.309 -0.1682 -0.5701  0.5918
 2287SOL    HW2 8078   0.217   5.625   2.245  1.1594  2.6595 -1.5364
 2288SOL     OW 8079   1.296   5.049   3.998  0.5111 -0.0152  0.2308
 2288SOL    HW1 8080   1.233   5.097   3.945 -1.2704 -1.9416  0.4527
 2288SOL    HW2 8081   1.369   5.031   3.938 -0.1124  0.4192 -0.6796
 2289SOL     OW 8082   0.499   5.254   2.327  0.3037 -0.1142  0.1711
 2289SOL    HW1 8083   0.424   5.226   2.274  1.8090  1.0151 -2.8224
 2289SOL    HW2 8084   0.562   5.183   2.318  1.2040  0.7990 -1.0299
 2290SOL     OW 8085   0.712   5.138   3.116 -0.1886  0.1183  0.2875
 2290SOL    HW1 8086   0.675   5.143   3.204 -0.5700 -0.7884  0.1927
 2290SOL    HW2 8087   0.766   5.059   3.117  2.3582  1.7588  0.6259
 2291SOL     OW 8088   0.386   5.332   3.120 -0.0560 -0.7838 -0.1461
 2291SOL    HW1 8089   0.396   5.297   3.032 -1.3159  0.0091 -0.6288
 2291SOL    HW2 8090   0.435   5.415   3.119 -1.9783  0.3987 -0.8548
 2292SOL     OW 8091   0.825   4.246   1.794 -0.1029  0.0909  0.4235
 2292SOL    HW1 8092   0.902   4.302   1.791  0.9494 -1.3195 -1.7671
 2292SOL    HW2 8093   0.860   4.157   1.805 -1.4358 -0.5193 -0.0011
 2293SOL     OW 8094   1.547   3.652   3.694  0.0920 -0.4858  0.0664
 2293SOL    HW1 8095   1.461   3.693   3.710  0.2617 -0.5678  1.3219
 2293SOL    HW2 8096   1.595   3.717   3.643 -0.7353 -0.4673 -0.7084
 2294SOL     OW 8097   8.605   4.829   2.924 -0.4666 -0.5898  0.1223
 2294SOL    HW1 8098   8.611   4.834   2.829  0.2915  0.3545  0.2036
 2294SOL    HW2 8099   8.617   4.736   2.945 -1.5747 -0.9509 -0.7478
 2295SOL     OW 8100   1.706   5.725   2.317 -0.2503 -0.2465  0.6350
 2295SOL    HW1 8101   1.731   5.656   2.255  0.8240 -1.0693  1.9430
 2295SOL    HW2 8102   1.780   5.733   2.376 -0.9943  0.9613  1.4617
 2296SOL     OW 8103   8.530   5.417   2.069 -0.4682  0.5695 -0.1034
 2296SOL    HW1 8104   8.601   5.461   2.022  0.2653 -0.2039  0.2654
 2296SOL    HW2 8105   8.532   5.327   2.037 -0.2433  0.1447  1.0715
 2297SOL     OW 8106   1.646   4.279   2.438 -0.9272 -0.1826  0.5687
 2297SOL    HW1 8107   1.625   4.372   2.451 -0.1580 -0.1471  1.6750
 2297SOL    HW2 8108   1.741   4.276   2.433 -0.9812 -0.8364 -0.1890
 2298SOL     OW 8109   1.290   4.789   2.492  0.3202  0.1157 -0.3207
 2298SOL    HW1 8110   1.377   4.779   2.530  0.7940 -2.1589 -1.7994
 2298SOL    HW2 8111   1.288   4.880   2.461  2.3236  0.1160 -0.6049
 2299SOL     OW 8112   0.208   4.150   3.680  0.1096  0.2537  0.2093
 2299SOL    HW1 8113   0.265   4.223   3.706  0.0085  0.6704 -0.7062
 2299SOL    HW2 8114   0.223   4.141   3.586  0.3681 -1.1291  0.3609
 2300SOL     OW 8115   0.726   5.076   2.686 -0.1057  0.0224 -0.0937
 2300SOL    HW1 8116   0.682   5.112   2.763  0.1967  0.5437 -0.1661
 2300SOL    HW2 8117   0.776   5.001   2.720  0.8787  0.8919  0.4098
 2301SOL     OW 8118   1.235   4.851   2.915  0.3470 -0.0859  0.6414
 2301SOL    HW1 8119   1.267   4.797   2.842 -0.7670  1.6245 -1.2066
 2301SOL    HW2 8120   1.231   4.940   2.880  2.0044  1.2802  3.5414
 2302SOL     OW 8121   1.031   3.939   2.829 -0.1773  0.0507 -0.3655
 2302SOL    HW1 8122   0.988   4.022   2.811  0.5952  0.3584 -0.8746
 2302SOL    HW2 8123   0.960   3.875   2.834 -0.7601  0.7030 -0.1873
 2303SOL     OW 8124   0.207   4.892   2.925 -0.3981 -0.3022  0.0724
 2303SOL    HW1 8125   0.184   4.827   2.991 -0.6067 -0.3850 -0.0780
 2303SOL    HW2 8126   0.194   4.977   2.969  0.2997 -0.3668  0.4046
 2304SOL     OW 8127   1.561   4.536   2.445 -0.2689  0.5903  0.3518
 2304SOL    HW1 8128   1.536   4.609   2.501 -3.5592 -1.3173  1.6811
 2304SOL    HW2 8129   1.526   4.560   2.359  3.0209  2.6146 -0.6010
 2305SOL     OW 8130   1.087   5.332   3.294 -0.2025  0.1303  0.0629
 2305SOL    HW1 8131   1.033   5.296   3.364 -1.0748  0.4476 -0.4281
 2305SOL    HW2 8132   1.157   5.268   3.282 -0.1775 -0.0398  1.0539
 2306SOL     OW 8133   0.512   3.542   3.904 -0.7634 -0.1565 -0.4157
 2306SOL    HW1 8134   0.583   3.529   3.840 -1.6776 -0.0749 -1.4802
 2306SOL    HW2 8135   0.470   3.623   3.876 -0.8692  0.1637  0.6204
 2307SOL     OW 8136   1.502   5.243   2.994  0.0818  0.1980  0.0884
 2307SOL    HW1 8137   1.586   5.237   2.950  0.6975  0.6480  1.1462
 2307SOL    HW2 8138   1.437   5.242   2.924  1.0015  0.5240 -0.7826
 2308SOL     OW 8139   1.486   5.882   2.370 -0.5318  0.0146 -0.1591
 2308SOL    HW1 8140   1.457   5.873   2.279  0.9440  1.0372 -0.7774
 2308SOL    HW2 8141   1.557   5.819   2.379  0.7173  1.3524 -0.3787
 2309SOL     OW 8142   0.955   4.533   2.253  0.0160  0.1356  0.3362
 2309SOL    HW1 8143   0.911   4.594   2.312  0.8213 -0.8382  2.0090
 2309SOL    HW2 8144   0.890   4.465   2.237  0.0020  0.0897  0.5860
 2310SOL     OW 8145   1.525   3.876   3.060 -0.4723 -0.4599 -0.1575
 2310SOL    HW1 8146   1.506   3.860   3.153  1.1813 -2.0268 -0.0376
 2310SOL    HW2 8147   1.445   3.848   3.015 -0.2225 -2.5656  0.6089
 2311SOL     OW 8148   1.437   5.473   2.182 -0.3546  0.0249 -0.2506
 2311SOL    HW1 8149   1.470   5.545   2.128  0.1041 -0.0553 -0.0830
 2311SOL    HW2 8150   1.443   5.505   2.272 -0.0701 -0.2524 -0.1695
 2312SOL     OW 8151   0.562   4.254   3.430  0.2600 -0.1979  0.1248
 2312SOL    HW1 8152   0.628   4.208   3.482  1.4643  0.4763 -0.7511
 2312SOL    HW2 8153   0.522   4.186   3.376  1.1666 -0.4459 -0.2673
 2313SOL     OW 8154   1.625   3.876   3.581 -0.4572  0.1949  0.0416
 2313SOL    HW1 8155   1.611   3.908   3.492 -1.0808  0.5922  0.2775
 2313SOL    HW2 8156   1.715   3.902   3.602  0.3164 -1.3925 -1.0815
 2314SOL     OW 8157   0.967   4.961   3.437  0.3831 -0.5137 -0.5329
 2314SOL    HW1 8158   1.052   4.977   3.480 -0.1847  0.6004  0.2281
 2314SOL    HW2 8159   0.921   5.044   3.445 -0.6034 -0.9682 -1.3735
 2315SOL     OW 8160   0.939   4.195   3.389  0.3159  0.2369 -0.4437
 2315SOL    HW1 8161   0.893   4.172   3.470  2.5093 -0.2274  0.7458
 2315SOL    HW2 8162   0.913   4.127   3.327 -0.2007 -0.2974  0.3401
 2316SOL     OW 8163   0.023   4.903   2.715 -0.0311 -0.6874  0.0608
 2316SOL    HW1 8164   0.070   4.918   2.797  0.4657 -1.9616  0.0422
 2316SOL    HW2 8165   0.045   4.813   2.691 -0.7765 -0.5929 -1.0820
 2317SOL     OW 8166   0.037   5.368   3.633  0.0216 -0.2749  0.1351
 2317SOL    HW1 8167   0.016   5.365   3.727 -1.8757  1.8920 -0.1446
 2317SOL    HW2 8168  -0.000   5.287   3.598 -2.2694  0.4298  0.7585
 2318SOL     OW 8169   0.901   3.871   2.360 -0.3621  0.0026 -0.2716
 2318SOL    HW1 8170   0.975   3.841   2.413 -0.0578 -0.4006 -0.9000
 2318SOL    HW2 8171   0.940   3.890   2.274 -0.6020  1.9370  0.0233
 2319SOL     OW 8172   1.365   4.341   3.652  0.6078  0.5968  0.3855
 2319SOL    HW1 8173   1.320   4.326   3.568  1.6110  0.5297 -0.1519
 2319SOL    HW2 8174   1.294   4.341   3.716 -0.2815  1.4590 -0.5510
 2320SOL     OW 8175   1.253   4.528   2.360  0.4186  0.1369  0.4417
 2320SOL    HW1 8176   1.269   4.622   2.363  0.2123  0.2375 -0.7913
 2320SOL    HW2 8177   1.160   4.521   2.338  1.2075 -0.2338 -3.4460
 2321SOL     OW 8178   0.763   3.833   2.833  0.3819  0.4937  0.5508
 2321SOL    HW1 8179   0.755   3.797   2.745 -2.5954 -0.1587  0.9870
 2321SOL    HW2 8180   0.712   3.914   2.831  3.2532  2.4728  0.8151
 2322SOL     OW 8181   1.343   5.052   2.395  0.1952  0.3495  0.8029
 2322SOL    HW1 8182   1.294   5.116   2.447 -0.7171  0.4578 -0.1581
 2322SOL    HW2 8183   1.407   5.104   2.347 -0.6230  0.5861 -0.0682
 2323SOL     OW 8184   0.435   5.657   2.492  0.1868 -0.6487  0.1530
 2323SOL    HW1 8185   0.456   5.590   2.556 -0.3176 -0.7200  0.2525
 2323SOL    HW2 8186   0.386   5.723   2.542 -0.9907 -1.1248 -0.3204
 2324SOL     OW 8187   1.650   4.741   3.234  0.3897 -0.0551  0.2132
 2324SOL    HW1 8188   1.637   4.695   3.317 -0.6017 -0.2842 -0.0528
 2324SOL    HW2 8189   1.745   4.750   3.226  0.5519 -1.0840  0.8050
 2325SOL     OW 8190   1.206   5.480   3.079  0.0226  0.1701  0.2370
 2325SOL    HW1 8191   1.150   5.439   3.145 -0.2154 -0.4911 -0.3596
 2325SOL    HW2 8192   1.295   5.459   3.108 -0.1050 -2.0247 -0.7888
 2326SOL     OW 8193   0.384   4.954   2.552  0.2705  0.7639 -0.2461
 2326SOL    HW1 8194   0.333   4.896   2.496 -1.6497  0.0703  2.0175
 2326SOL    HW2 8195   0.322   5.023   2.578  0.5868  0.2558  2.0994
 2327SOL     OW 8196   1.323   4.412   2.631  0.7287 -0.5959 -0.4796
 2327SOL    HW1 8197   1.338   4.421   2.537  0.2107 -2.7796 -0.8074
 2327SOL    HW2 8198   1.303   4.320   2.644 -1.3385  0.0200  1.4687
 2328SOL     OW 8199   0.458   4.819   3.813  0.2004 -0.0951  0.3815
 2328SOL    HW1 8200   0.547   4.841   3.842 -0.2907  1.8941  0.5504
 2328SOL    HW2 8201   0.437   4.887   3.748 -1.4080 -0.1802  0.7850
 2329SOL     OW 8202   0.820   5.595   2.362 -0.1879 -0.0032  0.4270
 2329SOL    HW1 8203   0.832   5.684   2.329 -0.3354 -0.2413 -0.2871
 2329SOL    HW2 8204   0.779   5.548   2.289  0.5153 -0.8313  0.5590
 2330SOL     OW 8205   0.244   3.706   3.599 -0.3654  0.2751  0.4866
 2330SOL    HW1 8206   0.222   3.759   3.523 -1.8411 -0.9603 -0.0039
 2330SOL    HW2 8207   0.179   3.728   3.665  1.5253  2.1161  1.8554
 2331SOL     OW 8208   1.877   5.182   1.876  0.3309 -0.7122  0.0810
 2331SOL    HW1 8209   1.816   5.205   1.946  0.6811 -0.7876  0.4150
 2331SOL    HW2 8210   1.953   5.144   1.921  0.6470 -0.5772 -0.3233
 2332SOL     OW 8211   8.840   4.942   1.725 -0.0254  0.3276  0.9804
 2332SOL    HW1 8212   8.800   4.963   1.640 -0.0492 -1.3062  0.5551
 2332SOL    HW2 8213   8.765   4.925   1.783  0.0001 -0.6679  0.7394
 2333SOL     OW 8214   1.352   3.511   2.795  0.2442  0.2869  0.3548
 2333SOL    HW1 8215   1.417   3.578   2.776  0.6498  0.1312  1.1565
 2333SOL    HW2 8216   1.269   3.558   2.800  0.2915  0.4952 -0.6171
 2334SOL     OW 8217   8.819   5.280   2.675  0.1087  0.2943 -0.1886
 2334SOL    HW1 8218   8.795   5.338   2.602 -1.3842  0.6177  0.5301
 2334SOL    HW2 8219   8.738   5.236   2.699  0.8253 -0.6643  0.5556
 2335SOL     OW 8220   1.057   5.096   2.512  0.3959  0.0061 -0.1386
 2335SOL    HW1 8221   1.090   5.087   2.602  0.0853 -0.5275 -0.0781
 2335SOL    HW2 8222   1.029   5.188   2.507  0.2523 -0.0053  0.3685
 2336SOL     OW 8223   0.505   4.479   2.137 -0.0126 -0.1635  0.1189
 2336SOL    HW1 8224   0.412   4.469   2.116 -0.5425  4.4948 -1.0015
 2336SOL    HW2 8225   0.551   4.450   2.058 -0.5714 -1.4566  0.2560
 2337SOL     OW 8226   1.918   3.896   3.578  0.1197  0.3759 -0.5241
 2337SOL    HW1 8227   1.968   3.951   3.638 -1.7606 -0.2888  1.8174
 2337SOL    HW2 8228   1.948   3.807   3.596 -0.4650  0.1708 -0.5356
 2338SOL     OW 8229   0.850   3.626   1.865  0.2424  0.3078  0.4860
 2338SOL    HW1 8230   0.840   3.548   1.920 -0.6932  0.9194  1.2317
 2338SOL    HW2 8231   0.912   3.600   1.797  1.4603 -0.4701  1.8406
 2339SOL     OW 8232   0.771   4.051   3.900 -0.3506 -0.2616 -0.0787
 2339SOL    HW1 8233   0.781   3.971   3.953 -0.2726 -0.7122 -0.7600
 2339SOL    HW2 8234   0.695   4.095   3.938 -0.4541 -0.7082  0.2489
 2340SOL     OW 8235   0.727   5.425   3.511  0.0357  0.0804 -0.0772
 2340SOL    HW1 8236   0.758   5.501   3.463  3.6170  0.2759  2.1997
 2340SOL    HW2 8237   0.656   5.458   3.566  0.2030  1.2932 -0.5732
 2341SOL     OW 8238   1.149   4.026   3.728 -0.0364  0.0795  0.3511
 2341SOL    HW1 8239   1.059   4.046   3.705 -0.3688 -1.8061 -0.2261
 2341SOL    HW2 8240   1.181   4.103   3.774 -2.1202  0.5563  1.0801
 2342SOL     OW 8241   0.778   5.349   2.947  0.0173 -0.5189  0.6099
 2342SOL    HW1 8242   0.742   5.291   3.014 -2.2070  0.6451  0.5186
 2342SOL    HW2 8243   0.793   5.432   2.993  1.5304 -0.6081  0.3423
 2343SOL     OW 8244   1.069   4.238   2.851 -0.2671  0.1467 -0.3517
 2343SOL    HW1 8245   1.050   4.332   2.840 -0.6872  0.2364  0.9412
 2343SOL    HW2 8246   1.059   4.223   2.944 -0.9021 -1.3506 -0.6394
 2344SOL     OW 8247   0.659   4.120   2.058  0.3666  0.1431 -0.1226
 2344SOL    HW1 8248   0.732   4.085   2.007 -0.5416  0.2638 -1.5765
 2344SOL    HW2 8249   0.585   4.064   2.035 -0.7086  1.8897 -1.1424
 2345SOL     OW 8250   1.546   4.697   2.117 -0.0406 -0.0297  0.2819
 2345SOL    HW1 8251   1.510   4.648   2.043  0.5494 -0.6466  0.3834
 2345SOL    HW2 8252   1.475   4.754   2.145 -0.6597 -0.6268 -0.0278
 2346SOL     OW 8253   0.414   3.748   2.157  0.2197  0.3523  0.3041
 2346SOL    HW1 8254   0.487   3.706   2.112  0.8055 -1.4708  2.7386
 2346SOL    HW2 8255   0.429   3.842   2.144  3.4640  0.1022  1.2475
 2347SOL     OW 8256   0.853   4.100   2.641 -0.1219 -0.5472  0.2546
 2347SOL    HW1 8257   0.835   4.194   2.649  2.2527  0.1782 -1.7820
 2347SOL    HW2 8258   0.779   4.065   2.592  0.5767  1.0201 -2.0849
 2348SOL     OW 8259   0.890   4.142   3.678 -0.0592  0.0376  0.3169
 2348SOL    HW1 8260   0.832   4.098   3.740 -0.1127 -0.0691  0.1915
 2348SOL    HW2 8261   0.877   4.235   3.694 -1.6936  0.0874 -1.0013
 2349SOL     OW 8262   1.657   5.016   2.713  0.0175  0.0676  0.3480
 2349SOL    HW1 8263   1.753   5.010   2.713  0.1308  1.5360  0.8604
 2349SOL    HW2 8264   1.638   5.106   2.687 -1.3014 -0.6449 -1.4286
 2350SOL     OW 8265   0.534   5.107   2.909 -0.2670 -0.7606 -0.2863
 2350SOL    HW1 8266   0.497   5.020   2.897 -0.0947 -0.9219  0.3140
 2350SOL    HW2 8267   0.602   5.095   2.975 -0.5185 -0.0915  0.0996
 2351SOL     OW 8268   1.257   5.374   2.565 -0.1317 -0.0536  0.0081
 2351SOL    HW1 8269   1.168   5.391   2.533 -0.2192 -2.3586 -1.1139
 2351SOL    HW2 8270   1.314   5.424   2.505 -0.6019  1.0929  0.4782
 2352SOL     OW 8271   1.239   4.080   1.995 -0.1660  0.6508 -0.4665
 2352SOL    HW1 8272   1.247   4.151   2.058  0.9935 -0.9878  1.3495
 2352SOL    HW2 8273   1.311   4.095   1.933  0.8960  0.3764  0.6670
 2353SOL     OW 8274   0.179   4.432   3.113  0.0902  0.1549 -0.2348
 2353SOL    HW1 8275   0.272   4.454   3.118 -0.2980  1.8385  0.0224
 2353SOL    HW2 8276   0.177   4.351   3.063  1.6873  0.1092 -0.2948
 2354SOL     OW 8277   0.629   4.014   3.276 -0.3628  0.2152 -0.6139
 2354SOL    HW1 8278   0.631   3.923   3.246  0.1342 -0.0663  0.2276
 2354SOL    HW2 8279   0.630   4.008   3.372 -1.3710  1.0913 -0.5306
 2355SOL     OW 8280   0.939   4.185   2.321  0.4400  0.2392 -0.0865
 2355SOL    HW1 8281   0.970   4.118   2.261 -1.9656  0.2147 -1.4416
 2355SOL    HW2 8282   0.935   4.265   2.268  0.5277  0.7773  0.7007
 2356SOL     OW 8283   1.469   3.201   2.706  0.2248 -0.1761  0.4771
 2356SOL    HW1 8284   1.468   3.294   2.730  0.4176 -0.0521  0.0125
 2356SOL    HW2 8285   1.562   3.181   2.695  0.1212 -0.1490 -0.4868
 2357SOL     OW 8286   1.537   4.894   2.903  0.4467 -0.3451  0.2227
 2357SOL    HW1 8287   1.571   4.809   2.874  0.3416 -0.7514  1.2727
 2357SOL    HW2 8288   1.587   4.958   2.852 -0.5269 -1.0499 -1.7045
 2358SOL     OW 8289   1.457   4.309   2.910  0.1031 -0.4305 -0.0914
 2358SOL    HW1 8290   1.481   4.370   2.840  0.8183 -0.9564 -0.3149
 2358SOL    HW2 8291   1.393   4.357   2.963 -0.7291 -0.1603 -1.3116
 2359SOL     OW 8292   2.272   4.823   1.983  0.5041 -0.0718  0.6782
 2359SOL    HW1 8293   2.194   4.792   2.030  1.8285 -2.5558  1.3887
 2359SOL    HW2 8294   2.301   4.748   1.932  1.3631  1.4054 -1.1174
 2360SOL     OW 8295   0.209   5.086   1.865 -0.2792  0.0889 -0.0787
 2360SOL    HW1 8296   0.142   5.072   1.798 -0.6904  0.0114  0.3379
 2360SOL    HW2 8297   0.271   5.015   1.852 -0.6584 -0.2567 -0.0159
 2361SOL     OW 8298   1.661   4.652   2.825  0.2046  0.1566  0.2412
 2361SOL    HW1 8299   1.612   4.586   2.874 -1.6597  1.8023  0.7114
 2361SOL    HW2 8300   1.752   4.622   2.829 -0.3126 -1.3784  2.0691
 2362SOL     OW 8301   1.520   4.219   2.199  0.4650 -0.0268  0.0619
 2362SOL    HW1 8302   1.563   4.259   2.274 -1.3216 -2.1855  2.4369
 2362SOL    HW2 8303   1.429   4.249   2.205 -0.4570 -2.6946  0.7662
 2363SOL     OW 8304   0.258   4.050   2.145  0.0584  0.2629  0.2088
 2363SOL    HW1 8305   0.253   4.069   2.052  0.3483  0.6363  0.2661
 2363SOL    HW2 8306   0.180   3.999   2.164  0.1088  0.0024 -0.2811
 2364SOL     OW 8307   1.691   5.281   3.539 -0.4848  0.3005 -0.8928
 2364SOL    HW1 8308   1.664   5.200   3.496  1.7004 -1.3013  0.5185
 2364SOL    HW2 8309   1.785   5.287   3.522 -0.6327  2.7146 -1.1684
 2365SOL     OW 8310   1.591   5.519   3.404  0.1275  0.4044 -0.0999
 2365SOL    HW1 8311   1.636   5.449   3.450 -0.1390 -0.1153 -0.6141
 2365SOL    HW2 8312   1.498   5.502   3.419  0.0795  1.2006  0.5667
 2366SOL     OW 8313   2.054   5.540   3.031 -0.2879 -0.4066 -0.0488
 2366SOL    HW1 8314   2.058   5.628   2.995  1.3929 -0.9888 -1.4559
 2366SOL    HW2 8315   2.096   5.485   2.965 -1.0574 -2.2337  0.8998
 2367SOL     OW 8316   0.872   4.958   2.884 -0.3599  0.2013  0.5712
 2367SOL    HW1 8317   0.853   4.939   2.975 -1.0000  1.5788  0.7423
 2367SOL    HW2 8318   0.965   4.978   2.882 -0.4909  0.8800  1.0574
 2368SOL     OW 8319   1.475   4.791   3.479 -0.3713  0.2564  0.1128
 2368SOL    HW1 8320   1.459   4.701   3.449  0.6198 -0.0148  0.3406
 2368SOL    HW2 8321   1.514   4.780   3.566  2.6456  0.7091 -1.0394
 2369SOL     OW 8322   1.089   3.659   3.765 -0.2535  0.0910 -0.0204
 2369SOL    HW1 8323   1.115   3.591   3.703  0.2905  0.1533  0.1317
 2369SOL    HW2 8324   1.169   3.710   3.779  0.2818 -1.2933  2.5000
 2370SOL     OW 8325   0.921   4.706   3.537 -0.3434  0.3040 -0.2208
 2370SOL    HW1 8326   0.933   4.789   3.490  1.1952 -0.4811 -1.2782
 2370SOL    HW2 8327   0.984   4.646   3.497 -0.0713 -0.8516  1.8170
 2371SOL     OW 8328   0.782   4.464   2.604  0.8343 -0.6495  0.4736
 2371SOL    HW1 8329   0.776   4.541   2.548 -0.4126  0.1472  1.6346
 2371SOL    HW2 8330   0.702   4.415   2.585  0.1543 -0.1198  1.8771
 2372SOL     OW 8331   0.458   4.875   2.813  0.3855  0.8374  0.4564
 2372SOL    HW1 8332   0.364   4.876   2.830  0.2606 -0.4190 -0.0237
 2372SOL    HW2 8333   0.466   4.900   2.721  0.4143 -0.0745  0.1954
 2373SOL     OW 8334   1.411   4.184   3.252 -0.1121 -0.2042 -0.9379
 2373SOL    HW1 8335   1.346   4.223   3.310  0.1261  0.6990 -1.2474
 2373SOL    HW2 8336   1.375   4.196   3.164  0.5496  0.5182 -1.1309
 2374SOL     OW 8337   8.721   5.669   2.925  0.3122 -0.6121 -0.1039
 2374SOL    HW1 8338   8.638   5.622   2.922 -0.7000  1.1124 -0.2783
 2374SOL    HW2 8339   8.764   5.646   2.843 -1.2130  0.5604 -1.2814
 2375SOL     OW 8340   0.588   4.730   2.235 -0.4011  0.0431 -0.1551
 2375SOL    HW1 8341   0.516   4.755   2.292 -0.9546  0.2117 -0.9026
 2375SOL    HW2 8342   0.555   4.657   2.184 -0.6584  1.1422 -1.6532
 2376SOL     OW 8343   0.791   4.565   2.855  0.3052  0.2297  0.5861
 2376SOL    HW1 8344   0.778   4.515   2.774 -1.1267 -0.9151  1.4943
 2376SOL    HW2 8345   0.876   4.608   2.842  0.7272 -0.9662 -0.9796
 2377SOL     OW 8346   1.527   4.776   2.611 -0.3768  0.3886  0.1639
 2377SOL    HW1 8347   1.569   4.722   2.677 -0.6641  0.9066  0.7843
 2377SOL    HW2 8348   1.565   4.863   2.624  1.6346 -0.0365 -2.1714
 2378SOL     OW 8349   1.043   5.262   2.955  0.4130 -0.1033 -0.3764
 2378SOL    HW1 8350   1.087   5.346   2.948 -0.3490  0.3573  0.1064
 2378SOL    HW2 8351   0.950   5.285   2.961 -0.1829 -1.1403 -3.8407
 2379SOL     OW 8352   1.761   4.211   2.063  0.3282 -0.0709  0.4816
 2379SOL    HW1 8353   1.787   4.298   2.095 -0.1738  0.6560 -0.9728
 2379SOL    HW2 8354   1.707   4.175   2.133  1.3895  0.3410  1.5540
 2380SOL     OW 8355   0.437   5.080   3.238  0.1594 -0.5187 -0.0729
 2380SOL    HW1 8356   0.490   5.121   3.306 -1.9365  1.8347  0.2923
 2380SOL    HW2 8357   0.413   5.153   3.180 -2.2705 -1.5346 -0.4430
 2381SOL     OW 8358   0.362   4.368   3.580 -0.3865 -0.1272 -0.4682
 2381SOL    HW1 8359   0.401   4.452   3.603 -1.4079  0.6960 -1.5436
 2381SOL    HW2 8360   0.426   4.326   3.522 -0.3993  0.4925 -0.9444
 2382SOL     OW 8361   1.562   4.512   3.981  0.3010  0.2856 -0.6566
 2382SOL    HW1 8362   1.499   4.531   3.912 -0.0090  0.7861 -0.2376
 2382SOL    HW2 8363   1.647   4.512   3.936  0.3769  2.9030 -0.6927
 2383SOL     OW 8364   0.913   3.549   3.967  0.0200  0.4874  0.1975
 2383SOL    HW1 8365   0.981   3.560   3.901 -0.3153 -0.5584 -0.3511
 2383SOL    HW2 8366   0.831   3.562   3.919 -0.2311 -0.4540  0.3621
 2384SOL     OW 8367   0.469   3.261   3.990 -0.3083 -0.4437 -0.4538
 2384SOL    HW1 8368   0.377   3.238   4.005 -0.0357  0.0440  2.8890
 2384SOL    HW2 8369   0.465   3.346   3.945 -1.5441 -0.0517  0.3285
 2385SOL     OW 8370   0.839   4.894   3.148 -0.0655 -0.6251 -0.0390
 2385SOL    HW1 8371   0.827   4.903   3.242 -1.2912  0.4987 -0.2678
 2385SOL    HW2 8372   0.843   4.800   3.132 -0.6818 -0.8459  1.0484
 2386SOL     OW 8373   1.040   4.221   3.122 -0.5645  0.3140  0.2319
 2386SOL    HW1 8374   0.957   4.244   3.162 -0.8472  2.0372 -1.2437
 2386SOL    HW2 8375   1.105   4.269   3.173 -0.5933 -0.0079  0.5767
 2387SOL     OW 8376   1.243   4.083   2.370 -0.2547  0.0252 -0.2593
 2387SOL    HW1 8377   1.251   4.000   2.323  1.7671 -0.2464  0.4502
 2387SOL    HW2 8378   1.324   4.089   2.421 -1.2341  1.5239  1.2027
 2388SOL     OW 8379   0.843   3.800   3.392  0.3660  0.0428  0.2377
 2388SOL    HW1 8380   0.903   3.837   3.328 -0.5259 -1.0420 -1.3040
 2388SOL    HW2 8381   0.758   3.797   3.347 -0.4286 -0.2327  1.6727
 2389SOL     OW 8382   0.091   4.685   3.058 -0.3283  0.1537  0.1782
 2389SOL    HW1 8383   0.001   4.664   3.084 -0.0823  0.1969  1.0881
 2389SOL    HW2 8384   0.122   4.607   3.013 -1.2593  0.6148 -1.3352
 2390SOL     OW 8385   1.072   4.599   2.929  0.2763 -0.4097  0.3230
 2390SOL    HW1 8386   1.129   4.617   2.854  0.6197 -0.4176  0.5780
 2390SOL    HW2 8387   1.094   4.667   2.992  1.9150 -1.8996  1.4879
 2391SOL     OW 8388   2.048   4.978   3.415  0.5665 -0.0612  0.4556
 2391SOL    HW1 8389   2.110   4.970   3.487  0.1340  0.0477  0.8464
 2391SOL    HW2 8390   1.964   4.950   3.453  0.4271 -0.4655 -0.1375
 2392SOL     OW 8391   0.559   4.328   2.519 -0.5822 -0.2155 -0.2806
 2392SOL    HW1 8392   0.551   4.323   2.423 -0.0330 -2.7228 -0.2482
 2392SOL    HW2 8393   0.519   4.248   2.551 -0.6319  0.5167  1.6101
 2393SOL     OW 8394   1.599   3.764   2.456  0.6267  0.2941 -0.3463
 2393SOL    HW1 8395   1.558   3.851   2.460  0.2149  0.1026 -0.4399
 2393SOL    HW2 8396   1.601   3.734   2.547 -3.3927 -1.5411 -0.6620
 2394SOL     OW 8397   0.646   4.406   3.219 -0.1624 -0.2023  0.3695
 2394SOL    HW1 8398   0.710   4.356   3.169  0.6539  1.6686 -0.5593
 2394SOL    HW2 8399   0.640   4.360   3.303  2.3205 -0.5073  0.4577
 2395SOL     OW 8400   1.337   5.378   3.966  0.0791  0.5026 -0.7507
 2395SOL    HW1 8401   1.273   5.408   3.901  0.9455  0.6399 -1.5626
 2395SOL    HW2 8402   1.284   5.332   4.032 -0.8622  0.6916 -1.3499
 2396SOL     OW 8403   2.198   5.408   3.238  0.7756 -0.0146 -0.0923
 2396SOL    HW1 8404   2.151   5.440   3.161  0.5653 -0.8790 -0.3298
 2396SOL    HW2 8405   2.289   5.433   3.222  0.7115 -0.0582 -0.5540
 2397SOL     OW 8406   0.662   4.757   3.476  0.5594  0.4358  0.0151
 2397SOL    HW1 8407   0.746   4.712   3.484  1.2323  1.1006 -2.3615
 2397SOL    HW2 8408   0.675   4.840   3.523  0.4374 -0.3481  1.5115
 2398SOL     OW 8409   1.570   3.950   2.162 -0.0423  0.0805  0.3279
 2398SOL    HW1 8410   1.494   3.897   2.184  0.9701 -1.2922  0.7020
 2398SOL    HW2 8411   1.543   4.040   2.181 -1.1598 -0.4899  1.6346
 2399SOL     OW 8412   1.546   4.429   1.992 -0.0941 -0.3212 -0.3106
 2399SOL    HW1 8413   1.538   4.359   2.056 -2.5651 -1.3200 -1.5829
 2399SOL    HW2 8414   1.639   4.432   1.972  0.4105 -1.5708  1.5403
 2400SOL     OW 8415   1.053   5.110   2.244 -0.0552 -0.1669  0.2378
 2400SOL    HW1 8416   0.993   5.037   2.230  0.5627 -0.8390  1.0381
 2400SOL    HW2 8417   1.078   5.104   2.336  1.2809  0.0586 -0.0816
 2401SOL     OW 8418   0.291   4.538   2.828  0.3630  0.6216 -0.0765
 2401SOL    HW1 8419   0.369   4.570   2.873  0.5977  3.7408 -2.3717
 2401SOL    HW2 8420   0.237   4.616   2.816 -1.9235 -0.9649 -0.8928
 2402SOL     OW 8421   0.741   4.203   3.086 -0.2854  0.1162  0.3481
 2402SOL    HW1 8422   0.732   4.166   2.998  0.7129  1.1507 -0.2162
 2402SOL    HW2 8423   0.701   4.137   3.144  0.1399 -1.1503 -0.7484
 2403SOL     OW 8424   1.593   3.796   3.958  0.0928 -0.2186 -0.2413
 2403SOL    HW1 8425   1.597   3.892   3.954  0.3147 -0.2146 -0.0119
 2403SOL    HW2 8426   1.541   3.770   3.882 -1.8234  0.2006  0.8544
 2404SOL     OW 8427   1.345   3.840   3.665  0.1623 -0.0717 -0.1720
 2404SOL    HW1 8428   1.266   3.894   3.667  0.4569  0.3570  0.5782
 2404SOL    HW2 8429   1.415   3.901   3.641  0.2491 -0.4758 -0.9689
 2405SOL     OW 8430   8.645   5.209   1.915  0.5205  0.4396  0.5335
 2405SOL    HW1 8431   8.684   5.122   1.924 -0.2737  0.0524  0.3357
 2405SOL    HW2 8432   8.692   5.250   1.843 -0.0024 -0.3487 -0.2778
 2406SOL     OW 8433   0.446   5.337   2.840  0.0825 -0.4474  0.3623
 2406SOL    HW1 8434   0.506   5.266   2.861  3.4355  2.1394  0.4352
 2406SOL    HW2 8435   0.441   5.337   2.744  1.0425 -0.0793  0.3057
 2407SOL     OW 8436   0.711   5.052   2.210 -0.6321  0.2846  0.0402
 2407SOL    HW1 8437   0.692   5.037   2.303  0.6506  0.6158  0.3878
 2407SOL    HW2 8438   0.755   4.972   2.181  2.0119  1.3820  0.6639
 2408SOL     OW 8439   0.541   4.642   2.942 -0.2116 -0.2458  0.3060
 2408SOL    HW1 8440   0.619   4.604   2.902  0.0540 -0.5667  1.1030
 2408SOL    HW2 8441   0.544   4.735   2.917  0.3441 -0.2885  0.1997
 2409SOL     OW 8442   0.239   4.287   2.740  0.2691 -0.2806 -0.4642
 2409SOL    HW1 8443   0.288   4.270   2.660  0.4290 -1.4882 -0.1394
 2409SOL    HW2 8444   0.237   4.382   2.748 -0.2816 -0.1147 -2.2078
 2410SOL     OW 8445   0.128   4.033   3.191 -0.1451  0.4258  0.1041
 2410SOL    HW1 8446   0.132   3.938   3.179 -2.6444  0.3108 -0.4956
 2410SOL    HW2 8447   0.132   4.069   3.102  1.7252  0.9948  0.3756
 2411SOL     OW 8448   1.138   4.613   3.351  0.4014  0.3649  0.2581
 2411SOL    HW1 8449   1.232   4.597   3.356  0.3449  0.3634  1.4196
 2411SOL    HW2 8450   1.131   4.696   3.304  0.9243 -0.1489 -0.7759
 2412SOL     OW 8451   1.097   3.890   2.561 -0.0437 -0.3347  0.6061
 2412SOL    HW1 8452   1.120   3.801   2.537 -0.5081 -0.0325 -1.1097
 2412SOL    HW2 8453   1.089   3.888   2.656 -0.4043 -2.1948  0.5734
 2413SOL     OW 8454   1.663   4.429   3.314  0.0909 -0.0017 -0.1827
 2413SOL    HW1 8455   1.672   4.396   3.225  0.1595  1.2652 -0.6636
 2413SOL    HW2 8456   1.657   4.350   3.369  1.4893 -0.8145 -1.1464
 2414SOL     OW 8457   0.177   4.983   3.334 -0.5666 -0.2612 -0.5066
 2414SOL    HW1 8458   0.244   5.044   3.302  0.3394  0.5340  2.4919
 2414SOL    HW2 8459   0.216   4.896   3.323  2.1756  0.2615  3.1550
 2415SOL     OW 8460   1.255   4.443   3.038  0.0381  0.1018 -0.0312
 2415SOL    HW1 8461   1.168   4.482   3.032 -0.2129 -0.2549  0.9794
 2415SOL    HW2 8462   1.314   4.518   3.046 -0.3727  0.3250  1.1699
 2416SOL     OW 8463   0.916   5.221   3.543 -0.2191 -0.3376  0.5305
 2416SOL    HW1 8464   0.974   5.224   3.619  0.2710  0.0866  0.1433
 2416SOL    HW2 8465   0.844   5.281   3.564  0.6716  0.9284  0.0525
 2417SOL     OW 8466   0.614   4.028   1.593  0.3674 -0.6867 -0.0698
 2417SOL    HW1 8467   0.603   4.046   1.687  0.3986 -0.2149 -0.1553
 2417SOL    HW2 8468   0.693   3.974   1.588 -0.6642 -2.3351  0.3504
 2418SOL     OW 8469   8.674   4.853   3.668 -0.1447  0.5812  0.1414
 2418SOL    HW1 8470   8.744   4.861   3.603 -0.4613 -0.1566 -0.3062
 2418SOL    HW2 8471   8.667   4.759   3.685 -1.4466  0.5688 -0.2982
 2419SOL     OW 8472   1.072   4.503   3.724 -1.1770  0.6559 -0.0327
 2419SOL    HW1 8473   1.083   4.597   3.709  0.8325  0.3300 -1.0424
 2419SOL    HW2 8474   0.978   4.489   3.721 -1.7883  3.0195  2.8370
 2420SOL     OW 8475   1.288   4.358   2.140  0.1963 -0.5547 -0.2131
 2420SOL    HW1 8476   1.269   4.409   2.061  2.6963  1.4613  0.3506
 2420SOL    HW2 8477   1.270   4.419   2.212 -1.9864 -2.3310  0.8611
 2421SOL     OW 8478   1.890   5.420   3.200 -0.5624 -0.0252 -0.1518
 2421SOL    HW1 8479   1.955   5.454   3.138 -0.8969  0.3032 -0.3288
 2421SOL    HW2 8480   1.849   5.498   3.237 -1.8664 -0.2243 -1.1231
 2422SOL     OW 8481   1.143   5.079   2.788 -0.1633 -0.2383  0.2062
 2422SOL    HW1 8482   1.233   5.110   2.776 -0.3660 -0.0531 -0.9241
 2422SOL    HW2 8483   1.109   5.130   2.861  0.8033 -0.6418  0.9489
 2423SOL     OW 8484   0.103   5.211   2.911 -0.3042  0.6225  0.0440
 2423SOL    HW1 8485   0.044   5.241   2.842  0.3692 -1.4295 -1.5364
 2423SOL    HW2 8486   0.189   5.206   2.869  0.4702  0.8835  1.5183
 2424SOL     OW 8487   0.736   5.579   3.779  0.5180 -0.0763  0.0779
 2424SOL    HW1 8488   0.718   5.609   3.868 -0.1174  0.0295 -0.0821
 2424SOL    HW2 8489   0.673   5.508   3.765 -1.3895  1.7545 -1.2870
 2425SOL     OW 8490   1.924   4.317   2.485  0.1367  0.0584  0.0927
 2425SOL    HW1 8491   1.930   4.224   2.465 -0.6545 -0.7472  3.0551
 2425SOL    HW2 8492   2.006   4.338   2.529  0.1862  0.7135 -0.2852
 2426SOL     OW 8493   1.575   5.199   2.292 -0.8924 -0.3299 -0.1867
 2426SOL    HW1 8494   1.643   5.173   2.230  0.4391 -1.3954  1.6274
 2426SOL    HW2 8495   1.524   5.265   2.245  1.0881  0.1606 -1.8006
 2427SOL     OW 8496   0.310   5.515   3.841 -0.0240  0.5347 -0.1288
 2427SOL    HW1 8497   0.364   5.515   3.920  2.0468 -1.4257 -1.4223
 2427SOL    HW2 8498   0.231   5.465   3.865  1.6976 -2.2823  0.1449
 2428SOL     OW 8499   1.237   4.649   2.742  0.3981  0.9536  0.0192
 2428SOL    HW1 8500   1.274   4.561   2.731  1.3037  1.2585  0.5040
 2428SOL    HW2 8501   1.232   4.684   2.653 -1.7753 -0.2714 -0.4025
 2429SOL     OW 8502   0.681   5.033   3.623 -0.0701 -0.1770 -0.0376
 2429SOL    HW1 8503   0.586   5.036   3.630  0.0191  0.7506  1.1479
 2429SOL    HW2 8504   0.712   5.071   3.705  1.3107  1.3296 -1.1887
 2430SOL     OW 8505   0.698   4.957   1.875  0.2219  0.1699  0.0965
 2430SOL    HW1 8506   0.611   4.919   1.887  0.2800  0.4835  1.9312
 2430SOL    HW2 8507   0.690   5.046   1.909  0.5545  1.2357 -2.4227
 2431SOL     OW 8508   1.442   5.400   3.177  0.9051  0.2066 -0.1493
 2431SOL    HW1 8509   1.465   5.342   3.105 -0.0033  0.6536 -0.8195
 2431SOL    HW2 8510   1.519   5.455   3.190  0.2857  1.7673 -2.4376
 2432SOL     OW 8511   2.069   4.067   2.977  0.8213  0.5539  0.0138
 2432SOL    HW1 8512   2.049   3.974   2.981  2.3076  0.2089  0.2972
 2432SOL    HW2 8513   2.005   4.104   2.916  0.2198 -0.6482 -0.1039
 2433SOL     OW 8514   0.421   4.258   2.972 -0.0189  0.4572  0.0521
 2433SOL    HW1 8515   0.395   4.290   2.886  1.2851  2.0752  0.2127
 2433SOL    HW2 8516   0.463   4.333   3.014  1.1368 -0.8511  1.3355
 2434SOL     OW 8517   1.215   5.371   2.025 -0.0257 -0.3217 -0.2187
 2434SOL    HW1 8518   1.266   5.407   2.097 -1.4974  0.3313  0.5148
 2434SOL    HW2 8519   1.124   5.376   2.053 -0.6285 -0.2980 -2.0135
 2435SOL     OW 8520   1.297   5.171   3.220  0.5585 -0.6546  0.0544
 2435SOL    HW1 8521   1.354   5.246   3.207  0.8312 -0.5603  1.6279
 2435SOL    HW2 8522   1.342   5.099   3.174  1.1799 -0.2520  0.0145
 2436SOL     OW 8523   1.035   4.370   2.560  0.5395 -0.3324  0.2530
 2436SOL    HW1 8524   1.105   4.428   2.591  0.8968 -0.3816 -0.4306
 2436SOL    HW2 8525   0.954   4.419   2.575  0.7309 -0.2000  0.8885
 2437SOL     OW 8526   1.444   5.931   2.108  0.3941 -0.4394  0.4676
 2437SOL    HW1 8527   1.517   5.915   2.048  0.7454 -3.1166  1.4997
 2437SOL    HW2 8528   1.368   5.896   2.063  0.0081  0.8232  0.1063
 2438SOL     OW 8529   0.513   4.802   3.267 -0.2241  0.0718 -0.0743
 2438SOL    HW1 8530   0.528   4.894   3.242  3.0593 -0.6795 -1.3713
 2438SOL    HW2 8531   0.576   4.785   3.336 -0.2043 -1.4389 -0.4365
 2439SOL     OW 8532   1.792   5.167   3.195 -0.2578 -0.7205 -0.8247
 2439SOL    HW1 8533   1.836   5.246   3.227  0.4413 -0.5076 -2.2079
 2439SOL    HW2 8534   1.735   5.141   3.266  1.5858 -0.5931  0.7975
 2440SOL     OW 8535   1.141   4.665   2.098  0.3198  0.0697  0.1622
 2440SOL    HW1 8536   1.061   4.611   2.096  0.5960 -0.3580  0.6113
 2440SOL    HW2 8537   1.190   4.636   2.021 -0.7598  1.5949 -1.1675
 2441SOL     OW 8538   0.978   3.949   3.218 -0.1743  0.3067  0.2741
 2441SOL    HW1 8539   0.994   3.864   3.176 -1.1492 -0.2478  0.9616
 2441SOL    HW2 8540   0.981   4.012   3.146 -2.9303 -0.7309 -0.9140
 2442SOL     OW 8541   0.563   5.178   2.016  0.5151 -0.4445  0.2454
 2442SOL    HW1 8542   0.481   5.175   2.065  0.7739  2.5252  1.0501
 2442SOL    HW2 8543   0.628   5.143   2.076  0.2649 -0.1240  0.7113
 2443SOL     OW 8544   1.406   4.578   3.320 -0.0630 -0.3563  0.3551
 2443SOL    HW1 8545   1.404   4.596   3.226  1.4299 -0.5487  0.2642
 2443SOL    HW2 8546   1.476   4.514   3.331  0.8601  0.8326  1.7772
 2444SOL     OW 8547   0.302   5.172   2.168  0.3350  0.4001 -0.5400
 2444SOL    HW1 8548   0.222   5.214   2.199  0.7378  0.8334 -0.0586
 2444SOL    HW2 8549   0.274   5.086   2.138 -0.3854  0.7255 -0.8235
 2445SOL     OW 8550   0.162   4.532   3.470 -0.5094  0.3515  0.0991
 2445SOL    HW1 8551   0.229   4.467   3.490 -2.3050 -1.7137 -0.1663
 2445SOL    HW2 8552   0.199   4.585   3.399  0.8594 -0.6126  0.0561
 2446SOL     OW 8553   0.867   3.813   3.680  0.3742  0.5806 -0.5132
 2446SOL    HW1 8554   0.898   3.809   3.590  1.7864 -2.2488  0.0000
 2446SOL    HW2 8555   0.938   3.775   3.732 -0.8762  1.0526  1.6731
 2447SOL     OW 8556   0.353   4.263   1.771 -0.1213 -0.2577  0.5068
 2447SOL    HW1 8557   0.331   4.179   1.813  0.1960 -1.0630 -0.8975
 2447SOL    HW2 8558   0.271   4.313   1.776 -0.2459 -0.5292  1.5816
 2448SOL     OW 8559   1.137   4.831   3.200  0.2474  0.9772  0.3267
 2448SOL    HW1 8560   1.056   4.880   3.211 -0.5703  0.0104 -1.1441
 2448SOL    HW2 8561   1.163   4.846   3.110 -0.3748 -1.6852 -0.3993
 2449SOL     OW 8562   0.127   4.437   1.762 -0.5022  0.3610  0.6048
 2449SOL    HW1 8563   0.079   4.429   1.680  3.7542  1.7897 -2.4212
 2449SOL    HW2 8564   0.127   4.531   1.781  1.1616  0.4665  0.2986
 2450SOL     OW 8565   1.542   5.316   1.867 -0.0268  0.1267 -0.6972
 2450SOL    HW1 8566   1.501   5.340   1.784  0.1528 -1.2207 -1.1989
 2450SOL    HW2 8567   1.477   5.259   1.910 -0.4507  1.4207  0.4624
 2451SOL     OW 8568   0.840   4.584   3.154 -0.2201  0.3510  0.2594
 2451SOL    HW1 8569   0.763   4.542   3.191  0.5103 -0.6114  0.7411
 2451SOL    HW2 8570   0.825   4.586   3.060 -0.7634  0.0348  0.3391
 2452SOL     OW 8571   1.381   5.198   2.744  0.0782  0.1643  0.1539
 2452SOL    HW1 8572   1.471   5.180   2.716 -0.3588 -0.5735 -0.8234
 2452SOL    HW2 8573   1.356   5.277   2.696  0.1819  0.3413  0.3884
 2453SOL     OW 8574   0.810   4.689   3.793 -0.0156  0.3144 -0.3812
 2453SOL    HW1 8575   0.774   4.774   3.816  0.0374 -0.1851  1.7904
 2453SOL    HW2 8576   0.834   4.697   3.701 -1.8852  1.9640 -0.7855
 2454SOL     OW 8577   1.411   5.046   3.750  0.0623 -0.4161  0.7024
 2454SOL    HW1 8578   1.482   4.981   3.756 -0.1484 -0.5506  2.1882
 2454SOL    HW2 8579   1.359   5.018   3.675  0.4836 -1.4645  0.7814
 2455SOL     OW 8580   0.334   5.313   3.474  0.3631 -0.0423 -0.2342
 2455SOL    HW1 8581   0.354   5.379   3.407 -0.1353  0.1849 -0.1607
 2455SOL    HW2 8582   0.239   5.309   3.476  0.3928 -1.5585 -0.9978
 2456SOL     OW 8583   1.418   4.661   3.038 -0.1419  0.3659  0.1636
 2456SOL    HW1 8584   1.370   4.725   2.985  0.5329  0.2820 -0.5790
 2456SOL    HW2 8585   1.500   4.706   3.061  0.7123 -0.4934 -1.0713
 2457SOL     OW 8586   1.329   3.834   2.246  0.2655 -0.7826  0.0580
 2457SOL    HW1 8587   1.382   3.757   2.262  0.1759 -0.8018  0.2610
 2457SOL    HW2 8588   1.241   3.800   2.228 -0.0748 -0.6818  1.3889
 2458SOL     OW 8589   0.212   4.720   2.058 -0.0230 -0.0956  0.1390
 2458SOL    HW1 8590   0.224   4.626   2.050  0.0272 -0.1548  0.8485
 2458SOL    HW2 8591   0.220   4.738   2.152 -1.3969  0.4198  0.1769
 2459SOL     OW 8592   1.709   4.270   4.087  0.3786 -0.3688 -0.2872
 2459SOL    HW1 8593   1.674   4.350   4.049 -0.2041 -0.9676 -1.0551
 2459SOL    HW2 8594   1.657   4.200   4.047  0.7337 -1.1154  0.5282
 2460SOL     OW 8595   1.615   5.051   3.362  0.5293  0.0635 -0.3251
 2460SOL    HW1 8596   1.586   5.025   3.274  0.3570  2.7585 -1.1936
 2460SOL    HW2 8597   1.545   5.021   3.420 -0.2150 -0.2637 -1.3529
 2461SOL     OW 8598   1.035   5.227   1.746  0.2686 -0.5320 -0.0155
 2461SOL    HW1 8599   1.029   5.132   1.740  0.9736 -0.5627 -0.3320
 2461SOL    HW2 8600   0.944   5.257   1.749  0.0445 -1.2039 -0.0765
 2462SOL     OW 8601   0.816   5.371   2.659  0.2331  0.1336  0.3301
 2462SOL    HW1 8602   0.741   5.314   2.640  1.9680 -2.3965  0.6848
 2462SOL    HW2 8603   0.823   5.370   2.754  0.5286  0.6576  0.3170
 2463SOL     OW 8604   0.635   4.998   2.455  0.4255  0.2597 -0.3638
 2463SOL    HW1 8605   0.545   4.989   2.486  0.3684 -0.3572 -0.6861
 2463SOL    HW2 8606   0.688   5.003   2.535  0.4113 -2.5719 -0.0629
 2464SOL     OW 8607   1.302   4.520   1.862 -0.2169  0.1539 -0.4868
 2464SOL    HW1 8608   1.376   4.467   1.891  0.5489  0.2378 -2.1316
 2464SOL    HW2 8609   1.326   4.548   1.773 -1.9941  0.6190 -0.8700
 2465SOL     OW 8610   2.063   5.189   2.424 -0.0974 -0.4813 -0.3088
 2465SOL    HW1 8611   2.143   5.221   2.381  0.6969 -2.4840 -0.3940
 2465SOL    HW2 8612   2.083   5.099   2.448 -2.6268 -1.3402 -1.1072
 2466SOL     OW 8613   0.742   4.564   4.052  0.0258 -0.3933  0.2131
 2466SOL    HW1 8614   0.815   4.525   4.101  0.5133 -1.0129 -0.9620
 2466SOL    HW2 8615   0.770   4.654   4.036 -0.0281 -0.2581  0.8442
 2467SOL     OW 8616   0.182   5.134   2.602 -0.1104  0.1076  0.3593
 2467SOL    HW1 8617   0.192   5.205   2.538  0.2133 -1.2829 -1.1824
 2467SOL    HW2 8618   0.108   5.162   2.656 -1.6076  0.5063 -1.7560
 2468SOL     OW 8619   0.505   5.423   3.689 -0.9309 -0.2521 -0.0360
 2468SOL    HW1 8620   0.435   5.466   3.738 -1.3678 -1.8361  0.7873
 2468SOL    HW2 8621   0.460   5.358   3.634 -0.4128  1.1592 -2.2645
 2469SOL     OW 8622   1.744   4.256   3.542  0.4621 -0.6131 -0.3611
 2469SOL    HW1 8623   1.836   4.260   3.565  0.2851  0.5995  0.2253
 2469SOL    HW2 8624   1.732   4.170   3.502  1.7173 -0.9961  0.0704
 2470SOL     OW 8625   0.029   4.599   2.679 -0.2402 -0.3706 -0.1234
 2470SOL    HW1 8626   0.041   4.588   2.585  2.0250 -1.1749  0.2019
 2470SOL    HW2 8627  -0.037   4.534   2.703  1.8989 -2.8710 -0.6246
 2471SOL     OW 8628   1.843   4.994   2.998  0.1374  0.4434 -0.1181
 2471SOL    HW1 8629   1.905   4.925   3.024  2.2614  1.2454 -2.5171
 2471SOL    HW2 8630   1.835   5.050   3.075  0.8249 -0.8076  0.9029
 2472SOL     OW 8631   0.421   4.503   3.130 -0.2744  0.6644  0.2469
 2472SOL    HW1 8632   0.495   4.466   3.178 -0.6706 -1.0907 -0.4008
 2472SOL    HW2 8633   0.458   4.576   3.080  1.6384 -1.5819 -1.8971
 2473SOL     OW 8634   1.010   5.411   2.459 -0.5381  0.2939 -0.0930
 2473SOL    HW1 8635   0.923   5.406   2.499 -0.9374  0.9906 -0.8314
 2473SOL    HW2 8636   0.992   5.416   2.365  0.4033 -2.4261 -0.5008
 2474SOL     OW 8637   1.661   4.029   3.356  0.2113 -0.0436  0.6659
 2474SOL    HW1 8638   1.712   4.021   3.276 -0.3636 -3.1660  0.4857
 2474SOL    HW2 8639   1.581   4.074   3.329  0.9147  0.8038 -0.0376
 2475SOL     OW 8640   1.256   3.897   3.304 -0.1399 -0.4388 -0.2625
 2475SOL    HW1 8641   1.285   3.978   3.345 -1.8415 -1.2218  2.7036
 2475SOL    HW2 8642   1.164   3.912   3.282  0.2798 -0.6389 -2.4231
 2476SOL     OW 8643   0.902   4.832   2.182  0.2079 -0.3819  0.4871
 2476SOL    HW1 8644   0.860   4.804   2.101 -0.3685  1.6224  0.0207
 2476SOL    HW2 8645   0.979   4.776   2.190 -0.2706 -1.2935 -0.9132
 2477SOL     OW 8646   0.505   5.603   2.741 -0.9195 -0.1399  0.0450
 2477SOL    HW1 8647   0.502   5.521   2.790  0.1064 -0.1405  0.1395
 2477SOL    HW2 8648   0.480   5.670   2.804 -0.0730 -0.1949  0.4557
 2478SOL     OW 8649   1.386   3.587   2.404  0.5625  0.2191  0.0707
 2478SOL    HW1 8650   1.385   3.492   2.413 -0.5218  0.1551 -0.5397
 2478SOL    HW2 8651   1.471   3.614   2.438  1.5355 -1.1119 -1.2271
 2479SOL     OW 8652   1.480   4.046   2.488  0.3608 -0.4488  0.0509
 2479SOL    HW1 8653   1.549   4.108   2.465  2.2931 -1.4316  2.6119
 2479SOL    HW2 8654   1.481   4.045   2.584 -2.2977 -1.5853  0.1440
 2480SOL     OW 8655   1.673   4.281   3.086 -0.2706  0.2904  0.3714
 2480SOL    HW1 8656   1.595   4.293   3.032 -1.5524  0.5944  2.1977
 2480SOL    HW2 8657   1.688   4.186   3.086 -1.2458  0.1296  0.8025
 2481SOL     OW 8658   0.419   4.861   1.928 -0.4350 -0.1411 -0.3722
 2481SOL    HW1 8659   0.466   4.783   1.900 -0.3250 -0.0726 -0.3757
 2481SOL    HW2 8660   0.342   4.827   1.975 -0.9191 -0.2696 -1.2275
 2482SOL     OW 8661   0.750   5.273   1.746  0.0272 -0.2741  0.5555
 2482SOL    HW1 8662   0.723   5.344   1.805  0.1000 -0.6239  1.0113
 2482SOL    HW2 8663   0.698   5.287   1.667 -0.0500  0.2157  0.6890
 2483SOL     OW 8664   0.517   4.436   4.108  0.2213 -0.2967 -0.4340
 2483SOL    HW1 8665   0.453   4.508   4.112  0.4184  0.0243 -2.2174
 2483SOL    HW2 8666   0.601   4.479   4.095  0.5128 -0.8013 -0.2373
 2484SOL     OW 8667   0.817   4.120   4.806 -0.2201 -0.5018 -0.6517
 2484SOL    HW1 8668   0.779   4.055   4.866  1.2616 -1.4253 -0.6482
 2484SOL    HW2 8669   0.907   4.130   4.836 -0.9391  3.2486  0.6947
 2485SOL     OW 8670   8.703   3.921   4.222 -0.0617  0.4888  0.1724
 2485SOL    HW1 8671   8.791   3.954   4.202  0.2624 -0.2699  0.3155
 2485SOL    HW2 8672   8.680   3.962   4.305  0.1755  0.6461  0.1628
 2486SOL     OW 8673   0.553   5.103   4.711 -0.5274  0.2210 -0.1806
 2486SOL    HW1 8674   0.590   5.147   4.787  0.0172 -0.6674  0.0890
 2486SOL    HW2 8675   0.583   5.155   4.636  0.9828 -0.2504  0.0546
 2487SOL     OW 8676   1.958   5.126   4.716  0.1600  0.1704 -0.2990
 2487SOL    HW1 8677   2.029   5.188   4.734  0.5324 -0.4613  0.4867
 2487SOL    HW2 8678   1.959   5.116   4.621  1.7332 -0.5023 -0.2434
 2488SOL     OW 8679   1.732   4.542   4.625  0.2801  0.1208 -0.1698
 2488SOL    HW1 8680   1.679   4.569   4.700  0.3969  1.5918 -0.5771
 2488SOL    HW2 8681   1.819   4.579   4.643  1.4039 -2.6760  0.7393
 2489SOL     OW 8682   2.354   3.871   3.709 -0.0952  0.5252  0.4058
 2489SOL    HW1 8683   2.446   3.891   3.694 -0.2801  1.3877  0.3957
 2489SOL    HW2 8684   2.324   3.831   3.627  0.3316 -0.0214  0.5079
 2490SOL     OW 8685   0.893   4.873   4.608  0.5055  0.5420 -0.0420
 2490SOL    HW1 8686   0.988   4.872   4.596  0.4130  0.3688 -0.7847
 2490SOL    HW2 8687   0.861   4.937   4.544 -0.1244 -1.4924 -1.8768
 2491SOL     OW 8688   0.881   4.662   5.988 -0.0814 -0.3789 -0.5116
 2491SOL    HW1 8689   0.888   4.751   6.022  0.4927 -1.1310  1.4853
 2491SOL    HW2 8690   0.889   4.671   5.893  1.1453  1.5762 -0.2601
 2492SOL     OW 8691   0.867   4.289   4.055  0.3071 -0.1627  0.0094
 2492SOL    HW1 8692   0.833   4.300   4.144  2.6980  0.5738  0.9009
 2492SOL    HW2 8693   0.863   4.195   4.039 -1.3560 -0.1907  0.3303
 2493SOL     OW 8694   0.806   5.259   6.026 -0.1807  0.1447 -0.5156
 2493SOL    HW1 8695   0.729   5.244   5.971  1.0743  0.7304 -2.5420
 2493SOL    HW2 8696   0.775   5.243   6.115 -3.0239  1.8253 -1.0717
 2494SOL     OW 8697   0.342   4.939   4.534 -0.5329  0.7439  0.5078
 2494SOL    HW1 8698   0.395   4.950   4.455 -1.4666 -0.0338 -0.2640
 2494SOL    HW2 8699   0.402   4.898   4.597 -0.2786 -0.4476 -0.4601
 2495SOL     OW 8700   1.267   5.606   5.373 -0.9698  0.1343  0.0368
 2495SOL    HW1 8701   1.338   5.670   5.367  0.4238 -1.3309  0.1306
 2495SOL    HW2 8702   1.207   5.631   5.303 -0.1250  1.1369 -0.3628
 2496SOL     OW 8703   0.831   3.889   4.986  0.6190  0.3519 -0.1621
 2496SOL    HW1 8704   0.857   3.930   5.068  0.2224  0.5427 -0.1249
 2496SOL    HW2 8705   0.767   3.822   5.011  1.8409 -0.8421 -0.1476
 2497SOL     OW 8706   1.871   3.999   4.992 -0.3947  0.0563 -0.3542
 2497SOL    HW1 8707   1.963   4.027   4.988 -0.3140 -0.3143 -1.3576
 2497SOL    HW2 8708   1.865   3.927   4.929 -1.0121 -0.9959  0.8382
 2498SOL     OW 8709   0.600   5.055   4.137 -0.1673  0.0752  0.4288
 2498SOL    HW1 8710   0.673   5.029   4.192 -0.3061 -2.5514 -0.4961
 2498SOL    HW2 8711   0.524   5.011   4.175 -0.3411 -1.4240 -1.4910
 2499SOL     OW 8712   0.833   5.390   5.545 -0.4281 -0.2062 -0.2139
 2499SOL    HW1 8713   0.852   5.297   5.540 -2.2438 -0.5431 -2.5703
 2499SOL    HW2 8714   0.910   5.428   5.588  0.9352 -2.5886 -0.3733
 2500SOL     OW 8715   0.386   4.967   4.268 -0.4848 -0.0516  0.0644
 2500SOL    HW1 8716   0.343   4.906   4.208  1.2662 -1.2124 -0.0822
 2500SOL    HW2 8717   0.316   5.028   4.295 -1.7173 -0.6150 -1.6968
 2501SOL     OW 8718   0.089   4.645   4.707 -0.2918  0.2738  0.0479
 2501SOL    HW1 8719  -0.007   4.644   4.707 -0.3340  0.4735  1.8465
 2501SOL    HW2 8720   0.113   4.680   4.622 -1.7972 -0.4051 -0.6953
 2502SOL     OW 8721   0.282   5.319   5.125 -0.5854 -0.4467 -0.1751
 2502SOL    HW1 8722   0.190   5.308   5.150 -0.5234 -0.7684 -0.0811
 2502SOL    HW2 8723   0.325   5.352   5.203 -0.3610 -1.6008  0.2094
 2503SOL     OW 8724   0.985   4.830   4.268  0.5992 -0.1098 -0.1346
 2503SOL    HW1 8725   0.954   4.739   4.268  0.4996 -0.1104  2.0080
 2503SOL    HW2 8726   1.063   4.828   4.211  0.0066 -1.3007 -0.9434
 2504SOL     OW 8727   1.957   3.113   5.417 -0.1094  0.3055 -0.1557
 2504SOL    HW1 8728   2.024   3.173   5.452 -0.8706  1.9565 -1.3831
 2504SOL    HW2 8729   1.913   3.080   5.495  0.7634  0.8284  0.5903
 2505SOL     OW 8730   0.451   3.943   4.570 -0.0188  0.0960 -0.5281
 2505SOL    HW1 8731   0.420   3.954   4.661 -0.6024 -0.6666 -0.6272
 2505SOL    HW2 8732   0.532   3.894   4.578 -0.0042  0.1377 -0.4113
 2506SOL     OW 8733   2.231   5.186   4.071  0.0431  0.1577 -0.5646
 2506SOL    HW1 8734   2.195   5.213   4.156 -0.4623 -1.5331 -0.2092
 2506SOL    HW2 8735   2.268   5.099   4.087  2.0281  0.7764 -1.5492
 2507SOL     OW 8736   8.628   5.172   4.095  0.4918  0.3398  0.0625
 2507SOL    HW1 8737   8.613   5.100   4.034  0.1187 -0.5585  1.1799
 2507SOL    HW2 8738   8.549   5.176   4.147  1.0396  0.6984  0.8871
 2508SOL     OW 8739   2.316   4.595   4.503  0.4522  0.2634  0.1453
 2508SOL    HW1 8740   2.367   4.518   4.526 -1.8455 -0.6818  2.5163
 2508SOL    HW2 8741   2.280   4.575   4.416 -0.5078 -1.5972  0.9323
 2509SOL     OW 8742   2.014   4.838   4.256  0.2688 -0.3372  0.5509
 2509SOL    HW1 8743   2.065   4.886   4.322  1.3652  1.1335 -1.2695
 2509SOL    HW2 8744   1.935   4.892   4.243  0.0255 -0.6572  0.6760
 2510SOL     OW 8745   0.408   4.817   5.241 -0.1633 -0.2872 -0.0709
 2510SOL    HW1 8746   0.346   4.872   5.195  1.3751  2.6016  1.0724
 2510SOL    HW2 8747   0.486   4.814   5.185 -0.0533 -0.8967  0.1031
 2511SOL     OW 8748   1.166   4.621   4.399 -0.4636  0.2142 -0.4129
 2511SOL    HW1 8749   1.167   4.703   4.448 -0.0094  0.6073 -1.0623
 2511SOL    HW2 8750   1.074   4.599   4.391 -0.5292 -0.5707  1.7643
 2512SOL     OW 8751   1.228   5.124   5.364 -0.4166 -0.2236  0.1173
 2512SOL    HW1 8752   1.227   5.141   5.270  0.3917 -0.7035  0.0196
 2512SOL    HW2 8753   1.195   5.205   5.403 -0.0034  0.2702 -0.5399
 2513SOL     OW 8754   1.104   3.737   4.649 -0.0899 -0.3682  0.3420
 2513SOL    HW1 8755   1.195   3.711   4.641  0.4157  0.8103  1.8790
 2513SOL    HW2 8756   1.091   3.800   4.578  0.0469 -1.0762 -0.3362
 2514SOL     OW 8757   0.416   4.618   4.941 -0.0694 -0.2604  0.2701
 2514SOL    HW1 8758   0.506   4.585   4.937  0.1216  0.3965 -1.2564
 2514SOL    HW2 8759   0.385   4.616   4.850 -1.1018  0.8889  0.5686
 2515SOL     OW 8760   1.827   4.505   3.900 -0.1516  0.1523  0.5823
 2515SOL    HW1 8761   1.878   4.481   3.823 -0.8708  0.2748  0.0606
 2515SOL    HW2 8762   1.865   4.587   3.930 -0.7638  0.8475 -0.4888
 2516SOL     OW 8763   0.852   5.682   5.254  0.5177  0.0025 -0.5010
 2516SOL    HW1 8764   0.841   5.611   5.190 -0.4955 -1.8238  1.5657
 2516SOL    HW2 8765   0.819   5.645   5.336 -1.0066  3.2358  0.4938
 2517SOL     OW 8766   0.578   4.255   5.853 -0.2437 -0.1147 -0.4806
 2517SOL    HW1 8767   0.551   4.228   5.765  0.3822 -0.3811 -0.5925
 2517SOL    HW2 8768   0.661   4.300   5.840 -0.1029 -0.2364 -0.0137
 2518SOL     OW 8769   1.144   4.884   4.513  0.0941 -0.1736 -0.0045
 2518SOL    HW1 8770   1.119   4.930   4.432 -0.2989 -0.0816  0.1659
 2518SOL    HW2 8771   1.139   4.951   4.581  1.4037 -0.0001 -0.0486
 2519SOL     OW 8772   2.023   5.516   4.615 -0.4065  0.1184  0.0478
 2519SOL    HW1 8773   2.033   5.546   4.525 -1.2134  2.3150  0.6229
 2519SOL    HW2 8774   1.941   5.466   4.615  0.0558 -0.6732 -0.5756
 2520SOL     OW 8775   0.363   3.982   3.939 -0.6310  0.0834  0.3418
 2520SOL    HW1 8776   0.427   4.052   3.922 -0.2752  0.1455  1.7832
 2520SOL    HW2 8777   0.278   4.026   3.933 -0.6176 -0.1188 -2.1650
 2521SOL     OW 8778   1.480   4.092   4.869  0.3388 -0.1149  0.0351
 2521SOL    HW1 8779   1.535   4.164   4.838 -1.0131  0.1496 -1.9398
 2521SOL    HW2 8780   1.420   4.133   4.931 -0.0008  0.3404 -0.5866
 2522SOL     OW 8781   1.741   5.099   4.271  0.4363 -0.0908 -0.6148
 2522SOL    HW1 8782   1.725   5.010   4.239  1.1122 -0.5178  0.1967
 2522SOL    HW2 8783   1.683   5.154   4.218 -1.4475 -1.2163  0.1518
 2523SOL     OW 8784   0.941   4.930   5.303 -0.0830  0.0712  0.1588
 2523SOL    HW1 8785   0.938   4.908   5.210  1.5394  0.6691 -0.0632
 2523SOL    HW2 8786   1.027   4.899   5.333  0.2541  1.6840  0.9689
 2524SOL     OW 8787   1.180   4.529   5.517 -0.1976 -0.1163 -0.2721
 2524SOL    HW1 8788   1.258   4.532   5.574  0.5260  1.2403 -1.2714
 2524SOL    HW2 8789   1.195   4.454   5.460  1.6374  1.5319 -2.0989
 2525SOL     OW 8790   0.746   5.022   5.814  0.2132 -0.0606 -0.4360
 2525SOL    HW1 8791   0.718   5.017   5.905  0.3211 -1.7409 -0.4618
 2525SOL    HW2 8792   0.834   4.984   5.814 -0.2389 -1.1496 -1.4076
 2526SOL     OW 8793   0.983   4.342   5.257  0.1907  0.1419 -0.1735
 2526SOL    HW1 8794   1.078   4.328   5.256  0.3711  0.9166  1.8320
 2526SOL    HW2 8795   0.953   4.294   5.334 -1.6630 -3.0946 -2.6227
 2527SOL     OW 8796   1.738   4.245   4.364  0.4914  0.1062  0.1273
 2527SOL    HW1 8797   1.823   4.214   4.395  1.1864  0.6948 -1.1031
 2527SOL    HW2 8798   1.744   4.240   4.269 -1.3213 -1.0195  0.0342
 2528SOL     OW 8799   8.784   4.549   4.470  0.3883 -0.1821 -0.1678
 2528SOL    HW1 8800   8.875   4.577   4.480  1.1918 -3.1125  1.7839
 2528SOL    HW2 8801   8.778   4.522   4.378  1.1267  1.0305 -0.6040
 2529SOL     OW 8802   0.003   5.690   5.166 -0.5608 -0.3625 -0.0769
 2529SOL    HW1 8803   0.051   5.622   5.215 -2.4197 -1.5469  0.2030
 2529SOL    HW2 8804   0.067   5.724   5.104  1.1493 -0.6214  1.4402
 2530SOL     OW 8805   1.253   3.655   4.111  0.1212  0.3083 -0.3125
 2530SOL    HW1 8806   1.181   3.700   4.068 -0.6897 -0.8229 -0.1597
 2530SOL    HW2 8807   1.320   3.646   4.043 -1.4100 -2.0799 -1.5995
 2531SOL     OW 8808   1.711   4.440   5.280 -0.5659  0.1364 -0.1177
 2531SOL    HW1 8809   1.794   4.483   5.260 -0.0376 -0.2154  1.2001
 2531SOL    HW2 8810   1.710   4.362   5.224 -0.3272  0.4905 -0.6217
 2532SOL     OW 8811   1.680   4.570   4.296 -0.1400  0.0975 -0.1307
 2532SOL    HW1 8812   1.702   4.546   4.386 -1.5348  0.2145  0.2616
 2532SOL    HW2 8813   1.712   4.496   4.243 -0.7270 -0.7146  0.6259
 2533SOL     OW 8814   0.688   3.417   4.726  0.5041  0.1818  0.0428
 2533SOL    HW1 8815   0.688   3.371   4.642  2.0742 -0.3904  0.3379
 2533SOL    HW2 8816   0.745   3.493   4.711 -0.5752  1.0274  0.1103
 2534SOL     OW 8817   1.073   5.129   4.342 -0.3236 -0.0160 -0.1644
 2534SOL    HW1 8818   1.052   5.179   4.263 -0.2171 -0.0323 -0.2042
 2534SOL    HW2 8819   1.167   5.110   4.334 -0.6340 -1.3953 -0.8174
 2535SOL     OW 8820   0.452   5.348   4.360 -0.1705 -0.3640  0.2128
 2535SOL    HW1 8821   0.374   5.318   4.408 -0.5429  0.3992  0.0922
 2535SOL    HW2 8822   0.484   5.423   4.410 -0.3157  0.1798 -0.4916
 2536SOL     OW 8823   1.989   4.650   4.566 -0.0175  0.5162 -0.0356
 2536SOL    HW1 8824   2.036   4.733   4.556 -0.6628  1.2177  2.1963
 2536SOL    HW2 8825   2.029   4.592   4.502  2.9199  1.4917  0.7616
 2537SOL     OW 8826   1.386   4.943   5.100 -0.0166 -0.0078 -0.5545
 2537SOL    HW1 8827   1.425   5.024   5.132 -1.8857  1.3528 -1.4760
 2537SOL    HW2 8828   1.429   4.928   5.016  1.2375 -0.7154  0.1900
 2538SOL     OW 8829   0.490   4.610   3.661 -0.6434 -0.2898 -0.5854
 2538SOL    HW1 8830   0.477   4.673   3.732 -1.4366 -1.5274  0.4310
 2538SOL    HW2 8831   0.548   4.654   3.599 -1.6896  1.6495 -0.2378
 2539SOL     OW 8832   1.669   4.278   4.791  0.3134 -0.2135 -0.2626
 2539SOL    HW1 8833   1.726   4.300   4.865 -1.2153  0.7449  0.6915
 2539SOL    HW2 8834   1.699   4.336   4.721 -0.1202  1.0308  0.5469
 2540SOL     OW 8835   0.617   5.070   5.584 -0.7385  0.4497  0.4271
 2540SOL    HW1 8836   0.635   5.002   5.518 -0.5282  1.2716 -0.3863
 2540SOL    HW2 8837   0.664   5.041   5.662  0.4864  0.3360 -0.3205
 2541SOL     OW 8838   1.067   5.364   4.112 -0.3142  0.3788 -0.1713
 2541SOL    HW1 8839   1.078   5.444   4.165 -1.4321  0.2118  0.3465
 2541SOL    HW2 8840   0.986   5.378   4.064 -0.5001 -0.4362 -0.1067
 2542SOL     OW 8841   0.389   4.511   5.199  0.3049  0.0948  0.2767
 2542SOL    HW1 8842   0.403   4.566   5.122 -0.9841 -0.7612 -0.6304
 2542SOL    HW2 8843   0.375   4.423   5.163  0.3659 -0.4603  1.5450
 2543SOL     OW 8844   1.808   4.896   3.551  0.7968  0.1781  0.1459
 2543SOL    HW1 8845   1.759   4.914   3.470  1.1155  1.0004  0.1275
 2543SOL    HW2 8846   1.741   4.871   3.614 -0.0198  3.4831  0.7820
 2544SOL     OW 8847   0.857   5.379   3.944  0.4525  0.1198 -0.1213
 2544SOL    HW1 8848   0.811   5.461   3.963 -0.8564 -0.9590  1.7619
 2544SOL    HW2 8849   0.787   5.316   3.929  1.3730 -1.0579  0.4253
 2545SOL     OW 8850   1.581   3.964   4.546 -0.0244 -0.0476 -0.4634
 2545SOL    HW1 8851   1.540   3.883   4.578 -0.5320 -0.5041 -2.1910
 2545SOL    HW2 8852   1.517   4.001   4.486  0.9094  0.7617 -0.9776
 2546SOL     OW 8853   8.524   5.421   4.803 -0.3556 -0.1181  0.4746
 2546SOL    HW1 8854   8.591   5.363   4.768  1.3700  1.0739  1.5888
 2546SOL    HW2 8855   8.569   5.471   4.872 -2.0163  1.7615  0.3112
 2547SOL     OW 8856   0.898   5.234   4.512 -0.3907  1.2007 -0.3722
 2547SOL    HW1 8857   0.953   5.200   4.442 -0.6226 -0.5056  0.2272
 2547SOL    HW2 8858   0.809   5.211   4.486 -0.6496  2.1269 -0.3480
 2548SOL     OW 8859   0.142   3.884   4.479 -0.2679 -0.0541 -0.0950
 2548SOL    HW1 8860   0.214   3.937   4.514  0.5882 -0.8759 -0.5532
 2548SOL    HW2 8861   0.076   3.885   4.548  0.6158 -0.1167  0.7802
 2549SOL     OW 8862   1.514   3.699   5.238 -0.0687 -0.6641 -0.2808
 2549SOL    HW1 8863   1.526   3.788   5.203  0.1793 -0.2574  0.8082
 2549SOL    HW2 8864   1.600   3.658   5.226  0.0234 -0.5180 -0.1286
 2550SOL     OW 8865   0.791   3.849   4.086 -0.1157  0.0243  0.1607
 2550SOL    HW1 8866   0.757   3.776   4.137 -1.2619 -0.6563 -1.4778
 2550SOL    HW2 8867   0.874   3.818   4.051 -1.4196 -1.2831 -2.0022
 2551SOL     OW 8868   0.616   4.792   5.636  0.2714 -0.0264 -0.2811
 2551SOL    HW1 8869   0.537   4.745   5.663 -0.8602  0.7507 -2.1031
 2551SOL    HW2 8870   0.602   4.813   5.544  1.3618  2.6177  0.0720
 2552SOL     OW 8871   0.668   5.183   4.931 -0.1383 -0.6272 -0.3612
 2552SOL    HW1 8872   0.625   5.182   5.016 -0.5235  3.3730 -0.3579
 2552SOL    HW2 8873   0.759   5.160   4.950 -0.4858 -1.0279  0.8979
 2553SOL     OW 8874   1.534   4.073   5.384  0.5337  0.1393 -0.2289
 2553SOL    HW1 8875   1.547   4.162   5.417  1.7177  0.0699 -0.4680
 2553SOL    HW2 8876   1.621   4.045   5.356  0.4666 -1.6174  1.1450
 2554SOL     OW 8877   0.797   4.917   4.862 -0.1831 -0.6209 -0.1007
 2554SOL    HW1 8878   0.858   4.910   4.789  0.5099  0.3950  0.3678
 2554SOL    HW2 8879   0.746   4.996   4.843 -0.2417 -0.5537  0.3321
 2555SOL     OW 8880   1.074   4.160   4.919 -0.5457  0.0598  0.1460
 2555SOL    HW1 8881   1.096   4.067   4.924  0.1211  0.2854  2.2540
 2555SOL    HW2 8882   1.143   4.198   4.864 -2.4573 -1.0553 -3.3218
 2556SOL     OW 8883   1.048   4.222   4.360 -0.4532  0.1498 -0.0519
 2556SOL    HW1 8884   0.973   4.230   4.419  0.4050 -0.8820  1.2366
 2556SOL    HW2 8885   1.118   4.270   4.403  0.0160 -0.0760 -0.5538
 2557SOL     OW 8886   1.589   4.802   3.725 -0.0802 -0.0325 -0.3159
 2557SOL    HW1 8887   1.653   4.800   3.796  0.3568 -0.1199 -0.7069
 2557SOL    HW2 8888   1.527   4.732   3.746  0.5092 -0.5986 -0.4463
 2558SOL     OW 8889   0.808   3.592   4.220  0.3051 -0.0735  0.3208
 2558SOL    HW1 8890   0.713   3.582   4.218  0.4558 -2.8427  2.2002
 2558SOL    HW2 8891   0.838   3.548   4.140  0.0575  0.2537  0.0437
 2559SOL     OW 8892   1.095   3.954   4.417  0.4408 -0.3010  0.1683
 2559SOL    HW1 8893   1.019   3.898   4.401  1.4403 -1.0853 -2.4693
 2559SOL    HW2 8894   1.061   4.043   4.409 -0.1825 -0.6415 -1.5792
 2560SOL     OW 8895   0.856   4.622   5.271  0.3230 -0.1524 -0.2198
 2560SOL    HW1 8896   0.903   4.540   5.255  0.7623 -0.1549  1.0069
 2560SOL    HW2 8897   0.910   4.689   5.230  2.0623 -0.0123  2.1222
 2561SOL     OW 8898   1.296   5.438   4.493  0.3455  0.7219 -0.3913
 2561SOL    HW1 8899   1.297   5.343   4.498  1.9883  0.6288 -1.6585
 2561SOL    HW2 8900   1.307   5.467   4.584 -0.0469 -0.2798 -0.0126
 2562SOL     OW 8901   0.639   4.670   4.412  0.4338  0.1725  0.1554
 2562SOL    HW1 8902   0.655   4.717   4.495 -0.2676 -0.4842  0.6716
 2562SOL    HW2 8903   0.556   4.625   4.426 -1.3119  2.4380 -1.9925
 2563SOL     OW 8904   1.330   5.174   4.521  0.1025  0.0664  0.7005
 2563SOL    HW1 8905   1.354   5.120   4.445 -0.0498 -0.0014  0.7012
 2563SOL    HW2 8906   1.408   5.170   4.577  0.4718  0.6714  0.2432
 2564SOL     OW 8907   1.080   3.887   4.006 -0.0894  0.1797 -0.1466
 2564SOL    HW1 8908   1.093   3.929   3.922  3.0697 -0.5159 -0.1073
 2564SOL    HW2 8909   1.106   3.953   4.071 -1.3490  0.3008  0.2713
 2565SOL     OW 8910   0.401   4.408   5.470 -0.3212 -0.3679  0.4305
 2565SOL    HW1 8911   0.310   4.384   5.454  0.0984 -2.3955  0.8884
 2565SOL    HW2 8912   0.441   4.406   5.383 -0.5601 -0.0674  0.3083
 2566SOL     OW 8913   0.933   4.183   5.469 -0.4095 -0.2487  0.2916
 2566SOL    HW1 8914   0.885   4.102   5.482  0.5611 -0.8934 -0.0161
 2566SOL    HW2 8915   1.016   4.169   5.514 -1.6722  2.0870  3.7852
 2567SOL     OW 8916   1.280   4.236   4.746  0.0991  0.3679 -0.1485
 2567SOL    HW1 8917   1.270   4.271   4.657 -2.0552 -0.8274 -0.4393
 2567SOL    HW2 8918   1.336   4.159   4.736 -0.5844 -0.0834 -0.5828
 2568SOL     OW 8919   1.088   3.899   4.885 -0.4989 -0.4292 -0.0765
 2568SOL    HW1 8920   1.108   3.830   4.821 -0.3203  1.5239 -2.2854
 2568SOL    HW2 8921   0.998   3.881   4.913  0.0696 -2.4058  0.6319
 2569SOL     OW 8922   1.316   4.699   4.778 -0.2709 -0.4025  0.1293
 2569SOL    HW1 8923   1.326   4.621   4.833 -0.5654 -0.3772  0.2197
 2569SOL    HW2 8924   1.358   4.674   4.695 -1.3728 -1.0896 -0.2483
 2570SOL     OW 8925   1.333   4.260   5.024 -0.1162 -0.3384  0.1286
 2570SOL    HW1 8926   1.384   4.319   5.078  0.2661 -0.4440 -0.1083
 2570SOL    HW2 8927   1.272   4.317   4.977  0.6907 -0.0453 -0.5915
 2571SOL     OW 8928   1.990   4.685   4.040  0.0457  0.1778 -0.5280
 2571SOL    HW1 8929   2.023   4.711   4.126 -0.9863 -1.6767  0.4942
 2571SOL    HW2 8930   2.050   4.616   4.011 -1.2239 -1.2316  0.0667
 2572SOL     OW 8931   0.394   5.039   3.629  0.3487 -0.0580 -0.9436
 2572SOL    HW1 8932   0.324   5.055   3.692  0.6232 -2.0572 -0.0492
 2572SOL    HW2 8933   0.351   5.038   3.543 -0.9668 -2.1830 -0.3418
 2573SOL     OW 8934   2.119   4.878   4.558  0.7880  0.0248 -0.2049
 2573SOL    HW1 8935   2.061   4.937   4.605 -0.5131 -1.7966  0.5899
 2573SOL    HW2 8936   2.165   4.829   4.627  0.4236 -1.1983 -0.8042
 2574SOL     OW 8937   1.211   4.278   3.438  0.0133 -0.0017 -0.3594
 2574SOL    HW1 8938   1.166   4.361   3.424  1.5520  1.2421  1.6456
 2574SOL    HW2 8939   1.142   4.219   3.469 -0.7352  1.1034  0.1370
 2575SOL     OW 8940   0.883   4.320   4.622  0.1602  1.0558  0.0481
 2575SOL    HW1 8941   0.857   4.252   4.685  1.3660 -0.3007 -0.8432
 2575SOL    HW2 8942   0.801   4.351   4.585 -0.3949 -0.7215 -0.3009
 2576SOL     OW 8943   1.647   5.229   5.446 -0.0982  0.2052 -0.6826
 2576SOL    HW1 8944   1.728   5.258   5.488 -1.2504  2.2729  0.2347
 2576SOL    HW2 8945   1.655   5.260   5.355 -0.4444  1.7235 -0.2214
 2577SOL     OW 8946   0.861   5.419   5.124 -0.2853  0.3093 -0.4255
 2577SOL    HW1 8947   0.861   5.333   5.081 -1.5241  1.0650 -2.0674
 2577SOL    HW2 8948   0.938   5.418   5.180 -0.7140 -2.1855  0.2725
 2578SOL     OW 8949   1.145   5.379   5.514  0.2838 -0.0536  0.0271
 2578SOL    HW1 8950   1.156   5.457   5.461  0.1134  1.0324  1.5364
 2578SOL    HW2 8951   1.222   5.378   5.571  0.4469 -1.1761 -0.1898
 2579SOL     OW 8952   0.952   5.186   5.336 -0.4484 -0.0422  0.4439
 2579SOL    HW1 8953   0.984   5.200   5.425  1.2590  0.5082 -0.2090
 2579SOL    HW2 8954   0.950   5.091   5.325 -1.9661 -0.1656  1.4753
 2580SOL     OW 8955   2.078   4.517   4.324  0.3627  0.0645 -0.7840
 2580SOL    HW1 8956   2.057   4.462   4.248  2.4736 -0.3039 -1.1669
 2580SOL    HW2 8957   2.117   4.596   4.286 -2.9502  2.1422 -0.2622
 2581SOL     OW 8958   1.372   3.474   5.216  0.0341  0.0340  0.6588
 2581SOL    HW1 8959   1.401   3.559   5.247 -0.7269  0.0204  1.4228
 2581SOL    HW2 8960   1.453   3.424   5.206  0.6377  1.2633 -1.1760
 2582SOL     OW 8961   0.887   5.137   5.593  0.0449  0.2758  0.5365
 2582SOL    HW1 8962   0.793   5.119   5.593  0.4683 -2.3854 -0.5425
 2582SOL    HW2 8963   0.923   5.078   5.659  0.9096  1.8475  1.5193
 2583SOL     OW 8964   0.743   4.935   4.348  0.0171  0.3132  0.1389
 2583SOL    HW1 8965   0.681   4.867   4.373 -0.7131  1.0030  0.2696
 2583SOL    HW2 8966   0.823   4.888   4.324 -0.9782 -0.7007 -1.3416
 2584SOL     OW 8967   1.039   4.524   4.667 -0.0888 -0.1619 -0.2934
 2584SOL    HW1 8968   0.987   4.458   4.620  0.9406 -0.5837 -0.8836
 2584SOL    HW2 8969   1.129   4.506   4.641  0.3131  0.8568  0.3288
 2585SOL     OW 8970   1.293   4.078   5.445  0.3207 -0.2573 -0.5331
 2585SOL    HW1 8971   1.381   4.065   5.409  1.2648 -1.1661  1.8954
 2585SOL    HW2 8972   1.245   3.999   5.420  1.4262 -1.5898  1.3652
 2586SOL     OW 8973   0.251   5.171   4.856 -0.2478  0.0091 -0.2140
 2586SOL    HW1 8974   0.244   5.214   4.942 -0.5074 -0.7985  0.1734
 2586SOL    HW2 8975   0.288   5.085   4.875  0.7073  0.2177 -1.0424
 2587SOL     OW 8976   0.161   4.439   4.312  0.0151  0.6806 -0.5538
 2587SOL    HW1 8977   0.213   4.361   4.293  1.3530  1.1216  1.0251
 2587SOL    HW2 8978   0.070   4.409   4.308  0.4937 -0.8729 -0.3543
 2588SOL     OW 8979   0.569   4.288   4.824 -0.5242  0.0795 -0.2306
 2588SOL    HW1 8980   0.582   4.346   4.899  0.8999  0.6345 -0.8850
 2588SOL    HW2 8981   0.633   4.218   4.836 -1.5947 -0.8828  0.0572
 2589SOL     OW 8982   1.528   4.935   4.471  0.2813 -0.4784 -0.8753
 2589SOL    HW1 8983   1.590   4.962   4.538  0.9543 -2.2515 -0.7299
 2589SOL    HW2 8984   1.582   4.920   4.393 -0.1975 -0.4712 -1.2135
 2590SOL     OW 8985   1.442   4.942   4.822 -0.1339  0.0974 -0.7575
 2590SOL    HW1 8986   1.526   4.922   4.781  0.9372  0.6995  1.0362
 2590SOL    HW2 8987   1.381   4.877   4.786  0.8519  0.2528 -2.8142
 2591SOL     OW 8988   1.521   4.058   3.968  0.0362 -0.2942  0.3459
 2591SOL    HW1 8989   1.536   4.109   3.888 -2.4655  0.1397  0.0554
 2591SOL    HW2 8990   1.445   4.100   4.009 -1.0402 -2.7216  1.0174
 2592SOL     OW 8991   0.136   5.141   4.628 -0.1907 -0.2631  0.4371
 2592SOL    HW1 8992   0.197   5.076   4.594 -0.3548 -0.1379 -0.1110
 2592SOL    HW2 8993   0.175   5.170   4.710  1.5322  1.2688 -0.8507
 2593SOL     OW 8994   0.616   4.355   5.291  0.1664 -0.3922  0.3063
 2593SOL    HW1 8995   0.666   4.428   5.256 -0.3629  0.8211  1.9409
 2593SOL    HW2 8996   0.626   4.363   5.386 -1.4212 -1.3343  0.5842
 2594SOL     OW 8997   1.745   4.623   5.510  0.0820 -0.3737  0.0782
 2594SOL    HW1 8998   1.790   4.567   5.446 -0.6255 -0.1300 -0.6476
 2594SOL    HW2 8999   1.703   4.690   5.457 -0.3315 -0.0355  0.8290
 2595SOL     OW 9000   0.837   3.934   5.507  0.1300 -0.0284 -0.2866
 2595SOL    HW1 9001   0.747   3.916   5.532  0.3871  0.7931  1.4000
 2595SOL    HW2 9002   0.890   3.883   5.568  0.7891  0.9353 -0.0113
 2596SOL     OW 9003   0.506   4.184   5.564  0.1214  0.1630  0.0478
 2596SOL    HW1 9004   0.499   4.274   5.534  1.6148  0.7816  1.4075
 2596SOL    HW2 9005   0.474   4.131   5.491  2.2208  1.6474 -2.0704
 2597SOL     OW 9006   0.767   4.639   4.680 -0.1225 -0.3394 -0.0929
 2597SOL    HW1 9007   0.783   4.727   4.645  1.9399 -1.0389 -1.0331
 2597SOL    HW2 9008   0.850   4.593   4.669 -0.6610 -1.9156  1.9160
 2598SOL     OW 9009   1.479   4.463   4.901 -0.3630  0.2923  0.0526
 2598SOL    HW1 9010   1.387   4.489   4.905 -0.2869  0.6137 -0.2432
 2598SOL    HW2 9011   1.477   4.367   4.908 -0.5601  0.4187  2.4356
 2599SOL     OW 9012   1.403   4.224   4.165  0.3561  0.0204  0.0873
 2599SOL    HW1 9013   1.410   4.313   4.200  1.5004  0.7830 -1.9328
 2599SOL    HW2 9014   1.452   4.170   4.227 -3.3962  0.0342  3.4195
 2600SOL     OW 9015   0.483   3.896   4.998 -0.0814 -0.1457  0.1863
 2600SOL    HW1 9016   0.527   3.950   5.064 -1.8862 -1.1320  2.3097
 2600SOL    HW2 9017   0.503   3.806   5.024 -2.1075 -0.5811  0.3821
 2601SOL     OW 9018   8.700   5.221   4.726 -0.4064  0.1924  0.1044
 2601SOL    HW1 9019   8.771   5.226   4.663 -0.1423  1.0378  0.4493
 2601SOL    HW2 9020   8.744   5.216   4.811 -0.7593  0.0306  0.2825
 2602SOL     OW 9021   1.048   4.737   4.814  0.0735  0.6030  0.1474
 2602SOL    HW1 9022   1.033   4.668   4.750 -0.4977  0.1078  0.7930
 2602SOL    HW2 9023   1.140   4.759   4.805  0.3434 -0.4714  0.1531
 2603SOL     OW 9024   1.625   4.978   5.575  0.1396 -0.3432 -0.4703
 2603SOL    HW1 9025   1.639   5.056   5.521  0.6066  0.1475  0.3487
 2603SOL    HW2 9026   1.576   4.918   5.517 -1.0561  0.8945 -0.8065
 2604SOL     OW 9027   0.648   3.751   4.544  0.4036 -0.0153 -0.1046
 2604SOL    HW1 9028   0.700   3.706   4.611 -0.8789  0.0300  0.9810
 2604SOL    HW2 9029   0.581   3.687   4.519 -0.7165  0.8231  0.5961
 2605SOL     OW 9030   1.149   4.136   4.139  0.2100 -0.2584  0.4574
 2605SOL    HW1 9031   1.097   4.159   4.216 -0.0057  0.9401 -0.0240
 2605SOL    HW2 9032   1.240   4.146   4.167  0.1276  2.0465  0.0524
 2606SOL     OW 9033   1.208   4.493   4.940  0.0631  0.1156  0.2282
 2606SOL    HW1 9034   1.200   4.555   5.013 -1.0761 -0.8851  0.9884
 2606SOL    HW2 9035   1.120   4.486   4.904  0.6118  0.6128 -1.3018
 2607SOL     OW 9036   1.258   5.695   5.628  0.5364  0.0332 -0.1780
 2607SOL    HW1 9037   1.253   5.666   5.537 -0.8298 -1.1843  0.2494
 2607SOL    HW2 9038   1.167   5.697   5.657  0.9002  1.1353  0.9586
 2608SOL     OW 9039   1.700   5.029   5.168  0.2882 -0.5826 -0.1921
 2608SOL    HW1 9040   1.722   5.114   5.208 -0.0160 -1.0581  1.0149
 2608SOL    HW2 9041   1.768   5.016   5.101  1.0625  0.0412  0.4493
 2609SOL     OW 9042   0.076   4.913   5.150 -0.1935 -0.3805  0.1233
 2609SOL    HW1 9043   0.079   4.843   5.084 -0.6137  0.3843 -0.7216
 2609SOL    HW2 9044   0.078   4.994   5.099 -0.5488  0.2233  1.0558
 2610SOL     OW 9045   1.856   3.893   4.517  0.1712 -0.2223 -0.5651
 2610SOL    HW1 9046   1.767   3.927   4.519  0.5058  0.8515 -1.9348
 2610SOL    HW2 9047   1.907   3.955   4.570  0.1578 -0.6814 -0.0088
 2611SOL     OW 9048   1.570   4.238   3.775 -0.0374 -0.1930 -0.2484
 2611SOL    HW1 9049   1.640   4.252   3.710  0.0345 -3.4926 -1.0773
 2611SOL    HW2 9050   1.490   4.266   3.730  0.3600  0.4216 -0.5883
 2612SOL     OW 9051   1.424   4.678   4.537  0.5253  0.3657  0.0665
 2612SOL    HW1 9052   1.452   4.765   4.507  1.8492 -0.4969 -1.3890
 2612SOL    HW2 9053   1.352   4.655   4.477 -0.1516  0.6335  0.7614
 2613SOL     OW 9054   0.588   4.356   4.536 -0.1585  0.0333  0.5864
 2613SOL    HW1 9055   0.545   4.441   4.536  1.2230  0.7676 -0.2899
 2613SOL    HW2 9056   0.575   4.323   4.625 -2.0609  0.4272  0.4956
 2614SOL     OW 9057   8.814   4.179   4.502  0.2863  0.0776 -0.1709
 2614SOL    HW1 9058   8.805   4.245   4.432  0.5704  0.4142  0.1069
 2614SOL    HW2 9059   8.902   4.193   4.536 -0.0644  0.2994  0.6503
 2615SOL     OW 9060   1.398   4.075   5.879 -0.3320 -0.5017 -0.0501
 2615SOL    HW1 9061   1.432   4.156   5.841 -1.6507 -0.1428 -0.5215
 2615SOL    HW2 9062   1.338   4.041   5.812  0.1725 -1.8595  0.1532
 2616SOL     OW 9063   1.201   3.755   5.187 -0.1228 -0.1078 -0.0532
 2616SOL    HW1 9064   1.297   3.755   5.193 -0.2161 -1.1611  2.0616
 2616SOL    HW2 9065   1.178   3.847   5.174  1.1213  0.3458  0.8048
 2617SOL     OW 9066   0.242   4.839   4.054 -0.4365  0.1746  0.2291
 2617SOL    HW1 9067   0.302   4.786   4.003  0.5438  1.7431 -0.3204
 2617SOL    HW2 9068   0.169   4.856   3.995 -1.2786 -1.3768  0.7568
 2618SOL     OW 9069   0.069   5.449   4.913  0.3294  0.5286 -0.4595
 2618SOL    HW1 9070   0.130   5.503   4.964  0.0121  0.2983  0.1754
 2618SOL    HW2 9071   0.043   5.379   4.973 -0.6141  0.6677 -0.6973
 2619SOL     OW 9072   0.639   5.165   4.438 -0.8123  0.2473 -0.2265
 2619SOL    HW1 9073   0.571   5.216   4.393 -1.7290  0.6501  1.5250
 2619SOL    HW2 9074   0.636   5.079   4.396 -1.0186  0.8568 -1.5097
 2620SOL     OW 9075   1.257   4.711   5.171 -0.1249  0.2376 -0.0675
 2620SOL    HW1 9076   1.322   4.778   5.150  1.1319 -0.5395  1.1895
 2620SOL    HW2 9077   1.211   4.745   5.248  0.6285 -0.3879  0.6753
 2621SOL     OW 9078   0.319   4.500   4.696  0.0522 -0.4492 -0.3516
 2621SOL    HW1 9079   0.329   4.421   4.748  0.4701 -0.8362 -0.9950
 2621SOL    HW2 9080   0.227   4.524   4.704 -0.5273 -2.0470 -1.5941
 2622SOL     OW 9081   0.177   4.346   5.310 -0.4486 -0.2271  0.3128
 2622SOL    HW1 9082   0.199   4.425   5.261 -0.5111 -0.6021 -0.3260
 2622SOL    HW2 9083   0.230   4.277   5.270 -1.1958 -0.7241  0.1476
 2623SOL     OW 9084   1.432   4.447   5.193 -0.2329 -0.1659 -0.1870
 2623SOL    HW1 9085   1.519   4.481   5.211  0.2924 -1.5836  0.0837
 2623SOL    HW2 9086   1.377   4.525   5.181  1.0941  0.7404 -0.5249
 2624SOL     OW 9087   0.710   4.094   4.222 -0.7579  0.1210 -0.4170
 2624SOL    HW1 9088   0.748   4.015   4.184 -0.3529 -0.0589  0.3519
 2624SOL    HW2 9089   0.624   4.067   4.254  0.2942 -0.6216  1.9605
 2625SOL     OW 9090   1.788   4.728   5.029  0.3107  0.2707 -0.3474
 2625SOL    HW1 9091   1.876   4.746   4.998  0.3084  0.5629 -0.1807
 2625SOL    HW2 9092   1.795   4.726   5.124  0.3248 -0.6617 -0.3591
 2626SOL     OW 9093   0.397   5.408   5.376  0.2239 -0.4532  0.3495
 2626SOL    HW1 9094   0.397   5.325   5.424  0.0899 -0.6856 -0.0493
 2626SOL    HW2 9095   0.489   5.434   5.372  0.3312 -0.8870 -0.0469
 2627SOL     OW 9096   0.839   4.334   5.015  0.8771  0.3542  0.2312
 2627SOL    HW1 9097   0.880   4.339   5.101  0.0794  0.1692  0.6236
 2627SOL    HW2 9098   0.899   4.280   4.963  0.7752 -0.5014  0.9955
 2628SOL     OW 9099   0.971   5.413   4.858  0.4964  0.6101 -0.0315
 2628SOL    HW1 9100   0.892   5.418   4.804 -2.3775 -3.3522  3.0770
 2628SOL    HW2 9101   0.940   5.437   4.946  2.5739 -1.4631  1.3743
 2629SOL     OW 9102   0.483   3.992   4.294  0.1313  0.4177  0.4176
 2629SOL    HW1 9103   0.430   3.925   4.251 -0.7746  2.0591 -1.1651
 2629SOL    HW2 9104   0.471   3.975   4.388 -1.7455 -0.3659  0.0891
 2630SOL     OW 9105   0.616   4.812   5.085  0.2467 -0.2412  0.0481
 2630SOL    HW1 9106   0.676   4.856   5.024  0.4360  0.7020  0.8904
 2630SOL    HW2 9107   0.637   4.719   5.075  0.5022 -0.0844 -1.0765
 2631SOL     OW 9108   0.979   4.800   5.072  0.3153  0.2033  0.0291
 2631SOL    HW1 9109   0.975   4.793   4.977  0.7096  0.1261  0.0167
 2631SOL    HW2 9110   1.068   4.771   5.095 -0.8763 -3.5034  0.7395
 2632SOL     OW 9111   1.430   4.502   4.226 -0.2348  0.4270 -0.1176
 2632SOL    HW1 9112   1.478   4.523   4.146 -0.5935 -1.2390 -0.8201
 2632SOL    HW2 9113   1.486   4.532   4.297 -0.0547  2.2501 -0.9740
 2633SOL     OW 9114   1.107   5.103   4.685 -0.6156  0.1038 -0.1948
 2633SOL    HW1 9115   1.026   5.140   4.650 -0.5145 -0.6344 -1.2209
 2633SOL    HW2 9116   1.177   5.158   4.648 -0.5819  0.0999 -0.1381
 2634SOL     OW 9117   1.168   5.102   4.990  0.3023 -0.6390  0.1767
 2634SOL    HW1 9118   1.211   5.024   5.024  2.0807  0.1049 -0.2720
 2634SOL    HW2 9119   1.190   5.103   4.897  1.8108  1.2933  0.5061
 2635SOL     OW 9120   8.658   4.865   4.517 -0.6938  0.0287  0.0155
 2635SOL    HW1 9121   8.722   4.936   4.528  0.6619 -1.2655  0.8391
 2635SOL    HW2 9122   8.647   4.857   4.423  1.6281 -0.7586 -0.2527
 2636SOL     OW 9123   0.744   6.008   5.575  0.4074 -0.0046 -0.1965
 2636SOL    HW1 9124   0.792   6.087   5.602  0.0056  0.4414 -0.7710
 2636SOL    HW2 9125   0.813   5.949   5.543  0.6965  0.1601  0.1095
 2637SOL     OW 9126   2.358   4.384   4.192 -0.1182  0.3662 -0.0152
 2637SOL    HW1 9127   2.389   4.345   4.273  1.5451  0.7571 -0.4166
 2637SOL    HW2 9128   2.360   4.313   4.128 -1.4345  0.0569  0.2627
 2638SOL     OW 9129   1.808   5.383   4.535 -0.0302  0.5304 -0.5471
 2638SOL    HW1 9130   1.799   5.290   4.559  1.5360  0.2291 -0.9847
 2638SOL    HW2 9131   1.764   5.390   4.450 -2.4420  0.8052  0.6614
 2639SOL     OW 9132   0.149   5.677   5.579 -0.3613 -0.4855 -0.2238
 2639SOL    HW1 9133   0.054   5.681   5.572 -0.5016 -1.0169  1.1650
 2639SOL    HW2 9134   0.179   5.760   5.541 -1.3029 -0.6957 -1.5068
 2640SOL     OW 9135   1.760   4.840   3.938  0.0102  0.8539 -0.2819
 2640SOL    HW1 9136   1.779   4.933   3.925 -0.6149  0.8817 -1.0701
 2640SOL    HW2 9137   1.837   4.806   3.985 -1.3096  2.4733  3.3793
 2641SOL     OW 9138   0.669   5.462   5.326 -0.1531  0.1515  0.3305
 2641SOL    HW1 9139   0.723   5.430   5.397  0.8075  1.1787  0.0848
 2641SOL    HW2 9140   0.704   5.419   5.248  2.0334  2.6451 -0.2089
 2642SOL     OW 9141   1.270   5.030   3.513  0.5519 -0.1351 -0.8296
 2642SOL    HW1 9142   1.285   4.941   3.482  1.3712 -0.3297  0.0605
 2642SOL    HW2 9143   1.307   5.086   3.445  0.0251 -0.4637 -1.3974
 2643SOL     OW 9144   1.764   5.756   5.339 -0.3412  0.7096 -0.1735
 2643SOL    HW1 9145   1.750   5.700   5.416  0.3178  1.1976  0.3145
 2643SOL    HW2 9146   1.768   5.845   5.374  0.3582  0.9002 -0.7194
 2644SOL     OW 9147   2.188   3.512   4.949 -0.0415 -0.0357  0.3047
 2644SOL    HW1 9148   2.150   3.486   4.866 -1.4493  0.1563  0.8599
 2644SOL    HW2 9149   2.113   3.524   5.007  0.8725  0.4192  1.4358
 2645SOL     OW 9150   0.836   3.637   4.727  0.0917 -0.0398 -0.1171
 2645SOL    HW1 9151   0.926   3.655   4.702  0.4988 -0.7649  0.7608
 2645SOL    HW2 9152   0.828   3.671   4.816  0.2279 -2.0183  0.7198
 2646SOL     OW 9153   1.571   5.233   4.095  0.1235 -0.6479 -0.3348
 2646SOL    HW1 9154   1.505   5.240   4.026  0.4335  1.0216 -0.5075
 2646SOL    HW2 9155   1.535   5.281   4.169  1.3189  0.7399 -0.6040
 2647SOL     OW 9156   0.669   4.914   5.368 -0.2468 -0.8200  0.1445
 2647SOL    HW1 9157   0.629   4.877   5.289 -1.4550 -1.9377  1.2561
 2647SOL    HW2 9158   0.763   4.895   5.358 -0.2888 -0.3683 -1.3141
 2648SOL     OW 9159   1.170   4.260   3.875 -0.0613 -0.5263  0.3846
 2648SOL    HW1 9160   1.150   4.226   3.962  0.7426 -0.5453  0.5774
 2648SOL    HW2 9161   1.108   4.331   3.861  1.1593  0.9173  1.8829
 2649SOL     OW 9162   1.639   5.331   3.799 -0.5722 -0.4913  0.2594
 2649SOL    HW1 9163   1.637   5.309   3.706 -1.4569 -0.0331  0.1644
 2649SOL    HW2 9164   1.548   5.328   3.827 -0.6693  2.2237  0.4279
 2650SOL     OW 9165   0.653   5.164   5.225  0.0964 -0.4501  1.4067
 2650SOL    HW1 9166   0.618   5.104   5.291 -0.4171 -0.7556  0.8683
 2650SOL    HW2 9167   0.741   5.185   5.256 -0.6377  0.5505  2.9433
 2651SOL     OW 9168   1.698   4.923   4.686  0.0660 -0.2843  0.0520
 2651SOL    HW1 9169   1.702   4.833   4.719  0.0435 -0.3445 -0.1061
 2651SOL    HW2 9170   1.779   4.964   4.716  0.2997 -0.4995 -0.2813
 2652SOL     OW 9171   1.690   4.853   4.213 -0.2212 -0.2562 -0.6991
 2652SOL    HW1 9172   1.689   4.825   4.122 -0.4885 -1.0189 -0.4754
 2652SOL    HW2 9173   1.705   4.773   4.263 -1.4386 -0.0900 -0.0067
 2653SOL     OW 9174   0.844   4.025   5.236  0.4942  0.2159  0.5774
 2653SOL    HW1 9175   0.841   3.982   5.321 -2.2446  1.1994  1.0824
 2653SOL    HW2 9176   0.929   4.069   5.234  0.1747  1.1222  3.3226
 2654SOL     OW 9177   0.692   4.914   3.928 -0.0422  0.4009  0.9539
 2654SOL    HW1 9178   0.642   4.976   3.981 -0.5173  0.7815  0.0688
 2654SOL    HW2 9179   0.779   4.954   3.921 -0.8727  2.0436 -1.2853
 2655SOL     OW 9180   1.838   4.089   5.375  0.6561 -0.2967 -0.3005
 2655SOL    HW1 9181   1.929   4.080   5.347  1.5023  1.2219  1.7040
 2655SOL    HW2 9182   1.837   4.054   5.464 -0.6294  0.0862 -0.1450
 2656SOL     OW 9183   0.413   5.210   3.981  0.2579  0.3383 -0.1524
 2656SOL    HW1 9184   0.459   5.167   4.053 -2.1562  0.2628  1.4647
 2656SOL    HW2 9185   0.335   5.157   3.967 -1.4479  2.6110  0.0905
 2657SOL     OW 9186   0.326   4.934   5.598 -0.0315  0.5208 -0.1032
 2657SOL    HW1 9187   0.294   4.931   5.508 -0.2421  0.8298 -0.0414
 2657SOL    HW2 9188   0.421   4.946   5.590 -0.2849  2.8430 -0.2951
 2658SOL     OW 9189   0.593   4.100   5.157  0.0702  0.1246  0.4813
 2658SOL    HW1 9190   0.683   4.072   5.172  0.9905  1.2463 -2.2459
 2658SOL    HW2 9191   0.588   4.187   5.197 -0.3665 -0.6512  2.1488
 2659SOL     OW 9192   0.666   4.017   3.571 -0.0033 -0.0063  0.4504
 2659SOL    HW1 9193   0.626   4.054   3.649  0.9518  1.6097  0.2140
 2659SOL    HW2 9194   0.738   3.963   3.604  0.3716  0.6365  0.6907
 2660SOL     OW 9195   1.583   4.809   5.334 -0.0840 -0.2002  1.0073
 2660SOL    HW1 9196   1.540   4.783   5.252  1.7093 -0.5074  0.1146
 2660SOL    HW2 9197   1.638   4.883   5.310  0.5630 -0.3709  1.9227
 2661SOL     OW 9198   0.180   4.145   4.656 -0.2241  0.0852  0.6525
 2661SOL    HW1 9199   0.123   4.132   4.732 -0.1448 -2.9675  0.3248
 2661SOL    HW2 9200   0.268   4.123   4.687  0.5871  2.9554  0.6738
 2662SOL     OW 9201   1.406   4.613   3.772 -0.3489 -0.1019  0.2607
 2662SOL    HW1 9202   1.335   4.678   3.774 -1.5756 -1.3621 -0.1540
 2662SOL    HW2 9203   1.376   4.547   3.709  0.7118 -1.2126  0.8714
 2663SOL     OW 9204   0.551   4.831   4.649 -0.3037 -0.3519 -0.5585
 2663SOL    HW1 9205   0.618   4.790   4.703 -1.5178 -0.1496  1.2015
 2663SOL    HW2 9206   0.541   4.919   4.686 -0.7167  0.0385 -1.5508
 2664SOL     OW 9207   1.155   5.627   4.777 -0.1355 -0.0533 -0.5760
 2664SOL    HW1 9208   1.100   5.552   4.801  0.1564 -0.6438 -1.7146
 2664SOL    HW2 9209   1.240   5.608   4.818 -0.5110  0.4547  0.4819
 2665SOL     OW 9210   0.855   4.738   5.731 -0.0238  0.2362  0.4891
 2665SOL    HW1 9211   0.900   4.810   5.687  0.4366  0.5203  1.4068
 2665SOL    HW2 9212   0.768   4.737   5.692 -0.3377  1.8666  1.0675
 2666SOL     OW 9213   1.424   5.392   5.627 -0.3824 -0.4233 -0.5123
 2666SOL    HW1 9214   1.450   5.352   5.710 -0.0326  1.0305  0.1208
 2666SOL    HW2 9215   1.498   5.378   5.569  0.3229  0.5011  0.1415
 2667SOL     OW 9216   0.413   5.854   5.214 -0.1694  0.2466  0.3755
 2667SOL    HW1 9217   0.324   5.871   5.182 -0.5930 -0.4559  1.1482
 2667SOL    HW2 9218   0.431   5.926   5.274  0.4477  1.3124 -1.0369
 2668SOL     OW 9219   1.624   4.673   4.836 -0.2078  0.0052  0.7473
 2668SOL    HW1 9220   1.682   4.689   4.911  1.0945  0.0211 -0.2376
 2668SOL    HW2 9221   1.561   4.609   4.868  1.2767 -1.1837  1.4182
 2669SOL     OW 9222   1.365   3.620   4.712 -0.0850  0.1105 -0.0307
 2669SOL    HW1 9223   1.360   3.589   4.802  0.7604 -1.8770 -0.6045
 2669SOL    HW2 9224   1.418   3.700   4.716 -1.8274  1.2598  1.4535
 2670SOL     OW 9225   1.275   4.352   4.497  0.8150  0.0102 -0.2272
 2670SOL    HW1 9226   1.370   4.349   4.497  0.8578 -0.0213 -2.2003
 2670SOL    HW2 9227   1.254   4.440   4.465  0.1289  0.7895  2.2013
 2671SOL     OW 9228   1.554   4.347   5.482  0.1518 -0.1162  0.1647
 2671SOL    HW1 9229   1.546   4.426   5.537 -1.0121 -0.2856  0.2747
 2671SOL    HW2 9230   1.612   4.373   5.411  0.4190  0.5934  0.6259
 2672SOL     OW 9231   1.851   4.461   4.921  0.0026 -0.3417  1.2184
 2672SOL    HW1 9232   1.829   4.554   4.927 -0.6335 -0.4545  0.7636
 2672SOL    HW2 9233   1.900   4.443   5.001 -0.8411  0.1320  1.8614
 2673SOL     OW 9234   1.192   4.587   4.031  0.5819 -0.0767  0.0880
 2673SOL    HW1 9235   1.226   4.570   4.119 -1.9187 -2.6589  0.6956
 2673SOL    HW2 9236   1.223   4.513   3.978 -0.4651 -0.1893 -0.3965
 2674SOL     OW 9237   0.919   5.151   5.044  0.5147 -0.0733  0.3677
 2674SOL    HW1 9238   0.932   5.147   5.139 -0.0450  1.2622  0.5185
 2674SOL    HW2 9239   1.002   5.120   5.008 -0.4341 -4.2328  1.2137
 2675SOL     OW 9240   1.542   4.356   4.509  0.1979 -0.2656 -0.8190
 2675SOL    HW1 9241   1.606   4.314   4.451  1.4187 -0.8396  0.8794
 2675SOL    HW2 9242   1.593   4.418   4.560 -0.1854 -2.0115  1.8708
 2676SOL     OW 9243   0.820   4.399   3.802  0.2534  0.0489  0.3410
 2676SOL    HW1 9244   0.816   4.494   3.802 -0.1204  0.0361 -0.1446
 2676SOL    HW2 9245   0.806   4.373   3.893 -1.9633  0.3621  0.1283
 2677SOL     OW 9246   1.508   5.209   4.761  0.6709  0.0505  0.0735
 2677SOL    HW1 9247   1.554   5.256   4.830  1.4193  0.0785 -0.4336
 2677SOL    HW2 9248   1.484   5.125   4.800  1.0722  0.0729  0.3650
 2678SOL     OW 9249   0.213   5.063   5.370  0.3786  0.4206  0.2866
 2678SOL    HW1 9250   0.174   5.009   5.302 -0.6258  0.1521  1.0526
 2678SOL    HW2 9251   0.145   5.126   5.393  0.4268  0.0423  1.5469
 2679SOL     OW 9252   0.063   5.169   4.080 -0.1555  0.3612 -0.3904
 2679SOL    HW1 9253  -0.028   5.143   4.086  0.1760 -1.0149 -1.0442
 2679SOL    HW2 9254   0.091   5.182   4.171 -0.6704 -0.3626 -0.1267
 2680SOL     OW 9255   0.543   5.708   5.408 -0.0692  0.0632  0.8852
 2680SOL    HW1 9256   0.580   5.632   5.361  1.6070  1.2081  0.2345
 2680SOL    HW2 9257   0.486   5.750   5.344  2.4644  1.8093 -0.4282
 2681SOL     OW 9258   1.920   3.776   5.251  0.0171  0.0853 -0.0398
 2681SOL    HW1 9259   1.946   3.712   5.185 -1.2871  0.3539 -0.8385
 2681SOL    HW2 9260   1.943   3.861   5.212  2.7540  0.1670  1.4511
 2682SOL     OW 9261   0.763   4.345   4.301  0.3674  0.4551  0.3523
 2682SOL    HW1 9262   0.755   4.255   4.270 -1.6271  0.7815 -0.1823
 2682SOL    HW2 9263   0.706   4.348   4.378  1.3806  0.9713  1.1089
 2683SOL     OW 9264   2.175   5.021   4.922  0.1950  0.7865  0.0831
 2683SOL    HW1 9265   2.252   5.018   4.979 -0.2488  0.9496  0.6913
 2683SOL    HW2 9266   2.209   5.055   4.839  0.9821 -0.0885  0.0182
 2684SOL     OW 9267   0.681   4.572   4.931  0.2573  0.0329 -0.1290
 2684SOL    HW1 9268   0.705   4.576   4.839 -0.7568 -1.8116 -0.5233
 2684SOL    HW2 9269   0.755   4.529   4.974  0.8516  1.1432  0.0004
 2685SOL     OW 9270   1.326   5.050   4.288 -0.1019 -0.5129 -0.5903
 2685SOL    HW1 9271   1.380   4.984   4.332 -0.9846 -0.2591  0.9394
 2685SOL    HW2 9272   1.337   5.032   4.195  0.4230 -2.2091 -0.2309
 2686SOL     OW 9273   1.249   4.318   5.330 -0.2915  0.3888  0.8471
 2686SOL    HW1 9274   1.319   4.364   5.284 -2.1494  0.5154 -2.1085
 2686SOL    HW2 9275   1.295   4.255   5.387  2.1934  0.9272 -0.4279
 2687SOL     OW 9276   1.157   4.051   5.186 -0.2617 -0.0847 -0.1538
 2687SOL    HW1 9277   1.120   4.112   5.123  0.2456 -1.9279 -2.3587
 2687SOL    HW2 9278   1.247   4.082   5.200 -0.5342  0.6127  0.0467
 2688SOL     OW 9279   0.878   4.583   4.341  0.5961 -0.4555  0.2820
 2688SOL    HW1 9280   0.861   4.492   4.316 -0.4203  0.2693 -1.9219
 2688SOL    HW2 9281   0.794   4.613   4.377  0.3092  0.1677 -0.8823
 2689SOL     OW 9282   0.423   5.440   4.795  0.4703 -0.0844 -0.6417
 2689SOL    HW1 9283   0.504   5.401   4.828  0.0920 -0.1642  0.2184
 2689SOL    HW2 9284   0.359   5.369   4.798 -0.4238  0.7224  1.6652
 2690SOL     OW 9285   1.242   3.715   4.388 -0.3398 -0.0377 -0.0295
 2690SOL    HW1 9286   1.260   3.680   4.301  0.0380 -0.4835  0.2219
 2690SOL    HW2 9287   1.224   3.808   4.373  0.4349  0.0498 -0.5128
 2691SOL     OW 9288   1.540   3.800   4.806  0.2355  0.4126  0.2624
 2691SOL    HW1 9289   1.544   3.892   4.831 -0.7809  0.3104  0.8711
 2691SOL    HW2 9290   1.594   3.755   4.870  2.5892  0.7783 -1.3244
 2692SOL     OW 9291   1.580   3.932   5.058 -0.1061 -0.0329  0.2317
 2692SOL    HW1 9292   1.674   3.950   5.058 -0.2925  0.9889  0.5147
 2692SOL    HW2 9293   1.545   3.988   4.989 -0.6244  0.2619  0.7267
 2693SOL     OW 9294   0.307   4.483   3.852  0.0555  0.2808  0.2495
 2693SOL    HW1 9295   0.219   4.497   3.817 -0.3207 -0.5983  0.8219
 2693SOL    HW2 9296   0.362   4.544   3.802 -0.6787  0.0201 -0.9283
 2694SOL     OW 9297   1.115   5.177   3.724 -0.3430 -0.1791  0.4346
 2694SOL    HW1 9298   1.154   5.262   3.747  2.5876 -1.6225  1.2435
 2694SOL    HW2 9299   1.182   5.133   3.672 -1.8643 -1.9705 -0.1011
 2695SOL     OW 9300   0.421   4.655   5.756 -0.1839  0.9644 -0.1134
 2695SOL    HW1 9301   0.462   4.637   5.841  0.6365  0.0272 -0.6759
 2695SOL    HW2 9302   0.395   4.568   5.723  0.3881  1.1917 -1.2337
 2696SOL     OW 9303   0.305   4.298   6.326  0.9851  0.8350  0.3235
 2696SOL    HW1 9304   0.376   4.300   6.261  1.3402 -1.5433  0.5614
 2696SOL    HW2 9305   0.256   4.219   6.305  0.3512  0.6976  2.1899
 2697SOL     OW 9306   0.079   4.466   6.196 -0.0801  0.0432 -0.2664
 2697SOL    HW1 9307   0.051   4.530   6.130  2.0996  2.5028  1.0092
 2697SOL    HW2 9308   0.133   4.403   6.147  0.2698  0.9623 -1.0966
 2698SOL     OW 9309   0.190   5.374   6.764 -0.2644  0.0101 -0.7721
 2698SOL    HW1 9310   0.112   5.410   6.721 -0.1255 -0.7619 -1.7288
 2698SOL    HW2 9311   0.227   5.447   6.813 -2.0128  0.2087  0.3539
 2699SOL     OW 9312   1.484   5.306   6.663 -0.2576  0.4713 -0.0290
 2699SOL    HW1 9313   1.508   5.235   6.723  0.3274  0.5183 -0.2020
 2699SOL    HW2 9314   1.556   5.309   6.600 -1.9386 -1.1189 -2.1399
 2700SOL     OW 9315   1.306   4.940   6.183  0.1290 -0.1692 -0.4644
 2700SOL    HW1 9316   1.251   4.915   6.257 -0.0446 -1.0171 -0.8623
 2700SOL    HW2 9317   1.354   5.017   6.213  0.9346 -1.1636  0.9400
 2701SOL     OW 9318   1.719   4.354   5.847  0.4691  0.1161  0.3262
 2701SOL    HW1 9319   1.797   4.326   5.800  1.6933  0.0540  2.2972
 2701SOL    HW2 9320   1.733   4.446   5.867  1.5622 -0.5938  3.3557
 2702SOL     OW 9321   0.740   5.460   6.360  0.3369 -0.2022  0.5848
 2702SOL    HW1 9322   0.828   5.423   6.359  0.4820  0.1450  0.1215
 2702SOL    HW2 9323   0.743   5.527   6.428  0.6189  0.2364  0.1547
 2703SOL     OW 9324   1.006   4.770   7.298 -0.2058  0.3635 -0.4703
 2703SOL    HW1 9325   0.967   4.767   7.385  0.5382 -1.2176 -0.1600
 2703SOL    HW2 9326   0.978   4.689   7.256 -0.7957  1.2354 -1.8408
 2704SOL     OW 9327   0.756   5.183   6.272  0.1558  0.4863 -0.5093
 2704SOL    HW1 9328   0.803   5.113   6.316 -1.7027 -0.2032  0.4778
 2704SOL    HW2 9329   0.725   5.240   6.342 -2.1922 -0.2060 -0.8806
 2705SOL     OW 9330   0.921   5.010   7.199 -0.2489  0.5702 -0.0393
 2705SOL    HW1 9331   0.925   4.915   7.211 -0.5924  0.3946 -1.2481
 2705SOL    HW2 9332   0.992   5.030   7.138 -0.9065  0.9345 -0.6935
 2706SOL     OW 9333   0.287   5.271   7.004 -0.8270  0.0623  0.4742
 2706SOL    HW1 9334   0.227   5.203   7.033  0.5361 -0.6248  1.8267
 2706SOL    HW2 9335   0.266   5.284   6.912 -1.6582 -1.6174  0.3926
 2707SOL     OW 9336   1.162   5.524   7.039 -0.3380 -0.0685 -0.4492
 2707SOL    HW1 9337   1.230   5.525   6.972 -0.3405  0.6275 -0.4469
 2707SOL    HW2 9338   1.086   5.565   6.996 -0.4739 -0.0129 -0.1567
 2708SOL     OW 9339   0.277   4.506   6.763  0.1866 -0.2420  0.1920
 2708SOL    HW1 9340   0.319   4.470   6.685 -2.9658  0.2178 -1.8994
 2708SOL    HW2 9341   0.281   4.601   6.751 -0.3846 -0.1709  0.5260
 2709SOL     OW 9342   0.948   4.130   5.926  0.3969  0.6392 -0.1567
 2709SOL    HW1 9343   1.020   4.190   5.908 -0.3371  1.5873  0.0160
 2709SOL    HW2 9344   0.888   4.179   5.983  1.0586 -1.1428  2.2801
 2710SOL     OW 9345   0.411   5.950   6.244  0.0521 -0.2955 -0.2908
 2710SOL    HW1 9346   0.359   5.938   6.323 -1.2202 -0.3771 -1.1233
 2710SOL    HW2 9347   0.417   5.863   6.205  0.7999 -0.2828 -0.2305
 2711SOL     OW 9348   1.406   5.130   7.418 -0.6906  0.3372 -0.5893
 2711SOL    HW1 9349   1.348   5.066   7.459  1.0912 -1.2471 -0.4067
 2711SOL    HW2 9350   1.457   5.167   7.490 -0.4379  0.6396 -0.9160
 2712SOL     OW 9351   0.327   5.625   5.768 -0.0777 -0.0248 -0.2558
 2712SOL    HW1 9352   0.258   5.652   5.708 -1.1557 -0.4883  0.7420
 2712SOL    HW2 9353   0.408   5.647   5.723 -0.8743  0.6834 -1.3807
 2713SOL     OW 9354   0.155   5.173   6.407  0.4414  0.5225 -0.1392
 2713SOL    HW1 9355   0.126   5.226   6.333  0.8338  2.4393  0.9944
 2713SOL    HW2 9356   0.250   5.170   6.399  0.5400  1.2358  0.5523
 2714SOL     OW 9357   8.838   5.719   7.030 -0.0209 -0.5337  0.1767
 2714SOL    HW1 9358   8.843   5.640   7.084 -3.1169 -1.1002 -0.1405
 2714SOL    HW2 9359   8.755   5.759   7.056  0.2719  1.2665 -1.4702
 2715SOL     OW 9360   0.541   5.421   5.687  0.1210  0.5289 -0.2104
 2715SOL    HW1 9361   0.503   5.355   5.629  1.4173  0.4019 -0.9632
 2715SOL    HW2 9362   0.635   5.418   5.668  0.3082  1.9987  0.3576
 2716SOL     OW 9363   1.265   4.386   6.762  0.6928 -0.0235 -0.4533
 2716SOL    HW1 9364   1.314   4.383   6.680  2.4941 -1.5810  0.5759
 2716SOL    HW2 9365   1.305   4.459   6.811  1.6105 -0.8971  0.1367
 2717SOL     OW 9366   8.719   4.541   6.009 -0.1271  0.3150 -0.2434
 2717SOL    HW1 9367   8.693   4.623   5.968  0.3293  0.6292  0.0958
 2717SOL    HW2 9368   8.734   4.481   5.936 -2.9186 -0.2652 -0.4842
 2718SOL     OW 9369   1.894   5.275   5.576  0.0182  0.2610  0.8849
 2718SOL    HW1 9370   1.891   5.356   5.627 -0.4737  1.2660 -0.6679
 2718SOL    HW2 9371   1.983   5.273   5.539  0.2962 -0.3408  1.5676
 2719SOL     OW 9372   8.748   5.718   5.448 -0.4922  0.7524  0.1877
 2719SOL    HW1 9373   8.757   5.704   5.354 -0.4591  0.6757  0.2024
 2719SOL    HW2 9374   8.706   5.804   5.456  0.3743  1.1922  0.1217
 2720SOL     OW 9375   1.694   5.047   6.438 -0.3639 -0.5811  0.5175
 2720SOL    HW1 9376   1.761   4.999   6.487  0.7937 -1.3772 -1.6789
 2720SOL    HW2 9377   1.709   5.138   6.460  0.2964 -0.8853  1.4007
 2721SOL     OW 9378   1.891   4.912   6.169  0.0646 -0.4439  0.3571
 2721SOL    HW1 9379   1.828   4.840   6.170  0.3214 -0.6681  0.3295
 2721SOL    HW2 9380   1.946   4.899   6.246 -0.7255  0.4758  1.1076
 2722SOL     OW 9381   0.290   4.530   7.103  0.0509  0.0695  0.3072
 2722SOL    HW1 9382   0.305   4.476   7.181  0.4460  0.3763  0.4452
 2722SOL    HW2 9383   0.325   4.479   7.031 -0.5547 -0.3333  0.2925
 2723SOL     OW 9384   0.751   5.633   6.562 -0.4074  0.2666 -0.4750
 2723SOL    HW1 9385   0.812   5.595   6.626  0.3778  0.2103 -1.2333
 2723SOL    HW2 9386   0.664   5.615   6.597  0.0028  1.4255  1.2824
 2724SOL     OW 9387   1.286   5.277   7.149 -0.4630 -0.5159  0.4521
 2724SOL    HW1 9388   1.250   5.204   7.200 -1.9453 -0.4411 -0.4294
 2724SOL    HW2 9389   1.304   5.345   7.214 -1.9578 -0.5574  0.9490
 2725SOL     OW 9390   0.673   4.037   6.224  0.0836 -0.0569  0.4036
 2725SOL    HW1 9391   0.655   4.033   6.318  0.3958  0.2053  0.4742
 2725SOL    HW2 9392   0.621   4.111   6.193 -0.8735 -0.8055  0.1731
 2726SOL     OW 9393   0.204   5.021   7.079 -0.2206  0.4446 -0.3412
 2726SOL    HW1 9394   0.279   4.963   7.095 -1.3684 -1.0631 -0.2484
 2726SOL    HW2 9395   0.146   4.970   7.022 -0.9334  1.8005 -0.8670
 2727SOL     OW 9396   1.564   5.274   5.930  0.8706  0.3321  0.6028
 2727SOL    HW1 9397   1.598   5.338   5.992  2.0557  0.3395 -0.0277
 2727SOL    HW2 9398   1.642   5.229   5.897  0.1573 -0.5243  0.0514
 2728SOL     OW 9399   0.664   5.732   7.521  0.4702  0.1842 -0.1017
 2728SOL    HW1 9400   0.685   5.824   7.505  2.6280 -0.2816 -0.2883
 2728SOL    HW2 9401   0.569   5.727   7.512  0.4304  2.1405 -1.3563
 2729SOL     OW 9402   0.122   3.685   7.393 -0.2277  0.4710 -0.2334
 2729SOL    HW1 9403   0.122   3.710   7.485  0.9277 -1.2910  0.2816
 2729SOL    HW2 9404   0.047   3.732   7.355 -1.5664  0.1438  1.8868
 2730SOL     OW 9405   1.056   4.984   6.955  0.1159 -0.0798  0.5847
 2730SOL    HW1 9406   1.118   5.015   6.890 -0.3789 -0.4814 -0.1018
 2730SOL    HW2 9407   1.094   4.903   6.989  0.1302 -0.1439  0.4148
 2731SOL     OW 9408   1.552   5.650   6.310  0.5206 -0.5938 -0.0064
 2731SOL    HW1 9409   1.501   5.575   6.340 -0.6402  0.5985  1.1462
 2731SOL    HW2 9410   1.486   5.719   6.296  1.8030  1.1757  2.0562
 2732SOL     OW 9411   0.648   4.942   6.064 -0.1271 -0.4048 -0.1223
 2732SOL    HW1 9412   0.574   4.963   6.007 -1.0093 -2.0885  0.3404
 2732SOL    HW2 9413   0.613   4.879   6.127  1.5351 -0.7204  0.5408
 2733SOL     OW 9414   1.267   4.556   6.544  0.4822 -0.0676  0.0569
 2733SOL    HW1 9415   1.234   4.604   6.620  0.8454  0.3277 -0.0293
 2733SOL    HW2 9416   1.194   4.554   6.483 -0.0118 -0.9185  0.6574
 2734SOL     OW 9417   1.867   5.181   6.239 -0.3424  0.1687  0.0405
 2734SOL    HW1 9418   1.886   5.089   6.221 -0.7505  0.2015 -0.6133
 2734SOL    HW2 9419   1.950   5.226   6.226 -0.0317 -0.1715  0.8365
 2735SOL     OW 9420   0.707   4.211   7.301  0.2057  0.0947  0.2408
 2735SOL    HW1 9421   0.781   4.150   7.306 -0.7800 -1.1308  0.5298
 2735SOL    HW2 9422   0.746   4.298   7.305  1.4998 -0.4919  3.1582
 2736SOL     OW 9423   1.161   4.146   7.397 -0.3532  0.0073  0.1693
 2736SOL    HW1 9424   1.159   4.178   7.487  1.0646 -2.5297  1.1940
 2736SOL    HW2 9425   1.245   4.102   7.388 -0.0834  0.8499 -2.6974
 2737SOL     OW 9426   0.662   4.770   7.191 -0.8201 -0.4961 -0.1854
 2737SOL    HW1 9427   0.727   4.700   7.187  0.9416  1.1031 -1.2163
 2737SOL    HW2 9428   0.674   4.818   7.109 -2.0949  0.9188  0.4094
 2738SOL     OW 9429   0.844   4.607   6.820 -0.2642  0.1021 -0.1355
 2738SOL    HW1 9430   0.807   4.537   6.875 -1.0085  1.0695  0.6405
 2738SOL    HW2 9431   0.787   4.609   6.743  1.4914 -2.0797 -1.6545
 2739SOL     OW 9432   1.353   4.599   5.894  0.8748 -0.1490 -0.2907
 2739SOL    HW1 9433   1.308   4.683   5.891  1.4520  0.1920  0.4216
 2739SOL    HW2 9434   1.425   4.612   5.956  0.4089 -1.4413  0.5669
 2740SOL     OW 9435   8.641   4.812   5.927 -0.7644 -0.0380  0.2939
 2740SOL    HW1 9436   8.722   4.857   5.953 -0.7839  1.4583 -1.9717
 2740SOL    HW2 9437   8.581   4.827   6.000 -0.1636  2.0721  0.4186
 2741SOL     OW 9438   8.760   5.130   6.928  0.2205  0.4237 -0.3221
 2741SOL    HW1 9439   8.823   5.184   6.975  0.0813  1.9412 -1.7571
 2741SOL    HW2 9440   8.798   5.042   6.927  0.1048  0.2584  2.7136
 2742SOL     OW 9441   0.978   4.421   5.703  0.1858 -0.0581 -0.3289
 2742SOL    HW1 9442   1.006   4.484   5.636 -0.8488 -0.2402 -0.9523
 2742SOL    HW2 9443   1.044   4.352   5.701  0.1841 -0.0395 -1.1325
 2743SOL     OW 9444   1.478   4.240   7.288 -0.2876  0.3465  0.4705
 2743SOL    HW1 9445   1.442   4.153   7.308 -1.5334  0.8796  0.6151
 2743SOL    HW2 9446   1.417   4.276   7.223  0.1595  1.1648  0.5009
 2744SOL     OW 9447   1.608   5.469   6.106 -0.7090  0.1653 -0.4300
 2744SOL    HW1 9448   1.534   5.481   6.165 -2.6942 -0.1403 -2.6908
 2744SOL    HW2 9449   1.617   5.554   6.062 -2.1138 -0.7589 -2.6677
 2745SOL     OW 9450   0.732   3.923   6.710  0.0273 -0.2435 -0.1868
 2745SOL    HW1 9451   0.746   3.842   6.759 -1.0058 -1.6499 -2.0726
 2745SOL    HW2 9452   0.814   3.935   6.660 -0.6778 -1.5403 -1.7471
 2746SOL     OW 9453   0.625   5.567   6.130 -0.1807  0.3023 -0.2716
 2746SOL    HW1 9454   0.675   5.527   6.200 -0.9797 -1.3451 -0.5846
 2746SOL    HW2 9455   0.689   5.617   6.079  0.7592 -0.1503  0.4478
 2747SOL     OW 9456   0.251   5.840   6.572  0.4245 -0.5449  0.3940
 2747SOL    HW1 9457   0.227   5.762   6.523 -0.1095 -0.4061  0.4312
 2747SOL    HW2 9458   0.177   5.855   6.631  0.4207  0.1290  0.2188
 2748SOL     OW 9459   2.060   4.484   6.819  0.1376 -0.7977 -0.1334
 2748SOL    HW1 9460   2.049   4.424   6.893 -1.8458  0.4453  0.6954
 2748SOL    HW2 9461   1.989   4.461   6.759 -1.5166  1.4032  0.8050
 2749SOL     OW 9462   1.203   4.942   7.241  0.3975 -0.1970  0.1514
 2749SOL    HW1 9463   1.136   4.874   7.249  0.1005  0.1023  0.2449
 2749SOL    HW2 9464   1.285   4.897   7.262  0.3975 -0.8594 -1.1391
 2750SOL     OW 9465   0.451   4.987   5.858  0.1323 -0.0413  0.3423
 2750SOL    HW1 9466   0.378   4.942   5.816 -1.4970  2.3759  0.3581
 2750SOL    HW2 9467   0.528   4.957   5.811 -0.9318 -2.0583 -0.2295
 2751SOL     OW 9468   1.401   4.986   6.557 -0.3562  0.5251  0.4023
 2751SOL    HW1 9469   1.470   5.046   6.528  0.8424 -0.6184  0.7599
 2751SOL    HW2 9470   1.414   4.907   6.504 -0.9176  0.0199  0.9895
 2752SOL     OW 9471   0.245   5.467   7.712 -0.2366  0.2386 -0.4299
 2752SOL    HW1 9472   0.180   5.412   7.667  0.0197  0.5414 -1.1951
 2752SOL    HW2 9473   0.322   5.465   7.655 -0.2981  1.5611 -0.5919
 2753SOL     OW 9474   1.123   5.629   6.277  0.2057 -0.2438  0.0441
 2753SOL    HW1 9475   1.032   5.653   6.258  0.4010  0.0607 -0.5180
 2753SOL    HW2 9476   1.149   5.575   6.203  1.0481  1.1242 -0.6999
 2754SOL     OW 9477   0.345   3.921   6.869  0.3404 -0.5468  0.2804
 2754SOL    HW1 9478   0.363   3.917   6.963 -1.2060 -0.9850  0.5847
 2754SOL    HW2 9479   0.300   4.004   6.856 -0.9428 -1.2182  0.2344
 2755SOL     OW 9480   1.761   5.078   5.843 -0.2207 -0.5130  0.2563
 2755SOL    HW1 9481   1.852   5.084   5.873 -0.3992 -0.3018  0.7513
 2755SOL    HW2 9482   1.765   5.106   5.751  0.1544 -0.1465  0.3823
 2756SOL     OW 9483   0.273   5.915   5.515 -0.1284  0.3076 -0.0839
 2756SOL    HW1 9484   0.343   5.980   5.519 -0.9409  1.1770  0.6111
 2756SOL    HW2 9485   0.219   5.933   5.592  0.6340 -2.3950  1.2295
 2757SOL     OW 9486   1.286   4.072   6.404 -0.1392  1.0011  0.4012
 2757SOL    HW1 9487   1.282   3.979   6.383  0.6316  0.9901  0.2914
 2757SOL    HW2 9488   1.314   4.114   6.323  0.9075  1.1709  0.8475
 2758SOL     OW 9489   8.278   5.904   6.688 -0.4421 -0.6267  0.4101
 2758SOL    HW1 9490   8.342   5.834   6.677 -1.0327 -0.9908 -0.8827
 2758SOL    HW2 9491   8.279   5.952   6.605  0.2778  1.2149  1.4307
 2759SOL     OW 9492   0.902   5.894   6.772 -0.0639 -0.3230  0.0655
 2759SOL    HW1 9493   0.903   5.860   6.862  1.2536  0.3008  0.3051
 2759SOL    HW2 9494   0.826   5.953   6.770  0.7322  0.7934  1.2205
 2760SOL     OW 9495   0.466   5.101   6.280  0.3088 -0.2066  0.1053
 2760SOL    HW1 9496   0.502   5.039   6.343 -0.1788 -0.5464  0.0564
 2760SOL    HW2 9497   0.525   5.096   6.205 -0.2769 -1.3474 -0.2925
 2761SOL     OW 9498   1.305   4.250   7.038 -0.0221 -0.4116 -0.1010
 2761SOL    HW1 9499   1.338   4.160   7.043 -0.8748 -0.6944  0.8773
 2761SOL    HW2 9500   1.358   4.291   6.970  0.0091 -1.8075 -0.9641
 2762SOL     OW 9501   0.424   4.004   5.385 -0.4155 -0.1228 -0.0228
 2762SOL    HW1 9502   0.486   3.994   5.313  0.3066  2.6365  0.1018
 2762SOL    HW2 9503   0.346   3.956   5.358  0.9364 -1.7448 -1.2098
 2763SOL     OW 9504   0.919   4.051   7.344 -0.5839  0.7134  0.0305
 2763SOL    HW1 9505   0.997   4.099   7.371 -0.8873  0.6013  1.1555
 2763SOL    HW2 9506   0.952   3.966   7.315 -0.0517  1.5300 -1.8997
 2764SOL     OW 9507   0.882   5.674   7.207 -0.0050 -0.4729  0.7754
 2764SOL    HW1 9508   0.950   5.733   7.239 -0.1390 -0.0163  0.2416
 2764SOL    HW2 9509   0.906   5.588   7.241  1.1850 -0.4362  0.0889
 2765SOL     OW 9510   0.889   4.402   7.433  0.0164  0.5343 -0.0969
 2765SOL    HW1 9511   0.841   4.484   7.434 -0.5697  0.1959  1.3523
 2765SOL    HW2 9512   0.975   4.424   7.469  0.0959  0.6375 -0.3456
 2766SOL     OW 9513   0.813   5.215   6.542 -0.2120 -0.0273  0.1067
 2766SOL    HW1 9514   0.872   5.257   6.480  0.0660  1.5687  1.3707
 2766SOL    HW2 9515   0.870   5.157   6.594  0.2286  1.1664  1.0239
 2767SOL     OW 9516   0.784   4.616   6.513 -0.0419  0.7960 -0.5369
 2767SOL    HW1 9517   0.709   4.675   6.504  0.8594  1.9357 -0.8536
 2767SOL    HW2 9518   0.746   4.528   6.509 -1.5790  1.3185  1.3889
 2768SOL     OW 9519   0.663   4.534   6.194  0.0686  0.3043  0.1661
 2768SOL    HW1 9520   0.662   4.626   6.221 -1.5864  0.1540  0.6830
 2768SOL    HW2 9521   0.746   4.500   6.228 -0.1170  1.1611  1.5197
 2769SOL     OW 9522   1.249   5.171   5.928 -0.3516  0.1009  0.5131
 2769SOL    HW1 9523   1.327   5.196   5.977 -0.4834  0.3346  0.6042
 2769SOL    HW2 9524   1.282   5.134   5.847 -0.1684  1.0166  0.1682
 2770SOL     OW 9525   0.624   3.921   5.675 -0.1941  0.1675 -0.1306
 2770SOL    HW1 9526   0.578   4.001   5.651  0.0537 -0.0671 -1.4967
 2770SOL    HW2 9527   0.556   3.854   5.679 -0.2424  0.2113 -0.2054
 2771SOL     OW 9528   1.111   4.458   5.945 -0.4541  0.4282 -0.4365
 2771SOL    HW1 9529   1.193   4.507   5.945  0.7480 -1.4759 -1.5799
 2771SOL    HW2 9530   1.071   4.477   5.860 -1.5367  1.7909  0.3295
 2772SOL     OW 9531   0.777   4.864   6.958  0.3170  0.3823 -0.5885
 2772SOL    HW1 9532   0.814   4.785   6.918  0.4570 -0.5049  1.1917
 2772SOL    HW2 9533   0.850   4.925   6.963  0.5355  0.1369 -0.7679
 2773SOL     OW 9534   1.367   5.848   6.591 -0.0156 -0.1892  0.2003
 2773SOL    HW1 9535   1.284   5.802   6.603 -1.7226  2.8975  1.0208
 2773SOL    HW2 9536   1.386   5.838   6.497 -1.1774 -1.0890  0.0380
 2774SOL     OW 9537   0.220   5.524   6.455  0.0378 -1.1613  0.3574
 2774SOL    HW1 9538   0.161   5.462   6.498 -1.2443 -1.7589 -2.1052
 2774SOL    HW2 9539   0.287   5.470   6.414  1.6048 -0.5577  1.9956
 2775SOL     OW 9540   1.343   5.825   6.324 -0.0334  0.3880 -0.0629
 2775SOL    HW1 9541   1.285   5.900   6.311 -1.4611 -0.7169 -0.2872
 2775SOL    HW2 9542   1.289   5.749   6.303  1.2635 -0.7362  0.5279
 2776SOL     OW 9543   1.130   4.777   5.403  0.7754  0.5874  0.1515
 2776SOL    HW1 9544   1.178   4.828   5.468  2.5127 -0.7525 -0.0056
 2776SOL    HW2 9545   1.127   4.688   5.439 -0.8019  0.4311 -0.2931
 2777SOL     OW 9546   0.095   4.731   7.135 -0.1211  0.0354 -0.0468
 2777SOL    HW1 9547   0.130   4.643   7.147 -0.5950 -0.1527 -0.0388
 2777SOL    HW2 9548   0.082   4.764   7.224 -1.8390 -0.6490 -0.0043
 2778SOL     OW 9549   0.394   4.446   6.530  0.1042  0.2013  0.3555
 2778SOL    HW1 9550   0.381   4.380   6.462  1.7510  1.2547 -1.0488
 2778SOL    HW2 9551   0.482   4.429   6.564 -0.2450  0.4278  1.3996
 2779SOL     OW 9552   1.017   4.587   6.396 -0.1463 -0.1994 -0.5436
 2779SOL    HW1 9553   0.928   4.583   6.431 -0.3250 -1.7493 -1.1102
 2779SOL    HW2 9554   1.019   4.523   6.326  1.5668 -0.5796 -0.2058
 2780SOL     OW 9555   0.964   3.652   6.682 -0.5656  0.1816 -0.4377
 2780SOL    HW1 9556   1.056   3.634   6.701 -0.4522 -1.0184 -1.9607
 2780SOL    HW2 9557   0.965   3.727   6.623 -0.6854  1.2534  0.8863
 2781SOL     OW 9558   1.257   5.084   6.759 -0.2589 -0.4862 -0.3438
 2781SOL    HW1 9559   1.322   5.109   6.824  0.5972 -1.6565 -0.7072
 2781SOL    HW2 9560   1.309   5.051   6.685 -1.2452 -0.6213 -0.9920
 2782SOL     OW 9561   1.832   4.508   6.632  0.9135  0.9511 -0.5116
 2782SOL    HW1 9562   1.816   4.601   6.622  0.6488  1.1062  1.0944
 2782SOL    HW2 9563   1.842   4.475   6.542  0.7571  2.4616 -1.1040
 2783SOL     OW 9564   1.786   4.691   6.294 -0.5807 -0.6060  0.7308
 2783SOL    HW1 9565   1.704   4.684   6.245 -0.5892  1.4632  0.3373
 2783SOL    HW2 9566   1.769   4.759   6.359  1.7332  2.5508 -1.5799
 2784SOL     OW 9567   0.400   5.193   5.518  0.2315  0.3319 -0.1204
 2784SOL    HW1 9568   0.360   5.119   5.473 -0.0435 -1.1332  2.3171
 2784SOL    HW2 9569   0.489   5.163   5.538  0.7815  1.4556 -0.7787
 2785SOL     OW 9570   1.883   5.124   6.624  0.7408  0.2379 -0.2069
 2785SOL    HW1 9571   1.935   5.138   6.545 -2.3185 -0.1090 -2.4614
 2785SOL    HW2 9572   1.839   5.208   6.638 -1.3669 -0.6639 -1.0308
 2786SOL     OW 9573   1.439   5.069   5.755 -0.0817  0.0016  0.6032
 2786SOL    HW1 9574   1.494   5.076   5.833 -0.2230  0.0534  0.6981
 2786SOL    HW2 9575   1.500   5.044   5.686 -0.1373 -1.2150  0.9635
 2787SOL     OW 9576   0.947   4.459   6.181 -0.0366 -0.0843  0.3398
 2787SOL    HW1 9577   0.991   4.393   6.127  0.0153  0.8787 -0.8330
 2787SOL    HW2 9578   0.918   4.526   6.118 -1.2980  0.3361  1.3455
 2788SOL     OW 9579   1.849   4.776   7.318 -0.7865  0.2457 -0.2242
 2788SOL    HW1 9580   1.892   4.709   7.372  1.1872 -0.5712 -2.6504
 2788SOL    HW2 9581   1.797   4.827   7.381  0.5931 -1.2090  2.2675
 2789SOL     OW 9582   0.892   5.603   6.945 -0.3820 -0.2288  0.0854
 2789SOL    HW1 9583   0.892   5.640   7.034  0.2307 -2.0820  0.8948
 2789SOL    HW2 9584   0.829   5.531   6.949  0.0288 -0.6565 -0.8397
 2790SOL     OW 9585   1.453   5.304   7.632  0.1815 -0.0891 -0.0321
 2790SOL    HW1 9586   1.539   5.337   7.655 -0.0376 -0.5624  1.5887
 2790SOL    HW2 9587   1.394   5.378   7.649  0.0657 -0.3186  0.5904
 2791SOL     OW 9588   0.967   5.526   6.713 -0.1547 -0.1717  0.8114
 2791SOL    HW1 9589   0.945   5.552   6.802 -0.7375 -0.8911  0.8922
 2791SOL    HW2 9590   0.999   5.436   6.721  0.7974  0.1230  0.4170
 2792SOL     OW 9591   1.518   4.969   7.211  0.7500  0.2861  0.4666
 2792SOL    HW1 9592   1.488   5.035   7.273  2.6825 -0.7706  2.7094
 2792SOL    HW2 9593   1.590   5.012   7.164  0.1767  0.6517 -0.0850
 2793SOL     OW 9594   0.929   4.188   6.947 -0.5914 -0.5594 -0.0345
 2793SOL    HW1 9595   0.957   4.225   7.031  0.5114 -0.1685 -0.5577
 2793SOL    HW2 9596   0.955   4.096   6.952 -0.0046 -0.4081 -0.1524
 2794SOL     OW 9597   1.348   5.038   7.810 -0.2486 -0.0569 -0.2272
 2794SOL    HW1 9598   1.313   5.018   7.897  0.2513 -1.2377 -0.2749
 2794SOL    HW2 9599   1.318   5.127   7.792  0.6651  0.7048  1.6769
 2795SOL     OW 9600   0.290   5.202   5.885  0.4012  0.5246  0.3610
 2795SOL    HW1 9601   0.364   5.261   5.867  0.2431  0.6023 -0.0470
 2795SOL    HW2 9602   0.329   5.115   5.890  0.6559  0.6770  1.1013
 2796SOL     OW 9603   0.398   4.828   7.162  0.6178  0.3203  0.5935
 2796SOL    HW1 9604   0.345   4.751   7.142  1.3150 -0.2631  0.9312
 2796SOL    HW2 9605   0.486   4.794   7.176  1.1491  1.2973 -0.2093
 2797SOL     OW 9606   0.900   4.577   7.133  0.6455  0.1133  0.8302
 2797SOL    HW1 9607   0.965   4.507   7.134  0.3112 -0.2506 -0.9929
 2797SOL    HW2 9608   0.832   4.547   7.073 -0.5024  1.1325  1.5736
 2798SOL     OW 9609   0.019   5.008   7.283  0.5925 -0.0313  0.4257
 2798SOL    HW1 9610   0.072   5.005   7.204 -0.8988 -2.0701 -0.6043
 2798SOL    HW2 9611   0.054   4.939   7.339  0.2775 -0.0657  0.5858
 2799SOL     OW 9612   0.388   4.779   6.087  0.1041 -0.8377  0.5077
 2799SOL    HW1 9613   0.427   4.699   6.050  0.9815 -0.0856 -0.2355
 2799SOL    HW2 9614   0.354   4.751   6.172  0.4105 -2.0010  0.2726
 2800SOL     OW 9615   0.668   4.807   6.289  0.5279  1.2551  0.0928
 2800SOL    HW1 9616   0.749   4.850   6.317  0.0151  1.4861  1.2379
 2800SOL    HW2 9617   0.613   4.805   6.367 -0.6720  1.3055 -0.7282
 2801SOL     OW 9618   1.518   5.143   6.248  0.0263 -0.5265 -0.2892
 2801SOL    HW1 9619   1.592   5.111   6.300  0.9962  1.2297 -0.4836
 2801SOL    HW2 9620   1.554   5.153   6.160 -0.6859 -0.4157 -0.5709
 2802SOL     OW 9621   1.073   5.296   6.765 -0.2082  0.4599  0.6701
 2802SOL    HW1 9622   1.036   5.287   6.853 -0.4971  1.9312  0.7277
 2802SOL    HW2 9623   1.142   5.230   6.762 -0.7688 -0.2183  1.6755
 2803SOL     OW 9624   1.483   4.732   6.168  0.0019 -0.0145  0.8640
 2803SOL    HW1 9625   1.412   4.795   6.161  0.4773  0.5606  1.1041
 2803SOL    HW2 9626   1.541   4.753   6.095  0.5413  0.3237  1.3797
 2804SOL     OW 9627   0.001   5.863   6.796  0.4409  0.1071 -0.8642
 2804SOL    HW1 9628   0.010   5.815   6.878 -0.4555 -0.3277 -1.0050
 2804SOL    HW2 9629  -0.062   5.811   6.745  0.9258  0.4080 -1.7921
 2805SOL     OW 9630   0.493   4.139   7.455  0.6179  0.6333 -0.0573
 2805SOL    HW1 9631   0.485   4.044   7.470 -0.6048  0.8227  0.6190
 2805SOL    HW2 9632   0.580   4.150   7.417  2.7961 -0.3098  4.0242
 2806SOL     OW 9633   1.625   4.284   6.998  0.1375 -0.3789  0.4647
 2806SOL    HW1 9634   1.612   4.352   7.064 -0.2974  0.5232 -0.5288
 2806SOL    HW2 9635   1.608   4.327   6.914  2.5975 -0.9604 -0.4314
 2807SOL     OW 9636   0.928   3.463   7.742  0.5164  0.4845  0.8231
 2807SOL    HW1 9637   0.884   3.388   7.781  0.1087  1.5385  2.4843
 2807SOL    HW2 9638   0.887   3.539   7.782  1.6288  1.5802 -0.0322
 2808SOL     OW 9639   0.166   3.601   6.939 -0.0596 -0.8185  0.3942
 2808SOL    HW1 9640   0.184   3.509   6.958 -0.0359 -0.8070  0.4287
 2808SOL    HW2 9641   0.217   3.649   7.004 -0.9002 -0.8022  1.0540
 2809SOL     OW 9642   0.586   5.014   6.540  0.2987  0.1029  0.0938
 2809SOL    HW1 9643   0.559   5.006   6.631  0.2663  0.9948  0.1660
 2809SOL    HW2 9644   0.660   5.074   6.542  1.4545 -1.2650 -0.2667
 2810SOL     OW 9645   1.388   4.826   6.945  0.1611 -0.8138 -0.0544
 2810SOL    HW1 9646   1.384   4.918   6.919 -1.1762 -0.7158  0.4416
 2810SOL    HW2 9647   1.437   4.827   7.027  1.0087 -0.6685 -0.5530
 2811SOL     OW 9648   1.232   4.249   5.646  0.3411 -0.6800  0.2952
 2811SOL    HW1 9649   1.248   4.176   5.586  1.0602 -0.5797  0.3597
 2811SOL    HW2 9650   1.319   4.280   5.671  0.0809 -1.0935  1.8503
 2812SOL     OW 9651   0.463   4.368   6.937  0.3397 -0.4977 -0.0902
 2812SOL    HW1 9652   0.395   4.411   6.885 -0.0382 -1.2446 -0.2355
 2812SOL    HW2 9653   0.491   4.295   6.882  0.1227 -1.1426  0.6386
 2813SOL     OW 9654   0.013   4.920   6.492 -0.0148  0.4176  0.1538
 2813SOL    HW1 9655   0.072   4.977   6.442 -0.0357 -0.4404 -0.9093
 2813SOL    HW2 9656  -0.029   4.977   6.556 -0.1445  1.6256 -0.9749
 2814SOL     OW 9657   0.937   4.899   6.604  0.2595 -0.0670  0.0870
 2814SOL    HW1 9658   0.979   4.897   6.691 -2.1758  2.0103  1.4546
 2814SOL    HW2 9659   0.900   4.811   6.594 -0.7782  0.0864  1.9674
 2815SOL     OW 9660   1.309   4.727   7.466 -0.8516  0.1370  0.0310
 2815SOL    HW1 9661   1.243   4.664   7.437  0.6069 -1.1464 -0.6259
 2815SOL    HW2 9662   1.388   4.675   7.480  0.4721  1.8367 -0.7236
 2816SOL     OW 9663   0.185   4.040   6.278  0.3001  0.4874 -0.2888
 2816SOL    HW1 9664   0.144   4.038   6.364  1.2270 -1.0443  0.1698
 2816SOL    HW2 9665   0.256   3.975   6.284 -0.2898 -0.4560 -2.5327
 2817SOL     OW 9666   1.815   4.120   6.322  0.0291 -0.2216 -0.3180
 2817SOL    HW1 9667   1.903   4.107   6.356 -0.4638 -0.2544  0.9952
 2817SOL    HW2 9668   1.818   4.205   6.277  0.7295 -0.2420 -0.3163
 2818SOL     OW 9669   1.151   4.856   6.406  0.0571  0.2807  0.1099
 2818SOL    HW1 9670   1.147   4.856   6.502  0.7922 -1.6493  0.1982
 2818SOL    HW2 9671   1.102   4.777   6.381 -1.4285  1.5539 -1.2214
 2819SOL     OW 9672   0.980   5.132   7.460 -0.1794 -0.4975  0.4060
 2819SOL    HW1 9673   1.066   5.124   7.419 -0.3042 -0.7802  0.2006
 2819SOL    HW2 9674   0.919   5.092   7.398 -0.4022 -0.6915  0.7466
 2820SOL     OW 9675   1.900   5.162   7.283 -0.2996  0.2987 -0.4444
 2820SOL    HW1 9676   1.911   5.132   7.193  0.8093  1.1517 -0.6168
 2820SOL    HW2 9677   1.923   5.255   7.281 -1.7787  0.7218  0.4328
 2821SOL     OW 9678   0.746   4.618   7.440  0.0399  0.0836  0.3441
 2821SOL    HW1 9679   0.708   4.696   7.401 -2.2824  1.0810  4.0733
 2821SOL    HW2 9680   0.675   4.554   7.439  0.0344 -0.0096  2.2425
 2822SOL     OW 9681   1.810   3.987   5.630  0.2952 -0.7642 -0.0528
 2822SOL    HW1 9682   1.745   3.985   5.700  1.6452  2.2943  1.4959
 2822SOL    HW2 9683   1.892   3.960   5.673  0.9229 -0.0030 -0.7359
 2823SOL     OW 9684   1.241   4.969   5.582 -0.4158 -0.0681  0.2708
 2823SOL    HW1 9685   1.327   4.993   5.617 -0.3770 -1.1570  0.9914
 2823SOL    HW2 9686   1.216   5.042   5.526  0.9092  0.3376  0.1825
 2824SOL     OW 9687   1.238   5.343   6.494  0.4738  0.1787  0.2533
 2824SOL    HW1 9688   1.303   5.309   6.556 -0.5045 -0.1597  1.1276
 2824SOL    HW2 9689   1.172   5.385   6.549 -0.6737 -0.5559 -0.5183
 2825SOL     OW 9690   0.216   5.102   6.672 -0.2949 -0.2306  0.0291
 2825SOL    HW1 9691   0.217   5.190   6.710 -0.5535  0.3848 -1.3250
 2825SOL    HW2 9692   0.205   5.117   6.578 -1.5947 -1.7593 -0.0950
 2826SOL     OW 9693   8.824   4.440   6.460 -0.7576 -0.1015  0.3618
 2826SOL    HW1 9694   8.728   4.442   6.459 -0.7999 -1.4052  0.5125
 2826SOL    HW2 9695   8.849   4.456   6.369 -1.1667 -1.1050  0.0615
 2827SOL     OW 9696   1.027   4.348   7.171 -0.3347  0.1268 -0.0219
 2827SOL    HW1 9697   1.035   4.310   7.258 -0.5478 -0.2136 -0.1463
 2827SOL    HW2 9698   1.103   4.316   7.123  0.5669  1.5038  0.4671
 2828SOL     OW 9699   1.224   3.553   7.467  0.2161  0.6774 -0.2589
 2828SOL    HW1 9700   1.280   3.557   7.390 -0.4819  0.8671 -0.7687
 2828SOL    HW2 9701   1.268   3.492   7.526  0.7255  0.4867 -0.8293
 2829SOL     OW 9702   8.673   5.072   5.277  0.0106 -0.1876 -0.4149
 2829SOL    HW1 9703   8.603   5.088   5.340  0.2041 -0.0536 -0.2326
 2829SOL    HW2 9704   8.700   4.982   5.293  0.4238  0.0186  0.0578
 2830SOL     OW 9705   0.024   5.634   6.266 -0.3321 -0.3929 -0.0972
 2830SOL    HW1 9706   0.024   5.579   6.188  0.9835 -0.8328  0.1878
 2830SOL    HW2 9707   0.091   5.596   6.322 -1.3943 -0.2220  1.3625
 2831SOL     OW 9708   0.534   5.566   6.740  0.3538  0.0291 -0.4352
 2831SOL    HW1 9709   0.542   5.648   6.789  0.1145 -0.8274  1.1017
 2831SOL    HW2 9710   0.445   5.535   6.759  1.3005 -1.9129  1.2589
 2832SOL     OW 9711   1.096   4.739   6.783  0.4551 -0.5871  0.2129
 2832SOL    HW1 9712   1.163   4.713   6.848  0.8049 -1.6539 -0.5360
 2832SOL    HW2 9713   1.029   4.671   6.791 -1.3059  1.2274  1.9530
 2833SOL     OW 9714   8.841   4.969   6.030  0.3001  0.5292 -0.3897
 2833SOL    HW1 9715   8.804   4.999   6.113 -1.1471 -0.4220 -0.6512
 2833SOL    HW2 9716   8.819   5.037   5.967  2.3768  1.8059  0.1657
 2834SOL     OW 9717   8.832   4.463   6.811 -0.6247  0.2282 -0.1698
 2834SOL    HW1 9718   8.911   4.495   6.769 -1.4920  0.8672 -1.3721
 2834SOL    HW2 9719   8.766   4.530   6.792 -1.5730 -0.5314  0.3700
 2835SOL     OW 9720   1.168   4.432   7.486  0.2782 -0.0044  0.2269
 2835SOL    HW1 9721   1.200   4.432   7.396 -0.9943 -1.1707 -0.2422
 2835SOL    HW2 9722   1.228   4.373   7.533  0.7441  0.3539  0.0987
 2836SOL     OW 9723   0.879   4.946   6.361  0.2767 -0.0289  0.3617
 2836SOL    HW1 9724   0.957   4.920   6.311 -1.5611 -4.1708 -0.8087
 2836SOL    HW2 9725   0.902   4.925   6.452  1.3125  1.1592  0.4071
 2837SOL     OW 9726   1.495   4.687   7.212 -0.5560 -0.2054  0.0495
 2837SOL    HW1 9727   1.498   4.773   7.254 -0.8774 -0.3284  0.3270
 2837SOL    HW2 9728   1.553   4.695   7.136 -0.6854  0.2939  0.0009
 2838SOL     OW 9729   0.472   5.377   7.171 -0.3047  1.1526 -0.2169
 2838SOL    HW1 9730   0.420   5.338   7.101  1.4124 -0.5835 -0.5810
 2838SOL    HW2 9731   0.443   5.333   7.251  2.1168 -1.6070 -0.7100
 2839SOL     OW 9732   0.252   4.779   6.717 -0.2597  0.3518  0.0766
 2839SOL    HW1 9733   0.179   4.784   6.656 -0.3294  0.4722  0.1703
 2839SOL    HW2 9734   0.291   4.866   6.716  0.3139  0.0932 -0.5039
 2840SOL     OW 9735   0.535   5.794   6.905 -0.1648  0.2467  0.0815
 2840SOL    HW1 9736   0.626   5.818   6.922  0.1939 -0.7652 -0.3466
 2840SOL    HW2 9737   0.502   5.761   6.989 -0.1128  0.5239  0.2112
 2841SOL     OW 9738   0.512   4.564   5.977  0.5359 -0.0319 -0.4955
 2841SOL    HW1 9739   0.577   4.565   6.048 -0.7967  0.9418  0.7751
 2841SOL    HW2 9740   0.479   4.474   5.977 -0.9330  0.4490  1.5890
 2842SOL     OW 9741   0.354   5.233   7.379  0.0925 -0.1171  0.5894
 2842SOL    HW1 9742   0.346   5.279   7.462  2.1137  0.2783  0.6051
 2842SOL    HW2 9743   0.424   5.170   7.393  0.0508 -0.4618 -0.6403
 2843SOL     OW 9744   0.665   5.088   7.181 -0.3706  0.0781  0.5411
 2843SOL    HW1 9745   0.695   5.164   7.132  3.1351 -0.3849  1.7193
 2843SOL    HW2 9746   0.745   5.041   7.205 -2.1957 -2.2808  2.6191
 2844SOL     OW 9747   1.625   4.834   5.949  0.3390 -0.0540 -0.3946
 2844SOL    HW1 9748   1.665   4.771   5.889  1.4292 -0.7965  1.0666
 2844SOL    HW2 9749   1.659   4.919   5.919 -0.0263 -0.2760 -1.5031
 2845SOL     OW 9750   1.800   5.539   6.637  0.2248  0.2643 -0.2243
 2845SOL    HW1 9751   1.865   5.606   6.656 -0.1808  0.7508 -0.5126
 2845SOL    HW2 9752   1.796   5.485   6.716  1.1784  0.0567 -0.3163
 2846SOL     OW 9753   1.158   5.954   7.004 -0.3339 -0.4231  0.2300
 2846SOL    HW1 9754   1.219   6.023   7.032  0.7395 -1.1354 -0.3061
 2846SOL    HW2 9755   1.196   5.873   7.037 -0.9078 -0.9052 -0.2612
 2847SOL     OW 9756   8.823   5.500   6.570  0.3702 -0.3299  0.1556
 2847SOL    HW1 9757   8.795   5.579   6.523  1.2441  0.8868  1.5937
 2847SOL    HW2 9758   8.753   5.436   6.552 -2.2003  1.8344  1.6903
 2848SOL     OW 9759   0.915   5.384   7.321  0.2879  0.2174 -0.0142
 2848SOL    HW1 9760   0.864   5.379   7.402  1.5067  1.8096  0.9151
 2848SOL    HW2 9761   0.850   5.404   7.253 -0.8091 -1.4969  0.4500
 2849SOL     OW 9762   1.568   3.959   6.317 -0.0614  0.5197 -0.3448
 2849SOL    HW1 9763   1.645   4.015   6.311  0.9931 -1.0227 -3.2000
 2849SOL    HW2 9764   1.507   3.997   6.253 -0.6733  0.3227  0.1185
 2850SOL     OW 9765   1.401   5.403   6.290  0.3150  0.6018  0.0400
 2850SOL    HW1 9766   1.445   5.319   6.278  0.0756  0.4283  0.3556
 2850SOL    HW2 9767   1.341   5.389   6.363 -0.4648  0.7548 -0.5589
 2851SOL     OW 9768   0.043   5.498   7.161 -0.2025  0.5863 -0.0195
 2851SOL    HW1 9769   0.080   5.411   7.176  0.7404  1.1129  0.7617
 2851SOL    HW2 9770   0.009   5.525   7.247 -3.4979 -0.3420 -0.8938
 2852SOL     OW 9771   1.170   4.837   5.963 -0.1539 -0.0780  0.1450
 2852SOL    HW1 9772   1.222   4.899   6.013 -0.6503  2.2013 -1.9679
 2852SOL    HW2 9773   1.085   4.836   6.007 -0.0592  0.5717  0.3493
 2853SOL     OW 9774   0.712   5.369   6.834 -0.1285  0.4928  0.2739
 2853SOL    HW1 9775   0.733   5.304   6.767  1.6138  1.5074 -0.2323
 2853SOL    HW2 9776   0.651   5.428   6.791 -2.1576 -1.0415  0.9099
 2854SOL     OW 9777   0.697   5.618   5.789  0.3223  0.0776 -0.3827
 2854SOL    HW1 9778   0.654   5.702   5.775  1.8778  1.1242  0.7463
 2854SOL    HW2 9779   0.648   5.556   5.734 -0.4052  1.8351 -1.8099
 2855SOL     OW 9780   1.735   5.455   7.108 -0.2227 -0.1033 -0.2989
 2855SOL    HW1 9781   1.700   5.527   7.055 -1.2698 -1.4557 -1.5400
 2855SOL    HW2 9782   1.773   5.498   7.185 -1.6228  1.6921 -0.5415
 2856SOL     OW 9783   1.767   4.163   6.599  0.2043 -0.7550 -0.2474
 2856SOL    HW1 9784   1.818   4.240   6.626 -1.3900 -0.0638  0.9300
 2856SOL    HW2 9785   1.769   4.165   6.504 -0.6521  1.3542 -0.2629
 2857SOL     OW 9786   0.227   4.609   6.366 -0.3249  0.5991 -0.1820
 2857SOL    HW1 9787   0.275   4.547   6.421 -1.2583  2.1184  2.5258
 2857SOL    HW2 9788   0.158   4.557   6.325 -0.3979 -0.3623  1.1143
 2858SOL     OW 9789   1.243   5.459   5.992  0.3407 -0.2047  0.4439
 2858SOL    HW1 9790   1.161   5.486   5.952  0.0066  0.4921  1.5404
 2858SOL    HW2 9791   1.242   5.363   5.989 -1.1104 -0.2486  1.5839
 2859SOL     OW 9792   0.519   4.908   7.700  0.1778  0.6343  0.0692
 2859SOL    HW1 9793   0.490   4.938   7.614  0.0454  2.6752  0.7725
 2859SOL    HW2 9794   0.608   4.942   7.708  0.4117 -0.0675  0.5134
 2860SOL     OW 9795   0.529   4.739   6.522  0.0618  0.1272 -0.4488
 2860SOL    HW1 9796   0.438   4.712   6.531  0.2573 -0.7434 -1.0066
 2860SOL    HW2 9797   0.534   4.822   6.570 -0.6567 -0.5694  0.8858
 2861SOL     OW 9798   1.423   5.626   5.829 -0.1521 -0.3613  0.1789
 2861SOL    HW1 9799   1.375   5.561   5.880 -0.4012  0.8681  1.6065
 2861SOL    HW2 9800   1.369   5.642   5.752 -1.1125 -0.3606  0.8403
 2862SOL     OW 9801   0.084   5.256   7.291 -0.4386  0.2111  0.1608
 2862SOL    HW1 9802   0.176   5.252   7.315 -0.1661  1.1448 -0.6433
 2862SOL    HW2 9803   0.049   5.170   7.314  0.7814 -0.3834 -0.1356
 2863SOL     OW 9804   1.671   5.200   7.123  0.0329  0.0504  0.0102
 2863SOL    HW1 9805   1.685   5.294   7.112  1.1578 -0.3431 -2.9697
 2863SOL    HW2 9806   1.728   5.175   7.195 -0.2430  1.6161  0.8050
 2864SOL     OW 9807   1.038   5.176   6.105 -0.3325  0.4000 -0.7755
 2864SOL    HW1 9808   1.099   5.194   6.033 -0.8089  1.9014 -0.8315
 2864SOL    HW2 9809   0.952   5.200   6.071 -1.4912 -4.0492 -1.6110
 2865SOL     OW 9810   0.625   4.358   6.578 -0.0047  0.0908 -0.0103
 2865SOL    HW1 9811   0.620   4.275   6.530 -0.2579  0.1396 -0.0722
 2865SOL    HW2 9812   0.697   4.346   6.639  0.9820  0.3864 -1.0824
 2866SOL     OW 9813   0.452   5.408   6.329 -0.8622 -0.1255  0.3339
 2866SOL    HW1 9814   0.536   5.454   6.322 -1.2089  0.4398 -0.1593
 2866SOL    HW2 9815   0.476   5.315   6.333 -0.3043 -0.3497 -3.8676
 2867SOL     OW 9816   1.389   3.997   7.333 -0.1183 -0.3775 -0.0937
 2867SOL    HW1 9817   1.386   3.913   7.378  0.2176 -0.8800 -0.9709
 2867SOL    HW2 9818   1.432   3.978   7.250  1.2106  0.9364  0.2548
 2868SOL     OW 9819   0.066   5.294   5.392 -0.0142 -0.1601 -0.0393
 2868SOL    HW1 9820   0.087   5.387   5.395  1.1773 -0.3794 -1.0183
 2868SOL    HW2 9821  -0.007   5.284   5.454  0.3965  1.2655  0.7157
 2869SOL     OW 9822   0.523   4.470   7.359  0.1435 -0.2073 -0.4074
 2869SOL    HW1 9823   0.440   4.484   7.405  0.7999  1.7559  0.2627
 2869SOL    HW2 9824   0.502   4.406   7.291 -2.0083  0.4566 -0.4399
 2870SOL     OW 9825   0.740   4.419   6.980 -0.2018  0.1559  0.2025
 2870SOL    HW1 9826   0.768   4.331   7.002 -2.3850 -0.6998 -0.1401
 2870SOL    HW2 9827   0.650   4.408   6.947 -0.4189  2.4597 -0.1592
 2871SOL     OW 9828   0.023   3.971   5.289  0.0449 -0.6579 -0.3999
 2871SOL    HW1 9829  -0.007   4.032   5.357 -0.3950 -0.1739 -1.0169
 2871SOL    HW2 9830   0.010   3.884   5.328  0.7510 -0.3709  0.5165
 2872SOL     OW 9831   1.393   4.596   6.847  0.2300 -0.8701 -0.3677
 2872SOL    HW1 9832   1.421   4.675   6.894  2.6892 -2.0237  0.2660
 2872SOL    HW2 9833   1.474   4.562   6.808 -0.3902 -4.0639  0.9076
 2873SOL     OW 9834   8.820   4.039   6.010  0.2075 -0.3710  0.0148
 2873SOL    HW1 9835   8.798   4.091   6.087  0.9466  1.2986 -0.8340
 2873SOL    HW2 9836   8.775   3.956   6.022 -2.5415  1.0955  0.6162
 2874SOL     OW 9837   0.946   4.914   6.092  0.3854  0.2820 -0.0395
 2874SOL    HW1 9838   0.996   4.996   6.095  0.2084  0.4015 -0.4058
 2874SOL    HW2 9839   0.864   4.935   6.137  0.4142  0.2518  0.0285
 2875SOL     OW 9840   0.560   4.941   6.802  0.4536 -0.6157  0.0487
 2875SOL    HW1 9841   0.493   4.966   6.866 -1.1845 -2.1580 -0.9491
 2875SOL    HW2 9842   0.633   4.909   6.855 -0.4804 -0.9539  1.1910
 2876SOL     OW 9843   1.484   5.564   6.700 -0.5969 -0.6042  0.2034
 2876SOL    HW1 9844   1.577   5.584   6.690 -1.1243  0.9532 -2.4904
 2876SOL    HW2 9845   1.479   5.468   6.691  0.5851 -0.5448 -1.6017
 2877SOL     OW 9846   0.923   4.418   7.868  0.0860 -0.3205  0.2685
 2877SOL    HW1 9847   0.879   4.468   7.936  0.9376  0.2353  0.4204
 2877SOL    HW2 9848   0.853   4.390   7.809 -0.3324  1.6830 -0.2398
 2878SOL     OW 9849   1.777   5.012   7.485 -0.0745  0.1020  0.2377
 2878SOL    HW1 9850   1.787   5.084   7.422 -0.2952  0.4600  0.6029
 2878SOL    HW2 9851   1.721   5.049   7.553 -0.3917 -0.5057  0.3043
 2879SOL     OW 9852   8.626   5.811   7.147 -0.3460 -0.3083 -0.8363
 2879SOL    HW1 9853   8.606   5.837   7.237 -0.4307 -0.6026 -0.7692
 2879SOL    HW2 9854   8.541   5.809   7.103 -0.1031  2.2560 -1.5981
 2880SOL     OW 9855   1.896   4.733   6.813  0.2994  0.1480  0.8274
 2880SOL    HW1 9856   1.903   4.780   6.896  0.7873 -0.0997  0.9282
 2880SOL    HW2 9857   1.912   4.641   6.836 -0.3439 -0.0313  0.5829
 2881SOL     OW 9858   1.444   4.340   5.807 -0.0095  0.5548  0.3385
 2881SOL    HW1 9859   1.394   4.401   5.862 -1.8074 -2.6083  2.4769
 2881SOL    HW2 9860   1.535   4.354   5.833 -0.5635  1.0659  2.1653
 2882SOL     OW 9861   0.242   5.333   6.162 -0.0983  0.2894  0.0527
 2882SOL    HW1 9862   0.288   5.268   6.108 -1.1065  0.6083 -1.2344
 2882SOL    HW2 9863   0.313   5.382   6.203  0.6935 -1.2098  0.5821
 2883SOL     OW 9864   1.448   3.964   7.046 -0.0649  0.0995  0.1732
 2883SOL    HW1 9865   1.390   3.918   6.985  0.8515 -1.9504  0.7801
 2883SOL    HW2 9866   1.535   3.956   7.007  0.5849 -1.4926  1.8177
 2884SOL     OW 9867   1.307   4.492   7.237 -0.3794  0.1999  0.0559
 2884SOL    HW1 9868   1.296   4.447   7.153  0.1413 -1.2146  0.7128
 2884SOL    HW2 9869   1.369   4.563   7.218 -1.0162  0.5060 -0.9501
 2885SOL     OW 9870   0.928   5.483   5.923 -0.2826  0.2059 -0.0042
 2885SOL    HW1 9871   0.875   5.404   5.933 -1.3329  0.7336 -1.1444
 2885SOL    HW2 9872   0.882   5.550   5.973  0.8087  0.0489  1.2811
 2886SOL     OW 9873   0.765   5.863   7.031 -0.5165  0.2076  0.2042
 2886SOL    HW1 9874   0.824   5.929   7.067 -0.9429  0.4829  0.4163
 2886SOL    HW2 9875   0.791   5.782   7.074 -0.5829  0.4129  0.6419
 2887SOL     OW 9876   0.989   5.295   7.027 -0.4075 -0.1521  0.3175
 2887SOL    HW1 9877   0.930   5.306   7.101 -1.5621  0.9063 -0.7107
 2887SOL    HW2 9878   1.070   5.338   7.055 -1.7234  2.8372  0.0333
 2888SOL     OW 9879   1.018   4.954   5.745 -0.7789 -0.4475  0.3123
 2888SOL    HW1 9880   1.050   4.906   5.822 -2.2813  0.2618  1.4489
 2888SOL    HW2 9881   1.092   4.954   5.684 -0.1831 -2.7750  0.9038
 2889SOL     OW 9882   1.803   5.693   6.362 -0.4032 -0.0682  0.0277
 2889SOL    HW1 9883   1.722   5.668   6.319 -0.8006  1.6880 -0.3023
 2889SOL    HW2 9884   1.803   5.644   6.444 -1.5910 -0.4007 -0.1587
 2890SOL     OW 9885   0.107   4.913   7.672 -0.1931 -0.1820  0.1469
 2890SOL    HW1 9886   0.019   4.947   7.678  0.5455  1.9489 -0.3522
 2890SOL    HW2 9887   0.104   4.851   7.598 -0.7692  1.6649 -1.4396
 2891SOL     OW 9888   0.134   5.327   5.697  0.1400  0.2419 -0.0600
 2891SOL    HW1 9889   0.175   5.291   5.775 -1.3607 -0.0670  0.6182
 2891SOL    HW2 9890   0.200   5.318   5.628  0.7673 -1.3470  0.7061
 2892SOL     OW 9891   0.737   5.396   7.127 -0.4817  0.1078 -0.1230
 2892SOL    HW1 9892   0.647   5.396   7.158 -0.2797  1.0844  0.5089
 2892SOL    HW2 9893   0.732   5.367   7.036 -1.3429 -0.5411  0.1201
 2893SOL     OW 9894   1.597   4.418   6.775  1.0792  0.2835  0.1490
 2893SOL    HW1 9895   1.565   4.356   6.709 -0.2442  1.8395 -0.7771
 2893SOL    HW2 9896   1.648   4.482   6.725 -1.0583  2.2531  0.3023
 2894SOL     OW 9897   0.008   4.737   6.247 -0.5908  0.1177  0.1933
 2894SOL    HW1 9898   0.084   4.706   6.198 -1.4431 -1.5778 -0.1470
 2894SOL    HW2 9899   0.042   4.751   6.336 -0.0093 -1.4151  0.2585
 2895SOL     OW 9900   1.459   5.164   6.957 -0.7841 -0.4187  0.3309
 2895SOL    HW1 9901   1.398   5.201   7.020 -2.5239 -1.1644 -0.8287
 2895SOL    HW2 9902   1.543   5.159   7.004 -0.9758  2.7926  1.2448
 2896SOL     OW 9903   0.453   4.261   7.192  0.4173 -0.4952 -0.5821
 2896SOL    HW1 9904   0.478   4.265   7.100  0.6398 -3.2968 -0.7549
 2896SOL    HW2 9905   0.528   4.218   7.235  0.1873  0.4788  0.8631
 2897SOL     OW 9906   0.465   5.398   5.990 -0.3258  0.2960 -0.3666
 2897SOL    HW1 9907   0.528   5.448   6.042  0.0937  0.4733 -1.0278
 2897SOL    HW2 9908   0.467   5.440   5.904  0.4046 -1.1517 -1.0829
 2898SOL     OW 9909   0.888   4.311   6.698 -0.6669  0.8592  0.5638
 2898SOL    HW1 9910   0.899   4.247   6.769  0.3061 -0.9995 -1.1439
 2898SOL    HW2 9911   0.968   4.363   6.700 -0.1167  0.0518  0.1456
 2899SOL     OW 9912   1.033   3.941   6.909 -0.3651 -0.0586  0.0400
 2899SOL    HW1 9913   1.090   3.958   6.834 -0.5591  0.6273  0.0388
 2899SOL    HW2 9914   1.073   3.865   6.952  0.3238  0.1574 -0.1924
 2900SOL     OW 9915   1.009   5.295   6.370 -0.2181  0.3434  0.0060
 2900SOL    HW1 9916   1.048   5.262   6.288 -2.4944 -0.5994 -0.7636
 2900SOL    HW2 9917   1.085   5.315   6.425  1.4394 -3.8948 -0.3561
 2901SOL     OW 9918   0.243   5.598   6.911 -0.0827 -0.1143 -0.1162
 2901SOL    HW1 9919   0.172   5.592   6.974 -1.1544  2.6897 -0.8951
 2901SOL    HW2 9920   0.312   5.647   6.956  0.2995 -0.5125 -0.2523
 2902SOL     OW 9921   1.375   4.009   6.134 -0.2103  0.1982 -0.3360
 2902SOL    HW1 9922   1.391   4.046   6.047  0.9543 -0.5656 -0.4737
 2902SOL    HW2 9923   1.312   3.938   6.118 -0.2752  0.2907 -0.4987
 2903SOL     OW 9924   1.436   4.591   5.604  0.3404 -0.2113  0.2796
 2903SOL    HW1 9925   1.461   4.683   5.608  0.7462 -0.2073 -1.5914
 2903SOL    HW2 9926   1.450   4.559   5.693 -0.2876  1.6334  1.0859
 2904SOL     OW 9927   1.437   4.307   6.541  0.3227 -0.0834  0.1973
 2904SOL    HW1 9928   1.379   4.358   6.484 -0.4315  0.3495  1.3180
 2904SOL    HW2 9929   1.464   4.233   6.487  0.1222  0.6308 -0.9206
 2905SOL     OW 9930   0.189   4.837   5.916  0.8130  0.0643 -0.1683
 2905SOL    HW1 9931   0.268   4.827   5.970  0.2247 -0.8325  0.5583
 2905SOL    HW2 9932   0.137   4.904   5.960  0.3748 -0.6016  0.3347
 2906SOL     OW 9933   1.002   5.642   5.726 -0.3863  0.1521 -0.7391
 2906SOL    HW1 9934   0.915   5.670   5.699  0.0254  1.0429 -1.1740
 2906SOL    HW2 9935   0.987   5.588   5.804 -1.3216  0.2876 -0.8184
 2907SOL     OW 9936   0.288   4.577   7.502  0.2502 -0.0311  0.2571
 2907SOL    HW1 9937   0.255   4.487   7.495 -0.4102  0.3111 -2.1777
 2907SOL    HW2 9938   0.253   4.609   7.585  1.7994 -2.4683  1.9874
 2908SOL     OW 9939   8.730   3.836   8.251  0.0288 -0.4652 -0.0926
 2908SOL    HW1 9940   8.761   3.751   8.220  0.1691 -0.8757  1.1020
 2908SOL    HW2 9941   8.759   3.839   8.343  0.9431  1.3146 -0.4058
 2909SOL     OW 9942   8.530   3.985   7.618 -0.2325 -0.3143  0.6883
 2909SOL    HW1 9943   8.531   3.906   7.673  0.1945 -1.6762 -1.1653
 2909SOL    HW2 9944   8.452   3.973   7.563  1.1066 -0.6494 -1.2129
 2910SOL     OW 9945   0.708   4.773   0.414  0.2483  0.4888 -0.2397
 2910SOL    HW1 9946   0.646   4.743   0.481  1.4903  0.6454  1.0418
 2910SOL    HW2 9947   0.672   4.856   0.383  0.4034  1.2006  1.3723
 2911SOL     OW 9948   1.422   5.241   8.182 -0.4945 -0.2097  0.2970
 2911SOL    HW1 9949   1.429   5.316   8.122 -0.0586  0.3801  1.0710
 2911SOL    HW2 9950   1.513   5.221   8.206 -0.6598 -0.5150  0.6759
 2912SOL     OW 9951   0.865   4.723   8.236 -0.7237  0.2635 -0.5406
 2912SOL    HW1 9952   0.874   4.659   8.306 -0.3511 -0.0969 -0.9091
 2912SOL    HW2 9953   0.932   4.789   8.255 -0.2048 -0.1517 -0.8824
 2913SOL     OW 9954   1.661   4.446   7.729  0.4921  0.1082  0.4444
 2913SOL    HW1 9955   1.652   4.394   7.649  1.0221  0.5355  0.1073
 2913SOL    HW2 9956   1.634   4.534   7.704  0.4746  0.2026  0.7910
 2914SOL     OW 9957   1.124   4.977   8.651  0.0259  0.2999  0.4407
 2914SOL    HW1 9958   1.082   4.942   8.729  0.8924 -0.5778  0.5416
 2914SOL    HW2 9959   1.053   4.991   8.589 -0.4760 -0.7600  0.7472
 2915SOL     OW 9960   0.715   4.801   8.491  0.7993  0.1738  0.0615
 2915SOL    HW1 9961   0.727   4.713   8.454  1.6009  0.8291 -1.2920
 2915SOL    HW2 9962   0.625   4.824   8.469  0.8495  0.0199 -0.3181
 2916SOL     OW 9963   0.791   4.535   0.289  0.0515 -0.5021  0.3265
 2916SOL    HW1 9964   0.844   4.564   0.215 -1.0437 -2.2795 -1.2178
 2916SOL    HW2 9965   0.758   4.616   0.328  0.4145  0.4668 -1.3015
 2917SOL     OW 9966   0.087   3.804   0.068 -0.3829  0.4590  0.2013
 2917SOL    HW1 9967   0.120   3.868   0.130 -3.1681  0.4339  1.8796
 2917SOL    HW2 9968   0.062   3.855  -0.009 -0.2486  1.0145  0.5247
 2918SOL     OW 9969   1.780   4.185   8.185 -0.0703 -0.2565  0.0241
 2918SOL    HW1 9970   1.755   4.254   8.123  0.3761 -1.7457 -1.8924
 2918SOL    HW2 9971   1.744   4.214   8.269 -0.1435  2.1520 -0.7691
 2919SOL     OW 9972   8.526   5.206   7.601  0.6529 -0.3259 -0.0424
 2919SOL    HW1 9973   8.442   5.166   7.623 -0.5560  1.0352 -1.8792
 2919SOL    HW2 9974   8.516   5.298   7.625  1.4333 -0.0536 -0.6984
 2920SOL     OW 9975   0.412   5.051   8.637  0.3750  0.2343 -0.0440
 2920SOL    HW1 9976   0.431   4.999   8.558  1.3585 -1.8951  1.4886
 2920SOL    HW2 9977   0.317   5.052   8.642  0.3102 -1.4854 -0.1586
 2921SOL     OW 9978   0.122   4.916   8.229  0.6845 -0.2538 -1.0339
 2921SOL    HW1 9979   0.163   4.990   8.273 -0.1385 -0.5220  0.2243
 2921SOL    HW2 9980   0.195   4.857   8.208  1.0309 -0.5096  0.7534
 2922SOL     OW 9981   0.917   5.566   0.529  0.1362  0.2693  0.5951
 2922SOL    HW1 9982   0.907   5.489   0.472 -1.1121  1.4423 -0.8312
 2922SOL    HW2 9983   0.933   5.638   0.469  0.4651  1.2840  1.8705
 2923SOL     OW 9984   0.538   4.492   7.889 -0.1018 -0.4762 -0.7763
 2923SOL    HW1 9985   0.593   4.478   7.812  0.5681 -0.5063 -0.3008
 2923SOL    HW2 9986   0.600   4.509   7.960 -0.7680  1.8783 -0.6975
 2924SOL     OW 9987   0.424   4.312   8.047 -0.2911 -0.7241 -0.8255
 2924SOL    HW1 9988   0.462   4.374   7.985 -0.3932  0.6061  0.4000
 2924SOL    HW2 9989   0.332   4.337   8.052  0.2420  1.2234  2.0457
 2925SOL     OW 9990   2.054   5.148   8.072 -0.2501  0.4321 -0.1460
 2925SOL    HW1 9991   2.064   5.066   8.023  3.0758 -0.4548  1.7255
 2925SOL    HW2 9992   2.010   5.121   8.153  0.7745  0.4562  0.4366
 2926SOL     OW 9993   0.003   5.599   7.419  0.6175  1.1129  0.1346
 2926SOL    HW1 9994  -0.027   5.527   7.475  0.6126 -0.2658 -1.5291
 2926SOL    HW2 9995  -0.008   5.677   7.472  0.6805 -0.1127  2.0548
 2927SOL     OW 9996   1.283   5.006   8.096  0.4686 -0.0575 -0.1320
 2927SOL    HW1 9997   1.329   5.079   8.137  1.1497  0.5742 -1.9278
 2927SOL    HW2 9998   1.343   4.932   8.107  0.8931  0.2340 -0.4577
 2928SOL     OW 9999   1.747   4.972   7.952 -0.2090  0.7190  0.0146
 2928SOL    HW110000   1.788   5.014   7.876  0.5012  0.4130  0.2160
 2928SOL    HW210001   1.820   4.932   7.999 -0.5998  1.1571  1.0218
 2929SOL     OW10002   0.911   5.038   8.451  0.4351  0.4554  0.4804
 2929SOL    HW110003   0.835   4.981   8.461 -0.7099  1.8410  0.0784
 2929SOL    HW210004   0.883   5.105   8.388  0.7176  3.0315  2.9040
 2930SOL     OW10005   0.745   3.542   8.154 -0.0687 -0.3281 -0.6061
 2930SOL    HW110006   0.701   3.527   8.238 -0.5932 -0.1724 -0.8447
 2930SOL    HW210007   0.834   3.509   8.167  0.3943  1.2705  0.5641
 2931SOL     OW10008   0.703   4.281   0.199 -0.1989  0.1000 -0.3770
 2931SOL    HW110009   0.711   4.190   0.228 -0.7287  0.1415 -0.0719
 2931SOL    HW210010   0.787   4.301   0.157  0.5761  0.0091  1.0664
 2932SOL     OW10011   1.527   4.530   7.433 -0.4148  0.2182  0.5020
 2932SOL    HW110012   1.494   4.444   7.407 -1.5530  0.4063  1.2883
 2932SOL    HW210013   1.561   4.567   7.351 -1.6466 -0.2203 -0.2461
 2933SOL     OW10014   1.212   5.251   8.490  0.4884  0.0513 -0.3764
 2933SOL    HW110015   1.230   5.157   8.494  2.0485  0.3151 -0.4374
 2933SOL    HW210016   1.292   5.292   8.523 -0.8456  1.3255  1.5114
 2934SOL     OW10017   1.602   5.247   7.863 -0.3628  0.4863 -0.1815
 2934SOL    HW110018   1.629   5.199   7.941  0.8218 -0.3966 -1.1085
 2934SOL    HW210019   1.679   5.299   7.839 -0.6563  0.6084 -0.8718
 2935SOL     OW10020   0.513   4.287   8.435 -0.0925 -0.3134 -0.4673
 2935SOL    HW110021   0.457   4.216   8.405 -0.1388 -0.5097  0.0748
 2935SOL    HW210022   0.453   4.354   8.467 -0.0154 -0.6044  0.2924
 2936SOL     OW10023   1.194   3.863   8.157  0.2276  0.1031  0.2627
 2936SOL    HW110024   1.162   3.830   8.073 -0.1358 -2.7495  1.3986
 2936SOL    HW210025   1.120   3.912   8.194  0.5216  1.7277 -1.1656
 2937SOL     OW10026   1.429   5.435   7.991 -0.4096  0.3857 -0.0034
 2937SOL    HW110027   1.379   5.492   7.933  1.8059  3.0891  0.5098
 2937SOL    HW210028   1.498   5.398   7.935  1.8927  3.2027  0.7291
 2938SOL     OW10029   1.174   4.615   0.361  0.4248  0.3447 -0.2180
 2938SOL    HW110030   1.146   4.604   0.452  0.7217  0.7036 -0.0800
 2938SOL    HW210031   1.100   4.658   0.318 -0.1439 -0.7860 -0.4067
 2939SOL     OW10032   0.876   4.057   0.314  0.4171  0.1854  0.2891
 2939SOL    HW110033   0.850   4.046   0.405  3.3889 -4.1423  0.9098
 2939SOL    HW210034   0.932   4.135   0.314 -0.0070  0.5208  2.0236
 2940SOL     OW10035   0.761   4.525   8.059 -0.1470  0.1843 -0.3891
 2940SOL    HW110036   0.802   4.593   8.112 -0.0504 -0.1821  0.0156
 2940SOL    HW210037   0.752   4.451   8.118 -1.8924  0.4165 -0.2965
 2941SOL     OW10038   0.234   4.531   8.224 -0.6393  0.4931  0.5567
 2941SOL    HW110039   0.187   4.465   8.172  2.1964 -1.3944  0.1615
 2941SOL    HW210040   0.245   4.490   8.310  0.6866  0.6430  0.4783
 2942SOL     OW10041   0.054   5.328   0.335 -0.5753  0.0412  0.1233
 2942SOL    HW110042   0.146   5.352   0.339 -0.1602 -1.0986 -1.6087
 2942SOL    HW210043   0.053   5.239   0.299 -2.3559  0.0801 -0.0391
 2943SOL     OW10044   0.731   3.914   7.600 -0.1847 -0.0606  0.2324
 2943SOL    HW110045   0.798   3.905   7.533 -1.1635  0.5030 -0.8490
 2943SOL    HW210046   0.648   3.900   7.555 -0.9441  1.4714  1.0599
 2944SOL     OW10047   1.496   4.823   8.031  0.3467  0.2191 -0.2006
 2944SOL    HW110048   1.476   4.751   7.972  2.5518 -1.1553  0.5895
 2944SOL    HW210049   1.569   4.869   7.989 -0.0924  1.1141 -0.0026
 2945SOL     OW10050   0.349   3.753   8.737 -0.2973 -0.0422  0.0330
 2945SOL    HW110051   0.360   3.782   8.646  1.7457 -1.7888 -0.3538
 2945SOL    HW210052   0.364   3.832   8.789  0.5366  0.5649 -1.0903
 2946SOL     OW10053   0.394   5.086   7.921 -0.2459 -0.2728  0.2923
 2946SOL    HW110054   0.478   5.043   7.937  0.7946  1.8130  0.7780
 2946SOL    HW210055   0.357   5.098   8.009  0.0266  0.7915  0.2813
 2947SOL     OW10056   0.205   5.210   0.073 -0.4127  0.4463  0.2631
 2947SOL    HW110057   0.240   5.140   0.128 -1.5985  0.8570  1.6064
 2947SOL    HW210058   0.221   5.290   0.123 -0.8829  0.9164 -0.3230
 2948SOL     OW10059   1.500   4.469   8.773  0.5428 -0.7177 -0.4487
 2948SOL    HW110060   1.562   4.514   8.715  0.4990  0.5129  0.4389
 2948SOL    HW210061   1.465   4.537   8.829 -0.9819 -1.5509 -0.3389
 2949SOL     OW10062   0.307   5.101   7.648  0.0278  0.0306 -0.2779
 2949SOL    HW110063   0.251   5.025   7.631 -0.8793  0.5721  0.2520
 2949SOL    HW210064   0.354   5.079   7.729 -0.9967  0.4485  0.4448
 2950SOL     OW10065   1.386   4.484   8.376 -0.0252  0.2851  0.2369
 2950SOL    HW110066   1.452   4.536   8.332 -0.0542  2.0048  2.0657
 2950SOL    HW210067   1.309   4.541   8.381 -0.6738 -0.5982  0.6889
 2951SOL     OW10068   0.780   5.692   7.832  0.0502  0.5402  0.5491
 2951SOL    HW110069   0.708   5.709   7.772 -1.3597  0.6836  2.2106
 2951SOL    HW210070   0.839   5.766   7.820  0.2634  0.1451 -1.2243
 2952SOL     OW10071   1.934   5.028   7.710  0.0624  0.0118 -0.1243
 2952SOL    HW110072   2.002   5.062   7.653 -1.3170  1.5045 -0.9573
 2952SOL    HW210073   1.869   4.991   7.650 -2.4082  3.4200  0.1583
 2953SOL     OW10074   0.348   5.732   7.608 -0.1258 -0.0244 -0.5159
 2953SOL    HW110075   0.345   5.824   7.634  0.0035  0.0364 -0.7109
 2953SOL    HW210076   0.330   5.683   7.688 -2.0681  0.2126 -0.7643
 2954SOL     OW10077   1.427   4.060   7.803  0.4170  0.6865 -0.0988
 2954SOL    HW110078   1.438   3.978   7.755 -1.1827  0.6444 -0.4590
 2954SOL    HW210079   1.457   4.041   7.891  2.5257  0.4903 -0.8126
 2955SOL     OW10080   0.107   5.545   0.020 -0.0054 -0.5195 -0.7629
 2955SOL    HW110081   0.088   5.549  -0.073 -1.7717 -0.2668 -0.4359
 2955SOL    HW210082   0.201   5.562   0.027  0.7323 -3.1349 -2.6666
 2956SOL     OW10083   0.725   5.427   8.372  0.5939 -0.0784 -0.4974
 2956SOL    HW110084   0.711   5.377   8.453 -0.5427 -1.2725 -1.3727
 2956SOL    HW210085   0.781   5.371   8.319  0.0929 -0.0067 -1.1151
 2957SOL     OW10086   0.289   3.880   7.834 -0.0299 -0.1256  0.0934
 2957SOL    HW110087   0.260   3.853   7.922  1.3483 -2.1564 -0.0284
 2957SOL    HW210088   0.383   3.863   7.833 -0.0438 -0.2792 -1.8461
 2958SOL     OW10089   0.490   3.861   7.458 -0.6181 -0.0962 -0.0028
 2958SOL    HW110090   0.452   3.781   7.496 -1.4851 -0.3653 -1.3750
 2958SOL    HW210091   0.500   3.840   7.365  0.4132  0.9380 -0.1395
 2959SOL     OW10092   0.759   5.232   8.784 -0.3732 -0.0205 -0.1343
 2959SOL    HW110093   0.783   5.288   8.858  0.0410  1.1044 -1.0830
 2959SOL    HW210094   0.837   5.231   8.729 -0.4117 -1.4705 -0.2049
 2960SOL     OW10095   1.024   5.568   8.661  0.1074 -0.9824 -0.5395
 2960SOL    HW110096   1.016   5.611   8.576 -0.5310 -3.4650 -1.8404
 2960SOL    HW210097   0.974   5.623   8.721  1.0158  1.1293 -1.6054
 2961SOL     OW10098   0.853   4.197   8.761  0.3656  0.5655 -0.3334
 2961SOL    HW110099   0.908   4.263   8.803 -0.6006  0.9670  0.3268
 2961SOL    HW210100   0.914   4.128   8.736  1.1644  0.9889  0.4026
 2962SOL     OW10101   0.537   4.048   8.007 -0.0602  0.6256 -0.0784
 2962SOL    HW110102   0.581   4.087   7.931  0.9083  1.1776  0.7521
 2962SOL    HW210103   0.476   4.116   8.037  0.4022  0.8611  0.3386
 2963SOL     OW10104   1.264   4.960   7.561 -0.4866  0.0521 -0.4717
 2963SOL    HW110105   1.300   4.987   7.645 -1.0733  1.1137 -0.5380
 2963SOL    HW210106   1.304   4.875   7.543  1.7045  0.9958 -0.3748
 2964SOL     OW10107   0.567   3.826   7.849 -0.2692 -0.6254  0.4856
 2964SOL    HW110108   0.624   3.870   7.786 -0.6089 -1.1181 -0.1874
 2964SOL    HW210109   0.568   3.881   7.926 -0.5316  0.4611 -0.2680
 2965SOL     OW10110   0.978   3.737   7.985 -0.4782  0.7612 -0.0024
 2965SOL    HW110111   1.047   3.671   7.981  0.0545  1.3822 -1.8596
 2965SOL    HW210112   0.897   3.687   7.970 -0.2156  0.3287 -0.0075
 2966SOL     OW10113   0.961   5.335   8.013  0.4529  0.5861 -0.3010
 2966SOL    HW110114   0.974   5.246   7.980 -1.2867  0.4877 -0.8444
 2966SOL    HW210115   1.014   5.339   8.092  0.3566 -1.0334 -0.1103
 2967SOL     OW10116   0.403   4.849   8.449  0.2003 -0.4083 -0.2039
 2967SOL    HW110117   0.362   4.793   8.515 -1.0412  0.1545 -0.4669
 2967SOL    HW210118   0.351   4.836   8.370  1.4073 -0.7425 -0.9689
 2968SOL     OW10119   0.720   5.732   8.220 -0.4615  0.1123  0.4003
 2968SOL    HW110120   0.733   5.800   8.287  2.7982 -1.0112  1.1095
 2968SOL    HW210121   0.785   5.752   8.153 -1.1513 -0.9052 -0.6061
 2969SOL     OW10122   1.114   4.572   7.726 -0.0139  0.1831  0.0555
 2969SOL    HW110123   1.116   4.534   7.638 -0.4290 -1.0589  0.5728
 2969SOL    HW210124   1.055   4.515   7.776  1.3821 -0.0151  1.5506
 2970SOL     OW10125   0.778   3.781   8.755  0.0143  0.3104  0.2999
 2970SOL    HW110126   0.740   3.778   8.843 -0.5619 -0.2930  0.0383
 2970SOL    HW210127   0.744   3.861   8.716  0.7217  0.8788  0.8147
 2971SOL     OW10128   0.802   4.285   8.474  0.5989 -0.0643 -0.4742
 2971SOL    HW110129   0.709   4.269   8.457  0.1604 -0.7069  1.9967
 2971SOL    HW210130   0.826   4.215   8.535  3.3087 -1.1867 -2.6373
 2972SOL     OW10131   0.662   3.921   8.220 -0.3394  0.1781 -0.6732
 2972SOL    HW110132   0.624   3.979   8.154 -1.9930  0.9633  0.8944
 2972SOL    HW210133   0.616   3.838   8.208 -1.5388  0.6823  0.2367
 2973SOL     OW10134   1.728   5.256   8.408 -0.0124 -0.1182 -1.0149
 2973SOL    HW110135   1.643   5.269   8.450 -0.1055 -0.2153 -1.1695
 2973SOL    HW210136   1.758   5.343   8.385 -1.0229 -0.2066 -2.8281
 2974SOL     OW10137   1.160   4.573   8.795  0.1074  0.0045  0.2851
 2974SOL    HW110138   1.203   4.528   8.867  1.8440 -1.3948 -1.5175
 2974SOL    HW210139   1.214   4.650   8.778 -0.9149  0.9560  1.0956
 2975SOL     OW10140   1.792   4.405   7.978  0.3185  0.5964 -0.0023
 2975SOL    HW110141   1.708   4.434   8.012  0.7105  1.1200  0.5339
 2975SOL    HW210142   1.782   4.411   7.883 -0.3776  0.2724  0.0446
 2976SOL     OW10143   0.512   5.193   8.280 -0.2075  0.9783 -0.6051
 2976SOL    HW110144   0.508   5.271   8.225 -1.3796  0.7984 -0.7983
 2976SOL    HW210145   0.558   5.128   8.226  0.0759  1.2931 -0.7455
 2977SOL     OW10146   1.886   4.902   8.183  0.3315  0.2708  0.1472
 2977SOL    HW110147   1.970   4.856   8.181 -0.3209 -0.9433 -0.4056
 2977SOL    HW210148   1.852   4.885   8.271  0.4914  0.4457  0.2434
 2978SOL     OW10149   0.952   4.009   8.203 -0.1673 -0.6268 -0.2891
 2978SOL    HW110150   0.982   4.091   8.241 -1.2517 -0.7640  0.9544
 2978SOL    HW210151   0.864   3.997   8.240  0.4459 -2.9656  0.5617
 2979SOL     OW10152   0.690   4.129   7.749 -0.6005 -0.0693 -0.2054
 2979SOL    HW110153   0.694   4.089   7.662 -1.5486  0.2025 -0.3868
 2979SOL    HW210154   0.753   4.079   7.801 -0.4441 -0.6115 -0.8998
 2980SOL     OW10155   1.747   4.696   0.463  0.4755 -0.4941  0.0008
 2980SOL    HW110156   1.800   4.775   0.448  0.6967 -0.6607 -0.0941
 2980SOL    HW210157   1.795   4.626   0.420  0.0219 -0.5928 -0.3562
 2981SOL     OW10158   1.382   5.057   8.685 -0.0549 -0.3382 -0.1616
 2981SOL    HW110159   1.287   5.053   8.685 -0.0753  0.1739  0.0605
 2981SOL    HW210160   1.404   5.131   8.741  0.3925  1.7382 -2.8788
 2982SOL     OW10161   1.679   5.028   8.586 -0.3369  0.1661 -0.1860
 2982SOL    HW110162   1.587   5.048   8.602 -0.3291  0.3181 -0.3201
 2982SOL    HW210163   1.710   5.100   8.531  0.1843  0.7561  0.8579
 2983SOL     OW10164   0.890   4.810   7.933 -0.2943 -0.0054 -0.0815
 2983SOL    HW110165   0.838   4.786   8.010 -0.4357  2.0826  0.5421
 2983SOL    HW210166   0.856   4.754   7.863 -1.5772 -0.5302  0.9142
 2984SOL     OW10167   0.415   3.994   8.832  0.1094  0.3332 -0.1063
 2984SOL    HW110168   0.410   4.006   8.737 -1.9482  3.4447  0.2418
 2984SOL    HW210169   0.509   3.996   8.851  0.6772 -1.8479 -2.1194
 2985SOL     OW10170   1.545   4.243   0.112  0.4072 -0.3713 -0.4380
 2985SOL    HW110171   1.512   4.154   0.099 -0.5452  0.1862 -2.1187
 2985SOL    HW210172   1.517   4.291   0.034  0.8190  1.4403  0.4685
 2986SOL     OW10173   0.228   4.703   0.037 -0.5426  0.0603 -0.1988
 2986SOL    HW110174   0.319   4.732   0.041  0.0169 -1.4109 -1.3961
 2986SOL    HW210175   0.198   4.706   0.128  1.3776 -1.4052  0.5583
 2987SOL     OW10176   0.599   4.856   8.205 -0.0291 -0.1157  0.5921
 2987SOL    HW110177   0.508   4.829   8.197  0.4086 -1.2965 -0.8439
 2987SOL    HW210178   0.638   4.793   8.266  0.4398 -1.3608 -0.9363
 2988SOL     OW10179   0.283   4.247   8.728 -0.1288  0.0259 -0.4950
 2988SOL    HW110180   0.273   4.226   8.821  0.5625  2.2081  0.1269
 2988SOL    HW210181   0.327   4.332   8.727  0.5105 -0.2622 -2.8429
 2989SOL     OW10182   1.015   5.059   7.997 -0.0332 -0.2285 -0.0434
 2989SOL    HW110183   0.991   4.979   7.951  0.0136  0.3795 -1.1663
 2989SOL    HW210184   1.109   5.049   8.014  0.3879  0.3586 -1.8388
 2990SOL     OW10185   0.999   5.286   8.673 -0.1143 -0.3319  0.1262
 2990SOL    HW110186   1.024   5.376   8.650  1.4085 -1.0056 -1.0451
 2990SOL    HW210187   1.027   5.234   8.598 -0.7367 -1.8413  0.9016
 2991SOL     OW10188   1.568   4.379   8.134  0.2676  0.0054  0.3077
 2991SOL    HW110189   1.548   4.366   8.226  0.1534 -1.1906  0.1238
 2991SOL    HW210190   1.483   4.400   8.094  0.5307  2.0095  0.6880
 2992SOL     OW10191   0.370   5.124   0.316  0.3498  0.4188 -0.1287
 2992SOL    HW110192   0.337   5.048   0.365 -1.1304  0.0085 -1.6685
 2992SOL    HW210193   0.366   5.196   0.378 -0.7324 -0.2320  0.5944
 2993SOL     OW10194   0.955   4.751   0.234  0.1131 -0.8559  0.1223
 2993SOL    HW110195   0.869   4.786   0.258  0.1528 -1.0464  0.5359
 2993SOL    HW210196   0.985   4.809   0.164 -0.1364 -0.4908  0.3136
 2994SOL     OW10197   1.364   4.765   8.767  0.1073 -0.0295  0.0336
 2994SOL    HW110198   1.448   4.777   8.811 -1.4992  2.2129  2.8838
 2994SOL    HW210199   1.336   4.853   8.744 -1.4184 -0.7336 -0.9520
 2995SOL     OW10200   1.073   4.182   7.882  0.2915  0.7895 -0.1864
 2995SOL    HW110201   1.040   4.268   7.910 -0.3666  0.4129  0.2406
 2995SOL    HW210202   1.038   4.121   7.947  0.6337  0.1766 -0.5653
 2996SOL     OW10203   0.246   3.487   0.418 -0.2519  0.5132 -0.4599
 2996SOL    HW110204   0.163   3.534   0.415 -0.1944  0.6335 -0.1778
 2996SOL    HW210205   0.223   3.400   0.451 -0.4405  0.1582 -1.4976
 2997SOL     OW10206   0.391   4.488   8.737  0.2721  0.0384 -0.4828
 2997SOL    HW110207   0.471   4.449   8.774 -0.3127 -1.3475 -0.6063
 2997SOL    HW210208   0.417   4.576   8.711  2.0535 -0.6974 -1.4126
 2998SOL     OW10209   0.626   4.373   8.718 -0.0968  0.3588  0.3113
 2998SOL    HW110210   0.687   4.315   8.763 -0.9550 -0.3614  0.5724
 2998SOL    HW210211   0.584   4.318   8.652 -0.9170  0.6783  0.5500
 2999SOL     OW10212   0.542   3.537   8.386 -0.3005  0.2791 -0.0623
 2999SOL    HW110213   0.560   3.541   8.480 -3.2227  0.6144  0.5761
 2999SOL    HW210214   0.487   3.459   8.376 -1.3856  1.1536 -1.1902
 3000SOL     OW10215   1.754   3.943   8.046 -0.2383  0.0248 -0.1095
 3000SOL    HW110216   1.769   4.035   8.068 -1.0897  0.4294 -1.0932
 3000SOL    HW210217   1.661   3.929   8.064  0.3696 -1.3717  2.3774
 3001SOL     OW10218   1.031   4.256   8.324  0.5044 -0.3235 -0.2556
 3001SOL    HW110219   0.946   4.272   8.365  1.1798 -1.7000  1.8238
 3001SOL    HW210220   1.077   4.340   8.331  0.4135 -0.3791  1.4545
 3002SOL     OW10221   1.031   3.946   7.694  0.2883  0.6609 -0.0479
 3002SOL    HW110222   0.944   3.908   7.707 -0.2776  2.0153  0.2793
 3002SOL    HW210223   1.034   4.022   7.752  1.1673  1.4382 -1.0456
 3003SOL     OW10224   1.243   4.230   7.641 -0.1050  0.1664  0.0465
 3003SOL    HW110225   1.315   4.177   7.676  0.1196  0.9034  0.7484
 3003SOL    HW210226   1.173   4.221   7.705 -0.1550  0.5079  0.0440
 3004SOL     OW10227   1.162   5.390   8.235 -0.8029 -0.0214 -1.0101
 3004SOL    HW110228   1.138   5.392   8.328  0.4596  0.5914 -0.6819
 3004SOL    HW210229   1.237   5.330   8.231 -0.3161  0.6114 -1.4917
 3005SOL     OW10230   0.339   4.773   8.149  0.6381 -0.0225  0.2586
 3005SOL    HW110231   0.336   4.677   8.151 -0.9006 -0.0996 -1.9132
 3005SOL    HW210232   0.361   4.794   8.058  1.5209  1.7056  0.8320
 3006SOL     OW10233   0.024   4.073   8.091 -0.0843 -0.1094  0.3590
 3006SOL    HW110234  -0.038   4.020   8.042 -0.2545  1.3829 -1.1380
 3006SOL    HW210235   0.110   4.042   8.061 -0.0996 -1.3738  1.5538
 3007SOL     OW10236   0.907   4.447   0.032 -0.1528 -0.1235  0.3636
 3007SOL    HW110237   0.991   4.481   0.003  0.0546 -0.2537  0.8130
 3007SOL    HW210238   0.843   4.513   0.003  0.0636 -0.1882 -0.2659
 3008SOL     OW10239   0.031   5.318   7.649  0.3616  0.1212 -0.0008
 3008SOL    HW110240   0.058   5.226   7.642  1.1186  0.2596  0.9068
 3008SOL    HW210241  -0.042   5.316   7.711  0.2362  0.1152 -0.1458
 3009SOL     OW10242   0.179   5.217   8.665 -0.0633  0.6243  0.4953
 3009SOL    HW110243   0.153   5.308   8.646 -2.0826 -0.0122  0.0139
 3009SOL    HW210244   0.192   5.216   8.760  1.2484  1.6899  0.3685
 3010SOL     OW10245   0.492   4.764   0.000 -0.0786  0.1594 -0.5028
 3010SOL    HW110246   0.577   4.729  -0.024 -0.0216  0.5971 -0.9469
 3010SOL    HW210247   0.511   4.835   0.061 -0.1511 -0.0304 -0.2563
 3011SOL     OW10248   1.082   4.487   8.524 -0.2318  0.5347 -0.0389
 3011SOL    HW110249   1.125   4.571   8.503  0.3684  0.3083  0.2550
 3011SOL    HW210250   1.102   4.473   8.616  0.9297 -0.6526 -0.4433
 3012SOL     OW10251   8.446   4.379   8.310 -0.0314  0.2744  0.5425
 3012SOL    HW110252   8.403   4.423   8.384 -0.7457 -0.0807  0.3525
 3012SOL    HW210253   8.388   4.305   8.290  0.0539  0.4807 -0.4976
 3013SOL     OW10254   0.662   4.271   8.187 -0.2352 -0.0992  0.2199
 3013SOL    HW110255   0.587   4.281   8.128 -0.3361 -2.2018 -0.0855
 3013SOL    HW210256   0.624   4.266   8.274 -0.2080  1.5030  0.3419
 3014SOL     OW10257   1.614   4.703   0.087  1.0916 -0.1952  0.5521
 3014SOL    HW110258   1.690   4.754   0.115  1.0465 -0.5606  1.3629
 3014SOL    HW210259   1.649   4.617   0.067  1.2056  0.2011 -1.0567
 3015SOL     OW10260   0.670   3.957   0.117  0.0022  0.2860 -0.0456
 3015SOL    HW110261   0.669   3.871   0.158  1.4405  0.2505 -0.0218
 3015SOL    HW210262   0.756   3.993   0.139 -0.4095  1.5547 -0.4067
 3016SOL     OW10263   1.286   5.656   8.767  0.0721 -0.0273 -0.1305
 3016SOL    HW110264   1.214   5.603   8.732  0.8112 -0.6670 -0.7240
 3016SOL    HW210265   1.357   5.644   8.704  0.0781  2.1495 -0.5952
 3017SOL     OW10266   0.316   4.149   7.726  0.0258 -0.1191 -0.7382
 3017SOL    HW110267   0.276   4.082   7.781 -1.6515 -0.9233 -2.7685
 3017SOL    HW210268   0.406   4.118   7.711  1.5251  1.4587  3.4816
 3018SOL     OW10269   0.498   4.499   0.246 -0.1303 -0.8219 -0.4927
 3018SOL    HW110270   0.586   4.460   0.243  0.1081 -0.4286  0.9998
 3018SOL    HW210271   0.501   4.568   0.180  0.8427 -0.4868 -0.1154
 3019SOL     OW10272   1.110   4.892   0.058  0.0721 -0.3589 -0.1192
 3019SOL    HW110273   1.175   4.827   0.032  1.1342  0.6094  0.0429
 3019SOL    HW210274   1.157   4.953   0.115 -1.4452 -0.6822  1.5634
 3020SOL     OW10275   1.443   4.332   7.860 -0.0263 -0.1436  0.5117
 3020SOL    HW110276   1.513   4.373   7.809  0.7281  1.1747  2.5195
 3020SOL    HW210277   1.444   4.240   7.833  1.7294  0.0833 -0.3029
 3021SOL     OW10278   1.866   5.565   8.789  0.3478  0.1803 -1.0161
 3021SOL    HW110279   1.795   5.618   8.826  0.4798 -1.1013  1.2802
 3021SOL    HW210280   1.828   5.478   8.778  1.0887 -0.0923 -1.4711
 3022SOL     OW10281   1.703   5.619   8.488  0.5450  0.6445 -0.1198
 3022SOL    HW110282   1.713   5.543   8.431 -0.8040  1.8101 -2.0166
 3022SOL    HW210283   1.790   5.659   8.490  0.6558  0.4844 -1.2333
 3023SOL     OW10284   0.727   4.632   8.750  0.2277 -0.1605 -0.0083
 3023SOL    HW110285   0.747   4.683   8.672  0.3095  0.8134  0.6445
 3023SOL    HW210286   0.684   4.553   8.715 -1.5080  1.1117 -0.9544
 3024SOL     OW10287   1.554   3.640   7.974  0.6115  0.2647 -0.4492
 3024SOL    HW110288   1.626   3.598   8.020  0.1228 -1.1988 -0.9840
 3024SOL    HW210289   1.539   3.722   8.022  0.6760 -0.7920  1.4448
 3025SOL     OW10290   0.884   5.451   7.798 -0.7834 -0.6315 -0.8236
 3025SOL    HW110291   0.905   5.416   7.885 -0.0775  1.7703  0.0444
 3025SOL    HW210292   0.859   5.542   7.813 -1.0496 -0.2547 -3.1133
 3026SOL     OW10293   1.088   4.899   8.293 -0.4696  0.0790 -0.5508
 3026SOL    HW110294   1.121   4.949   8.217  0.8559  1.5186  0.8929
 3026SOL    HW210295   1.046   4.965   8.348  1.2476 -0.3259  1.3818
 3027SOL     OW10296   0.435   5.658   7.140 -0.7458  0.0040  0.1284
 3027SOL    HW110297   0.467   5.568   7.135 -1.2414 -0.1750  0.0612
 3027SOL    HW210298   0.370   5.656   7.210  0.3396  0.6705  1.1809
 3028SOL     OW10299   1.685   3.924   8.467  0.0337 -0.2539 -0.1579
 3028SOL    HW110300   1.591   3.928   8.482 -0.0425  0.3849 -0.7245
 3028SOL    HW210301   1.695   3.870   8.388  0.1233 -0.1705 -0.2049
 3029SOL     OW10302   8.773   3.861   7.940  0.2181 -0.1402 -0.4384
 3029SOL    HW110303   8.800   3.797   8.006  0.3767 -0.0907 -0.4550
 3029SOL    HW210304   8.694   3.824   7.901 -0.2499  0.1353  0.2328
 3030SOL     OW10305   1.142   5.341   7.664 -0.3114  0.1379 -0.3638
 3030SOL    HW110306   1.059   5.387   7.673  0.2542  1.1931 -0.4071
 3030SOL    HW210307   1.120   5.260   7.618 -1.3843  0.1779  0.0591
 3031SOL     OW10308   1.039   4.962   0.397  0.4167 -0.1817  0.4300
 3031SOL    HW110309   1.023   4.871   0.373 -1.0918  0.4569 -1.1462
 3031SOL    HW210310   1.117   4.987   0.347  0.4162 -0.3860  0.3273
 3032SOL     OW10311   1.006   4.810   7.587  0.3839 -0.6697  0.3242
 3032SOL    HW110312   1.031   4.754   7.661  1.2865  0.4276  0.8934
 3032SOL    HW210313   1.083   4.866   7.574 -0.0793 -0.3078 -0.9417
 3033SOL     OW10314   1.168   5.505   7.306  0.2108 -0.6661 -0.4353
 3033SOL    HW110315   1.106   5.435   7.326 -1.6511  0.5170 -1.8053
 3033SOL    HW210316   1.171   5.507   7.210 -0.1198  1.3971 -0.4387
 3034SOL     OW10317   1.391   5.150   0.572 -0.0599  0.0644  0.5146
 3034SOL    HW110318   1.454   5.078   0.571  0.4811  0.5351 -0.0605
 3034SOL    HW210319   1.313   5.113   0.611  0.9824 -0.1828  2.4673
 3035SOL     OW10320   0.827   5.200   8.276 -0.0376  0.1788  0.0193
 3035SOL    HW110321   0.739   5.238   8.280  0.1174  0.4714  0.6653
 3035SOL    HW210322   0.839   5.179   8.183  0.2718  2.6613 -0.5649
 3036SOL     OW10323   0.716   3.923   8.485  0.4229 -0.1947 -0.3150
 3036SOL    HW110324   0.692   3.926   8.392 -1.6143 -0.8802  0.1296
 3036SOL    HW210325   0.793   3.979   8.491 -0.8336  1.8992 -2.0168
 3037SOL     OW10326   0.432   5.404   8.097 -0.4689  0.0402 -0.1480
 3037SOL    HW110327   0.505   5.461   8.076 -2.0544  2.5761  0.7390
 3037SOL    HW210328   0.422   5.347   8.020  1.3948  0.7156 -0.9275
 3038SOL     OW10329   0.235   5.126   8.374  0.1333 -0.1639  0.3502
 3038SOL    HW110330   0.320   5.158   8.342  1.8906 -3.0150  1.7012
 3038SOL    HW210331   0.220   5.174   8.455  0.6276  0.1762  0.2473
 3039SOL     OW10332   0.696   3.699   0.197 -0.0619  0.2714 -0.0608
 3039SOL    HW110333   0.625   3.637   0.212 -0.2639 -0.1552 -2.4429
 3039SOL    HW210334   0.730   3.718   0.285 -1.7608 -1.0832  0.9569
 3040SOL     OW10335   0.712   3.931   7.017 -0.2369 -0.4952  0.1607
 3040SOL    HW110336   0.801   3.965   7.008 -0.4096 -0.1590 -0.3540
 3040SOL    HW210337   0.712   3.849   6.968  0.0011 -0.9023  0.8363
 3041SOL     OW10338   0.097   3.774   7.643  0.6519 -0.4254  0.1286
 3041SOL    HW110339   0.160   3.833   7.684  0.2465  1.7107 -2.0389
 3041SOL    HW210340   0.017   3.786   7.694  0.6418  0.7765 -0.1445
 3042SOL     OW10341   0.648   5.050   8.061 -0.2991 -0.1336  0.2823
 3042SOL    HW110342   0.651   4.964   8.102 -1.3378 -0.9471 -1.2454
 3042SOL    HW210343   0.701   5.042   7.982 -0.4235  0.6169  0.1094
 3043SOL     OW10344   1.219   4.700   8.418 -0.2878 -0.0178  0.6504
 3043SOL    HW110345   1.161   4.752   8.363  0.1653 -1.1224 -0.9379
 3043SOL    HW210346   1.274   4.765   8.463  0.2675  0.9270 -1.2621
 3044SOL     OW10347   1.477   5.531   8.230  0.0193  0.3114 -0.0084
 3044SOL    HW110348   1.508   5.620   8.216 -1.1235  0.6542 -0.4046
 3044SOL    HW210349   1.474   5.492   8.143 -0.0521  0.0757  0.0977
 3045SOL     OW10350   0.317   5.430   0.264  0.4958 -0.6123 -0.0291
 3045SOL    HW110351   0.297   5.494   0.195 -0.6802 -0.7340  0.1932
 3045SOL    HW210352   0.411   5.443   0.281  0.4283  0.5762 -0.4689
 3046SOL     OW10353   1.858   4.927   8.788 -0.3409 -0.7711  0.1230
 3046SOL    HW110354   1.818   4.941   8.874 -1.5224 -2.4476 -0.1102
 3046SOL    HW210355   1.798   4.971   8.727 -0.5006 -1.1683 -0.0065
 3047SOL     OW10356   0.824   3.953   7.910  0.4200  0.3617  0.1013
 3047SOL    HW110357   0.879   3.882   7.943 -1.4566 -0.9794  0.5005
 3047SOL    HW210358   0.798   4.002   7.988  1.1818  1.1065 -0.1053
 3048SOL     OW10359   0.291   4.404   8.486  0.4626 -0.1505 -0.0037
 3048SOL    HW110360   0.263   4.343   8.555  0.7387 -0.7423 -0.4144
 3048SOL    HW210361   0.277   4.491   8.525 -2.9555 -0.3420 -0.5433
 3049SOL     OW10362   1.462   4.798   0.316 -0.1235 -0.4139 -0.0812
 3049SOL    HW110363   1.512   4.775   0.238  0.0032 -0.6867  0.0809
 3049SOL    HW210364   1.435   4.714   0.353 -0.9701 -0.2670 -0.3422
 3050SOL     OW10365   0.794   4.980   7.674 -0.5060 -0.0832  0.0463
 3050SOL    HW110366   0.864   5.026   7.627 -0.8686 -0.1073 -0.5329
 3050SOL    HW210367   0.824   4.889   7.678 -1.2725 -0.4723 -1.7880
 3051SOL     OW10368   0.667   5.010   0.053 -0.0248 -0.6384  0.2647
 3051SOL    HW110369   0.702   5.097   0.032  0.5382 -0.6469  1.0945
 3051SOL    HW210370   0.599   4.995  -0.012 -1.0642  1.0062  0.8998
 3052SOL     OW10371   0.825   4.543   8.441  0.3465  0.2323  0.1153
 3052SOL    HW110372   0.789   4.457   8.417 -0.7543  0.1691  1.8270
 3052SOL    HW210373   0.909   4.523   8.482  1.4963  0.2320 -2.1015
 3053SOL     OW10374   1.405   4.628   7.836  0.0952 -0.7842  0.3195
 3053SOL    HW110375   1.326   4.654   7.790 -0.5009  0.1674  1.8246
 3053SOL    HW210376   1.391   4.536   7.859  0.8931 -1.6356 -2.3187
 3054SOL     OW10377   1.799   5.476   8.288  0.2039 -0.6407 -0.3213
 3054SOL    HW110378   1.762   5.508   8.206  0.4847  1.1258  0.2080
 3054SOL    HW210379   1.880   5.526   8.299 -0.8097  0.6404  1.9910
 3055SOL     OW10380   8.774   5.213   8.430  0.1059  0.1799 -0.2158
 3055SOL    HW110381   8.856   5.208   8.381  0.0006 -0.3097 -0.3481
 3055SOL    HW210382   8.797   5.184   8.518  0.7223  2.8613  0.6046
 3056SOL     OW10383   1.771   4.139   0.249 -0.2344  0.2130 -0.4653
 3056SOL    HW110384   1.776   4.077   0.176  0.4698  0.8910 -1.0214
 3056SOL    HW210385   1.706   4.204   0.220 -1.0508 -0.3036  0.1602
 3057SOL     OW10386   0.230   3.826   8.089  0.1563  0.0658 -0.2478
 3057SOL    HW110387   0.309   3.803   8.139  0.6014 -1.1527 -1.4531
 3057SOL    HW210388   0.160   3.778   8.133 -0.0849  1.6873  1.2475
 3058SOL     OW10389   1.473   5.363   8.453  0.0968  0.0120 -0.4382
 3058SOL    HW110390   1.447   5.377   8.362  0.9324 -0.5766 -0.7872
 3058SOL    HW210391   1.456   5.447   8.496 -0.0872  0.3706 -1.1902
 3059SOL     OW10392   0.438   3.976   8.571  0.0902  0.5264 -0.4304
 3059SOL    HW110393   0.530   3.968   8.546  0.1023  0.7305 -0.4521
 3059SOL    HW210394   0.402   4.038   8.507  0.2391  1.4710  0.3856
 3060SOL     OW10395   0.651   5.195   8.524  0.6341 -0.4600  0.2917
 3060SOL    HW110396   0.584   5.181   8.591  1.8502 -1.3036  1.3736
 3060SOL    HW210397   0.608   5.173   8.441 -1.1113  1.2679  0.6762
 3061SOL     OW10398   0.995   4.044   8.572  0.3910 -0.3029  0.7704
 3061SOL    HW110399   1.001   3.949   8.566  0.8473 -0.3231  1.4140
 3061SOL    HW210400   1.083   4.075   8.551  0.2672 -0.0298  0.6529
 3062SOL     OW10401   1.439   3.967   8.589  0.4670 -0.1602  0.0277
 3062SOL    HW110402   1.404   3.887   8.627 -0.8773  0.3476 -0.1012
 3062SOL    HW210403   1.362   4.020   8.568  1.3225  1.3173  0.4294
 3063SOL     OW10404   0.740   4.681   7.756 -0.3341  0.0751  0.1650
 3063SOL    HW110405   0.661   4.734   7.745  0.4539  1.1759 -0.4661
 3063SOL    HW210406   0.748   4.634   7.673  0.1281  0.6325 -0.1154
 3064SOL     OW10407   0.618   5.003   0.319 -0.2029 -0.1424  0.3373
 3064SOL    HW110408   0.649   5.026   0.231  0.5137 -0.9193  0.3693
 3064SOL    HW210409   0.530   5.041   0.325  0.1117  0.7415 -0.3589
 3065SOL     OW10410   1.238   3.825   7.884  0.5070 -0.1232  0.5629
 3065SOL    HW110411   1.232   3.735   7.854 -0.5718  0.2391 -0.3572
 3065SOL    HW210412   1.228   3.878   7.805  1.4415  0.8078  1.0431
 3066SOL     OW10413   1.234   4.143   8.480  0.4401 -0.6939  0.0806
 3066SOL    HW110414   1.171   4.188   8.424  0.3704 -1.0113 -0.1015
 3066SOL    HW210415   1.266   4.210   8.540 -0.1659 -0.5532  0.2589
 3067SOL     OW10416   1.458   4.072   8.293  0.0433 -0.1116  0.4607
 3067SOL    HW110417   1.379   4.092   8.343 -0.9832  1.3122 -1.6207
 3067SOL    HW210418   1.523   4.135   8.325 -0.7331  1.0832 -0.2856
 3068SOL     OW10419   0.000   4.343   7.786  0.4809 -0.3621  0.9195
 3068SOL    HW110420  -0.084   4.376   7.754  1.6392  1.3190 -0.5896
 3068SOL    HW210421   0.001   4.250   7.760 -0.2595  0.0059 -0.5189
 3069SOL     OW10422   0.811   5.342   7.568  0.6700 -0.2828 -0.3508
 3069SOL    HW110423   0.867   5.268   7.543  1.5474  0.7264 -1.5113
 3069SOL    HW210424   0.845   5.369   7.654  1.4071 -0.2292 -0.6499
 3070SOL     OW10425   0.100   6.340   8.779 -0.2394  0.3957  0.0527
 3070SOL    HW110426   0.100   6.244   8.786 -1.0100  0.2296 -1.7600
 3070SOL    HW210427   0.041   6.369   8.849 -2.2801 -0.6699 -1.1195
 3071SOL     OW10428   8.725   5.896   0.902  0.0915 -0.2658 -0.7504
 3071SOL    HW110429   8.634   5.867   0.911  0.4915 -2.0088 -1.7555
 3071SOL    HW210430   8.758   5.848   0.826  1.4745  1.3524 -1.2320
 3072SOL     OW10431   8.783   5.746   0.681 -0.2711  0.0717 -0.4230
 3072SOL    HW110432   8.725   5.679   0.646 -1.7538  0.2571  1.4698
 3072SOL    HW210433   8.859   5.698   0.713 -0.6942 -0.5465 -0.3325
 3073SOL     OW10434   0.311   7.017   1.123 -0.2213  0.4084 -0.3028
 3073SOL    HW110435   0.295   6.927   1.093  0.5223  0.0376  0.3786
 3073SOL    HW210436   0.366   7.055   1.055  3.3146 -1.1207  1.4617
 3074SOL     OW10437   1.465   6.512   0.806 -0.1178  0.3958  0.3089
 3074SOL    HW110438   1.523   6.587   0.792  0.0959  0.0427 -0.7598
 3074SOL    HW210439   1.457   6.471   0.720 -2.1596  0.5681  0.3635
 3075SOL     OW10440   0.919   6.362   0.597  0.4664  0.3194  0.7657
 3075SOL    HW110441   0.983   6.379   0.528  2.3236 -2.5623  1.6169
 3075SOL    HW210442   0.847   6.317   0.552  0.9960 -0.2327  0.4472
 3076SOL     OW10443   1.605   6.159   8.706 -0.2894  0.2502 -0.5971
 3076SOL    HW110444   1.655   6.084   8.673 -1.2501 -0.8879  0.4223
 3076SOL    HW210445   1.671   6.224   8.728  0.7138 -0.9326  0.0274
 3077SOL     OW10446   0.977   6.809   1.459 -0.3585  0.5309 -0.4323
 3077SOL    HW110447   1.004   6.724   1.426  1.1087  1.0177 -0.5697
 3077SOL    HW210448   1.054   6.865   1.447 -0.9421  1.6063  0.6110
 3078SOL     OW10449   0.587   6.573   1.275  0.3549 -0.5131  0.2083
 3078SOL    HW110450   0.556   6.639   1.213  0.8396 -0.6652 -0.2094
 3078SOL    HW210451   0.533   6.496   1.259  0.2243 -0.4274  0.2405
 3079SOL     OW10452   0.673   6.740   1.063 -0.1089 -0.1124 -0.0112
 3079SOL    HW110453   0.660   6.821   1.113  2.6796 -0.2088  1.0593
 3079SOL    HW210454   0.728   6.686   1.120  0.4382 -1.6011 -1.8631
 3080SOL     OW10455   0.551   6.986   1.523  0.2429  0.1032  0.6627
 3080SOL    HW110456   0.575   7.050   1.456  1.9816 -0.6094  0.5270
 3080SOL    HW210457   0.479   7.026   1.571 -2.1815  0.0092 -2.5762
 3081SOL     OW10458   0.409   7.305   0.887 -0.1921  1.3712 -0.3149
 3081SOL    HW110459   0.468   7.233   0.910 -0.3344  1.8220  1.6310
 3081SOL    HW210460   0.358   7.272   0.813 -0.3884 -0.6250  0.6497
 3082SOL     OW10461   1.553   6.887   1.662  0.0116  0.4533  0.4762
 3082SOL    HW110462   1.570   6.974   1.626  1.5822  0.2809  0.7343
 3082SOL    HW210463   1.617   6.831   1.620 -1.4033 -0.7514 -0.1838
 3083SOL     OW10464   0.112   5.744   1.555  0.1834 -0.1081 -0.4559
 3083SOL    HW110465   0.200   5.718   1.527 -0.7341 -3.4189 -0.5687
 3083SOL    HW210466   0.123   5.772   1.646  1.3798 -0.1556 -0.5674
 3084SOL     OW10467   1.928   6.352   0.195 -0.1205 -0.0713 -0.3014
 3084SOL    HW110468   1.882   6.268   0.191  0.9573 -0.6475 -2.6666
 3084SOL    HW210469   1.988   6.343   0.269 -1.4064 -0.5776  0.7194
 3085SOL     OW10470   8.616   7.140   0.497 -0.3542 -0.0504 -0.0021
 3085SOL    HW110471   8.695   7.106   0.538 -0.1084  0.4148 -0.0844
 3085SOL    HW210472   8.642   7.225   0.460  0.1081 -1.4127 -3.1707
 3086SOL     OW10473   0.806   6.906   1.937  0.1884  0.3313 -0.0986
 3086SOL    HW110474   0.872   6.841   1.961 -1.1802 -2.1796 -2.4956
 3086SOL    HW210475   0.763   6.868   1.860 -1.5735  3.5664 -0.8730
 3087SOL     OW10476   0.014   6.888   0.790  0.2315  0.0743  0.2704
 3087SOL    HW110477   0.063   6.891   0.873  0.0423  1.0211  0.3526
 3087SOL    HW210478   0.038   6.803   0.752  1.2841  0.1620  0.7020
 3088SOL     OW10479   0.084   6.795   1.041 -0.8193 -0.1257 -0.3017
 3088SOL    HW110480   0.010   6.767   1.096 -0.5864 -0.4933 -0.1672
 3088SOL    HW210481   0.152   6.729   1.058 -1.0502 -0.7607 -1.7182
 3089SOL     OW10482   0.825   7.725   1.205 -0.7468 -0.4107  0.9360
 3089SOL    HW110483   0.894   7.695   1.265  1.0273 -1.4322 -1.4211
 3089SOL    HW210484   0.831   7.665   1.131 -2.0323  1.4704 -0.7895
 3090SOL     OW10485   0.341   6.268   0.567  0.1335  0.1011  0.0882
 3090SOL    HW110486   0.405   6.314   0.512 -1.0418 -0.7919 -2.1946
 3090SOL    HW210487   0.395   6.212   0.624  1.4514 -0.2702 -1.4297
 3091SOL     OW10488   0.966   5.686   1.639  0.9001  0.2395 -0.8263
 3091SOL    HW110489   0.885   5.635   1.638  1.0053 -0.1442  1.8746
 3091SOL    HW210490   1.029   5.629   1.683  1.6275  1.8624  0.3266
 3092SOL     OW10491   8.665   6.182   0.404 -0.2608  0.2639 -0.1500
 3092SOL    HW110492   8.632   6.175   0.494  0.0033 -0.1632 -0.0814
 3092SOL    HW210493   8.749   6.226   0.412 -0.1022 -0.0357 -0.1539
 3093SOL     OW10494   1.541   6.913   0.257  0.1446 -0.3182 -0.7701
 3093SOL    HW110495   1.583   6.888   0.339 -1.6070 -0.4515  0.1133
 3093SOL    HW210496   1.575   6.851   0.193  0.7010 -0.9047  0.0799
 3094SOL     OW10497   8.709   7.147   0.174 -0.4393 -0.0716  0.0759
 3094SOL    HW110498   8.690   7.055   0.193 -0.2936 -0.0035  0.5717
 3094SOL    HW210499   8.716   7.188   0.260  0.4738  0.2037 -0.1198
 3095SOL     OW10500   1.985   6.424   0.577 -0.5813 -0.1612 -0.4120
 3095SOL    HW110501   1.890   6.416   0.583 -0.7357  0.0657 -2.1341
 3095SOL    HW210502   2.013   6.345   0.531  0.4630 -1.7558  2.6156
 3096SOL     OW10503   1.230   6.817   0.027  0.6980 -0.4966  0.2701
 3096SOL    HW110504   1.313   6.822  -0.020  0.7946 -0.9389  0.3909
 3096SOL    HW210505   1.169   6.780  -0.037  0.4670  0.3016  0.0185
 3097SOL     OW10506   0.037   6.318   1.879  0.1990  0.4596 -0.2401
 3097SOL    HW110507   0.131   6.312   1.899 -0.0733 -1.1743  0.7565
 3097SOL    HW210508   0.021   6.412   1.868  1.7770  0.8558  0.4788
 3098SOL     OW10509   0.422   7.004   0.787 -0.5354 -0.4730 -0.0736
 3098SOL    HW110510   0.347   6.989   0.729 -0.0285  0.6203 -1.0541
 3098SOL    HW210511   0.481   6.930   0.771  0.4953  0.7747 -2.4681
 3099SOL     OW10512   0.833   7.061   1.662  0.8628  0.2976 -0.0091
 3099SOL    HW110513   0.803   7.139   1.707  3.3336  0.6554  1.1910
 3099SOL    HW210514   0.787   6.989   1.705 -0.3564  0.9695 -0.1580
 3100SOL     OW10515   0.815   5.654   0.754  0.8225 -0.1971  0.4807
 3100SOL    HW110516   0.865   5.624   0.678 -0.5439 -1.2672 -0.0429
 3100SOL    HW210517   0.815   5.579   0.814 -0.6091 -0.4390  0.2107
 3101SOL     OW10518   8.735   6.668   1.216 -0.2116 -0.1560  0.1732
 3101SOL    HW110519   8.672   6.606   1.252 -1.9723  1.2501 -0.3421
 3101SOL    HW210520   8.789   6.693   1.291 -1.7875  0.3391  1.1929
 3102SOL     OW10521   1.267   6.178   0.327  0.0883  0.6084  0.3596
 3102SOL    HW110522   1.325   6.183   0.251 -1.2293 -0.2228 -0.7475
 3102SOL    HW210523   1.240   6.269   0.342 -2.2147  0.5118 -2.3141
 3103SOL     OW10524   1.676   7.413   1.473 -0.6414 -0.2279  0.3482
 3103SOL    HW110525   1.712   7.404   1.561 -0.0819 -1.3718  0.0147
 3103SOL    HW210526   1.636   7.500   1.473  0.8089  0.4736  1.1999
 3104SOL     OW10527   0.402   6.048   1.526 -0.4976  0.0980  0.4042
 3104SOL    HW110528   0.455   6.127   1.533  1.9672 -1.3624 -0.3706
 3104SOL    HW210529   0.319   6.078   1.488  0.2928  2.2991  0.2645
 3105SOL     OW10530   1.135   6.877   0.913 -0.0363  0.1964 -0.2996
 3105SOL    HW110531   1.230   6.888   0.915 -0.1150  1.8059 -1.9873
 3105SOL    HW210532   1.110   6.863   1.004  1.5247  2.7611  0.6228
 3106SOL     OW10533   1.183   7.154   0.600 -0.2896  0.1299  0.2074
 3106SOL    HW110534   1.098   7.169   0.642 -0.0130 -0.8657  1.1767
 3106SOL    HW210535   1.235   7.111   0.668  0.9021  0.4770 -0.4681
 3107SOL     OW10536   0.220   6.529   0.338  0.3865  0.4843 -0.2337
 3107SOL    HW110537   0.254   6.618   0.351  0.2907  0.3703  0.8805
 3107SOL    HW210538   0.296   6.478   0.312  0.1513  1.2049 -2.5590
 3108SOL     OW10539   0.805   6.059   0.904  0.1268 -0.4692 -0.1082
 3108SOL    HW110540   0.889   6.039   0.944 -0.1194 -1.4333 -0.0533
 3108SOL    HW210541   0.742   6.054   0.976 -0.1790 -1.2282 -0.4223
 3109SOL     OW10542   1.508   7.216   0.240 -0.8286 -0.8830  0.8592
 3109SOL    HW110543   1.461   7.225   0.157 -1.2761 -0.6430  1.1310
 3109SOL    HW210544   1.520   7.122   0.251 -0.7195 -0.9096  0.4928
 3110SOL     OW10545   0.518   6.441   0.916 -0.9246  0.2760 -0.4182
 3110SOL    HW110546   0.598   6.398   0.885 -0.9438 -0.2389  0.2226
 3110SOL    HW210547   0.493   6.499   0.844 -1.0105 -0.9317 -1.3945
 3111SOL     OW10548   1.095   5.651   2.110 -0.3286 -0.8452 -0.2345
 3111SOL    HW110549   1.093   5.659   2.206 -0.0329 -0.7467 -0.2358
 3111SOL    HW210550   1.016   5.602   2.089 -1.3455  0.6723 -0.0876
 3112SOL     OW10551   0.793   6.184   1.207  0.1859  0.4703  0.0954
 3112SOL    HW110552   0.816   6.170   1.298 -2.2550 -2.0743  0.4835
 3112SOL    HW210553   0.872   6.162   1.158  0.7884 -0.6965  1.5217
 3113SOL     OW10554   0.594   6.234   1.517  0.0817  0.0622  0.9205
 3113SOL    HW110555   0.593   6.330   1.518 -0.0824  0.1494 -1.4931
 3113SOL    HW210556   0.686   6.211   1.504 -0.0940 -0.0049 -0.3539
 3114SOL     OW10557   0.510   6.426   0.431  0.1771 -0.3735  0.3545
 3114SOL    HW110558   0.561   6.483   0.489  0.4816  1.6549 -1.7575
 3114SOL    HW210559   0.571   6.402   0.361 -1.3271  1.0297 -1.5356
 3115SOL     OW10560   8.585   6.444   0.896  0.1649 -0.4646 -0.5426
 3115SOL    HW110561   8.667   6.492   0.883  0.4119 -0.7827 -0.1553
 3115SOL    HW210562   8.607   6.352   0.881  0.7743 -1.0606  3.1611
 3116SOL     OW10563   0.478   8.010   2.159 -0.2429 -0.0930 -0.0949
 3116SOL    HW110564   0.412   7.941   2.166 -0.2119  0.0150  1.8709
 3116SOL    HW210565   0.533   7.983   2.086 -0.6516 -1.7948  0.1757
 3117SOL     OW10566   0.999   6.360   0.330 -0.2994  0.1814 -0.2399
 3117SOL    HW110567   1.083   6.401   0.311  0.5421 -1.8561 -1.2131
 3117SOL    HW210568   0.971   6.322   0.247 -0.9291 -1.3250  0.6053
 3118SOL     OW10569   1.874   6.316   1.880  0.4547  0.3856  0.3343
 3118SOL    HW110570   1.917   6.334   1.964  0.2254 -0.5380  0.6686
 3118SOL    HW210571   1.782   6.304   1.903  0.7261 -2.1921  0.3433
 3119SOL     OW10572   1.171   6.752   0.268  0.3293  0.3334  0.0001
 3119SOL    HW110573   1.213   6.764   0.183 -0.6583  1.5936 -0.3333
 3119SOL    HW210574   1.082   6.784   0.256 -0.0159 -0.0356  1.3540
 3120SOL     OW10575   0.552   5.599   1.001  0.1270 -0.0705  0.6230
 3120SOL    HW110576   0.467   5.578   1.041  0.7309 -1.5566  1.2007
 3120SOL    HW210577   0.531   5.620   0.910 -1.0207  1.1516  1.1297
 3121SOL     OW10578   0.548   7.026   0.351 -0.1349 -0.1754  0.1852
 3121SOL    HW110579   0.524   7.057   0.438 -0.9580 -0.0091 -0.0909
 3121SOL    HW210580   0.482   7.064   0.293  1.1343  0.7753 -0.6949
 3122SOL     OW10581   0.087   7.388   0.842 -0.9197  0.1612 -0.6461
 3122SOL    HW110582   0.037   7.351   0.915  0.3437  0.2589  0.2902
 3122SOL    HW210583   0.027   7.452   0.803 -1.8784 -0.4178 -0.1722
 3123SOL     OW10584   1.322   6.061   1.065 -0.1395  0.4571  0.4381
 3123SOL    HW110585   1.322   6.125   0.994  0.1724  0.5599  0.5278
 3123SOL    HW210586   1.415   6.053   1.090 -0.2801  0.6874  1.0667
 3124SOL     OW10587   1.324   7.109   1.408  0.0221 -0.0046  0.4444
 3124SOL    HW110588   1.410   7.118   1.449 -0.6162  0.5761  1.7254
 3124SOL    HW210589   1.274   7.056   1.470 -0.2551 -1.2221 -0.7793
 3125SOL     OW10590   0.170   6.579   8.714  0.0942 -0.0259 -0.1606
 3125SOL    HW110591   0.143   6.490   8.737 -0.9908  0.1889 -0.5452
 3125SOL    HW210592   0.265   6.578   8.722  0.0009 -0.8049  1.3283
 3126SOL     OW10593   1.459   6.686   0.478 -0.7804  0.2611  0.3091
 3126SOL    HW110594   1.430   6.682   0.387 -1.3661  1.5103  0.4113
 3126SOL    HW210595   1.555   6.685   0.473 -0.7540 -2.3801 -0.1240
 3127SOL     OW10596   0.362   7.093   1.678 -0.4693  0.0853 -0.6397
 3127SOL    HW110597   0.274   7.055   1.680 -0.4320  0.0286  0.4810
 3127SOL    HW210598   0.374   7.130   1.765 -0.1550  1.9038 -1.4113
 3128SOL     OW10599   0.893   7.166   0.319 -0.2590 -0.0221 -0.2464
 3128SOL    HW110600   0.976   7.120   0.332 -1.6634 -2.1319  2.2022
 3128SOL    HW210601   0.880   7.163   0.224  0.3495 -3.8371 -0.3777
 3129SOL     OW10602   0.059   5.396   1.258  0.7162  0.7168 -0.5881
 3129SOL    HW110603   0.012   5.435   1.332  3.3247  0.5064  1.2982
 3129SOL    HW210604   0.085   5.309   1.288  0.4200 -0.0550 -2.4165
 3130SOL     OW10605   1.171   7.310   0.186 -0.0963  0.3998  0.1372
 3130SOL    HW110606   1.183   7.225   0.227  0.1459  0.6727  0.6479
 3130SOL    HW210607   1.193   7.296   0.094 -0.7505 -0.2418  0.0710
 3131SOL     OW10608   0.211   7.228   0.404  0.8508 -0.3229 -0.3216
 3131SOL    HW110609   0.174   7.150   0.446 -0.0388  0.0978 -0.3018
 3131SOL    HW210610   0.299   7.236   0.441 -0.3696  0.8424  2.6245
 3132SOL     OW10611   1.784   5.660   0.533  0.1289  0.3550 -0.5490
 3132SOL    HW110612   1.768   5.723   0.603 -0.4271  0.3808 -0.6972
 3132SOL    HW210613   1.880   5.651   0.530  0.1757  0.6647 -0.0661
 3133SOL     OW10614   8.597   7.479   1.194  0.2034  0.0160 -0.0351
 3133SOL    HW110615   8.539   7.418   1.149 -0.1981 -0.0377  0.5438
 3133SOL    HW210616   8.588   7.456   1.287  0.5997  0.4845  0.1234
 3134SOL     OW10617   0.870   7.383   0.694  0.1995  0.0569 -0.1775
 3134SOL    HW110618   0.892   7.295   0.725  0.5064  0.1193 -0.2150
 3134SOL    HW210619   0.807   7.369   0.624 -1.1052 -0.0547  0.9841
 3135SOL     OW10620   0.103   6.388   0.760 -0.6894 -0.0401 -0.2393
 3135SOL    HW110621   0.166   6.341   0.815  0.8135 -0.2752 -2.0727
 3135SOL    HW210622   0.117   6.353   0.672 -0.0515  3.1978 -1.5789
 3136SOL     OW10623   1.321   5.512   1.578 -0.4737 -0.2261  0.0094
 3136SOL    HW110624   1.294   5.578   1.514  0.8544  0.1418 -0.1839
 3136SOL    HW210625   1.251   5.513   1.644 -0.5600  1.2590 -0.0779
 3137SOL     OW10626   0.132   6.244   1.049  0.4446 -0.2257  0.5228
 3137SOL    HW110627   0.199   6.249   0.981  0.6979 -0.3182  0.7644
 3137SOL    HW210628   0.158   6.169   1.103 -0.0609 -0.5000  0.3987
 3138SOL     OW10629   0.589   7.726   0.890 -0.1931  0.2402 -0.0144
 3138SOL    HW110630   0.624   7.762   0.809  0.0328  1.5432  0.6491
 3138SOL    HW210631   0.507   7.683   0.864  1.3262 -2.0491 -1.4357
 3139SOL     OW10632   1.212   6.117   1.741  0.1006 -0.1779 -0.1367
 3139SOL    HW110633   1.189   6.053   1.674  1.3810 -0.4163 -0.3712
 3139SOL    HW210634   1.138   6.116   1.802  0.3623 -2.3516  0.2278
 3140SOL     OW10635   0.821   7.535   0.923 -0.4477 -0.2540  0.0310
 3140SOL    HW110636   0.741   7.589   0.924 -0.1602  0.2241  2.1216
 3140SOL    HW210637   0.836   7.516   0.830 -2.2235  0.7925 -0.5189
 3141SOL     OW10638   0.896   5.847   1.080  0.6033 -0.4275 -0.1363
 3141SOL    HW110639   0.803   5.828   1.069  0.5172  0.0725 -0.3195
 3141SOL    HW210640   0.940   5.778   1.031  0.4041 -1.7886  1.5268
 3142SOL     OW10641   0.502   5.626   0.714  0.0114  0.1152 -0.2298
 3142SOL    HW110642   0.436   5.674   0.664  0.6172  0.7929 -0.4027
 3142SOL    HW210643   0.585   5.659   0.681  0.4486 -1.1836 -0.4520
 3143SOL     OW10644   1.271   7.124   0.005  0.3728 -0.0689  0.8339
 3143SOL    HW110645   1.249   7.047   0.058 -1.7585  0.2687  0.5212
 3143SOL    HW210646   1.225   7.110  -0.078  1.5335  0.6491  0.0461
 3144SOL     OW10647   1.022   5.731   0.323 -0.4478 -0.2737 -0.3448
 3144SOL    HW110648   1.103   5.704   0.279 -0.8837  0.3263 -1.5869
 3144SOL    HW210649   1.029   5.827   0.328 -0.8157 -0.2690  0.0667
 3145SOL     OW10650   0.845   6.128   1.470  0.5298  0.0786  0.0388
 3145SOL    HW110651   0.799   6.046   1.457  0.2676 -0.1764  2.2504
 3145SOL    HW210652   0.918   6.106   1.528  1.7290  1.0282 -1.0582
 3146SOL     OW10653   0.970   7.128   0.779  0.3849 -0.4227  0.2653
 3146SOL    HW110654   0.984   7.147   0.872  0.8918 -1.4169  0.4066
 3146SOL    HW210655   0.965   7.032   0.774 -0.6600 -0.3417 -0.6026
 3147SOL     OW10656   0.346   7.580   0.775 -0.3482 -0.1983 -0.3290
 3147SOL    HW110657   0.425   7.564   0.724 -0.5908 -0.5658 -0.5988
 3147SOL    HW210658   0.293   7.501   0.762 -1.3375  0.5873 -1.2180
 3148SOL     OW10659   1.171   7.074   0.347  0.5609  0.3820  0.1448
 3148SOL    HW110660   1.161   7.107   0.437 -0.0337  1.1294 -0.1818
 3148SOL    HW210661   1.222   6.994   0.357 -0.1441  0.0424  1.2318
 3149SOL     OW10662   1.166   6.319   0.026  0.3066 -0.4733  0.4376
 3149SOL    HW110663   1.232   6.292   0.090 -1.9236 -2.6158  1.9855
 3149SOL    HW210664   1.199   6.287  -0.057  2.0730  0.1820  0.8270
 3150SOL     OW10665   0.172   6.198   1.499 -0.2102 -0.2564 -0.1795
 3150SOL    HW110666   0.139   6.154   1.421 -0.9357  1.3424 -0.8136
 3150SOL    HW210667   0.114   6.168   1.570 -3.4631  2.7190 -1.3015
 3151SOL     OW10668   0.282   5.784   1.033  0.4746 -0.0392  0.2134
 3151SOL    HW110669   0.204   5.841   1.030  0.9672  0.6349  0.0558
 3151SOL    HW210670   0.252   5.707   1.082 -0.9436 -0.8028 -1.7320
 3152SOL     OW10671   1.024   5.640   1.011 -0.4005 -0.5422 -0.0828
 3152SOL    HW110672   1.072   5.606   1.087  1.1378 -1.7597 -1.5117
 3152SOL    HW210673   1.011   5.563   0.955  1.2452  0.7828 -2.4508
 3153SOL     OW10674   1.182   5.528   0.604 -0.3289  0.1443 -0.1607
 3153SOL    HW110675   1.089   5.524   0.582 -0.1128 -0.8192 -0.9972
 3153SOL    HW210676   1.210   5.615   0.575 -1.1903  0.8819  1.1315
 3154SOL     OW10677   1.085   6.750   0.559  0.0599 -0.4028  0.0670
 3154SOL    HW110678   0.996   6.750   0.526  0.4229 -1.2518 -0.9435
 3154SOL    HW210679   1.140   6.764   0.482  0.8814 -1.5840  0.4059
 3155SOL     OW10680   1.091   6.356   0.812 -0.0978  0.0019 -0.4392
 3155SOL    HW110681   1.072   6.449   0.800 -0.7645  0.1142  1.2763
 3155SOL    HW210682   1.030   6.312   0.752 -1.1118  0.6213  0.0972
 3156SOL     OW10683   2.019   6.517   1.060 -0.0932 -0.0719 -0.6361
 3156SOL    HW110684   2.082   6.482   1.122  0.4452  2.1568  0.1624
 3156SOL    HW210685   2.066   6.522   0.977 -0.4266 -1.8857 -0.9672
 3157SOL     OW10686   0.449   7.195   0.136  0.1946  0.3933  0.7464
 3157SOL    HW110687   0.370   7.204   0.083  0.7897 -1.1168 -0.4807
 3157SOL    HW210688   0.521   7.203   0.074  1.0469  1.9822  1.8767
 3158SOL     OW10689   1.376   6.805   0.714  0.4756 -0.3184  0.5154
 3158SOL    HW110690   1.287   6.772   0.726 -0.0579  0.6926 -0.4252
 3158SOL    HW210691   1.409   6.760   0.636  0.6792 -0.4721  0.6893
 3159SOL     OW10692   1.320   6.208   8.674  0.0676  0.1119  0.1615
 3159SOL    HW110693   1.413   6.190   8.687  0.3066  1.5313  0.6767
 3159SOL    HW210694   1.294   6.152   8.601  1.7929  1.0216 -1.2458
 3160SOL     OW10695   0.129   5.726   0.341 -0.0670  0.0568 -0.1431
 3160SOL    HW110696   0.063   5.785   0.305  0.0826  0.6755  0.5664
 3160SOL    HW210697   0.203   5.734   0.281  0.4323  1.5856  0.6221
 3161SOL     OW10698   1.719   6.721   1.530 -0.2454  0.1286 -0.2977
 3161SOL    HW110699   1.668   6.649   1.493 -0.9352  0.8272 -0.7372
 3161SOL    HW210700   1.810   6.693   1.521 -0.4687 -0.3500 -1.2017
 3162SOL     OW10701   0.787   7.028   1.376 -0.5437 -0.5276 -0.8915
 3162SOL    HW110702   0.844   6.954   1.359 -3.3677 -3.3816  0.9628
 3162SOL    HW210703   0.810   7.056   1.465 -0.6823 -0.3589 -0.9081
 3163SOL     OW10704   1.358   7.661   1.544 -0.8358 -0.2063  0.3965
 3163SOL    HW110705   1.372   7.733   1.483  0.0733 -0.5589  0.1784
 3163SOL    HW210706   1.436   7.661   1.600 -1.1990 -0.5174  0.9159
 3164SOL     OW10707   0.982   6.802   1.143 -0.1047 -0.2631 -0.1212
 3164SOL    HW110708   1.000   6.722   1.192  0.5605 -0.9338 -1.4461
 3164SOL    HW210709   1.007   6.872   1.204 -2.1877 -0.9557  1.6728
 3165SOL     OW10710   1.669   6.023   0.805 -0.1344 -0.2119  0.2137
 3165SOL    HW110711   1.586   6.031   0.853  0.2146  0.4195  0.7258
 3165SOL    HW210712   1.670   6.098   0.746  0.6349  0.5186  1.1114
 3166SOL     OW10713   0.525   5.815   1.583 -0.4864  0.5052  0.6553
 3166SOL    HW110714   0.462   5.754   1.545  0.6908 -0.5993  0.3846
 3166SOL    HW210715   0.496   5.901   1.555 -1.6921 -0.0048  0.2883
 3167SOL     OW10716   0.646   6.811   1.715  0.0884 -0.2931 -0.0272
 3167SOL    HW110717   0.572   6.752   1.699 -0.1613 -0.0679  0.2840
 3167SOL    HW210718   0.632   6.884   1.655 -0.6900  0.4093  0.9555
 3168SOL     OW10719   0.757   6.874   0.460 -0.0718  0.6300 -0.1759
 3168SOL    HW110720   0.717   6.803   0.510  0.2648  0.5211 -0.0537
 3168SOL    HW210721   0.685   6.934   0.442 -0.9060 -0.9090 -2.4209
 3169SOL     OW10722   0.173   6.524   1.073 -0.1403  0.1799  0.2811
 3169SOL    HW110723   0.111   6.476   1.128 -0.9241 -1.2149 -1.6959
 3169SOL    HW210724   0.226   6.456   1.032  1.0934  1.2375  0.0680
 3170SOL     OW10725   0.945   5.984   1.670  0.7001  0.0425 -0.5286
 3170SOL    HW110726   0.895   5.988   1.751  1.9385  0.4167  0.2455
 3170SOL    HW210727   0.949   5.891   1.648  1.3776 -0.1816  0.5066
 3171SOL     OW10728   0.178   7.867   1.839  0.2207  0.1369  0.1945
 3171SOL    HW110729   0.106   7.827   1.790  0.5957 -2.2168  1.4386
 3171SOL    HW210730   0.248   7.876   1.775 -0.2374 -0.1918 -0.3675
 3172SOL     OW10731   0.369   6.750   0.388 -0.1450  0.9773 -0.4438
 3172SOL    HW110732   0.389   6.792   0.305 -1.5853  1.4789 -0.5759
 3172SOL    HW210733   0.451   6.752   0.437  0.7452  0.6184 -1.8571
 3173SOL     OW10734   0.470   6.061   0.740  0.5296 -0.0528 -0.6463
 3173SOL    HW110735   0.407   5.991   0.756  1.2385 -0.2457  1.7114
 3173SOL    HW210736   0.551   6.016   0.718  1.0297 -0.0433  1.0356
 3174SOL     OW10737   0.909   6.852   0.208 -0.4756  0.1444  0.0389
 3174SOL    HW110738   0.891   6.886   0.296  3.3899  1.8026  0.3752
 3174SOL    HW210739   0.912   6.929   0.152  0.3817 -0.5349 -0.8848
 3175SOL     OW10740   1.370   6.879   1.281  0.1616  0.0005  0.1719
 3175SOL    HW110741   1.364   6.805   1.342  0.9698 -0.1625  0.0679
 3175SOL    HW210742   1.371   6.957   1.338 -0.8817 -0.0430  0.2718
 3176SOL     OW10743   0.794   6.672   0.059  0.5475  0.6448  0.4748
 3176SOL    HW110744   0.875   6.640   0.019  0.6581 -0.9977  1.8872
 3176SOL    HW210745   0.820   6.753   0.103  0.9363  1.2070 -0.7151
 3177SOL     OW10746   0.273   7.349   1.118 -0.1963 -0.0386  0.3423
 3177SOL    HW110747   0.329   7.314   1.048  1.4941 -0.3402  1.7844
 3177SOL    HW210748   0.231   7.426   1.080  0.6041 -0.2562 -1.0228
 3178SOL     OW10749   0.144   6.683   1.383  0.5266 -0.6750  0.9195
 3178SOL    HW110750   0.174   6.598   1.352  0.5079 -0.6055  0.7074
 3178SOL    HW210751   0.220   6.740   1.376  0.1537 -0.3075 -0.3518
 3179SOL     OW10752   1.499   6.061   1.697 -0.5435 -0.2242 -0.1228
 3179SOL    HW110753   1.413   6.090   1.729 -2.0324 -1.9980 -2.2125
 3179SOL    HW210754   1.482   5.974   1.660  2.3416 -0.9494  0.0610
 3180SOL     OW10755   0.693   5.410   2.189  0.5030 -0.2409 -0.7292
 3180SOL    HW110756   0.631   5.377   2.255  0.1856 -0.1880 -0.9990
 3180SOL    HW210757   0.649   5.396   2.106  0.7334  0.0638 -0.9044
 3181SOL     OW10758   0.258   5.523   1.885  0.3306 -0.1221 -0.4929
 3181SOL    HW110759   0.203   5.594   1.917  1.1914  0.3429  0.0044
 3181SOL    HW210760   0.218   5.443   1.921 -0.1972  0.1760 -0.4139
 3182SOL     OW10761   1.073   6.574   1.309  0.1270  0.7294 -0.5552
 3182SOL    HW110762   1.004   6.529   1.261  1.4924 -0.5574 -1.4151
 3182SOL    HW210763   1.150   6.567   1.253  1.2951  0.9512  0.9498
 3183SOL     OW10764   1.053   6.648   0.801  0.6251  0.1151  0.0552
 3183SOL    HW110765   1.039   6.730   0.849 -3.2391 -0.0084 -0.5621
 3183SOL    HW210766   1.060   6.675   0.709  1.0744 -0.1367  0.0127
 3184SOL     OW10767   1.143   5.861   0.883  0.7521 -0.1738 -0.0980
 3184SOL    HW110768   1.123   5.894   0.971  2.4665 -0.4647  0.4509
 3184SOL    HW210769   1.149   5.766   0.894 -0.3623 -0.3518 -0.8473
 3185SOL     OW10770   0.185   5.170   1.312  0.0685 -0.1670  0.6422
 3185SOL    HW110771   0.160   5.083   1.282  0.8828 -0.0630 -0.3776
 3185SOL    HW210772   0.273   5.159   1.346 -0.1811  0.0814  1.3893
 3186SOL     OW10773   0.007   7.320   1.278 -0.3266  0.4680 -0.3068
 3186SOL    HW110774   0.025   7.414   1.273  2.0771  0.2371  2.2115
 3186SOL    HW210775  -0.075   7.314   1.328 -0.5323  1.1883 -0.5462
 3187SOL     OW10776   0.518   6.090   1.246 -0.2734  0.0483  0.2634
 3187SOL    HW110777   0.516   6.111   1.339  1.2402  2.9178 -0.2418
 3187SOL    HW210778   0.603   6.121   1.215 -0.8647 -0.4841 -2.1490
 3188SOL     OW10779   1.159   6.091   1.415 -0.1712  0.0599  0.2632
 3188SOL    HW110780   1.228   6.046   1.366 -0.4788  1.4129 -1.5522
 3188SOL    HW210781   1.080   6.041   1.397 -0.0402 -0.2494  0.5431
 3189SOL     OW10782   0.377   5.380   0.814  0.3889  0.4839 -0.6889
 3189SOL    HW110783   0.438   5.443   0.775 -0.7041  2.6375  0.8590
 3189SOL    HW210784   0.427   5.339   0.885  0.4286  1.4022 -0.1633
 3190SOL     OW10785   1.456   6.160   0.627  0.7589 -0.2454  0.2812
 3190SOL    HW110786   1.412   6.161   0.542  0.3994  0.8163  0.4627
 3190SOL    HW210787   1.385   6.164   0.691  1.0598 -0.2015  0.6163
 3191SOL     OW10788   0.731   6.292   0.807 -0.2008 -0.5909  0.0504
 3191SOL    HW110789   0.766   6.284   0.719 -0.8020 -0.1607 -0.2412
 3191SOL    HW210790   0.767   6.218   0.855  0.7849 -0.3705 -0.3316
 3192SOL     OW10791   0.680   7.332   1.677 -0.2640 -0.1071  0.1022
 3192SOL    HW110792   0.681   7.314   1.771  0.5661 -0.8400 -0.0342
 3192SOL    HW210793   0.649   7.422   1.670 -1.2533 -0.3535  1.0180
 3193SOL     OW10794   1.809   6.990   1.449 -0.0192 -0.0894 -0.5670
 3193SOL    HW110795   1.776   7.041   1.374 -0.9866  1.4654  0.8518
 3193SOL    HW210796   1.794   6.899   1.423  0.0744  0.3831 -2.4447
 3194SOL     OW10797   0.534   6.270   1.829 -0.1084  0.4300 -0.1028
 3194SOL    HW110798   0.500   6.206   1.766  0.5542 -0.6088  0.5637
 3194SOL    HW210799   0.629   6.267   1.817 -0.0374  0.8515  0.3567
 3195SOL     OW10800   1.428   5.833   0.373 -0.1128  0.2817  0.5189
 3195SOL    HW110801   1.377   5.764   0.330  1.5374 -0.1523 -0.8913
 3195SOL    HW210802   1.372   5.864   0.443 -1.7273 -1.1131 -0.0680
 3196SOL     OW10803   1.699   6.586   8.564 -0.6188 -0.2458 -0.5583
 3196SOL    HW110804   1.615   6.542   8.576 -0.2132 -0.3836  2.9828
 3196SOL    HW210805   1.677   6.670   8.525 -2.2803 -0.6779 -0.6201
 3197SOL     OW10806   0.513   6.787   0.681 -0.4492  0.1199 -0.2987
 3197SOL    HW110807   0.606   6.766   0.672 -0.2605 -0.1027  1.7850
 3197SOL    HW210808   0.473   6.705   0.711 -0.9037  0.8124  1.0659
 3198SOL     OW10809   8.804   6.596   0.897 -0.6661 -0.3270  0.8519
 3198SOL    HW110810   8.881   6.541   0.887 -1.2031 -0.9188 -0.2761
 3198SOL    HW210811   8.822   6.651   0.973  0.9390 -0.3216  0.4945
 3199SOL     OW10812   0.017   5.954   0.526 -0.2744 -0.1688  0.1578
 3199SOL    HW110813  -0.042   5.964   0.451 -2.2935  0.6072  1.7294
 3199SOL    HW210814  -0.031   5.898   0.587  0.7336  0.2530  1.3968
 3200SOL     OW10815   0.808   6.235   1.843  0.8018 -0.2097  0.7269
 3200SOL    HW110816   0.892   6.231   1.797  0.7126  1.1676  0.4124
 3200SOL    HW210817   0.827   6.201   1.930  1.4645 -0.8044  0.3617
 3201SOL     OW10818   0.718   5.559   1.628 -0.1356  0.5932  0.1622
 3201SOL    HW110819   0.663   5.628   1.591 -0.0659  1.3112  1.3326
 3201SOL    HW210820   0.675   5.536   1.711 -0.3251 -1.0043 -0.3473
 3202SOL     OW10821   8.583   6.839   0.738  0.0564 -0.8112  0.1979
 3202SOL    HW110822   8.553   6.916   0.786 -1.2787 -0.3601 -1.2823
 3202SOL    HW210823   8.676   6.832   0.759  0.0530  0.8167  0.8563
 3203SOL     OW10824   0.129   7.594   1.040  0.2172  0.4745 -0.0950
 3203SOL    HW110825   0.133   7.575   0.946 -2.2954  0.4808 -0.2688
 3203SOL    HW210826   0.177   7.676   1.050  0.8285  0.2853 -1.3138
 3204SOL     OW10827   8.829   7.130   0.672 -0.1758 -0.6576 -0.1163
 3204SOL    HW110828   8.866   7.046   0.696 -0.0679 -0.2945  1.0328
 3204SOL    HW210829   8.870   7.193   0.732 -2.1336 -0.1469  0.7834
 3205SOL     OW10830   0.842   6.482   1.214 -0.1828  0.3021 -0.2706
 3205SOL    HW110831   0.840   6.386   1.211 -0.3824  0.2798  0.3059
 3205SOL    HW210832   0.753   6.507   1.239 -0.3937  0.6885 -1.3927
 3206SOL     OW10833   8.772   6.343   1.192 -0.1809 -0.4537 -0.4191
 3206SOL    HW110834   8.688   6.349   1.146 -0.2726  0.0354 -0.1928
 3206SOL    HW210835   8.829   6.295   1.131 -0.2595  0.3211 -1.1280
 3207SOL     OW10836   8.792   6.454   1.423  0.5936  0.1959  0.2084
 3207SOL    HW110837   8.792   6.420   1.334 -1.9062  2.9097 -0.9753
 3207SOL    HW210838   8.871   6.507   1.429  0.3400  0.6923 -0.7238
 3208SOL     OW10839   1.141   6.331   1.534  0.2114  0.0951  0.3795
 3208SOL    HW110840   1.142   6.240   1.504  1.9314 -0.1547  1.0618
 3208SOL    HW210841   1.084   6.377   1.472  0.1774 -1.2317 -0.6044
 3209SOL     OW10842   0.689   5.910   0.709 -0.0801  0.2782  0.4416
 3209SOL    HW110843   0.736   5.980   0.754  0.9765 -0.5202  0.6170
 3209SOL    HW210844   0.740   5.831   0.727  0.3042 -0.1091 -2.0049
 3210SOL     OW10845   1.698   6.318   0.803 -0.6004 -0.2636  0.6262
 3210SOL    HW110846   1.677   6.407   0.832  0.9052  0.9705 -1.7318
 3210SOL    HW210847   1.752   6.281   0.872  0.5322  1.4757  0.7180
 3211SOL     OW10848   0.058   7.500   1.671  0.0584 -0.5501  0.5779
 3211SOL    HW110849   0.153   7.509   1.659 -0.3814  1.1397 -2.7143
 3211SOL    HW210850   0.040   7.409   1.648  0.7366 -0.4990 -0.2105
 3212SOL     OW10851   0.326   6.263   0.857 -0.0697 -0.2559  0.8089
 3212SOL    HW110852   0.376   6.184   0.837  0.3532  0.2561 -0.2407
 3212SOL    HW210853   0.392   6.330   0.874 -0.3832  0.2721  0.0254
 3213SOL     OW10854   0.781   7.303   1.101  0.2761 -0.2344  0.6090
 3213SOL    HW110855   0.788   7.390   1.062  0.1307 -0.9979 -1.2405
 3213SOL    HW210856   0.858   7.295   1.156  1.7191  0.1332 -1.2488
 3214SOL     OW10857   0.631   5.963   0.369 -0.2985  0.2767  0.2044
 3214SOL    HW110858   0.636   5.919   0.454 -1.6454  0.9707  0.6710
 3214SOL    HW210859   0.705   5.928   0.320  0.5697 -0.0576  1.6943
 3215SOL     OW10860   0.081   7.037   1.448 -0.3713 -0.8033 -0.0432
 3215SOL    HW110861   0.010   6.973   1.453  1.6734 -3.2351  0.1297
 3215SOL    HW210862   0.076   7.083   1.532 -1.3976 -1.3137  0.2028
 3216SOL     OW10863   0.621   6.970   1.173 -0.0039 -0.2000 -0.3132
 3216SOL    HW110864   0.621   7.040   1.108 -0.2986  0.8523  0.7615
 3216SOL    HW210865   0.679   7.002   1.242 -0.4262 -0.8465  0.3648
 3217SOL     OW10866   0.884   6.622   0.343  0.3548 -0.1729 -0.1842
 3217SOL    HW110867   0.903   6.531   0.320 -2.5548 -0.3852 -2.3016
 3217SOL    HW210868   0.880   6.668   0.260  0.5443  1.6377  0.7635
 3218SOL     OW10869   1.448   7.051   0.799  0.2207  0.0177  0.4647
 3218SOL    HW110870   1.422   7.021   0.886 -1.3329  0.4739  0.1814
 3218SOL    HW210871   1.430   6.977   0.741  0.7669 -0.1033  0.4388
 3219SOL     OW10872   1.106   7.037   1.253 -0.3752 -0.5072 -0.0669
 3219SOL    HW110873   1.075   7.126   1.235 -1.6600 -0.7857  0.6171
 3219SOL    HW210874   1.187   7.049   1.302 -1.7494  0.3532  2.1163
 3220SOL     OW10875   0.013   7.043   1.142  0.2933  0.6631  0.0273
 3220SOL    HW110876  -0.082   7.042   1.143  0.2920  0.7629  1.2973
 3220SOL    HW210877   0.038   6.953   1.120 -0.1055  0.1779  1.4689
 3221SOL     OW10878   0.329   7.465   1.650 -0.2268 -0.3230 -0.1374
 3221SOL    HW110879   0.341   7.428   1.738  0.7952 -1.0264 -0.5482
 3221SOL    HW210880   0.406   7.522   1.638 -0.2703 -0.3658 -0.6392
 3222SOL     OW10881   1.244   5.654   0.208  0.2327  0.5079  0.3924
 3222SOL    HW110882   1.301   5.649   0.131  1.3638  1.3044  1.1483
 3222SOL    HW210883   1.216   5.564   0.223  0.0339  0.3297 -0.9166
 3223SOL     OW10884   1.658   5.305   0.996 -0.6413 -0.6961  0.2321
 3223SOL    HW110885   1.661   5.399   0.983 -1.2181 -0.6310  0.5245
 3223SOL    HW210886   1.738   5.284   1.043  0.2673 -0.5910 -1.2170
 3224SOL     OW10887   1.222   6.482   0.277  0.2727  0.0809 -0.6780
 3224SOL    HW110888   1.180   6.568   0.282 -0.9817 -0.4481 -1.5203
 3224SOL    HW210889   1.304   6.498   0.230 -0.0181  0.8028 -0.9605
 3225SOL     OW10890   0.224   7.547   2.148  0.1372 -0.1239  0.2265
 3225SOL    HW110891   0.246   7.486   2.077 -3.1276 -0.2709 -0.8128
 3225SOL    HW210892   0.231   7.494   2.228  2.2928 -0.3802 -0.0530
 3226SOL     OW10893   1.509   6.514   0.243  0.1549 -0.1117 -0.2107
 3226SOL    HW110894   1.535   6.566   0.167  0.6133 -0.9749 -0.6504
 3226SOL    HW210895   1.584   6.519   0.302 -0.5432  1.3043  0.6073
 3227SOL     OW10896   0.607   7.147   0.974 -0.1272  0.0942  0.6535
 3227SOL    HW110897   0.665   7.210   1.017  1.1489 -0.5599 -0.0672
 3227SOL    HW210898   0.666   7.085   0.932 -1.3347 -0.0346 -0.9310
 3228SOL     OW10899   0.494   7.238   8.673  0.1483 -0.1263 -0.3085
 3228SOL    HW110900   0.469   7.183   8.599  0.3479 -0.9334  0.2096
 3228SOL    HW210901   0.412   7.276   8.703 -0.0108 -0.2439 -0.5887
 3229SOL     OW10902   0.952   7.624   1.437  0.4254 -0.3708 -0.0209
 3229SOL    HW110903   0.996   7.539   1.443 -1.0820 -1.2749 -0.9134
 3229SOL    HW210904   0.982   7.673   1.514  3.3237 -0.6907 -0.8345
 3230SOL     OW10905   1.769   5.760   0.838  0.4009 -0.2366  0.2230
 3230SOL    HW110906   1.849   5.774   0.788 -0.8540  0.1400 -1.7806
 3230SOL    HW210907   1.738   5.848   0.859  0.9743 -0.3823  1.8733
 3231SOL     OW10908   0.156   5.587   0.765  0.4805  0.1690 -0.3781
 3231SOL    HW110909   0.111   5.540   0.834  1.3028  0.2858  0.2551
 3231SOL    HW210910   0.226   5.528   0.737  0.3145  0.2292 -0.9268
 3232SOL     OW10911   1.528   7.048   8.696  0.6209  0.4775 -0.0853
 3232SOL    HW110912   1.454   7.080   8.747  0.2920  2.0022 -1.4585
 3232SOL    HW210913   1.605   7.086   8.738  0.4206  1.0045 -0.1946
 3233SOL     OW10914   0.394   6.840   1.339  0.7357 -0.4818 -0.2344
 3233SOL    HW110915   0.453   6.869   1.409 -2.6983  0.1921  2.7159
 3233SOL    HW210916   0.399   6.909   1.273  0.2525  1.7784  1.9115
 3234SOL     OW10917   0.547   6.591   0.120 -0.3166 -0.4280 -0.1438
 3234SOL    HW110918   0.630   6.619   0.081  0.4109  0.6492  2.0400
 3234SOL    HW210919   0.493   6.670   0.122 -0.8216 -0.7654 -0.1048
 3235SOL     OW10920   1.750   7.326   0.292 -0.1682  0.2692  0.0123
 3235SOL    HW110921   1.659   7.295   0.288 -0.4038  0.9471  0.0112
 3235SOL    HW210922   1.802   7.246   0.286 -0.7690 -0.1658  0.4220
 3236SOL     OW10923   1.347   6.258   0.878 -0.8171 -0.0364 -0.1431
 3236SOL    HW110924   1.260   6.298   0.887  0.2907  2.3849  0.7559
 3236SOL    HW210925   1.400   6.325   0.835  1.0173 -0.7751  0.8331
 3237SOL     OW10926   0.840   6.929   0.928 -0.1909  0.3110  0.1538
 3237SOL    HW110927   0.795   6.845   0.937  2.9102 -1.4124  0.9828
 3237SOL    HW210928   0.914   6.923   0.988  0.7247  3.2598 -0.5196
 3238SOL     OW10929   0.202   6.054   1.204  0.1118 -0.2710  0.2274
 3238SOL    HW110930   0.290   6.016   1.207 -0.1830 -0.9033  1.1427
 3238SOL    HW210931   0.144   5.979   1.190 -0.2312  0.2524 -1.3499
 3239SOL     OW10932   0.234   6.926   0.563 -0.1469  0.0070 -0.1611
 3239SOL    HW110933   0.227   6.919   0.468 -1.0966 -0.0643 -0.0947
 3239SOL    HW210934   0.257   6.837   0.591 -1.4949 -0.3783 -0.2045
 3240SOL     OW10935   1.615   5.664   1.587 -0.0549  0.3600  0.0748
 3240SOL    HW110936   1.694   5.697   1.544  0.6647 -0.0615  1.0071
 3240SOL    HW210937   1.559   5.635   1.516  1.0896 -0.3052 -0.5907
 3241SOL     OW10938   0.023   6.905   0.378 -0.0508  0.3823  0.4456
 3241SOL    HW110939   0.014   6.810   0.374  2.0804  0.1743 -0.4250
 3241SOL    HW210940  -0.012   6.929   0.464  1.2732 -1.4545  1.5511
 3242SOL     OW10941   0.271   7.142   1.960  0.0518 -0.3162  0.5556
 3242SOL    HW110942   0.265   7.050   1.986 -0.1029 -0.8746 -1.3613
 3242SOL    HW210943   0.186   7.179   1.984 -0.5542 -1.1264 -0.2915
 3243SOL     OW10944   0.805   5.461   0.938  0.6073 -0.3156 -0.3691
 3243SOL    HW110945   0.718   5.471   0.976  0.2138  0.3135 -1.3990
 3243SOL    HW210946   0.843   5.386   0.984 -0.6663 -0.9245 -0.2623
 3244SOL     OW10947   8.791   6.385   0.157 -0.0334  0.3088  0.1623
 3244SOL    HW110948   8.705   6.344   0.162 -0.1990  0.7174  0.9151
 3244SOL    HW210949   8.837   6.354   0.235 -0.3776  1.9946  1.0930
 3245SOL     OW10950   1.254   6.578   1.035 -0.2139  0.2331 -0.3408
 3245SOL    HW110951   1.332   6.534   1.001  0.8232  1.0405  0.8506
 3245SOL    HW210952   1.229   6.640   0.966  0.9351  0.7864 -0.2939
 3246SOL     OW10953   8.727   5.493   0.544 -0.2182  0.5386 -0.1018
 3246SOL    HW110954   8.736   5.435   0.619 -0.7301 -2.5641 -2.2171
 3246SOL    HW210955   8.805   5.476   0.491  0.7886  3.6112  0.1762
 3247SOL     OW10956   0.915   7.105   0.048  0.5129  0.0936  0.3245
 3247SOL    HW110957   0.974   7.138  -0.019  0.4447 -0.1512  0.1429
 3247SOL    HW210958   0.837   7.077  -0.000  0.2971  0.3018  0.5498
 3248SOL     OW10959   0.432   6.646   1.649  0.0556  0.8188 -0.2316
 3248SOL    HW110960   0.494   6.584   1.609 -0.4625  0.6895 -0.8571
 3248SOL    HW210961   0.363   6.656   1.583 -0.1613  1.6160  0.1088
 3249SOL     OW10962   1.022   7.308   1.245 -0.1576 -0.1847  0.1533
 3249SOL    HW110963   1.036   7.303   1.340 -1.1873  1.0270  0.3954
 3249SOL    HW210964   1.075   7.381   1.216 -0.4524 -0.0611 -0.0766
 3250SOL     OW10965   0.245   6.423   1.352 -0.0179 -0.5411 -0.2501
 3250SOL    HW110966   0.229   6.362   1.424 -0.6491 -0.8967 -0.6798
 3250SOL    HW210967   0.295   6.372   1.288  1.6697  0.1523  0.4757
 3251SOL     OW10968   1.353   6.705   1.482  0.0229  0.1954 -0.3361
 3251SOL    HW110969   1.423   6.641   1.491 -1.2572 -1.2803 -0.3428
 3251SOL    HW210970   1.274   6.659   1.511 -0.8728  1.9753  0.2387
 3252SOL     OW10971   0.316   7.787   2.051  0.5689  0.2715 -0.0208
 3252SOL    HW110972   0.294   7.708   2.101 -0.6244  1.8338  2.0905
 3252SOL    HW210973   0.241   7.801   1.994 -0.7376  1.5278  1.8798
 3253SOL     OW10974   1.054   6.142   1.032  0.0248  0.4184  0.0096
 3253SOL    HW110975   1.134   6.101   1.067  0.1732 -0.4265 -1.2428
 3253SOL    HW210976   1.086   6.208   0.971 -0.2077 -0.4965 -1.1332
 3254SOL     OW10977   0.697   6.610   0.541 -0.2218  0.1159  0.5214
 3254SOL    HW110978   0.765   6.625   0.475  0.7300  1.3949  1.7291
 3254SOL    HW210979   0.744   6.570   0.614 -1.2945 -1.4671  0.3844
 3255SOL     OW10980   0.237   6.035   0.418 -0.3993  0.3777 -0.1915
 3255SOL    HW110981   0.290   6.074   0.488 -2.9004  2.4929  0.6545
 3255SOL    HW210982   0.170   5.984   0.463  1.6630 -3.7485 -1.2571
 3256SOL     OW10983   1.183   5.897   2.052 -0.9052 -0.5006  0.0952
 3256SOL    HW110984   1.169   5.936   2.138 -1.4544 -0.4365 -0.0203
 3256SOL    HW210985   1.139   5.812   2.056 -0.8481 -0.5420 -0.0900
 3257SOL     OW10986   1.600   6.100   1.335  0.1794  0.2106 -0.2492
 3257SOL    HW110987   1.629   6.169   1.275 -1.1679  1.2033  0.1903
 3257SOL    HW210988   1.610   6.138   1.422  0.0840 -0.4128  0.0398
 3258SOL     OW10989   0.548   6.837   8.634 -0.2897  0.1587  0.3466
 3258SOL    HW110990   0.456   6.856   8.652 -0.4189  1.1213 -1.2130
 3258SOL    HW210991   0.546   6.772   8.564  0.2066  0.6950 -0.1743
 3259SOL     OW10992   0.377   7.649   0.319 -0.1549  0.4591 -0.2805
 3259SOL    HW110993   0.382   7.672   0.412 -0.3808 -0.4324 -0.0396
 3259SOL    HW210994   0.440   7.577   0.309  0.6827  1.2686 -1.0556
 3260SOL     OW10995   0.747   6.656   0.798 -0.3018 -0.1697  0.2349
 3260SOL    HW110996   0.827   6.606   0.815  0.5815  1.6466  1.8958
 3260SOL    HW210997   0.701   6.657   0.882 -1.7422 -0.5879 -0.5202
 3261SOL     OW10998   1.110   6.725   8.628 -0.5345 -0.1222  0.0475
 3261SOL    HW110999   1.077   6.713   8.539  0.7505  2.1499 -0.8039
 3261SOL    HW211000   1.050   6.789   8.667  1.1163  1.9433 -0.6020
 3262SOL     OW11001   1.650   6.798   1.036  0.7138  0.5777  0.1365
 3262SOL    HW111002   1.729   6.759   1.074 -0.8074 -1.5127  1.4471
 3262SOL    HW211003   1.580   6.736   1.059 -1.5693  3.0547  0.3627
 3263SOL     OW11004   0.004   6.654   1.953  0.4775 -0.3474  0.2831
 3263SOL    HW111005  -0.088   6.657   1.926  0.4697 -0.9549  0.2281
 3263SOL    HW211006   0.016   6.732   2.007  0.5076  0.9326 -1.4866
 3264SOL     OW11007   8.750   7.276   1.009  0.0157  0.4170 -0.4320
 3264SOL    HW111008   8.773   7.183   1.016 -1.4931 -0.1015 -1.6028
 3264SOL    HW211009   8.747   7.307   1.099 -0.6742 -1.0123  0.0626
 3265SOL     OW11010   0.339   7.232   1.424 -0.1663  0.4651 -0.0437
 3265SOL    HW111011   0.333   7.179   1.504  1.9799  1.0012  0.5406
 3265SOL    HW211012   0.407   7.297   1.444 -0.0562  1.0264 -2.0886
 3266SOL     OW11013   2.043   5.585   0.991  0.2387  0.5771  0.5079
 3266SOL    HW111014   2.009   5.649   0.928  1.1214 -0.1169 -0.7086
 3266SOL    HW211015   1.978   5.584   1.061 -1.9740 -0.2325 -1.4217
 3267SOL     OW11016   0.290   5.754   0.568  0.3886 -0.3779 -0.0275
 3267SOL    HW111017   0.271   5.738   0.476  1.1819  0.8193 -0.4206
 3267SOL    HW211018   0.211   5.795   0.603  0.2308 -0.4784 -0.2627
 3268SOL     OW11019   1.500   7.319   1.282  0.3105  0.1808  0.1093
 3268SOL    HW111020   1.580   7.364   1.308 -0.3005  0.8908  0.8300
 3268SOL    HW211021   1.431   7.364   1.331 -0.8529  1.1314 -2.2750
 3269SOL     OW11022   0.442   6.360   1.168 -0.5135  0.1784 -0.4839
 3269SOL    HW111023   0.486   6.389   1.088  0.0514  0.1592 -0.1879
 3269SOL    HW211024   0.449   6.265   1.166 -3.1128 -0.0641 -1.8782
 3270SOL     OW11025   0.724   7.256   0.508  0.6145 -0.0355 -0.6915
 3270SOL    HW111026   0.684   7.293   0.430 -0.4106  0.5406  0.0820
 3270SOL    HW211027   0.788   7.193   0.475 -0.1348 -0.1448 -1.9742
 3271SOL     OW11028   1.391   5.734   1.072  0.5565  0.5332 -0.0607
 3271SOL    HW111029   1.424   5.821   1.050 -0.2475  0.9362  0.2843
 3271SOL    HW211030   1.352   5.702   0.990  2.1261 -0.1239 -0.5903
 3272SOL     OW11031   0.793   5.346   1.462  0.3425  0.2030 -0.0628
 3272SOL    HW111032   0.881   5.377   1.438 -0.0355  0.5173 -1.1052
 3272SOL    HW211033   0.761   5.411   1.524  0.2134  1.0171 -0.9538
 3273SOL     OW11034   0.397   6.828   0.142 -0.1396  0.2150  0.3618
 3273SOL    HW111035   0.416   6.920   0.158 -0.6559  0.2053  1.1034
 3273SOL    HW211036   0.311   6.828   0.100 -0.9666  0.0012  1.9844
 3274SOL     OW11037   0.515   7.430   1.241  0.0053 -0.5893 -0.1389
 3274SOL    HW111038   0.586   7.366   1.242  0.0044 -0.6229  2.2355
 3274SOL    HW211039   0.435   7.378   1.231 -0.0676 -1.1414  2.6329
 3275SOL     OW11040   1.507   5.636   0.616  0.1131  0.1432 -0.2511
 3275SOL    HW111041   1.582   5.666   0.564  0.7878 -0.6308  0.2474
 3275SOL    HW211042   1.467   5.567   0.563 -0.6724  1.0262 -0.8260
 3276SOL     OW11043   1.633   5.997   0.469 -0.2809 -0.2328 -0.0111
 3276SOL    HW111044   1.571   5.938   0.424  1.0403  0.0992 -2.4497
 3276SOL    HW211045   1.588   6.021   0.550 -1.3427 -3.7243  0.6362
 3277SOL     OW11046   1.285   5.831   0.600  0.0692 -0.5231 -0.6619
 3277SOL    HW111047   1.350   5.777   0.646  1.5481  1.5144 -0.2186
 3277SOL    HW211048   1.256   5.894   0.665  0.1915  0.7199 -1.7760
 3278SOL     OW11049   8.709   6.578   8.617 -0.5588 -0.7811  0.2339
 3278SOL    HW111050   8.677   6.546   8.701  0.3597 -2.3284  0.0344
 3278SOL    HW211051   8.804   6.565   8.620 -0.6047 -1.9928 -1.4389
 3279SOL     OW11052   0.557   7.416   0.274 -0.3316  0.3354  0.3129
 3279SOL    HW111053   0.604   7.452   0.199 -2.6142  3.4102  0.1784
 3279SOL    HW211054   0.509   7.341   0.238  1.0096 -0.1613 -0.5165
 3280SOL     OW11055   0.127   6.343   2.201  0.0757  0.1479  0.0233
 3280SOL    HW111056   0.148   6.436   2.209  0.6678 -0.0379  0.6169
 3280SOL    HW211057   0.127   6.327   2.106 -1.2556  1.0192 -0.1557
 3281SOL     OW11058   8.450   5.581   3.105  0.1655  0.5629  0.0312
 3281SOL    HW111059   8.457   5.490   3.074 -0.9512  1.0977 -1.9741
 3281SOL    HW211060   8.537   5.600   3.140  1.1502 -0.5865 -1.6108
 3282SOL     OW11061   0.046   5.931   2.378  0.0272 -0.1034 -0.2935
 3282SOL    HW111062  -0.008   6.001   2.415  1.3964  0.8775 -0.0632
 3282SOL    HW211063   0.116   5.919   2.442  0.3897 -0.9662 -0.8360
 3283SOL     OW11064   0.155   6.784   3.021  0.9846  0.1171  0.0990
 3283SOL    HW111065   0.120   6.726   3.089 -0.9910  1.3233  0.1851
 3283SOL    HW211066   0.246   6.757   3.011  0.4874 -2.1135  1.0446
 3284SOL     OW11067   1.911   7.027   2.480  0.4321 -0.3973  0.1344
 3284SOL    HW111068   1.932   7.120   2.468 -2.0418  0.3166  0.8675
 3284SOL    HW211069   1.864   7.002   2.401 -0.8444 -0.3834  0.8661
 3285SOL     OW11070   0.780   6.798   2.350 -0.0096 -0.1557 -0.3282
 3285SOL    HW111071   0.773   6.840   2.264  0.8031 -0.6752 -0.6615
 3285SOL    HW211072   0.743   6.711   2.337  0.7659 -0.4941 -0.3533
 3286SOL     OW11073   1.632   6.419   2.157 -0.0362 -0.2574 -0.3199
 3286SOL    HW111074   1.661   6.344   2.208 -0.5598 -0.9711 -1.0508
 3286SOL    HW211075   1.600   6.382   2.074  1.1163  0.8963 -1.3244
 3287SOL     OW11076   0.463   6.174   2.861 -0.1344  0.3274 -0.5253
 3287SOL    HW111077   0.457   6.245   2.925  2.1883  0.5125 -0.4508
 3287SOL    HW211078   0.398   6.110   2.891  0.7020  0.5012  1.9091
 3288SOL     OW11079   1.058   6.170   3.463 -0.2393  0.0225  0.6675
 3288SOL    HW111080   1.118   6.132   3.399 -1.8824  0.0197 -0.9441
 3288SOL    HW211081   0.975   6.123   3.450 -0.7795  0.4039  2.4430
 3289SOL     OW11082   0.812   6.526   1.940  0.1460  0.1823 -0.1466
 3289SOL    HW111083   0.736   6.537   1.997 -0.7025  0.1282 -1.2310
 3289SOL    HW211084   0.829   6.432   1.940 -0.9562 -0.0387 -1.3359
 3290SOL     OW11085   0.483   6.531   3.496 -0.2083 -0.0197 -0.3440
 3290SOL    HW111086   0.444   6.582   3.567 -1.7310 -0.4587 -0.8153
 3290SOL    HW211087   0.577   6.542   3.508 -0.3981 -0.2312  1.8558
 3291SOL     OW11088   0.087   6.598   2.721  0.1121 -0.9602  0.7016
 3291SOL    HW111089   0.057   6.570   2.808  0.3453 -2.3331  0.3563
 3291SOL    HW211090   0.153   6.533   2.696  0.1105 -0.5307 -0.4656
 3292SOL     OW11091   1.325   7.021   3.376 -0.3751  0.1902 -0.3420
 3292SOL    HW111092   1.387   7.026   3.304  1.0686 -0.2363  0.8156
 3292SOL    HW211093   1.240   7.006   3.334  0.5106 -0.6860 -1.8957
 3293SOL     OW11094   0.351   5.655   3.102 -0.3262  0.4351 -0.3822
 3293SOL    HW111095   0.384   5.695   3.183  0.0339 -1.2268  0.3368
 3293SOL    HW211096   0.256   5.649   3.116 -0.1927 -0.4756  0.2473
 3294SOL     OW11097   1.509   5.555   2.442  0.2074 -0.3419 -0.5130
 3294SOL    HW111098   1.486   5.563   2.535 -0.5458  0.6346 -0.7684
 3294SOL    HW211099   1.583   5.615   2.431 -1.0808  1.2201 -0.9796
 3295SOL     OW11100   0.553   7.218   2.369  0.4453 -0.1058  0.3190
 3295SOL    HW111101   0.468   7.178   2.349  0.3489 -0.3287  1.1434
 3295SOL    HW211102   0.552   7.301   2.321 -1.0989  0.8590  1.9023
 3296SOL     OW11103   0.800   7.106   3.575 -0.1181  0.2252 -0.9811
 3296SOL    HW111104   0.764   7.045   3.511 -0.7593  0.4173 -0.8119
 3296SOL    HW211105   0.784   7.192   3.538  0.9290  0.2969 -1.2926
 3297SOL     OW11106   0.488   7.056   2.590  0.1933 -0.5247  0.4405
 3297SOL    HW111107   0.573   7.018   2.613 -0.1833 -1.7746 -0.1459
 3297SOL    HW211108   0.505   7.104   2.509  0.5077 -0.0943  0.7585
 3298SOL     OW11109   8.627   6.599   2.732 -0.9347 -0.1371  0.2767
 3298SOL    HW111110   8.665   6.513   2.748  1.8479  1.0471  0.4845
 3298SOL    HW211111   8.575   6.617   2.810  0.8490 -0.4259  1.5864
 3299SOL     OW11112   0.265   7.617   3.164 -0.7200 -0.0847 -0.0148
 3299SOL    HW111113   0.266   7.536   3.114  2.3178 -0.4619  0.4719
 3299SOL    HW211114   0.243   7.591   3.253 -1.5896 -0.0701 -0.2156
 3300SOL     OW11115   0.878   6.283   2.169 -0.6157  0.0285  0.2609
 3300SOL    HW111116   0.789   6.249   2.159 -0.5272 -0.3778  0.7687
 3300SOL    HW211117   0.889   6.290   2.264 -0.4086  0.8974  0.1750
 3301SOL     OW11118   1.263   6.028   3.328  0.5071  0.5823  0.0022
 3301SOL    HW111119   1.316   5.984   3.394  1.4410  2.1375  0.3232
 3301SOL    HW211120   1.287   5.985   3.246  0.1944 -0.5744  0.4987
 3302SOL     OW11121   8.390   6.487   2.356 -0.8149 -0.0779  0.0425
 3302SOL    HW111122   8.483   6.505   2.363 -1.0191  0.6363  1.4320
 3302SOL    HW211123   8.380   6.397   2.387 -0.5561 -0.2885 -0.4718
 3303SOL     OW11124   1.905   7.026   1.993 -0.1614  0.2020 -0.0961
 3303SOL    HW111125   1.930   6.985   2.075  0.8497  0.0553 -0.4600
 3303SOL    HW211126   1.843   6.965   1.953  1.1368 -0.9011 -0.5217
 3304SOL     OW11127   0.390   7.375   1.895 -0.1780 -0.0105 -0.4180
 3304SOL    HW111128   0.375   7.292   1.939 -0.7776  0.6480  0.6502
 3304SOL    HW211129   0.482   7.394   1.909 -0.1367 -0.2863 -0.3164
 3305SOL     OW11130   1.813   6.644   2.439 -0.1914 -0.1688 -0.3603
 3305SOL    HW111131   1.892   6.622   2.389 -1.0270 -2.1246 -0.9184
 3305SOL    HW211132   1.742   6.635   2.376 -1.1771 -1.6732  0.9002
 3306SOL     OW11133   1.754   6.948   2.278 -0.4470  0.4699  0.4751
 3306SOL    HW111134   1.765   6.855   2.257  1.2222  0.3493  1.7199
 3306SOL    HW211135   1.659   6.960   2.283 -0.7364 -0.8788 -0.8604
 3307SOL     OW11136   0.192   6.063   3.225 -0.2329 -0.0818  0.3821
 3307SOL    HW111137   0.186   5.984   3.280 -1.5332 -0.1208  0.1933
 3307SOL    HW211138   0.261   6.115   3.267 -0.8309 -0.3546  1.7526
 3308SOL     OW11139   0.485   6.566   2.646  0.2260 -0.5645  0.0103
 3308SOL    HW111140   0.579   6.568   2.661  0.2914 -1.1591 -0.3051
 3308SOL    HW211141   0.469   6.639   2.586  0.8919 -2.0530 -2.0903
 3309SOL     OW11142   0.744   6.674   3.226 -0.9181 -0.4611  0.1229
 3309SOL    HW111143   0.739   6.650   3.134  0.3033  0.6552 -0.2718
 3309SOL    HW211144   0.836   6.665   3.248 -1.0728  0.0422  1.0107
 3310SOL     OW11145   0.844   5.868   2.312 -0.2319  0.1951 -0.7335
 3310SOL    HW111146   0.785   5.914   2.371 -0.4405 -0.9671 -0.0161
 3310SOL    HW211147   0.909   5.934   2.288 -0.2883  0.7700  0.5865
 3311SOL     OW11148   0.001   6.213   3.019 -0.2511  0.0387 -0.2904
 3311SOL    HW111149   0.054   6.224   3.098 -1.7162  2.3279  0.4608
 3311SOL    HW211150  -0.039   6.126   3.029  0.0372  0.0477  1.2140
 3312SOL     OW11151   1.273   6.375   2.158 -0.0647 -0.1592 -0.6204
 3312SOL    HW111152   1.358   6.370   2.201 -0.0807  1.3559 -0.3464
 3312SOL    HW211153   1.276   6.307   2.091  1.7713  0.4936 -1.2756
 3313SOL     OW11154   1.142   7.545   3.688  0.4524 -0.6852 -0.5143
 3313SOL    HW111155   1.123   7.454   3.711 -0.2182 -0.9714 -2.0701
 3313SOL    HW211156   1.074   7.596   3.732  0.5217 -0.9820 -0.0570
 3314SOL     OW11157   0.574   5.762   3.653  0.2533 -0.2965  0.1569
 3314SOL    HW111158   0.499   5.772   3.712 -0.1774 -0.5888 -0.3348
 3314SOL    HW211159   0.638   5.713   3.704 -0.2047 -0.7421  0.3048
 3315SOL     OW11160   1.478   6.919   2.205 -0.4047 -0.1386 -0.2475
 3315SOL    HW111161   1.466   6.827   2.184  0.3243 -0.3412  0.1899
 3315SOL    HW211162   1.405   6.941   2.262 -0.9804 -0.2499 -0.9321
 3316SOL     OW11163   2.162   7.082   1.869 -0.0200 -0.3457 -0.6330
 3316SOL    HW111164   2.070   7.066   1.892 -0.2098 -0.5760 -1.5086
 3316SOL    HW211165   2.186   7.161   1.917 -0.6632 -0.3127 -0.3618
 3317SOL     OW11166   0.412   5.987   2.011 -0.2536 -0.2313  0.0431
 3317SOL    HW111167   0.348   5.940   2.064 -2.0770  0.9392 -1.0105
 3317SOL    HW211168   0.385   5.971   1.921  0.9823  0.2523 -0.4398
 3318SOL     OW11169   1.240   5.749   2.643  0.2879  0.2422  0.6979
 3318SOL    HW111170   1.173   5.696   2.687  0.1052  0.9071  1.2455
 3318SOL    HW211171   1.320   5.697   2.647 -0.3542 -0.9157 -0.6680
 3319SOL     OW11172   1.658   6.847   1.949  0.0010  0.0507  0.0383
 3319SOL    HW111173   1.603   6.924   1.936  0.8563  0.6147 -0.3155
 3319SOL    HW211174   1.626   6.784   1.884  0.0614  0.5379 -0.4739
 3320SOL     OW11175   0.440   6.198   3.314 -0.2320  0.6140 -0.7946
 3320SOL    HW111176   0.410   6.282   3.279  0.5006  1.4132  0.3862
 3320SOL    HW211177   0.426   6.205   3.409 -2.7815 -1.7275 -0.8904
 3321SOL     OW11178   1.820   5.863   3.570  0.4001  0.1750 -0.2538
 3321SOL    HW111179   1.859   5.837   3.653 -1.7123 -0.3993  0.6176
 3321SOL    HW211180   1.726   5.847   3.581 -0.0304  0.7877 -2.4918
 3322SOL     OW11181   0.792   6.427   3.402 -0.2488  0.0945  0.5346
 3322SOL    HW111182   0.782   6.522   3.404 -1.8073  0.0594 -1.5074
 3322SOL    HW211183   0.852   6.411   3.329  1.2342 -0.4701  1.8286
 3323SOL     OW11184   0.794   6.035   3.041 -0.3081 -0.3832  0.3778
 3323SOL    HW111185   0.761   5.995   2.961  0.6067 -1.5058  0.5323
 3323SOL    HW211186   0.724   6.023   3.105 -2.1489  2.8332 -0.8430
 3324SOL     OW11187   1.164   6.196   2.529  0.0685  0.0247 -0.2688
 3324SOL    HW111188   1.230   6.131   2.550  0.1186  0.6963  1.9676
 3324SOL    HW211189   1.202   6.279   2.560 -0.3585  1.0187 -2.2275
 3325SOL     OW11190   0.120   6.755   2.511 -0.0635 -0.0000 -0.6617
 3325SOL    HW111191   0.104   6.710   2.594  2.1639  2.4921  1.3014
 3325SOL    HW211192   0.077   6.840   2.522  0.5176  0.4870 -1.9642
 3326SOL     OW11193   8.686   7.891   3.415  0.3534 -0.5953  0.5356
 3326SOL    HW111194   8.681   7.797   3.396  1.1844 -0.5513  0.0651
 3326SOL    HW211195   8.770   7.902   3.460  1.1040  0.1724 -0.9710
 3327SOL     OW11196   0.896   6.186   2.461  0.3241  0.0356  0.3577
 3327SOL    HW111197   0.991   6.172   2.470  0.0898 -2.1163  0.1665
 3327SOL    HW211198   0.857   6.112   2.508 -1.2539  0.3732 -0.3477
 3328SOL     OW11199   1.845   6.014   3.809 -0.1212 -0.1524 -0.3715
 3328SOL    HW111200   1.798   5.999   3.891  1.1812  2.0158  0.8768
 3328SOL    HW211201   1.864   6.108   3.810  2.9910 -0.6526 -1.4403
 3329SOL     OW11202   1.433   6.727   2.572 -0.1980 -0.3017  0.1467
 3329SOL    HW111203   1.458   6.661   2.507 -1.0772  0.6910 -1.2536
 3329SOL    HW211204   1.502   6.794   2.565 -0.3549 -0.1382  0.1632
 3330SOL     OW11205   0.739   5.863   2.836  0.1060  0.3193  0.1164
 3330SOL    HW111206   0.766   5.777   2.869 -0.2700  0.2121  0.1442
 3330SOL    HW211207   0.802   5.881   2.766 -0.1750 -0.2541 -0.2981
 3331SOL     OW11208   1.231   7.531   2.223 -0.3028 -0.1240  0.7660
 3331SOL    HW111209   1.165   7.472   2.259 -0.6333 -0.2828 -0.0694
 3331SOL    HW211210   1.311   7.479   2.221 -0.2869 -0.1211  1.2401
 3332SOL     OW11211   0.590   7.575   2.922 -0.0455  0.0732 -0.1265
 3332SOL    HW111212   0.606   7.551   3.013 -1.0767  0.2440  0.1113
 3332SOL    HW211213   0.548   7.661   2.926 -1.4300 -0.5412 -0.6621
 3333SOL     OW11214   1.677   6.882   2.558 -0.8009 -0.1945 -0.3287
 3333SOL    HW111215   1.728   6.962   2.548 -0.2272 -0.4806  0.2225
 3333SOL    HW211216   1.737   6.812   2.534 -1.0021 -0.5186  0.0882
 3334SOL     OW11217   1.450   7.040   3.612  0.0284  0.3515  0.5887
 3334SOL    HW111218   1.411   7.026   3.525 -1.7302  1.0514  1.2222
 3334SOL    HW211219   1.410   6.972   3.667 -0.0271  0.8477  1.1730
 3335SOL     OW11220   0.118   7.015   1.764 -0.2155  0.4145  0.2801
 3335SOL    HW111221   0.108   6.925   1.734 -1.6831  1.1634 -1.6914
 3335SOL    HW211222   0.080   7.015   1.852 -0.8112 -0.7605  0.0539
 3336SOL     OW11223   1.338   6.087   2.847 -0.5019  0.6255  0.2146
 3336SOL    HW111224   1.395   6.132   2.785  0.0077 -1.1908 -0.6742
 3336SOL    HW211225   1.326   6.151   2.918  1.6656  1.5024 -0.1166
 3337SOL     OW11226   0.251   6.558   3.681  0.0669  0.2366  0.2836
 3337SOL    HW111227   0.231   6.641   3.725 -1.6602  0.1905 -0.3405
 3337SOL    HW211228   0.236   6.491   3.748 -0.0376  0.3307  0.3551
 3338SOL     OW11229   1.116   7.222   1.767  0.2705  0.2235 -0.2979
 3338SOL    HW111230   1.132   7.149   1.827  0.0236  1.0585  0.8259
 3338SOL    HW211231   1.194   7.225   1.711  1.8773  1.1413  1.8269
 3339SOL     OW11232   0.070   5.603   3.153  0.8044  0.2371  0.3732
 3339SOL    HW111233   0.020   5.629   3.075  2.1233  3.1482  0.3605
 3339SOL    HW211234   0.069   5.507   3.151 -1.4572  0.1969 -1.7149
 3340SOL     OW11235   1.345   6.758   1.825  0.1743  0.0346 -0.3542
 3340SOL    HW111236   1.420   6.774   1.767 -1.5433  1.6463 -2.2698
 3340SOL    HW211237   1.289   6.698   1.776  0.1611 -1.1693  1.0613
 3341SOL     OW11238   0.583   7.463   2.236  0.5408  0.0418  0.1320
 3341SOL    HW111239   0.531   7.522   2.291 -0.7140 -0.3304 -0.6114
 3341SOL    HW211240   0.619   7.521   2.168  1.4526  0.3698  0.8795
 3342SOL     OW11241   1.363   6.029   2.556 -0.0807 -0.1645 -0.4273
 3342SOL    HW111242   1.373   5.961   2.490 -0.5839 -0.6244 -0.0470
 3342SOL    HW211243   1.378   5.983   2.639 -0.6787  0.1278 -0.1520
 3343SOL     OW11244   0.106   6.932   2.762  0.0249  0.0257 -0.2966
 3343SOL    HW111245   0.094   6.883   2.844 -0.1082  1.3508  0.5093
 3343SOL    HW211246   0.020   6.930   2.720 -0.7414  1.8567  1.0732
 3344SOL     OW11247   1.360   7.356   2.634 -0.1879 -0.2900  0.7289
 3344SOL    HW111248   1.408   7.345   2.716 -0.7566 -3.1206  0.7501
 3344SOL    HW211249   1.283   7.407   2.658  0.6731  0.7111  1.4961
 3345SOL     OW11250   0.063   6.088   1.715 -0.9685 -0.2334 -0.6504
 3345SOL    HW111251   0.006   6.018   1.746 -1.1398  0.5609  0.8908
 3345SOL    HW211252   0.027   6.167   1.753  0.1018  0.5119 -1.1440
 3346SOL     OW11253   1.797   5.679   3.342 -0.3716  0.4043 -0.0284
 3346SOL    HW111254   1.810   5.745   3.410 -0.7788  0.6077 -0.1476
 3346SOL    HW211255   1.723   5.627   3.372 -0.1446  0.0884 -0.0053
 3347SOL     OW11256   0.691   5.486   1.904 -0.7265 -0.3609 -0.0341
 3347SOL    HW111257   0.611   5.510   1.951 -1.2667 -0.4129 -0.9151
 3347SOL    HW211258   0.760   5.538   1.946 -1.2883 -0.0163  0.4687
 3348SOL     OW11259   0.973   5.640   3.645 -0.0747 -0.0725  0.0212
 3348SOL    HW111260   0.951   5.697   3.571  1.1779  0.8268  0.3139
 3348SOL    HW211261   0.888   5.607   3.675 -0.6931  0.3645 -1.1507
 3349SOL     OW11262   0.783   7.082   3.014 -0.5674  0.2922  0.2205
 3349SOL    HW111263   0.854   7.098   2.952  0.5083 -0.7931  1.1156
 3349SOL    HW211264   0.720   7.030   2.965  0.8169 -1.5853  0.3007
 3350SOL     OW11265   1.441   6.309   3.321 -0.5384  0.4695 -0.0717
 3350SOL    HW111266   1.351   6.276   3.321 -0.8525  1.2449 -1.1842
 3350SOL    HW211267   1.448   6.358   3.239  0.2401  2.1541  0.9435
 3351SOL     OW11268   0.732   6.699   2.683  0.1874 -0.3667 -0.5149
 3351SOL    HW111269   0.720   6.788   2.649  1.0129 -0.5695 -1.3564
 3351SOL    HW211270   0.818   6.672   2.651  0.1629 -1.2828  0.1608
 3352SOL     OW11271   0.551   5.830   2.328 -1.3011  0.4969  0.2114
 3352SOL    HW111272   0.512   5.770   2.391  0.2846  0.7526  1.4817
 3352SOL    HW211273   0.561   5.778   2.248 -2.5428 -0.0714  0.3978
 3353SOL     OW11274   0.486   5.599   2.035 -0.3466 -0.3989  0.4193
 3353SOL    HW111275   0.430   5.583   2.111 -2.0468  1.4444 -0.3446
 3353SOL    HW211276   0.424   5.620   1.964  1.2760  0.9868 -0.6592
 3354SOL     OW11277   1.207   6.908   1.559  0.2862  0.0784  0.0059
 3354SOL    HW111278   1.260   6.830   1.541  1.5558  1.2753 -1.6821
 3354SOL    HW211279   1.146   6.880   1.628  0.3571 -2.5446 -0.9018
 3355SOL     OW11280   0.096   5.302   1.988 -0.1881  0.5023  0.3549
 3355SOL    HW111281   0.068   5.271   2.074  0.9679  0.9183  0.8985
 3355SOL    HW211282   0.132   5.225   1.944 -2.4968 -0.1612 -0.5491
 3356SOL     OW11283   0.777   5.944   2.579 -0.0647 -0.0987  0.2693
 3356SOL    HW111284   0.771   5.853   2.606 -0.9344  0.4040  1.9952
 3356SOL    HW211285   0.687   5.969   2.559  0.2484  0.2322 -0.7548
 3357SOL     OW11286   1.015   5.916   3.136 -0.3333  0.7232 -0.1293
 3357SOL    HW111287   1.031   5.830   3.096 -1.3246 -0.4434  1.7993
 3357SOL    HW211288   0.937   5.949   3.092  1.8729  2.3033 -3.2474
 3358SOL     OW11289   1.177   7.251   2.927 -0.0004 -0.3839  0.3100
 3358SOL    HW111290   1.118   7.254   2.851 -0.4545  0.8263  0.6743
 3358SOL    HW211291   1.145   7.178   2.979 -2.5231  1.3550  1.4651
 3359SOL     OW11292   0.390   6.790   2.528 -0.1725 -0.0963  0.0077
 3359SOL    HW111293   0.295   6.783   2.533 -0.2817  0.9879 -0.2447
 3359SOL    HW211294   0.410   6.876   2.567  0.6822 -0.2136 -0.1390
 3360SOL     OW11295   1.335   7.741   2.470 -0.1375  0.3773 -0.7099
 3360SOL    HW111296   1.300   7.687   2.400 -0.9623 -0.9691  0.6766
 3360SOL    HW211297   1.425   7.710   2.482 -0.8444 -1.3165  0.5950
 3361SOL     OW11298   1.356   6.192   1.981  0.2814  0.3828  0.2400
 3361SOL    HW111299   1.388   6.109   2.018 -1.1591 -0.4321 -0.2410
 3361SOL    HW211300   1.290   6.165   1.917 -0.1397  1.9205 -0.0078
 3362SOL     OW11301   8.716   5.930   3.061 -0.0202  0.1050  0.1417
 3362SOL    HW111302   8.700   5.902   3.151 -4.0050  0.3062 -0.3244
 3362SOL    HW211303   8.729   5.849   3.012 -1.9502 -0.3415  0.3101
 3363SOL     OW11304   0.512   5.967   2.678  0.6770 -0.3223  0.1584
 3363SOL    HW111305   0.574   5.920   2.733  3.2595  1.3511 -1.1485
 3363SOL    HW211306   0.482   6.040   2.732  0.6711 -0.5127  0.4163
 3364SOL     OW11307   0.241   5.894   2.569 -0.3119 -0.4050 -0.4020
 3364SOL    HW111308   0.320   5.947   2.579 -1.7632  1.9974 -0.8193
 3364SOL    HW211309   0.216   5.870   2.658  1.3794 -2.1063 -0.3144
 3365SOL     OW11310   0.753   5.674   2.615 -0.3216  0.0619  0.4277
 3365SOL    HW111311   0.750   5.624   2.534  1.7323  0.0328  0.3338
 3365SOL    HW211312   0.678   5.641   2.666 -0.6615 -1.0875 -0.7582
 3366SOL     OW11313   1.526   6.597   2.789 -0.3824 -0.1897  0.4005
 3366SOL    HW111314   1.506   6.647   2.710 -1.5418 -1.2086  0.0155
 3366SOL    HW211315   1.619   6.574   2.779 -0.3423  0.2465 -0.3433
 3367SOL     OW11316   1.068   6.198   3.064 -0.3505  0.4272 -0.0767
 3367SOL    HW111317   1.059   6.166   2.974 -2.6847  0.9871 -0.1207
 3367SOL    HW211318   1.048   6.122   3.118 -1.7287  0.7311 -0.1168
 3368SOL     OW11319   1.961   6.348   2.160  0.3209 -0.0271  0.2076
 3368SOL    HW111320   2.026   6.406   2.198  0.5844 -0.0848 -0.1466
 3368SOL    HW211321   1.899   6.332   2.231  1.0727 -0.5436  0.7657
 3369SOL     OW11322   0.567   6.890   2.089 -0.5391  0.0466 -0.0016
 3369SOL    HW111323   0.643   6.907   2.033 -1.4063  1.2675 -0.8711
 3369SOL    HW211324   0.522   6.817   2.047 -0.3241 -0.0905  0.0071
 3370SOL     OW11325   1.751   6.693   2.148  0.0828  1.0816 -0.5297
 3370SOL    HW111326   1.719   6.604   2.135  1.5998  0.3243  0.6124
 3370SOL    HW211327   1.694   6.747   2.094 -1.4168 -0.4763 -0.5893
 3371SOL     OW11328   1.122   5.676   2.387 -0.7552  0.2033 -0.0267
 3371SOL    HW111329   1.047   5.627   2.420 -0.9610 -0.0361 -0.8306
 3371SOL    HW211330   1.183   5.679   2.461 -1.0700 -0.5918  0.2810
 3372SOL     OW11331   0.299   5.930   1.759  0.0230 -0.1433  0.4303
 3372SOL    HW111332   0.352   5.956   1.683 -0.6066  0.2938  0.1385
 3372SOL    HW211333   0.218   5.980   1.750 -0.6609 -1.1946  0.5898
 3373SOL     OW11334   1.848   6.922   3.183 -0.2442 -0.0168 -0.5292
 3373SOL    HW111335   1.911   6.863   3.223  0.8427  0.2309 -1.8235
 3373SOL    HW211336   1.777   6.928   3.248 -0.3129 -2.5415 -0.2441
 3374SOL     OW11337   1.380   6.872   2.889 -0.2681 -0.2528  0.5262
 3374SOL    HW111338   1.292   6.834   2.893 -0.4233  0.1754  1.2909
 3374SOL    HW211339   1.435   6.799   2.861 -0.7281 -0.7777  0.9397
 3375SOL     OW11340   1.582   7.344   3.424  0.5197  0.1731  0.3354
 3375SOL    HW111341   1.573   7.306   3.512 -1.2949 -0.1256  0.0643
 3375SOL    HW211342   1.639   7.283   3.378  0.0310 -0.6646  0.7951
 3376SOL     OW11343   1.129   6.772   2.903  0.5328  0.1825 -0.2231
 3376SOL    HW111344   1.109   6.681   2.927 -1.5963  0.1497 -1.8028
 3376SOL    HW211345   1.079   6.787   2.823 -0.2891  3.1752  0.7286
 3377SOL     OW11346   1.445   6.453   3.107  0.1997 -0.3514  0.8098
 3377SOL    HW111347   1.469   6.524   3.166 -0.1057  1.4462 -1.0855
 3377SOL    HW211348   1.488   6.476   3.024 -0.3626 -2.1057 -0.0140
 3378SOL     OW11349   0.742   5.677   3.372 -0.0534 -0.1831 -0.3761
 3378SOL    HW111350   0.805   5.748   3.360 -0.6548  0.2574 -0.9850
 3378SOL    HW211351   0.658   5.721   3.387 -0.2860 -0.7628  0.0806
 3379SOL     OW11352   0.567   6.847   3.351 -0.4767  0.0189 -0.1952
 3379SOL    HW111353   0.551   6.825   3.443 -0.5164  1.1951  0.0874
 3379SOL    HW211354   0.623   6.776   3.319 -0.1078 -0.1753  0.8528
 3380SOL     OW11355   0.846   6.626   1.689 -0.1261  0.1666 -0.3272
 3380SOL    HW111356   0.813   6.585   1.769  0.1291  0.1531 -0.2247
 3380SOL    HW211357   0.800   6.709   1.684 -0.5421 -0.0678 -0.4591
 3381SOL     OW11358   0.255   6.040   2.958 -0.0254  0.6420 -0.0462
 3381SOL    HW111359   0.228   6.056   3.048 -0.0912 -0.0957  0.0694
 3381SOL    HW211360   0.220   5.953   2.937  0.2801  0.6617 -0.6659
 3382SOL     OW11361   1.000   5.672   3.009  0.6379  0.1615 -0.4904
 3382SOL    HW111362   1.024   5.646   2.920  1.5472 -0.2200 -0.1535
 3382SOL    HW211363   1.054   5.615   3.065 -0.6096 -0.2605  0.3165
 3383SOL     OW11364   8.154   7.027   3.340  0.3282  0.0533 -0.2685
 3383SOL    HW111365   8.108   7.044   3.258  2.6160 -0.3180 -1.7136
 3383SOL    HW211366   8.247   7.022   3.316  1.7668  4.4776  2.9663
 3384SOL     OW11367   0.421   6.696   1.930 -0.0515  0.1206 -0.6076
 3384SOL    HW111368   0.463   6.615   1.959  2.5984  1.0301 -1.6017
 3384SOL    HW211369   0.422   6.692   1.834 -2.2790  0.2314 -0.6871
 3385SOL     OW11370   0.632   6.113   2.163 -0.3595 -0.2277 -0.2543
 3385SOL    HW111371   0.587   6.112   2.247  1.1940 -0.6563  0.6119
 3385SOL    HW211372   0.570   6.073   2.102 -1.9882  1.1923  0.3985
 3386SOL     OW11373   1.081   7.012   2.097  0.2362  0.1842 -0.2721
 3386SOL    HW111374   1.046   6.927   2.070 -0.8881  0.6511 -0.3261
 3386SOL    HW211375   1.161   7.022   2.045  0.4457 -0.8857 -0.1816
 3387SOL     OW11376   1.323   7.053   2.410 -0.0508  0.0472 -0.5987
 3387SOL    HW111377   1.362   7.045   2.497 -0.5427 -1.5096 -0.4919
 3387SOL    HW211378   1.232   7.025   2.422 -1.0113  2.6882 -1.0317
 3388SOL     OW11379   1.432   6.301   2.481  0.1994  0.0367 -0.9787
 3388SOL    HW111380   1.455   6.315   2.573  3.8740 -0.2800 -1.6920
 3388SOL    HW211381   1.401   6.210   2.478  0.3091 -0.0389 -0.0837
 3389SOL     OW11382   0.080   6.965   3.262  0.0017  0.2428  0.2296
 3389SOL    HW111383   0.134   6.896   3.222 -0.6903  0.6830 -1.5462
 3389SOL    HW211384  -0.000   6.920   3.288  0.1813  0.0834  0.5145
 3390SOL     OW11385   0.718   6.238   3.566 -0.1829 -0.5463 -0.1187
 3390SOL    HW111386   0.623   6.228   3.571 -0.2449 -0.6283 -1.2055
 3390SOL    HW211387   0.731   6.312   3.507  0.4275 -0.1349  0.5182
 3391SOL     OW11388   2.094   6.361   3.695  0.3382  0.3614 -0.4253
 3391SOL    HW111389   2.078   6.425   3.765  2.1189  0.4458 -0.0394
 3391SOL    HW211390   2.007   6.338   3.662 -0.5991 -0.0812  2.1685
 3392SOL     OW11391   1.325   5.442   3.529  0.1040  0.6342  0.0913
 3392SOL    HW111392   1.248   5.434   3.473  0.5411  0.1655 -0.4504
 3392SOL    HW211393   1.313   5.525   3.574 -1.3692 -0.0330  0.9999
 3393SOL     OW11394   0.540   5.680   3.983  0.3929  0.5719  0.5147
 3393SOL    HW111395   0.460   5.644   4.024 -0.1232 -0.9863 -1.6657
 3393SOL    HW211396   0.508   5.747   3.923  0.5010 -0.9610 -1.3524
 3394SOL     OW11397   0.438   6.299   2.634  0.3306 -0.1439 -0.0037
 3394SOL    HW111398   0.453   6.266   2.722  1.5334 -1.3232 -0.6206
 3394SOL    HW211399   0.467   6.390   2.637  1.0726 -0.3943  0.6279
 3395SOL     OW11400   0.965   6.425   2.846  0.2662  0.0474 -0.1772
 3395SOL    HW111401   1.038   6.364   2.849  0.8974  0.7239 -1.2812
 3395SOL    HW211402   0.888   6.372   2.868  1.0333 -0.7267  0.7437
 3396SOL     OW11403   1.057   6.110   1.959  0.6175 -0.2686  0.2318
 3396SOL    HW111404   1.049   6.157   2.042  1.6014 -0.0081  0.1800
 3396SOL    HW211405   1.102   6.028   1.982 -0.4157 -0.8749  0.1917
 3397SOL     OW11406   0.187   5.797   2.841  0.6544  0.1853 -0.0466
 3397SOL    HW111407   0.131   5.746   2.783  0.7474 -0.2024  0.1944
 3397SOL    HW211408   0.228   5.731   2.898 -0.1610  0.6157  1.0904
 3398SOL     OW11409   8.266   6.577   3.347  0.1781 -0.0918  0.4307
 3398SOL    HW111410   8.175   6.603   3.362  0.3613  0.1315  1.2004
 3398SOL    HW211411   8.281   6.505   3.409 -0.7137 -3.0747 -2.4828
 3399SOL     OW11412   0.705   6.374   2.485  0.0691 -0.0329  0.2781
 3399SOL    HW111413   0.782   6.319   2.476  0.8541  1.1186 -0.3127
 3399SOL    HW211414   0.633   6.312   2.498  0.9672 -1.1681  0.0516
 3400SOL     OW11415   1.870   6.707   3.632 -0.3097  0.3410 -0.3178
 3400SOL    HW111416   1.807   6.659   3.579 -0.1543 -1.1677  0.8025
 3400SOL    HW211417   1.821   6.784   3.663 -0.6838  0.7309 -1.7858
 3401SOL     OW11418   0.062   5.610   2.688  0.2359  0.1185  0.1507
 3401SOL    HW111419  -0.026   5.628   2.654 -0.8122 -0.6132  2.2755
 3401SOL    HW211420   0.117   5.602   2.610 -1.5226  0.8517 -1.2273
 3402SOL     OW11421   1.743   5.982   2.538  0.5681 -0.2003  0.2823
 3402SOL    HW111422   1.690   6.061   2.526 -0.1399 -0.5592  0.9645
 3402SOL    HW211423   1.723   5.953   2.627  1.2762 -0.8203  0.2498
 3403SOL     OW11424   1.079   6.137   2.803  0.3336  0.1060 -0.1346
 3403SOL    HW111425   1.148   6.071   2.805 -0.5040 -0.8464 -1.2713
 3403SOL    HW211426   1.084   6.175   2.716 -1.2007 -0.6946 -0.6051
 3404SOL     OW11427   1.039   6.947   3.340  0.1174 -0.0670 -0.3869
 3404SOL    HW111428   0.950   6.978   3.354  0.7027  2.2928 -1.2572
 3404SOL    HW211429   1.060   6.973   3.250  1.6140 -0.7226 -0.2629
 3405SOL     OW11430   1.666   7.211   3.127 -0.1139 -0.2409  0.7829
 3405SOL    HW111431   1.762   7.210   3.125 -0.1107 -1.3541  1.1034
 3405SOL    HW211432   1.643   7.297   3.091  0.9699 -0.4488 -0.5237
 3406SOL     OW11433   0.343   6.443   3.254 -0.2713  0.0815  0.1286
 3406SOL    HW111434   0.395   6.470   3.329  0.0436 -0.5129  0.1343
 3406SOL    HW211435   0.253   6.455   3.281 -0.1508  1.5697 -0.0447
 3407SOL     OW11436   1.278   5.815   1.447 -0.0089  0.4465  0.8391
 3407SOL    HW111437   1.190   5.853   1.453 -0.8220 -0.9628 -0.9080
 3407SOL    HW211438   1.307   5.806   1.538 -2.7234 -1.2636  1.6644
 3408SOL     OW11439   1.163   6.591   1.686  0.2181  0.3574 -0.0014
 3408SOL    HW111440   1.075   6.621   1.661  0.0279 -0.2205 -0.0459
 3408SOL    HW211441   1.156   6.496   1.686  1.6157  0.1450 -2.8474
 3409SOL     OW11442   0.990   7.177   2.685  0.2266 -0.0514  0.3082
 3409SOL    HW111443   0.912   7.212   2.642  0.2520  1.9468  1.7634
 3409SOL    HW211444   1.049   7.154   2.613 -0.3330  1.7151 -0.7818
 3410SOL     OW11445   0.179   6.390   2.508 -0.5382 -0.5270  0.1484
 3410SOL    HW111446   0.211   6.379   2.418 -0.9752 -0.3265 -0.0327
 3410SOL    HW211447   0.258   6.393   2.561 -0.2723 -0.5201 -0.2439
 3411SOL     OW11448   0.105   6.158   2.763  0.6304  0.2640  0.2573
 3411SOL    HW111449   0.071   6.198   2.844 -0.3265  0.1726 -0.0876
 3411SOL    HW211450   0.173   6.097   2.794 -0.3077 -0.4130  1.0910
 3412SOL     OW11451   0.983   5.841   3.447  0.5786 -0.1543  0.6420
 3412SOL    HW111452   1.056   5.850   3.386 -0.2466 -0.3828 -0.4054
 3412SOL    HW211453   0.929   5.918   3.431 -0.2173 -0.7836  0.3002
 3413SOL     OW11454   1.475   5.900   3.458  0.1244  0.0778  0.5006
 3413SOL    HW111455   1.525   5.928   3.535  1.3727 -0.6681 -0.0115
 3413SOL    HW211456   1.539   5.899   3.387 -0.8020 -0.1604 -0.3484
 3414SOL     OW11457   0.354   6.819   2.263 -0.1490 -0.2190 -0.4516
 3414SOL    HW111458   0.443   6.839   2.233 -0.5354 -1.3413 -2.4984
 3414SOL    HW211459   0.367   6.779   2.349  1.4434 -1.3643 -1.1656
 3415SOL     OW11460   0.784   7.241   2.509  0.1891  0.1742  0.4378
 3415SOL    HW111461   0.697   7.237   2.469  0.2397  0.0820  0.3355
 3415SOL    HW211462   0.817   7.327   2.484  1.3405 -0.9095 -2.0897
 3416SOL     OW11463   0.710   7.350   3.069 -0.4178  0.5074 -0.0514
 3416SOL    HW111464   0.748   7.265   3.047 -0.2435  0.7910 -0.8661
 3416SOL    HW211465   0.775   7.414   3.041  0.1853  0.8871  2.0093
 3417SOL     OW11466   0.739   6.287   2.936 -0.2939  0.1682  0.0216
 3417SOL    HW111467   0.781   6.210   2.976  1.6559  0.5628 -1.1455
 3417SOL    HW211468   0.677   6.250   2.874 -1.2261 -0.4340  1.2586
 3418SOL     OW11469   8.739   6.378   2.460  0.1335 -0.1165  0.4024
 3418SOL    HW111470   8.717   6.311   2.524  0.9435 -0.5056  0.2847
 3418SOL    HW211471   8.830   6.401   2.480  0.1125  0.3822 -0.0551
 3419SOL     OW11472   0.157   5.780   3.349  0.4444 -0.0925 -0.3006
 3419SOL    HW111473   0.148   5.733   3.432 -0.7563 -0.3591 -0.5675
 3419SOL    HW211474   0.092   5.740   3.291  1.4265 -0.0683 -1.4475
 3420SOL     OW11475   1.649   6.866   3.395 -0.4300  0.3317 -0.4453
 3420SOL    HW111476   1.565   6.912   3.400  0.0376  1.1780 -0.2606
 3420SOL    HW211477   1.689   6.879   3.481  0.8165  1.7345 -1.2112
 3421SOL     OW11478   0.662   5.955   1.837 -0.4516 -0.6214 -0.0168
 3421SOL    HW111479   0.584   5.979   1.887 -1.1374 -0.9079 -0.9077
 3421SOL    HW211480   0.627   5.925   1.753  0.6351 -0.6127 -0.4829
 3422SOL     OW11481   1.818   6.529   3.286 -0.3403 -0.8612  0.0179
 3422SOL    HW111482   1.808   6.470   3.211 -0.2971 -2.2460  1.0641
 3422SOL    HW211483   1.906   6.565   3.277 -0.3739 -0.9285 -0.6391
 3423SOL     OW11484   0.117   7.210   3.347  0.4910  0.6247 -0.1265
 3423SOL    HW111485   0.028   7.240   3.364  0.1505 -1.9158  4.0217
 3423SOL    HW211486   0.106   7.125   3.304  0.9125  0.4815  0.0423
 3424SOL     OW11487   0.480   6.133   2.394 -0.2354 -0.1423 -0.0784
 3424SOL    HW111488   0.459   6.042   2.374  1.2979 -0.9536  1.6983
 3424SOL    HW211489   0.418   6.157   2.463  0.7202 -0.5972  0.9786
 3425SOL     OW11490   0.771   7.034   3.277  0.2262 -0.0943 -0.5526
 3425SOL    HW111491   0.786   7.064   3.187 -2.9332  0.9652 -0.8834
 3425SOL    HW211492   0.694   6.978   3.270 -0.3873  0.4166  1.5171
 3426SOL     OW11493   0.281   6.234   1.989 -0.3317  0.1125  0.3499
 3426SOL    HW111494   0.363   6.259   1.947 -0.6734  0.5614 -0.0659
 3426SOL    HW211495   0.289   6.140   2.004  0.1119  0.0912 -0.0113
 3427SOL     OW11496   0.012   6.510   2.967 -0.0407  0.0002  0.0912
 3427SOL    HW111497  -0.013   6.560   3.045 -1.3287  0.4513 -0.5736
 3427SOL    HW211498   0.010   6.419   2.995  0.4938  0.2168  0.8451
 3428SOL     OW11499   0.692   6.581   2.945 -0.3223 -0.1089  0.2250
 3428SOL    HW111500   0.709   6.623   2.860  0.0015 -0.3157  0.1875
 3428SOL    HW211501   0.710   6.488   2.930  2.0612  0.1508  1.1358
 3429SOL     OW11502   1.535   6.546   2.387 -0.1535  0.2782 -0.1682
 3429SOL    HW111503   1.501   6.468   2.429 -0.8756 -0.5813 -2.2409
 3429SOL    HW211504   1.575   6.515   2.306  1.8844  1.7688  0.1598
 3430SOL     OW11505   1.466   7.427   2.381  0.4800 -0.0068 -0.3438
 3430SOL    HW111506   1.426   7.370   2.316 -0.1711  0.4465 -0.3480
 3430SOL    HW211507   1.419   7.407   2.462  0.0300  0.7400 -0.4129
 3431SOL     OW11508   1.434   7.593   2.860 -0.3715 -0.5133  0.1591
 3431SOL    HW111509   1.347   7.591   2.818 -0.3112 -0.0191  0.0043
 3431SOL    HW211510   1.491   7.631   2.793 -0.0157 -0.9302  0.2285
 3432SOL     OW11511   8.475   6.598   2.966  0.0768 -0.4109 -0.1186
 3432SOL    HW111512   8.468   6.507   2.996 -0.0432 -0.7079 -1.0186
 3432SOL    HW211513   8.389   6.616   2.927  0.1156  0.0824  0.0184
 3433SOL     OW11514   0.519   7.372   3.264  0.0266 -0.3821  0.8021
 3433SOL    HW111515   0.546   7.448   3.315  0.8297 -0.6788  0.8307
 3433SOL    HW211516   0.597   7.347   3.215 -0.2266 -1.1960  0.7979
 3434SOL     OW11517   1.950   5.863   2.750 -0.6155  0.2494  0.0045
 3434SOL    HW111518   1.857   5.885   2.757 -1.3007 -1.6552 -2.1241
 3434SOL    HW211519   1.955   5.802   2.677  2.4149  0.6865 -0.2564
 3435SOL     OW11520   1.283   7.032   1.913  0.1295 -0.1168  0.2653
 3435SOL    HW111521   1.304   6.947   1.877 -0.2670 -0.3847  0.6458
 3435SOL    HW211522   1.368   7.074   1.928  0.3113 -0.2763 -0.3088
 3436SOL     OW11523   0.201   7.541   3.684 -0.2234  0.1262  0.2963
 3436SOL    HW111524   0.231   7.626   3.650  1.3026 -1.1114 -1.6728
 3436SOL    HW211525   0.282   7.495   3.708 -1.0472 -0.6875  1.6854
 3437SOL     OW11526   1.175   6.669   2.526  0.0664 -0.1195  0.4094
 3437SOL    HW111527   1.170   6.672   2.430 -1.5306  1.9106  0.4787
 3437SOL    HW211528   1.266   6.690   2.546  0.7229 -1.7883 -0.6416
 3438SOL     OW11529   0.479   6.942   3.060  0.6930  0.1328  0.0790
 3438SOL    HW111530   0.501   6.927   3.152  2.6707  0.1198 -0.3467
 3438SOL    HW211531   0.447   6.857   3.029 -1.6353  0.5555  1.1219
 3439SOL     OW11532   0.902   7.476   2.085  0.6717  0.5966 -0.2822
 3439SOL    HW111533   0.856   7.558   2.067  0.4784  0.1262 -2.1519
 3439SOL    HW211534   0.969   7.471   2.016  0.8569 -0.6777 -0.0201
 3440SOL     OW11535   1.457   7.002   3.135 -0.2111  0.1616 -0.7505
 3440SOL    HW111536   1.457   6.954   3.052 -0.7140  1.8351 -1.7798
 3440SOL    HW211537   1.531   7.062   3.127 -0.1162  0.1689  0.1260
 3441SOL     OW11538   1.710   5.522   2.791  0.7155 -0.2020  0.1248
 3441SOL    HW111539   1.718   5.436   2.832  0.8393  0.2596  1.0760
 3441SOL    HW211540   1.799   5.558   2.792  0.5513  0.2124  0.3477
 3442SOL     OW11541   8.614   5.127   2.779  0.2640  0.4721 -0.0892
 3442SOL    HW111542   8.618   5.098   2.870  0.3064 -0.0572 -0.2590
 3442SOL    HW211543   8.534   5.180   2.774  0.2721  0.5168  0.2575
 3443SOL     OW11544   0.838   7.681   1.882 -0.5130  0.0367  0.4071
 3443SOL    HW111545   0.905   7.621   1.850 -1.9725 -0.3480 -2.2961
 3443SOL    HW211546   0.846   7.758   1.826 -1.1282  0.7842  1.3082
 3444SOL     OW11547   0.916   6.369   3.165 -0.2667 -0.1447  0.0569
 3444SOL    HW111548   0.978   6.298   3.151 -2.5865 -2.3321 -0.0444
 3444SOL    HW211549   0.848   6.355   3.099 -1.9114  0.8025  1.4549
 3445SOL     OW11550   1.133   6.594   2.267  0.0657 -0.0920 -0.6446
 3445SOL    HW111551   1.059   6.550   2.309  1.3579  0.2348  2.1658
 3445SOL    HW211552   1.188   6.523   2.235  0.3439 -0.4762  0.6226
 3446SOL     OW11553   1.543   7.165   1.567  0.8384 -0.2145 -0.5455
 3446SOL    HW111554   1.520   7.183   1.658 -0.4486  0.4852 -0.9676
 3446SOL    HW211555   1.591   7.243   1.539 -1.0949  0.8425 -1.1775
 3447SOL     OW11556   8.551   6.661   3.254  0.3686  0.3544  0.0063
 3447SOL    HW111557   8.494   6.613   3.313  0.0111  1.1223  0.3037
 3447SOL    HW211558   8.522   6.636   3.166 -0.3705  0.6605  0.1561
 3448SOL     OW11559   1.434   7.045   2.662 -0.2641  0.2855 -0.2982
 3448SOL    HW111560   1.395   7.004   2.739 -0.6051  0.8128 -0.1858
 3448SOL    HW211561   1.527   7.021   2.666 -0.2431  0.4597  0.3806
 3449SOL     OW11562   1.010   6.818   2.658 -0.3767  0.1354 -0.5910
 3449SOL    HW111563   1.040   6.894   2.607 -0.1352 -0.3181 -1.1415
 3449SOL    HW211564   1.054   6.743   2.617 -3.1235 -0.7546 -2.2332
 3450SOL     OW11565   0.985   5.606   2.720  0.5130 -0.2317  0.2136
 3450SOL    HW111566   0.914   5.647   2.672  0.3008  0.1953  0.8753
 3450SOL    HW211567   0.972   5.512   2.707  0.0779 -0.1403 -0.0174
 3451SOL     OW11568   0.319   7.129   2.274 -0.4923  0.0498  0.4458
 3451SOL    HW111569   0.267   7.049   2.283 -0.2812  0.0428  1.8482
 3451SOL    HW211570   0.294   7.164   2.188  0.1460 -2.0257 -0.6818
 3452SOL     OW11571   1.496   6.306   2.755  0.2877  0.3068 -0.2603
 3452SOL    HW111572   1.497   6.399   2.777  0.3370  0.5650 -1.3002
 3452SOL    HW211573   1.588   6.279   2.762  0.3303  0.4307 -0.3353
 3453SOL     OW11574   0.730   6.959   2.568 -0.1161 -0.0791 -0.3961
 3453SOL    HW111575   0.740   6.898   2.495  0.1660 -1.4441  0.7395
 3453SOL    HW211576   0.795   7.027   2.551  0.6426 -0.9047 -0.9168
 3454SOL     OW11577   8.846   6.637   3.216  0.1273  0.6660 -0.1160
 3454SOL    HW111578   8.756   6.664   3.235 -0.7455 -2.7878  1.5192
 3454SOL    HW211579   8.884   6.617   3.302  0.9104 -2.0802 -0.9861
 3455SOL     OW11580   0.604   6.004   3.239 -0.1255 -0.2063  0.4823
 3455SOL    HW111581   0.554   5.932   3.277 -0.2284  0.6066  1.9754
 3455SOL    HW211582   0.541   6.075   3.228  0.0546 -0.1968 -0.6075
 3456SOL     OW11583   0.149   5.910   2.121  0.1028 -0.2443 -0.4542
 3456SOL    HW111584   0.094   5.858   2.062  0.0406 -0.4750 -0.1912
 3456SOL    HW211585   0.119   5.887   2.209  0.7344 -0.5037 -0.3004
 3457SOL     OW11586   0.980   6.655   3.333  0.6510  0.0677  0.4926
 3457SOL    HW111587   1.040   6.603   3.281 -0.1776  0.8315 -1.3042
 3457SOL    HW211588   0.990   6.744   3.300 -2.2357  0.0606 -0.7381
 3458SOL     OW11589   8.712   6.202   2.634 -0.0537  0.2458 -0.3828
 3458SOL    HW111590   8.661   6.179   2.712 -0.9922  1.5465 -0.5851
 3458SOL    HW211591   8.802   6.180   2.657 -0.4097 -0.0123  0.8245
 3459SOL     OW11592   0.997   6.728   2.032 -0.6652 -0.0278 -0.2249
 3459SOL    HW111593   1.059   6.683   2.089 -0.5764  1.3645  0.8231
 3459SOL    HW211594   0.950   6.658   1.987  1.2555 -1.1217 -0.6279
 3460SOL     OW11595   0.409   6.397   2.982 -0.1487 -0.1121 -0.5228
 3460SOL    HW111596   0.398   6.415   3.075  1.6080 -1.9030  0.1063
 3460SOL    HW211597   0.412   6.484   2.941  2.1971  0.8898  1.5264
 3461SOL     OW11598   1.651   7.375   2.025  0.3258 -0.1841 -0.1831
 3461SOL    HW111599   1.634   7.469   2.022  0.5325 -0.1289  0.3859
 3461SOL    HW211600   1.744   7.368   2.047  0.6174 -0.5107 -1.4384
 3462SOL     OW11601   0.813   6.046   3.397 -0.0009 -0.0886 -0.0644
 3462SOL    HW111602   0.772   6.113   3.452  0.6496  0.3360 -0.0758
 3462SOL    HW211603   0.747   6.024   3.331 -0.3806  0.2156  0.2109
 3463SOL     OW11604   1.111   6.547   3.125  0.1598  0.1284  0.1455
 3463SOL    HW111605   1.060   6.474   3.090  0.0752  0.1729  0.1729
 3463SOL    HW211606   1.201   6.515   3.128  0.1562  0.0996 -0.0427
 3464SOL     OW11607   0.226   7.346   3.093  0.1399 -0.0879 -0.4128
 3464SOL    HW111608   0.150   7.313   3.045 -1.6123  2.5378  0.3428
 3464SOL    HW211609   0.227   7.296   3.175 -0.1181 -0.8691 -0.8796
 3465SOL     OW11610   1.579   6.652   3.253 -0.3054 -0.3786  0.0912
 3465SOL    HW111611   1.669   6.622   3.243 -0.3131  0.0183 -1.5320
 3465SOL    HW211612   1.587   6.742   3.284 -0.2280 -1.0045  2.0478
 3466SOL     OW11613   1.125   6.006   2.289  0.1592  0.1241 -0.4257
 3466SOL    HW111614   1.144   5.943   2.359 -0.4840  0.4629  0.0596
 3466SOL    HW211615   1.171   6.086   2.315 -0.0048  0.2223 -0.4395
 3467SOL     OW11616   0.053   5.649   2.318  0.2041 -0.6053  0.3748
 3467SOL    HW111617  -0.038   5.631   2.293  0.4757 -0.1275 -1.0522
 3467SOL    HW211618   0.053   5.741   2.344  0.1038 -0.8594  1.2950
 3468SOL     OW11619   1.707   6.207   3.240  0.6382 -0.3993 -0.2240
 3468SOL    HW111620   1.635   6.243   3.292  2.2185 -0.1875  1.9766
 3468SOL    HW211621   1.767   6.171   3.305  1.4939 -2.5814 -2.0996
 3469SOL     OW11622   1.853   6.344   3.525 -0.1879  0.1477 -0.0792
 3469SOL    HW111623   1.865   6.249   3.517  0.1570  0.2416 -0.7269
 3469SOL    HW211624   1.819   6.372   3.440 -3.4840  0.1581  1.1276
 3470SOL     OW11625   0.621   7.256   1.954 -0.4861  0.3375  0.0606
 3470SOL    HW111626   0.694   7.281   2.012 -1.4453  0.3997  1.2877
 3470SOL    HW211627   0.589   7.174   1.991 -0.9582  0.2432 -0.5491
 3471SOL     OW11628   0.476   7.421   2.743 -0.4682  0.0115  0.2194
 3471SOL    HW111629   0.473   7.325   2.748 -1.3721 -0.0363 -0.7485
 3471SOL    HW211630   0.540   7.447   2.810  1.5554 -1.4013 -1.0347
 3472SOL     OW11631   0.651   6.567   2.287 -0.7801 -1.0445 -0.2426
 3472SOL    HW111632   0.572   6.522   2.256 -0.6693 -0.6288 -1.1737
 3472SOL    HW211633   0.683   6.513   2.359 -0.1487 -2.9919 -1.8769
 3473SOL     OW11634   0.646   6.499   1.533  0.3283 -0.1694 -0.4962
 3473SOL    HW111635   0.647   6.533   1.443  0.3322  1.1165 -0.0255
 3473SOL    HW211636   0.731   6.524   1.569  0.4177 -0.8896 -0.2010
 3474SOL     OW11637   2.151   6.869   2.443  0.8665 -0.1144  0.8256
 3474SOL    HW111638   2.066   6.911   2.456  0.5322 -0.6711  0.5089
 3474SOL    HW211639   2.173   6.833   2.529  0.9984  0.4143  1.0165
 3475SOL     OW11640   0.506   6.639   3.781 -0.0462  0.0749 -0.6810
 3475SOL    HW111641   0.544   6.727   3.780  0.9335 -0.3355 -1.3024
 3475SOL    HW211642   0.483   6.624   3.872  3.2938 -0.4438  0.2017
 3476SOL     OW11643   8.766   7.635   3.250  1.1093 -0.1001 -0.3841
 3476SOL    HW111644   8.827   7.599   3.314 -0.6014  1.2891  2.2458
 3476SOL    HW211645   8.812   7.710   3.212  1.3254  0.5875  1.1529
 3477SOL     OW11646   0.422   6.700   2.924 -0.7006  0.3019 -0.1269
 3477SOL    HW111647   0.415   6.713   2.830 -1.7462 -0.5156 -0.1832
 3477SOL    HW211648   0.507   6.658   2.936 -1.6837 -2.1460 -1.0515
 3478SOL     OW11649   2.147   5.799   2.930  0.1262 -0.0466 -0.5850
 3478SOL    HW111650   2.151   5.882   2.978  1.6482  0.8443 -2.1446
 3478SOL    HW211651   2.067   5.806   2.878 -0.5593 -0.2445  0.4007
 3479SOL     OW11652   0.422   6.381   2.219  0.5907  0.1212 -0.1250
 3479SOL    HW111653   0.465   6.316   2.276  0.4333 -0.1865 -0.3537
 3479SOL    HW211654   0.345   6.336   2.186  0.6712  0.3058 -0.5696
 3480SOL     OW11655   1.350   7.244   2.218 -1.0656  0.6040 -0.7165
 3480SOL    HW111656   1.351   7.173   2.281 -0.3979  1.3175  0.1101
 3480SOL    HW211657   1.387   7.206   2.138 -0.2422  0.1526 -0.1353
 3481SOL     OW11658   0.480   5.808   3.390  0.1249  0.2720  0.1437
 3481SOL    HW111659   0.386   5.823   3.393  0.1150  0.2650 -0.1448
 3481SOL    HW211660   0.503   5.783   3.480 -0.2287 -0.1928  0.1107
 3482SOL     OW11661   0.921   7.454   2.376  0.8679 -0.1817 -0.5012
 3482SOL    HW111662   0.868   7.527   2.343  0.5760  0.4860  1.3458
 3482SOL    HW211663   0.896   7.380   2.321 -0.7975  0.5060 -0.7200
 3483SOL     OW11664   1.400   5.919   3.080  0.4848  0.0476 -0.2468
 3483SOL    HW111665   1.480   5.916   3.133  0.7104  1.0540 -0.5077
 3483SOL    HW211666   1.400   6.007   3.043 -1.0442  0.2578  0.1976
 3484SOL     OW11667   0.749   5.578   3.091  0.3041 -0.0677  0.5440
 3484SOL    HW111668   0.708   5.614   3.169 -0.8613  0.4271 -0.2729
 3484SOL    HW211669   0.841   5.607   3.097  0.1071  0.3882  1.4719
 3485SOL     OW11670   1.033   7.040   2.403  0.0596  0.2767 -0.1161
 3485SOL    HW111671   1.053   6.980   2.331 -2.8366 -0.5210 -0.4097
 3485SOL    HW211672   0.990   7.115   2.362 -0.4978  0.3906  0.6377
 3486SOL     OW11673   0.431   7.191   2.913  0.3134 -0.1744  0.0487
 3486SOL    HW111674   0.453   7.116   2.968 -0.3061 -0.1373  0.3614
 3486SOL    HW211675   0.391   7.254   2.973 -1.1570 -0.4739 -0.5641
 3487SOL     OW11676   0.821   5.731   2.018  0.3375  0.0933  0.6778
 3487SOL    HW111677   0.821   5.775   1.933  2.4274  1.7094  1.4083
 3487SOL    HW211678   0.785   5.795   2.079  0.7087 -0.2787  1.3071
 3488SOL     OW11679   1.197   6.425   2.686 -0.1942  0.4338 -0.0508
 3488SOL    HW111680   1.110   6.448   2.720 -0.6335 -0.4586 -0.5045
 3488SOL    HW211681   1.215   6.491   2.619 -0.6214  0.5167 -0.0898
 3489SOL     OW11682   1.452   5.583   2.721  0.0052 -0.2751 -0.0404
 3489SOL    HW111683   1.417   5.617   2.803 -0.6530  1.2265 -0.8951
 3489SOL    HW211684   1.542   5.557   2.742 -0.2156 -0.1222  1.1903
 3490SOL     OW11685   0.133   6.619   2.262  0.7849  0.5935 -0.1813
 3490SOL    HW111686   0.151   6.674   2.185 -0.2368  0.5761 -0.4527
 3490SOL    HW211687   0.128   6.681   2.334  2.7640  0.5071  0.0754
 3491SOL     OW11688   0.929   7.233   2.207 -0.1164 -0.8878  0.4534
 3491SOL    HW111689   0.947   7.306   2.148  0.5986 -2.0629 -0.8270
 3491SOL    HW211690   0.967   7.156   2.164  2.2243 -1.5428  3.3392
 3492SOL     OW11691   0.323   6.036   4.046 -0.1096  0.0393  0.0674
 3492SOL    HW111692   0.413   6.032   4.076 -0.2861  0.1181  0.6168
 3492SOL    HW211693   0.290   5.947   4.057 -0.2577  0.1300  0.3829
 3493SOL     OW11694   0.381   6.065   4.729 -0.1148 -0.7381  0.4234
 3493SOL    HW111695   0.452   6.035   4.786  1.5609  0.8868 -0.7040
 3493SOL    HW211696   0.415   6.055   4.640 -0.5328  1.7749 -0.0916
 3494SOL     OW11697   0.121   5.922   4.758 -0.2314 -0.0986  0.0505
 3494SOL    HW111698   0.117   5.828   4.737 -1.3965  0.0785 -0.6292
 3494SOL    HW211699   0.183   5.958   4.695  0.7649 -0.4975  0.7630
 3495SOL     OW11700   0.740   6.576   4.981 -0.1444  0.4361  0.2895
 3495SOL    HW111701   0.713   6.605   5.068 -1.5131 -1.5408  0.5835
 3495SOL    HW211702   0.674   6.512   4.955  0.5847  0.4963 -1.9457
 3496SOL     OW11703   1.246   7.657   4.223  0.4956 -0.3304 -0.0203
 3496SOL    HW111704   1.164   7.688   4.185  0.4681  0.8458  0.9467
 3496SOL    HW211705   1.272   7.584   4.167 -1.3247 -0.8782 -0.2019
 3497SOL     OW11706   0.619   6.592   4.407 -0.2447  0.0790  0.0679
 3497SOL    HW111707   0.639   6.504   4.438 -0.3832 -0.4744 -1.3285
 3497SOL    HW211708   0.680   6.649   4.453  0.0474 -0.7821  0.7595
 3498SOL     OW11709   1.160   6.159   4.078 -0.1810 -0.1157 -0.4285
 3498SOL    HW111710   1.177   6.252   4.059  1.2942 -0.6150 -1.7757
 3498SOL    HW211711   1.113   6.127   4.001  1.2333 -0.9616 -0.9819
 3499SOL     OW11712   0.711   6.822   4.871 -0.1498 -0.1971 -0.6427
 3499SOL    HW111713   0.746   6.741   4.909 -1.6305 -1.6739 -2.2654
 3499SOL    HW211714   0.618   6.805   4.858 -0.5232  1.8272 -0.9647
 3500SOL     OW11715   1.291   6.155   5.809  0.0509  0.2272  0.6395
 3500SOL    HW111716   1.342   6.101   5.748  0.0264 -1.4907  2.0558
 3500SOL    HW211717   1.204   6.114   5.810 -0.3814  1.1237  0.7506
 3501SOL     OW11718   0.546   6.636   4.124  0.0816 -0.2865  0.0901
 3501SOL    HW111719   0.635   6.626   4.091  0.7175  2.5729  0.6250
 3501SOL    HW211720   0.557   6.654   4.217 -0.8116  2.1842 -0.2083
 3502SOL     OW11721   0.874   6.981   5.481 -0.0532  0.0363 -0.4614
 3502SOL    HW111722   0.785   7.011   5.465 -0.4727 -1.4480 -1.0927
 3502SOL    HW211723   0.916   6.983   5.394  0.9714  1.9795  0.0251
 3503SOL     OW11724   0.512   6.927   4.492 -0.0665  0.8188  0.3645
 3503SOL    HW111725   0.462   6.862   4.442  0.6121 -0.8954  1.7950
 3503SOL    HW211726   0.462   7.008   4.482  0.2789  0.7435 -3.4088
 3504SOL     OW11727   1.186   7.089   4.831  0.2865  0.6552 -0.0392
 3504SOL    HW111728   1.125   7.093   4.905  0.2459  1.4263 -0.1030
 3504SOL    HW211729   1.155   7.016   4.778 -2.1136  2.4795 -1.3674
 3505SOL     OW11730   0.199   6.180   5.000 -0.3837 -0.0350  0.5560
 3505SOL    HW111731   0.275   6.216   5.046 -0.3953  1.3740 -0.4581
 3505SOL    HW211732   0.233   6.101   4.956 -0.2356 -1.0569  2.4145
 3506SOL     OW11733   1.341   6.012   4.249 -0.0164 -0.0392  0.1308
 3506SOL    HW111734   1.411   6.070   4.218  0.1931 -0.7430 -0.7584
 3506SOL    HW211735   1.263   6.041   4.202  0.4554 -1.5951 -1.7353
 3507SOL     OW11736   0.418   7.372   3.732 -0.1913 -0.3726  0.5208
 3507SOL    HW111737   0.491   7.430   3.710 -0.0292 -0.6630  0.2943
 3507SOL    HW211738   0.394   7.330   3.649 -0.5250 -0.3824  0.6199
 3508SOL     OW11739   0.987   7.208   5.634  0.5565  0.1438  0.0685
 3508SOL    HW111740   0.893   7.218   5.618  0.0388 -0.2635  2.4127
 3508SOL    HW211741   1.013   7.133   5.581 -1.2198 -1.8019  1.7884
 3509SOL     OW11742   0.269   6.931   4.187  0.3297  0.4426  0.2153
 3509SOL    HW111743   0.326   6.876   4.240  2.2718  1.0200 -1.1860
 3509SOL    HW211744   0.218   6.870   4.134  1.5172 -0.0550 -0.3812
 3510SOL     OW11745   0.158   6.520   4.290 -0.4192 -0.3078  0.4150
 3510SOL    HW111746   0.181   6.434   4.255 -0.2704 -0.6872  1.4178
 3510SOL    HW211747   0.100   6.501   4.364 -1.6448  0.5183 -0.2998
 3511SOL     OW11748   0.984   7.622   4.871  0.3077  0.1282  0.2267
 3511SOL    HW111749   0.960   7.655   4.785  2.3532  1.3086  0.0274
 3511SOL    HW211750   0.918   7.657   4.930 -0.7851 -0.2129 -0.7593
 3512SOL     OW11751   0.435   6.267   3.588 -0.1972  0.5686  0.0998
 3512SOL    HW111752   0.445   6.361   3.604  0.6108  0.6220 -0.6228
 3512SOL    HW211753   0.393   6.233   3.667  0.5298  1.3584  0.8465
 3513SOL     OW11754   1.479   5.765   5.353  0.3397 -0.3059 -0.2850
 3513SOL    HW111755   1.532   5.828   5.304 -0.0747  0.0195 -0.3162
 3513SOL    HW211756   1.533   5.740   5.428 -0.4477  1.9805  1.1351
 3514SOL     OW11757   8.707   6.158   4.060  0.9153 -0.4593 -0.3027
 3514SOL    HW111758   8.635   6.105   4.092 -0.2712  0.1146 -1.8905
 3514SOL    HW211759   8.768   6.162   4.133 -0.7006 -0.8903  1.1385
 3515SOL     OW11760   1.563   7.245   4.002  0.1996 -0.0184  0.0363
 3515SOL    HW111761   1.519   7.168   4.039 -0.1056 -1.4787 -3.0089
 3515SOL    HW211762   1.650   7.244   4.040 -1.1056  0.7925  3.4039
 3516SOL     OW11763   0.005   7.175   3.715  0.5626  0.1950 -0.3470
 3516SOL    HW111764  -0.034   7.196   3.630 -0.2201 -1.3870 -0.4167
 3516SOL    HW211765  -0.069   7.172   3.776  1.1350  1.4832  0.4509
 3517SOL     OW11766   1.426   6.385   4.265 -0.0932 -0.4459  0.1893
 3517SOL    HW111767   1.506   6.332   4.271 -0.4068 -0.8851  0.4730
 3517SOL    HW211768   1.391   6.364   4.178  0.3007  0.0438 -0.0973
 3518SOL     OW11769   1.410   6.802   3.817 -0.4660  0.6584 -0.0307
 3518SOL    HW111770   1.471   6.778   3.887 -1.3363  0.8979  0.8234
 3518SOL    HW211771   1.324   6.801   3.858 -0.8236  2.6268 -0.6116
 3519SOL     OW11772   0.075   6.482   5.061 -0.3148 -0.1860 -0.5370
 3519SOL    HW111773   0.156   6.531   5.064 -0.6379  0.4208 -1.4264
 3519SOL    HW211774   0.013   6.540   5.017 -0.6414 -1.4682 -1.8386
 3520SOL     OW11775   0.735   6.798   4.568 -0.0047 -0.1221  0.1915
 3520SOL    HW111776   0.652   6.837   4.540  1.2845  1.0691 -2.2351
 3520SOL    HW211777   0.753   6.840   4.652 -1.3326  0.3865  0.2495
 3521SOL     OW11778   1.031   6.759   5.022 -0.4023 -0.0110  0.1367
 3521SOL    HW111779   0.996   6.848   5.029 -0.8088 -0.1065 -0.6520
 3521SOL    HW211780   1.118   6.764   5.062 -0.9967  0.4014  1.4420
 3522SOL     OW11781   0.901   5.088   3.855  0.3166  0.4772  0.9471
 3522SOL    HW111782   0.850   5.166   3.878 -1.2611 -0.4096  0.6651
 3522SOL    HW211783   0.976   5.121   3.806 -0.6618  1.7871  0.2665
 3523SOL     OW11784   0.138   6.821   4.562  0.1472 -0.2500 -0.0667
 3523SOL    HW111785   0.216   6.797   4.512  0.8518 -0.9102  1.3127
 3523SOL    HW211786   0.065   6.797   4.505  0.9081  1.3943 -1.8603
 3524SOL     OW11787   1.655   6.574   3.530 -0.3761  0.1195  0.1890
 3524SOL    HW111788   1.565   6.604   3.517 -0.8004 -0.8193  0.8480
 3524SOL    HW211789   1.691   6.566   3.441 -1.1724 -0.1460 -0.1154
 3525SOL     OW11790   0.720   7.174   5.024 -0.2570 -0.2558 -0.2015
 3525SOL    HW111791   0.792   7.234   5.045 -0.5830 -0.0121  0.2220
 3525SOL    HW211792   0.643   7.230   5.015 -0.7371 -0.6764  1.0400
 3526SOL     OW11793   8.841   6.348   5.332  0.3317  0.5334 -0.3109
 3526SOL    HW111794   8.842   6.444   5.340  1.9099  0.6027 -1.0236
 3526SOL    HW211795   8.896   6.317   5.404  0.5070  0.2215 -0.5749
 3527SOL     OW11796   1.061   7.056   4.423 -0.0757 -0.1088  0.7604
 3527SOL    HW111797   1.033   7.123   4.485  1.5538  0.5901  0.7739
 3527SOL    HW211798   1.113   7.103   4.358 -0.2336 -1.1175 -0.1201
 3528SOL     OW11799   1.715   7.233   4.349  0.8546  0.7113 -0.2202
 3528SOL    HW111800   1.778   7.212   4.418  1.4239  1.5703 -0.4491
 3528SOL    HW211801   1.659   7.301   4.387  0.3704  0.2870 -0.1794
 3529SOL     OW11802   0.851   5.872   3.944 -0.0319  0.1867  0.1049
 3529SOL    HW111803   0.916   5.834   3.885 -1.6839  0.7381 -2.2349
 3529SOL    HW211804   0.831   5.957   3.905 -2.4571 -0.1670  0.4182
 3530SOL     OW11805   1.124   6.196   4.600 -0.0542  0.1868 -0.6312
 3530SOL    HW111806   1.124   6.211   4.506 -0.9831 -0.1344 -0.6955
 3530SOL    HW211807   1.187   6.125   4.613 -0.5522 -0.3696 -1.1335
 3531SOL     OW11808   1.575   7.610   3.980  0.2244 -0.2231  0.1976
 3531SOL    HW111809   1.642   7.541   3.987 -0.4800 -0.9979 -0.4992
 3531SOL    HW211810   1.551   7.610   3.888  1.5611  2.2871 -0.2413
 3532SOL     OW11811   0.597   6.333   4.918  0.4417  0.0629 -0.3304
 3532SOL    HW111812   0.511   6.349   4.879  0.4550  1.1357  0.0572
 3532SOL    HW211813   0.642   6.278   4.854 -0.3852 -0.1863 -0.7183
 3533SOL     OW11814   1.160   5.972   5.332  0.4629  0.6105  0.0876
 3533SOL    HW111815   1.240   6.012   5.367  0.4400  3.0851 -2.3422
 3533SOL    HW211816   1.188   5.931   5.251 -0.3673 -0.4719  0.3329
 3534SOL     OW11817   1.000   6.154   5.436  0.0304  0.3321 -0.5263
 3534SOL    HW111818   0.951   6.203   5.371  1.5695  1.6684 -0.7470
 3534SOL    HW211819   1.027   6.074   5.391 -1.7904 -0.3784 -0.4266
 3535SOL     OW11820   0.859   6.112   4.494 -0.2147  0.1245 -0.2936
 3535SOL    HW111821   0.798   6.096   4.565 -0.5946 -0.4421 -0.7439
 3535SOL    HW211822   0.945   6.092   4.531 -0.4613 -0.7028 -0.1529
 3536SOL     OW11823   0.694   6.233   4.308 -0.1307 -0.3562  0.2671
 3536SOL    HW111824   0.740   6.201   4.385 -0.5645 -0.6647  0.4058
 3536SOL    HW211825   0.609   6.263   4.342  0.1745  0.7368  0.1091
 3537SOL     OW11826   0.041   6.179   4.305  0.0657 -0.1393  0.1985
 3537SOL    HW111827   0.109   6.242   4.281 -1.4923  2.1178  1.4518
 3537SOL    HW211828   0.080   6.094   4.284  1.4970  1.2432 -3.4486
 3538SOL     OW11829   8.838   7.362   4.922  0.0040 -0.0797 -0.2475
 3538SOL    HW111830   8.774   7.308   4.876 -3.6146  3.2025  0.3984
 3538SOL    HW211831   8.886   7.406   4.852  0.7197 -1.6121 -0.7586
 3539SOL     OW11832   1.058   5.861   3.772  0.4598 -0.5155  0.4080
 3539SOL    HW111833   1.144   5.904   3.766 -0.7104  1.8881 -1.2280
 3539SOL    HW211834   1.064   5.788   3.711  0.5742  1.2939 -1.8945
 3540SOL     OW11835   1.843   6.186   5.704  0.3243 -0.3898 -0.5272
 3540SOL    HW111836   1.749   6.201   5.710 -0.2684 -3.5111 -0.1741
 3540SOL    HW211837   1.879   6.227   5.783 -0.7900  0.3844 -0.3951
 3541SOL     OW11838   1.217   6.419   4.041 -0.1156  0.3848 -0.1295
 3541SOL    HW111839   1.214   6.462   3.956  0.4275  0.8232  0.0675
 3541SOL    HW211840   1.149   6.461   4.092 -0.6272 -0.0650 -0.4231
 3542SOL     OW11841   0.503   5.531   4.542 -0.6508  0.5969  0.3454
 3542SOL    HW111842   0.444   5.503   4.612 -1.4430 -0.1309 -0.5877
 3542SOL    HW211843   0.590   5.504   4.572 -0.9498  0.4739  1.1374
 3543SOL     OW11844   0.778   6.723   3.851  0.0863  0.2840  0.4320
 3543SOL    HW111845   0.853   6.763   3.894 -1.1770  1.2101  1.8702
 3543SOL    HW211846   0.727   6.797   3.818  0.2852 -0.3637 -1.4624
 3544SOL     OW11847   8.787   6.732   4.384  0.1015 -0.1743 -0.0986
 3544SOL    HW111848   8.749   6.653   4.422 -0.1802  0.8274  1.8054
 3544SOL    HW211849   8.749   6.737   4.296  0.1949 -2.1743 -0.2997
 3545SOL     OW11850   1.427   6.737   4.259 -0.6811 -0.0201  0.3735
 3545SOL    HW111851   1.399   6.656   4.301  0.0660  0.9114  2.8430
 3545SOL    HW211852   1.486   6.709   4.189 -0.7426 -1.6311  0.9292
 3546SOL     OW11853   0.922   7.393   5.031 -0.6404  0.2754 -0.3263
 3546SOL    HW111854   0.930   7.452   4.956  0.6720 -1.0971 -1.3543
 3546SOL    HW211855   1.012   7.363   5.047 -0.9655  0.1720  1.5117
 3547SOL     OW11856   0.306   6.123   3.801 -0.0769  0.2669  0.6070
 3547SOL    HW111857   0.215   6.106   3.778  0.7426 -2.2043 -1.2821
 3547SOL    HW211858   0.309   6.114   3.897 -1.5850 -1.0763  0.5621
 3548SOL     OW11859   1.456   6.379   4.625 -0.4981 -1.0008  0.0052
 3548SOL    HW111860   1.552   6.381   4.617 -0.5911  0.9636 -1.0559
 3548SOL    HW211861   1.424   6.419   4.545 -2.1952 -0.6469  0.8083
 3549SOL     OW11862   0.686   6.424   5.476 -0.1448  0.2632 -0.4830
 3549SOL    HW111863   0.762   6.446   5.530  0.4977 -0.4300 -1.0767
 3549SOL    HW211864   0.613   6.470   5.517  0.4264  0.1806  0.6563
 3550SOL     OW11865   0.981   7.298   3.741 -0.2644  0.4060  0.2187
 3550SOL    HW111866   0.917   7.244   3.787 -1.2910  0.5723 -0.9722
 3550SOL    HW211867   0.932   7.338   3.669  0.7929  1.8437  0.2573
 3551SOL     OW11868   8.826   6.041   5.229  0.4475 -0.1462 -0.1076
 3551SOL    HW111869   8.827   5.960   5.177 -1.6618  0.3881 -1.0659
 3551SOL    HW211870   8.813   6.012   5.319 -1.6496 -0.8628 -0.6022
 3552SOL     OW11871   1.701   6.960   3.653 -0.0063  0.1454  0.2513
 3552SOL    HW111872   1.718   6.961   3.747 -0.0739  1.0506  0.2583
 3552SOL    HW211873   1.622   7.012   3.642 -0.1697 -0.2088 -0.2778
 3553SOL     OW11874   0.674   7.613   3.825  0.1213 -0.2647 -0.6907
 3553SOL    HW111875   0.702   7.530   3.862  0.1321  0.6745  1.5490
 3553SOL    HW211876   0.722   7.620   3.742 -1.1097 -3.1936 -1.7886
 3554SOL     OW11877   1.338   5.644   4.007 -0.1650 -0.7557  0.3377
 3554SOL    HW111878   1.349   5.682   4.094  0.6454 -0.1019 -0.0344
 3554SOL    HW211879   1.314   5.553   4.024 -1.1228 -0.3594  1.2434
 3555SOL     OW11880   0.125   7.478   4.405  0.4147 -0.3387 -0.7350
 3555SOL    HW111881   0.140   7.481   4.311  1.9822 -1.6935 -0.5732
 3555SOL    HW211882   0.063   7.406   4.418  0.4552 -0.3674 -0.6994
 3556SOL     OW11883   0.816   7.503   4.157 -0.3501  0.7109 -0.3706
 3556SOL    HW111884   0.754   7.444   4.114 -1.1016  0.1800  1.3616
 3556SOL    HW211885   0.877   7.445   4.203  0.3629  1.2626 -0.5862
 3557SOL     OW11886   0.295   5.694   4.692 -0.0306  0.4802  0.8502
 3557SOL    HW111887   0.255   5.608   4.679 -1.4260  0.8121  2.5293
 3557SOL    HW211888   0.388   5.676   4.704 -0.3982 -0.8871  1.9008
 3558SOL     OW11889   1.616   5.634   5.545 -0.5549  0.1106  0.0612
 3558SOL    HW111890   1.701   5.592   5.556  0.3955  1.7069 -0.8769
 3558SOL    HW211891   1.555   5.576   5.590  1.2397 -0.2424  2.2138
 3559SOL     OW11892   1.121   5.427   3.799 -0.0379 -0.0827 -0.1383
 3559SOL    HW111893   1.106   5.501   3.739 -0.4133 -0.1433 -0.1209
 3559SOL    HW211894   1.052   5.435   3.865  1.7509  1.3640  1.6700
 3560SOL     OW11895   0.428   6.239   5.114 -0.3273 -0.1594 -0.2888
 3560SOL    HW111896   0.435   6.192   5.197  0.5388 -0.1970 -0.3668
 3560SOL    HW211897   0.517   6.237   5.079 -0.4431  0.8733 -0.6588
 3561SOL     OW11898   0.644   7.067   4.711  0.2782 -0.0089  0.0109
 3561SOL    HW111899   0.646   7.002   4.781 -1.3961  0.2453  0.3480
 3561SOL    HW211900   0.552   7.069   4.684  0.0216  3.0092  0.7750
 3562SOL     OW11901   1.287   6.097   5.000  0.1459 -0.1762 -0.5852
 3562SOL    HW111902   1.315   6.118   4.911 -0.6964  0.6516 -0.6668
 3562SOL    HW211903   1.218   6.160   5.019  0.1049 -0.5435  0.5472
 3563SOL     OW11904   0.883   7.058   4.190 -0.1762 -0.5484 -0.3103
 3563SOL    HW111905   0.917   7.088   4.275  0.2060 -2.4666  0.2571
 3563SOL    HW211906   0.788   7.063   4.200 -0.1250  0.0256 -0.0715
 3564SOL     OW11907   0.792   5.837   4.712 -0.1478  0.3907  0.0808
 3564SOL    HW111908   0.847   5.829   4.635  0.0796 -1.7686  0.3958
 3564SOL    HW211909   0.853   5.829   4.786 -0.4908  1.3987  0.4956
 3565SOL     OW11910   0.859   5.543   4.353 -0.6184  0.1660 -0.0664
 3565SOL    HW111911   0.949   5.533   4.320 -1.1461  0.2938 -1.6303
 3565SOL    HW211912   0.805   5.549   4.274 -1.9311  0.8395  0.8404
 3566SOL     OW11913   1.133   6.755   3.591  0.1804 -0.4799  0.1344
 3566SOL    HW111914   1.058   6.783   3.644 -0.9597 -0.5847 -1.3528
 3566SOL    HW211915   1.129   6.810   3.512  1.1331 -1.1164 -0.3777
 3567SOL     OW11916   0.333   5.509   4.122  0.6986  0.1966  0.1515
 3567SOL    HW111917   0.260   5.547   4.171 -0.9993 -2.2124 -0.3290
 3567SOL    HW211918   0.362   5.435   4.174  3.8932  1.8843  1.0403
 3568SOL     OW11919   0.941   5.782   4.469  0.2489 -0.2467 -0.0691
 3568SOL    HW111920   0.892   5.710   4.427  0.3151 -0.3184 -0.0230
 3568SOL    HW211921   0.940   5.852   4.404 -1.1748  0.2904  0.4867
 3569SOL     OW11922   0.750   6.167   4.789  0.3369 -0.0437 -0.3043
 3569SOL    HW111923   0.831   6.167   4.841  0.9247  0.9302 -1.1738
 3569SOL    HW211924   0.718   6.078   4.795  0.0493  0.1674  2.2274
 3570SOL     OW11925   1.485   7.715   4.382  0.1896  0.1716 -0.1976
 3570SOL    HW111926   1.430   7.745   4.455  0.0632 -0.3462 -0.0774
 3570SOL    HW211927   1.440   7.747   4.304  0.0528  0.2917 -0.0715
 3571SOL     OW11928   0.347   6.731   4.350  0.4036  0.4661 -0.1111
 3571SOL    HW111929   0.431   6.688   4.368 -0.3616 -0.7873  0.6294
 3571SOL    HW211930   0.289   6.660   4.323 -0.4525  1.2967 -0.4961
 3572SOL     OW11931   1.055   7.810   4.398 -0.1126 -0.4833  0.4865
 3572SOL    HW111932   1.028   7.776   4.312  0.3484 -1.5817  0.7609
 3572SOL    HW211933   1.148   7.790   4.404  0.2703  1.1761  0.5280
 3573SOL     OW11934   1.323   5.972   3.701  0.0001  0.1732  0.4513
 3573SOL    HW111935   1.300   5.970   3.609  2.1039  0.9271 -0.1434
 3573SOL    HW211936   1.414   6.003   3.703 -0.3357  1.2453  2.8331
 3574SOL     OW11937   8.769   6.389   4.745 -0.3537 -0.5211 -0.6125
 3574SOL    HW111938   8.766   6.464   4.806 -0.1505  0.8614 -2.2180
 3574SOL    HW211939   8.740   6.315   4.797  0.7529  0.4072  1.4273
 3575SOL     OW11940   0.174   5.558   5.348  0.4592 -0.0342 -0.3940
 3575SOL    HW111941   0.183   5.597   5.435  1.1689  0.6298 -0.7548
 3575SOL    HW211942   0.246   5.496   5.342 -0.1044 -0.7199 -0.1866
 3576SOL     OW11943   0.499   5.990   4.484 -0.1157 -0.0404  0.1806
 3576SOL    HW111944   0.464   6.068   4.440  0.0300 -0.3755 -0.5356
 3576SOL    HW211945   0.479   5.918   4.425  0.2465 -0.4754  0.5801
 3577SOL     OW11946   1.146   5.560   4.309  0.2674 -0.4516  0.5465
 3577SOL    HW111947   1.167   5.649   4.280 -0.8844 -0.0785  0.8266
 3577SOL    HW211948   1.200   5.547   4.387  0.0105  0.2098  0.8344
 3578SOL     OW11949   1.283   6.522   4.424 -0.1996  0.5255 -0.4657
 3578SOL    HW111950   1.197   6.482   4.435 -0.8143  1.3158 -2.0294
 3578SOL    HW211951   1.328   6.465   4.361  1.3033 -1.1023  1.9289
 3579SOL     OW11952   1.440   6.156   4.776 -0.1230 -0.0506  0.0761
 3579SOL    HW111953   1.446   6.088   4.709  2.8276  0.5857 -0.4699
 3579SOL    HW211954   1.418   6.235   4.727 -2.2959 -0.3189  0.5374
 3580SOL     OW11955   1.542   6.147   4.066 -0.1457 -0.0269  0.5367
 3580SOL    HW111956   1.500   6.137   3.980 -0.4799 -0.8359  0.7800
 3580SOL    HW211957   1.620   6.092   4.060  0.3764  0.7238  0.4103
 3581SOL     OW11958   0.362   7.262   3.472  0.1208  0.3222  0.1729
 3581SOL    HW111959   0.422   7.283   3.400 -0.5584  0.1840 -0.4453
 3581SOL    HW211960   0.276   7.260   3.431 -0.5088  1.9677  1.3171
 3582SOL     OW11961   1.456   7.134   4.246 -0.1070  0.0065 -0.2002
 3582SOL    HW111962   1.454   7.045   4.282  1.7837 -0.5515 -1.3331
 3582SOL    HW211963   1.541   7.168   4.271  1.1809 -0.2738 -3.6187
 3583SOL     OW11964   1.684   5.590   3.704  0.1337 -0.0712  0.3190
 3583SOL    HW111965   1.590   5.610   3.701  0.1094  0.1623  1.9763
 3583SOL    HW211966   1.688   5.496   3.721  0.2073 -0.1054  0.1165
 3584SOL     OW11967   0.655   5.222   3.850  0.2634 -0.2868 -0.1149
 3584SOL    HW111968   0.621   5.280   3.782  1.1723  0.7152  0.2550
 3584SOL    HW211969   0.582   5.213   3.912 -0.3803 -0.7606 -0.9357
 3585SOL     OW11970   1.412   6.744   4.815  0.1585  0.6085 -0.9289
 3585SOL    HW111971   1.450   6.812   4.759  1.5528  2.9447  2.5070
 3585SOL    HW211972   1.484   6.683   4.832 -0.6794 -1.0017 -2.7546
 3586SOL     OW11973   0.941   7.200   4.629  0.0051  0.2581 -0.2166
 3586SOL    HW111974   0.920   7.208   4.722 -0.7673 -0.1303 -0.3479
 3586SOL    HW211975   0.871   7.146   4.593 -0.7407  1.9246 -1.3891
 3587SOL     OW11976   1.565   6.983   5.357 -0.1900  0.3633  0.2021
 3587SOL    HW111977   1.565   6.953   5.266 -1.1665 -0.8469  0.5722
 3587SOL    HW211978   1.482   7.027   5.369 -0.5705 -0.4808  0.7961
 3588SOL     OW11979   1.090   6.269   4.334  0.1356  0.6240 -0.1243
 3588SOL    HW111980   1.003   6.302   4.312 -0.7833 -1.2765  0.4399
 3588SOL    HW211981   1.132   6.253   4.250  0.3327  2.4050 -0.4064
 3589SOL     OW11982   1.207   6.628   4.677  0.6388  0.3424  0.1250
 3589SOL    HW111983   1.277   6.666   4.731  0.9444 -0.5720  0.3881
 3589SOL    HW211984   1.247   6.615   4.591  0.4083  0.9994 -0.0850
 3590SOL     OW11985   0.903   5.927   4.970 -0.0784 -0.1988  0.4060
 3590SOL    HW111986   0.842   5.927   5.044  0.5785 -0.7123  0.9573
 3590SOL    HW211987   0.958   6.004   4.984 -0.5498  0.2304 -0.0596
 3591SOL     OW11988   0.917   6.696   5.431  0.0627  0.2265  0.0983
 3591SOL    HW111989   0.923   6.780   5.476 -0.2441 -0.5039  1.5340
 3591SOL    HW211990   0.851   6.710   5.363 -0.3451  0.9967  0.6427
 3592SOL     OW11991   0.448   6.379   4.034 -0.0997 -0.7138 -0.0570
 3592SOL    HW111992   0.494   6.445   4.086 -1.0349 -0.7960  0.8946
 3592SOL    HW211993   0.506   6.363   3.960  0.3307  0.8774 -0.0960
 3593SOL     OW11994   0.304   6.614   5.064 -0.2234 -0.5297 -0.5456
 3593SOL    HW111995   0.306   6.710   5.064 -0.5505 -0.5175  0.2883
 3593SOL    HW211996   0.394   6.588   5.085  0.1215 -0.4327 -1.7963
 3594SOL     OW11997   1.310   5.411   5.002  0.2249 -0.8673 -0.1555
 3594SOL    HW111998   1.255   5.340   5.034 -0.4982 -0.3562 -0.2389
 3594SOL    HW211999   1.360   5.373   4.930 -0.3723 -1.2084 -0.3942
 3595SOL     OW12000   0.240   7.001   4.985  0.0868 -0.1245  0.0888
 3595SOL    HW112001   0.191   7.064   5.038  0.5718 -0.3012  0.7675
 3595SOL    HW212002   0.300   6.959   5.047 -0.2882 -1.3312 -0.3349
 3596SOL     OW12003   0.233   6.501   3.940  0.2732 -0.3163 -0.0436
 3596SOL    HW112004   0.316   6.456   3.952  0.8567  0.9629  1.0053
 3596SOL    HW212005   0.169   6.432   3.927  1.3806 -1.3542 -0.1151
 3597SOL     OW12006   0.804   5.635   4.057 -0.4088  0.0229  0.5654
 3597SOL    HW112007   0.857   5.714   4.047 -0.9187  0.1616 -1.4396
 3597SOL    HW212008   0.714   5.668   4.066 -0.3916 -0.2757  2.1367
 3598SOL     OW12009   1.392   6.661   3.591  0.2243  0.3302 -0.0515
 3598SOL    HW112010   1.297   6.669   3.579 -0.0420 -1.6589  0.3957
 3598SOL    HW212011   1.409   6.704   3.674 -0.5516 -0.6429  0.6300
 3599SOL     OW12012   1.053   6.865   4.723  0.4015 -0.0949 -0.4159
 3599SOL    HW112013   1.049   6.782   4.771 -1.4460  0.2007  0.0264
 3599SOL    HW212014   1.036   6.840   4.632  0.7344 -0.2921 -0.4273
 3600SOL     OW12015   1.054   6.143   3.828  0.1338  0.2777  0.1739
 3600SOL    HW112016   1.033   6.051   3.812 -1.6651  0.6636  0.1139
 3600SOL    HW212017   1.090   6.174   3.745  0.4719 -0.2807  0.1033
 3601SOL     OW12018   0.356   7.041   4.755  0.0825 -0.0968  0.3098
 3601SOL    HW112019   0.341   7.055   4.849  1.4124  2.0325  0.2676
 3601SOL    HW212020   0.281   7.082   4.713  0.0416 -0.0617  0.4152
 3602SOL     OW12021   0.543   6.548   5.227  0.4220 -0.4689 -0.3233
 3602SOL    HW112022   0.557   6.471   5.282 -0.7331 -0.8003 -0.4515
 3602SOL    HW212023   0.623   6.600   5.237  0.3910 -0.6822  1.3991
 3603SOL     OW12024   1.426   6.005   5.641  0.8619  0.2860 -0.2005
 3603SOL    HW112025   1.415   5.910   5.644 -1.0541  0.5077  1.7377
 3603SOL    HW212026   1.436   6.025   5.548  1.3823 -1.7990 -0.6379
 3604SOL     OW12027   0.960   5.832   5.461 -0.0404 -0.0299  0.0181
 3604SOL    HW112028   1.041   5.883   5.448  1.5947 -2.3206  0.5706
 3604SOL    HW212029   0.951   5.782   5.380 -0.3427 -0.5009  0.3417
 3605SOL     OW12030   0.518   6.093   5.353  0.4305  0.1228 -0.1048
 3605SOL    HW112031   0.498   6.132   5.438 -0.3172  0.8592 -0.5986
 3605SOL    HW212032   0.610   6.068   5.359  0.4178  0.2443  0.8799
 3606SOL     OW12033   0.402   6.459   4.581  0.1290 -0.2541 -0.3882
 3606SOL    HW112034   0.378   6.452   4.673  2.1135  1.1264  0.2815
 3606SOL    HW212035   0.497   6.461   4.580  0.1416  1.3315 -2.3370
 3607SOL     OW12036   1.235   6.359   4.880  0.5574  0.5118  0.4930
 3607SOL    HW112037   1.276   6.409   4.809  1.8008 -1.0072  0.0942
 3607SOL    HW212038   1.155   6.409   4.901  0.9009  1.7670 -0.9736
 3608SOL     OW12039   1.363   5.722   4.254 -0.5721 -0.6795  0.0343
 3608SOL    HW112040   1.336   5.814   4.261  0.7807 -0.2762  0.3812
 3608SOL    HW212041   1.428   5.711   4.323  1.1382 -1.1865 -1.5621
 3609SOL     OW12042   0.175   5.855   5.009 -0.0174  0.1452  0.2662
 3609SOL    HW112043   0.238   5.784   4.992  0.4293  1.0140 -2.1173
 3609SOL    HW212044   0.136   5.873   4.924 -2.7416  0.4153  1.4747
 3610SOL     OW12045   8.653   6.948   4.977  0.4377  0.3199  0.4405
 3610SOL    HW112046   8.728   6.911   4.930 -0.4148  1.3141 -1.8386
 3610SOL    HW212047   8.692   6.984   5.058  2.7966  2.2102 -1.3508
 3611SOL     OW12048   0.438   6.262   4.377 -0.2589 -0.1985  0.3083
 3611SOL    HW112049   0.360   6.236   4.328 -0.8667  0.9437  0.6357
 3611SOL    HW212050   0.408   6.333   4.434  1.1780  0.8043 -0.1275
 3612SOL     OW12051   1.265   7.088   5.132  0.2656  0.2559  0.0488
 3612SOL    HW112052   1.295   7.126   5.214  0.3863 -0.2696  0.2482
 3612SOL    HW212053   1.323   7.014   5.117 -1.3771 -1.2714  0.8409
 3613SOL     OW12054   0.164   5.241   4.353 -0.1067 -0.6246 -0.6697
 3613SOL    HW112055   0.167   5.200   4.439 -1.9169 -1.0205 -0.7427
 3613SOL    HW212056   0.104   5.315   4.363  2.6134  1.7583 -0.7004
 3614SOL     OW12057   1.421   5.649   3.737  0.4892  0.2134  0.3842
 3614SOL    HW112058   1.382   5.636   3.823 -0.3155  1.5762  0.2491
 3614SOL    HW212059   1.419   5.744   3.723  2.4947  0.2178 -0.2711
 3615SOL     OW12060   0.735   6.381   4.611  0.1458 -0.3925  0.1058
 3615SOL    HW112061   0.726   6.304   4.667 -0.9200 -0.3902 -0.0541
 3615SOL    HW212062   0.825   6.410   4.626  0.9342 -2.3148 -0.6753
 3616SOL     OW12063   0.627   6.981   5.222  0.0133 -0.5168 -0.4116
 3616SOL    HW112064   0.655   7.009   5.135  0.7582 -1.2223 -0.4105
 3616SOL    HW212065   0.640   7.058   5.277 -0.0498 -0.1977 -0.8400
 3617SOL     OW12066   1.592   6.595   4.985 -0.5818 -0.3734  0.6706
 3617SOL    HW112067   1.581   6.500   4.978  0.4936 -0.5206  0.8697
 3617SOL    HW212068   1.550   6.617   5.068 -0.7055 -0.6922  0.6983
 3618SOL     OW12069   0.030   6.681   5.280  0.1753 -0.1222 -0.4487
 3618SOL    HW112070   0.090   6.755   5.285  0.0965 -0.0879  0.0443
 3618SOL    HW212071   0.064   6.627   5.208  0.6867 -0.0041 -0.2985
 3619SOL     OW12072   1.814   5.452   3.992  0.0595 -0.0083  0.4826
 3619SOL    HW112073   1.736   5.422   3.946  0.0971  1.1920 -0.4185
 3619SOL    HW212074   1.880   5.386   3.972 -0.4439 -0.4947  0.3924
 3620SOL     OW12075   1.596   6.269   3.541 -0.3767 -0.1670  0.5151
 3620SOL    HW112076   1.663   6.336   3.555  0.2681 -0.5644 -0.5038
 3620SOL    HW212077   1.537   6.307   3.476 -0.8446 -0.0362  1.0048
 3621SOL     OW12078   1.031   6.600   4.196 -0.0787  0.2956 -0.0040
 3621SOL    HW112079   0.971   6.526   4.187  1.0528 -0.6005 -0.4552
 3621SOL    HW212080   1.002   6.644   4.275 -4.4923  2.9098 -2.6696
 3622SOL     OW12081   0.211   5.808   4.457 -0.0228  0.0919 -0.0024
 3622SOL    HW112082   0.290   5.794   4.404 -0.0610  1.7124 -0.5228
 3622SOL    HW212083   0.224   5.751   4.534  0.0320 -2.3102 -1.6783
 3623SOL     OW12084   0.177   6.238   4.698 -0.1092  0.7123  0.2864
 3623SOL    HW112085   0.244   6.184   4.739 -0.6953 -2.3082 -2.3169
 3623SOL    HW212086   0.100   6.230   4.754 -0.0264 -0.8266  0.2008
 3624SOL     OW12087   1.285   5.832   5.111  0.2644 -0.6278 -0.1750
 3624SOL    HW112088   1.377   5.820   5.087  0.2299 -2.2470  0.3670
 3624SOL    HW212089   1.252   5.898   5.050  2.1105  1.0059  0.4730
 3625SOL     OW12090   1.137   5.592   5.126  0.0469 -0.0656 -0.0607
 3625SOL    HW112091   1.172   5.522   5.071 -0.6641  0.6393 -1.4529
 3625SOL    HW212092   1.188   5.669   5.102 -0.4434  0.3098  0.0818
 3626SOL     OW12093   0.198   6.794   3.811  0.1764 -0.4596 -0.3699
 3626SOL    HW112094   0.227   6.760   3.896  0.5477 -0.6015 -0.5502
 3626SOL    HW212095   0.233   6.884   3.809 -1.4881  0.2587  0.4529
 3627SOL     OW12096   0.370   7.200   4.454 -0.1487 -0.1045 -0.1661
 3627SOL    HW112097   0.309   7.151   4.509  0.3099  0.7629  1.1672
 3627SOL    HW212098   0.319   7.223   4.376 -0.2114 -3.2195 -1.2160
 3628SOL     OW12099   0.948   7.319   4.307 -0.2071 -0.1160 -0.3098
 3628SOL    HW112100   0.903   7.305   4.390 -0.0993  0.7531 -0.1013
 3628SOL    HW212101   1.041   7.324   4.330 -0.1245 -0.4606 -0.5587
 3629SOL     OW12102   1.000   6.416   4.651 -0.6771 -0.7798 -0.2226
 3629SOL    HW112103   1.044   6.335   4.624 -2.0101 -1.1812 -1.3188
 3629SOL    HW212104   1.069   6.481   4.653  0.0932 -1.5216 -1.2900
 3630SOL     OW12105   8.542   5.947   4.893  0.3112 -0.2305 -0.6266
 3630SOL    HW112106   8.530   5.919   4.984 -1.3910  0.2062 -0.6637
 3630SOL    HW212107   8.485   6.024   4.885  0.0591 -0.5445 -2.1717
 3631SOL     OW12108   1.099   6.543   5.277 -0.3887  0.4220 -0.0229
 3631SOL    HW112109   1.068   6.462   5.237 -0.6921  1.7387 -2.7185
 3631SOL    HW212110   1.024   6.577   5.326 -1.1981  0.4380 -1.2373
 3632SOL     OW12111   0.880   5.948   4.255 -0.5213 -0.0422 -0.7793
 3632SOL    HW112112   0.857   6.035   4.287 -2.1975 -0.9959  0.8121
 3632SOL    HW212113   0.862   5.951   4.161  0.1509  1.5121 -0.8799
 3633SOL     OW12114   1.342   6.031   4.529 -0.3220  0.4030 -0.1553
 3633SOL    HW112115   1.350   6.047   4.435  1.8687  0.5992  0.0204
 3633SOL    HW212116   1.297   5.947   4.535 -1.2388  0.7683 -1.3317
 3634SOL     OW12117   0.116   7.222   5.131 -0.8602  0.0412 -0.0722
 3634SOL    HW112118   0.179   7.263   5.190 -1.7256 -1.0915  1.7438
 3634SOL    HW212119   0.081   7.294   5.079  0.3575  1.0034  0.4042
 3635SOL     OW12120   0.598   5.960   4.837 -0.4531  0.3247  0.0316
 3635SOL    HW112121   0.614   5.919   4.922  1.2858  2.0702  0.6141
 3635SOL    HW212122   0.653   5.912   4.776 -1.5926 -0.8354 -0.1267
 3636SOL     OW12123   0.755   6.747   5.232 -0.1578  0.0556  0.0197
 3636SOL    HW112124   0.707   6.828   5.249 -0.4078  0.0372 -0.5784
 3636SOL    HW212125   0.836   6.776   5.189 -0.0220  0.0192  0.2459
 3637SOL     OW12126   0.352   5.859   3.771 -0.0028  0.9474 -0.1395
 3637SOL    HW112127   0.272   5.839   3.722  0.8937  0.9711 -1.6534
 3637SOL    HW212128   0.340   5.950   3.799 -0.2562  1.1297 -0.8317
 3638SOL     OW12129   0.099   6.798   4.843 -0.3645 -0.1738 -0.5164
 3638SOL    HW112130   0.126   6.885   4.874 -1.8046  0.4650 -0.9755
 3638SOL    HW212131   0.117   6.800   4.749  1.9895 -1.3374 -0.1641
 3639SOL     OW12132   1.009   6.790   4.461  0.0566  0.4477 -0.4683
 3639SOL    HW112133   1.010   6.871   4.410  1.2633 -0.3410 -1.8068
 3639SOL    HW212134   0.920   6.785   4.496  0.2315  2.8190  0.5150
 3640SOL     OW12135   1.590   6.050   3.692 -0.3758  0.0958  1.2411
 3640SOL    HW112136   1.590   6.138   3.654 -0.5583  0.3501  1.8333
 3640SOL    HW212137   1.678   6.039   3.727 -0.5400  0.2811  1.7171
 3641SOL     OW12138   1.689   7.041   4.909 -0.0778  0.0899 -0.2875
 3641SOL    HW112139   1.645   7.091   4.841  0.2510  0.1292 -0.4715
 3641SOL    HW212140   1.779   7.071   4.907 -0.7646  2.8961  2.7067
 3642SOL     OW12141   1.592   7.424   4.590  0.6288 -0.2472 -0.4418
 3642SOL    HW112142   1.560   7.454   4.505  1.4930 -1.4873 -1.2432
 3642SOL    HW212143   1.521   7.371   4.626  0.0902  0.6364 -0.1733
 3643SOL     OW12144   8.741   6.991   4.469 -0.6946  0.9567  0.0651
 3643SOL    HW112145   8.768   6.906   4.436  1.4411  1.5124  0.2244
 3643SOL    HW212146   8.667   6.972   4.527 -0.6077 -0.7094 -0.3231
 3644SOL     OW12147   0.545   7.380   5.063 -0.2278 -0.1676 -0.0839
 3644SOL    HW112148   0.471   7.431   5.030  0.3227  1.1375  0.6683
 3644SOL    HW212149   0.531   7.376   5.158  0.8818  0.4679  0.1223
 3645SOL     OW12150   1.741   5.499   4.252  0.6894 -0.1205  0.5663
 3645SOL    HW112151   1.768   5.473   4.164  0.1712  0.3165  0.2709
 3645SOL    HW212152   1.652   5.464   4.261  0.3555  0.7049  0.5287
 3646SOL     OW12153   1.327   7.463   4.040  0.4220  0.1027  0.0944
 3646SOL    HW112154   1.419   7.473   4.016  0.2017  2.0087 -0.0883
 3646SOL    HW212155   1.295   7.394   3.981  1.7284 -0.6556  0.2204
 3647SOL     OW12156   8.718   7.458   5.139 -0.1506  0.7283  0.0736
 3647SOL    HW112157   8.760   7.414   5.064 -0.7959 -0.3990  0.3487
 3647SOL    HW212158   8.664   7.526   5.099 -0.3430  0.2576 -0.4849
 3648SOL     OW12159   0.919   6.387   3.891 -0.4085 -0.0110 -0.4511
 3648SOL    HW112160   0.941   6.298   3.864  0.7112 -0.0823  0.6255
 3648SOL    HW212161   0.980   6.443   3.843 -0.0583  0.0528  0.0680
 3649SOL     OW12162   0.866   6.348   5.281  0.1430 -0.3920  0.1346
 3649SOL    HW112163   0.797   6.354   5.347  0.7914  0.1312  0.7855
 3649SOL    HW212164   0.830   6.291   5.213 -0.2295 -1.6432  1.3434
 3650SOL     OW12165   0.835   7.409   3.518 -0.3234 -0.0971 -0.3729
 3650SOL    HW112166   0.838   7.423   3.423  3.5251 -0.2565 -0.4254
 3650SOL    HW212167   0.827   7.497   3.554  2.3432  0.4427 -0.9036
 3651SOL     OW12168   1.200   7.350   5.035 -0.6671  0.4140 -0.0089
 3651SOL    HW112169   1.205   7.350   5.130  1.7537 -0.4936 -0.0794
 3651SOL    HW212170   1.229   7.262   5.009 -0.6942  0.8438 -1.6100
 3652SOL     OW12171   1.909   5.430   4.973 -0.2332  0.1650  0.0667
 3652SOL    HW112172   1.928   5.495   5.041  0.8253 -0.1424  0.0781
 3652SOL    HW212173   1.956   5.461   4.896 -0.4016 -0.1534 -0.1676
 3653SOL     OW12174   0.305   5.610   5.030 -0.3706 -0.1894 -0.0947
 3653SOL    HW112175   0.337   5.549   4.963 -3.0418 -1.2538 -0.5108
 3653SOL    HW212176   0.329   5.569   5.113 -0.5496 -0.8898 -0.3836
 3654SOL     OW12177   0.935   6.910   3.697 -0.1927  0.5589 -0.1994
 3654SOL    HW112178   0.941   6.905   3.792 -1.6023  0.5221 -0.0850
 3654SOL    HW212179   0.904   6.999   3.680 -1.3204  0.1269 -0.5110
 3655SOL     OW12180   1.000   6.479   4.971  0.1450 -0.2375  0.2043
 3655SOL    HW112181   1.049   6.556   4.998  0.1746 -0.0635 -0.3424
 3655SOL    HW212182   0.909   6.509   4.964  0.0617 -0.3966  0.5564
 3656SOL     OW12183   0.748   6.145   3.846 -0.3458 -0.2367  0.1596
 3656SOL    HW112184   0.745   6.240   3.856  0.6214 -0.1389 -0.3314
 3656SOL    HW212185   0.743   6.130   3.752  3.3981 -0.4162 -0.1569
 3657SOL     OW12186   1.933   7.161   3.651 -0.1741  0.0877 -0.6516
 3657SOL    HW112187   1.858   7.102   3.660 -1.0903  1.3921  0.7357
 3657SOL    HW212188   1.953   7.188   3.741  1.4968  0.3473 -1.0741
 3658SOL     OW12189   0.372   6.872   5.181  0.2173 -0.3895 -0.3757
 3658SOL    HW112190   0.333   6.883   5.268  0.0412 -1.5184 -0.2974
 3658SOL    HW212191   0.460   6.908   5.190  0.4697 -1.2109  0.4984
 3659SOL     OW12192   0.938   7.021   4.950  0.0058  0.9918  1.0427
 3659SOL    HW112193   0.843   7.016   4.962 -0.1362  0.5625 -0.1619
 3659SOL    HW212194   0.955   6.971   4.870  1.1536  1.7454  0.7953
 3660SOL     OW12195   0.663   6.397   3.857 -0.6023  0.2671 -0.3857
 3660SOL    HW112196   0.617   6.477   3.831 -0.9048 -0.4221 -2.0967
 3660SOL    HW212197   0.756   6.422   3.858 -0.8059  1.0100  0.5572
 3661SOL     OW12198   1.198   5.785   4.552  0.4432  0.0671 -0.1753
 3661SOL    HW112199   1.212   5.720   4.621 -1.2769 -1.3523 -1.0768
 3661SOL    HW212200   1.103   5.794   4.548  0.5518  0.6632 -1.8628
 3662SOL     OW12201   0.544   6.919   3.779 -0.6488 -0.6718 -0.1920
 3662SOL    HW112202   0.511   6.956   3.697  1.4954 -0.4787 -1.0513
 3662SOL    HW212203   0.517   6.981   3.846 -0.6995  0.2738 -1.0605
 3663SOL     OW12204   1.782   5.791   4.604 -0.4317 -0.4436 -0.2014
 3663SOL    HW112205   1.877   5.805   4.602 -0.3512 -0.9594 -0.1448
 3663SOL    HW212206   1.757   5.808   4.695 -0.9241  2.9162 -0.8127
 3664SOL     OW12207   0.437   7.050   3.992 -0.7652  0.4617  0.2474
 3664SOL    HW112208   0.368   7.065   3.927 -0.5475 -0.6713 -0.2731
 3664SOL    HW212209   0.391   7.006   4.064 -0.6197 -0.2473 -0.0780
 3665SOL     OW12210   8.705   6.665   5.471  0.2650 -0.6591  0.3257
 3665SOL    HW112211   8.630   6.612   5.444  0.0587 -0.5287  0.6325
 3665SOL    HW212212   8.760   6.671   5.393 -0.6875  0.3406 -0.2902
 3666SOL     OW12213   0.660   5.889   5.115  0.1066 -0.0118 -0.6143
 3666SOL    HW112214   0.706   5.853   5.191 -1.4660  1.1626  0.9883
 3666SOL    HW212215   0.572   5.852   5.121 -0.8949  2.2711 -0.1711
 3667SOL     OW12216   0.060   5.811   3.779 -0.4842 -0.2775  0.1637
 3667SOL    HW112217   0.064   5.746   3.709  1.1510 -0.3301  0.2845
 3667SOL    HW212218  -0.010   5.779   3.837 -0.0131 -1.6877 -0.0113
 3668SOL     OW12219   1.327   6.381   5.269 -0.0668 -0.0711  0.2131
 3668SOL    HW112220   1.251   6.440   5.278  0.1855  0.0262  2.0427
 3668SOL    HW212221   1.401   6.440   5.257 -0.1288 -0.1270 -0.4816
 3669SOL     OW12222   0.226   5.769   4.031 -0.3922  0.3334 -0.1174
 3669SOL    HW112223   0.207   5.762   3.937 -1.1596  0.3160  0.0371
 3669SOL    HW212224   0.220   5.679   4.063 -0.0815  0.3323 -0.0557
 3670SOL     OW12225   1.160   6.541   3.777  0.6911 -0.1107  0.1221
 3670SOL    HW112226   1.162   6.623   3.728 -3.2389  1.4776  2.1171
 3670SOL    HW212227   1.130   6.476   3.714 -0.9762  1.1412 -0.4760
 3671SOL     OW12228   0.450   6.798   4.819  0.6334  0.4511 -0.0256
 3671SOL    HW112229   0.415   6.885   4.797  0.4755  0.0473 -1.4241
 3671SOL    HW212230   0.376   6.739   4.804  1.3383 -0.1725 -1.0928
 3672SOL     OW12231   1.503   6.969   4.636 -0.1969 -0.2453 -0.1863
 3672SOL    HW112232   1.427   6.956   4.579 -1.8242  1.5027  1.4314
 3672SOL    HW212233   1.497   7.061   4.662  1.8146 -0.3889  0.9700
 3673SOL     OW12234   0.739   6.194   5.114 -0.2335  0.6491 -0.3473
 3673SOL    HW112235   0.715   6.102   5.107 -0.7653  0.7805 -0.2917
 3673SOL    HW212236   0.693   6.237   5.043 -0.2813  0.9314 -0.1484
 3674SOL     OW12237   1.485   6.910   5.052  0.0026  0.1678  0.1210
 3674SOL    HW112238   1.557   6.952   5.005 -0.9074  1.6248 -0.0103
 3674SOL    HW212239   1.464   6.833   4.999  1.9917 -0.7804  0.6103
 3675SOL     OW12240   0.157   7.101   4.590  0.0927 -0.1183 -0.4068
 3675SOL    HW112241   0.148   7.009   4.563  0.5030 -0.0178 -0.9051
 3675SOL    HW212242   0.069   7.127   4.616  0.2480 -1.1280  1.3270
 3676SOL     OW12243   1.726   6.473   4.560 -0.3632  0.1418 -0.3225
 3676SOL    HW112244   1.713   6.563   4.589  1.7027  0.2261  0.5275
 3676SOL    HW212245   1.813   6.450   4.593 -1.2774 -2.5425  0.4046
 3677SOL     OW12246   1.585   5.663   4.480 -0.3189  0.0263 -0.6695
 3677SOL    HW112247   1.655   5.710   4.525  0.1382 -1.6681  0.4766
 3677SOL    HW212248   1.630   5.599   4.425 -0.9549  0.0970 -1.2942
 3678SOL     OW12249   0.445   5.709   4.327  0.7213 -0.2601  0.1805
 3678SOL    HW112250   0.429   5.650   4.254  0.4418  0.3555 -0.2628
 3678SOL    HW212251   0.485   5.654   4.394 -0.5248 -1.1866  0.1953
 3679SOL     OW12252   1.807   6.033   5.441 -0.2662  0.2477 -0.5347
 3679SOL    HW112253   1.890   6.020   5.485 -0.7073  1.0352  0.5626
 3679SOL    HW212254   1.768   6.109   5.484 -1.5347 -0.0811 -1.0519
 3680SOL     OW12255   1.552   6.294   5.011  0.3953  0.4205  0.1129
 3680SOL    HW112256   1.469   6.306   5.057  0.5137 -1.9725  1.0856
 3680SOL    HW212257   1.528   6.250   4.929  0.4679  2.2111 -0.9115
 3681SOL     OW12258   0.359   7.007   3.553 -0.0174  0.7646  0.0912
 3681SOL    HW112259   0.335   6.938   3.491  0.8067 -1.3419  1.9672
 3681SOL    HW212260   0.376   7.083   3.499  0.4811 -0.9093 -2.2681
 3682SOL     OW12261   1.231   7.339   4.651  0.1663  0.5204  0.1135
 3682SOL    HW112262   1.178   7.259   4.648 -1.7127  1.7074 -0.2019
 3682SOL    HW212263   1.168   7.409   4.639  1.8606  2.0376 -0.2760
 3683SOL     OW12264   0.880   6.389   4.156 -0.0893 -0.1910 -0.1787
 3683SOL    HW112265   0.803   6.336   4.178 -0.5859  0.2635 -0.7981
 3683SOL    HW212266   0.887   6.383   4.061 -0.2094  0.9353 -0.2670
 3684SOL     OW12267   1.039   6.389   3.596 -0.1492  0.6788 -1.0976
 3684SOL    HW112268   1.056   6.313   3.541 -0.3651  0.3820 -0.7629
 3684SOL    HW212269   0.968   6.436   3.551  0.0672  0.7497 -1.3662
 3685SOL     OW12270   1.204   7.247   4.247 -0.6064  0.0983 -0.0409
 3685SOL    HW112271   1.292   7.216   4.226 -0.7368  0.1815 -0.7431
 3685SOL    HW212272   1.167   7.273   4.163 -2.3970 -2.7543 -0.2656
 3686SOL     OW12273   0.138   6.936   5.396 -0.0973 -0.0851 -0.1912
 3686SOL    HW112274   0.101   6.949   5.484 -0.4274 -0.4215 -0.2797
 3686SOL    HW212275   0.229   6.966   5.404 -0.5885  1.5029 -0.1708
 3687SOL     OW12276   0.229   7.195   4.220 -0.2298 -0.1917 -0.8017
 3687SOL    HW112277   0.242   7.101   4.232  0.1798 -0.1387 -0.8362
 3687SOL    HW212278   0.161   7.201   4.152 -0.2140 -0.4608 -0.8422
 3688SOL     OW12279   1.005   6.967   5.230  0.0623  0.0589 -0.2321
 3688SOL    HW112280   0.981   7.060   5.223 -0.0855  0.0312 -0.0774
 3688SOL    HW212281   1.090   6.962   5.186  0.7790  0.5502  1.0425
 3689SOL     OW12282   1.606   5.407   4.919 -0.4005  0.1813  0.7987
 3689SOL    HW112283   1.700   5.403   4.934 -0.6840 -1.0854  2.5767
 3689SOL    HW212284   1.570   5.444   5.000 -1.5091 -0.4230  0.6113
 3690SOL     OW12285   0.578   6.052   4.103  0.4916  0.4177  0.5112
 3690SOL    HW112286   0.641   6.069   4.034 -0.6295  1.2224 -0.3626
 3690SOL    HW212287   0.588   6.126   4.163  0.9191  0.1321  0.7944
 3691SOL     OW12288   1.469   7.214   4.784 -0.2680  0.4967 -0.1094
 3691SOL    HW112289   1.475   7.283   4.850 -0.9544  1.0890 -0.6538
 3691SOL    HW212290   1.376   7.206   4.766 -0.1913 -0.5504 -0.0960
 3692SOL     OW12291   0.359   6.451   4.854 -0.3568  0.8665 -0.2683
 3692SOL    HW112292   0.279   6.399   4.860 -0.5423  1.2709  1.0545
 3692SOL    HW212293   0.349   6.518   4.921  2.0648 -0.4287  1.5295
 3693SOL     OW12294   0.610   7.100   4.200 -0.0764  0.5251  0.0746
 3693SOL    HW112295   0.554   7.056   4.136 -1.5450 -0.4125  1.9178
 3693SOL    HW212296   0.572   7.187   4.209 -0.8874  0.1050  0.8498
 3694SOL     OW12297   1.499   5.732   4.949 -0.1339 -0.4066  0.2095
 3694SOL    HW112298   1.578   5.770   4.910  0.0941  0.4097  1.4174
 3694SOL    HW212299   1.472   5.664   4.887  0.5415  0.4423 -1.0647
 3695SOL     OW12300   0.756   5.449   4.613 -0.8014 -0.0565 -0.3706
 3695SOL    HW112301   0.819   5.520   4.613  0.7633 -1.3599  0.7337
 3695SOL    HW212302   0.793   5.383   4.554 -0.3612 -1.3929  1.2850
 3696SOL     OW12303   0.740   6.689   3.543  0.0853  0.0180 -0.2255
 3696SOL    HW112304   0.828   6.706   3.508  0.2155 -1.0306 -0.4478
 3696SOL    HW212305   0.753   6.684   3.638 -0.2080  2.5168 -0.0003
 3697SOL     OW12306   0.636   7.499   4.824 -0.2315  0.1913 -0.0630
 3697SOL    HW112307   0.600   7.447   4.752 -0.1867 -0.6905  0.5341
 3697SOL    HW212308   0.671   7.434   4.886 -1.2405  0.8755  1.2778
 3698SOL     OW12309   1.468   5.415   4.269 -0.1636  0.3217  0.1242
 3698SOL    HW112310   1.410   5.490   4.254  1.4909  2.0024  1.5683
 3698SOL    HW212311   1.434   5.375   4.349  1.6278  2.4759  2.1109
 3699SOL     OW12312   0.979   6.209   4.909  0.0158  0.1144  0.6651
 3699SOL    HW112313   0.996   6.298   4.940  1.9352 -0.2449  0.8067
 3699SOL    HW212314   1.026   6.203   4.826  0.7108 -1.0336  1.1168
 3700SOL     OW12315   1.415   5.524   4.731 -0.5101  0.6231 -0.9094
 3700SOL    HW112316   1.446   5.548   4.644 -0.3920  1.1701 -0.7237
 3700SOL    HW212317   1.463   5.445   4.753 -2.2048 -0.8867 -2.2818
 3701SOL     OW12318   0.053   6.310   3.899  0.6747  0.0312 -0.0861
 3701SOL    HW112319   0.035   6.235   3.843  0.2909  1.0626 -1.3943
 3701SOL    HW212320  -0.010   6.303   3.970 -0.7511  0.2109 -1.2933
 3702SOL     OW12321   0.974   6.887   3.990  0.6959  0.3521 -0.7085
 3702SOL    HW112322   0.952   6.958   4.051  0.6863 -0.3986  0.1911
 3702SOL    HW212323   1.028   6.828   4.042 -0.6813 -1.1535 -0.9247
 3703SOL     OW12324   0.396   6.243   5.582 -0.3183  0.0369 -0.1014
 3703SOL    HW112325   0.307   6.271   5.606 -0.6201 -0.2265 -0.8564
 3703SOL    HW212326   0.447   6.324   5.582 -0.7807  0.3407 -0.5635
 3704SOL     OW12327   8.746   5.801   6.502 -0.1198 -0.1634  0.4610
 3704SOL    HW112328   8.799   5.769   6.429  0.6359  1.3213  0.3326
 3704SOL    HW212329   8.746   5.896   6.492 -2.2370 -0.0811  0.8797
 3705SOL     OW12330   8.788   5.884   6.228 -1.0390 -0.1947 -0.1849
 3705SOL    HW112331   8.831   5.801   6.208  0.4789  0.9031 -1.8773
 3705SOL    HW212332   8.703   5.879   6.184 -0.4102 -0.3605 -1.4178
 3706SOL     OW12333   0.567   7.066   6.476 -0.2143 -0.1654 -0.0543
 3706SOL    HW112334   0.578   7.160   6.463 -0.4415  0.0702  1.3697
 3706SOL    HW212335   0.654   7.034   6.498 -0.2852 -0.1580  0.2372
 3707SOL     OW12336   1.318   6.983   6.169  0.1725  0.4772  0.3120
 3707SOL    HW112337   1.294   6.893   6.192 -0.8738  0.9067  0.9329
 3707SOL    HW212338   1.408   6.976   6.137 -0.6119 -1.1237 -1.7428
 3708SOL     OW12339   1.063   6.247   6.178  0.2090 -0.0489 -0.1387
 3708SOL    HW112340   1.131   6.256   6.112  0.4899 -0.7952  0.0415
 3708SOL    HW212341   1.083   6.314   6.243  0.1672  0.4188 -0.6008
 3709SOL     OW12342   1.582   6.243   5.749  0.0910 -1.4241 -0.1685
 3709SOL    HW112343   1.539   6.159   5.739  1.1383 -2.0272  0.1790
 3709SOL    HW212344   1.534   6.286   5.820 -2.2412 -0.4852 -2.1651
 3710SOL     OW12345   0.294   6.804   6.466 -0.0752 -0.0924  0.1952
 3710SOL    HW112346   0.316   6.806   6.559 -2.4413 -2.4125  0.9218
 3710SOL    HW212347   0.199   6.815   6.464 -0.0582  0.0493 -1.9782
 3711SOL     OW12348   0.820   6.299   7.625 -0.3714 -0.3012 -0.0358
 3711SOL    HW112349   0.833   6.393   7.637 -1.6114  0.0798 -1.3583
 3711SOL    HW212350   0.777   6.270   7.705  2.8725 -0.4522  1.8232
 3712SOL     OW12351   0.451   6.585   6.132  0.1089  0.5310 -0.0490
 3712SOL    HW112352   0.395   6.608   6.057  1.4752  0.7755 -1.0361
 3712SOL    HW212353   0.451   6.663   6.187  0.7066  1.0877 -0.8299
 3713SOL     OW12354   0.571   6.760   7.795  0.3704  0.7992  0.3023
 3713SOL    HW112355   0.555   6.731   7.706 -0.7488  0.9550  0.4397
 3713SOL    HW212356   0.596   6.852   7.786  1.3838  0.5150  0.0739
 3714SOL     OW12357   0.662   7.320   6.398  0.6675 -0.3630 -0.0660
 3714SOL    HW112358   0.567   7.333   6.398  0.4688 -1.6949  0.0075
 3714SOL    HW212359   0.691   7.356   6.314  0.2452  0.9477  0.3324
 3715SOL     OW12360   1.445   6.988   7.113 -0.1322 -0.8471  0.0584
 3715SOL    HW112361   1.434   6.920   7.179 -0.6392 -1.3703 -0.5465
 3715SOL    HW212362   1.540   6.998   7.104  0.0706  1.5636  3.1792
 3716SOL     OW12363   8.796   6.043   7.170 -0.5489  0.0695  0.4481
 3716SOL    HW112364   8.884   6.006   7.182 -0.8555 -0.6779  0.4839
 3716SOL    HW212365   8.745   5.970   7.133 -1.2065  0.4315  0.6343
 3717SOL     OW12366   1.684   6.613   6.672 -0.3528  0.0568  0.3618
 3717SOL    HW112367   1.641   6.693   6.641  0.8731  1.1495  1.3654
 3717SOL    HW212368   1.665   6.610   6.766  0.3629 -0.3341  0.5017
 3718SOL     OW12369   0.138   7.250   5.943  0.0397  0.3115  0.3149
 3718SOL    HW112370   0.121   7.313   5.874 -1.9100 -0.3948  0.0940
 3718SOL    HW212371   0.083   7.278   6.016 -0.5982 -0.9316  0.3291
 3719SOL     OW12372   1.144   6.948   7.374  0.3674 -0.1299  0.1128
 3719SOL    HW112373   1.201   6.953   7.450  1.2747  0.9039 -0.6122
 3719SOL    HW212374   1.110   7.037   7.363 -0.0056 -0.3434 -0.4970
 3720SOL     OW12375   0.299   7.000   5.823  0.0311 -0.0520  0.5345
 3720SOL    HW112376   0.299   7.091   5.850  0.9270  0.0505  0.2174
 3720SOL    HW212377   0.276   6.951   5.901 -0.5954  0.4533  0.6717
 3721SOL     OW12378   8.634   6.999   6.160  0.4510  0.2623  0.3761
 3721SOL    HW112379   8.595   6.915   6.187 -0.1993  0.7078  0.8628
 3721SOL    HW212380   8.584   7.065   6.209  0.1010  1.0254 -0.9751
 3722SOL     OW12381   0.594   7.388   6.988 -0.1792  0.2316 -1.0259
 3722SOL    HW112382   0.579   7.313   6.929 -0.7671 -0.1778 -0.3737
 3722SOL    HW212383   0.513   7.439   6.981 -0.8100 -0.5084  0.3954
 3723SOL     OW12384   0.751   6.494   5.752  0.6117 -0.2465  0.0190
 3723SOL    HW112385   0.824   6.443   5.788 -0.2336 -2.6671 -1.4293
 3723SOL    HW212386   0.676   6.468   5.805  0.1413 -0.6080 -0.8187
 3724SOL     OW12387   1.284   5.704   6.869 -0.0660  0.2048 -0.0007
 3724SOL    HW112388   1.357   5.689   6.808  2.4110  2.4586  2.1728
 3724SOL    HW212389   1.218   5.747   6.815  1.5024  0.9984 -1.4060
 3725SOL     OW12390   8.347   6.222   6.005 -0.6425 -0.1227 -0.1649
 3725SOL    HW112391   8.288   6.290   5.974  0.0129  0.2576 -0.6038
 3725SOL    HW212392   8.361   6.242   6.098  1.0690  1.5314 -0.7030
 3726SOL     OW12393   1.514   7.217   5.729 -0.4844  0.3104 -0.0791
 3726SOL    HW112394   1.427   7.181   5.745 -0.6549  0.3556 -0.8795
 3726SOL    HW212395   1.500   7.290   5.669  0.0801  0.4631 -0.0388
 3727SOL     OW12396   0.625   7.163   5.406  0.6305  0.3297  0.6070
 3727SOL    HW112397   0.685   7.215   5.459  0.7317  0.0502  0.7666
 3727SOL    HW212398   0.563   7.227   5.370  1.6000  0.7625 -0.3514
 3728SOL     OW12399   1.492   6.593   6.119 -0.1318 -0.0265 -0.2303
 3728SOL    HW112400   1.541   6.644   6.184 -1.9197  2.0010 -0.3470
 3728SOL    HW212401   1.425   6.547   6.170  0.3887 -0.8943 -0.3206
 3729SOL     OW12402   1.548   6.630   5.490 -0.6262 -0.4094  0.0221
 3729SOL    HW112403   1.549   6.534   5.493  0.9740 -0.3923  1.8555
 3729SOL    HW212404   1.541   6.657   5.582 -0.4456  1.2479 -0.4112
 3730SOL     OW12405   0.489   6.707   6.965 -0.0837  0.0880  0.2311
 3730SOL    HW112406   0.527   6.626   7.000  1.7984  0.8282 -0.0054
 3730SOL    HW212407   0.434   6.740   7.036 -0.1511 -0.9208  0.6726
 3731SOL     OW12408   8.731   6.725   6.334 -0.1761  0.1895  0.1790
 3731SOL    HW112409   8.766   6.785   6.399  0.1077  0.5531 -0.3026
 3731SOL    HW212410   8.803   6.711   6.273 -1.0273  1.4214 -1.1622
 3732SOL     OW12411   1.106   6.948   6.721 -0.2269  0.1945  0.0413
 3732SOL    HW112412   1.077   6.861   6.750  0.5238  0.5402  1.9815
 3732SOL    HW212413   1.179   6.969   6.779  1.3260  1.0397 -2.0890
 3733SOL     OW12414   0.498   5.952   5.897 -0.0171 -0.6904  0.1717
 3733SOL    HW112415   0.441   5.900   5.954 -0.0342  1.1442  1.9691
 3733SOL    HW212416   0.501   5.903   5.815  1.7432 -4.6757  2.3148
 3734SOL     OW12417   0.065   6.642   6.777 -0.6754 -0.6974  0.5171
 3734SOL    HW112418   0.103   6.571   6.828  1.4637 -0.3459 -0.4743
 3734SOL    HW212419   0.067   6.610   6.687 -2.2035 -0.3954  0.3454
 3735SOL     OW12420   1.302   6.792   5.480  0.0081  0.1822 -0.4366
 3735SOL    HW112421   1.238   6.741   5.529  0.2714 -1.0483 -1.3044
 3735SOL    HW212422   1.383   6.741   5.486  0.1560  0.2222 -1.7299
 3736SOL     OW12423   1.456   7.572   7.361  0.2946 -0.7051  0.3220
 3736SOL    HW112424   1.403   7.651   7.360  2.9042  1.1542 -1.2536
 3736SOL    HW212425   1.520   7.586   7.430  1.7748 -0.6555 -0.9985
 3737SOL     OW12426   0.180   5.884   7.817 -0.1531 -0.1519 -0.0105
 3737SOL    HW112427   0.228   5.823   7.872  0.3161 -0.1707 -0.4325
 3737SOL    HW212428   0.155   5.956   7.875 -1.4087 -1.1098  0.6758
 3738SOL     OW12429   1.567   6.866   6.644  0.5756 -0.2417  0.4711
 3738SOL    HW112430   1.489   6.919   6.664  0.9252  0.2767  0.4857
 3738SOL    HW212431   1.627   6.885   6.716  0.8627 -0.3412  0.2560
 3739SOL     OW12432   1.725   7.589   6.380  0.2502  0.1369 -0.2599
 3739SOL    HW112433   1.705   7.521   6.315 -0.2963 -0.2469  0.3031
 3739SOL    HW212434   1.737   7.541   6.462  1.1039  0.6006 -0.0986
 3740SOL     OW12435   0.864   6.286   5.985  0.2124  0.4343  0.2331
 3740SOL    HW112436   0.934   6.288   6.050  1.3433  3.0082 -0.9398
 3740SOL    HW212437   0.808   6.360   6.007 -0.0599  0.6305 -1.0275
 3741SOL     OW12438   1.164   6.443   6.721  0.4279  0.3573 -0.0552
 3741SOL    HW112439   1.117   6.474   6.798 -0.9181 -0.4339 -0.5295
 3741SOL    HW212440   1.175   6.349   6.736 -1.2616 -0.1232 -1.5006
 3742SOL     OW12441   1.758   6.938   5.574  0.1806  0.1378 -0.3576
 3742SOL    HW112442   1.818   6.864   5.564 -1.2635 -1.1746  0.3173
 3742SOL    HW212443   1.696   6.928   5.502 -2.1785 -1.4844  1.7624
 3743SOL     OW12444   0.606   6.156   6.938 -0.3827  0.2295 -0.0949
 3743SOL    HW112445   0.670   6.105   6.988 -0.9089  1.0858  1.5030
 3743SOL    HW212446   0.615   6.124   6.848  1.5946 -0.3452  0.2687
 3744SOL     OW12447   1.245   6.650   7.383 -0.4316  0.7155  0.4193
 3744SOL    HW112448   1.307   6.579   7.370 -2.2116 -0.7315 -0.6897
 3744SOL    HW212449   1.274   6.719   7.323  0.0953  0.0473 -0.1038
 3745SOL     OW12450   0.854   6.694   7.131  0.3687 -0.1263  0.5268
 3745SOL    HW112451   0.869   6.641   7.053 -0.5071  1.6308 -0.9221
 3745SOL    HW212452   0.811   6.635   7.193 -0.7178 -1.0741 -1.0736
 3746SOL     OW12453   0.976   6.331   7.143  0.2136  0.0529  0.0327
 3746SOL    HW112454   0.924   6.396   7.191 -0.2775  0.0657 -0.4994
 3746SOL    HW212455   1.041   6.382   7.096 -0.4381  0.2106 -0.7174
 3747SOL     OW12456   0.767   6.540   6.077 -0.1996 -0.0128 -0.2325
 3747SOL    HW112457   0.757   6.486   6.155 -1.6470 -0.3070 -0.5903
 3747SOL    HW212458   0.681   6.579   6.064  0.8540  2.6510  0.1634
 3748SOL     OW12459   8.693   6.307   6.142  0.6467  0.0669 -0.8064
 3748SOL    HW112460   8.649   6.362   6.207 -0.0714  0.4241 -1.5625
 3748SOL    HW212461   8.743   6.244   6.193 -0.0848  0.1847  0.0834
 3749SOL     OW12462   0.280   7.553   6.983  0.1420  0.4181  0.1850
 3749SOL    HW112463   0.204   7.554   6.925  0.0381  0.0171  0.3129
 3749SOL    HW212464   0.245   7.529   7.069  0.3067  0.9461  0.4025
 3750SOL     OW12465   1.132   5.927   5.865 -0.8441  0.1994 -0.0452
 3750SOL    HW112466   1.153   5.857   5.803  1.7804  1.4875 -0.7707
 3750SOL    HW212467   1.042   5.910   5.891 -0.4532 -3.1556 -0.5132
 3751SOL     OW12468   1.694   5.887   7.362  0.0547 -0.4393  0.3807
 3751SOL    HW112469   1.729   5.913   7.447 -0.1547  1.0096  0.0389
 3751SOL    HW212470   1.617   5.834   7.382  1.1632 -1.8674  1.1013
 3752SOL     OW12471   1.381   6.556   5.846  0.2917  0.1126 -0.4975
 3752SOL    HW112472   1.422   6.555   5.933 -3.0217  0.6771  1.2219
 3752SOL    HW212473   1.438   6.612   5.793  0.6301  2.6746  2.3325
 3753SOL     OW12474   0.398   6.363   6.310  0.5219  0.1565 -0.1395
 3753SOL    HW112475   0.430   6.440   6.265 -0.0320  1.4540  1.5867
 3753SOL    HW212476   0.475   6.308   6.322  0.7468 -0.0629 -2.2334
 3754SOL     OW12477   1.234   7.312   6.006  0.1449  0.4279 -0.0609
 3754SOL    HW112478   1.143   7.316   5.975  0.1492 -0.8215 -0.2538
 3754SOL    HW212479   1.226   7.310   6.101 -0.0461  0.0615 -0.0817
 3755SOL     OW12480   0.322   7.353   6.150  0.3263  1.0684 -0.0547
 3755SOL    HW112481   0.265   7.338   6.074 -0.5503  0.9663  0.6068
 3755SOL    HW212482   0.385   7.281   6.147 -1.8768 -1.0828  1.2735
 3756SOL     OW12483   1.974   6.651   6.379  0.2826  0.1131  0.2480
 3756SOL    HW112484   1.982   6.691   6.466 -0.6823  2.3420 -0.6300
 3756SOL    HW212485   1.986   6.723   6.318 -0.3354 -1.1691 -1.4667
 3757SOL     OW12486   0.882   7.101   6.989 -0.3537 -0.3159 -0.6489
 3757SOL    HW112487   0.806   7.049   7.015  0.2359  0.7271  3.8838
 3757SOL    HW212488   0.957   7.049   7.018  0.4576  0.8003 -0.6921
 3758SOL     OW12489   0.463   6.516   5.623 -0.0998 -0.1572 -0.4174
 3758SOL    HW112490   0.453   6.501   5.717 -0.3810 -0.6078 -0.5162
 3758SOL    HW212491   0.432   6.606   5.610 -0.6849 -0.3156 -0.1739
 3759SOL     OW12492   1.401   6.704   6.457 -0.2861  0.1152  0.0507
 3759SOL    HW112493   1.359   6.690   6.372  0.8090  0.6891 -0.6150
 3759SOL    HW212494   1.495   6.707   6.437  0.0794 -1.0320  1.4800
 3760SOL     OW12495   0.308   6.837   7.138  0.2327  0.0444 -0.0672
 3760SOL    HW112496   0.340   6.863   7.224  0.0959 -1.1878  0.3710
 3760SOL    HW212497   0.232   6.782   7.156 -0.6815  0.9516 -1.0324
 3761SOL     OW12498   0.997   7.334   5.887 -0.1822  0.1887 -0.5369
 3761SOL    HW112499   0.924   7.396   5.897 -1.0684 -1.2101  2.6837
 3761SOL    HW212500   0.981   7.293   5.802 -1.6609  1.7275 -1.0672
 3762SOL     OW12501   8.627   6.077   6.794 -0.5340  0.0906 -0.0430
 3762SOL    HW112502   8.712   6.106   6.829  0.3917  1.1719 -2.9295
 3762SOL    HW212503   8.625   5.983   6.810  0.6582  0.2297  1.1161
 3763SOL     OW12504   1.356   7.176   5.376  0.0137  0.4542 -0.1402
 3763SOL    HW112505   1.330   7.262   5.408 -0.6887  0.3717 -0.4519
 3763SOL    HW212506   1.323   7.115   5.441 -1.6614  0.2669 -1.0995
 3764SOL     OW12507   0.532   7.553   5.936  0.3854  0.2169  0.1866
 3764SOL    HW112508   0.514   7.480   5.996  1.9484  0.1614  0.6529
 3764SOL    HW212509   0.481   7.626   5.971 -0.6957 -0.4659  0.0923
 3765SOL     OW12510   1.313   5.966   6.040  0.4111 -0.1565 -0.2636
 3765SOL    HW112511   1.256   5.965   5.963  0.7502  1.1834 -0.5538
 3765SOL    HW212512   1.254   5.954   6.114 -0.1136  0.1225 -0.6295
 3766SOL     OW12513   0.403   7.571   6.410  0.5328 -0.5099 -0.4329
 3766SOL    HW112514   0.443   7.595   6.327  0.5547  0.0085 -0.2779
 3766SOL    HW212515   0.429   7.640   6.471 -1.5783  0.5332 -0.6142
 3767SOL     OW12516   1.106   7.135   6.256  0.5803 -0.4128 -0.2510
 3767SOL    HW112517   1.181   7.093   6.212  0.9268  1.6247 -1.7484
 3767SOL    HW212518   1.032   7.078   6.236  1.2238 -0.9241 -1.2692
 3768SOL     OW12519   0.543   6.456   5.900 -0.1947 -0.1918 -0.5915
 3768SOL    HW112520   0.481   6.382   5.904 -0.1110 -0.2205  1.2044
 3768SOL    HW212521   0.526   6.505   5.981  0.6813  1.0048 -1.1078
 3769SOL     OW12522   1.406   5.768   7.113 -0.0385 -0.1001 -0.5842
 3769SOL    HW112523   1.496   5.771   7.078  0.2122  2.4687  0.0973
 3769SOL    HW212524   1.353   5.739   7.039  0.8909  2.0805 -2.2053
 3770SOL     OW12525   0.861   5.910   5.867  0.2609 -0.4390  0.1970
 3770SOL    HW112526   0.768   5.929   5.879  0.0497 -1.8875  0.9948
 3770SOL    HW212527   0.894   5.985   5.817 -0.9639  0.9145  1.3337
 3771SOL     OW12528   0.482   5.949   7.213  0.2430  0.3696 -0.1028
 3771SOL    HW112529   0.442   5.987   7.135 -1.6459  1.0926  1.1525
 3771SOL    HW212530   0.460   5.856   7.208  0.6963  0.2841 -0.7241
 3772SOL     OW12531   1.218   6.706   6.253  0.0647 -0.8507  0.3538
 3772SOL    HW112532   1.136   6.691   6.300 -0.9533  1.8865 -0.3372
 3772SOL    HW212533   1.199   6.679   6.163 -0.6919  1.2290 -0.1654
 3773SOL     OW12534   1.278   6.798   6.962 -0.1626  0.6389  0.3591
 3773SOL    HW112535   1.330   6.879   6.963 -0.6694  1.0290 -1.6515
 3773SOL    HW212536   1.289   6.763   6.874 -0.2584 -1.3241  1.0801
 3774SOL     OW12537   0.838   7.028   6.729 -0.0704 -0.0116 -0.4128
 3774SOL    HW112538   0.932   7.018   6.739 -0.2921 -2.0448  0.1256
 3774SOL    HW212539   0.821   7.011   6.636  0.0326 -0.4155 -0.3607
 3775SOL     OW12540   0.805   6.294   6.734  0.5991 -0.6741  0.2543
 3775SOL    HW112541   0.747   6.223   6.706  1.6225 -0.9485 -1.2821
 3775SOL    HW212542   0.881   6.250   6.772  0.9512 -0.3859 -0.1099
 3776SOL     OW12543   0.224   6.234   6.509 -0.5460  0.2329 -0.2664
 3776SOL    HW112544   0.279   6.288   6.452 -2.5395  2.6048 -0.1131
 3776SOL    HW212545   0.175   6.178   6.448  2.3856 -2.5131 -0.3728
 3777SOL     OW12546   1.246   6.762   5.207 -0.1235 -0.0035 -0.0384
 3777SOL    HW112547   1.175   6.699   5.216 -1.5712  1.3636 -1.3562
 3777SOL    HW212548   1.249   6.807   5.292 -0.9744  0.0678 -0.0397
 3778SOL     OW12549   0.555   5.843   5.654  0.0418 -0.1469  0.1078
 3778SOL    HW112550   0.532   5.816   5.565 -0.8516 -1.4375  0.7053
 3778SOL    HW212551   0.623   5.910   5.642 -0.6850  0.3406 -1.5590
 3779SOL     OW12552   0.854   5.695   6.053 -0.1942 -0.1078  0.1952
 3779SOL    HW112553   0.883   5.722   5.966 -0.2077  0.1387  0.2688
 3779SOL    HW212554   0.873   5.769   6.110 -2.4012  0.7045 -0.0234
 3780SOL     OW12555   0.874   6.497   6.907  0.0035  0.3664  0.1802
 3780SOL    HW112556   0.846   6.572   6.854  0.3742  0.7486  0.5206
 3780SOL    HW212557   0.863   6.422   6.849 -1.3901  0.5375  0.1764
 3781SOL     OW12558   1.260   7.031   5.889 -0.4899 -0.2942  0.1184
 3781SOL    HW112559   1.250   7.123   5.863  0.1450  0.2797  1.7622
 3781SOL    HW212560   1.263   7.033   5.985 -2.7277 -2.2847  0.3239
 3782SOL     OW12561   0.047   6.883   6.540 -0.2082 -0.2063 -0.2948
 3782SOL    HW112562   0.080   6.972   6.555 -0.7515  0.1404 -1.0963
 3782SOL    HW212563  -0.046   6.887   6.564 -0.0729 -0.7558  0.3650
 3783SOL     OW12564   1.593   7.489   6.120 -0.1369 -0.1203  0.4301
 3783SOL    HW112565   1.585   7.556   6.052 -0.5019 -0.3446  0.2457
 3783SOL    HW212566   1.509   7.491   6.166  0.6232  1.0528  1.8473
 3784SOL     OW12567   1.114   6.318   5.633  0.4394 -0.2321 -0.4506
 3784SOL    HW112568   1.079   6.257   5.567  0.6830  1.4471 -2.2395
 3784SOL    HW212569   1.209   6.306   5.629  0.4551 -0.1233 -0.4079
 3785SOL     OW12570   8.844   6.331   6.684 -0.5850 -0.0205 -0.0204
 3785SOL    HW112571   8.924   6.309   6.636 -0.0431  2.4146 -0.3948
 3785SOL    HW212572   8.845   6.275   6.761  2.1645  0.7640  0.6094
 3786SOL     OW12573   0.679   6.071   6.673  0.4902  0.0143  0.1194
 3786SOL    HW112574   0.711   6.017   6.601  1.0476  0.8821 -0.3071
 3786SOL    HW212575   0.586   6.085   6.653  0.9417  1.4186 -1.2303
 3787SOL     OW12576   0.597   6.179   6.313  0.0258  0.0846 -0.6015
 3787SOL    HW112577   0.614   6.143   6.226  2.6616 -0.1592 -0.0788
 3787SOL    HW212578   0.590   6.102   6.370 -1.2396  0.2539 -0.5048
 3788SOL     OW12579   0.784   5.893   6.459  0.5279  0.2073 -0.4568
 3788SOL    HW112580   0.821   5.891   6.371  1.1845 -0.0992 -0.1835
 3788SOL    HW212581   0.792   5.804   6.491  0.7229  0.4112  0.0809
 3789SOL     OW12582   1.640   6.765   6.306 -0.1979  0.0866  0.0914
 3789SOL    HW112583   1.711   6.778   6.370  0.1058  0.5713 -0.3340
 3789SOL    HW212584   1.659   6.828   6.237 -0.6063 -0.3303 -0.4087
 3790SOL     OW12585   1.379   6.448   6.357 -0.4549  0.2749  0.0807
 3790SOL    HW112586   1.421   6.528   6.389 -1.3821  2.4829 -3.5970
 3790SOL    HW212587   1.292   6.448   6.396 -0.4005  1.0089  0.2055
 3791SOL     OW12588   2.097   6.257   5.609 -0.6464  0.1599 -1.0096
 3791SOL    HW112589   2.004   6.232   5.610 -0.3311 -1.0449 -0.9421
 3791SOL    HW212590   2.117   6.270   5.517 -0.4792 -1.1941 -1.1830
 3792SOL     OW12591   0.409   6.933   5.452  0.6048  0.7931 -0.8000
 3792SOL    HW112592   0.417   6.878   5.530  3.6178  1.4781 -0.4873
 3792SOL    HW212593   0.492   6.982   5.449 -0.2809  2.3266 -3.2954
 3793SOL     OW12594   1.578   6.708   5.737 -0.2717 -0.0852  0.1057
 3793SOL    HW112595   1.585   6.802   5.756  0.2023  0.0965 -0.8932
 3793SOL    HW212596   1.635   6.666   5.801 -1.6848  0.1607  1.5720
 3794SOL     OW12597   1.790   5.998   5.932  0.4295  0.3156  0.5665
 3794SOL    HW112598   1.704   5.966   5.907 -0.0011  0.6862  1.5011
 3794SOL    HW212599   1.777   6.093   5.944  0.9417  0.3591  0.7864
 3795SOL     OW12600   0.398   6.208   5.872 -0.0638 -0.2936  0.0329
 3795SOL    HW112601   0.394   6.238   5.781 -1.4167  0.6341  0.3579
 3795SOL    HW212602   0.431   6.119   5.867  0.1866 -0.1443 -1.3390
 3796SOL     OW12603   1.928   6.748   7.315  0.6698 -0.1799  0.0846
 3796SOL    HW112604   1.943   6.826   7.369  0.8062 -0.4938  0.5112
 3796SOL    HW212605   2.008   6.697   7.324  1.1571  0.2968 -1.3556
 3797SOL     OW12606   1.105   6.975   7.085  0.9959 -0.3774 -0.1928
 3797SOL    HW112607   1.152   6.916   7.026  0.7496 -0.1910 -0.5739
 3797SOL    HW212608   1.144   6.959   7.171  0.6876 -1.3639 -0.2265
 3798SOL     OW12609   1.393   7.275   7.343  0.0190  0.4160 -0.0029
 3798SOL    HW112610   1.441   7.264   7.262  2.4475 -0.2252  1.4190
 3798SOL    HW212611   1.422   7.360   7.377 -2.0365  1.3507 -0.4062
 3799SOL     OW12612   1.135   7.223   7.352  0.2742  0.3579 -0.0149
 3799SOL    HW112613   1.224   7.248   7.374  0.0040  1.6121 -0.2634
 3799SOL    HW212614   1.123   7.253   7.262 -0.1001 -0.6491 -0.3130
 3800SOL     OW12615   1.741   6.918   6.819 -0.3514  0.5163  0.1200
 3800SOL    HW112616   1.820   6.958   6.783 -0.4874  0.8440  0.1737
 3800SOL    HW212617   1.755   6.918   6.914  0.7992 -2.0377  0.0132
 3801SOL     OW12618   0.814   6.476   7.300 -0.1842  0.0240  0.0292
 3801SOL    HW112619   0.751   6.433   7.359  1.1994 -1.8684  0.2259
 3801SOL    HW212620   0.888   6.498   7.355 -0.5344  2.0574 -0.2437
 3802SOL     OW12621   0.627   6.682   7.501 -0.0146 -0.1242  0.5319
 3802SOL    HW112622   0.719   6.655   7.492 -0.3792 -1.1039 -0.5378
 3802SOL    HW212623   0.618   6.756   7.442  0.1579  0.1533  0.8535
 3803SOL     OW12624   0.433   6.801   5.709 -0.3661 -0.4986 -0.2147
 3803SOL    HW112625   0.377   6.868   5.748 -1.4226 -1.2394 -0.4047
 3803SOL    HW212626   0.495   6.778   5.778 -0.1859  0.4430 -0.0451
 3804SOL     OW12627   0.145   6.444   6.941 -0.2262  0.0049 -0.5830
 3804SOL    HW112628   0.094   6.364   6.927  0.4386 -0.6240  0.4179
 3804SOL    HW212629   0.210   6.419   7.007  1.4945  0.7184 -1.9366
 3805SOL     OW12630   1.165   6.499   7.043 -0.0925  0.2437 -0.1080
 3805SOL    HW112631   1.185   6.592   7.028  1.5325 -0.0241  0.2561
 3805SOL    HW212632   1.233   6.452   6.995  0.6230 -0.7148  1.7627
 3806SOL     OW12633   0.424   7.691   6.798 -0.0289  0.6129 -0.8266
 3806SOL    HW112634   0.485   7.746   6.848 -1.9471  2.1566 -0.0738
 3806SOL    HW212635   0.364   7.656   6.863 -1.5115  1.2486 -1.7943
 3807SOL     OW12636   0.278   6.582   5.919 -0.5645 -0.1930  0.3698
 3807SOL    HW112637   0.221   6.659   5.908 -2.1737 -1.2815  0.6834
 3807SOL    HW212638   0.219   6.514   5.952  1.0181 -1.3001  0.9899
 3808SOL     OW12639   8.593   6.490   6.301  0.0660  0.1705  0.0509
 3808SOL    HW112640   8.609   6.582   6.278  0.3184  0.5815  1.7449
 3808SOL    HW212641   8.596   6.488   6.396 -3.1110 -1.0338  0.2294
 3809SOL     OW12642   1.258   7.038   5.574  0.0671  0.2123  0.4131
 3809SOL    HW112643   1.261   6.949   5.539  0.5341 -0.0162  1.0161
 3809SOL    HW212644   1.241   7.026   5.667  0.2727  0.7467  0.5204
 3810SOL     OW12645   1.463   7.154   6.634 -0.2321  0.1688 -0.5523
 3810SOL    HW112646   1.383   7.127   6.589 -0.4501  1.3465 -0.8995
 3810SOL    HW212647   1.511   7.207   6.569 -0.2189  1.2987  0.3479
 3811SOL     OW12648   1.509   6.021   6.222  0.0474  0.3503 -0.0509
 3811SOL    HW112649   1.508   5.947   6.283  1.5765  1.5678  1.5778
 3811SOL    HW212650   1.438   6.003   6.160 -0.1334 -2.0488  0.7689
 3812SOL     OW12651   0.752   7.489   6.597 -0.1140  0.0712 -0.3005
 3812SOL    HW112652   0.734   7.432   6.522 -2.1495 -0.4325  0.5118
 3812SOL    HW212653   0.734   7.435   6.674 -0.7442  1.3871  0.5187
 3813SOL     OW12654   0.473   6.440   7.537 -0.0089  0.3179 -0.3670
 3813SOL    HW112655   0.513   6.522   7.509  2.3109 -0.5034  0.3372
 3813SOL    HW212656   0.517   6.372   7.485 -1.1849 -0.5786 -0.2491
 3814SOL     OW12657   1.848   6.353   7.472 -0.2742  0.2777 -0.3502
 3814SOL    HW112658   1.757   6.336   7.498 -1.0990  3.3553 -0.7887
 3814SOL    HW212659   1.863   6.443   7.500  2.8801 -0.3211  0.1817
 3815SOL     OW12660   0.744   6.024   7.288 -0.6079 -0.4093  0.2899
 3815SOL    HW112661   0.799   6.047   7.213 -0.2158  1.0066  0.9532
 3815SOL    HW212662   0.687   5.954   7.257  1.2562 -1.6026 -0.5654
 3816SOL     OW12663   0.164   5.877   7.170 -0.3350 -0.2117 -0.2126
 3816SOL    HW112664   0.131   5.815   7.106  1.5747 -0.7920 -0.6986
 3816SOL    HW212665   0.218   5.824   7.229  0.7906  0.8554 -0.2467
 3817SOL     OW12666   0.092   6.562   6.484  0.1457  0.3112 -0.0200
 3817SOL    HW112667   0.125   6.556   6.395  1.2313 -0.0210  0.3933
 3817SOL    HW212668   0.002   6.593   6.474 -0.1711 -0.9403 -1.2919
 3818SOL     OW12669   1.126   6.468   6.441 -0.4856 -0.2903  0.1762
 3818SOL    HW112670   1.031   6.477   6.447 -0.3170  1.4456  0.6157
 3818SOL    HW212671   1.156   6.462   6.532 -0.2270 -2.0442  0.0292
 3819SOL     OW12672   1.274   6.309   6.036  0.0691  0.5324 -0.8889
 3819SOL    HW112673   1.295   6.255   5.959  1.2981 -0.7680  0.3002
 3819SOL    HW212674   1.358   6.329   6.075 -0.5161  1.5997 -0.1408
 3820SOL     OW12675   0.422   6.069   6.579 -0.3192 -0.1930  0.4471
 3820SOL    HW112676   0.343   6.123   6.578  0.5691  1.1485 -0.3568
 3820SOL    HW212677   0.390   5.979   6.566 -1.7203  0.2908  0.4346
 3821SOL     OW12678   0.105   7.120   6.655 -0.1411 -0.0065  0.3513
 3821SOL    HW112679   0.035   7.116   6.720 -0.6043 -0.8064 -0.1779
 3821SOL    HW212680   0.183   7.146   6.704 -1.2347  3.2880  0.5975
 3822SOL     OW12681   0.580   6.612   6.574 -0.5221 -0.1259  0.3153
 3822SOL    HW112682   0.522   6.546   6.612  0.6312 -1.6365 -0.4468
 3822SOL    HW212683   0.530   6.648   6.500 -0.9624 -0.5206  0.4190
 3823SOL     OW12684   1.782   6.001   7.583 -0.3503 -0.0982  0.1305
 3823SOL    HW112685   1.817   6.060   7.650 -0.0533  0.6661 -0.6754
 3823SOL    HW212686   1.706   6.048   7.547  1.2586  0.9425 -2.1591
 3824SOL     OW12687   0.394   5.717   6.095 -0.0411 -0.1902  0.5939
 3824SOL    HW112688   0.478   5.672   6.106  1.8473  1.4418 -4.3570
 3824SOL    HW212689   0.339   5.653   6.049 -0.0601  0.0030  0.3441
 3825SOL     OW12690   1.460   6.197   6.429  0.1418 -0.0760  0.5991
 3825SOL    HW112691   1.466   6.144   6.349 -0.9022 -1.1652  1.2170
 3825SOL    HW212692   1.436   6.284   6.398  2.4026  0.2339 -0.4848
 3826SOL     OW12693   0.824   6.470   6.507 -0.0080 -0.3212  0.8039
 3826SOL    HW112694   0.749   6.520   6.538 -0.8487 -1.5374  0.8110
 3826SOL    HW212695   0.852   6.419   6.583  0.2105 -0.6022  0.5351
 3827SOL     OW12696   0.826   7.261   7.342 -0.1969  0.5412  0.0647
 3827SOL    HW112697   0.818   7.179   7.390 -0.3994 -0.9519 -2.3574
 3827SOL    HW212698   0.893   7.243   7.276 -0.1541  2.3860 -0.4409
 3828SOL     OW12699   1.477   6.815   7.331  0.0200 -0.3262 -0.6625
 3828SOL    HW112700   1.526   6.871   7.391  2.5324 -0.4692 -2.4041
 3828SOL    HW212701   1.460   6.735   7.382  0.0700  0.4195  0.5493
 3829SOL     OW12702   0.261   6.587   7.479 -0.0697  0.1423  0.6099
 3829SOL    HW112703   0.282   6.558   7.390  1.3498 -0.6952  1.1801
 3829SOL    HW212704   0.329   6.546   7.534 -0.9604  0.5799  2.0842
 3830SOL     OW12705   1.535   5.869   5.922  0.4939  0.4870 -0.0124
 3830SOL    HW112706   1.501   5.787   5.886  1.4169 -0.1882  0.6193
 3830SOL    HW212707   1.464   5.901   5.978 -0.6878  1.1988 -1.8112
 3831SOL     OW12708   1.178   6.590   5.652 -0.6278  0.9314  0.1562
 3831SOL    HW112709   1.130   6.509   5.639  0.3127  0.4515 -0.4245
 3831SOL    HW212710   1.251   6.566   5.710 -1.0961  1.6601  1.0752
 3832SOL     OW12711   0.818   6.967   6.444 -0.7767  0.5957 -0.5278
 3832SOL    HW112712   0.827   6.872   6.456 -0.5845  0.5121 -1.2579
 3832SOL    HW212713   0.832   6.980   6.350  1.0963  1.5550 -0.1568
 3833SOL     OW12714   8.589   6.402   5.922  0.1503 -0.1680 -0.0549
 3833SOL    HW112715   8.623   6.368   6.005  0.1836 -0.0224 -0.0080
 3833SOL    HW212716   8.507   6.355   5.909  0.1861 -0.2511  0.0201
 3834SOL     OW12717   8.762   6.077   6.532 -0.0450 -0.3223 -0.0536
 3834SOL    HW112718   8.764   6.102   6.624  0.4129 -1.3036  0.2192
 3834SOL    HW212719   8.819   6.140   6.488 -0.7105  0.4955  0.2256
 3835SOL     OW12720   1.286   6.328   7.261  0.0656 -0.0220 -0.4638
 3835SOL    HW112721   1.342   6.383   7.207 -2.2713  2.3501 -0.6891
 3835SOL    HW212722   1.277   6.247   7.211  0.3497  0.9724 -2.1967
 3836SOL     OW12723   1.116   5.830   7.269  0.5406 -0.3938 -0.5749
 3836SOL    HW112724   1.175   5.876   7.329 -0.5642 -2.0195  1.9104
 3836SOL    HW212725   1.164   5.751   7.244  0.5495 -0.2728 -0.9513
 3837SOL     OW12726   8.613   6.913   5.589  0.0227 -0.0317 -0.1456
 3837SOL    HW112727   8.550   6.891   5.658  1.2943 -1.1960  0.7079
 3837SOL    HW212728   8.639   6.828   5.553  0.8167  0.4467 -0.7328
 3838SOL     OW12729   8.819   7.520   6.405  0.2548  0.7212  0.6970
 3838SOL    HW112730   8.912   7.521   6.384 -0.1663 -0.4288 -1.6194
 3838SOL    HW212731   8.802   7.604   6.446  2.0322  1.6238 -0.3136
 3839SOL     OW12732   0.632   7.260   5.962 -0.2973  0.2362  0.4075
 3839SOL    HW112733   0.654   7.211   5.883 -0.1517  1.0656 -0.0752
 3839SOL    HW212734   0.612   7.193   6.027  1.7148 -0.5218  0.3147
 3840SOL     OW12735   0.328   6.487   6.629 -0.1290  0.1315  0.1334
 3840SOL    HW112736   0.262   6.549   6.598  1.7724  2.0184 -0.3902
 3840SOL    HW212737   0.278   6.412   6.661 -2.4479  0.9804 -1.2823
 3841SOL     OW12738   0.082   6.133   6.866 -0.0349 -0.1256 -0.0799
 3841SOL    HW112739   0.162   6.163   6.822 -0.4607  0.8500 -0.2151
 3841SOL    HW212740   0.076   6.040   6.845 -0.7444  0.4686 -2.9708
 3842SOL     OW12741   0.324   6.456   7.164  0.3369 -0.0950  0.5196
 3842SOL    HW112742   0.301   6.364   7.176 -0.4043  0.2250  1.8033
 3842SOL    HW212743   0.417   6.454   7.140  0.0302 -1.2166 -0.6589
 3843SOL     OW12744   0.956   6.748   7.407  0.2448  0.1354 -0.3379
 3843SOL    HW112745   1.035   6.800   7.394 -0.7131  1.6754 -0.3264
 3843SOL    HW212746   0.928   6.724   7.318 -0.2788  1.2008 -0.4760
 3844SOL     OW12747   0.670   6.083   6.053  0.0349 -0.1930  0.3579
 3844SOL    HW112748   0.597   6.052   5.999  0.4246 -0.2615 -0.1372
 3844SOL    HW212749   0.692   6.169   6.016 -1.2564  0.8687  1.9255
 3845SOL     OW12750   1.496   6.470   7.116 -0.3166  0.2952 -0.4026
 3845SOL    HW112751   1.581   6.508   7.139  0.1282 -1.6916  1.5614
 3845SOL    HW212752   1.512   6.426   7.033  0.2170  0.9735 -0.6760
 3846SOL     OW12753   0.584   7.162   6.845  0.1744  0.5392  0.5545
 3846SOL    HW112754   0.518   7.126   6.787  0.6839 -1.5464  1.1906
 3846SOL    HW212755   0.666   7.122   6.816  0.8762  1.6504  0.9488
 3847SOL     OW12756   0.329   6.254   6.794  0.2048  0.0750  0.3649
 3847SOL    HW112757   0.395   6.211   6.849  0.6424  0.8173  0.4368
 3847SOL    HW212758   0.375   6.329   6.755 -0.6363  0.6990  0.5360
 3848SOL     OW12759   0.422   7.380   7.370  0.0689 -0.4664  0.3407
 3848SOL    HW112760   0.499   7.402   7.318 -0.2228 -2.2480 -0.9456
 3848SOL    HW212761   0.428   7.286   7.383 -1.3455 -0.4773  1.1194
 3849SOL     OW12762   0.919   6.150   5.747  0.3169  0.0160 -0.1518
 3849SOL    HW112763   0.903   6.195   5.830 -0.7457  0.9509 -0.8451
 3849SOL    HW212764   0.978   6.208   5.699  0.6257 -0.3454 -0.2161
 3850SOL     OW12765   0.355   6.785   6.729  0.3572  0.5553  0.3396
 3850SOL    HW112766   0.425   6.747   6.781  1.5678  0.1610 -1.4828
 3850SOL    HW212767   0.278   6.732   6.749  1.5919 -1.8507 -0.8169
 3851SOL     OW12768   1.322   6.682   6.725  0.4895 -0.3230 -0.0612
 3851SOL    HW112769   1.299   6.589   6.721 -2.5222  0.3225  0.0282
 3851SOL    HW212770   1.355   6.701   6.637 -0.2111 -1.1825 -0.5354
 3852SOL     OW12771   1.529   6.359   5.495 -0.1309 -0.0811  1.2648
 3852SOL    HW112772   1.568   6.324   5.574 -0.4994 -1.8955  0.6870
 3852SOL    HW212773   1.492   6.283   5.450 -0.9665  1.0517 -0.0738
 3853SOL     OW12774   1.762   7.185   6.391  0.0606 -0.8537 -0.3812
 3853SOL    HW112775   1.745   7.201   6.298  0.4774  2.1595 -0.0276
 3853SOL    HW212776   1.855   7.162   6.395  0.7770  1.7457 -0.5268
 3854SOL     OW12777   1.114   7.352   7.095 -0.4918  0.1782 -0.5078
 3854SOL    HW112778   1.173   7.346   7.021 -0.7635 -2.0998 -0.6312
 3854SOL    HW212779   1.032   7.312   7.065 -0.5583 -0.9530  1.0235
 3855SOL     OW12780   8.648   7.156   6.674  0.0101  0.0506 -0.0303
 3855SOL    HW112781   8.690   7.170   6.759  1.9289 -0.4448 -0.8318
 3855SOL    HW212782   8.554   7.162   6.692  0.3800  0.5666  1.9975
 3856SOL     OW12783   0.193   7.433   7.244 -0.1213 -0.2337 -0.1683
 3856SOL    HW112784   0.283   7.423   7.274  0.8888  2.4377 -1.9427
 3856SOL    HW212785   0.149   7.479   7.315  0.7586  1.0889 -0.4439
 3857SOL     OW12786   1.770   5.729   5.984  0.3221  0.0406 -0.4118
 3857SOL    HW112787   1.826   5.802   5.957  3.2724 -0.9847  2.3454
 3857SOL    HW212788   1.681   5.765   5.981  1.6287  3.9591  1.2261
 3858SOL     OW12789   1.617   6.947   6.126  0.3364 -0.7003  0.2019
 3858SOL    HW112790   1.668   6.950   6.045 -0.2218  0.8065 -0.1110
 3858SOL    HW212791   1.614   7.037   6.156 -3.3486 -0.4121 -0.5525
 3859SOL     OW12792   0.036   7.534   7.454 -0.5909  0.0467  0.2948
 3859SOL    HW112793   0.079   7.502   7.533  0.4076  1.2643  0.2660
 3859SOL    HW212794  -0.058   7.526   7.473 -0.3799 -1.5191  0.8157
 3860SOL     OW12795   1.158   6.575   6.018  0.1141  0.1562 -0.4403
 3860SOL    HW112796   1.184   6.488   6.051 -3.7368 -1.8574 -2.0882
 3860SOL    HW212797   1.201   6.581   5.932  0.8614  0.1750 -0.0744
 3861SOL     OW12798   0.708   6.900   7.060  0.0532  1.0020 -0.5165
 3861SOL    HW112799   0.783   6.851   7.094 -1.2214 -0.0076  0.9640
 3861SOL    HW212800   0.680   6.850   6.983  0.2851  0.8318 -0.4912
 3862SOL     OW12801   0.640   7.066   5.745 -0.1791 -0.1212 -0.5271
 3862SOL    HW112802   0.722   7.018   5.738 -0.1687 -0.3163  0.6937
 3862SOL    HW212803   0.579   7.005   5.787 -0.7868  0.2040 -0.9216
 3863SOL     OW12804   1.333   7.059   6.868  0.0245  0.0820  0.3646
 3863SOL    HW112805   1.372   7.073   6.954 -2.5539  3.0479  1.2606
 3863SOL    HW212806   1.389   7.108   6.807  0.0489  0.7273  0.9046
 3864SOL     OW12807   1.490   6.288   6.684 -0.5364 -0.2508 -0.1157
 3864SOL    HW112808   1.583   6.298   6.704 -0.7289 -0.8380  1.1850
 3864SOL    HW212809   1.488   6.249   6.596  0.4834 -1.5821  0.4294
 3865SOL     OW12810   0.085   6.124   6.300  0.0801  0.7546 -0.1588
 3865SOL    HW112811   0.155   6.140   6.236  0.2756  0.6304  0.0231
 3865SOL    HW212812   0.053   6.036   6.279 -0.1901  0.9102 -0.4010
 3866SOL     OW12813   0.881   6.926   5.757 -0.7432  0.3887  0.2689
 3866SOL    HW112814   0.958   6.913   5.813 -0.4668 -0.4367 -0.2779
 3866SOL    HW212815   0.910   6.989   5.691  0.5691 -2.2331 -1.8528
 3867SOL     OW12816   0.739   6.746   6.778  0.0234 -0.0967 -0.2829
 3867SOL    HW112817   0.668   6.699   6.733  0.1861  0.1541 -0.8110
 3867SOL    HW212818   0.719   6.839   6.765  1.1349 -0.0035 -1.5842
 3868SOL     OW12819   0.776   6.723   6.330 -0.1911  0.1392 -0.1706
 3868SOL    HW112820   0.842   6.725   6.260 -1.2450  0.2922 -1.1915
 3868SOL    HW212821   0.773   6.632   6.357 -1.1173 -0.3152 -1.6776
 3869SOL     OW12822   0.892   7.497   5.326 -0.4180  0.2653  0.2441
 3869SOL    HW112823   0.828   7.538   5.268 -1.8937 -2.1351  0.0423
 3869SOL    HW212824   0.975   7.504   5.279 -1.2852 -0.1628 -1.4337
 3870SOL     OW12825   0.364   7.050   6.704 -0.1372  0.0044  0.1439
 3870SOL    HW112826   0.384   7.060   6.611 -0.8711 -0.1829 -0.0403
 3870SOL    HW212827   0.353   6.955   6.716 -1.9274  0.1798  0.0155
 3871SOL     OW12828   1.595   6.732   7.605  0.6402 -0.1185 -0.3611
 3871SOL    HW112829   1.594   6.794   7.678  0.3197 -2.1743  1.4835
 3871SOL    HW212830   1.508   6.692   7.606  0.6250 -0.1844 -1.9068
 3872SOL     OW12831   0.531   6.806   6.266 -0.2929 -0.4167  0.1576
 3872SOL    HW112832   0.614   6.774   6.302  0.8253  2.0185 -0.0973
 3872SOL    HW212833   0.484   6.839   6.343 -1.5135 -2.6450  0.4434
 3873SOL     OW12834   1.029   6.223   6.864  0.4195  0.0537  0.4264
 3873SOL    HW112835   1.080   6.145   6.842  0.6633  0.3527 -0.0899
 3873SOL    HW212836   1.041   6.233   6.958 -1.9613 -2.1896  1.0750
 3874SOL     OW12837   0.449   7.118   6.141  0.1608 -0.0194  0.5651
 3874SOL    HW112838   0.459   7.055   6.212 -1.5480 -0.4613  0.4432
 3874SOL    HW212839   0.377   7.085   6.089  2.2411 -0.4961 -2.2564
 3875SOL     OW12840   1.803   5.897   7.100 -0.2611  0.1688 -0.1860
 3875SOL    HW112841   1.789   5.907   7.194 -1.3012  1.5770 -0.4489
 3875SOL    HW212842   1.828   5.984   7.070 -0.1279 -0.2160 -1.2408
 3876SOL     OW12843   0.033   6.959   5.638 -0.0927  0.2652 -0.0237
 3876SOL    HW112844  -0.058   6.930   5.635  0.0408 -0.0879 -1.0907
 3876SOL    HW212845   0.042   7.003   5.722 -0.7078 -1.4783  1.0065
 3877SOL     OW12846   0.279   6.885   7.426 -0.5436 -0.7261 -0.4249
 3877SOL    HW112847   0.220   6.946   7.470 -0.6755 -0.2747 -1.2015
 3877SOL    HW212848   0.252   6.798   7.457  0.0866 -0.3618  1.2084
 3878SOL     OW12849   0.291   5.929   6.863 -0.0956  0.4356 -0.3913
 3878SOL    HW112850   0.247   5.887   6.789  0.3052 -0.1991 -0.2739
 3878SOL    HW212851   0.377   5.887   6.866 -0.4277 -0.1939  1.0071
 3879SOL     OW12852   8.747   6.016   5.499 -0.6108 -0.3575  0.0657
 3879SOL    HW112853   8.654   6.007   5.517 -0.6947  1.6230  0.8978
 3879SOL    HW212854   8.786   6.035   5.584  0.1008  1.7497 -0.6664
 3880SOL     OW12855   1.767   6.577   7.148  0.5345 -0.1783 -0.4029
 3880SOL    HW112856   1.825   6.501   7.154  1.0633  0.3132  0.9925
 3880SOL    HW212857   1.813   6.647   7.194 -0.1763  0.8644 -1.2257
 3881SOL     OW12858   0.093   5.990   5.738 -0.0768  0.1238  0.4755
 3881SOL    HW112859   0.141   5.957   5.814  1.4180  2.2728  0.5514
 3881SOL    HW212860   0.025   6.046   5.776  0.3624  0.8099  0.2640
 3882SOL     OW12861   1.035   6.836   6.009  0.4683  0.1295  0.1337
 3882SOL    HW112862   1.034   6.741   6.000  3.2588 -0.2603  2.4588
 3882SOL    HW212863   1.120   6.863   5.973  0.6659  1.4409  1.4575
 3883SOL     OW12864   0.601   6.458   7.069  0.3750 -0.4118  0.3275
 3883SOL    HW112865   0.695   6.472   7.085 -0.1468  3.0701  1.2120
 3883SOL    HW212866   0.598   6.381   7.012  3.8425  0.0923 -0.7957
 3884SOL     OW12867   1.400   7.479   6.566  0.1261  0.0625  0.2591
 3884SOL    HW112868   1.443   7.538   6.628 -1.8345  1.8373  0.0152
 3884SOL    HW212869   1.361   7.411   6.621  1.5556 -0.5137  0.6220
 3885SOL     OW12870   0.648   6.264   7.432 -0.1220  0.1686 -0.0028
 3885SOL    HW112871   0.722   6.280   7.490  0.1973 -0.7822 -0.1349
 3885SOL    HW212872   0.671   6.185   7.384 -1.3840 -0.3721  0.2335
 3886SOL     OW12873   1.858   6.621   7.565  0.4552  0.2820 -0.2372
 3886SOL    HW112874   1.773   6.659   7.585  0.3591 -0.8940  1.8490
 3886SOL    HW212875   1.888   6.669   7.488 -2.3566  0.2776 -1.4534
 3887SOL     OW12876   0.381   7.097   7.083  0.4611  0.0034 -0.0183
 3887SOL    HW112877   0.419   7.122   6.999 -0.8122 -0.6361 -0.8264
 3887SOL    HW212878   0.366   7.002   7.075  0.1880 -0.0371  0.8677
 3888SOL     OW12879   1.609   6.139   6.971 -0.5090 -0.7828 -0.4181
 3888SOL    HW112880   1.686   6.146   7.028  1.2840 -1.2537 -2.6531
 3888SOL    HW212881   1.645   6.122   6.884 -3.1744 -1.1713 -1.5332
 3889SOL     OW12882   1.158   6.008   6.260 -0.7533 -0.6189 -0.0178
 3889SOL    HW112883   1.118   6.011   6.347 -0.5120  0.0150  0.0828
 3889SOL    HW212884   1.126   6.087   6.217 -0.4987 -0.6868 -0.3349
 3890SOL     OW12885   0.112   6.412   6.071  0.4027  0.1274  0.1290
 3890SOL    HW112886   0.024   6.379   6.056 -0.0765  1.5046 -0.2623
 3890SOL    HW212887   0.167   6.334   6.073 -0.8094 -0.7493  0.3042
 3891SOL     OW12888   1.461   5.724   7.390  0.5030  0.0779  0.1654
 3891SOL    HW112889   1.382   5.688   7.429  0.6860  0.6767  1.1206
 3891SOL    HW212890   1.435   5.750   7.301 -1.1909  2.9328  1.3657
 3892SOL     OW12891   2.180   6.591   7.326 -0.5010  0.2983  0.1269
 3892SOL    HW112892   2.211   6.635   7.246 -1.9011  2.4072  0.6578
 3892SOL    HW212893   2.259   6.554   7.365  0.8738  2.6539 -0.2352
 3893SOL     OW12894   0.719   7.306   5.613 -0.9915 -0.3208  0.0936
 3893SOL    HW112895   0.740   7.361   5.689  1.7642 -1.7223  0.4889
 3893SOL    HW212896   0.681   7.227   5.650  0.8389 -1.2310  0.1769
 3894SOL     OW12897   0.968   7.668   6.071 -0.3770  0.4539  0.1859
 3894SOL    HW112898   0.995   7.591   6.121 -0.1343  0.8452  0.6707
 3894SOL    HW212899   1.016   7.661   5.988  0.2590  0.4984  0.5453
 3895SOL     OW12900   0.778   6.378   6.269 -0.1459  0.3111  0.4671
 3895SOL    HW112901   0.805   6.405   6.357  0.0708  1.8743 -0.0476
 3895SOL    HW212902   0.722   6.302   6.284  0.9801 -0.2985  1.8596
 3896SOL     OW12903   0.675   6.737   5.815 -0.1534  0.1170 -0.2467
 3896SOL    HW112904   0.745   6.793   5.781  0.5966 -1.1124 -0.7848
 3896SOL    HW212905   0.698   6.649   5.785 -0.2283 -0.8152  2.2420
 3897SOL     OW12906   1.228   7.094   6.535 -0.0575  0.5422  0.2108
 3897SOL    HW112907   1.220   7.074   6.442 -1.2682  2.1179 -0.0768
 3897SOL    HW212908   1.178   7.026   6.579 -2.1436  1.4788 -0.5593
 3898SOL     OW12909   0.431   7.114   7.343  0.0138 -0.4748 -0.2569
 3898SOL    HW112910   0.360   7.053   7.360 -0.7343  0.6944  1.0737
 3898SOL    HW212911   0.440   7.115   7.248 -0.9960 -1.4685 -0.3849
 3899SOL     OW12912   0.244   6.926   6.089  0.5867  0.2018 -0.4270
 3899SOL    HW112913   0.277   6.892   6.173 -0.1502  1.2804  0.3305
 3899SOL    HW212914   0.156   6.956   6.109 -0.6383 -1.9552 -2.2372
 3900SOL     OW12915   0.615   6.901   7.330 -0.8548 -0.0387  0.1662
 3900SOL    HW112916   0.545   6.962   7.352  0.6084  0.7364  3.1273
 3900SOL    HW212917   0.650   6.933   7.247 -2.0411  1.3607  0.1800
 3901SOL     OW12918   1.359   6.118   7.111 -0.1751  0.1035 -0.0768
 3901SOL    HW112919   1.374   6.076   7.195 -0.5724 -0.8788 -0.4809
 3901SOL    HW212920   1.443   6.113   7.065 -0.3190 -0.6152 -0.2728
 3902SOL     OW12921   0.264   6.138   6.105 -0.0734 -0.0217  0.0662
 3902SOL    HW112922   0.299   6.111   6.020 -0.4950 -1.0250  0.2021
 3902SOL    HW212923   0.340   6.137   6.163  0.4244  1.6431 -0.4851
 3903SOL     OW12924   1.913   7.013   6.621  0.0401 -0.0588 -0.1237
 3903SOL    HW112925   1.940   6.922   6.638 -1.1926 -0.3818  0.2064
 3903SOL    HW212926   1.832   7.005   6.572  1.0128  0.8904 -1.9592
 3904SOL     OW12927   0.261   6.166   7.106  0.0889  0.5433  0.1156
 3904SOL    HW112928   0.228   6.120   7.028  2.6643 -0.5521 -0.4546
 3904SOL    HW212929   0.255   6.101   7.176 -1.7105  1.3478  0.7455
 3905SOL     OW12930   0.859   6.971   6.168  0.0469 -0.7660  0.7983
 3905SOL    HW112931   0.779   6.989   6.119 -0.7887 -1.9268  1.6487
 3905SOL    HW212932   0.907   6.908   6.114  0.8506  0.6098 -0.1340
 3906SOL     OW12933   1.348   6.343   6.910 -0.5724  0.0001 -0.3859
 3906SOL    HW112934   1.344   6.262   6.961  1.1711 -0.3336 -0.7151
 3906SOL    HW212935   1.393   6.318   6.829 -2.1236  0.7977 -1.5521
 3907SOL     OW12936   1.109   5.759   6.671  0.5159  0.6840 -0.1086
 3907SOL    HW112937   1.037   5.820   6.688  0.2928  1.0664 -2.1096
 3907SOL    HW212938   1.070   5.672   6.680  0.0636  0.8773 -0.1686
 3908SOL     OW12939   0.641   6.903   6.027  0.2468  0.6637 -0.3605
 3908SOL    HW112940   0.653   6.836   5.960  1.9760 -0.6962  1.2075
 3908SOL    HW212941   0.598   6.858   6.099 -0.9445  1.9240 -0.2372
 3909SOL     OW12942   0.737   7.418   6.177  0.0996 -0.6651 -0.4520
 3909SOL    HW112943   0.696   7.362   6.112  0.5456  0.4395 -1.7201
 3909SOL    HW212944   0.831   7.409   6.162  0.2917 -1.6309  1.1105
 3910SOL     OW12945   0.873   5.922   6.204  0.1781 -0.1855 -0.6692
 3910SOL    HW112946   0.949   5.973   6.175 -0.4095  0.8259 -0.4745
 3910SOL    HW212947   0.799   5.962   6.159 -0.2094 -1.3788 -1.1220
 3911SOL     OW12948   1.037   6.034   6.494  0.1814  0.4343  0.0669
 3911SOL    HW112949   0.957   5.984   6.510 -0.2017  1.4633  1.5988
 3911SOL    HW212950   1.063   6.064   6.581  1.9445  0.5699 -0.4871
 3912SOL     OW12951   1.247   6.109   6.682 -0.6501  0.3479 -0.1268
 3912SOL    HW112952   1.326   6.163   6.671  0.2666 -0.2349  2.7080
 3912SOL    HW212953   1.274   6.021   6.655  0.2725 -0.1909  2.2875
 3913SOL     OW12954   0.055   6.657   6.158 -0.0047 -0.5700  0.8210
 3913SOL    HW112955   0.077   6.564   6.153  0.9225 -0.3093 -0.9301
 3913SOL    HW212956   0.057   6.686   6.067  0.3079  1.2877  1.3848
 3914SOL     OW12957   0.804   7.533   5.819 -0.0900 -0.1684 -0.3572
 3914SOL    HW112958   0.741   7.555   5.888 -0.1195  1.0045 -0.7392
 3914SOL    HW212959   0.826   7.617   5.778  0.8165 -0.7043 -1.0162
 3915SOL     OW12960   8.839   5.798   7.594 -0.1326 -0.3700 -0.2097
 3915SOL    HW112961   8.917   5.792   7.649 -0.0700 -1.2047 -0.3847
 3915SOL    HW212962   8.768   5.814   7.655 -0.2142 -2.2999  0.2478
 3916SOL     OW12963   0.144   5.515   8.484  0.0508 -0.3337  0.3408
 3916SOL    HW112964   0.212   5.575   8.513  0.3406 -1.7324  2.8497
 3916SOL    HW212965   0.062   5.558   8.508  0.1002  0.3830 -0.7067
 3917SOL     OW12966   8.579   5.553   7.945 -0.3784  0.1567  0.1932
 3917SOL    HW112967   8.601   5.472   7.993 -0.3795 -0.2409 -0.4648
 3917SOL    HW212968   8.635   5.551   7.868 -1.5465 -0.0613 -0.6845
 3918SOL     OW12969   0.176   6.981   8.578 -0.1322 -0.0335 -0.0683
 3918SOL    HW112970   0.133   6.904   8.542 -0.6602  0.2503 -0.0614
 3918SOL    HW212971   0.116   7.012   8.646  1.9539 -2.0119  2.9362
 3919SOL     OW12972   1.679   6.948   8.017 -0.3281  0.3300 -0.6172
 3919SOL    HW112973   1.630   6.910   8.089 -0.1074  1.4596  0.1473
 3919SOL    HW212974   1.640   7.035   8.004  1.0353  0.9943 -0.4152
 3920SOL     OW12975   1.329   6.518   8.348 -0.6697  0.7304  0.0760
 3920SOL    HW112976   1.365   6.570   8.276 -0.4303 -1.5548 -1.5641
 3920SOL    HW212977   1.299   6.437   8.307  1.2725 -1.5729  2.7764
 3921SOL     OW12978   1.833   5.769   7.740 -0.0796  0.9165 -0.2385
 3921SOL    HW112979   1.840   5.800   7.830  0.4911 -0.0374  0.0546
 3921SOL    HW212980   1.798   5.844   7.692 -1.2986  1.1388  0.9362
 3922SOL     OW12981   0.577   6.506   8.509  0.3150 -0.0740  0.4653
 3922SOL    HW112982   0.662   6.544   8.531  0.3199 -1.0749  2.3898
 3922SOL    HW212983   0.528   6.507   8.591 -1.1019 -0.6522 -0.3267
 3923SOL     OW12984   0.851   6.151   8.255 -0.0693  0.4021 -0.0328
 3923SOL    HW112985   0.914   6.157   8.183 -0.0663  1.4136  0.0376
 3923SOL    HW212986   0.780   6.210   8.230 -0.9965 -0.7094 -0.1032
 3924SOL     OW12987   0.386   7.096   8.454  0.1530 -0.0120  0.0888
 3924SOL    HW112988   0.400   7.042   8.376  1.0531 -0.7131  0.7215
 3924SOL    HW212989   0.322   7.048   8.506  0.4124 -0.1136  0.3149
 3925SOL     OW12990   0.360   5.995   8.843  0.5458 -0.5809 -0.2124
 3925SOL    HW112991   0.389   5.961   8.928 -0.9021  0.5144  0.7655
 3925SOL    HW212992   0.268   5.969   8.837  0.4852 -0.1517 -1.1888
 3926SOL     OW12993   1.305   5.554   7.779 -0.3117 -0.5008 -0.2581
 3926SOL    HW112994   1.284   5.611   7.705 -0.7178  1.1821  1.0842
 3926SOL    HW212995   1.259   5.472   7.760 -2.1892  0.6331 -0.8650
 3927SOL     OW12996   0.418   7.130   8.011  0.2609 -0.0504  0.5259
 3927SOL    HW112997   0.351   7.079   7.965  1.3045 -0.5751 -0.4490
 3927SOL    HW212998   0.391   7.221   7.999 -1.7233 -0.2989  2.4355
 3928SOL     OW12999   0.396   7.204   7.645 -0.5378  0.4207 -0.0244
 3928SOL    HW113000   0.458   7.140   7.613 -0.9977 -0.1583  0.2291
 3928SOL    HW213001   0.444   7.255   7.710 -0.2141  0.2335 -0.1187
 3929SOL     OW13002   0.353   6.148   7.933 -0.2636 -0.9380  0.2532
 3929SOL    HW113003   0.414   6.190   7.873 -0.2658 -0.9776  0.2232
 3929SOL    HW213004   0.267   6.183   7.908 -0.3446 -1.4242 -0.1810
 3930SOL     OW13005   0.673   7.036   8.767  0.2650 -0.5661 -0.5172
 3930SOL    HW113006   0.630   6.957   8.736  1.1471 -1.0095 -0.6619
 3930SOL    HW213007   0.614   7.107   8.744 -0.8283 -1.2290  0.1669
 3931SOL     OW13008   0.807   6.553   7.895 -0.0213  0.2863 -0.8164
 3931SOL    HW113009   0.867   6.529   7.824 -1.0064 -0.3800 -1.4444
 3931SOL    HW213010   0.753   6.622   7.858  0.9940  1.5966  0.0832
 3932SOL     OW13011   8.673   6.082   7.855  0.1638 -0.2629  0.0073
 3932SOL    HW113012   8.633   6.125   7.780 -0.9534 -0.6132  0.3834
 3932SOL    HW213013   8.636   5.994   7.856  0.1668 -0.2717  0.9602
 3933SOL     OW13014   2.033   7.870   7.900 -0.2387  0.1347  0.3028
 3933SOL    HW113015   1.970   7.885   7.970 -1.8641 -2.2577 -0.5308
 3933SOL    HW213016   1.980   7.854   7.822  1.4944  2.5896 -1.5718
 3934SOL     OW13017   0.127   7.276   7.599  0.8440  0.0067  0.4958
 3934SOL    HW113018   0.143   7.346   7.662  2.5563  1.6323 -1.5594
 3934SOL    HW213019   0.208   7.225   7.599  1.0123  0.2473 -0.5885
 3935SOL     OW13020   1.742   6.008   8.062  0.4286  0.5767  0.0213
 3935SOL    HW113021   1.747   6.014   8.157  0.5796 -0.0450  0.0573
 3935SOL    HW213022   1.807   5.943   8.039 -0.4046 -0.1215 -0.4066
 3936SOL     OW13023   1.518   6.313   8.073 -0.5869  0.3445  0.1046
 3936SOL    HW113024   1.439   6.313   8.127 -0.1014  0.2242  0.8207
 3936SOL    HW213025   1.588   6.288   8.132  0.2132  1.7270 -0.1954
 3937SOL     OW13026   0.731   7.110   8.093  0.0123  0.3341  0.3819
 3937SOL    HW113027   0.804   7.092   8.035 -0.1608  2.3572 -0.5224
 3937SOL    HW213028   0.658   7.130   8.035 -0.5119  1.1080  1.2802
 3938SOL     OW13029   0.665   5.540   8.052 -0.3177 -0.1084 -0.5212
 3938SOL    HW113030   0.731   5.562   7.986  0.3433  0.0227  0.1646
 3938SOL    HW213031   0.685   5.598   8.126  1.8769 -3.3236  1.6365
 3939SOL     OW13032   0.444   6.498   8.736  0.0239  0.0538 -0.2213
 3939SOL    HW113033   0.451   6.404   8.719 -0.0956 -0.1604  0.8603
 3939SOL    HW213034   0.493   6.511   8.818 -0.8657  0.7520  0.2094
 3940SOL     OW13035   1.578   6.248   7.482  0.1286  0.0242  0.7715
 3940SOL    HW113036   1.532   6.186   7.539  0.3061 -2.1099 -1.2631
 3940SOL    HW213037   1.508   6.285   7.427  0.2223  0.5609  1.0068
 3941SOL     OW13038   1.102   7.285   8.267  0.0600  0.1230  0.3639
 3941SOL    HW113039   1.040   7.355   8.287 -0.3080 -0.7599  2.5887
 3941SOL    HW213040   1.050   7.205   8.272  0.5325 -0.3795 -1.8698
 3942SOL     OW13041   1.792   7.403   8.036 -0.6133  0.2199  0.1326
 3942SOL    HW113042   1.792   7.378   8.128 -0.2531  0.6515  0.2536
 3942SOL    HW213043   1.728   7.345   7.995 -1.3406  0.5435  0.7944
 3943SOL     OW13044   0.722   6.069   7.955  0.0753  0.5889 -0.1884
 3943SOL    HW113045   0.802   6.028   7.988 -0.8316 -0.7434  0.4201
 3943SOL    HW213046   0.721   6.156   7.995  0.2175 -0.1155  1.4300
 3944SOL     OW13047   0.544   5.624   8.407 -0.0641 -0.4507 -0.3470
 3944SOL    HW113048   0.606   5.551   8.408 -0.6984 -1.0177 -1.2322
 3944SOL    HW213049   0.574   5.679   8.334  0.5517  0.3116  0.4629
 3945SOL     OW13050   2.125   7.502   7.812 -0.1065 -0.5045 -0.0656
 3945SOL    HW113051   2.070   7.560   7.759  1.6702  0.7675 -0.6187
 3945SOL    HW213052   2.088   7.508   7.900 -0.6611  0.5476 -0.3514
 3946SOL     OW13053   0.794   6.280   8.636 -0.0855  0.7122 -0.7372
 3946SOL    HW113054   0.779   6.187   8.656  0.2155  0.5516 -1.2532
 3946SOL    HW213055   0.711   6.323   8.659  0.1726  0.5188  0.6921
 3947SOL     OW13056   0.916   6.370   0.061  0.4100  0.2601  0.3148
 3947SOL    HW113057   0.881   6.353  -0.026  1.3737  2.0392 -0.4730
 3947SOL    HW213058   1.011   6.365   0.050  0.5420 -0.4572  1.5110
 3948SOL     OW13059   1.124   6.048   7.734 -0.4528 -0.9449 -1.2115
 3948SOL    HW113060   1.195   5.998   7.773  0.0731  0.8085  0.2576
 3948SOL    HW213061   1.061   5.983   7.704 -0.1255 -2.4699  1.1928
 3949SOL     OW13062   0.047   6.347   8.293  0.8095 -0.5355  0.4696
 3949SOL    HW113063   0.093   6.362   8.375  1.1850 -1.1643  0.3770
 3949SOL    HW213064   0.083   6.266   8.259  0.2761 -0.5640 -0.0548
 3950SOL     OW13065   0.393   7.970   8.834 -0.6407  0.5312 -0.1911
 3950SOL    HW113066   0.302   7.987   8.860 -0.6666  4.5919 -2.0329
 3950SOL    HW213067   0.441   8.047   8.866  1.5756 -0.1665 -1.6386
 3951SOL     OW13068   0.471   6.031   7.528 -0.0804  0.6329  0.3507
 3951SOL    HW113069   0.485   6.011   7.436  1.8995 -1.5710  1.0343
 3951SOL    HW213070   0.377   6.044   7.536 -0.5967 -1.3462 -1.6122
 3952SOL     OW13071   1.101   6.404   7.976  0.2817  0.2146  0.1821
 3952SOL    HW113072   1.109   6.499   7.981  1.2464  0.1917 -0.5618
 3952SOL    HW213073   1.088   6.386   7.883 -2.9925 -0.2189  0.5916
 3953SOL     OW13074   0.368   5.607   0.016  0.3063  0.1840  0.0168
 3953SOL    HW113075   0.452   5.573  -0.016  0.7658 -0.0826  1.4245
 3953SOL    HW213076   0.382   5.701   0.025  1.6843 -0.2082  3.4948
 3954SOL     OW13077   1.176   7.220   7.974 -0.3929 -0.4717  0.3067
 3954SOL    HW113078   1.159   7.240   8.066 -0.9018 -1.4553  0.4365
 3954SOL    HW213079   1.091   7.193   7.939 -0.2004 -0.1308 -0.4525
 3955SOL     OW13080   8.792   7.081   8.722 -0.2309  0.0870 -0.2204
 3955SOL    HW113081   8.715   7.103   8.669 -0.3021  1.3847  0.3823
 3955SOL    HW213082   8.756   7.054   8.807 -0.0439  3.3771  1.0409
 3956SOL     OW13083   1.919   6.725   8.648  0.2824  0.1313  0.1248
 3956SOL    HW113084   1.837   6.677   8.641 -0.0450  0.8253 -1.0766
 3956SOL    HW213085   1.893   6.816   8.662  0.8949  0.0284  2.4371
 3957SOL     OW13086   0.057   6.613   7.675  0.4888  0.2780  0.0089
 3957SOL    HW113087   0.029   6.703   7.661 -0.5083 -0.2159 -1.3162
 3957SOL    HW213088   0.098   6.586   7.593  0.2651 -0.6645  0.1872
 3958SOL     OW13089   1.294   5.907   7.898 -0.1439 -0.0346  0.0962
 3958SOL    HW113090   1.313   5.814   7.885 -0.2666 -0.2169  1.1784
 3958SOL    HW213091   1.379   5.948   7.913  0.0157  0.2027 -1.2964
 3959SOL     OW13092   1.400   7.280   7.805 -0.2347 -0.3963 -0.4465
 3959SOL    HW113093   1.329   7.256   7.865 -0.1764 -0.2286 -0.3117
 3959SOL    HW213094   1.360   7.275   7.718 -0.6213  0.4354 -0.3267
 3960SOL     OW13095   2.029   7.099   7.710  0.3120  0.8153 -0.8147
 3960SOL    HW113096   2.048   7.051   7.790 -1.9092  0.0204 -0.6818
 3960SOL    HW213097   2.006   7.187   7.739 -1.5702  0.2278 -0.4172
 3961SOL     OW13098   0.673   7.758   8.025 -0.0799  0.5307  0.2616
 3961SOL    HW113099   0.585   7.757   8.063  0.2219  1.2037  1.0023
 3961SOL    HW213100   0.705   7.846   8.040 -0.1483  1.0269 -2.1111
 3962SOL     OW13101   1.069   5.595   7.968 -0.0320  0.1480 -0.1051
 3962SOL    HW113102   1.055   5.501   7.981 -0.2732  0.3275  1.0812
 3962SOL    HW213103   1.087   5.604   7.875  0.0474 -1.0837 -0.2285
 3963SOL     OW13104   0.814   7.604   8.698  0.4236 -0.3617  0.1421
 3963SOL    HW113105   0.764   7.541   8.646  1.0549 -0.5739 -0.2219
 3963SOL    HW213106   0.906   7.579   8.684  0.6593  0.3499  0.3705
 3964SOL     OW13107   0.888   7.477   8.311  0.0002  0.6761 -0.3403
 3964SOL    HW113108   0.803   7.436   8.299 -0.0670 -0.1587  2.3488
 3964SOL    HW213109   0.885   7.556   8.257 -2.0521  0.1054 -1.1358
 3965SOL     OW13110   0.511   6.256   7.749 -0.8654 -0.3459 -0.1112
 3965SOL    HW113111   0.505   6.341   7.705 -0.1694 -0.1289  0.2079
 3965SOL    HW213112   0.515   6.193   7.677  0.2888  0.0093 -0.3773
 3966SOL     OW13113   0.718   5.965   7.711  0.1195  0.0458  0.4236
 3966SOL    HW113114   0.717   6.010   7.795  0.9497 -0.5983  0.7960
 3966SOL    HW213115   0.652   6.010   7.658  0.4199  1.2263  1.0180
 3967SOL     OW13116   0.324   7.349   8.351  0.1237 -0.6029 -0.2819
 3967SOL    HW113117   0.414   7.371   8.328  0.3342  1.7609  2.2262
 3967SOL    HW213118   0.327   7.257   8.377  2.1309 -0.2865  0.8130
 3968SOL     OW13119   0.432   6.955   8.227  0.3858  0.0704 -0.2013
 3968SOL    HW113120   0.462   7.034   8.183  0.8017  0.1993  0.3012
 3968SOL    HW213121   0.466   6.883   8.174 -2.3196  0.1682 -2.2592
 3969SOL     OW13122   0.331   6.112   8.462  0.0632  0.0767 -0.1839
 3969SOL    HW113123   0.412   6.087   8.419  0.6554 -1.0338  1.4578
 3969SOL    HW213124   0.285   6.029   8.476 -0.0354  0.3509  1.3637
 3970SOL     OW13125   0.504   5.445   7.570 -0.1290 -0.0239  0.0273
 3970SOL    HW113126   0.547   5.520   7.530 -0.5440  0.1726 -0.0464
 3970SOL    HW213127   0.574   5.379   7.578  0.7669  1.0777  1.9996
 3971SOL     OW13128   1.382   6.535   7.683  0.8184  0.3069 -0.0988
 3971SOL    HW113129   1.304   6.492   7.719  0.1104  1.2345 -0.4658
 3971SOL    HW213130   1.450   6.521   7.749  0.0622  0.3531  0.7097
 3972SOL     OW13131   8.541   5.512   7.641  0.3360 -0.2343 -0.1458
 3972SOL    HW113132   8.544   5.588   7.584  0.7543 -0.0992  0.0529
 3972SOL    HW213133   8.456   5.519   7.685  1.1058  1.1091  1.2063
 3973SOL     OW13134   0.936   5.942   7.549 -0.0709  0.3331  0.5533
 3973SOL    HW113135   0.936   5.998   7.471 -1.7198 -3.3590 -2.4103
 3973SOL    HW213136   0.851   5.960   7.591 -0.3903  0.3956 -0.1043
 3974SOL     OW13137   1.062   7.166   7.609  0.4568  0.5678  0.0605
 3974SOL    HW113138   1.077   7.189   7.518  0.2941  0.0174 -0.1116
 3974SOL    HW213139   1.125   7.095   7.626  0.4808  0.6601  0.3728
 3975SOL     OW13140   0.739   6.346   8.056 -0.1242 -0.3289 -0.5776
 3975SOL    HW113141   0.694   6.407   8.115  3.8921  0.8365  1.6326
 3975SOL    HW213142   0.766   6.400   7.982  0.8103 -0.1175 -0.0905
 3976SOL     OW13143   1.349   7.380   8.236  0.7781 -0.0028 -0.4939
 3976SOL    HW113144   1.331   7.463   8.192  1.5748  1.3769  1.6159
 3976SOL    HW213145   1.263   7.350   8.267  0.7529  1.2452  0.7038
 3977SOL     OW13146   0.933   6.070   7.100 -0.8445 -0.1779 -0.3102
 3977SOL    HW113147   1.016   6.036   7.066 -0.4194  0.3004  0.2269
 3977SOL    HW213148   0.956   6.154   7.140 -1.5706 -0.0900 -0.0622
 3978SOL     OW13149   0.606   5.515   8.803 -0.1517 -0.4751  0.0884
 3978SOL    HW113150   0.609   5.423   8.778  0.7485 -0.7565  1.1841
 3978SOL    HW213151   0.690   5.551   8.773 -0.1372 -0.2151  0.4425
 3979SOL     OW13152   0.531   5.908   8.641  0.5876 -0.3383  0.8141
 3979SOL    HW113153   0.610   5.952   8.672  0.8679 -0.5769  0.4460
 3979SOL    HW213154   0.460   5.953   8.686  0.9303 -0.1103  1.1370
 3980SOL     OW13155   0.733   5.707   8.640 -0.1603 -0.1115 -0.0831
 3980SOL    HW113156   0.683   5.781   8.673  0.4579 -0.0663  0.7801
 3980SOL    HW213157   0.671   5.658   8.586 -0.8390  0.5100  0.1223
 3981SOL     OW13158   1.516   6.866   7.811 -0.0497 -0.0701  0.6377
 3981SOL    HW113159   1.584   6.872   7.879 -0.4038 -0.5090  1.0360
 3981SOL    HW213160   1.436   6.892   7.856  0.0736  1.9985 -0.2155
 3982SOL     OW13161   1.053   5.929   8.587 -0.1323 -0.3347  0.2229
 3982SOL    HW113162   1.135   5.970   8.560  0.1667 -1.1569 -0.1419
 3982SOL    HW213163   1.047   5.850   8.534 -1.4370 -0.0044 -0.1372
 3983SOL     OW13164   1.723   6.274   8.264 -0.5263  0.1319  0.0213
 3983SOL    HW113165   1.787   6.341   8.240 -1.4016  0.6879 -0.8383
 3983SOL    HW213166   1.756   6.238   8.346  0.6652  0.6897 -0.1821
 3984SOL     OW13167   0.661   7.742   7.686  0.0097 -0.1845 -0.1492
 3984SOL    HW113168   0.745   7.722   7.646  0.4956  1.7539 -0.2163
 3984SOL    HW213169   0.666   7.704   7.773 -0.2651 -2.6778 -1.1404
 3985SOL     OW13170   1.924   6.452   8.260  0.0508 -0.1917 -0.1878
 3985SOL    HW113171   1.943   6.526   8.319  1.0634 -2.2078  2.1930
 3985SOL    HW213172   2.007   6.405   8.255 -0.3864 -0.8160 -2.2564
 3986SOL     OW13173   1.287   6.016   7.396 -0.2948  0.5280  0.1073
 3986SOL    HW113174   1.230   6.051   7.466 -0.9397 -1.5562  0.6868
 3986SOL    HW213175   1.375   6.040   7.424 -0.7065  1.9561  0.2947
 3987SOL     OW13176   0.260   5.665   7.358 -0.0171  0.2098 -0.3444
 3987SOL    HW113177   0.184   5.607   7.363  2.7704 -3.9589 -1.3474
 3987SOL    HW213178   0.279   5.689   7.448 -1.9754  0.6677 -0.0175
 3988SOL     OW13179   1.876   6.812   0.058  0.6406 -0.2675  0.2024
 3988SOL    HW113180   1.897   6.758   0.135  0.4879  1.0114  1.1628
 3988SOL    HW213181   1.944   6.789  -0.005  0.9380 -1.1412  0.8178
 3989SOL     OW13182   0.965   7.053   8.310 -0.5749 -0.2611  0.3651
 3989SOL    HW113183   0.870   7.037   8.308 -0.6116  0.0187 -0.4612
 3989SOL    HW213184   1.004   6.974   8.273 -0.4584 -0.4976  0.9736
 3990SOL     OW13185   1.453   6.452   8.581 -0.2863 -0.3917  0.2660
 3990SOL    HW113186   1.405   6.478   8.502 -0.0954 -1.3058 -0.1617
 3990SOL    HW213187   1.396   6.387   8.623 -1.1376  1.2193  1.7494
 3991SOL     OW13188   1.314   6.939   7.970  0.5766  0.1456 -0.7858
 3991SOL    HW113189   1.315   7.024   8.013  2.2643 -0.7351  1.0957
 3991SOL    HW213190   1.239   6.893   8.009  1.4492 -0.2528  0.5133
 3992SOL     OW13191   8.814   6.632   0.400 -0.5988  0.3286  0.7935
 3992SOL    HW113192   8.893   6.595   0.362 -0.7784 -1.3925  2.0085
 3992SOL    HW213193   8.743   6.595   0.348 -0.7345 -0.3890  1.4723
 3993SOL     OW13194   1.201   5.921   8.843 -0.0676  0.1089 -0.1896
 3993SOL    HW113195   1.211   5.827   8.823 -1.9049 -0.2285  0.3349
 3993SOL    HW213196   1.142   5.953   8.775  0.1801  0.7976 -0.0840
 3994SOL     OW13197   8.609   7.678   0.228  0.5458  0.0595  0.6302
 3994SOL    HW113198   8.690   7.699   0.184  0.4854  2.0948  1.4075
 3994SOL    HW213199   8.608   7.733   0.306 -1.9746  0.7953  0.1873
 3995SOL     OW13200   0.458   6.700   8.059  0.3907 -0.0256  0.4597
 3995SOL    HW113201   0.512   6.728   7.985 -0.2410 -0.6086 -0.2415
 3995SOL    HW213202   0.370   6.688   8.021  0.3241 -1.5447  1.0287
 3996SOL     OW13203   0.350   5.728   7.933 -0.2285 -0.3804 -0.2211
 3996SOL    HW113204   0.426   5.769   7.974 -2.5338  1.0579  3.0001
 3996SOL    HW213205   0.374   5.635   7.926  2.3568  0.2466 -0.8344
 3997SOL     OW13206   1.277   6.983   7.666 -0.1245  0.6641  0.1846
 3997SOL    HW113207   1.367   6.956   7.649 -0.9054 -1.9977 -0.2177
 3997SOL    HW213208   1.278   7.012   7.758  1.0519  0.2943  0.3091
 3998SOL     OW13209   1.775   7.305   8.493  0.0334 -0.2347 -0.0719
 3998SOL    HW113210   1.861   7.291   8.534  0.9530  1.7803 -1.1580
 3998SOL    HW213211   1.712   7.287   8.562  1.3763 -0.7719  1.0613
 3999SOL     OW13212   1.966   5.856   8.046 -0.0845 -0.4550 -0.2052
 3999SOL    HW113213   2.040   5.837   7.989 -1.0379 -4.3910 -0.3751
 3999SOL    HW213214   2.002   5.855   8.135  0.3135 -1.0655 -0.3698
 4000SOL     OW13215   0.363   7.603   8.644  0.0448 -0.7810  0.5192
 4000SOL    HW113216   0.455   7.595   8.668  0.1546 -0.4191  0.2229
 4000SOL    HW213217   0.342   7.695   8.661 -0.5145 -1.0693  1.4755
 4001SOL     OW13218   0.151   6.981   0.151 -0.1813  0.3985  0.2560
 4001SOL    HW113219   0.102   6.968   0.232 -0.2619  1.0969  0.3275
 4001SOL    HW213220   0.095   6.945   0.082 -0.2738  0.1345  0.4684
 4002SOL     OW13221   1.305   6.026   8.438  0.5682 -0.0591 -0.2142
 4002SOL    HW113222   1.251   6.019   8.359 -1.2423 -1.1142  1.0533
 4002SOL    HW213223   1.379   5.966   8.422 -0.8853 -1.9231 -0.3105
 4003SOL     OW13224   1.485   6.054   7.636  0.1186  0.2177  0.7651
 4003SOL    HW113225   1.477   5.958   7.636 -1.5507  0.2877  2.4850
 4003SOL    HW213226   1.499   6.077   7.728  0.9339  1.6233  0.3172
 4004SOL     OW13227   0.185   5.429   8.212 -0.1320  0.0159  0.6588
 4004SOL    HW113228   0.271   5.407   8.175  0.0377 -0.7080  1.4584
 4004SOL    HW213229   0.205   5.475   8.293 -0.4548  3.9710 -1.2479
 4005SOL     OW13230   8.654   6.865   0.144  0.2777 -0.0501  0.0999
 4005SOL    HW113231   8.700   6.828   0.069 -1.3947 -1.4422 -0.3021
 4005SOL    HW213232   8.676   6.808   0.218  1.4050  0.9397  0.5612
 4006SOL     OW13233   0.806   6.654   8.451 -0.1052  0.6814 -0.1573
 4006SOL    HW113234   0.760   6.671   8.370 -0.6309 -0.5951 -0.1533
 4006SOL    HW213235   0.897   6.640   8.425  0.1123  2.1238 -0.2847
 4007SOL     OW13236   0.221   4.664   8.569 -0.5220 -0.0224  0.2315
 4007SOL    HW113237   0.140   4.672   8.518 -0.5360 -1.6545 -0.0460
 4007SOL    HW213238   0.192   4.678   8.660 -0.6631  1.8676 -0.0662
 4008SOL     OW13239   1.615   5.732   8.091  0.7694  0.2184 -0.2811
 4008SOL    HW113240   1.677   5.667   8.058  2.0150  1.1771  0.0989
 4008SOL    HW213241   1.648   5.815   8.058  0.0348  0.8151  0.4645
 4009SOL     OW13242   0.995   6.313   8.431 -0.2162  0.7231 -0.1970
 4009SOL    HW113243   0.938   6.316   8.508  1.6163 -1.2646  1.3442
 4009SOL    HW213244   0.956   6.246   8.376 -0.1615  0.3745  0.1835
 4010SOL     OW13245   1.220   5.668   7.546 -0.3578  0.7136 -0.2995
 4010SOL    HW113246   1.200   5.605   7.477 -0.9275 -0.2402  0.7106
 4010SOL    HW213247   1.135   5.688   7.586  0.0940  0.3144  0.9081
 4011SOL     OW13248   1.066   6.462   7.444 -0.5338  0.0202 -0.4043
 4011SOL    HW113249   1.125   6.537   7.437 -0.2633  0.0838  1.7740
 4011SOL    HW213250   1.116   6.389   7.410 -0.2435  0.5597 -1.1575
 4012SOL     OW13251   0.728   6.865   8.180  0.1283  0.1500 -0.5413
 4012SOL    HW113252   0.721   6.960   8.178 -0.9922  0.1021 -0.0407
 4012SOL    HW213253   0.655   6.834   8.126 -1.1941 -0.4185  1.4308
 4013SOL     OW13254   0.647   6.560   8.215 -0.0107 -0.3757  0.3465
 4013SOL    HW113255   0.624   6.512   8.295  0.7250  0.5487  1.1494
 4013SOL    HW213256   0.566   6.603   8.189 -0.1567 -0.3101  0.8868
 4014SOL     OW13257   8.737   5.810   8.383 -0.5111 -0.1410 -0.1940
 4014SOL    HW113258   8.753   5.865   8.306  1.0825 -1.2899 -0.7295
 4014SOL    HW213259   8.697   5.731   8.348  1.9242 -1.4617 -0.1443
 4015SOL     OW13260   1.083   5.995   0.238 -0.2179 -0.1312 -0.4012
 4015SOL    HW113261   1.125   6.064   0.289 -1.0640 -0.4194  0.7146
 4015SOL    HW213262   1.138   5.987   0.160  1.5823 -0.2235  0.8023
 4016SOL     OW13263   0.030   6.347   7.682 -0.0960 -0.1882 -0.3431
 4016SOL    HW113264   0.055   6.295   7.759 -2.2433 -1.3963 -0.3773
 4016SOL    HW213265   0.045   6.438   7.709 -0.2678 -0.6130  1.3204
 4017SOL     OW13266   0.150   7.526   8.460  0.2103  0.3396  0.4696
 4017SOL    HW113267   0.228   7.546   8.513  1.2974  0.1653 -1.0078
 4017SOL    HW213268   0.178   7.456   8.401 -1.4961 -0.7056  0.8347
 4018SOL     OW13269   0.182   7.000   7.928  0.5274  0.1656 -0.1204
 4018SOL    HW113270   0.097   7.008   7.885 -0.2741 -2.3853  0.8059
 4018SOL    HW213271   0.200   6.906   7.929  1.3477  0.2266  3.4101
 4019SOL     OW13272   0.533   6.065   8.298 -0.2435 -1.0225  0.1597
 4019SOL    HW113273   0.617   6.055   8.342  0.1029 -0.4119 -0.3524
 4019SOL    HW213274   0.537   6.004   8.224  0.6433  0.5555 -1.1541
 4020SOL     OW13275   0.155   5.907   8.458 -0.0142  0.8214  0.3155
 4020SOL    HW113276   0.065   5.876   8.475 -0.0049 -0.2596 -1.4017
 4020SOL    HW213277   0.211   5.840   8.497 -0.0006 -0.6319 -2.0052
 4021SOL     OW13278   1.239   6.054   8.160  0.6934  0.2584 -0.0312
 4021SOL    HW113279   1.146   6.033   8.168  0.7969  0.1238  0.9437
 4021SOL    HW213280   1.261   6.031   8.069 -0.1908  0.1721 -0.2308
 4022SOL     OW13281   1.523   5.871   8.332 -0.0711 -0.6399  0.0413
 4022SOL    HW113282   1.605   5.868   8.383 -0.4883 -2.2752  0.6781
 4022SOL    HW213283   1.550   5.856   8.242  0.5617  1.2099 -0.1213
 4023SOL     OW13284   0.753   5.693   0.212  0.2502  0.3331 -0.3255
 4023SOL    HW113285   0.824   5.661   0.267  0.5626  0.1856 -0.8120
 4023SOL    HW213286   0.722   5.616   0.164 -1.2471  0.0738  0.9762
 4024SOL     OW13287   1.071   7.110   8.615 -0.9256 -0.1976  0.0402
 4024SOL    HW113288   1.026   7.072   8.540  0.5395 -2.4962  0.2333
 4024SOL    HW213289   1.135   7.171   8.578 -1.6178  0.2669 -0.4155
 4025SOL     OW13290   0.493   5.952   8.062  0.2525  0.8168  0.0842
 4025SOL    HW113291   0.422   5.993   8.013  0.9273  0.7983 -0.9372
 4025SOL    HW213292   0.573   5.992   8.027  0.9905 -1.6128 -1.2593
 4026SOL     OW13293   8.827   6.803   8.790 -0.1548  0.5181 -0.2327
 4026SOL    HW113294   8.907   6.755   8.768 -0.6287 -0.8440  0.9073
 4026SOL    HW213295   8.785   6.820   8.705  0.6050 -0.0552 -0.7319
 4027SOL     OW13296   1.448   6.681   8.129 -0.5469  0.1798 -0.5503
 4027SOL    HW113297   1.501   6.636   8.064  0.0069 -0.5934  0.4035
 4027SOL    HW213298   1.510   6.736   8.177 -0.9846  0.9092 -0.7988
 4028SOL     OW13299   1.095   6.331   7.713  0.1752 -0.0619  0.1573
 4028SOL    HW113300   1.118   6.239   7.698 -0.2917  0.0238 -1.2342
 4028SOL    HW213301   1.074   6.365   7.626  0.2224  1.3389  0.6647
 4029SOL     OW13302   1.383   6.917   8.489  0.3781  0.1715 -0.0540
 4029SOL    HW113303   1.452   6.960   8.540  0.5555 -0.9184  0.6730
 4029SOL    HW213304   1.322   6.988   8.466  0.8599  0.8688  0.7592
 4030SOL     OW13305   1.519   7.767   8.224 -0.3208  0.0476 -0.0888
 4030SOL    HW113306   1.575   7.759   8.146  1.1803  0.4247  0.9002
 4030SOL    HW213307   1.525   7.682   8.267 -0.0331  0.2774  0.3271
 4031SOL     OW13308   0.164   6.813   8.302  0.3456 -0.3777  0.6520
 4031SOL    HW113309   0.250   6.850   8.282 -0.2451  1.6538  1.5673
 4031SOL    HW213310   0.184   6.727   8.341  1.7669 -1.2877 -1.8609
 4032SOL     OW13311   1.919   5.521   7.777  0.1836 -0.1264  0.6274
 4032SOL    HW113312   2.003   5.479   7.761 -0.4158 -0.8568 -0.6942
 4032SOL    HW213313   1.930   5.611   7.744 -0.3588 -0.9898 -2.1656
 4033SOL     OW13314   1.591   7.201   7.996 -0.7058  0.3985 -0.0201
 4033SOL    HW113315   1.547   7.233   7.917 -0.7072  3.1945  1.0019
 4033SOL    HW213316   1.538   7.233   8.068 -0.0664 -1.0954  1.1701
 4034SOL     OW13317   1.272   6.339   8.162  0.2480 -0.7161 -0.3207
 4034SOL    HW113318   1.253   6.245   8.165 -1.7721 -0.3361  0.8597
 4034SOL    HW213319   1.202   6.376   8.108  0.2910  0.2496  0.2618
 4035SOL     OW13320   0.656   7.290   7.737  0.2125  0.8679 -0.5187
 4035SOL    HW113321   0.653   7.358   7.670  1.0846  1.4310 -0.0194
 4035SOL    HW213322   0.662   7.339   7.820 -1.2233  0.1899  0.0030
 4036SOL     OW13323   1.793   5.927   8.414 -0.1939  0.7262 -0.2051
 4036SOL    HW113324   1.786   5.915   8.509 -0.3093 -1.1408 -0.4280
 4036SOL    HW213325   1.787   6.022   8.402 -0.6023  0.9683  1.6159
 4037SOL     OW13326   0.054   5.527   7.920  0.3166  0.4438 -0.1781
 4037SOL    HW113327   0.106   5.517   7.999  0.5818 -1.5922 -0.5762
 4037SOL    HW213328   0.116   5.517   7.848 -0.1342  1.0412 -0.6633
 4038SOL     OW13329   1.057   7.454   7.633 -0.1978 -0.1775 -0.0822
 4038SOL    HW113330   1.096   7.435   7.548 -0.2710 -0.4377 -0.0591
 4038SOL    HW213331   1.069   7.373   7.683 -0.3091 -0.0837  0.0969
 4039SOL     OW13332   0.868   6.878   8.623 -0.0284  0.5301 -0.2359
 4039SOL    HW113333   0.827   6.938   8.686  0.2044  1.3610 -0.8544
 4039SOL    HW213334   0.795   6.830   8.584 -0.1368 -0.4019  1.0486
 4040SOL     OW13335   1.005   6.148   8.044 -0.0359 -0.3495  0.3858
 4040SOL    HW113336   1.014   6.126   7.951  1.4172  0.1561  0.3923
 4040SOL    HW213337   1.017   6.242   8.047 -6.5500  0.9397  0.2926
 4041SOL     OW13338   1.511   7.044   7.501 -0.3516  0.0660  0.1129
 4041SOL    HW113339   1.593   7.092   7.507  0.1377 -0.6286 -0.8297
 4041SOL    HW213340   1.458   7.094   7.439 -0.2214 -0.0765 -0.1129
 4042SOL     OW13341   1.428   6.233   0.125  0.0073 -0.0248 -0.1465
 4042SOL    HW113342   1.475   6.221   0.043  0.3327 -0.7023  0.1264
 4042SOL    HW213343   1.475   6.303   0.170  0.3921 -0.2788 -0.1457
 4043SOL     OW13344   1.192   6.671   8.014 -0.1063 -0.3434  0.7668
 4043SOL    HW113345   1.137   6.722   8.073  0.2874  0.1486  0.7079
 4043SOL    HW213346   1.279   6.671   8.054  0.3777  0.7138 -0.2220
 4044SOL     OW13347   0.835   5.910   0.096  0.1054 -0.4487 -0.0007
 4044SOL    HW113348   0.798   5.831   0.135 -1.3346  0.5388  0.7331
 4044SOL    HW213349   0.924   5.915   0.131  0.0241 -1.4518  0.3661
 4045SOL     OW13350   0.437   7.393   7.911 -0.4997  0.1010 -0.6304
 4045SOL    HW113351   0.482   7.458   7.857 -0.4181 -0.4692 -1.2607
 4045SOL    HW213352   0.378   7.445   7.966 -0.1013  0.7440 -0.7881
 4046SOL     OW13353   1.467   5.940   0.112 -0.6050  0.1075 -0.4524
 4046SOL    HW113354   1.457   5.909   0.202 -1.3028 -0.3170 -0.6699
 4046SOL    HW213355   1.377   5.949   0.079 -0.4702  2.5569 -0.3507
 4047SOL     OW13356   0.676   7.023   7.696  0.1464  0.2457  0.5864
 4047SOL    HW113357   0.732   7.014   7.619  1.0505 -0.3594  1.2819
 4047SOL    HW213358   0.682   7.115   7.720  1.7625 -0.0123  1.2881
 4048SOL     OW13359   0.723   6.235   0.467 -0.1993 -0.1973 -1.0946
 4048SOL    HW113360   0.674   6.154   0.452  0.5647 -0.8587 -0.1526
 4048SOL    HW213361   0.719   6.281   0.383 -1.7878 -0.5678 -1.2602
 4049SOL     OW13362   8.187   5.347   7.528 -0.5518 -0.0804  0.0442
 4049SOL    HW113363   8.123   5.417   7.515 -0.4520  0.0245  0.1137
 4049SOL    HW213364   8.270   5.384   7.499 -0.5362 -0.2432 -0.1173
 4050SOL     OW13365   8.392   5.761   7.476 -0.6718  0.0441  0.1578
 4050SOL    HW113366   8.469   5.806   7.441 -0.8298 -0.2204 -0.5499
 4050SOL    HW213367   8.402   5.671   7.445 -0.3074 -0.4581  1.6326
 4051SOL     OW13368   1.038   6.763   7.811  0.7716 -0.5357 -0.0573
 4051SOL    HW113369   1.102   6.799   7.749  0.3999  1.9696  0.8713
 4051SOL    HW213370   1.090   6.743   7.889  0.7468 -0.4794 -0.0261
 4052SOL     OW13371   0.689   6.370   0.227 -0.4377  0.5326  0.3138
 4052SOL    HW113372   0.632   6.438   0.191  0.9736  2.1545  0.9889
 4052SOL    HW213373   0.772   6.380   0.180 -0.1731 -0.6817  0.4930
 4053SOL     OW13374   1.605   7.551   8.354  0.0471  0.2899  0.1944
 4053SOL    HW113375   1.700   7.543   8.355  0.0398 -1.1683 -2.0691
 4053SOL    HW213376   1.573   7.461   8.362 -1.1640  0.7743  1.1108
 4054SOL     OW13377   0.428   7.707   0.052  0.1239 -0.1161  0.2622
 4054SOL    HW113378   0.401   7.712   0.144  0.1938 -1.8691  0.4072
 4054SOL    HW213379   0.425   7.798   0.022 -0.3015  0.4471  1.8747
 4055SOL     OW13380   1.057   6.585   8.386  0.1740  0.1576  0.3814
 4055SOL    HW113381   1.037   6.493   8.405 -1.1511  0.7439  2.2044
 4055SOL    HW213382   1.152   6.588   8.378  0.2216 -1.4074 -0.0561
 4056SOL     OW13383   0.980   5.813   8.107  0.3494  0.5759  0.0797
 4056SOL    HW113384   1.062   5.776   8.139 -0.6367 -1.3096  0.5536
 4056SOL    HW213385   0.964   5.769   8.023 -0.1690  0.9645 -0.0359
 4057SOL     OW13386   0.756   5.921   8.410  0.5754 -0.2075 -0.7034
 4057SOL    HW113387   0.824   5.987   8.393  2.8780 -2.2881 -0.2835
 4057SOL    HW213388   0.767   5.899   8.503 -2.2643  0.9493 -0.0075
 4058SOL     OW13389   1.598   6.694   0.062 -0.4089  0.6269 -0.3358
 4058SOL    HW113390   1.552   6.717  -0.019  0.3897  3.6281 -0.0819
 4058SOL    HW213391   1.687   6.728   0.049  0.4783 -1.0964  0.8721
 4059SOL     OW13392   0.839   6.989   7.457  0.1533  0.3802  0.8802
 4059SOL    HW113393   0.774   6.932   7.416  0.6912  0.4713 -0.1636
 4059SOL    HW213394   0.904   6.929   7.494  1.4140  0.2158 -1.3550
 4060SOL     OW13395   0.988   7.790   8.136 -0.2004 -0.1467 -0.2032
 4060SOL    HW113396   1.071   7.806   8.180 -0.2741  0.1255 -0.1582
 4060SOL    HW213397   0.927   7.850   8.179 -0.7079 -1.2253  0.6166
 4061SOL     OW13398   1.018   6.789   8.169  0.8152 -0.1067 -0.2920
 4061SOL    HW113399   1.027   6.724   8.238  0.6191  0.1709 -0.0019
 4061SOL    HW213400   0.924   6.805   8.163  0.9066  0.5698  0.0352
 4062SOL     OW13401   0.876   6.562   7.630 -0.0324 -0.2755 -0.4480
 4062SOL    HW113402   0.864   6.652   7.659 -0.9468 -0.4662 -0.1913
 4062SOL    HW213403   0.952   6.565   7.573  0.2868  0.5572  0.0036
 4063SOL     OW13404   1.903   7.326   8.269  0.2459  0.2888 -0.0537
 4063SOL    HW113405   1.848   7.317   8.346  0.2206 -0.0964 -0.1176
 4063SOL    HW213406   1.961   7.251   8.271 -0.9681 -0.7451 -1.3935
 4064SOL     OW13407   0.191   6.704   7.920 -0.0204  0.1723  0.1068
 4064SOL    HW113408   0.124   6.673   7.981  0.1202 -1.3685 -0.4814
 4064SOL    HW213409   0.158   6.678   7.834  0.5342  0.9168 -0.3390
 4065SOL     OW13410   1.650   5.717   8.809  0.3806 -0.0761 -0.4328
 4065SOL    HW113411   1.589   5.744   8.877  0.3878  0.8228 -0.7637
 4065SOL    HW213412   1.598   5.662   8.750  0.0874  0.0672 -0.3058
 4066SOL     OW13413   0.342   5.737   8.557 -0.9085  0.1112 -0.1353
 4066SOL    HW113414   0.388   5.679   8.497 -1.1525 -0.2217 -0.0043
 4066SOL    HW213415   0.403   5.809   8.573 -0.6674 -0.0275 -0.4232
 4067SOL     OW13416   1.587   6.844   8.288 -0.2072  0.2028  0.1838
 4067SOL    HW113417   1.523   6.866   8.356  0.3116  0.3357  0.6366
 4067SOL    HW213418   1.663   6.898   8.309 -0.0950  0.3543 -0.5930
 4068SOL     OW13419   0.484   6.229   8.688  0.5336 -0.1637  0.0232
 4068SOL    HW113420   0.460   6.154   8.741 -0.4443  0.3626  0.3529
 4068SOL    HW213421   0.437   6.216   8.606 -2.6826  1.8462  1.3623
 4069SOL     OW13422   0.656   7.377   8.193 -0.0877 -0.4514 -0.2545
 4069SOL    HW113423   0.612   7.425   8.122  0.6292 -0.0953 -0.4796
 4069SOL    HW213424   0.661   7.287   8.161 -3.0508 -1.1482  0.9287
 4070SOL     OW13425   1.017   5.719   8.419  0.0215  0.0953  0.1860
 4070SOL    HW113426   1.075   5.690   8.348 -1.7614 -0.1406 -1.2427
 4070SOL    HW213427   0.936   5.745   8.375 -0.1365  2.8472  1.8436
 4071SOL     OW13428   1.446   5.617   8.537 -0.1282  0.3186  0.1085
 4071SOL    HW113429   1.536   5.636   8.510  0.2841 -0.4846  0.8972
 4071SOL    HW213430   1.392   5.672   8.479  0.8154  0.1324 -0.9915
 4072SOL     OW13431   0.928   7.073   7.905  0.4982  0.1408  0.3048
 4072SOL    HW113432   0.933   6.991   7.857 -0.9615  0.1298  0.1195
 4072SOL    HW213433   0.901   7.138   7.840  0.8542  0.6038  0.6122
 4073SOL     OW13434   0.464   7.177   0.570 -0.6753 -0.5086  0.1618
 4073SOL    HW113435   0.544   7.229   0.577 -0.7556 -0.3309 -0.1963
 4073SOL    HW213436   0.469   7.115   0.642  0.7441 -1.8044 -0.9996
 4074SOL     OW13437   0.945   5.661   7.570  0.6298  0.3229 -0.2019
 4074SOL    HW113438   0.942   5.752   7.541 -0.8876  1.0695  2.0500
 4074SOL    HW213439   0.853   5.634   7.572  1.0886 -1.4525 -1.3065
 4075SOL     OW13440   0.780   6.008   8.712 -0.3867 -0.2910  0.0463
 4075SOL    HW113441   0.871   5.994   8.683 -0.2798  0.5120 -0.0156
 4075SOL    HW213442   0.779   5.973   8.801  0.2047  0.4146  0.3442
 4076SOL     OW13443   1.220   5.679   8.205 -0.2839  0.1449 -0.1880
 4076SOL    HW113444   1.313   5.662   8.222  0.1581  1.7005 -0.8379
 4076SOL    HW213445   1.198   5.621   8.133  0.6400  0.8559 -1.0839
 4077SOL     OW13446   8.507   6.609   8.104  0.2345  0.3056  0.4965
 4077SOL    HW113447   8.526   6.589   8.013  0.8834  0.5723  0.5647
 4077SOL    HW213448   8.476   6.699   8.104 -1.6194 -0.2869  0.3214
 4078SOL     OW13449   0.698   7.513   7.897  0.1016  0.7993  0.2413
 4078SOL    HW113450   0.676   7.584   7.958  1.5817  0.4392  1.2371
 4078SOL    HW213451   0.788   7.531   7.871 -0.6541  1.2682 -2.3649
 4079SOL     OW13452   0.691   7.984   8.639 -0.3619  0.0724  0.3546
 4079SOL    HW113453   0.650   8.065   8.610  0.9379  0.6013 -0.0818
 4079SOL    HW213454   0.685   7.987   8.734  1.2734  1.5943  0.4541
 4080SOL     OW13455   0.001   7.801   0.757 -0.0870 -0.4928  0.0897
 4080SOL    HW113456  -0.070   7.849   0.714 -0.9528 -1.7039  0.1251
 4080SOL    HW213457  -0.009   7.821   0.850  1.5608  1.8313 -0.1603
 4081SOL     OW13458   0.112   7.332   0.153  0.2033 -0.5357 -0.1448
 4081SOL    HW113459   0.041   7.298   0.098 -1.5944  0.6032  1.3559
 4081SOL    HW213460   0.123   7.267   0.221  0.5313 -0.6601 -0.3163
 4082SOL     OW13461   0.396   0.166   0.682 -0.5177  0.4598  0.1644
 4082SOL    HW113462   0.356   0.246   0.648 -0.1080  0.5383 -0.1345
 4082SOL    HW213463   0.373   0.165   0.775  0.3974  1.4938  0.4156
 4083SOL     OW13464   1.184   0.665   0.570 -0.2083 -1.0260 -0.2034
 4083SOL    HW113465   1.168   0.732   0.504  0.6695 -1.1425 -0.5444
 4083SOL    HW213466   1.139   0.587   0.537 -0.8045 -0.7553 -0.0513
 4084SOL     OW13467   1.013   8.559   0.867  0.2880 -0.5696  0.1095
 4084SOL    HW113468   1.085   8.595   0.919  1.5786  1.7173 -2.9356
 4084SOL    HW213469   0.980   8.634   0.817 -2.8691 -1.9984 -0.1940
 4085SOL     OW13470   1.701   8.153   8.809  0.2844 -0.0882  0.1711
 4085SOL    HW113471   1.608   8.155   8.831 -0.2309 -0.9191 -1.7398
 4085SOL    HW213472   1.708   8.087   8.740  2.5709 -1.2515  1.3861
 4086SOL     OW13473   0.513   8.829   0.945  0.0161  0.0021  0.1878
 4086SOL    HW113474   0.544   8.866   1.027  0.1797 -0.7716  0.4868
 4086SOL    HW213475   0.474   8.745   0.969 -0.2514 -0.0786 -0.4808
 4087SOL     OW13476   0.528   8.354   1.732 -0.2262  0.3461  0.7300
 4087SOL    HW113477   0.617   8.384   1.754  0.4816 -0.6333 -0.6751
 4087SOL    HW213478   0.512   8.389   1.645 -1.2190  0.4615  0.9456
 4088SOL     OW13479   0.764   8.463   0.543  0.3019  0.6552 -0.2960
 4088SOL    HW113480   0.724   8.499   0.622 -0.8146 -1.3378  0.1064
 4088SOL    HW213481   0.837   8.410   0.575 -0.5933 -0.7543 -0.4772
 4089SOL     OW13482   0.524   8.613   1.972  0.5135  0.1774  0.5176
 4089SOL    HW113483   0.487   8.672   1.905 -0.8550 -1.1571  0.0290
 4089SOL    HW213484   0.482   8.640   2.053 -0.0090 -0.0008  0.3168
 4090SOL     OW13485   8.831   0.070   1.095 -0.0414 -0.1446  0.6393
 4090SOL    HW113486   8.889  -0.005   1.084 -0.7212 -0.4777 -0.9401
 4090SOL    HW213487   8.770   0.064   1.022 -1.7787  0.4606  1.9780
 4091SOL     OW13488   0.371   7.853   1.591 -0.1862  0.3556  0.4167
 4091SOL    HW113489   0.460   7.837   1.623 -0.8687 -1.4600  1.6124
 4091SOL    HW213490   0.358   7.788   1.522 -0.5425  0.7058  0.1513
 4092SOL     OW13491   1.454   7.520   0.745  0.1549 -0.8764  0.3999
 4092SOL    HW113492   1.513   7.498   0.673 -1.2990 -0.5888 -0.9370
 4092SOL    HW213493   1.456   7.616   0.749 -0.0314 -0.8780  0.5293
 4093SOL     OW13494   1.259   0.084   1.860 -0.3945 -0.2942 -0.2053
 4093SOL    HW113495   1.267   0.120   1.948 -1.5874  0.5807 -0.4361
 4093SOL    HW213496   1.173   0.113   1.830  1.0706  1.7698 -2.7066
 4094SOL     OW13497   8.726   8.571   0.831  0.6174  0.4264  0.5466
 4094SOL    HW113498   8.638   8.569   0.795  0.6582  3.4951 -0.0634
 4094SOL    HW213499   8.722   8.637   0.901  1.6991 -1.8764  2.9402
 4095SOL     OW13500   0.714   8.397   0.255  0.0248 -0.3289  0.4137
 4095SOL    HW113501   0.625   8.428   0.273  0.5147  1.3252  0.1398
 4095SOL    HW213502   0.761   8.412   0.338  0.4231  0.2712  0.0855
 4096SOL     OW13503   1.115   7.716   1.653 -0.0585  0.6244  0.3609
 4096SOL    HW113504   1.118   7.752   1.742 -1.6597  0.3565  0.5579
 4096SOL    HW213505   1.205   7.719   1.622  0.7334 -0.3967  2.4375
 4097SOL     OW13506   8.497   7.966   0.846  0.0745  0.6336 -0.3325
 4097SOL    HW113507   8.553   7.920   0.782 -0.8617 -0.3885 -0.4560
 4097SOL    HW213508   8.438   7.898   0.879  1.0353  0.9453  2.2352
 4098SOL     OW13509   1.921   0.100   0.410 -0.1481  0.4532  0.0772
 4098SOL    HW113510   1.971   0.155   0.350 -1.2344  0.7587 -0.5880
 4098SOL    HW213511   1.953   0.011   0.394  0.6517  0.7221  0.1587
 4099SOL     OW13512   1.289   8.499   0.699  0.3815 -0.0510  0.2390
 4099SOL    HW113513   1.322   8.510   0.609 -0.2421 -1.0897 -0.1331
 4099SOL    HW213514   1.217   8.562   0.706  0.3711 -0.0328 -0.0197
 4100SOL     OW13515   8.812   8.059   1.911  0.2508 -0.7061 -0.3745
 4100SOL    HW113516   8.748   8.005   1.957 -0.0111  0.1687  0.3180
 4100SOL    HW213517   8.896   8.020   1.932  0.0972 -0.5928  0.4779
 4101SOL     OW13518   0.606   0.387   0.530  0.1107  0.5543 -0.1898
 4101SOL    HW113519   0.551   0.458   0.496 -1.9415  0.7252  3.0387
 4101SOL    HW213520   0.661   0.430   0.596 -0.5768 -0.6425  1.2208
 4102SOL     OW13521   1.336   8.834   1.403  0.3129  0.0886  0.5525
 4102SOL    HW113522   1.405   8.769   1.401 -1.4080 -1.8748  1.3874
 4102SOL    HW213523   1.358   8.889   1.479 -0.1812 -1.9433  2.2794
 4103SOL     OW13524   0.905   7.484   0.251  0.5021 -0.2642  1.0116
 4103SOL    HW113525   0.844   7.437   0.194  0.9172  1.2522 -0.7707
 4103SOL    HW213526   0.981   7.426   0.257  0.9031 -0.0253 -0.9325
 4104SOL     OW13527   0.135   7.979   1.313 -0.0612 -0.4303  0.6223
 4104SOL    HW113528   0.198   7.907   1.315 -1.1504 -1.3865  2.1623
 4104SOL    HW213529   0.188   8.057   1.328  0.6251 -1.3629  3.6331
 4105SOL     OW13530   0.975   8.376   0.690  0.0530 -0.4514  0.6247
 4105SOL    HW113531   1.066   8.363   0.664 -0.1302 -0.3452 -0.0975
 4105SOL    HW213532   0.979   8.433   0.766  0.5439  0.3869 -0.0163
 4106SOL     OW13533   0.247   8.134   2.075  0.1310  0.0732  0.3648
 4106SOL    HW113534   0.231   8.185   1.996 -0.7453 -0.0675  0.4315
 4106SOL    HW213535   0.338   8.105   2.068 -0.2118 -0.7700 -1.0782
 4107SOL     OW13536   1.191   8.442   1.251 -0.0123  0.8386  0.0607
 4107SOL    HW113537   1.157   8.356   1.228  2.3138 -0.1696  0.0411
 4107SOL    HW213538   1.193   8.490   1.168  0.1130  0.3568 -0.2173
 4108SOL     OW13539   0.563   8.383   8.811  0.7370  0.2573 -0.5665
 4108SOL    HW113540   0.576   8.456   8.871 -0.7137 -0.1252  0.2840
 4108SOL    HW213541   0.497   8.328   8.855  2.3583 -1.9958 -0.7882
 4109SOL     OW13542   0.773   7.979   1.145 -0.1054 -0.2059 -0.0792
 4109SOL    HW113543   0.762   7.887   1.168 -3.4519  0.4671  1.5047
 4109SOL    HW213544   0.846   8.008   1.200 -0.4039 -1.4199  1.0256
 4110SOL     OW13545   0.579   8.079   1.726 -0.5551  0.3756 -0.3528
 4110SOL    HW113546   0.626   8.079   1.642 -1.5227  0.0795 -0.9197
 4110SOL    HW213547   0.548   8.169   1.736  1.7748  1.0799  1.0074
 4111SOL     OW13548   1.245   8.100   1.760  0.4605  0.3607  0.2373
 4111SOL    HW113549   1.296   8.064   1.687 -1.7052  1.6038 -2.0375
 4111SOL    HW213550   1.231   8.025   1.819  1.2000 -1.0052 -1.2431
 4112SOL     OW13551   0.803   8.517   1.749  0.1913 -0.4962 -0.2888
 4112SOL    HW113552   0.766   8.605   1.743  1.5486  0.1284  0.0306
 4112SOL    HW213553   0.895   8.529   1.727  0.5135 -1.7519  0.3044
 4113SOL     OW13554   0.736   8.229   1.520  0.5120  0.3082  0.0892
 4113SOL    HW113555   0.666   8.294   1.521  1.3992  1.3012  0.1710
 4113SOL    HW213556   0.807   8.273   1.473  0.4512 -1.3526 -1.6724
 4114SOL     OW13557   0.369   8.574   0.705 -0.0271  0.5954 -0.1730
 4114SOL    HW113558   0.389   8.545   0.616 -1.3158  0.1793 -0.3568
 4114SOL    HW213559   0.275   8.559   0.713 -0.6212  3.8465  0.0778
 4115SOL     OW13560   8.756   8.345   0.609  0.0855 -0.0819 -0.6105
 4115SOL    HW113561   8.684   8.382   0.559 -0.2069 -1.2179 -1.0701
 4115SOL    HW213562   8.744   8.379   0.698 -0.4341  0.5208 -0.9017
 4116SOL     OW13563   0.848   8.123   0.250  0.1055 -0.1612  0.9906
 4116SOL    HW113564   0.876   8.214   0.244  1.3850 -0.5230  1.1175
 4116SOL    HW213565   0.930   8.073   0.258 -0.5777 -1.3016  1.1288
 4117SOL     OW13566   2.057   7.830   1.778 -0.1820  0.6670 -0.6174
 4117SOL    HW113567   2.129   7.778   1.813 -0.0724  0.4438 -1.1515
 4117SOL    HW213568   2.063   7.914   1.822  0.8366  0.8915 -1.1753
 4118SOL     OW13569   1.146   8.728   0.652  0.6463 -0.6090 -0.2718
 4118SOL    HW113570   1.149   8.767   0.565  1.9149  3.2655  1.2880
 4118SOL    HW213571   1.059   8.751   0.685 -0.5071 -3.5479 -0.9754
 4119SOL     OW13572   0.558   7.694   0.568 -0.0590  0.0403  0.3383
 4119SOL    HW113573   0.595   7.710   0.481 -0.4656  0.5146  0.2434
 4119SOL    HW213574   0.575   7.775   0.616 -3.0795  1.3192 -0.4723
 4120SOL     OW13575   1.461   0.174   0.916 -0.2823 -0.0309 -0.3094
 4120SOL    HW113576   1.546   0.215   0.930 -0.1422  0.0982 -1.4468
 4120SOL    HW213577   1.407   0.243   0.876 -1.6179  0.5698  2.3293
 4121SOL     OW13578   0.551   8.697   8.641  0.2033  0.1342 -0.4240
 4121SOL    HW113579   0.489   8.659   8.579 -0.2106  1.6841 -0.9957
 4121SOL    HW213580   0.546   8.791   8.626  1.9094  0.3743  0.2749
 4122SOL     OW13581   1.227   8.292   0.933  0.0869  0.1248  0.2328
 4122SOL    HW113582   1.240   8.353   0.860 -0.0773 -0.1591 -0.0366
 4122SOL    HW213583   1.133   8.290   0.947  0.1865  0.9258  1.1043
 4123SOL     OW13584   0.245   0.146   1.396 -0.2030 -0.6161 -0.9145
 4123SOL    HW113585   0.177   0.079   1.392 -0.5564 -0.2874 -0.4564
 4123SOL    HW213586   0.312   0.116   1.334  0.3266 -2.1540  0.3436
 4124SOL     OW13587   0.268   7.844   1.033 -0.2094  0.2862  0.3768
 4124SOL    HW113588   0.353   7.820   1.069 -0.3459 -0.6910  0.0610
 4124SOL    HW213589   0.275   7.938   1.016  0.6223  0.3150  0.8403
 4125SOL     OW13590   1.733   0.221   0.087 -0.2615  0.5858  0.3969
 4125SOL    HW113591   1.705   0.303   0.047  0.3197  0.6160  0.0448
 4125SOL    HW213592   1.813   0.244   0.135  1.1722 -0.1920 -1.4994
 4126SOL     OW13593   1.250   7.422   0.564 -0.5896  0.5113  0.0251
 4126SOL    HW113594   1.252   7.331   0.595  1.9156  0.1498 -0.9003
 4126SOL    HW213595   1.311   7.468   0.622 -1.9154  1.6757  0.5543
 4127SOL     OW13596   8.561   7.865   0.473  0.3569 -0.9883  0.8498
 4127SOL    HW113597   8.629   7.921   0.510 -1.0295  0.2704  1.5943
 4127SOL    HW213598   8.513   7.832   0.549 -0.0564 -1.6204  0.3260
 4128SOL     OW13599   1.292   7.441   1.398 -0.3898  0.4878  0.1206
 4128SOL    HW113600   1.319   7.529   1.423  1.2706 -0.1162  0.5679
 4128SOL    HW213601   1.243   7.408   1.474  0.9941  0.1983  0.9063
 4129SOL     OW13602   0.857   7.951   1.807 -0.3748  0.6598 -0.6328
 4129SOL    HW113603   0.828   8.036   1.839 -0.8306  0.7553 -1.2848
 4129SOL    HW213604   0.826   7.947   1.716 -2.5601 -1.1891  0.0686
 4130SOL     OW13605   1.242   8.177   1.367 -0.2073  0.0957 -0.1669
 4130SOL    HW113606   1.294   8.141   1.439 -1.0592  0.5793  0.7254
 4130SOL    HW213607   1.304   8.191   1.296  0.8382  0.4808  0.7963
 4131SOL     OW13608   0.701   8.342   1.055 -0.1183 -0.0156  0.6597
 4131SOL    HW113609   0.613   8.315   1.078  0.0776 -1.5729 -0.3009
 4131SOL    HW213610   0.706   8.434   1.082 -0.8116 -0.8725  4.0859
 4132SOL     OW13611   0.117   7.589   0.268 -0.0723  0.3812  0.1884
 4132SOL    HW113612   0.210   7.612   0.262  0.1273 -0.1637  1.0472
 4132SOL    HW213613   0.112   7.500   0.235 -0.6395  1.0875 -1.8213
 4133SOL     OW13614   1.845   8.571   0.189  0.5730 -0.1537  0.3863
 4133SOL    HW113615   1.835   8.645   0.129 -0.3987 -0.4667  0.1489
 4133SOL    HW213616   1.824   8.607   0.275 -1.0994 -0.4009  0.1178
 4134SOL     OW13617   0.673   7.701   0.312  0.3819  0.2631 -0.0570
 4134SOL    HW113618   0.749   7.642   0.314  0.1143 -0.0888 -0.0688
 4134SOL    HW213619   0.599   7.643   0.292  0.1902  0.6805 -0.5922
 4135SOL     OW13620   1.015   8.335   1.479  0.2234  0.0425  0.2979
 4135SOL    HW113621   1.079   8.282   1.431 -1.2377  0.1173 -1.8541
 4135SOL    HW213622   1.035   8.425   1.453  0.0461  0.1748  0.6235
 4136SOL     OW13623   0.915   0.316   0.843  0.8052  0.2671 -0.0555
 4136SOL    HW113624   0.988   0.282   0.791  0.6237 -0.2289  0.0097
 4136SOL    HW213625   0.840   0.260   0.820  0.3349  1.0402 -0.4474
 4137SOL     OW13626   0.121   8.510   0.677 -0.6467  0.0165 -0.3456
 4137SOL    HW113627   0.082   8.425   0.659  0.1214 -0.4985  0.3458
 4137SOL    HW213628   0.067   8.547   0.748 -0.3069 -0.3959  0.1370
 4138SOL     OW13629   1.091   8.003   0.225  0.1364 -0.2198  0.1231
 4138SOL    HW113630   1.087   7.987   0.131  0.4588  1.1229 -0.1358
 4138SOL    HW213631   1.177   7.972   0.251  0.4586  0.3872 -0.2208
 4139SOL     OW13632   0.134   8.479   1.353 -0.1572 -0.2454 -0.0851
 4139SOL    HW113633   0.186   8.557   1.334 -0.6299  0.5868  1.7704
 4139SOL    HW213634   0.057   8.512   1.399 -0.9061 -1.7178 -0.2148
 4140SOL     OW13635   0.493   7.689   1.161  0.5480 -0.0964 -0.5779
 4140SOL    HW113636   0.498   7.595   1.180 -0.3437  0.0807  0.5743
 4140SOL    HW213637   0.527   7.696   1.071 -0.5587 -1.6805 -1.1679
 4141SOL     OW13638   0.983   7.929   0.531 -0.4157 -0.1910 -0.3091
 4141SOL    HW113639   0.971   7.862   0.598  0.4799 -1.3614 -1.2538
 4141SOL    HW213640   0.963   7.883   0.449 -0.1358  0.8087 -0.9482
 4142SOL     OW13641   1.639   7.915   1.150 -0.0248 -0.4427  0.4376
 4142SOL    HW113642   1.642   7.854   1.224  1.5800 -1.2697 -0.2490
 4142SOL    HW213643   1.728   7.913   1.114 -0.7544 -0.0924 -1.5290
 4143SOL     OW13644   1.509   8.659   1.000  0.1019  0.2303 -0.0223
 4143SOL    HW113645   1.510   8.719   0.926  1.2602  0.0242 -0.1815
 4143SOL    HW213646   1.593   8.613   0.996 -0.3026 -0.6163  0.7405
 4144SOL     OW13647   1.407   8.193   1.154  0.6357  0.3701 -0.1121
 4144SOL    HW113648   1.338   8.223   1.094 -0.6547 -1.1988  0.5079
 4144SOL    HW213649   1.477   8.163   1.097  0.0037  0.1927 -0.8170
 4145SOL     OW13650   1.801   8.006   8.578 -0.2209 -0.5108  0.2271
 4145SOL    HW113651   1.891   8.013   8.546 -0.1913  0.0796  0.4242
 4145SOL    HW213652   1.750   8.058   8.516 -0.6475 -1.9500 -0.6772
 4146SOL     OW13653   1.115   0.096   0.431 -0.0565  0.4195 -0.1296
 4146SOL    HW113654   1.177   0.137   0.491 -1.1746  1.3445  0.4382
 4146SOL    HW213655   1.140   0.127   0.344  0.3112  0.7344  0.0901
 4147SOL     OW13656   1.223   7.711   0.297  0.5375 -0.1577 -0.0522
 4147SOL    HW113657   1.275   7.631   0.298 -0.7190 -1.0529 -1.3516
 4147SOL    HW213658   1.155   7.697   0.363 -0.3589 -0.6783 -1.0562
 4148SOL     OW13659   0.578   7.980   0.334 -0.1090 -0.2138 -0.5256
 4148SOL    HW113660   0.649   8.043   0.321  0.5621 -0.7465  0.4474
 4148SOL    HW213661   0.620   7.895   0.323 -0.4573 -0.5486  0.6860
 4149SOL     OW13662   1.620   0.350   1.379 -0.1751 -0.1567 -0.0639
 4149SOL    HW113663   1.683   0.337   1.451 -1.3226  0.5634  1.1155
 4149SOL    HW213664   1.536   0.325   1.417 -0.8082  0.2785 -1.1600
 4150SOL     OW13665   1.049   8.668   1.695  0.4044 -0.1449 -0.2391
 4150SOL    HW113666   1.016   8.752   1.727  0.1406 -0.0790 -0.6676
 4150SOL    HW213667   1.097   8.690   1.615  0.7947 -0.3409 -0.0631
 4151SOL     OW13668   1.355   0.156   0.580  0.4722 -0.1436  0.1705
 4151SOL    HW113669   1.374   0.233   0.633  0.4009  0.8370 -1.1801
 4151SOL    HW213670   1.393   0.175   0.494 -2.5194 -0.0224 -1.2939
 4152SOL     OW13671   1.647   8.142   1.310 -0.0128 -0.1444 -0.0512
 4152SOL    HW113672   1.571   8.174   1.262 -0.5504 -0.5335  0.5279
 4152SOL    HW213673   1.646   8.047   1.295 -1.1335 -0.5118  2.0120
 4153SOL     OW13674   1.134   7.787   1.225  0.4095 -0.0328 -0.1159
 4153SOL    HW113675   1.151   7.764   1.133  2.3768 -2.8257  0.8168
 4153SOL    HW213676   1.078   7.716   1.257  0.0391  0.7253  0.9859
 4154SOL     OW13677   0.608   8.340   2.006 -0.1344  0.6132 -0.7678
 4154SOL    HW113678   0.594   8.434   2.009 -0.5421  0.5514 -0.6509
 4154SOL    HW213679   0.556   8.309   1.932 -1.1112  0.3044  0.0237
 4155SOL     OW13680   1.503   8.501   0.181  0.0062 -0.0265 -0.1900
 4155SOL    HW113681   1.472   8.456   0.103 -1.5407  2.0215 -0.8255
 4155SOL    HW213682   1.593   8.525   0.160  0.1357 -0.8790 -0.6797
 4156SOL     OW13683   0.451   8.230   1.113 -0.5451 -0.2704 -0.2487
 4156SOL    HW113684   0.472   8.139   1.134  1.7525  0.6199  1.6616
 4156SOL    HW213685   0.404   8.263   1.190 -1.7678  0.0879 -1.1118
 4157SOL     OW13686   1.000   8.274   1.076  0.1152  0.2242 -0.5822
 4157SOL    HW113687   0.919   8.291   1.028  0.1365 -0.6519 -0.9580
 4157SOL    HW213688   0.979   8.199   1.132  1.1217 -1.1571 -1.9509
 4158SOL     OW13689   8.516   8.563   1.475 -0.4644  0.0402 -0.4680
 4158SOL    HW113690   8.491   8.510   1.550  0.0517  0.4352 -0.0100
 4158SOL    HW213691   8.433   8.595   1.440 -0.6744  0.3828  0.3282
 4159SOL     OW13692   0.489   8.635   0.081 -0.3956 -0.1147 -0.4626
 4159SOL    HW113693   0.530   8.716   0.111  2.5573 -1.5028 -0.3369
 4159SOL    HW213694   0.481   8.645  -0.014  2.4695 -0.5596 -0.8469
 4160SOL     OW13695   0.624   7.935   0.684 -0.2356 -0.6552 -0.2328
 4160SOL    HW113696   0.632   7.989   0.763 -0.6178 -2.0836  0.8061
 4160SOL    HW213697   0.674   7.983   0.618  0.3649  0.4067  0.9448
 4161SOL     OW13698   0.690   0.146   0.792  0.0267 -0.1825  0.7568
 4161SOL    HW113699   0.634   0.145   0.715  2.9635 -0.5751 -1.5551
 4161SOL    HW213700   0.644   0.091   0.856 -1.1768 -2.3412 -1.7942
 4162SOL     OW13701   1.609   8.363   0.712  0.5830  0.2925  0.1384
 4162SOL    HW113702   1.690   8.413   0.719  0.8438 -0.2369  1.0530
 4162SOL    HW213703   1.558   8.409   0.645  0.0154  2.9284  2.1978
 4163SOL     OW13704   0.348   8.294   1.353 -0.3608 -0.5637 -0.3199
 4163SOL    HW113705   0.329   8.227   1.418 -0.1475 -0.1235  0.2085
 4163SOL    HW213706   0.269   8.348   1.350  0.3436  0.6318  1.0971
 4164SOL     OW13707   1.705   8.461   1.671 -0.4885 -0.0521  0.0679
 4164SOL    HW113708   1.763   8.537   1.665  0.4826 -0.8601 -1.3692
 4164SOL    HW213709   1.622   8.492   1.634 -0.3171  0.5049  0.1381
 4165SOL     OW13710   0.580   7.583   1.661 -1.1892  0.1355  0.1743
 4165SOL    HW113711   0.609   7.655   1.604  0.2251  0.0508  0.7375
 4165SOL    HW213712   0.612   7.607   1.748  0.7218 -1.8560  0.1305
 4166SOL     OW13713   0.629   7.661   2.078 -0.5486  0.0691 -0.0767
 4166SOL    HW113714   0.669   7.654   1.991 -1.5853 -0.4965 -0.5249
 4166SOL    HW213715   0.569   7.736   2.070 -2.1027 -1.1440 -0.4891
 4167SOL     OW13716   0.200   8.306   0.987  0.9295  0.5289 -0.0832
 4167SOL    HW113717   0.280   8.254   0.989  0.1563 -0.6928  0.3112
 4167SOL    HW213718   0.156   8.280   0.906  1.3481  1.8950 -0.7842
 4168SOL     OW13719   1.518   8.803   0.785 -0.2352 -0.4345  0.1020
 4168SOL    HW113720   1.461   8.799   0.708  0.3612 -0.4430 -0.3407
 4168SOL    HW213721   1.495   8.885   0.828 -2.6763 -1.7360  1.5737
 4169SOL     OW13722   0.954   7.642   0.479 -0.4893  0.0603 -0.1707
 4169SOL    HW113723   0.947   7.613   0.388 -1.7692 -0.1690 -0.0183
 4169SOL    HW213724   0.971   7.562   0.529  2.6487  0.4587 -0.4026
 4170SOL     OW13725   0.329   7.676   1.399 -0.0888 -0.6368  0.0918
 4170SOL    HW113726   0.390   7.637   1.336  0.4128  0.4770 -0.1422
 4170SOL    HW213727   0.248   7.627   1.388  0.4046 -1.3446 -0.4614
 4171SOL     OW13728   8.662   8.300   0.907  0.0540  1.1789 -0.1280
 4171SOL    HW113729   8.733   8.243   0.878 -1.2261 -0.7770  0.4182
 4171SOL    HW213730   8.694   8.389   0.889  2.1880  0.3300 -0.8417
 4172SOL     OW13731   0.645   8.088   0.908 -0.3564 -0.3578  0.3344
 4172SOL    HW113732   0.645   8.177   0.943 -0.4447 -0.5625  0.8761
 4172SOL    HW213733   0.696   8.038   0.972  1.4223 -0.3177 -0.9838
 4173SOL     OW13734   1.846   8.169   2.245  0.0510 -0.1792 -0.2809
 4173SOL    HW113735   1.819   8.200   2.331 -0.1748  0.5387 -0.5999
 4173SOL    HW213736   1.842   8.247   2.189  1.5924 -0.3147 -0.6284
 4174SOL     OW13737   0.007   7.607   0.529 -1.1447  0.0298  0.1425
 4174SOL    HW113738   0.066   7.655   0.588 -0.9012  1.3445 -1.1228
 4174SOL    HW213739   0.059   7.590   0.451 -0.7408 -3.6514  1.0193
 4175SOL     OW13740   1.229   8.077   0.609  0.0971 -0.2586  0.7381
 4175SOL    HW113741   1.166   8.035   0.551  0.0136  2.5815 -1.4468
 4175SOL    HW213742   1.195   8.061   0.697 -1.3736 -2.2865 -0.1172
 4176SOL     OW13743   0.669   8.551   0.790 -0.0302  0.6139  0.1376
 4176SOL    HW113744   0.664   8.501   0.871  4.5811  0.5310  0.6371
 4176SOL    HW213745   0.654   8.642   0.817 -0.5910  0.3657  0.6784
 4177SOL     OW13746   1.894   0.104   1.312 -0.5440 -0.2324 -0.8762
 4177SOL    HW113747   1.870   0.093   1.404  1.0850  1.0197 -0.2669
 4177SOL    HW213748   1.883   0.016   1.274  0.8758 -1.3223  1.0408
 4178SOL     OW13749   0.233   8.286   1.852 -0.0780 -0.0405  0.2441
 4178SOL    HW113750   0.300   8.285   1.784  0.4212  1.4808  0.6667
 4178SOL    HW213751   0.157   8.327   1.810  0.6087  2.0172  0.8536
 4179SOL     OW13752   1.351   7.570   0.044 -0.1221  0.3203 -0.1309
 4179SOL    HW113753   1.331   7.512   0.118  1.4612  0.6890  0.6334
 4179SOL    HW213754   1.352   7.658   0.082  0.5069  0.5296 -0.6106
 4180SOL     OW13755   1.357   7.909   0.194 -0.1049 -0.0759 -0.2574
 4180SOL    HW113756   1.297   7.844   0.230 -0.4820  0.3348 -0.1487
 4180SOL    HW213757   1.442   7.885   0.231 -0.7344  1.3775  2.4028
 4181SOL     OW13758   0.260   8.174   0.623 -0.0391 -0.4814  0.0882
 4181SOL    HW113759   0.247   8.143   0.533 -0.4704  0.5780 -0.2413
 4181SOL    HW213760   0.348   8.211   0.623  0.6405 -2.0626  0.5987
 4182SOL     OW13761   0.317   8.076   0.895  0.4348 -0.2769  0.1906
 4182SOL    HW113762   0.409   8.095   0.915  1.0269 -2.5172 -0.1390
 4182SOL    HW213763   0.311   8.083   0.800  0.8010 -2.0163 -0.0002
 4183SOL     OW13764   1.015   7.356   1.533 -0.3117 -0.3312  0.4843
 4183SOL    HW113765   1.026   7.311   1.617 -1.1131 -0.9085  0.2925
 4183SOL    HW213766   0.920   7.355   1.517 -0.3323  1.2053  0.3390
 4184SOL     OW13767   1.030   8.034   1.275  0.0564  0.7193 -0.1510
 4184SOL    HW113768   1.054   7.943   1.262 -0.6820  0.8743 -3.4251
 4184SOL    HW213769   1.111   8.077   1.301  1.2681 -0.2855 -2.0756
 4185SOL     OW13770   0.151   8.748   0.032  0.3624  0.0592 -0.4850
 4185SOL    HW113771   0.171   8.813  -0.036 -0.1152  0.6935 -0.0343
 4185SOL    HW213772   0.198   8.669   0.004  0.0800  0.2656 -1.6126
 4186SOL     OW13773   0.394   8.700   1.196  0.1955 -0.0205  0.3145
 4186SOL    HW113774   0.446   8.656   1.129 -0.6578 -0.9434  0.2329
 4186SOL    HW213775   0.456   8.719   1.266  0.8838 -0.0067 -0.2863
 4187SOL     OW13776   8.799   8.051   1.114  0.1218 -0.2170 -0.9079
 4187SOL    HW113777   8.874   8.030   1.170 -1.5605 -1.8638  0.8918
 4187SOL    HW213778   8.773   7.967   1.076 -2.6909 -0.4159  1.1006
 4188SOL     OW13779   0.034   8.062   1.637  0.2878  0.4046  0.0705
 4188SOL    HW113780  -0.026   8.126   1.599 -0.8225 -0.8934 -0.4512
 4188SOL    HW213781   0.004   8.051   1.727  0.3385  0.4665  0.0945
 4189SOL     OW13782   1.542   8.712   2.188 -0.3498 -0.0006 -0.1105
 4189SOL    HW113783   1.491   8.789   2.161 -0.8905 -0.0102  0.8446
 4189SOL    HW213784   1.477   8.642   2.197 -0.4371  0.3350  2.4888
 4190SOL     OW13785   0.460   8.494   0.468 -0.5020 -0.2780  0.0184
 4190SOL    HW113786   0.439   8.503   0.375  0.2717  1.6294 -0.0103
 4190SOL    HW213787   0.509   8.413   0.474  1.0444  0.4849 -1.5628
 4191SOL     OW13788   1.412   8.005   1.532  0.3858  0.4615  0.0637
 4191SOL    HW113789   1.421   7.942   1.460 -0.4298  1.0272 -0.5528
 4191SOL    HW213790   1.501   8.038   1.547  0.4397  1.0356 -1.3457
 4192SOL     OW13791   0.950   7.895   0.819  0.6399 -0.1466 -0.1317
 4192SOL    HW113792   1.042   7.902   0.845  0.7701 -0.0295 -0.6101
 4192SOL    HW213793   0.904   7.954   0.878  0.7402 -0.9109  0.7273
 4193SOL     OW13794   0.875   8.346   0.028 -0.1442  1.0224  0.3378
 4193SOL    HW113795   0.892   8.433  -0.006 -0.8817  0.9132 -0.3464
 4193SOL    HW213796   0.806   8.359   0.094 -1.8057  0.7379 -1.2529
 4194SOL     OW13797   0.155   8.673   1.089  0.1298  0.1658 -0.4557
 4194SOL    HW113798   0.248   8.686   1.111 -0.1545 -1.7238  2.3925
 4194SOL    HW213799   0.149   8.580   1.067 -1.1157  0.2650 -0.5795
 4195SOL     OW13800   0.743   8.609   1.119  0.2257 -0.2417 -0.2001
 4195SOL    HW113801   0.721   8.701   1.134 -0.2131  0.2316 -3.1893
 4195SOL    HW213802   0.839   8.609   1.110  0.2639 -0.1508  0.1903
 4196SOL     OW13803   1.203   8.021   0.882  0.4387  0.3394  0.0348
 4196SOL    HW113804   1.208   8.113   0.910  0.2621  0.0196  1.1631
 4196SOL    HW213805   1.290   7.986   0.900 -0.6740 -0.9014  4.0771
 4197SOL     OW13806   0.031   8.200   0.385  0.5231 -0.2920  0.4357
 4197SOL    HW113807  -0.043   8.147   0.356 -0.0736  0.6346  0.2113
 4197SOL    HW213808  -0.005   8.257   0.453  1.4043 -0.9125  1.4563
 4198SOL     OW13809   1.111   7.509   8.707  0.4073 -0.0771 -0.2777
 4198SOL    HW113810   1.165   7.441   8.666  0.2002 -0.2574 -0.2558
 4198SOL    HW213811   1.167   7.547   8.774 -0.4032 -2.2108  1.7292
 4199SOL     OW13812   1.732   7.668   0.522 -0.2520 -0.2208 -0.7380
 4199SOL    HW113813   1.778   7.749   0.545  1.0431 -1.0497 -0.2995
 4199SOL    HW213814   1.685   7.689   0.441 -0.4078  1.1287 -0.3127
 4200SOL     OW13815   1.229   8.640   1.020  0.8557 -0.1518 -0.1506
 4200SOL    HW113816   1.320   8.625   0.995  0.6605 -0.6061 -0.5944
 4200SOL    HW213817   1.231   8.722   1.070  1.5338 -0.2606  0.0052
 4201SOL     OW13818   0.458   0.028   1.667  0.3737  0.1637 -0.3568
 4201SOL    HW113819   0.391  -0.012   1.723  0.5853 -1.6267 -1.2843
 4201SOL    HW213820   0.527   0.056   1.727  1.2725 -3.0320  0.2980
 4202SOL     OW13821   1.660   7.413   0.607 -0.4232  0.3585 -0.2507
 4202SOL    HW113822   1.706   7.492   0.577  0.0147  0.3922  0.5061
 4202SOL    HW213823   1.637   7.367   0.526 -1.1367  1.5074 -0.7272
 4203SOL     OW13824   0.251   7.807   0.627 -0.0121 -0.2758 -0.5243
 4203SOL    HW113825   0.267   7.740   0.693 -0.3458 -1.2757 -1.4284
 4203SOL    HW213826   0.170   7.850   0.655  0.5066  0.1424  0.3618
 4204SOL     OW13827   0.550   8.486   1.491  0.2764  0.5229 -0.0856
 4204SOL    HW113828   0.499   8.444   1.422  1.4638 -0.5859 -0.3276
 4204SOL    HW213829   0.544   8.580   1.472 -1.0221  0.3804 -0.5253
 4205SOL     OW13830   0.805   8.143   0.615 -0.3300  0.3723 -0.7758
 4205SOL    HW113831   0.838   8.206   0.679 -0.0252 -0.5480  0.0038
 4205SOL    HW213832   0.879   8.084   0.600 -1.2595 -1.1324  0.2356
 4206SOL     OW13833   0.063   8.793   1.368 -0.1295 -0.1778  0.4706
 4206SOL    HW113834   0.037   8.726   1.432 -0.8906 -0.2583  0.0924
 4206SOL    HW213835   0.043   8.754   1.283  1.5770 -0.3710  0.1230
 4207SOL     OW13836   1.484   8.513   1.358  0.9023 -0.0387 -0.8327
 4207SOL    HW113837   1.403   8.471   1.328  0.6224  0.6212 -1.0020
 4207SOL    HW213838   1.467   8.537   1.449  0.0624  2.1321 -1.4970
 4208SOL     OW13839   0.435   8.551   0.977  0.6945 -0.3150  0.0239
 4208SOL    HW113840   0.386   8.472   1.001 -1.2698  0.8633  0.0978
 4208SOL    HW213841   0.454   8.540   0.884 -1.1589 -0.1227 -0.4227
 4209SOL     OW13842   1.486   7.938   0.907 -0.0726 -0.2901  0.0315
 4209SOL    HW113843   1.516   7.885   0.834 -0.3183 -0.2758 -0.0798
 4209SOL    HW213844   1.538   7.907   0.982 -0.0072 -0.4846 -0.0937
 4210SOL     OW13845   1.928   7.137   1.124  0.4312  0.6448  0.8567
 4210SOL    HW113846   1.836   7.143   1.152 -0.0183  2.5939 -0.7914
 4210SOL    HW213847   1.927   7.170   1.034  2.6252 -0.1791  0.4856
 4211SOL     OW13848   8.810   8.718   1.731 -0.0705  0.2022  0.1842
 4211SOL    HW113849   8.853   8.803   1.727 -0.5150  0.4048 -0.3791
 4211SOL    HW213850   8.748   8.725   1.803 -0.1008  0.3549  0.1434
 4212SOL     OW13851   0.649   7.761   1.473  0.3252  0.4869  0.1298
 4212SOL    HW113852   0.658   7.722   1.386 -0.9314 -0.4896  0.3943
 4212SOL    HW213853   0.722   7.822   1.480  1.2273 -0.3889 -1.0948
 4213SOL     OW13854   0.085   8.031   8.617  0.4112  0.2758  0.4259
 4213SOL    HW113855   0.002   8.080   8.620  0.0703 -0.3271  1.5997
 4213SOL    HW213856   0.058   7.940   8.603  0.9576  0.2200 -0.3244
 4214SOL     OW13857   1.045   8.259   1.742  0.2415  0.0409 -0.0679
 4214SOL    HW113858   1.117   8.196   1.736 -1.3900 -1.8522 -1.1109
 4214SOL    HW213859   1.040   8.297   1.654  0.8406  1.2206  0.3962
 4215SOL     OW13860   0.159   8.017   0.094  0.2069  0.0872  0.1782
 4215SOL    HW113861   0.163   8.106   0.127  2.3321 -0.5669  1.8658
 4215SOL    HW213862   0.127   7.965   0.167  0.9658 -0.8166 -0.1092
 4216SOL     OW13863   0.525   8.761   1.448 -0.1460 -0.0391 -0.1052
 4216SOL    HW113864   0.494   8.799   1.530 -0.0631 -1.2860  0.5281
 4216SOL    HW213865   0.572   8.832   1.405  1.1036  0.2274  1.6216
 4217SOL     OW13866   0.840   7.972   1.528 -0.5719 -0.0550 -0.2063
 4217SOL    HW113867   0.806   8.061   1.536  0.9209  0.5178 -0.0497
 4217SOL    HW213868   0.898   7.975   1.452 -0.6195 -0.9419 -0.2942
 4218SOL     OW13869   1.413   8.523   1.632 -0.7120  0.0037 -0.6059
 4218SOL    HW113870   1.330   8.569   1.642 -0.8593 -0.0094 -1.6414
 4218SOL    HW213871   1.418   8.465   1.708 -2.1142 -0.7033 -1.0115
 4219SOL     OW13872   1.314   8.675   1.915  0.1458  0.1678  0.1288
 4219SOL    HW113873   1.269   8.760   1.919  1.2678  0.7321  1.2732
 4219SOL    HW213874   1.389   8.691   1.858 -1.0325 -0.7865 -1.8141
 4220SOL     OW13875   1.344   7.475   0.324 -0.7845 -0.7219 -0.3067
 4220SOL    HW113876   1.306   7.408   0.266  1.7199 -2.2354 -0.3471
 4220SOL    HW213877   1.309   7.455   0.410 -1.9424 -0.5388 -0.7158
 4221SOL     OW13878   0.554   8.232   0.486  0.2638 -0.2828 -0.3060
 4221SOL    HW113879   0.645   8.211   0.506  0.8003  0.9740 -1.2717
 4221SOL    HW213880   0.511   8.147   0.478  1.0051 -0.8974  1.5133
 4222SOL     OW13881   2.129   7.890   1.525  0.4414 -0.2406 -0.2797
 4222SOL    HW113882   2.144   7.797   1.507 -1.9438 -0.5869 -0.8537
 4222SOL    HW213883   2.078   7.890   1.606 -0.5705  0.4658 -0.9005
 4223SOL     OW13884   1.790   8.101   1.549  0.1133  0.0091 -0.0691
 4223SOL    HW113885   1.743   8.135   1.473 -2.3235 -0.5479  1.1020
 4223SOL    HW213886   1.881   8.130   1.536 -0.7547  2.2423 -1.7980
 4224SOL     OW13887   0.720   8.729   0.428 -0.1999 -0.0275 -0.7132
 4224SOL    HW113888   0.626   8.719   0.440  0.0694 -0.0416  1.9316
 4224SOL    HW213889   0.758   8.647   0.460  0.7947  0.7329  0.1512
 4225SOL     OW13890   1.447   8.156   0.145  0.6491  0.3704  0.3724
 4225SOL    HW113891   1.433   8.211   0.222 -1.1528  2.0656 -1.0681
 4225SOL    HW213892   1.409   8.071   0.168 -1.6314  1.4287  0.7124
 4226SOL     OW13893   0.551   0.246   1.255 -0.2894  0.6062  0.3503
 4226SOL    HW113894   0.503   0.291   1.185  1.4563 -0.6048 -1.7410
 4226SOL    HW213895   0.574   0.316   1.316 -0.3955  2.0266 -1.1532
 4227SOL     OW13896   0.445   8.809   0.484  0.3086 -0.1969  0.1418
 4227SOL    HW113897   0.434   8.721   0.519  1.4373 -0.2656  0.3443
 4227SOL    HW213898   0.430   8.867   0.558  0.7027 -0.2642  0.2744
 4228SOL     OW13899   0.867   8.843   1.406  0.0338  0.0025  0.2572
 4228SOL    HW113900   0.817   8.856   1.325 -1.4205 -0.3170  1.0692
 4228SOL    HW213901   0.942   8.790   1.380  0.9547  1.9600 -1.3269
 4229SOL     OW13902   1.455   7.638   1.107  1.1974  0.6125  0.1792
 4229SOL    HW113903   1.411   7.565   1.062  1.6096  0.1674  0.4848
 4229SOL    HW213904   1.530   7.659   1.052  0.2731  1.7925 -0.6694
 4230SOL     OW13905   0.092   7.874   0.313 -0.1436  0.0711 -0.1884
 4230SOL    HW113906   0.071   7.783   0.294  2.9222 -0.6555 -0.4983
 4230SOL    HW213907   0.070   7.884   0.405  0.8131 -1.4468  0.2439
 4231SOL     OW13908   1.751   8.699   0.431  0.1908  0.1406  0.3501
 4231SOL    HW113909   1.766   8.791   0.411 -0.5223  0.4752  1.2711
 4231SOL    HW213910   1.738   8.697   0.526 -0.7600 -0.7682  0.2185
 4232SOL     OW13911   0.429   7.981   1.233  0.1552  0.6581 -0.4033
 4232SOL    HW113912   0.491   8.008   1.301  0.1414 -0.3481  0.0221
 4232SOL    HW213913   0.447   7.889   1.219  0.6719  1.0201 -2.3463
 4233SOL     OW13914   1.393   7.825   1.344 -0.5939 -0.2826  0.5892
 4233SOL    HW113915   1.308   7.814   1.303 -0.5447  0.5591  0.2479
 4233SOL    HW213916   1.453   7.775   1.289 -0.9255 -1.2749  1.0986
 4234SOL     OW13917   1.051   7.558   1.046  0.0071 -0.1184  0.2949
 4234SOL    HW113918   0.976   7.558   0.986  0.7782  0.5411 -0.7050
 4234SOL    HW213919   1.116   7.502   1.003  0.3080 -0.2375  0.8894
 4235SOL     OW13920   0.884   0.057   0.302  0.2193 -0.0169 -0.5431
 4235SOL    HW113921   0.963   0.071   0.354 -0.7264  1.4972  0.5635
 4235SOL    HW213922   0.834  -0.009   0.351  1.9092 -3.1640 -2.6424
 4236SOL     OW13923   1.283   7.290   8.557  0.3064  0.0552 -0.7455
 4236SOL    HW113924   1.350   7.330   8.614 -1.0043  3.1108 -1.1287
 4236SOL    HW213925   1.314   7.309   8.468 -0.1516 -0.2028 -0.9597
 4237SOL     OW13926   1.516   8.125   0.610  0.1466  0.4520 -0.0002
 4237SOL    HW113927   1.423   8.102   0.609 -0.1042  1.2785 -2.5469
 4237SOL    HW213928   1.519   8.212   0.649 -0.1053  0.3120  0.3356
 4238SOL     OW13929   1.261   7.408   0.948  0.2868  0.0212  0.4897
 4238SOL    HW113930   1.294   7.325   0.983 -1.0671 -0.6464  0.2286
 4238SOL    HW213931   1.311   7.422   0.867  0.2686 -0.7145  0.3509
 4239SOL     OW13932   0.235   8.569   8.647  0.0359  0.2625 -0.3166
 4239SOL    HW113933   0.271   8.577   8.559  0.0192  2.7765 -0.1783
 4239SOL    HW213934   0.151   8.525   8.635  1.0976 -1.6387 -1.1971
 4240SOL     OW13935   8.688   8.082   2.223  0.2695 -0.3205 -0.2963
 4240SOL    HW113936   8.667   8.007   2.167 -1.8052 -1.6859  2.1024
 4240SOL    HW213937   8.763   8.053   2.275 -0.2735 -0.6105  0.3407
 4241SOL     OW13938   8.749   7.842   2.759  0.1554  0.0551 -0.1762
 4241SOL    HW113939   8.800   7.760   2.762  1.0385  0.6228  1.1006
 4241SOL    HW213940   8.804   7.906   2.804 -0.4102  1.4317 -1.3593
 4242SOL     OW13941   0.246   7.789   2.826 -0.5849 -0.1931 -0.3871
 4242SOL    HW113942   0.334   7.788   2.863 -0.4289 -1.8692 -0.7466
 4242SOL    HW213943   0.198   7.723   2.876 -1.4220  0.1678 -0.6998
 4243SOL     OW13944   0.682   0.159   2.994 -0.0209  0.8033 -0.1985
 4243SOL    HW113945   0.624   0.204   3.055 -0.8247 -0.3748 -0.0671
 4243SOL    HW213946   0.693   0.220   2.922 -1.3295  1.1100 -0.1647
 4244SOL     OW13947   1.657   0.030   2.384 -0.1586  0.5272 -0.2162
 4244SOL    HW113948   1.641  -0.037   2.317 -0.3645 -0.9130  1.2153
 4244SOL    HW213949   1.585   0.018   2.447  2.1972 -0.9770  2.4147
 4245SOL     OW13950   1.192   8.256   2.159 -0.5168 -0.2211 -0.0630
 4245SOL    HW113951   1.144   8.178   2.185 -1.8568  0.7812  0.5575
 4245SOL    HW213952   1.142   8.292   2.086  0.4434 -0.2664 -0.7623
 4246SOL     OW13953   1.992   8.061   1.892  0.2077 -0.1387  0.2109
 4246SOL    HW113954   1.943   8.018   1.962 -0.1987  0.3253  0.2146
 4246SOL    HW213955   1.945   8.143   1.876  0.5645 -0.0259 -0.2873
 4247SOL     OW13956   0.921   8.563   2.523 -0.2901 -0.3483  0.4542
 4247SOL    HW113957   0.909   8.557   2.618 -0.4806  0.3487  0.4762
 4247SOL    HW213958   0.845   8.611   2.492  1.4722  2.6411  0.3909
 4248SOL     OW13959   0.367   8.713   3.547 -0.3369 -0.0611 -0.2888
 4248SOL    HW113960   0.320   8.791   3.516 -1.0309  0.1125  1.1111
 4248SOL    HW213961   0.356   8.715   3.642 -0.5706 -2.0202 -0.2407
 4249SOL     OW13962   1.159   8.555   2.387  0.5855 -0.2078 -0.1410
 4249SOL    HW113963   1.137   8.581   2.298  2.0763  1.2318 -0.1402
 4249SOL    HW213964   1.075   8.551   2.433 -0.0419  0.8753 -1.1530
 4250SOL     OW13965   0.625   0.062   3.807 -0.2504  0.4033  0.4697
 4250SOL    HW113966   0.691   0.116   3.851  0.9205 -1.0554  0.5649
 4250SOL    HW213967   0.603   0.111   3.728  1.5254  0.5713  0.0404
 4251SOL     OW13968   0.961   0.459   2.822 -0.1796 -0.3059  0.1385
 4251SOL    HW113969   0.904   0.493   2.891  0.6303  1.1510  0.1387
 4251SOL    HW213970   0.934   0.368   2.810  0.0701 -0.7964  2.8077
 4252SOL     OW13971   0.452   7.780   3.012  0.4138  0.1658 -0.1143
 4252SOL    HW113972   0.470   7.868   3.043 -1.3820  0.9660 -1.1685
 4252SOL    HW213973   0.400   7.740   3.082  0.0857  0.4311 -0.2024
 4253SOL     OW13974   1.590   7.980   2.625 -0.5232  0.4435 -0.5042
 4253SOL    HW113975   1.637   7.954   2.546 -0.5951 -0.1669 -0.3570
 4253SOL    HW213976   1.554   8.066   2.605 -0.0208  0.5601 -0.9096
 4254SOL     OW13977   1.078   0.300   3.291  0.4275 -0.1305 -0.2414
 4254SOL    HW113978   1.025   0.239   3.341  0.6845  0.2505  0.5047
 4254SOL    HW213979   1.134   0.342   3.356  1.0143  0.1153 -0.8967
 4255SOL     OW13980   0.484   8.827   2.885  0.1416  0.0938  0.1359
 4255SOL    HW113981   0.542   8.899   2.908  0.4498  0.0391 -0.4646
 4255SOL    HW213982   0.399   8.869   2.870  0.8545  0.7157 -2.6673
 4256SOL     OW13983   0.640   8.581   2.255 -0.0053 -0.1419 -0.3253
 4256SOL    HW113984   0.620   8.675   2.257  1.2573  0.1312  1.4726
 4256SOL    HW213985   0.704   8.572   2.184 -1.7128 -0.0522 -1.9624
 4257SOL     OW13986   1.487   7.635   3.308  0.1845  0.3135 -0.2656
 4257SOL    HW113987   1.405   7.614   3.353 -0.2952  1.5632 -0.5205
 4257SOL    HW213988   1.507   7.724   3.334  0.6915  0.5357 -1.3389
 4258SOL     OW13989   0.302   8.413   2.307 -0.3157  0.4126 -0.6472
 4258SOL    HW113990   0.281   8.320   2.315 -0.8108  0.6843  2.4287
 4258SOL    HW213991   0.362   8.430   2.379 -1.5920  2.8048 -0.0562
 4259SOL     OW13992   1.880   8.068   2.778 -0.3753 -0.4341  0.7637
 4259SOL    HW113993   1.943   8.023   2.835  0.5672 -0.8543 -0.5561
 4259SOL    HW213994   1.915   8.056   2.690  0.1963  3.2439  0.3180
 4260SOL     OW13995   1.581   8.510   2.435  0.0436 -0.2358  0.0813
 4260SOL    HW113996   1.504   8.454   2.435 -0.8604  0.9092  1.3324
 4260SOL    HW213997   1.545   8.599   2.436  1.4144  0.3617 -0.9647
 4261SOL     OW13998   0.157   8.367   3.281  0.2237  0.8341  0.4232
 4261SOL    HW113999   0.247   8.393   3.259 -0.2320  1.5008 -0.7346
 4261SOL    HW214000   0.141   8.406   3.366  1.1467  0.4044  0.8156
 4262SOL     OW14001   0.724   8.776   2.493  0.0923 -0.1352 -0.0074
 4262SOL    HW114002   0.741   8.815   2.579 -1.0211 -0.6752  0.4903
 4262SOL    HW214003   0.629   8.785   2.482  0.3272  0.6956 -1.5810
 4263SOL     OW14004   1.096   0.183   3.730 -0.7259 -0.1410  0.4841
 4263SOL    HW114005   1.071   0.274   3.749 -0.4048 -0.0795  0.6274
 4263SOL    HW214006   1.018   0.131   3.751 -1.7261  0.3163 -1.7554
 4264SOL     OW14007   0.884   7.857   2.248  0.4091  0.0489 -1.5881
 4264SOL    HW114008   0.916   7.945   2.232  2.4998 -0.3225  0.1675
 4264SOL    HW214009   0.814   7.868   2.312 -0.0686  0.5002 -2.1769
 4265SOL     OW14010   8.725   8.687   3.241 -0.3656  0.0376 -0.6721
 4265SOL    HW114011   8.709   8.724   3.154  1.1476  0.8888 -0.6108
 4265SOL    HW214012   8.800   8.629   3.229 -0.6069 -0.4116 -0.0755
 4266SOL     OW14013   1.684   8.389   2.156  0.2059  0.3228 -0.1801
 4266SOL    HW114014   1.645   8.302   2.156 -1.2872  0.9607 -0.1110
 4266SOL    HW214015   1.630   8.439   2.218  1.1223  1.2623 -0.1144
 4267SOL     OW14016   0.437   7.946   3.731  0.3961  0.2384  0.1850
 4267SOL    HW114017   0.399   8.030   3.757 -1.0629  0.4139 -2.2090
 4267SOL    HW214018   0.516   7.969   3.682  0.1346  0.2069 -0.2534
 4268SOL     OW14019   1.489   0.345   2.777 -0.3549  0.2693 -0.1931
 4268SOL    HW114020   1.404   0.302   2.775  0.3640 -1.3350 -3.3763
 4268SOL    HW214021   1.550   0.277   2.805  0.2400  0.5365 -0.8192
 4269SOL     OW14022   0.602   8.264   2.272 -0.1491 -0.3959 -0.4032
 4269SOL    HW114023   0.602   8.311   2.188 -1.6611 -1.7941 -1.2350
 4269SOL    HW214024   0.552   8.185   2.256  2.6619 -2.6016  0.8374
 4270SOL     OW14025   1.572   7.900   3.345 -0.1072 -0.1948  0.4092
 4270SOL    HW114026   1.655   7.944   3.327 -0.2555  0.0206  0.2406
 4270SOL    HW214027   1.519   7.967   3.388 -0.4252 -0.1266 -0.0768
 4271SOL     OW14028   0.799   7.867   3.404  0.2043 -0.0567 -0.0811
 4271SOL    HW114029   0.808   7.886   3.311  0.1492  1.6563  0.2283
 4271SOL    HW214030   0.742   7.936   3.438 -1.2948 -1.7086  0.9116
 4272SOL     OW14031   1.432   8.285   3.778 -0.3808  0.2789 -0.2901
 4272SOL    HW114032   1.357   8.265   3.721 -0.6338 -1.0335  0.4653
 4272SOL    HW214033   1.490   8.210   3.770 -0.9301 -0.4734  1.9576
 4273SOL     OW14034   0.519   8.795   3.175  0.1398  0.1121  0.0981
 4273SOL    HW114035   0.436   8.749   3.192  1.2441 -1.6692  1.0165
 4273SOL    HW214036   0.495   8.887   3.173 -2.5737 -0.4150 -3.7306
 4274SOL     OW14037   0.796   7.901   3.100 -0.3195 -0.0226  0.3042
 4274SOL    HW114038   0.739   7.941   3.036 -0.6703 -2.6937 -1.1844
 4274SOL    HW214039   0.869   7.866   3.049 -0.2624 -1.6188  1.4044
 4275SOL     OW14040   1.178   7.900   2.633  0.0352 -0.1620  0.3274
 4275SOL    HW114041   1.237   7.846   2.580 -0.5062  0.4754 -0.9713
 4275SOL    HW214042   1.229   7.922   2.711  1.3799  0.0380 -0.5797
 4276SOL     OW14043   0.404   8.189   2.579  0.0126 -0.1349  0.2133
 4276SOL    HW114044   0.435   8.115   2.526  1.3591  0.4112  0.2213
 4276SOL    HW214045   0.477   8.250   2.581 -1.2035  1.3772 -0.0688
 4277SOL     OW14046   1.383   7.934   2.252 -0.1880 -0.0832  0.0567
 4277SOL    HW114047   1.367   7.917   2.345 -1.5892 -0.7047 -0.2740
 4277SOL    HW214048   1.350   7.856   2.207  0.0662  0.3928 -0.9903
 4278SOL     OW14049   1.662   8.116   3.680 -0.1224  0.1943  0.0481
 4278SOL    HW114050   1.712   8.192   3.709 -0.6250  1.1779 -1.5329
 4278SOL    HW214051   1.703   8.090   3.598 -0.4557 -0.7618  0.1726
 4279SOL     OW14052   1.815   8.621   2.105 -0.1374  0.8625  0.2972
 4279SOL    HW114053   1.785   8.539   2.144 -0.2155  0.8325  0.1765
 4279SOL    HW214054   1.736   8.675   2.098 -0.2052  0.7044 -0.2134
 4280SOL     OW14055   1.146   7.913   3.001 -0.4915 -0.2265  0.2389
 4280SOL    HW114056   1.220   7.852   2.997 -0.9622 -0.7550 -0.8068
 4280SOL    HW214057   1.078   7.871   2.949 -0.1676  2.0918 -2.2602
 4281SOL     OW14058   1.315   0.085   2.764  0.3182  0.1792  0.6252
 4281SOL    HW114059   1.326  -0.007   2.740  0.0147  0.6073 -1.3136
 4281SOL    HW214060   1.261   0.122   2.694  0.4281  1.8486  1.3696
 4282SOL     OW14061   0.165   8.448   2.078 -0.0184  0.0840  0.1992
 4282SOL    HW114062   0.223   8.435   2.153  3.0073  0.3118 -1.8996
 4282SOL    HW214063   0.185   8.375   2.020 -1.1810  0.7065 -1.0151
 4283SOL     OW14064   1.365   7.984   2.818 -0.0990  0.1110  0.2750
 4283SOL    HW114065   1.451   8.007   2.782 -0.1716 -0.4239 -0.2635
 4283SOL    HW214066   1.373   8.000   2.912  1.2226 -1.7212  0.5489
 4284SOL     OW14067   8.793   0.135   3.094  0.2897  0.2528 -0.1570
 4284SOL    HW114068   8.724   0.159   3.156 -1.1287 -0.3810 -1.4015
 4284SOL    HW214069   8.779   0.193   3.019  1.0767  0.0760 -0.4483
 4285SOL     OW14070   0.114   8.092   3.254 -0.4946  0.5426 -0.0388
 4285SOL    HW114071   0.141   8.181   3.232 -1.8076  0.9230 -0.1815
 4285SOL    HW214072   0.100   8.093   3.348 -0.0732  0.3516  0.0308
 4286SOL     OW14073   1.904   8.685   1.713  0.0720  0.2664  0.0581
 4286SOL    HW114074   1.942   8.708   1.798  1.0928 -1.1371  0.0241
 4286SOL    HW214075   1.953   8.738   1.650  0.5089  0.0280  0.1974
 4287SOL     OW14076   1.382   7.554   1.954 -0.3835  0.6751  0.4542
 4287SOL    HW114077   1.309   7.553   2.016 -1.5160 -0.2286 -0.8370
 4287SOL    HW214078   1.394   7.647   1.934 -0.6114  0.9041  1.3027
 4288SOL     OW14079   0.122   8.184   2.315  0.3328  0.1395 -0.0695
 4288SOL    HW114080   0.148   8.185   2.223 -3.9569  0.2946 -1.4910
 4288SOL    HW214081   0.125   8.091   2.339  0.7249  0.0008 -0.6373
 4289SOL     OW14082   1.243   7.607   3.449  0.1094 -0.5883  0.2548
 4289SOL    HW114083   1.226   7.576   3.538  2.6139 -0.7481  0.7338
 4289SOL    HW214084   1.265   7.528   3.400 -0.6874 -0.4233 -0.3881
 4290SOL     OW14085   0.632   7.935   1.969 -0.1315 -0.6824  0.1627
 4290SOL    HW114086   0.629   7.994   1.893 -2.6673 -1.6591 -0.5853
 4290SOL    HW214087   0.724   7.907   1.973  0.1334 -0.4565 -2.4395
 4291SOL     OW14088   0.773   8.196   3.704 -0.7348  0.1666  0.3058
 4291SOL    HW114089   0.774   8.290   3.722 -1.1231  0.1017  0.6895
 4291SOL    HW214090   0.839   8.159   3.762 -1.1795  0.1009  0.7787
 4292SOL     OW14091   1.244   8.299   3.577  0.3684  0.4328  0.3000
 4292SOL    HW114092   1.157   8.324   3.546  0.2245  0.6679  0.8919
 4292SOL    HW214093   1.295   8.286   3.497 -0.9630 -2.5067 -0.2210
 4293SOL     OW14094   1.101   8.131   2.835 -0.4818  0.4201  0.7673
 4293SOL    HW114095   1.107   8.053   2.889 -0.5286  0.0435  0.2342
 4293SOL    HW214096   1.082   8.098   2.747 -1.6439  1.0838  0.7417
 4294SOL     OW14097   0.691   7.720   2.689 -0.4212 -0.2206  0.6435
 4294SOL    HW114098   0.643   7.677   2.760  1.8372 -0.6560  2.0189
 4294SOL    HW214099   0.685   7.813   2.710  1.1058 -0.3943  2.1094
 4295SOL     OW14100   1.329   8.525   2.134 -0.6230  0.5337 -0.0269
 4295SOL    HW114101   1.288   8.440   2.117  2.5356 -0.8473 -1.5204
 4295SOL    HW214102   1.317   8.575   2.053  1.4962 -0.3574 -0.9743
 4296SOL     OW14103   8.735   8.026   2.554 -0.4069 -0.3832 -0.5425
 4296SOL    HW114104   8.642   8.046   2.547 -0.4294 -0.4471 -0.4339
 4296SOL    HW214105   8.740   7.959   2.622 -0.3026 -0.5483 -0.7120
 4297SOL     OW14106   1.098   7.750   2.098 -0.2133  0.1525 -0.5240
 4297SOL    HW114107   1.130   7.664   2.128  0.6920  0.7155  0.1697
 4297SOL    HW214108   1.033   7.776   2.162  0.3288  0.4829 -0.0977
 4298SOL     OW14109   1.187   7.882   3.418 -0.4127 -0.0999  0.4275
 4298SOL    HW114110   1.241   7.931   3.357 -1.0718  0.9365  0.6463
 4298SOL    HW214111   1.215   7.791   3.407 -0.3411  0.0836 -1.2352
 4299SOL     OW14112   1.691   0.424   2.532  0.0911 -0.3742  0.1558
 4299SOL    HW114113   1.643   0.404   2.612  0.5083  0.1065  0.5282
 4299SOL    HW214114   1.780   0.395   2.549 -0.0733 -1.3937 -0.5848
 4300SOL     OW14115   0.496   0.197   2.677  0.2059  0.3464  0.1047
 4300SOL    HW114116   0.502   0.195   2.582  1.0550 -1.2968  0.1571
 4300SOL    HW214117   0.495   0.105   2.703  2.1265  0.7277  1.8061
 4301SOL     OW14118   1.114   7.870   1.865  0.0006  0.2612 -0.0113
 4301SOL    HW114119   1.032   7.918   1.848  0.3585  1.4517  1.3607
 4301SOL    HW214120   1.106   7.841   1.956  0.5598 -0.7819 -0.2802
 4302SOL     OW14121   0.011   8.066   2.866  0.1806  0.2850  0.1676
 4302SOL    HW114122   0.103   8.088   2.854 -0.0776  1.4078  0.1242
 4302SOL    HW214123  -0.011   8.098   2.953  0.0560 -0.8212  0.5583
 4303SOL     OW14124   8.838   7.588   2.835 -0.5651  0.1526 -0.0361
 4303SOL    HW114125   8.816   7.571   2.926 -0.2434  0.4281  0.0969
 4303SOL    HW214126   8.912   7.529   2.816  0.3274  1.1255  0.3248
 4304SOL     OW14127   1.064   8.137   2.514  0.6463  0.5397 -0.4444
 4304SOL    HW114128   1.077   8.146   2.420  0.7276  1.5152 -0.3511
 4304SOL    HW214129   1.097   8.049   2.535  0.3577  0.2032 -1.3605
 4305SOL     OW14130   0.954   7.565   2.663  0.6465  0.3798  0.5953
 4305SOL    HW114131   0.943   7.512   2.584 -1.4058 -1.7732  2.2316
 4305SOL    HW214132   0.871   7.612   2.673 -0.4445 -1.8683  3.1365
 4306SOL     OW14133   1.230   8.609   2.756 -0.7724  0.4068  0.3296
 4306SOL    HW114134   1.284   8.555   2.814 -1.0083  0.2976  0.4492
 4306SOL    HW214135   1.280   8.614   2.674  0.2917  1.8295  1.0251
 4307SOL     OW14136   1.457   8.192   2.577  0.5681  0.6146 -0.1220
 4307SOL    HW114137   1.404   8.231   2.647  1.3693  1.5261 -0.0000
 4307SOL    HW214138   1.409   8.212   2.497  0.3325  0.7597  0.0531
 4308SOL     OW14139   1.410   8.339   1.827  0.3155 -0.2922 -0.3017
 4308SOL    HW114140   1.386   8.255   1.786 -1.2735 -0.1500  0.2938
 4308SOL    HW214141   1.460   8.314   1.905 -1.8879 -0.8203  1.0226
 4309SOL     OW14142   1.663   8.772   2.724  0.0175 -0.3468 -0.1043
 4309SOL    HW114143   1.585   8.717   2.728  0.9161 -1.7104 -0.7132
 4309SOL    HW214144   1.684   8.776   2.630  1.4060 -1.0672  0.1584
 4310SOL     OW14145   1.574   8.104   1.895  0.6138 -0.4718 -0.3874
 4310SOL    HW114146   1.639   8.166   1.863 -0.9160  0.1839 -2.4516
 4310SOL    HW214147   1.561   8.129   1.987  1.9519  0.5376 -0.4441
 4311SOL     OW14148   0.559   7.707   2.445 -0.5086  0.3207  0.1691
 4311SOL    HW114149   0.617   7.699   2.521  0.2599  0.8226 -0.3425
 4311SOL    HW214150   0.477   7.667   2.473 -0.0313 -0.0847  1.0407
 4312SOL     OW14151   1.532   8.635   3.499 -0.0722  0.5740 -0.3563
 4312SOL    HW114152   1.461   8.636   3.435 -0.0012 -0.9186 -0.5040
 4312SOL    HW214153   1.491   8.603   3.579 -0.1824  2.5386  0.4111
 4313SOL     OW14154   0.891   0.084   3.415 -0.3034 -0.0111 -0.1218
 4313SOL    HW114155   0.907   0.063   3.507  2.1995 -3.1091 -1.0636
 4313SOL    HW214156   0.838   0.011   3.383  0.8590 -0.2861 -1.5738
 4314SOL     OW14157   1.182   0.006   3.325  0.7538 -0.1057  0.0469
 4314SOL    HW114158   1.094  -0.030   3.316  0.3056  1.0025 -0.1451
 4314SOL    HW214159   1.206   0.033   3.236  1.0761  0.0603  0.1831
 4315SOL     OW14160   1.352   8.565   3.048 -0.2976  0.6450  0.2067
 4315SOL    HW114161   1.313   8.558   3.135 -1.0319  0.8290 -0.0980
 4315SOL    HW214162   1.438   8.604   3.063  0.4393 -1.1578  1.0576
 4316SOL     OW14163   1.172   6.981   3.056  0.0123 -0.0086 -0.0828
 4316SOL    HW114164   1.262   6.964   3.083  0.1268  0.0949 -0.3966
 4316SOL    HW214165   1.156   6.920   2.985 -0.1718 -0.0371 -0.0169
 4317SOL     OW14166   0.902   8.778   3.695 -0.0180  0.1229 -0.0794
 4317SOL    HW114167   0.812   8.746   3.687  0.5945 -1.8268  0.1269
 4317SOL    HW214168   0.923   8.763   3.788  0.7261 -0.0774 -0.2788
 4318SOL     OW14169   1.309   8.352   2.403 -0.4396  0.5550 -0.1606
 4318SOL    HW114170   1.246   8.415   2.439 -1.7065 -0.6712 -0.1594
 4318SOL    HW214171   1.287   8.347   2.310 -0.2046  0.2747 -0.2034
 4319SOL     OW14172   0.395   8.144   3.052  0.1254 -0.3763  0.0242
 4319SOL    HW114173   0.489   8.134   3.036 -0.0914 -1.1733 -0.8626
 4319SOL    HW214174   0.354   8.123   2.967 -0.9172 -1.1563  0.6996
 4320SOL     OW14175   1.315   7.344   3.367  0.1408  0.1164 -0.3250
 4320SOL    HW114176   1.318   7.251   3.390 -0.3752 -0.0337 -0.8378
 4320SOL    HW214177   1.406   7.367   3.352  0.3419 -0.1376  0.4414
 4321SOL     OW14178   0.146   0.332   3.214  0.0888 -0.1697 -0.5642
 4321SOL    HW114179   0.113   0.346   3.303 -2.0169 -0.1132 -1.2903
 4321SOL    HW214180   0.090   0.263   3.179  2.0518 -1.4910 -1.2907
 4322SOL     OW14181   0.382   0.116   2.196 -0.6490  0.0901  0.7184
 4322SOL    HW114182   0.340   0.032   2.217 -1.5154  0.0959 -0.8138
 4322SOL    HW214183   0.335   0.147   2.118  1.0092  1.0175  0.0426
 4323SOL     OW14184   0.503   7.978   2.439  0.1812 -0.1278 -0.1907
 4323SOL    HW114185   0.530   7.888   2.456  0.6601  0.2566  1.2611
 4323SOL    HW214186   0.508   7.987   2.344  2.2923 -0.9740 -0.2060
 4324SOL     OW14187   0.957   0.061   1.788 -0.1506 -0.4458  0.7039
 4324SOL    HW114188   0.900   0.025   1.856 -0.3674 -2.1323 -0.3136
 4324SOL    HW214189   0.897   0.108   1.729 -0.3480 -1.2063  0.2829
 4325SOL     OW14190   1.691   7.885   2.369  0.3830 -0.3520  0.7797
 4325SOL    HW114191   1.630   7.941   2.320  0.5623  0.3322  1.3247
 4325SOL    HW214192   1.654   7.797   2.361  0.7137 -0.3490 -1.0504
 4326SOL     OW14193   0.739   8.374   3.368  0.1038  0.4018  0.1811
 4326SOL    HW114194   0.657   8.410   3.336 -0.2376  0.2378  0.8518
 4326SOL    HW214195   0.755   8.297   3.313 -1.1345 -0.6236  1.1905
 4327SOL     OW14196   1.437   8.269   3.342 -0.2348  0.3907 -0.1798
 4327SOL    HW114197   1.505   8.335   3.325 -3.3509  3.0305 -4.3176
 4327SOL    HW214198   1.428   8.223   3.259 -2.1505 -1.2816  0.8778
 4328SOL     OW14199   0.584   7.618   3.398 -0.5388  0.3578 -0.2588
 4328SOL    HW114200   0.519   7.671   3.444 -0.4570  0.4384 -0.2337
 4328SOL    HW214201   0.639   7.683   3.354  0.5337  0.3844  1.0554
 4329SOL     OW14202   0.324   7.912   3.299 -0.6199  0.3205 -0.0978
 4329SOL    HW114203   0.273   7.836   3.272  0.1745  0.1873 -1.3090
 4329SOL    HW214204   0.288   7.985   3.249  2.6595 -0.3885 -4.1128
 4330SOL     OW14205   0.504   8.548   2.941 -0.4907 -0.2849 -0.6984
 4330SOL    HW114206   0.519   8.641   2.922 -0.0628 -0.2449 -0.1877
 4330SOL    HW214207   0.424   8.526   2.893  0.0020  0.0663 -1.7217
 4331SOL     OW14208   1.286   8.595   3.313 -0.3259  0.5650 -0.1779
 4331SOL    HW114209   1.221   8.561   3.374  1.5230  0.5392  1.9019
 4331SOL    HW214210   1.288   8.690   3.329  0.8467  0.4413  0.5847
 4332SOL     OW14211   1.046   7.505   1.828 -0.2314 -0.9296  0.2211
 4332SOL    HW114212   1.088   7.421   1.811  0.2067 -0.5959 -0.3689
 4332SOL    HW214213   1.059   7.555   1.748 -1.5074 -0.7120  0.1325
 4333SOL     OW14214   0.106   7.501   3.396  0.4574 -0.3972  0.1612
 4333SOL    HW114215   0.046   7.432   3.425  0.6240 -0.1378  1.1648
 4333SOL    HW214216   0.163   7.516   3.472  0.9874  0.2246 -0.3545
 4334SOL     OW14217   0.224   0.123   2.873  0.4754  0.1261 -0.2769
 4334SOL    HW114218   0.144   0.174   2.877  0.7134  0.4267  0.8270
 4334SOL    HW214219   0.196   0.033   2.888  0.0448 -0.1342 -2.3111
 4335SOL     OW14220   0.688   8.341   2.959  0.3050 -0.2346 -0.1298
 4335SOL    HW114221   0.777   8.373   2.976  0.8472 -1.6704 -0.0845
 4335SOL    HW214222   0.638   8.419   2.938  1.7690  0.5355 -0.9480
 4336SOL     OW14223   1.379   8.691   4.131 -0.0841  0.0036 -0.2268
 4336SOL    HW114224   1.457   8.737   4.100 -1.0866  1.7008 -0.4125
 4336SOL    HW214225   1.411   8.611   4.172  1.8328  1.1990  0.7069
 4337SOL     OW14226   0.275   7.686   2.529 -0.1452  0.1864  0.2530
 4337SOL    HW114227   0.249   7.737   2.605 -2.4067 -0.0682 -0.2701
 4337SOL    HW214228   0.262   7.595   2.555  1.0716 -0.0042  0.2282
 4338SOL     OW14229   2.025   8.071   2.519  0.4167  0.4907 -0.2931
 4338SOL    HW114230   2.037   7.978   2.496 -0.9557 -0.0546  1.0203
 4338SOL    HW214231   2.073   8.118   2.451  1.0345 -1.1725 -1.0854
 4339SOL     OW14232   0.965   8.348   2.976 -0.3629 -0.3572  0.1097
 4339SOL    HW114233   1.037   8.348   3.039 -0.4989 -0.4588  0.2638
 4339SOL    HW214234   1.002   8.308   2.897 -0.3848 -0.8389  0.3408
 4340SOL     OW14235   1.962   8.777   3.625 -0.3997 -0.1886  0.0181
 4340SOL    HW114236   2.007   8.735   3.552 -1.8581  1.0678 -1.6772
 4340SOL    HW214237   1.879   8.730   3.633 -2.0952  2.2168 -1.9666
 4341SOL     OW14238   0.338   8.201   3.589  0.8106 -0.0496  0.2598
 4341SOL    HW114239   0.370   8.164   3.507 -0.6663  0.4314 -0.5710
 4341SOL    HW214240   0.385   8.284   3.598 -0.0241  0.5717 -0.8563
 4342SOL     OW14241   1.711   7.342   1.747 -0.2185  0.2105 -0.1968
 4342SOL    HW114242   1.770   7.346   1.822 -1.1633  1.9296  0.4985
 4342SOL    HW214243   1.623   7.341   1.785 -0.7797  2.7911 -1.2337
 4343SOL     OW14244   1.096   8.443   1.967 -0.2032 -0.0738 -0.2236
 4343SOL    HW114245   1.092   8.394   1.885  0.2052 -0.0296 -0.2753
 4343SOL    HW214246   1.137   8.527   1.943  1.0976 -0.5525  0.2448
 4344SOL     OW14247   0.299   8.514   2.728 -0.2353  0.0688 -0.3282
 4344SOL    HW114248   0.238   8.443   2.710  0.9623 -0.7059 -1.5890
 4344SOL    HW214249   0.367   8.504   2.661  1.4567  0.6862  1.2134
 4345SOL     OW14250   0.015   8.573   3.029 -0.2114  0.1970  1.1263
 4345SOL    HW114251  -0.076   8.552   3.008 -0.0665 -1.2143  1.7696
 4345SOL    HW214252   0.042   8.504   3.090  1.8010 -0.4128 -0.3361
 4346SOL     OW14253   1.061   7.853   3.682  0.1809  0.3865  0.0625
 4346SOL    HW114254   1.123   7.869   3.612  2.4047 -1.7155  1.3973
 4346SOL    HW214255   1.106   7.882   3.761 -0.8710 -0.4227  0.9963
 4347SOL     OW14256   0.956   7.624   3.306  0.4225  0.0817 -0.0286
 4347SOL    HW114257   0.937   7.699   3.362 -1.4691 -0.3950  0.0265
 4347SOL    HW214258   1.042   7.594   3.334 -0.2415  0.1778  2.2702
 4348SOL     OW14259   8.537   8.845   2.238 -0.0292  0.5088  0.2926
 4348SOL    HW114260   8.527   8.783   2.311  1.1327 -0.5043 -0.3794
 4348SOL    HW214261   8.631   8.851   2.225 -0.2260  0.6024 -1.2011
 4349SOL     OW14262   1.042   8.106   3.434 -0.6267  0.1517  0.6934
 4349SOL    HW114263   0.996   8.125   3.353 -0.6827 -1.1359  0.4015
 4349SOL    HW214264   1.078   8.018   3.422  2.4972  1.3121  0.6420
 4350SOL     OW14265   0.095   8.352   2.659 -0.0213  0.2492 -0.7515
 4350SOL    HW114266   0.007   8.324   2.684  0.2005  0.4307  0.2942
 4350SOL    HW214267   0.141   8.270   2.639  0.3269 -0.1104  1.2920
 4351SOL     OW14268   0.460   8.178   3.336 -0.3238  0.5137  0.3358
 4351SOL    HW114269   0.489   8.264   3.303  0.4116  0.6348  1.2508
 4351SOL    HW214270   0.444   8.127   3.257  1.7662  0.6737 -0.2657
 4352SOL     OW14271   1.097   8.599   3.530  0.1322  0.1394  0.0417
 4352SOL    HW114272   1.036   8.671   3.541  0.1889 -0.0759  2.1318
 4352SOL    HW214273   1.041   8.521   3.525  0.1637  0.1169  0.0444
 4353SOL     OW14274   0.873   8.117   2.234 -0.1074  0.2585  0.2119
 4353SOL    HW114275   0.788   8.130   2.278 -0.5533  1.0067 -0.8425
 4353SOL    HW214276   0.868   8.171   2.155  1.2532  0.0840 -0.0122
 4354SOL     OW14277   1.302   8.040   3.192  0.1560 -0.1645  0.3799
 4354SOL    HW114278   1.236   8.014   3.128 -0.4237 -2.5877  1.8197
 4354SOL    HW214279   1.378   7.985   3.172  0.7281  0.5527  0.5129
 4355SOL     OW14280   0.640   8.070   2.934 -0.7925 -0.3062 -0.0005
 4355SOL    HW114281   0.671   8.063   2.844  0.7117 -0.1540  0.4748
 4355SOL    HW214282   0.642   8.164   2.954 -3.9640  0.0270 -0.7041
 4356SOL     OW14283   0.272   8.119   1.553 -0.4142 -0.0863 -0.0753
 4356SOL    HW114284   0.183   8.096   1.578 -0.7803  0.7177 -0.6119
 4356SOL    HW214285   0.325   8.046   1.585 -1.1077 -0.0618  1.2267
 4357SOL     OW14286   0.062   8.755   3.455  0.0265 -0.4588  0.3180
 4357SOL    HW114287  -0.028   8.740   3.426  0.0476  0.6074 -0.3252
 4357SOL    HW214288   0.090   8.670   3.489 -0.4954 -1.3875 -1.4461
 4358SOL     OW14289   0.952   8.368   3.536  0.3260  0.1052  0.4928
 4358SOL    HW114290   0.966   8.275   3.557 -1.7226 -0.0512  1.3579
 4358SOL    HW214291   0.892   8.367   3.461  0.2231  0.7417  0.5642
 4359SOL     OW14292   1.460   8.178   2.129  0.7307 -0.2958 -0.6572
 4359SOL    HW114293   1.439   8.089   2.155 -0.6909 -0.4622 -2.1840
 4359SOL    HW214294   1.375   8.220   2.117  1.3641  0.8290 -1.3816
 4360SOL     OW14295   8.829   8.415   2.299 -0.2323 -0.1993  0.3334
 4360SOL    HW114296   8.883   8.346   2.337 -1.4092 -1.8872 -0.9435
 4360SOL    HW214297   8.876   8.441   2.219 -0.0654  0.1100  0.5294
 4361SOL     OW14298   1.952   7.488   2.242 -0.1809  0.0131 -0.0384
 4361SOL    HW114299   2.016   7.558   2.258 -1.0251  0.1588  3.2744
 4361SOL    HW214300   1.876   7.533   2.206  0.4482  0.2421 -1.1612
 4362SOL     OW14301   1.332   8.291   2.849 -0.0056  0.5487 -0.1091
 4362SOL    HW114302   1.320   8.322   2.939 -2.7024  1.5890 -0.7342
 4362SOL    HW214303   1.252   8.241   2.830  2.1240 -2.9409 -0.7595
 4363SOL     OW14304   0.435   0.216   3.122  0.2853  0.3082  0.2483
 4363SOL    HW114305   0.397   0.268   3.051 -1.7012 -1.0685  0.1975
 4363SOL    HW214306   0.367   0.215   3.190  2.1125  1.5613  2.2249
 4364SOL     OW14307   1.616   7.730   2.726  0.3483 -0.3258  0.3232
 4364SOL    HW114308   1.670   7.696   2.654 -0.2983 -0.0603 -0.3038
 4364SOL    HW214309   1.586   7.815   2.694 -1.3383 -0.9369  0.1725
 4365SOL     OW14310   8.487   7.767   2.873 -0.2405 -0.1795  0.4513
 4365SOL    HW114311   8.576   7.769   2.837 -0.5139 -1.1293 -0.3341
 4365SOL    HW214312   8.432   7.800   2.801 -0.4563  1.2728  1.2386
 4366SOL     OW14313   0.858   8.142   3.215 -0.2443  0.4883 -0.2851
 4366SOL    HW114314   0.816   8.065   3.178 -0.6111 -0.3744  1.8021
 4366SOL    HW214315   0.895   8.188   3.139 -1.1505 -1.0234 -1.7061
 4367SOL     OW14316   0.860   8.187   1.959 -0.6012 -0.0866 -0.2934
 4367SOL    HW114317   0.912   8.227   1.889 -0.7165  1.1045  0.2695
 4367SOL    HW214318   0.794   8.254   1.981 -0.5018 -0.3932  1.0107
 4368SOL     OW14319   0.508   8.412   3.215  0.1366 -0.3700 -0.1247
 4368SOL    HW114320   0.532   8.418   3.122  0.8633 -0.7567  0.0285
 4368SOL    HW214321   0.457   8.491   3.232  0.4352 -0.0425 -0.7237
 4369SOL     OW14322   1.322   0.103   3.545 -0.5846  0.0416  0.5422
 4369SOL    HW114323   1.287   0.075   3.460 -0.4070  0.0777  0.4560
 4369SOL    HW214324   1.245   0.120   3.598 -0.7059  0.8917  0.1084
 4370SOL     OW14325   1.060   8.834   2.585 -0.2961 -0.2810  0.3666
 4370SOL    HW114326   1.032   8.745   2.608  1.7220 -1.3678 -1.0356
 4370SOL    HW214327   1.104   8.824   2.501 -0.1137  2.1036  0.1129
 4371SOL     OW14328   0.937   7.778   2.898  0.3252  0.5858  0.1347
 4371SOL    HW114329   0.890   7.763   2.815  1.1808  0.1884 -0.2900
 4371SOL    HW214330   0.944   7.692   2.938  1.2459  0.5361 -0.1158
 4372SOL     OW14331   1.722   7.601   3.457  0.0965 -0.4350  0.3683
 4372SOL    HW114332   1.800   7.545   3.456  0.5004  0.1262 -0.3595
 4372SOL    HW214333   1.653   7.546   3.421  0.6449 -0.2735 -0.9915
 4373SOL     OW14334   0.341   8.598   3.294  0.2272 -0.3522 -0.1977
 4373SOL    HW114335   0.347   8.624   3.386 -0.5759 -0.4729 -0.1040
 4373SOL    HW214336   0.281   8.662   3.255 -0.4308 -1.0422 -0.3462
 4374SOL     OW14337   0.908   7.547   3.037  0.4787  0.5536 -0.0489
 4374SOL    HW114338   0.975   7.481   3.055  0.5944 -0.3428 -3.1991
 4374SOL    HW214339   0.893   7.589   3.121  3.4997 -0.5923  1.2097
 4375SOL     OW14340   8.608   7.482   1.689  0.0674 -0.2228  0.0874
 4375SOL    HW114341   8.686   7.501   1.637 -0.1557  1.1421  0.2055
 4375SOL    HW214342   8.582   7.394   1.661  1.5068 -0.6176 -0.1074
 4376SOL     OW14343   1.210   8.302   3.141 -0.4479  0.0727 -0.2835
 4376SOL    HW114344   1.241   8.356   3.214  0.3508  0.9830 -1.2684
 4376SOL    HW214345   1.246   8.215   3.158  0.4177  0.4735 -0.0064
 4377SOL     OW14346   8.808   7.508   2.540 -0.3838  0.0460 -0.4558
 4377SOL    HW114347   8.824   7.555   2.622  0.2580  0.4637 -0.8199
 4377SOL    HW214348   8.895   7.495   2.502 -0.4427 -2.1071 -0.0053
 4378SOL     OW14349   0.718   8.742   3.382 -0.1946  0.5072 -0.2102
 4378SOL    HW114350   0.653   8.783   3.325 -1.7075 -0.8968  0.3971
 4378SOL    HW214351   0.683   8.654   3.398  1.8109 -0.2636  0.2723
 4379SOL     OW14352   0.495   8.425   3.577  0.4874 -0.3409 -0.1632
 4379SOL    HW114353   0.590   8.417   3.565  0.6646  0.3978  0.7016
 4379SOL    HW214354   0.479   8.519   3.579  0.1807 -0.3763  2.9143
 4380SOL     OW14355   1.444   8.760   3.841  0.0648 -0.0509  0.4385
 4380SOL    HW114356   1.503   8.794   3.774  1.9418  1.5048  2.7052
 4380SOL    HW214357   1.411   8.678   3.804 -0.0479  1.3223 -2.8463
 4381SOL     OW14358   1.769   8.522   2.918  0.1724 -0.0440 -0.1023
 4381SOL    HW114359   1.710   8.589   2.883  2.7495  2.1919 -0.4982
 4381SOL    HW214360   1.762   8.449   2.856 -2.0405  0.1785 -0.1799
 4382SOL     OW14361   1.451   7.335   1.825 -0.2304  0.2186  0.5599
 4382SOL    HW114362   1.454   7.285   1.906 -0.7735 -0.8118 -0.0327
 4382SOL    HW214363   1.433   7.425   1.852  1.5438  0.2833  1.7087
 4383SOL     OW14364   0.839   8.273   2.569  0.1186 -0.2769  0.3171
 4383SOL    HW114365   0.866   8.364   2.559  2.4664 -1.0277 -1.0847
 4383SOL    HW214366   0.918   8.222   2.549 -0.7415 -2.6248  2.3517
 4384SOL     OW14367   1.512   7.546   3.726 -0.4581  0.0015 -0.1326
 4384SOL    HW114368   1.563   7.567   3.648 -0.6802 -0.2950 -0.3593
 4384SOL    HW214369   1.509   7.450   3.729 -0.0718  0.0043  0.4893
 4385SOL     OW14370   1.999   8.546   3.104 -0.3464  0.2778  0.5389
 4385SOL    HW114371   1.926   8.553   3.043 -0.1144 -1.3021  0.0432
 4385SOL    HW214372   2.076   8.537   3.048 -0.0733 -0.6808  1.0573
 4386SOL     OW14373   0.924   8.609   2.120  0.1861 -0.3335  0.0026
 4386SOL    HW114374   0.873   8.668   2.065  1.7496  2.4478  1.3146
 4386SOL    HW214375   0.974   8.556   2.058 -0.9991 -0.0586 -1.2377
 4387SOL     OW14376   0.927   8.602   2.801  0.3944  0.6305  0.4875
 4387SOL    HW114377   1.016   8.608   2.836  0.9233  1.3440 -0.9089
 4387SOL    HW214378   0.871   8.636   2.871  0.7826 -2.9873  2.7712
 4388SOL     OW14379   0.771   8.792   1.953  0.0569  0.0151 -0.0693
 4388SOL    HW114380   0.692   8.738   1.946  0.1708 -0.6029  2.3210
 4388SOL    HW214381   0.748   8.859   2.017  0.4090  1.9998 -1.9301
 4389SOL     OW14382   0.078   0.536   3.402 -0.0926 -0.3179  0.3602
 4389SOL    HW114383   0.141   0.492   3.459 -1.0334 -1.8740  0.2611
 4389SOL    HW214384   0.068   0.623   3.439  0.4272 -0.8086  1.6956
 4390SOL     OW14385   0.736   0.047   2.743  0.6164  0.5061  0.1284
 4390SOL    HW114386   0.759   0.140   2.741 -0.0058  0.7567  2.4681
 4390SOL    HW214387   0.778   0.014   2.822  0.1225 -1.0329 -0.2224
 4391SOL     OW14388   0.813   0.244   3.915  0.1874 -0.7186 -0.4853
 4391SOL    HW114389   0.876   0.315   3.900  1.2702 -0.7584  2.9338
 4391SOL    HW214390   0.747   0.282   3.972  0.5021 -2.2540  0.9860
 4392SOL     OW14391   1.758   7.477   2.781 -0.4126  0.6908  0.2100
 4392SOL    HW114392   1.751   7.429   2.698  0.4314  0.3529  0.3202
 4392SOL    HW214393   1.692   7.437   2.838  0.0232 -0.0981  0.1761
 4393SOL     OW14394   0.713   8.043   2.673 -0.0170 -0.4890  0.0389
 4393SOL    HW114395   0.648   8.047   2.602  0.6031 -2.1497 -0.6623
 4393SOL    HW214396   0.776   8.112   2.650  0.2619 -1.1032 -1.1391
 4394SOL     OW14397   1.227   0.007   3.053 -0.1259 -0.4963  0.0025
 4394SOL    HW114398   1.296   0.068   3.027 -0.2347 -0.2813  0.2159
 4394SOL    HW214399   1.265  -0.080   3.038  0.0288 -0.3776 -0.3031
 4395SOL     OW14400   0.281   8.076   2.801 -0.1784  0.3083 -0.3971
 4395SOL    HW114401   0.277   7.992   2.756  1.5881 -0.0580  0.0470
 4395SOL    HW214402   0.337   8.131   2.746  0.4169  0.4815  0.3509
 4396SOL     OW14403   1.412   7.823   3.056  0.2182  0.1910 -0.6117
 4396SOL    HW114404   1.502   7.810   3.086 -0.4235  0.1761  1.4717
 4396SOL    HW214405   1.390   7.742   3.010 -0.4613 -2.2863  3.6166
 4397SOL     OW14406   1.113   7.400   3.152  0.4688  0.1839 -0.1740
 4397SOL    HW114407   1.171   7.374   3.223  0.5463 -0.0543 -0.3247
 4397SOL    HW214408   1.155   7.368   3.073 -0.5375 -1.2565 -0.1818
 4398SOL     OW14409   1.285   0.043   2.281 -0.1876  0.0163  0.3705
 4398SOL    HW114410   1.318   0.104   2.215 -1.7015 -0.8887 -1.2987
 4398SOL    HW214411   1.190   0.055   2.280 -0.3011 -0.5316  1.8993
 4399SOL     OW14412   1.530   7.115   2.014 -0.1118 -0.0046 -0.1197
 4399SOL    HW114413   1.555   7.056   2.085 -3.2025  2.1790  3.1098
 4399SOL    HW214414   1.576   7.197   2.034  0.3930  0.1560 -1.7696
 4400SOL     OW14415   1.216   7.587   2.721 -0.0668  0.3775  0.5745
 4400SOL    HW114416   1.120   7.579   2.722 -0.1109  0.1320 -1.2579
 4400SOL    HW214417   1.234   7.648   2.649  1.1914 -0.6834 -0.0454
 4401SOL     OW14418   1.604   7.648   2.394  0.1075 -0.8111  0.2349
 4401SOL    HW114419   1.689   7.627   2.431 -0.7655 -1.2722  2.0624
 4401SOL    HW214420   1.567   7.564   2.367  0.0751 -0.6504 -0.2412
 4402SOL     OW14421   0.283   8.712   2.208 -0.0335  0.4677 -0.5110
 4402SOL    HW114422   0.269   8.619   2.222 -1.2921  0.5293 -1.2812
 4402SOL    HW214423   0.195   8.750   2.209  0.3795  1.4823 -1.3439
 4403SOL     OW14424   0.136   8.495   3.546 -0.0454  0.1791  0.0271
 4403SOL    HW114425   0.049   8.457   3.555  1.2668 -3.0981  0.1262
 4403SOL    HW214426   0.184   8.466   3.624  1.4959  0.9087 -0.5976
 4404SOL     OW14427   8.636   7.603   4.623 -0.0058 -0.1001 -0.1781
 4404SOL    HW114428   8.630   7.666   4.551  1.1638  0.4527  0.1900
 4404SOL    HW214429   8.580   7.530   4.595  1.1327 -0.3238 -2.1283
 4405SOL     OW14430   8.737   7.481   3.696 -0.2686 -0.1343 -0.2522
 4405SOL    HW114431   8.700   7.471   3.784  2.5050  1.6055  1.2581
 4405SOL    HW214432   8.832   7.480   3.709  0.4527 -3.2810 -3.7290
 4406SOL     OW14433   0.384   8.611   5.146 -0.7669 -0.0074  0.2803
 4406SOL    HW114434   0.443   8.643   5.215  0.1520 -2.4710  0.7691
 4406SOL    HW214435   0.323   8.553   5.192 -1.5058 -0.0314 -0.6962
 4407SOL     OW14436   1.677   8.302   4.382 -0.6098  0.4086 -0.0087
 4407SOL    HW114437   1.743   8.234   4.395 -0.0830  1.1893  1.7107
 4407SOL    HW214438   1.593   8.255   4.392 -0.4390 -0.7488 -3.0344
 4408SOL     OW14439   0.950   8.052   4.227 -0.4632 -0.9789  0.1112
 4408SOL    HW114440   0.882   8.009   4.279  0.1391 -0.7666  1.1137
 4408SOL    HW214441   0.971   7.990   4.157 -0.9613 -1.4832  0.4028
 4409SOL     OW14442   1.870   8.159   3.957 -0.1107 -0.2204 -0.0313
 4409SOL    HW114443   1.878   8.078   3.905 -0.1190 -0.0473 -0.3072
 4409SOL    HW214444   1.862   8.129   4.047  1.8710 -0.4560  0.0910
 4410SOL     OW14445   0.484   8.354   4.648 -0.1406  0.6134  0.1329
 4410SOL    HW114446   0.565   8.372   4.600  1.0865 -1.3708  1.3255
 4410SOL    HW214447   0.483   8.418   4.719  1.1733 -0.2247  0.9525
 4411SOL     OW14448   0.752   8.412   5.800  0.0319 -0.8120 -0.3850
 4411SOL    HW114449   0.741   8.507   5.807 -0.2586 -0.9149  0.8923
 4411SOL    HW214450   0.719   8.378   5.883  1.0268 -1.9609 -0.4238
 4412SOL     OW14451   0.610   8.524   4.210 -0.0490 -0.3327 -0.2927
 4412SOL    HW114452   0.640   8.471   4.283 -0.1634 -1.5525 -1.1070
 4412SOL    HW214453   0.556   8.592   4.250  1.8676  0.5234  0.9862
 4413SOL     OW14454   0.376   8.764   5.616  0.0736  0.2943 -0.5578
 4413SOL    HW114455   0.323   8.818   5.557  0.8070  1.2327 -0.3852
 4413SOL    HW214456   0.450   8.820   5.640  0.5202 -0.5685  0.1470
 4414SOL     OW14457   0.198   8.459   5.268 -0.0033 -0.0457 -0.1422
 4414SOL    HW114458   0.142   8.384   5.246  0.4652 -0.6585  0.6767
 4414SOL    HW214459   0.139   8.534   5.271 -0.9826 -0.8362  1.6673
 4415SOL     OW14460   0.126   7.869   4.571 -0.5666 -0.2847 -0.2489
 4415SOL    HW114461   0.145   7.938   4.508 -0.2314 -0.9159 -0.8477
 4415SOL    HW214462   0.190   7.801   4.552 -0.4651 -0.4883  0.7744
 4416SOL     OW14463   1.623   7.947   4.372  0.3441  0.0769 -0.1533
 4416SOL    HW114464   1.598   7.854   4.377 -1.5128  0.4907 -1.0148
 4416SOL    HW214465   1.613   7.969   4.280 -0.8095  1.5353  0.2981
 4417SOL     OW14466   1.069   0.032   5.701  0.1688  0.0599 -0.1045
 4417SOL    HW114467   1.050  -0.059   5.679  1.2783 -0.1526 -0.2570
 4417SOL    HW214468   1.056   0.080   5.619  0.4866 -0.1079 -0.2532
 4418SOL     OW14469   0.008   8.417   4.164 -0.5556 -0.2758  0.1398
 4418SOL    HW114470  -0.022   8.505   4.189  1.3245  0.3031  0.4630
 4418SOL    HW214471  -0.059   8.359   4.201 -1.5914  0.9758  0.3239
 4419SOL     OW14472   0.382   8.783   3.823 -0.4729  0.4102  0.4627
 4419SOL    HW114473   0.327   8.796   3.901  0.4119 -0.9055  1.3559
 4419SOL    HW214474   0.461   8.833   3.842  0.5183 -1.3680  1.3043
 4420SOL     OW14475   1.470   7.683   4.797  0.8291  0.0923 -0.0892
 4420SOL    HW114476   1.440   7.676   4.707  0.4445  1.2098 -0.0675
 4420SOL    HW214477   1.392   7.664   4.850  0.6115  1.1088 -0.0192
 4421SOL     OW14478   0.162   7.964   3.920  0.0551  0.4617 -0.2447
 4421SOL    HW114479   0.139   8.045   3.875  0.7474  0.6917 -0.1968
 4421SOL    HW214480   0.258   7.963   3.919  0.0536 -0.1574  0.1093
 4422SOL     OW14481   1.603   8.104   4.590  0.3070  0.1491  0.4135
 4422SOL    HW114482   1.535   8.164   4.559 -0.5794 -0.1704  1.6889
 4422SOL    HW214483   1.616   8.044   4.516  0.1663  1.0239 -0.3352
 4423SOL     OW14484   1.576   8.414   3.955 -0.4840 -0.1302  0.9457
 4423SOL    HW114485   1.506   8.392   3.893 -0.4860 -1.0532  1.2659
 4423SOL    HW214486   1.657   8.398   3.906 -0.4748  0.9472  0.5721
 4424SOL     OW14487   0.014   8.289   5.165  0.4720 -0.2506  0.2387
 4424SOL    HW114488  -0.069   8.325   5.134  0.3821  0.7010  1.5045
 4424SOL    HW214489   0.019   8.202   5.124 -2.3899 -1.4356  2.0925
 4425SOL     OW14490   0.569   8.530   4.858 -0.6798 -0.0650 -0.1778
 4425SOL    HW114491   0.497   8.591   4.873 -0.6476 -0.3971  1.4324
 4425SOL    HW214492   0.598   8.504   4.945  1.1506 -0.2387 -0.8000
 4426SOL     OW14493   1.361   0.074   5.470  0.1578  0.1424 -0.6588
 4426SOL    HW114494   1.404   0.076   5.556  2.0937 -1.1031 -1.5256
 4426SOL    HW214495   1.279   0.026   5.485  1.2081 -1.4602  0.2281
 4427SOL     OW14496   0.802   7.121   3.904 -0.6071  0.9874  0.3660
 4427SOL    HW114497   0.748   7.041   3.912 -1.1677  1.3137 -0.0860
 4427SOL    HW214498   0.835   7.135   3.993  0.3433 -0.3194  0.2562
 4428SOL     OW14499   0.199   8.299   4.972 -0.4142 -0.4646 -0.1627
 4428SOL    HW114500   0.281   8.255   4.995  0.0620  0.8171  0.6874
 4428SOL    HW214501   0.170   8.340   5.053 -0.8972  0.7022 -0.8974
 4429SOL     OW14502   1.111   8.307   4.221  0.6189 -0.2162  0.0324
 4429SOL    HW114503   1.052   8.234   4.200  0.6248 -0.4168  0.7020
 4429SOL    HW214504   1.165   8.316   4.142 -0.9472  0.6249 -0.9959
 4430SOL     OW14505   0.242   7.509   5.242 -0.1858  0.4720 -0.9355
 4430SOL    HW114506   0.216   7.566   5.170 -1.7258  2.4256  1.0378
 4430SOL    HW214507   0.192   7.540   5.317  1.8803 -0.9769  1.1957
 4431SOL     OW14508   1.802   8.538   4.166 -0.1397 -0.4081 -0.5055
 4431SOL    HW114509   1.787   8.468   4.230  0.6069 -0.2388 -0.1433
 4431SOL    HW214510   1.823   8.615   4.219  1.6149 -0.5316 -0.9659
 4432SOL     OW14511   0.105   8.185   3.740 -0.4516 -0.1665 -0.7934
 4432SOL    HW114512   0.125   8.238   3.818 -2.3014 -1.3469  0.5903
 4432SOL    HW214513   0.174   8.207   3.678  0.7384  1.3400  0.9282
 4433SOL     OW14514   1.294   7.762   4.585 -0.1806  0.7849  0.1257
 4433SOL    HW114515   1.284   7.835   4.647 -0.8969  0.4886  0.3784
 4433SOL    HW214516   1.212   7.713   4.594  1.1028 -1.2473  1.5049
 4434SOL     OW14517   0.071   7.816   5.266  0.0678  0.2591 -0.6869
 4434SOL    HW114518   0.124   7.896   5.264  0.7290 -0.0903  1.0071
 4434SOL    HW214519   0.108   7.765   5.337 -2.7485  0.1548  0.8601
 4435SOL     OW14520   1.304   7.850   5.185  0.3914 -0.5963 -0.1044
 4435SOL    HW114521   1.369   7.793   5.144 -0.1221 -1.5384  0.3616
 4435SOL    HW214522   1.251   7.883   5.112  1.0361 -0.2735 -0.4279
 4436SOL     OW14523   1.121   8.805   5.426  0.1963  0.7751 -0.6134
 4436SOL    HW114524   1.071   8.884   5.403  1.1636  1.1695 -1.4431
 4436SOL    HW214525   1.097   8.741   5.359 -0.6781  0.2991  0.1269
 4437SOL     OW14526   0.583   8.157   4.856  0.5891 -0.0524 -0.0514
 4437SOL    HW114527   0.539   8.225   4.805 -2.5758 -1.2249  0.8308
 4437SOL    HW214528   0.667   8.145   4.812 -0.1035  2.0815 -2.2301
 4438SOL     OW14529   0.647   8.025   4.335 -0.1552 -0.5641  0.5988
 4438SOL    HW114530   0.555   8.042   4.355  0.2560  1.2800  1.1038
 4438SOL    HW214531   0.685   7.997   4.419 -0.1226 -0.6447  0.5562
 4439SOL     OW14532   8.646   8.618   4.162 -0.0152 -0.4865  0.2281
 4439SOL    HW114533   8.667   8.646   4.072 -3.1974  2.3946  0.1698
 4439SOL    HW214534   8.578   8.552   4.151 -0.2389 -0.3030  0.4948
 4440SOL     OW14535   0.874   7.667   3.571  0.0377  0.5841 -0.1684
 4440SOL    HW114536   0.837   7.734   3.513  0.4139  2.3736  1.5436
 4440SOL    HW214537   0.950   7.708   3.611  0.1394 -0.7724  1.1568
 4441SOL     OW14538   1.896   7.832   6.028  0.1309  0.1534 -0.1838
 4441SOL    HW114539   1.959   7.821   5.957  0.7828 -0.1395  0.4321
 4441SOL    HW214540   1.834   7.898   5.994  1.6025  1.5698 -0.2443
 4442SOL     OW14541   0.923   0.336   4.357 -0.2440  0.0662 -0.3718
 4442SOL    HW114542   0.906   0.250   4.396  1.1727  0.5488  1.4117
 4442SOL    HW214543   0.913   0.398   4.429  0.9405  1.1663 -1.1168
 4443SOL     OW14544   1.084   7.558   4.549 -0.1311 -0.1007 -0.5089
 4443SOL    HW114545   1.142   7.558   4.472 -0.4785 -1.4373 -0.7879
 4443SOL    HW214546   0.998   7.535   4.514 -0.1831 -1.2789  0.3658
 4444SOL     OW14547   1.918   8.177   4.578  0.2231 -0.1329 -0.2366
 4444SOL    HW114548   2.003   8.184   4.536 -0.4255  2.0703 -1.3266
 4444SOL    HW214549   1.888   8.088   4.557  2.0649 -0.8077 -0.1280
 4445SOL     OW14550   0.177   0.220   3.497  0.0985 -0.0509 -0.2581
 4445SOL    HW114551   0.113   0.211   3.568  0.2955  0.6308  0.0114
 4445SOL    HW214552   0.221   0.303   3.515  1.1843 -0.5907 -0.3472
 4446SOL     OW14553   1.422   8.193   4.407 -0.7368  0.1906 -0.7085
 4446SOL    HW114554   1.388   8.255   4.342 -3.0913 -1.5900 -1.3207
 4446SOL    HW214555   1.346   8.141   4.432  0.9520 -1.8704  0.4398
 4447SOL     OW14556   0.322   0.204   5.388 -0.2773 -0.0724 -0.7251
 4447SOL    HW114557   0.242   0.181   5.436  0.7350 -0.3303  0.9266
 4447SOL    HW214558   0.367   0.265   5.447  1.2143 -0.7127 -1.1818
 4448SOL     OW14559   0.318   7.673   4.534  0.5893  0.1202 -0.3290
 4448SOL    HW114560   0.381   7.713   4.475 -0.5072  1.2829 -0.7731
 4448SOL    HW214561   0.294   7.590   4.492  1.1605  0.0928 -0.5996
 4449SOL     OW14562   1.730   8.676   3.939  0.0284  0.6944 -0.3177
 4449SOL    HW114563   1.643   8.638   3.925  0.4135 -0.2348 -0.2478
 4449SOL    HW214564   1.765   8.629   4.015  0.7205  0.8170 -0.5515
 4450SOL     OW14565   1.317   7.742   3.848  0.0191 -0.8155  0.0464
 4450SOL    HW114566   1.347   7.686   3.776  0.8922 -1.5296  0.9339
 4450SOL    HW214567   1.339   7.693   3.927 -1.8746 -0.5370  0.8068
 4451SOL     OW14568   0.261   8.531   3.812 -0.4084 -0.0240  0.0839
 4451SOL    HW114569   0.349   8.498   3.826 -0.2820 -0.4250 -1.4640
 4451SOL    HW214570   0.272   8.626   3.802 -0.1184 -0.0940 -0.2862
 4452SOL     OW14571   1.554   7.521   5.735  0.7933  0.4342  0.0865
 4452SOL    HW114572   1.615   7.544   5.664 -1.4264  2.5686 -1.2958
 4452SOL    HW214573   1.584   7.572   5.810  2.5271 -1.0197  0.4577
 4453SOL     OW14574   0.248   7.072   3.797 -0.0020 -0.3881  0.4649
 4453SOL    HW114575   0.283   7.079   3.708 -1.4837 -0.9555 -0.2047
 4453SOL    HW214576   0.157   7.102   3.789  0.1335  0.5382  2.0183
 4454SOL     OW14577   0.803   8.173   5.516 -0.1057 -0.2534 -0.1623
 4454SOL    HW114578   0.856   8.226   5.577 -1.0704 -1.0775  1.4603
 4454SOL    HW214579   0.735   8.135   5.571 -2.1709  0.4338 -2.0968
 4455SOL     OW14580   1.377   8.072   5.356  0.5667  0.1269 -0.8148
 4455SOL    HW114581   1.362   8.147   5.299 -0.3316  1.5433  1.1898
 4455SOL    HW214582   1.353   7.996   5.302 -2.4086  1.5249 -1.6978
 4456SOL     OW14583   0.419   8.051   4.552 -0.4384 -0.5148  0.2195
 4456SOL    HW114584   0.382   8.018   4.634 -1.5763 -1.1108 -0.5128
 4456SOL    HW214585   0.444   8.141   4.572 -1.7955 -0.2625  0.9279
 4457SOL     OW14586   0.669   7.353   3.953 -0.1099  0.8584  0.4356
 4457SOL    HW114587   0.716   7.279   3.915 -2.0084  1.0458 -2.6437
 4457SOL    HW214588   0.587   7.315   3.985 -0.3746  1.3712  0.3776
 4458SOL     OW14589   0.932   8.492   4.150  0.3744  0.1799  0.7645
 4458SOL    HW114590   0.974   8.544   4.081  0.1600 -0.8189 -0.1461
 4458SOL    HW214591   1.004   8.446   4.192  0.3527 -0.4615  0.1190
 4459SOL     OW14592   0.037   7.760   3.801 -0.1139  0.1609  0.3133
 4459SOL    HW114593   0.076   7.838   3.841 -0.2980 -0.1811  1.1827
 4459SOL    HW214594   0.111   7.701   3.785 -0.1262  0.0086  0.8196
 4460SOL     OW14595   0.554   7.580   4.274  0.4067 -0.3887 -0.2225
 4460SOL    HW114596   0.641   7.608   4.247 -0.1858 -0.1846 -2.0437
 4460SOL    HW214597   0.497   7.656   4.256 -0.1383 -0.4305  1.1614
 4461SOL     OW14598   0.958   8.001   5.003  0.3880  0.0721  0.1517
 4461SOL    HW114599   0.999   8.019   5.088 -0.5266 -2.1127  1.1318
 4461SOL    HW214600   1.014   7.935   4.963  0.4127  0.5605 -0.6297
 4462SOL     OW14601   1.742   8.759   4.359 -0.3902 -0.1040  0.4645
 4462SOL    HW114602   1.754   8.814   4.282 -2.1262 -1.7370 -1.0858
 4462SOL    HW214603   1.696   8.814   4.422  0.6830  1.1228  0.2187
 4463SOL     OW14604   0.206   8.359   4.528 -0.4216 -0.2174 -0.2469
 4463SOL    HW114605   0.300   8.377   4.536  0.1042 -1.2457 -2.8965
 4463SOL    HW214606   0.165   8.445   4.520  0.6785  0.2148 -1.8044
 4464SOL     OW14607   0.985   8.142   3.837 -0.2343  0.2209 -0.1131
 4464SOL    HW114608   1.043   8.177   3.905 -0.7888  0.7625  0.0913
 4464SOL    HW214609   1.012   8.051   3.827  0.2842  0.3158  0.3726
 4465SOL     OW14610   8.772   8.065   5.037  0.7541 -0.2326  0.0228
 4465SOL    HW114611   8.777   8.115   4.956  2.3429 -0.2536  0.0795
 4465SOL    HW214612   8.771   7.973   5.009 -0.4237 -0.2243 -0.0151
 4466SOL     OW14613   0.533   7.411   4.548  0.0167 -0.2237  0.0078
 4466SOL    HW114614   0.471   7.371   4.487  2.0705 -0.9690 -1.7170
 4466SOL    HW214615   0.618   7.377   4.521  1.4298  2.3164  0.9741
 4467SOL     OW14616   0.668   7.717   4.662  0.3553  0.5925  0.4387
 4467SOL    HW114617   0.681   7.651   4.729  1.5919 -1.1929 -1.4541
 4467SOL    HW214618   0.600   7.775   4.698 -2.3428 -2.8359  1.3730
 4468SOL     OW14619   0.782   7.511   4.459  0.0601  0.4359 -0.3190
 4468SOL    HW114620   0.710   7.484   4.403 -0.5698  0.9489  0.2133
 4468SOL    HW214621   0.743   7.574   4.520  0.8532  0.3676  0.2913
 4469SOL     OW14622   1.426   8.501   4.620 -0.0333  0.2416 -0.1660
 4469SOL    HW114623   1.475   8.572   4.577  0.9027 -0.4283 -0.2496
 4469SOL    HW214624   1.334   8.522   4.605  0.1966 -0.5021 -3.5534
 4470SOL     OW14625   1.182   8.081   4.434  0.0489 -0.5307 -0.0106
 4470SOL    HW114626   1.111   8.055   4.375  0.0625  0.7882 -0.6594
 4470SOL    HW214627   1.172   8.025   4.511 -0.0888 -2.1729 -1.1699
 4471SOL     OW14628   1.870   8.136   4.266 -0.9215  0.1724 -0.0470
 4471SOL    HW114629   1.869   8.059   4.322 -1.1621  0.1883 -0.0311
 4471SOL    HW214630   1.963   8.149   4.245 -0.8816 -0.1262 -0.0577
 4472SOL     OW14631   2.026   8.414   3.999  0.6996  0.1716 -0.2443
 4472SOL    HW114632   1.972   8.456   4.065 -0.2002  0.0736 -0.8977
 4472SOL    HW214633   2.033   8.322   4.027 -1.6968 -0.4563 -1.4896
 4473SOL     OW14634   1.335   8.568   3.679  0.5030  0.1893  0.2870
 4473SOL    HW114635   1.247   8.597   3.655  0.9916 -0.6108 -2.8763
 4473SOL    HW214636   1.333   8.473   3.669  2.2315  0.2993 -2.2487
 4474SOL     OW14637   0.460   7.747   3.936 -0.0528  0.0554  0.3251
 4474SOL    HW114638   0.535   7.694   3.908  0.0781  0.4388 -0.0661
 4474SOL    HW214639   0.449   7.811   3.866 -0.2263  0.5213  0.7735
 4475SOL     OW14640   1.515   8.562   5.303  0.3367  0.1221  0.7593
 4475SOL    HW114641   1.513   8.602   5.390 -0.3344  1.8044  0.0156
 4475SOL    HW214642   1.431   8.515   5.296  0.7051 -0.6393  1.2656
 4476SOL     OW14643   1.124   8.704   5.167  0.1152  0.2570 -0.9972
 4476SOL    HW114644   1.059   8.735   5.104  0.0449 -0.0473 -1.0773
 4476SOL    HW214645   1.208   8.713   5.122  0.1194  0.5709 -0.9249
 4477SOL     OW14646   1.254   8.682   4.457  0.5650  0.0720 -0.0540
 4477SOL    HW114647   1.286   8.742   4.525 -1.7238 -1.0735  2.2194
 4477SOL    HW214648   1.293   8.715   4.376  1.9618  2.6597  1.5149
 4478SOL     OW14649   1.665   8.209   4.903 -0.2354  0.4920  0.0715
 4478SOL    HW114650   1.607   8.275   4.941 -0.0268  0.6563  0.1085
 4478SOL    HW214651   1.623   8.184   4.821  0.2673  1.5359 -0.5244
 4479SOL     OW14652   0.688   7.850   4.964  0.0951  0.8496 -0.5971
 4479SOL    HW114653   0.732   7.927   4.929  0.0652  1.0265 -0.2502
 4479SOL    HW214654   0.599   7.855   4.929 -0.0632  1.2615 -0.1462
 4480SOL     OW14655   0.759   0.120   5.500 -0.4782  0.0251 -0.2508
 4480SOL    HW114656   0.777   0.027   5.484 -0.4909  0.1653 -1.1127
 4480SOL    HW214657   0.844   0.162   5.489 -0.6804  0.2542 -0.9407
 4481SOL     OW14658   0.664   8.586   3.776 -0.4859 -0.4388  0.4371
 4481SOL    HW114659   0.639   8.527   3.848 -1.2505 -0.2478  0.3315
 4481SOL    HW214660   0.599   8.656   3.778  0.7180  0.7095  0.8951
 4482SOL     OW14661   0.240   8.030   5.303 -0.0945  0.0402 -0.0507
 4482SOL    HW114662   0.272   8.120   5.303 -0.0950  0.0496 -1.2567
 4482SOL    HW214663   0.308   7.980   5.258  0.3461 -0.7475  1.4097
 4483SOL     OW14664   1.236   7.593   4.914 -0.2755 -0.5483  0.0912
 4483SOL    HW114665   1.142   7.599   4.898 -0.5786 -2.0135  1.0441
 4483SOL    HW214666   1.249   7.502   4.943  1.2303 -0.0137  1.2103
 4484SOL     OW14667   8.363   8.621   4.888  0.1304 -0.5169  0.2439
 4484SOL    HW114668   8.355   8.713   4.861 -1.1886 -0.7519 -0.2184
 4484SOL    HW214669   8.303   8.613   4.963 -0.6930 -1.2808 -0.4819
 4485SOL     OW14670   0.210   8.769   4.040 -0.4844 -0.1614 -0.0075
 4485SOL    HW114671   0.239   8.686   4.078 -3.0058 -0.9825  0.2757
 4485SOL    HW214672   0.187   8.823   4.116  2.4881  1.4619 -0.0969
 4486SOL     OW14673   0.331   8.022   4.305  0.4315  0.2117 -0.1652
 4486SOL    HW114674   0.294   8.105   4.274  0.6525 -0.3080 -1.9427
 4486SOL    HW214675   0.349   8.037   4.398  0.5059  2.1608 -0.4465
 4487SOL     OW14676   0.829   0.513   4.526 -0.2369  0.4725  0.1849
 4487SOL    HW114677   0.749   0.467   4.550 -0.1122  0.9359  1.5775
 4487SOL    HW214678   0.807   0.561   4.446 -1.0571 -0.1237  0.0454
 4488SOL     OW14679   1.156   8.335   3.954 -0.1276  0.2633  0.0945
 4488SOL    HW114680   1.088   8.390   3.915 -0.6464 -0.2677  0.2427
 4488SOL    HW214681   1.229   8.340   3.893 -1.1942 -1.1698 -1.3652
 4489SOL     OW14682   0.610   8.357   5.372 -0.7568  0.3121  0.6175
 4489SOL    HW114683   0.519   8.345   5.399 -1.1047  0.8984 -0.2590
 4489SOL    HW214684   0.654   8.277   5.402 -1.1017  0.8969  2.8666
 4490SOL     OW14685   1.768   8.170   5.701 -0.4033 -0.8647  0.2272
 4490SOL    HW114686   1.711   8.197   5.630  0.2919  1.6230  0.5088
 4490SOL    HW214687   1.855   8.162   5.661  0.0567  0.8763  0.7772
 4491SOL     OW14688   0.857   7.843   5.305  0.1021  0.2255 -0.0939
 4491SOL    HW114689   0.910   7.906   5.256  1.7540 -0.3019  0.9428
 4491SOL    HW214690   0.829   7.779   5.240 -0.3200  1.1858 -0.8775
 4492SOL     OW14691   0.362   7.462   4.780  0.5382 -0.1090  0.0542
 4492SOL    HW114692   0.408   7.479   4.699  0.9055 -0.1530  0.2532
 4492SOL    HW214693   0.309   7.384   4.762  0.1528  0.2381 -0.3275
 4493SOL     OW14694   1.100   8.515   4.919 -0.6946 -0.1038  0.3814
 4493SOL    HW114695   1.050   8.482   4.993  1.0736  1.5138  2.4161
 4493SOL    HW214696   1.176   8.557   4.958  0.9219 -0.1513 -2.4346
 4494SOL     OW14697   1.226   8.232   4.703  0.7827 -0.1072 -0.1867
 4494SOL    HW114698   1.227   8.293   4.629 -0.2386 -0.4377 -0.5031
 4494SOL    HW214699   1.160   8.167   4.678 -0.7802  0.6696  1.7258
 4495SOL     OW14700   0.787   8.310   4.005 -0.2434 -0.5617  0.1756
 4495SOL    HW114701   0.826   8.388   4.044 -0.6385 -0.3358  0.1220
 4495SOL    HW214702   0.850   8.282   3.939  1.1134 -1.7561  1.8820
 4496SOL     OW14703   0.483   7.334   4.180  0.9085  0.1977 -0.0062
 4496SOL    HW114704   0.511   7.411   4.229 -0.2355 -0.1121  1.1894
 4496SOL    HW214705   0.390   7.325   4.200  0.9289 -1.2492 -0.4364
 4497SOL     OW14706   8.551   8.490   4.713 -0.3653 -0.1058  0.0387
 4497SOL    HW114707   8.566   8.402   4.747 -0.2618 -0.0522  0.1362
 4497SOL    HW214708   8.470   8.519   4.756 -0.4579 -0.1925 -0.0750
 4498SOL     OW14709   0.030   8.130   4.784 -0.3161 -0.7900 -0.1950
 4498SOL    HW114710   0.035   8.143   4.690 -0.4261  0.4656 -0.0389
 4498SOL    HW214711   0.104   8.180   4.819 -0.3743 -1.1088  0.4004
 4499SOL     OW14712   1.664   0.286   5.549  0.1280  0.2328 -0.4899
 4499SOL    HW114713   1.584   0.249   5.511  0.7413 -0.4340 -1.1594
 4499SOL    HW214714   1.640   0.306   5.640 -1.2240  1.4343 -1.0771
 4500SOL     OW14715   0.707   7.176   4.468 -0.5370 -0.3732 -0.2112
 4500SOL    HW114716   0.684   7.130   4.549 -0.5912 -1.2426 -0.7065
 4500SOL    HW214717   0.668   7.123   4.398 -2.2389  1.4587 -0.7225
 4501SOL     OW14718   0.967   8.484   3.804 -0.1172  0.2258  0.0797
 4501SOL    HW114719   0.968   8.459   3.712  0.2478 -0.1132  0.1715
 4501SOL    HW214720   0.875   8.504   3.823 -0.3278 -0.5078 -0.1471
 4502SOL     OW14721   0.456   8.236   5.077  0.3883  0.6090  0.3549
 4502SOL    HW114722   0.501   8.244   5.161 -0.5043  1.4184  0.7762
 4502SOL    HW214723   0.519   8.192   5.020  0.9867 -0.0178  1.4598
 4503SOL     OW14724   2.287   0.004   5.268 -0.3519  0.2961 -0.4584
 4503SOL    HW114725   2.237   0.031   5.191  1.1478  1.7302 -0.9721
 4503SOL    HW214726   2.234   0.034   5.342 -0.5445  1.2650 -0.9740
 4504SOL     OW14727   0.721   8.471   5.103 -0.1486 -0.2192 -0.1656
 4504SOL    HW114728   0.669   8.547   5.130  0.9960  0.3350  0.5956
 4504SOL    HW214729   0.722   8.415   5.180  1.7373  0.5711  0.4368
 4505SOL     OW14730   1.179   7.236   3.907 -0.3640  0.6097 -0.4257
 4505SOL    HW114731   1.102   7.270   3.862  0.0704  1.0192 -0.8699
 4505SOL    HW214732   1.186   7.145   3.878 -1.4100  0.1726  0.6054
 4506SOL     OW14733   1.831   8.339   3.756  0.1652  0.4447  0.3459
 4506SOL    HW114734   1.914   8.336   3.708 -0.1058  1.1181 -0.1821
 4506SOL    HW214735   1.845   8.282   3.831  0.9204  0.1127 -0.0312
 4507SOL     OW14736   8.725   8.200   4.269 -0.5002 -0.1173  0.0320
 4507SOL    HW114737   8.634   8.172   4.264 -0.3407 -0.6616  0.1819
 4507SOL    HW214738   8.774   8.134   4.221 -0.2842  0.6606 -0.8410
 4508SOL     OW14739   8.843   7.957   4.167  0.1792 -0.0186  0.2394
 4508SOL    HW114740   8.836   7.866   4.195 -1.5072  0.4999  1.6926
 4508SOL    HW214741   8.933   7.966   4.136 -0.1183 -2.6005 -1.6077
 4509SOL     OW14742   1.062   8.050   5.255  0.0821  0.2618  0.3497
 4509SOL    HW114743   1.041   8.027   5.345 -2.3539  2.5328  0.5064
 4509SOL    HW214744   1.127   8.121   5.262 -0.0945  0.4268  0.3347
 4510SOL     OW14745   0.744   7.648   5.140  0.2056 -0.1169 -0.1622
 4510SOL    HW114746   0.729   7.719   5.078  1.9451  0.8449  0.4518
 4510SOL    HW214747   0.681   7.580   5.115 -0.8467  1.2512 -1.3525
 4511SOL     OW14748   0.142   0.221   4.018  0.1783  0.7815  0.1401
 4511SOL    HW114749   0.144   0.153   4.086  1.8572  0.4817 -0.1668
 4511SOL    HW214750   0.094   0.181   3.945  0.0944  0.3701  0.4180
 4512SOL     OW14751   1.059   7.992   4.678  0.1566 -0.6137  0.0511
 4512SOL    HW114752   1.021   8.002   4.765  2.5565 -1.4365  1.2942
 4512SOL    HW214753   0.985   7.972   4.621 -1.3810 -0.8873  2.0455
 4513SOL     OW14754   8.831   7.701   4.227  0.1165  0.2717  0.1755
 4513SOL    HW114755   8.783   7.635   4.277  0.5091 -0.0069  0.1963
 4513SOL    HW214756   8.901   7.651   4.184  1.3528  0.9102  1.3933
 4514SOL     OW14757   0.084   7.742   4.812 -0.2982 -0.2856  0.4382
 4514SOL    HW114758   0.063   7.654   4.780 -2.3820  0.4929 -0.5297
 4514SOL    HW214759   0.087   7.796   4.733  0.3277  0.6437  1.0781
 4515SOL     OW14760   1.266   8.482   5.512  0.1109  0.3243  0.1304
 4515SOL    HW114761   1.217   8.547   5.563 -0.3735 -0.7855  1.1642
 4515SOL    HW214762   1.286   8.413   5.576  0.1508 -0.7731 -1.0335
 4516SOL     OW14763   0.581   8.105   4.079 -0.2078 -0.4623 -0.4872
 4516SOL    HW114764   0.610   8.065   4.161 -1.4273 -0.2905  0.0433
 4516SOL    HW214765   0.657   8.154   4.048  0.4020 -0.8780  0.3201
 4517SOL     OW14766   1.171   7.852   4.947  0.2085  0.1963 -0.0564
 4517SOL    HW114767   1.240   7.909   4.913  0.7614  0.9971  2.2108
 4517SOL    HW214768   1.193   7.765   4.913  1.7461  0.6202 -0.2382
 4518SOL     OW14769   0.429   7.805   4.909 -0.5860 -0.7106  0.6030
 4518SOL    HW114770   0.374   7.727   4.911 -1.4120 -0.3377 -2.7635
 4518SOL    HW214771   0.379   7.870   4.861  0.9221  1.2794  1.5490
 4519SOL     OW14772   0.631   8.044   3.544 -0.2559 -0.0126 -0.2866
 4519SOL    HW114773   0.677   8.099   3.607 -1.6272 -0.0337  0.7716
 4519SOL    HW214774   0.604   8.105   3.475 -0.5252  0.3985  0.1721
 4520SOL     OW14775   0.079   8.532   4.836  0.3452 -0.0300  0.5382
 4520SOL    HW114776   0.035   8.531   4.751  1.0655  1.5230  0.1147
 4520SOL    HW214777   0.086   8.439   4.860 -2.5784 -0.3904  0.3687
 4521SOL     OW14778   1.393   8.332   4.903 -0.0126 -0.0662 -0.0881
 4521SOL    HW114779   1.312   8.323   4.852  0.3251  0.3502 -0.7253
 4521SOL    HW214780   1.451   8.382   4.845  1.2569 -1.6848 -0.3082
 4522SOL     OW14781   0.507   8.431   3.958  0.2789  0.1696  0.0336
 4522SOL    HW114782   0.542   8.451   4.044  0.4400  0.6732 -0.1418
 4522SOL    HW214783   0.457   8.351   3.970  0.4052  0.1675  0.5670
 4523SOL     OW14784   0.339   8.635   4.877 -0.0754  0.5528 -0.0457
 4523SOL    HW114785   0.344   8.603   4.967  0.8673 -0.3050 -0.3817
 4523SOL    HW214786   0.262   8.591   4.841  1.1370 -1.3787 -0.4699
 4524SOL     OW14787   1.641   7.834   4.115 -0.0763 -0.0395  0.2395
 4524SOL    HW114788   1.702   7.861   4.046  0.1174  1.4349  0.9379
 4524SOL    HW214789   1.602   7.753   4.083  0.6036  0.1861 -1.2325
 4525SOL     OW14790   1.188   8.432   4.493  0.2589 -0.0485 -0.6441
 4525SOL    HW114791   1.216   8.516   4.457  2.4651 -0.1201  0.7026
 4525SOL    HW214792   1.161   8.380   4.417  0.5678  1.2521 -1.6774
 4526SOL     OW14793   0.624   8.834   5.031  0.1481  0.5401  0.1556
 4526SOL    HW114794   0.536   8.847   4.995  0.9788  0.8780 -1.8987
 4526SOL    HW214795   0.621   8.874   5.118 -1.1773  2.3037 -0.6527
 4527SOL     OW14796   1.971   7.868   4.770  0.2616 -1.0247 -0.2236
 4527SOL    HW114797   1.889   7.836   4.731 -0.7979 -0.1308  1.1667
 4527SOL    HW214798   2.027   7.790   4.776 -0.3661 -1.5998 -1.4492
 4528SOL     OW14799   0.205   7.567   4.155 -0.3629  0.2402  0.0074
 4528SOL    HW114800   0.267   7.640   4.160 -0.8912  0.7487 -0.6551
 4528SOL    HW214801   0.224   7.526   4.070 -0.5251  0.0223  0.0762
 4529SOL     OW14802   1.269   8.483   5.234 -0.0050 -0.7786  0.3511
 4529SOL    HW114803   1.232   8.561   5.193 -3.0055 -2.4361 -0.3477
 4529SOL    HW214804   1.252   8.494   5.327 -0.2081 -0.5112  0.2814
 4530SOL     OW14805   0.321   8.210   3.986  0.0551 -0.0870 -0.2217
 4530SOL    HW114806   0.406   8.169   4.005 -0.0431 -1.1082 -1.7530
 4530SOL    HW214807   0.291   8.244   4.070  1.6703 -0.3083  0.4857
 4531SOL     OW14808   0.780   0.241   5.140 -0.1433 -0.0494  0.6682
 4531SOL    HW114809   0.708   0.296   5.111  0.0644 -0.2439 -0.2358
 4531SOL    HW214810   0.745   0.195   5.217 -0.2668  1.4296  1.5408
 4532SOL     OW14811   1.747   0.045   4.831  0.5937  0.4735 -0.0124
 4532SOL    HW114812   1.788  -0.034   4.866  1.3531  0.7989 -0.1591
 4532SOL    HW214813   1.800   0.117   4.864  1.4558  0.7831 -1.9668
 4533SOL     OW14814   0.754   8.306   4.322  0.5360  0.5962 -0.0095
 4533SOL    HW114815   0.744   8.225   4.272  3.0508 -0.2374  0.6695
 4533SOL    HW214816   0.808   8.361   4.266  0.8138  0.8595  0.5134
 4534SOL     OW14817   0.828   7.901   4.549 -0.2514  0.3628 -0.1949
 4534SOL    HW114818   0.778   7.827   4.583 -0.1027  0.1302 -0.4824
 4534SOL    HW214819   0.897   7.862   4.495 -0.8420  0.7453 -1.2571
 4535SOL     OW14820   1.212   7.500   5.311  0.2671 -0.2522 -0.5465
 4535SOL    HW114821   1.203   7.477   5.403 -0.2910  2.5025  0.1793
 4535SOL    HW214822   1.273   7.574   5.311 -0.1238  0.1089 -2.3206
 4536SOL     OW14823   8.678   8.610   5.333 -0.1007  0.6316  0.0897
 4536SOL    HW114824   8.602   8.622   5.275  1.2536 -0.6694 -2.1147
 4536SOL    HW214825   8.691   8.516   5.336  0.4714  0.7346  1.7961
 4537SOL     OW14826   0.649   8.080   5.232 -0.4451 -0.0773 -0.1666
 4537SOL    HW114827   0.686   8.076   5.320  1.0519  0.6945 -0.7399
 4537SOL    HW214828   0.720   8.052   5.174 -0.6551  1.6265 -1.3198
 4538SOL     OW14829   8.591   7.854   3.794  0.2171  0.4049 -0.1948
 4538SOL    HW114830   8.657   7.787   3.775 -0.0988  0.3582 -1.2241
 4538SOL    HW214831   8.508   7.813   3.771 -0.0696  0.8275  0.0811
 4539SOL     OW14832   1.349   8.238   5.167 -0.2238  0.5876 -0.1549
 4539SOL    HW114833   1.339   8.328   5.197  1.0469  0.2563  1.4074
 4539SOL    HW214834   1.388   8.246   5.079  3.1363  1.6417  1.2629
 4540SOL     OW14835   8.524   7.846   4.069  0.1473  0.1590 -0.1256
 4540SOL    HW114836   8.600   7.904   4.077 -1.3459  2.4546 -1.4366
 4540SOL    HW214837   8.530   7.811   3.980 -0.5238  0.7254 -0.4076
 4541SOL     OW14838   0.459   7.896   5.198 -0.4397  0.5809 -0.5884
 4541SOL    HW114839   0.534   7.956   5.203 -1.4109  1.8076  0.1920
 4541SOL    HW214840   0.470   7.850   5.115  1.2974  0.5485 -0.3770
 4542SOL     OW14841   0.052   8.063   5.525  0.1905 -0.0908  0.1408
 4542SOL    HW114842   0.083   8.020   5.604  0.2674 -0.0210  0.1478
 4542SOL    HW214843   0.111   8.032   5.456 -0.7404 -1.2910 -0.1605
 4543SOL     OW14844   1.736   8.643   5.546  0.8099 -0.0963 -0.0318
 4543SOL    HW114845   1.790   8.574   5.584  1.2680  0.2254 -0.0887
 4543SOL    HW214846   1.652   8.637   5.592  0.8275 -0.7184 -0.0712
 4544SOL     OW14847   1.673   7.960   5.024 -0.3690 -0.3436  0.3343
 4544SOL    HW114848   1.760   7.978   4.989 -0.6575  1.6853  0.5267
 4544SOL    HW214849   1.617   8.026   4.984 -1.8004 -1.4538  0.4066
 4545SOL     OW14850   1.130   7.917   3.981 -0.0273 -0.3274  0.5287
 4545SOL    HW114851   1.193   7.969   4.031  0.1680  0.0761 -0.1121
 4545SOL    HW214852   1.184   7.855   3.933  0.0914  1.0761 -1.2943
 4546SOL     OW14853   0.218   8.283   4.254  0.6028  1.0125 -0.5543
 4546SOL    HW114854   0.215   8.292   4.349 -0.8020 -0.9318 -0.3746
 4546SOL    HW214855   0.148   8.341   4.223  0.8940  1.4519 -0.4079
 4547SOL     OW14856   1.561   7.729   5.073  0.3097 -0.3859 -0.1979
 4547SOL    HW114857   1.609   7.812   5.077 -0.5345  0.0646  1.5564
 4547SOL    HW214858   1.536   7.720   4.981  1.7812  0.4901 -0.7166
 4548SOL     OW14859   1.692   8.019   5.317  0.4730 -0.1498  0.2326
 4548SOL    HW114860   1.761   8.085   5.314 -0.8197  1.3270  1.1405
 4548SOL    HW214861   1.641   8.035   5.238  0.3881 -0.3328  0.2505
 4549SOL     OW14862   0.608   0.387   4.027 -0.0903 -0.4800  0.0891
 4549SOL    HW114863   0.585   0.324   4.096 -0.4607 -0.2551  0.1743
 4549SOL    HW214864   0.524   0.408   3.985  0.0535 -0.1667 -0.0428
 4550SOL     OW14865   0.992   8.402   4.688 -0.3636 -0.0801  0.0399
 4550SOL    HW114866   1.031   8.436   4.768  0.3734 -3.0373  1.0917
 4550SOL    HW214867   1.059   8.413   4.621 -1.1679  2.8708 -0.4050
 4551SOL     OW14868   1.109   8.660   4.031  0.8392 -0.5574  0.2765
 4551SOL    HW114869   1.072   8.748   4.020 -1.9849 -1.3717  2.0657
 4551SOL    HW214870   1.200   8.669   4.004 -0.3185  1.9155 -3.6263
 4552SOL     OW14871   0.105   0.110   5.533 -0.1563 -0.1399 -0.0248
 4552SOL    HW114872   0.028   0.067   5.496  0.8316 -2.4400  0.4153
 4552SOL    HW214873   0.079   0.134   5.622 -0.2622 -1.2628  0.2570
 4553SOL     OW14874   8.724   8.744   4.381  0.2273  0.1585  0.1207
 4553SOL    HW114875   8.640   8.756   4.426 -0.8269 -1.2758 -1.3347
 4553SOL    HW214876   8.701   8.696   4.301  2.4430 -0.1934 -0.3566
 4554SOL     OW14877   1.007   0.362   5.226  0.5234  0.1440  0.4656
 4554SOL    HW114878   0.939   0.332   5.167 -0.1105  2.4564 -0.0950
 4554SOL    HW214879   1.089   0.345   5.179  0.1875 -0.3952  0.0649
 4555SOL     OW14880   1.368   8.000   4.799  0.3637 -0.1420 -0.2805
 4555SOL    HW114881   1.324   8.085   4.797  0.5006 -0.0571  0.0753
 4555SOL    HW214882   1.458   8.019   4.772  0.1596 -0.3322 -1.1159
 4556SOL     OW14883   0.412   7.787   4.216 -0.6513 -0.1549  0.4105
 4556SOL    HW114884   0.437   7.799   4.125 -2.4777  0.1096 -0.1105
 4556SOL    HW214885   0.372   7.871   4.241 -0.6948 -0.4170  1.2721
 4557SOL     OW14886   1.761   8.415   4.671  0.2514 -0.2257 -0.0038
 4557SOL    HW114887   1.765   8.508   4.648  0.8271 -0.2923 -0.1698
 4557SOL    HW214888   1.741   8.370   4.589 -0.3257 -0.2260  0.1313
 4558SOL     OW14889   0.282   7.973   4.773 -0.0781 -0.4152 -0.5074
 4558SOL    HW114890   0.225   7.919   4.718 -1.8643  0.8781 -0.0343
 4558SOL    HW214891   0.222   8.013   4.837  1.4936  0.4288  0.4915
 4559SOL     OW14892   1.521   7.455   4.324 -0.5379 -0.2940  0.4819
 4559SOL    HW114893   1.509   7.547   4.348 -0.6177 -0.2200  0.1535
 4559SOL    HW214894   1.494   7.450   4.232 -0.7906 -0.6989  0.5755
 4560SOL     OW14895   0.955   7.221   5.338  0.1925 -0.0757 -0.3346
 4560SOL    HW114896   0.904   7.300   5.356  0.4433  0.0982 -0.3879
 4560SOL    HW214897   1.038   7.234   5.384  0.0937 -0.4715 -0.0366
 4561SOL     OW14898   0.759   8.777   4.175  0.3335  0.2076  0.2066
 4561SOL    HW114899   0.719   8.693   4.151 -0.0446  0.3235  0.4251
 4561SOL    HW214900   0.824   8.754   4.241  1.4749 -0.1324 -0.9774
 4562SOL     OW14901   0.945   7.742   4.154  0.4515  0.2982 -0.2453
 4562SOL    HW114902   0.882   7.671   4.148 -0.9782  1.4726  0.3709
 4562SOL    HW214903   0.976   7.756   4.064  0.8062 -1.1174 -0.3580
 4563SOL     OW14904   1.332   8.030   4.138 -1.1365  0.3225 -0.2335
 4563SOL    HW114905   1.296   8.078   4.213 -0.1499  1.5044 -0.4886
 4563SOL    HW214906   1.405   8.083   4.108 -0.0839 -1.2641 -0.6394
 4564SOL     OW14907   1.892   7.903   4.445 -0.1006  0.4493  0.1941
 4564SOL    HW114908   1.797   7.904   4.452  0.0197  0.6578  3.1976
 4564SOL    HW214909   1.919   7.822   4.490  1.1742  1.5019  1.4327
 4565SOL     OW14910   8.808   0.018   3.915 -0.5209  0.2384 -0.4341
 4565SOL    HW114911   8.731  -0.038   3.902  0.2911 -1.0209  0.0506
 4565SOL    HW214912   8.879  -0.042   3.934  1.1112  1.1934 -3.0315
 4566SOL     OW14913   0.343   8.288   5.433 -0.0560  0.7142  0.4514
 4566SOL    HW114914   0.353   8.312   5.525 -3.5001 -1.1523  1.5025
 4566SOL    HW214915   0.299   8.364   5.393  1.1102  1.3773  0.3882
 4567SOL     OW14916   8.819   7.768   6.153  0.3094 -0.0898  0.2151
 4567SOL    HW114917   8.781   7.819   6.225 -1.4004 -0.2494 -0.5059
 4567SOL    HW214918   8.882   7.710   6.196 -1.3641 -0.8852  1.7604
 4568SOL     OW14919   8.391   7.830   6.077  0.3327  0.0410  0.0512
 4568SOL    HW114920   8.314   7.851   6.131 -0.8312 -0.7583 -1.2188
 4568SOL    HW214921   8.457   7.894   6.104 -0.8282  0.8661  1.0734
 4569SOL     OW14922   0.711   8.085   6.931  0.4759 -0.2423  0.4223
 4569SOL    HW114923   0.750   8.096   7.018  4.3393  1.0645 -1.2355
 4569SOL    HW214924   0.727   8.169   6.887 -1.5282 -0.8051 -1.5440
 4570SOL     OW14925   1.676   0.381   6.439 -0.0320  0.3005 -0.0073
 4570SOL    HW114926   1.724   0.298   6.432  0.3751  0.4589  0.7852
 4570SOL    HW214927   1.598   0.368   6.386  0.4408 -0.2936 -0.5684
 4571SOL     OW14928   1.308   8.529   5.849 -0.0427 -0.6510 -0.2408
 4571SOL    HW114929   1.224   8.491   5.877 -0.2566  0.4026  0.6468
 4571SOL    HW214930   1.374   8.471   5.887 -0.3386 -1.8975 -1.5378
 4572SOL     OW14931   1.520   8.307   5.898  0.5940 -0.6009 -0.1833
 4572SOL    HW114932   1.578   8.382   5.884 -1.4416  1.8451  2.9696
 4572SOL    HW214933   1.546   8.273   5.984 -2.8146  1.0494  1.7094
 4573SOL     OW14934   1.091   8.283   6.503 -0.0053 -0.2000 -0.1693
 4573SOL    HW114935   1.116   8.221   6.571 -1.2080 -0.9326 -0.3625
 4573SOL    HW214936   0.998   8.266   6.488 -0.2474  1.3029 -0.5950
 4574SOL     OW14937   0.852   8.153   7.512 -0.5730 -0.3501  0.1327
 4574SOL    HW114938   0.876   8.109   7.594  0.1739 -0.2631 -0.0331
 4574SOL    HW214939   0.757   8.150   7.511 -0.5581 -1.2880  0.4931
 4575SOL     OW14940   0.870   7.819   6.320  0.5209  0.5069 -0.0151
 4575SOL    HW114941   0.812   7.761   6.271 -0.8060  3.6809 -2.5750
 4575SOL    HW214942   0.957   7.782   6.308 -0.1164 -0.3777 -2.5197
 4576SOL     OW14943   1.481   8.576   7.311 -0.5247 -0.3365  0.0712
 4576SOL    HW114944   1.400   8.534   7.282 -0.2598 -0.3714 -0.6455
 4576SOL    HW214945   1.546   8.506   7.310 -0.3406 -0.1665 -0.0160
 4577SOL     OW14946   0.499   8.270   6.640 -0.3344  0.0305  0.7139
 4577SOL    HW114947   0.467   8.188   6.601  1.5167 -0.4774  0.1297
 4577SOL    HW214948   0.461   8.271   6.727 -0.8032 -1.2180  0.5514
 4578SOL     OW14949   0.167   8.308   6.927  0.4451 -0.2036 -0.4836
 4578SOL    HW114950   0.134   8.316   7.017  0.8266  1.2436 -0.4468
 4578SOL    HW214951   0.141   8.220   6.900  0.3608 -0.6941  1.0604
 4579SOL     OW14952   1.561   7.583   6.783  0.0104  0.5901 -0.2374
 4579SOL    HW114953   1.656   7.599   6.784 -0.0217  0.7710  0.1847
 4579SOL    HW214954   1.544   7.537   6.865 -0.4423  1.6052  0.2503
 4580SOL     OW14955   1.603   0.034   7.537  0.3434  0.2690 -0.3771
 4580SOL    HW114956   1.615   0.081   7.619  1.0455 -1.6848  0.7085
 4580SOL    HW214957   1.508   0.037   7.521 -0.0297 -0.6824  1.4013
 4581SOL     OW14958   0.488   8.547   6.497  0.5738  0.5170 -0.1739
 4581SOL    HW114959   0.517   8.504   6.416 -2.5190 -0.8528 -0.6735
 4581SOL    HW214960   0.491   8.478   6.563 -1.1554  0.3800 -0.1954
 4582SOL     OW14961   0.983   8.517   5.946  0.4736 -0.0073  0.3038
 4582SOL    HW114962   0.977   8.423   5.961 -1.4332  0.0664  0.1785
 4582SOL    HW214963   0.937   8.532   5.864  0.2152  1.0962  0.6315
 4583SOL     OW14964   1.774   7.500   7.550 -0.0580  0.0377  0.4337
 4583SOL    HW114965   1.747   7.548   7.472  0.2369 -1.4321 -0.6142
 4583SOL    HW214966   1.693   7.462   7.584  0.1876 -1.9857 -1.0582
 4584SOL     OW14967   0.173   8.090   6.066 -0.1787  0.0013 -0.3763
 4584SOL    HW114968   0.265   8.074   6.088  0.3374  1.2323 -1.5449
 4584SOL    HW214969   0.133   8.113   6.150  0.4366 -1.0690  0.2425
 4585SOL     OW14970   2.087   8.281   6.168  0.0509  0.0519 -0.8450
 4585SOL    HW114971   2.179   8.252   6.162 -0.0607 -0.0602 -3.8853
 4585SOL    HW214972   2.040   8.203   6.197  0.7377 -0.3844 -0.8597
 4586SOL     OW14973   1.384   8.754   5.990  0.0760  0.3109  0.2176
 4586SOL    HW114974   1.304   8.768   6.040 -0.7199  0.3007 -1.0034
 4586SOL    HW214975   1.365   8.676   5.937  1.0562  0.0511  0.2399
 4587SOL     OW14976   0.589   8.152   7.504 -0.3313  0.1148  0.2115
 4587SOL    HW114977   0.536   8.073   7.515 -0.3208  0.2596  1.4382
 4587SOL    HW214978   0.525   8.224   7.504 -0.3228  0.1267 -0.6739
 4588SOL     OW14979   0.785   8.198   6.504 -0.0585 -0.9224  0.5814
 4588SOL    HW114980   0.725   8.240   6.566 -0.5647 -0.1103 -0.4075
 4588SOL    HW214981   0.778   8.105   6.522 -0.9911 -0.7723  1.0520
 4589SOL     OW14982   1.739   8.680   7.401  0.0578  0.5186 -0.0918
 4589SOL    HW114983   1.647   8.655   7.393  0.5183 -1.3664  0.1383
 4589SOL    HW214984   1.737   8.758   7.457 -1.3572  0.1875  0.3839
 4590SOL     OW14985   0.646   8.094   5.870  0.0386 -0.2042  0.1983
 4590SOL    HW114986   0.649   8.165   5.806 -1.3171  0.4896  0.8601
 4590SOL    HW214987   0.608   8.020   5.823 -0.7635  0.2418  0.1291
 4591SOL     OW14988   0.204   8.310   6.428  0.4888 -0.0308  0.2761
 4591SOL    HW114989   0.285   8.273   6.461 -0.4252 -3.5713 -1.0520
 4591SOL    HW214990   0.214   8.312   6.333 -0.3709  1.1584  0.1713
 4592SOL     OW14991   1.727   8.049   5.964  0.1661  0.2926  0.2705
 4592SOL    HW114992   1.739   8.082   5.874 -0.4673  1.4223  0.5798
 4592SOL    HW214993   1.632   8.042   5.974  0.2591 -0.6069  0.5938
 4593SOL     OW14994   0.898   7.756   7.497  0.2790 -0.0169  0.1573
 4593SOL    HW114995   0.885   7.791   7.408 -0.8945  0.6913  0.5882
 4593SOL    HW214996   0.857   7.670   7.495 -0.4385  0.3172  0.2185
 4594SOL     OW14997   1.628   8.775   6.626 -0.0804  0.1362 -0.0574
 4594SOL    HW114998   1.596   8.842   6.687  0.0980  0.0396  0.1402
 4594SOL    HW214999   1.587   8.798   6.542  0.6163  0.9595 -0.1753
 4595SOL     OW15000   0.743   8.293   6.052  0.7005  0.4637  0.1892
 4595SOL    HW115001   0.732   8.205   6.016 -1.8699  0.8974 -0.3097
 4595SOL    HW215002   0.808   8.283   6.122  0.2018 -1.8995  0.3874
 4596SOL     OW15003   1.105   7.767   6.880  0.1952 -0.0288  0.5996
 4596SOL    HW115004   1.041   7.824   6.838  1.0434  0.4628 -0.0467
 4596SOL    HW215005   1.098   7.684   6.832  2.0871  0.9197 -1.5161
 4597SOL     OW15006   1.007   8.173   6.994 -0.1416  0.7917  0.8602
 4597SOL    HW115007   0.964   8.126   7.065  1.0665 -1.8769 -0.0296
 4597SOL    HW215008   1.093   8.195   7.029  0.7785 -1.2673  0.1021
 4598SOL     OW15009   1.428   8.004   7.533 -0.0705 -0.0392 -0.0474
 4598SOL    HW115010   1.506   7.949   7.522  0.4031 -0.0430  2.6864
 4598SOL    HW215011   1.462   8.086   7.568 -0.9574  1.4594 -2.5049
 4599SOL     OW15012   1.164   8.653   7.405 -0.1687  0.0970 -0.3483
 4599SOL    HW115013   1.160   8.608   7.490 -0.8041 -0.6280 -0.7554
 4599SOL    HW215014   1.192   8.586   7.343 -1.2235  0.2214 -0.9806
 4600SOL     OW15015   1.092   7.512   6.840  0.2634 -0.2509 -0.2302
 4600SOL    HW115016   1.109   7.454   6.766 -2.2814  1.3476 -2.2398
 4600SOL    HW215017   1.006   7.484   6.873  0.9065 -0.2872  1.5449
 4601SOL     OW15018   0.968   8.441   5.600  0.0798 -0.3573 -0.4656
 4601SOL    HW115019   0.892   8.438   5.658  0.3274 -0.5205 -0.1454
 4601SOL    HW215020   0.932   8.467   5.515 -0.5291 -1.6563 -0.6354
 4602SOL     OW15021   0.469   8.563   5.787 -0.5935  0.3088  0.0590
 4602SOL    HW115022   0.414   8.615   5.727  1.5163  2.4892 -0.1443
 4602SOL    HW215023   0.461   8.608   5.871  0.9720  0.7783 -0.0232
 4603SOL     OW15024   0.487   7.853   5.476  0.3794  0.0307 -0.0264
 4603SOL    HW115025   0.477   7.860   5.381  1.6223  0.0906 -0.1703
 4603SOL    HW215026   0.477   7.760   5.495  2.3466 -0.3370 -0.5351
 4604SOL     OW15027   2.065   8.076   7.570 -0.2560  0.2070 -0.0104
 4604SOL    HW115028   2.157   8.071   7.596 -0.0770 -1.1986 -0.8805
 4604SOL    HW215029   2.066   8.067   7.475 -1.3281 -0.1655  0.0096
 4605SOL     OW15030   1.502   0.155   5.981  0.4340  0.6893 -0.1654
 4605SOL    HW115031   1.568   0.113   6.036  0.3151  0.2125 -0.3833
 4605SOL    HW215032   1.428   0.093   5.980 -0.0286  1.2280  0.0976
 4606SOL     OW15033   0.617   7.682   6.195  0.8080 -0.7270 -0.3188
 4606SOL    HW115034   0.646   7.708   6.107  1.5597  1.0351  0.3857
 4606SOL    HW215035   0.657   7.596   6.209  0.2371 -1.2830 -1.8764
 4607SOL     OW15036   1.632   8.341   6.640  0.0106 -0.1948 -0.1231
 4607SOL    HW115037   1.635   8.341   6.544 -1.0017  0.6828 -0.1671
 4607SOL    HW215038   1.581   8.263   6.662  0.6620 -0.6720 -0.2702
 4608SOL     OW15039   0.556   8.642   5.413  0.1491  0.6219 -0.0406
 4608SOL    HW115040   0.475   8.662   5.460  0.2103  0.9859 -0.0856
 4608SOL    HW215041   0.565   8.547   5.420 -1.0577  0.3678 -1.2597
 4609SOL     OW15042   1.506   7.777   6.320 -0.0181  0.2423 -0.1507
 4609SOL    HW115043   1.574   7.712   6.338 -1.0041 -0.4001  1.4248
 4609SOL    HW215044   1.427   7.740   6.358 -0.5221  2.5937  1.2580
 4610SOL     OW15045   0.890   8.696   6.874  0.2407  0.1331  0.4443
 4610SOL    HW115046   0.830   8.628   6.846  1.0555 -0.0999 -0.8211
 4610SOL    HW215047   0.833   8.767   6.904 -0.6286 -1.5956  3.2144
 4611SOL     OW15048   0.131   8.008   6.929  0.0163 -0.0759  0.2281
 4611SOL    HW115049   0.078   7.945   6.978  0.5252  1.3019  2.7179
 4611SOL    HW215050   0.218   7.970   6.929  0.1389  0.1772  0.9700
 4612SOL     OW15051   1.871   8.700   5.960  0.0408 -0.4510  0.0020
 4612SOL    HW115052   1.882   8.773   6.022 -1.2963  0.9282 -1.3085
 4612SOL    HW215053   1.943   8.640   5.981  2.5751  2.2589 -0.2887
 4613SOL     OW15054   1.331   7.417   5.604 -0.1596  1.1398  0.0797
 4613SOL    HW115055   1.395   7.478   5.642  0.4004  0.9780 -0.5997
 4613SOL    HW215056   1.251   7.469   5.596  0.1487  1.6150  0.0555
 4614SOL     OW15057   0.391   8.323   5.684 -0.3101  0.1265  0.4345
 4614SOL    HW115058   0.314   8.315   5.741 -0.7249  0.2460 -0.0988
 4614SOL    HW215059   0.446   8.388   5.728 -0.7687  0.4445  0.5466
 4615SOL     OW15060   1.777   7.740   7.371  0.9394  0.7025 -0.2032
 4615SOL    HW115061   1.818   7.823   7.395  1.1690  0.9559 -1.4088
 4615SOL    HW215062   1.827   7.710   7.295  0.1152  0.0415 -0.4997
 4616SOL     OW15063   0.493   7.588   5.511  0.4123  0.2032 -0.6457
 4616SOL    HW115064   0.585   7.591   5.540  0.2259 -0.2340  0.0168
 4616SOL    HW215065   0.445   7.558   5.588 -0.3187  0.6235 -0.9270
 4617SOL     OW15066   0.865   7.359   6.943 -0.4111 -0.2334 -0.5058
 4617SOL    HW115067   0.873   7.263   6.943 -0.5918 -0.2614 -1.4731
 4617SOL    HW215068   0.773   7.375   6.962  0.1854 -0.1247  2.9346
 4618SOL     OW15069   1.078   7.632   7.188  0.2301 -0.6183  0.1239
 4618SOL    HW115070   1.162   7.650   7.230  0.1682 -0.1589  0.0534
 4618SOL    HW215071   1.081   7.538   7.168  0.0601 -0.9726  1.5923
 4619SOL     OW15072   1.161   7.778   6.301  0.1777  0.5380  0.3624
 4619SOL    HW115073   1.204   7.750   6.220  0.0152  0.0852  0.4302
 4619SOL    HW215074   1.175   7.705   6.362 -0.0866  0.6871  0.6010
 4620SOL     OW15075   0.318   7.530   5.727  0.0952  0.1595  0.4773
 4620SOL    HW115076   0.373   7.537   5.805 -0.2503  1.9460  0.6089
 4620SOL    HW215077   0.232   7.506   5.760  0.1773 -0.0242  0.5547
 4621SOL     OW15078   1.809   0.035   5.742  0.0990 -0.3230 -0.6896
 4621SOL    HW115079   1.842  -0.027   5.807  0.6906 -1.2434 -1.8200
 4621SOL    HW215080   1.775  -0.020   5.671 -0.4240  0.6496 -1.2173
 4622SOL     OW15081   0.460   7.359   5.324  0.3086  0.0315  0.3447
 4622SOL    HW115082   0.377   7.394   5.290  1.0711  2.4840  0.8047
 4622SOL    HW215083   0.482   7.417   5.397  2.0160 -1.0999  0.7905
 4623SOL     OW15084   1.151   7.813   5.841  0.2778 -0.1917 -0.4386
 4623SOL    HW115085   1.206   7.738   5.862  0.4529  0.0170 -0.1453
 4623SOL    HW215086   1.206   7.889   5.858  0.2132 -0.0009 -1.0639
 4624SOL     OW15087   1.317   7.954   7.149 -0.1928 -0.1003  0.5697
 4624SOL    HW115088   1.278   8.022   7.093  0.1002 -1.3211 -1.2037
 4624SOL    HW215089   1.410   7.977   7.153 -0.0598 -0.4788 -0.1863
 4625SOL     OW15090   1.582   8.650   6.228 -0.2854  0.0203  0.7260
 4625SOL    HW115091   1.649   8.718   6.226  1.8750 -1.9677 -1.8999
 4625SOL    HW215092   1.517   8.677   6.163  0.3657 -0.1791 -0.0231
 4626SOL     OW15093   0.590   8.425   6.246 -0.1649 -0.0631 -0.1831
 4626SOL    HW115094   0.674   8.469   6.259  1.4153 -2.6504 -0.8865
 4626SOL    HW215095   0.597   8.383   6.160 -1.0295 -2.5566  0.8552
 4627SOL     OW15096   0.184   7.646   5.477  0.0343 -0.4361  0.4469
 4627SOL    HW115097   0.262   7.598   5.506 -0.6055 -1.3710  0.6918
 4627SOL    HW215098   0.123   7.638   5.551 -1.0354 -1.4875 -0.5014
 4628SOL     OW15099   0.306   8.528   7.061 -0.0056 -0.2976  0.3305
 4628SOL    HW115100   0.337   8.503   7.148 -1.4948 -0.1709  0.9291
 4628SOL    HW215101   0.297   8.445   7.014  2.3489 -0.2798 -0.3207
 4629SOL     OW15102   0.578   7.705   6.566 -0.2333  0.0939  1.0536
 4629SOL    HW115103   0.637   7.629   6.560 -0.0207  0.3895 -2.4216
 4629SOL    HW215104   0.528   7.689   6.646  1.6462 -2.3097  1.9004
 4630SOL     OW15105   1.043   8.214   5.708  0.4779  0.3909 -0.1989
 4630SOL    HW115106   1.037   8.225   5.803 -3.0108  0.5383 -0.3032
 4630SOL    HW215107   1.026   8.302   5.673 -1.1456 -0.1446 -0.8905
 4631SOL     OW15108   1.310   7.732   6.094  0.4351  0.5959 -0.1136
 4631SOL    HW115109   1.395   7.774   6.081  0.4730 -0.1220 -2.6196
 4631SOL    HW215110   1.315   7.651   6.044 -0.2900 -1.6082  3.1041
 4632SOL     OW15111   1.016   0.205   5.448 -0.2843 -0.1609 -0.0139
 4632SOL    HW115112   1.001   0.239   5.360  0.3206 -2.8560 -1.2502
 4632SOL    HW215113   1.079   0.267   5.487  0.1536  0.5871 -1.7982
 4633SOL     OW15114   1.375   7.458   6.279  0.0095  0.1814 -0.5256
 4633SOL    HW115115   1.282   7.474   6.294 -0.2084 -0.3958 -1.2469
 4633SOL    HW215116   1.412   7.454   6.367 -0.8854 -0.9720 -0.1739
 4634SOL     OW15117   1.397   8.159   6.170 -0.1027  0.2455 -0.6077
 4634SOL    HW115118   1.365   8.108   6.245  1.3070  0.4044  0.1372
 4634SOL    HW215119   1.455   8.225   6.209  1.7763 -0.5335 -1.9282
 4635SOL     OW15120   1.820   8.382   6.293 -0.4121 -0.4380  0.4481
 4635SOL    HW115121   1.837   8.459   6.347 -0.7963  0.2550 -0.4070
 4635SOL    HW215122   1.894   8.378   6.232 -0.7558 -0.3304  0.0213
 4636SOL     OW15123   1.373   8.278   5.684 -0.2394 -0.7779  0.0666
 4636SOL    HW115124   1.344   8.190   5.662 -1.5603 -0.3477 -0.0068
 4636SOL    HW215125   1.418   8.268   5.768  0.0642 -1.5903 -0.1852
 4637SOL     OW15126   0.066   7.468   5.814 -0.2002 -0.5647  0.1045
 4637SOL    HW115127  -0.002   7.514   5.864 -0.0062 -0.3990  0.2169
 4637SOL    HW215128   0.021   7.439   5.735  0.3728  2.5479 -1.5190
 4638SOL     OW15129   1.697   8.473   7.128  0.1624 -0.3205  0.8689
 4638SOL    HW115130   1.720   8.401   7.069 -1.4351  0.2051 -0.4537
 4638SOL    HW215131   1.773   8.480   7.187  1.7130 -1.0586 -0.9199
 4639SOL     OW15132   1.450   8.385   6.991  0.0548 -0.5680  0.5715
 4639SOL    HW115133   1.524   8.423   7.038  0.3090 -1.6593  1.0812
 4639SOL    HW215134   1.470   8.399   6.899  0.0624  0.6480  0.7386
 4640SOL     OW15135   1.371   8.459   6.362  0.0798 -0.4905  0.1754
 4640SOL    HW115136   1.341   8.525   6.424 -1.4082 -0.1509 -0.8359
 4640SOL    HW215137   1.457   8.490   6.333  0.3766 -0.1868  1.3672
 4641SOL     OW15138   1.888   8.193   7.212  0.1961 -0.1033 -0.6760
 4641SOL    HW115139   1.870   8.193   7.118  1.7455 -1.2436 -1.0077
 4641SOL    HW215140   1.944   8.269   7.225  0.0100  0.0348 -0.6688
 4642SOL     OW15141   1.178   7.537   6.435  0.3679  0.3966 -0.1391
 4642SOL    HW115142   1.114   7.582   6.489  0.2059  0.0899 -0.0706
 4642SOL    HW215143   1.253   7.522   6.493  0.9689  1.7432 -0.5178
 4643SOL     OW15144   0.699   0.020   6.952 -0.1264  0.0234  0.2115
 4643SOL    HW115145   0.701   0.096   7.011 -1.9236  1.0869 -1.0216
 4643SOL    HW215146   0.621  -0.028   6.978 -0.8633  0.4347 -1.1835
 4644SOL     OW15147   0.814   8.717   5.418 -0.2293  0.2354  0.3713
 4644SOL    HW115148   0.720   8.701   5.405 -0.7592  1.7417  1.9144
 4644SOL    HW215149   0.856   8.636   5.390 -1.9692 -0.3934 -0.5927
 4645SOL     OW15150   0.441   8.003   6.587  0.3737  0.2333  0.3103
 4645SOL    HW115151   0.390   7.936   6.542  1.5838 -0.3885 -0.1857
 4645SOL    HW215152   0.423   7.988   6.680  1.3663 -1.4255  0.2634
 4646SOL     OW15153   1.316   7.692   7.026  0.0172  0.5845  0.5714
 4646SOL    HW115154   1.343   7.767   7.079 -0.1455  1.0247  0.0365
 4646SOL    HW215155   1.234   7.719   6.985 -1.5690 -0.9033  2.5441
 4647SOL     OW15156   0.041   0.717   7.072  0.2208 -0.5081 -0.3516
 4647SOL    HW115157  -0.005   0.796   7.099  0.2990  0.0834 -1.8501
 4647SOL    HW215158   0.054   0.667   7.153  3.3364  2.6334  1.3466
 4648SOL     OW15159   1.093   0.190   6.459 -0.3350  0.2624  0.4496
 4648SOL    HW115160   1.061   0.198   6.548  0.1856  1.0023  0.5853
 4648SOL    HW215161   1.014   0.185   6.405 -0.6606  0.5880  0.8881
 4649SOL     OW15162   0.729   7.820   5.998 -0.0762 -0.3420  0.5077
 4649SOL    HW115163   0.762   7.903   5.965 -2.1767 -0.7216 -2.9844
 4649SOL    HW215164   0.806   7.763   6.003  0.8501  0.7761 -0.5746
 4650SOL     OW15165   1.524   8.655   5.690  0.7031  0.0756 -0.2361
 4650SOL    HW115166   1.553   8.651   5.781  1.0779  0.9473 -0.3083
 4650SOL    HW215167   1.433   8.624   5.692  0.4561  0.8197  0.5559
 4651SOL     OW15168   1.494   7.905   5.862  0.2836  0.1287  0.1220
 4651SOL    HW115169   1.497   7.890   5.768 -0.7077  1.4102 -0.1416
 4651SOL    HW215170   1.431   7.976   5.873  1.3192  0.8641  1.6516
 4652SOL     OW15171   0.775   8.112   7.193 -0.5486  0.6225 -0.1119
 4652SOL    HW115172   0.736   8.061   7.264  2.2300 -0.7890  0.5527
 4652SOL    HW215173   0.791   8.198   7.232  0.1313  0.1334  0.7360
 4653SOL     OW15174   1.786   8.035   7.410 -0.3701  0.5042  0.0832
 4653SOL    HW115175   1.746   8.092   7.476 -1.1437  0.4259 -0.3097
 4653SOL    HW215176   1.818   8.096   7.343  0.5623  0.5949  0.6002
 4654SOL     OW15177   1.513   7.504   7.626  0.4974  0.0110  0.1035
 4654SOL    HW115178   1.553   7.579   7.670 -0.6609 -0.5721  2.2961
 4654SOL    HW215179   1.424   7.501   7.659 -0.4383 -0.5545 -2.3130
 4655SOL     OW15180   0.870   7.844   7.243 -0.4931  0.2364 -0.1822
 4655SOL    HW115181   0.947   7.796   7.212 -0.0647  0.8056 -0.0234
 4655SOL    HW215182   0.890   7.936   7.224 -0.7808  0.4704  0.5901
 4656SOL     OW15183   0.758   7.940   6.544  0.1843 -0.0660 -0.3354
 4656SOL    HW115184   0.797   7.915   6.460  1.0052 -1.4172  0.3952
 4656SOL    HW215185   0.675   7.891   6.547  1.0713 -1.6080  0.4345
 4657SOL     OW15186   1.372   7.769   6.721  0.4649  0.1169  0.1161
 4657SOL    HW115187   1.423   7.709   6.776 -0.9636  0.2510  1.6674
 4657SOL    HW215188   1.284   7.766   6.758  0.1777  2.6423 -0.2076
 4658SOL     OW15189   1.054   8.014   5.537 -0.6901 -0.1004 -0.3480
 4658SOL    HW115190   0.960   8.005   5.549 -0.6776  0.8204  0.6926
 4658SOL    HW215191   1.078   8.089   5.592  0.8206 -0.9924  0.2956
 4659SOL     OW15192   8.808   8.088   6.744  0.2766  0.0631  0.4844
 4659SOL    HW115193   8.763   8.145   6.806  0.2612  0.9684 -0.3261
 4659SOL    HW215194   8.891   8.068   6.787  0.4016  0.9388  0.6830
 4660SOL     OW15195   0.484   8.725   7.054  0.7314  0.3414 -0.1523
 4660SOL    HW115196   0.476   8.755   7.144 -0.6761  0.3324 -0.2436
 4660SOL    HW215197   0.412   8.662   7.043  0.4144  0.9011 -1.4891
 4661SOL     OW15198   0.869   7.894   6.771 -0.2287  0.2876 -0.0692
 4661SOL    HW115199   0.826   7.926   6.850 -1.5323  0.3413 -0.7735
 4661SOL    HW215200   0.828   7.942   6.699  1.2745  0.6078 -0.7765
 4662SOL     OW15201   1.729   8.346   7.497 -0.4335 -0.0063  0.1554
 4662SOL    HW115202   1.797   8.333   7.564 -0.7040 -1.2442  0.2306
 4662SOL    HW215203   1.776   8.382   7.422  0.3236 -0.8340  0.2076
 4663SOL     OW15204   0.300   7.836   5.942  0.6111 -0.4434  0.0478
 4663SOL    HW115205   0.263   7.912   5.987  1.6968  0.4503 -0.4936
 4663SOL    HW215206   0.266   7.842   5.853 -0.9853 -1.8199  0.5201
 4664SOL     OW15207   1.333   7.549   5.913  0.3264  0.0449 -0.3553
 4664SOL    HW115208   1.300   7.465   5.945  0.1643  0.1106 -0.3477
 4664SOL    HW215209   1.407   7.526   5.857  1.9697  0.0090  1.6915
 4665SOL     OW15210   1.282   8.035   6.383  0.0084  0.4841  0.1553
 4665SOL    HW115211   1.192   8.025   6.352  0.8186 -0.2878 -2.1710
 4665SOL    HW215212   1.310   7.946   6.404  1.0391  0.2903 -1.7887
 4666SOL     OW15213   2.025   0.084   7.150 -0.2895  0.3113  0.0854
 4666SOL    HW115214   2.098   0.138   7.177  0.3074  0.7322 -2.2385
 4666SOL    HW215215   2.052   0.045   7.067 -3.0017  1.1662 -1.3037
 4667SOL     OW15216   0.934   8.429   7.493  0.1667  0.2486 -0.4347
 4667SOL    HW115217   0.898   8.342   7.513 -1.8897  0.9176 -0.9601
 4667SOL    HW215218   1.024   8.425   7.525 -0.6695 -1.1860  2.0470
 4668SOL     OW15219   1.349   7.977   5.597 -0.2479  0.0288 -0.1194
 4668SOL    HW115220   1.362   8.003   5.506 -1.8166 -0.3587 -0.4984
 4668SOL    HW215221   1.254   7.973   5.607 -0.1241  0.6955  1.7342
 4669SOL     OW15222   1.610   8.250   5.494  0.0701  0.2982  0.2088
 4669SOL    HW115223   1.626   8.187   5.423  0.8033  2.1712 -1.3756
 4669SOL    HW215224   1.515   8.253   5.502 -0.0088 -0.2072 -0.4405
 4670SOL     OW15225   0.051   8.049   6.332  0.6212 -0.4124  0.0964
 4670SOL    HW115226  -0.013   7.985   6.362 -0.9288  0.5470 -1.0115
 4670SOL    HW215227   0.030   8.130   6.379  0.9546 -0.0558 -0.3433
 4671SOL     OW15228   0.514   7.947   6.272 -0.0678  0.2436 -0.1241
 4671SOL    HW115229   0.568   7.868   6.265 -0.5375 -0.0301 -0.7267
 4671SOL    HW215230   0.529   7.977   6.362  1.5284  0.5054 -0.4399
 4672SOL     OW15231   1.237   7.590   7.780  0.3414 -0.0818 -0.5211
 4672SOL    HW115232   1.161   7.551   7.739 -0.3682 -0.1806  0.8293
 4672SOL    HW215233   1.245   7.677   7.740  2.0520 -1.5458 -3.6750
 4673SOL     OW15234   0.633   7.458   7.241 -0.8327 -0.3720  0.3022
 4673SOL    HW115235   0.707   7.407   7.274  0.3012  2.1344  1.8949
 4673SOL    HW215236   0.629   7.435   7.148  1.2419 -1.4111  0.3948
 4674SOL     OW15237   0.468   8.768   5.954  0.1940  0.3345  0.5211
 4674SOL    HW115238   0.464   8.816   6.037  3.3077  0.6896  0.6042
 4674SOL    HW215239   0.539   8.811   5.906  0.9141 -2.1583 -0.7889
 4675SOL     OW15240   1.093   8.102   6.718  0.2173  0.3669  0.0360
 4675SOL    HW115241   1.070   8.012   6.743  1.2838  0.2672  0.7438
 4675SOL    HW215242   1.057   8.156   6.788 -1.4220  0.6219 -0.9724
 4676SOL     OW15243   8.661   8.228   6.188  0.6501 -0.4304 -0.0337
 4676SOL    HW115244   8.731   8.275   6.142 -0.4558  2.3724  0.9180
 4676SOL    HW215245   8.672   8.252   6.280 -0.7595 -1.0070  0.3162
 4677SOL     OW15246   0.289   7.914   7.369 -0.1118  0.1177  0.2820
 4677SOL    HW115247   0.356   7.912   7.438 -0.8883 -0.1611  1.0490
 4677SOL    HW215248   0.264   8.006   7.363 -0.0136  0.1487  0.3454
 4678SOL     OW15249   2.087   7.977   7.284  0.0848 -1.1146  0.0970
 4678SOL    HW115250   2.030   7.938   7.217  0.4510 -2.3061  0.4601
 4678SOL    HW215251   2.073   8.071   7.275 -1.2384 -1.3400 -0.4445
 4679SOL     OW15252   0.770   7.895   5.572 -0.3183  0.3981 -0.3085
 4679SOL    HW115253   0.682   7.934   5.563 -1.3759 -1.5612  0.8965
 4679SOL    HW215254   0.784   7.849   5.490 -0.0863  1.3004 -0.7877
 4680SOL     OW15255   1.597   7.286   7.149  0.2647 -0.0895  0.5919
 4680SOL    HW115256   1.573   7.376   7.128  0.1609 -0.1084  0.6289
 4680SOL    HW215257   1.668   7.265   7.088 -0.5392 -0.4042 -0.2646
 4681SOL     OW15258   0.973   7.652   6.582  0.3511  0.4223 -0.1480
 4681SOL    HW115259   0.894   7.601   6.595 -0.2168 -0.0089 -4.1168
 4681SOL    HW215260   0.943   7.742   6.571  1.0564  1.2689  3.4805
 4682SOL     OW15261   0.262   7.908   5.657  0.3787  0.1649  1.0680
 4682SOL    HW115262   0.330   7.910   5.591  0.8680  0.7118  1.5738
 4682SOL    HW215263   0.193   7.854   5.619  0.2262  1.2564 -0.3011
 4683SOL     OW15264   0.666   8.550   6.899  0.7227 -0.1246 -0.0904
 4683SOL    HW115265   0.663   8.517   6.989  0.5331 -0.3008 -0.1577
 4683SOL    HW215266   0.599   8.618   6.896 -0.2235 -1.0249 -0.4365
 4684SOL     OW15267   1.377   8.220   6.570  0.0983 -0.1601  0.6730
 4684SOL    HW115268   1.337   8.146   6.523 -1.1994 -0.1543  1.6955
 4684SOL    HW215269   1.323   8.295   6.546 -0.1910 -0.0444  1.6464
 4685SOL     OW15270   1.651   8.580   5.901  0.3683  0.1308 -0.1181
 4685SOL    HW115271   1.694   8.556   5.818  0.6377  2.4570 -0.7080
 4685SOL    HW215272   1.721   8.615   5.955 -0.1612  0.5565  0.3034
 4686SOL     OW15273   8.734   8.794   6.635 -0.0158  0.2713  0.4530
 4686SOL    HW115274   8.792   8.789   6.711  1.4053  0.7565 -0.5787
 4686SOL    HW215275   8.758   8.719   6.581 -0.4948  0.3598  0.1107
 4687SOL     OW15276   1.624   7.692   5.935  0.3926 -0.0729  0.4819
 4687SOL    HW115277   1.568   7.769   5.928  0.5722 -0.0597 -1.2540
 4687SOL    HW215278   1.705   7.725   5.975  0.1873  0.4983  0.4401
 4688SOL     OW15279   1.598   8.362   6.145 -0.0670 -0.2000  0.1670
 4688SOL    HW115280   1.671   8.340   6.203  0.5577  0.5635 -0.3052
 4688SOL    HW215281   1.600   8.458   6.140 -0.1277 -0.2533 -1.0808
 4689SOL     OW15282   0.781   8.308   6.795 -0.0107 -0.5308 -0.0076
 4689SOL    HW115283   0.728   8.376   6.836 -1.9486 -1.8259 -0.2576
 4689SOL    HW215284   0.863   8.352   6.773 -0.0156  0.9372  2.5462
 4690SOL     OW15285   1.752   7.437   6.601  0.4073  0.4005 -0.0864
 4690SOL    HW115286   1.818   7.448   6.669  0.2680 -1.3654  0.3918
 4690SOL    HW215287   1.772   7.351   6.563 -1.2126  0.1246 -0.3809
 4691SOL     OW15288   0.442   8.113   6.083  0.3511  0.3352 -0.4714
 4691SOL    HW115289   0.497   8.102   6.005  0.7367 -1.3273 -0.0147
 4691SOL    HW215290   0.480   8.052   6.147 -0.0728  1.5216  0.9609
 4692SOL     OW15291   1.149   8.437   7.004 -0.2491  0.0497  0.3960
 4692SOL    HW115292   1.218   8.495   6.969 -1.0416  0.4221 -0.6048
 4692SOL    HW215293   1.111   8.397   6.926 -0.1012 -1.4078  1.0418
 4693SOL     OW15294   0.975   8.505   5.296 -0.7839  0.3538 -0.2699
 4693SOL    HW115295   0.990   8.417   5.261 -1.0032  1.1472 -2.4762
 4693SOL    HW215296   1.019   8.563   5.235  1.0017  1.7396  2.1862
 4694SOL     OW15297   0.626   8.740   6.332 -0.1750  0.3020 -0.4453
 4694SOL    HW115298   0.566   8.692   6.389  0.9154 -0.5114  0.0552
 4694SOL    HW215299   0.701   8.681   6.321 -0.3431  0.4301 -2.7217
 4695SOL     OW15300   1.674   8.556   6.786  0.7619 -0.5062  0.3545
 4695SOL    HW115301   1.650   8.489   6.722  1.2214  0.1726 -0.5663
 4695SOL    HW215302   1.641   8.637   6.749  0.4477 -0.1834  1.3219
 4696SOL     OW15303   1.045   8.481   6.717  0.1383 -0.3414  0.6451
 4696SOL    HW115304   1.005   8.549   6.663 -1.1378 -0.8684  0.8884
 4696SOL    HW215305   1.043   8.403   6.662 -0.9276 -0.8171  1.3392
 4697SOL     OW15306   1.028   7.421   6.199  0.2385 -0.1159 -0.2803
 4697SOL    HW115307   1.068   7.440   6.284  0.6269 -0.8300 -0.2957
 4697SOL    HW215308   1.030   7.325   6.192 -1.7887 -0.2080 -0.1406
 4698SOL     OW15309   1.779   7.887   6.941  0.3304  0.4537 -0.3551
 4698SOL    HW115310   1.775   7.795   6.915 -0.3663  0.4139 -0.1311
 4698SOL    HW215311   1.799   7.934   6.859 -0.9030  0.2411 -0.7977
 4699SOL     OW15312   0.412   8.372   7.280 -0.1718  0.2970  0.0200
 4699SOL    HW115313   0.370   8.286   7.269  0.9975 -0.2357 -0.5448
 4699SOL    HW215314   0.358   8.417   7.344 -2.2826  0.1161 -1.5099
 4700SOL     OW15315   0.363   7.948   7.063  0.1579 -0.1995  0.2679
 4700SOL    HW115316   0.408   7.865   7.045  2.4944  0.9856  0.2561
 4700SOL    HW215317   0.307   7.930   7.138 -0.0706 -2.0047 -0.2973
 4701SOL     OW15318   0.186   7.696   5.052  0.2333  0.2602  0.0701
 4701SOL    HW115319   0.124   7.757   5.091  0.2285  1.0050 -1.0625
 4701SOL    HW215320   0.174   7.706   4.958  0.2401 -1.4856 -0.1606
 4702SOL     OW15321   1.244   8.437   7.282 -0.7129 -0.2915  0.0250
 4702SOL    HW115322   1.247   8.345   7.309  0.2907 -0.4328 -0.5223
 4702SOL    HW215323   1.214   8.433   7.191  0.6052 -0.1903 -0.4298
 4703SOL     OW15324   8.830   7.800   5.655  0.1709 -0.2543 -0.2859
 4703SOL    HW115325   8.753   7.746   5.634  0.3893 -2.0677  2.8065
 4703SOL    HW215326   8.803   7.848   5.734  1.6476  0.4101 -0.1643
 4704SOL     OW15327   0.582   7.800   6.980  0.7924  0.2183  0.2187
 4704SOL    HW115328   0.667   7.757   6.987  0.8376  0.2680 -0.0191
 4704SOL    HW215329   0.599   7.891   7.004  1.2938  0.8004 -2.1022
 4705SOL     OW15330   1.149   8.151   7.350 -0.1290  0.2028  0.3151
 4705SOL    HW115331   1.083   8.125   7.414  0.1062  0.5925  0.7219
 4705SOL    HW215332   1.208   8.076   7.343  1.2313  1.0053  2.3610
 4706SOL     OW15333   1.515   8.261   7.275 -0.0124 -0.0670 -0.0881
 4706SOL    HW115334   1.503   8.274   7.181  2.3862 -0.3640 -0.5248
 4706SOL    HW215335   1.566   8.180   7.281 -0.1523 -0.0713  1.4608
 4707SOL     OW15336   1.283   8.160   6.990  0.9149  0.2128 -0.1833
 4707SOL    HW115337   1.323   8.140   6.906 -0.7024  0.3791 -1.0418
 4707SOL    HW215338   1.325   8.241   7.019 -0.8871  2.1410 -2.5671
 4708SOL     OW15339   0.923   7.742   5.718 -0.1183  0.2273 -0.0594
 4708SOL    HW115340   1.005   7.781   5.746 -1.1620  0.9637  2.1901
 4708SOL    HW215341   0.883   7.808   5.662  0.9122 -0.2620 -1.4256
 4709SOL     OW15342   0.906   8.247   6.266  0.4207 -0.3564  0.1327
 4709SOL    HW115343   0.962   8.318   6.295  1.0054 -0.4907 -0.6220
 4709SOL    HW215344   0.853   8.224   6.343 -0.5376  1.5773  0.1110
 4710SOL     OW15345   2.468   7.797   7.371 -0.3567  0.1166 -0.5648
 4710SOL    HW115346   2.382   7.768   7.401  0.3612 -0.6462  0.8932
 4710SOL    HW215347   2.451   7.845   7.290 -2.1937  0.3665 -0.0767
 4711SOL     OW15348   1.738   8.263   6.967  0.1168 -0.3442 -0.5807
 4711SOL    HW115349   1.804   8.234   6.903 -1.0750 -1.6440 -1.2658
 4711SOL    HW215350   1.655   8.230   6.933 -0.6238 -0.6309  1.3761
 4712SOL     OW15351   0.575   0.118   5.286 -0.2042 -0.2937  0.0940
 4712SOL    HW115352   0.604   0.091   5.373 -1.3067 -2.0954 -0.0427
 4712SOL    HW215353   0.492   0.163   5.300 -0.1546 -0.1755  0.0127
 4713SOL     OW15354   1.290   8.390   6.087  0.0350  0.2894  0.4727
 4713SOL    HW115355   1.332   8.392   6.173 -0.0301  3.3563  0.5371
 4713SOL    HW215356   1.319   8.307   6.048 -0.7077 -1.6904  3.7462
 4714SOL     OW15357   0.998   8.303   5.101  0.5278 -0.3021 -0.5132
 4714SOL    HW115358   1.077   8.273   5.055 -0.6602 -3.4619 -0.7678
 4714SOL    HW215359   0.935   8.233   5.087 -2.0219  1.6288  0.5873
 4715SOL     OW15360   0.752   8.778   7.311  0.0722 -0.2637 -0.0571
 4715SOL    HW115361   0.701   8.704   7.278 -0.0567 -0.7101  1.0761
 4715SOL    HW215362   0.775   8.753   7.401  0.1509  1.0066  0.2992
 4716SOL     OW15363   0.298   8.779   6.418  0.3022  0.0784 -0.2486
 4716SOL    HW115364   0.346   8.724   6.479 -0.0017 -0.8210 -0.8004
 4716SOL    HW215365   0.238   8.719   6.374  1.9928  0.2247 -3.0071
 4717SOL     OW15366   1.136   8.744   6.955  0.3121  0.0440 -0.7387
 4717SOL    HW115367   1.060   8.722   6.902 -0.6008  0.2675  0.4481
 4717SOL    HW215368   1.105   8.741   7.045  0.8083  3.3575 -0.3206
 4718SOL     OW15369   1.848   7.324   7.009 -0.4004 -0.6867  0.3924
 4718SOL    HW115370   1.847   7.274   6.927  0.5888 -1.0161  0.5647
 4718SOL    HW215371   1.941   7.328   7.033 -0.8352 -2.3483  2.5628
 4719SOL     OW15372   0.543   8.110   5.626  0.1281 -0.6116 -0.4680
 4719SOL    HW115373   0.475   8.176   5.636  0.6449 -0.2178  0.6763
 4719SOL    HW215374   0.496   8.031   5.598 -0.7199 -0.1937 -0.2597
 4720SOL     OW15375   1.878   8.692   6.640  0.5386  0.0879 -0.3011
 4720SOL    HW115376   1.787   8.721   6.635  0.8751  1.0095 -1.3530
 4720SOL    HW215377   1.891   8.670   6.733 -0.4254  1.0404  0.0753
 4721SOL     OW15378   0.430   8.098   6.852 -0.0258  0.3662  0.8394
 4721SOL    HW115379   0.390   8.054   6.927 -2.1258  0.3686 -0.2114
 4721SOL    HW215380   0.524   8.098   6.872 -0.5295  0.7564  3.6488
 4722SOL     OW15381   1.612   7.997   7.168  0.5327  0.2453  0.3721
 4722SOL    HW115382   1.634   7.956   7.084  0.2369 -1.1254  0.9308
 4722SOL    HW215383   1.686   7.976   7.226  0.8523  1.3906  0.4123
 4723SOL     OW15384   1.183   7.278   6.727  0.2658 -0.0213  0.0494
 4723SOL    HW115385   1.191   7.222   6.804  1.4038 -0.4331 -0.3452
 4723SOL    HW215386   1.185   7.217   6.653  0.7577  0.4718 -0.3552
 4724SOL     OW15387   1.044   8.218   6.009 -0.1609 -0.2376  0.0364
 4724SOL    HW115388   0.993   8.143   6.036  1.3729 -1.8518 -1.2502
 4724SOL    HW215389   1.096   8.242   6.086 -0.4230 -0.7138  0.3598
 4725SOL     OW15390   1.074   7.525   5.567  0.0695  0.3487 -0.0661
 4725SOL    HW115391   1.043   7.558   5.651 -0.3122 -1.4030  0.5193
 4725SOL    HW215392   0.994   7.501   5.520  0.2519  1.6947 -1.1277
 4726SOL     OW15393   1.277   8.060   5.935 -0.1605  0.2864 -0.6696
 4726SOL    HW115394   1.308   8.084   6.022 -1.7933  0.4780 -0.0960
 4726SOL    HW215395   1.187   8.093   5.932 -0.4640 -0.5783 -2.0612
 4727SOL     OW15396   1.553   7.540   7.075 -0.3771  0.2806  0.1132
 4727SOL    HW115397   1.570   7.573   7.163  1.6586  1.6057 -0.7159
 4727SOL    HW215398   1.462   7.564   7.058 -0.2972  1.4826  1.2440
 4728SOL     OW15399   0.068   8.613   5.558 -0.4227 -0.0418 -0.4148
 4728SOL    HW115400   0.075   8.657   5.473  1.7557 -0.8497 -0.7286
 4728SOL    HW215401   0.066   8.520   5.536  0.1744 -0.2592  0.3966
 4729SOL     OW15402   0.057   7.790   7.321  0.0879  0.6157 -0.4375
 4729SOL    HW115403   0.051   7.706   7.367  0.9512  0.8318  0.0808
 4729SOL    HW215404   0.137   7.830   7.354  0.6651  0.8472 -2.0184
 4730SOL     OW15405   0.464   7.882   8.341 -0.1543  0.0523 -0.1787
 4730SOL    HW115406   0.427   7.913   8.424  1.2137  0.8415  0.1653
 4730SOL    HW215407   0.552   7.851   8.364 -0.6616 -2.0659 -0.9186
 4731SOL     OW15408   0.060   7.186   8.131  0.6145 -0.2399  0.1230
 4731SOL    HW115409   0.024   7.154   8.214  1.1781  0.1034  0.5036
 4731SOL    HW215410   0.139   7.135   8.117  1.4367  0.8360  0.6576
 4732SOL     OW15411   1.172   0.449   0.026 -0.0068 -0.5801  0.4044
 4732SOL    HW115412   1.209   0.374   0.073  1.4955 -0.3203 -0.3053
 4732SOL    HW215413   1.183   0.427  -0.067 -1.1537 -0.2349  0.1675
 4733SOL     OW15414   1.726   0.724   7.968 -0.7981 -0.4982  0.0288
 4733SOL    HW115415   1.673   0.804   7.958 -0.4339 -0.2337  0.1957
 4733SOL    HW215416   1.674   0.656   7.925 -1.0666 -0.1502 -0.2101
 4734SOL     OW15417   0.913   8.686   7.802  0.2396  0.0203  0.1493
 4734SOL    HW115418   0.971   8.624   7.848  1.7159  0.9393 -0.4076
 4734SOL    HW215419   0.869   8.734   7.873  0.7429 -0.1675  0.6029
 4735SOL     OW15420   1.432   8.256   7.895 -0.5142 -0.5373  0.2096
 4735SOL    HW115421   1.347   8.240   7.934  0.0218 -0.5485  1.4099
 4735SOL    HW215422   1.438   8.351   7.888 -0.0594 -0.4513  1.4825
 4736SOL     OW15423   0.935   0.089   8.450  0.3324 -0.8400 -0.3208
 4736SOL    HW115424   0.926   0.016   8.511  0.1082 -0.8253 -0.3336
 4736SOL    HW215425   1.006   0.063   8.392  0.2842 -1.0287 -0.2967
 4737SOL     OW15426   1.172   8.567   8.332 -0.0015  0.2813  0.6609
 4737SOL    HW115427   1.181   8.623   8.408  0.4455  0.0727  0.7689
 4737SOL    HW215428   1.092   8.517   8.348 -1.6576  2.3958 -0.4480
 4738SOL     OW15429   0.676   0.451   8.563 -0.2607  0.7808 -0.2532
 4738SOL    HW115430   0.583   0.469   8.546 -0.0939  0.3895 -1.7062
 4738SOL    HW215431   0.689   0.479   8.654 -1.8426  0.6629  0.0532
 4739SOL     OW15432   0.678   8.126   0.032  0.0102 -0.2300 -0.5937
 4739SOL    HW115433   0.630   8.209   0.030  0.9981  0.3582 -1.6269
 4739SOL    HW215434   0.730   8.131   0.113 -0.8012 -0.3755 -0.0532
 4740SOL     OW15435   1.943   8.250   8.209 -0.4055 -0.3657  0.2837
 4740SOL    HW115436   1.914   8.167   8.246 -0.0043 -0.2690  0.8378
 4740SOL    HW215437   1.907   8.316   8.268 -1.7802 -0.0509 -0.8429
 4741SOL     OW15438   0.724   8.705   8.341  0.1625 -0.2044 -0.0809
 4741SOL    HW115439   0.678   8.641   8.396 -0.8302  0.2225 -0.3996
 4741SOL    HW215440   0.812   8.711   8.380  0.1942 -1.5630  0.1068
 4742SOL     OW15441   0.775   8.645   7.564 -0.1939 -0.1281 -0.1318
 4742SOL    HW115442   0.835   8.660   7.637 -0.3774  3.4401 -0.5558
 4742SOL    HW215443   0.817   8.576   7.513  2.3947  0.5941  0.8334
 4743SOL     OW15444   0.620   8.567   7.989  0.3151 -0.3182  0.0972
 4743SOL    HW115445   0.627   8.555   7.894 -2.0283  0.4030 -0.2322
 4743SOL    HW215446   0.677   8.642   8.008  0.8892 -0.5386 -0.7145
 4744SOL     OW15447   2.437   0.080   8.521 -0.1731  0.0435 -0.3738
 4744SOL    HW115448   2.381   0.091   8.444 -1.8909  1.3848  0.9902
 4744SOL    HW215449   2.389   0.020   8.577  0.0992  0.6106  0.4884
 4745SOL     OW15450   2.288   0.027   7.984  0.0658  0.0010 -0.5006
 4745SOL    HW115451   2.196   0.007   7.972  0.3142 -0.7337 -1.2243
 4745SOL    HW215452   2.308   0.091   7.915  0.4704 -1.0443 -1.3804
 4746SOL     OW15453   1.195   0.024   8.298  0.2555 -0.2661  0.1270
 4746SOL    HW115454   1.173  -0.004   8.209  1.1323 -0.4447 -0.0467
 4746SOL    HW215455   1.251  -0.045   8.332  0.7609  0.2877  0.4447
 4747SOL     OW15456   1.402   7.562   8.004 -0.0049 -0.4978  0.0708
 4747SOL    HW115457   1.406   7.657   7.989  0.2330 -0.5810 -0.4157
 4747SOL    HW215458   1.347   7.529   7.933  0.5135 -0.8088 -0.1924
 4748SOL     OW15459   0.991   0.368   8.208 -0.3554 -0.2401  0.0809
 4748SOL    HW115460   0.900   0.396   8.208  0.0116  1.1550 -2.0399
 4748SOL    HW215461   1.039   0.445   8.240  0.2990  0.1213 -1.6730
 4749SOL     OW15462   1.684   8.644   7.724 -0.6062 -0.2482 -0.1789
 4749SOL    HW115463   1.695   8.714   7.659 -0.6744 -0.0562  0.0147
 4749SOL    HW215464   1.769   8.601   7.728 -0.4992 -0.0319 -0.1311
 4750SOL     OW15465   1.442   0.168   8.455  0.8306 -0.4580  0.4967
 4750SOL    HW115466   1.505   0.200   8.520  0.5743 -1.2255  1.1385
 4750SOL    HW215467   1.496   0.131   8.385  1.1321  1.3521 -0.2713
 4751SOL     OW15468   0.753   8.057   7.971  0.5405  0.3703 -0.0853
 4751SOL    HW115469   0.662   8.066   7.942 -1.1317 -2.2516  3.6270
 4751SOL    HW215470   0.769   8.136   8.023  0.8931  1.3590 -1.6054
 4752SOL     OW15471   1.618   8.206   8.499 -0.2094  0.6848  0.1354
 4752SOL    HW115472   1.579   8.118   8.494  0.0968  0.5824 -0.5957
 4752SOL    HW215473   1.544   8.266   8.490 -0.3738  0.5015  0.2511
 4753SOL     OW15474   1.152   7.996   8.744 -0.2194  0.2809  0.0119
 4753SOL    HW115475   1.080   7.934   8.756 -0.9949  1.2394  0.3768
 4753SOL    HW215476   1.109   8.080   8.730  0.8377  0.9523  0.6849
 4754SOL     OW15477   1.297   8.057   8.489  0.3735  0.3393  0.8348
 4754SOL    HW115478   1.379   8.012   8.471 -0.6373 -2.1458  1.9348
 4754SOL    HW215479   1.265   8.016   8.570 -2.2209  0.8050  0.1271
 4755SOL     OW15480   1.147   7.955   7.867 -0.3009 -0.1874 -0.7855
 4755SOL    HW115481   1.131   7.916   7.781 -2.2471  0.3660 -0.7230
 4755SOL    HW215482   1.077   7.919   7.923  0.2638  0.3228  0.2790
 4756SOL     OW15483   0.261   8.749   8.194  0.0127  0.0596 -0.3426
 4756SOL    HW115484   0.305   8.664   8.188 -0.5410 -0.1640 -1.4947
 4756SOL    HW215485   0.308   8.804   8.131  0.3162  0.5969  0.3391
 4757SOL     OW15486   1.638   7.723   7.792 -0.0234  0.1790 -0.3245
 4757SOL    HW115487   1.578   7.793   7.818 -0.3216 -0.2506  0.1562
 4757SOL    HW215488   1.693   7.708   7.868 -0.4068 -0.5700 -0.1862
 4758SOL     OW15489   1.990   0.182   8.056  0.2418 -0.1422 -0.4372
 4758SOL    HW115490   2.037   0.144   8.130 -3.2697 -0.7818  1.7230
 4758SOL    HW215491   1.983   0.275   8.077 -0.4102 -0.2556 -0.1088
 4759SOL     OW15492   0.780   8.342   8.018  0.0751 -0.4512  0.3989
 4759SOL    HW115493   0.704   8.382   7.977 -1.2657 -0.6074  2.5593
 4759SOL    HW215494   0.809   8.407   8.083  4.1001  1.2259 -2.6300
 4760SOL     OW15495   2.424   0.088   8.214 -0.0329  0.2786  0.1052
 4760SOL    HW115496   2.385   0.052   8.134  0.4280  0.6746 -0.3041
 4760SOL    HW215497   2.405   0.181   8.210  1.1817  0.5262 -0.2427
 4761SOL     OW15498   0.554   0.003   7.619 -0.0320 -0.1680 -0.4476
 4761SOL    HW115499   0.582   0.039   7.703  0.9716 -0.1632 -0.7663
 4761SOL    HW215500   0.634  -0.033   7.580 -0.2646  0.6769 -1.8091
 4762SOL     OW15501   1.578   0.082   8.223  0.1105  0.2153 -0.3897
 4762SOL    HW115502   1.607  -0.001   8.259  2.1264  1.7595  1.8869
 4762SOL    HW215503   1.634   0.096   8.146  1.2934  0.4030  0.4760
 4763SOL     OW15504   2.005   8.815   7.621 -0.2666  0.2440 -0.0182
 4763SOL    HW115505   1.965   8.728   7.626 -0.4044  0.3498  1.3154
 4763SOL    HW215506   1.972   8.853   7.540 -3.4963  0.6070  1.3072
 4764SOL     OW15507   1.634   8.086   8.080  0.8031  0.5831 -0.2929
 4764SOL    HW115508   1.681   8.036   8.147  0.1372 -0.7014 -0.7513
 4764SOL    HW215509   1.702   8.138   8.037  1.2852  1.2200  1.1750
 4765SOL     OW15510   0.554   8.548   7.720 -0.3877  0.2182 -0.7095
 4765SOL    HW115511   0.473   8.585   7.684 -0.5552 -0.9581 -1.5825
 4765SOL    HW215512   0.621   8.568   7.654 -0.4855 -1.0249 -1.2104
 4766SOL     OW15513   0.432   7.555   7.651 -0.1225  0.4112 -0.6119
 4766SOL    HW115514   0.470   7.518   7.571  0.5375 -0.2365 -0.0146
 4766SOL    HW215515   0.494   7.622   7.679  0.9151 -1.0190  0.6623
 4767SOL     OW15516   0.956   7.651   7.880  0.3629 -0.2587  0.1077
 4767SOL    HW115517   1.014   7.697   7.819  0.5383  0.1651  0.5888
 4767SOL    HW215518   0.980   7.684   7.966  1.1464 -1.9341  0.5872
 4768SOL     OW15519   0.869   7.989   8.303  0.0172 -0.8412 -0.3127
 4768SOL    HW115520   0.832   7.911   8.343  0.5927  0.2857  2.7122
 4768SOL    HW215521   0.807   8.059   8.323  1.3904  0.1705  0.6116
 4769SOL     OW15522   1.927   0.194   7.734 -0.0024  0.0788 -0.2621
 4769SOL    HW115523   1.942   0.103   7.709  0.0916  0.5070 -1.8319
 4769SOL    HW215524   1.967   0.202   7.821  2.2563 -0.7421 -1.1579
 4770SOL     OW15525   0.236   7.506   8.071  0.2513 -0.1872  0.2185
 4770SOL    HW115526   0.148   7.529   8.043  0.1276  0.6847  1.2689
 4770SOL    HW215527   0.229   7.495   8.166  1.0947 -0.9724  0.2054
 4771SOL     OW15528   1.755   7.686   8.042  0.4778 -0.2789 -0.6834
 4771SOL    HW115529   1.785   7.603   8.006  0.7283 -0.7153  0.4886
 4771SOL    HW215530   1.807   7.698   8.122 -1.8192 -0.6202  0.9438
 4772SOL     OW15531   2.108   0.074   8.287  0.0680 -0.2755 -0.0632
 4772SOL    HW115532   2.129   0.154   8.335 -0.0447 -0.6442  0.6244
 4772SOL    HW215533   2.192   0.030   8.275  0.4326  0.8606 -2.2010
 4773SOL     OW15534   1.000   0.105   8.083  0.4599 -0.6320  0.0038
 4773SOL    HW115535   1.026   0.148   8.002 -1.8137  2.1029  0.5803
 4773SOL    HW215536   0.984   0.176   8.145  1.1021 -2.5674  2.5843
 4774SOL     OW15537   1.124   7.811   7.632  0.0492 -0.1312  0.8545
 4774SOL    HW115538   1.034   7.791   7.608  0.6085 -2.1173  0.2076
 4774SOL    HW215539   1.171   7.814   7.548  0.8530 -0.6944  1.2682
 4775SOL     OW15540   1.091   8.162   8.285  0.2722 -0.5708  0.1412
 4775SOL    HW115541   1.154   8.106   8.330  0.0243 -0.5077  0.5843
 4775SOL    HW215542   1.012   8.109   8.279  0.1712 -0.4243  0.1729
 4776SOL     OW15543   0.960   8.376   8.387  0.3045 -0.4401  0.1163
 4776SOL    HW115544   0.873   8.336   8.390  0.9671 -1.9040  1.8802
 4776SOL    HW215545   1.018   8.303   8.365  1.3288  0.0165  1.2409
 4777SOL     OW15546   1.228   7.869   8.245  0.1773 -0.0784  0.6898
 4777SOL    HW115547   1.312   7.822   8.241  0.0483 -0.2998  0.4892
 4777SOL    HW215548   1.232   7.919   8.326 -0.2933 -1.6172  1.7150
 4778SOL     OW15549   1.228   0.110   8.625  0.2818  0.4832  0.0926
 4778SOL    HW115550   1.276   0.118   8.542  0.2980  2.2376  0.2446
 4778SOL    HW215551   1.292   0.130   8.692 -0.3457  1.6731  0.3633
 4779SOL     OW15552   1.690   8.691   8.303 -0.4238  0.0538  0.3601
 4779SOL    HW115553   1.784   8.708   8.303 -0.4700  0.3188  0.1031
 4779SOL    HW215554   1.680   8.607   8.348  0.2609 -1.6762 -2.4454
 4780SOL     OW15555   1.954   8.701   8.214 -0.2003 -0.4538 -0.1447
 4780SOL    HW115556   2.009   8.627   8.190 -1.5859 -1.5913  0.0561
 4780SOL    HW215557   2.016   8.773   8.229  1.2604 -1.7944  0.5525
 4781SOL     OW15558   2.304   0.339   8.269 -0.0101  0.0472 -0.0464
 4781SOL    HW115559   2.344   0.395   8.202 -0.2267 -1.2320 -1.3058
 4781SOL    HW215560   2.343   0.368   8.351  1.9213  0.2375 -0.9794
 4782SOL     OW15561   1.457   8.349   7.567  0.0717  0.6122 -0.3142
 4782SOL    HW115562   1.552   8.349   7.554  0.0520 -0.5841 -0.6079
 4782SOL    HW215563   1.421   8.331   7.480 -0.4387  1.2402 -0.2410
 4783SOL     OW15564   0.789   7.486   7.545  0.2434  0.1434  0.0730
 4783SOL    HW115565   0.792   7.415   7.481  0.1378  0.3264 -0.1345
 4783SOL    HW215566   0.873   7.481   7.590 -0.1338 -0.7278  0.7200
 4784SOL     OW15567   1.494   0.176   0.348  0.1852 -0.0140 -0.0743
 4784SOL    HW115568   1.473   0.254   0.296 -0.1896  0.5487  0.8931
 4784SOL    HW215569   1.482   0.103   0.288  0.2964  0.6567 -0.9334
 4785SOL     OW15570   1.305   0.440   8.587  0.1139  0.0447 -0.2752
 4785SOL    HW115571   1.318   0.490   8.507 -1.2732  1.3225  0.2484
 4785SOL    HW215572   1.218   0.402   8.578  0.9800 -2.0578 -0.4906
 4786SOL     OW15573   1.407   0.162   7.965  0.7922  0.4251  0.4758
 4786SOL    HW115574   1.431   0.186   8.054  0.3430  0.1440  0.6797
 4786SOL    HW215575   1.402   0.066   7.967  0.0394  0.4562  0.3489
 4787SOL     OW15576   2.025   8.755   8.718  0.2395  0.4888  0.3771
 4787SOL    HW115577   2.005   8.848   8.733 -0.8057  0.4496 -0.6419
 4787SOL    HW215578   1.957   8.708   8.767 -0.4470  0.3037 -0.7247
 4788SOL     OW15579   0.993   8.248   7.843 -0.2323  0.3496  0.5450
 4788SOL    HW115580   0.915   8.231   7.896  0.7130  0.5747  2.0810
 4788SOL    HW215581   1.058   8.185   7.875  0.4333  0.6444 -0.1994
 4789SOL     OW15582   0.559   8.218   8.602 -0.2356  0.0332 -0.0643
 4789SOL    HW115583   0.465   8.226   8.582 -0.3874  0.8370  0.9079
 4789SOL    HW215584   0.570   8.265   8.685  0.7640 -1.3564  0.6147
 4790SOL     OW15585   1.402   7.861   8.754 -0.3081 -0.5831 -0.1399
 4790SOL    HW115586   1.419   7.872   8.848 -0.4611 -1.4427 -0.0136
 4790SOL    HW215587   1.328   7.919   8.736 -0.0863 -0.1857  0.2057
 4791SOL     OW15588   0.424   0.704   0.015 -0.0294  0.3288  0.0857
 4791SOL    HW115589   0.369   0.773  -0.024  0.4476 -0.2577 -1.7408
 4791SOL    HW215590   0.481   0.750   0.076 -0.2843  1.4486 -0.4919
 4792SOL     OW15591   1.327   0.031   7.506 -0.0303  0.3047 -0.2055
 4792SOL    HW115592   1.297  -0.059   7.493  0.5305  0.1736 -0.6659
 4792SOL    HW215593   1.293   0.079   7.430 -0.4090  0.5015  0.0885
 4793SOL     OW15594   0.863   8.693   8.114  0.7125 -0.3494  0.0531
 4793SOL    HW115595   0.926   8.764   8.125 -0.9902  1.0468  1.3867
 4793SOL    HW215596   0.811   8.694   8.195 -0.6663 -1.8039 -0.7587
 4794SOL     OW15597   1.607   0.165   7.770  0.1150  0.0755 -0.4494
 4794SOL    HW115598   1.519   0.140   7.798 -0.8193  0.0627 -3.1944
 4794SOL    HW215599   1.662   0.143   7.846 -1.6457 -3.5143  0.0175
 4795SOL     OW15600   1.820   8.284   7.965 -0.0900 -0.1610 -0.2034
 4795SOL    HW115601   1.769   8.361   7.991  1.5299  0.1701  2.3068
 4795SOL    HW215602   1.877   8.267   8.040  0.2985 -3.2422 -1.0777
 4796SOL     OW15603   1.193   8.691   8.579 -0.6450 -0.2257 -0.2544
 4796SOL    HW115604   1.262   8.652   8.634 -1.6658 -1.1297  0.4216
 4796SOL    HW215605   1.213   8.785   8.580  0.7073 -0.4868 -0.2684
 4797SOL     OW15606   1.448   8.511   8.665  0.2792 -0.2481 -0.1377
 4797SOL    HW115607   1.398   8.474   8.738  0.0046 -0.7007 -0.5523
 4797SOL    HW215608   1.437   8.449   8.593 -0.0472  0.5462 -0.7922
 4798SOL     OW15609   1.474   7.907   7.931 -0.1046  0.0163 -0.0700
 4798SOL    HW115610   1.383   7.928   7.911 -0.1342 -0.5912 -0.6095
 4798SOL    HW215611   1.501   7.973   7.996 -0.5444  0.9473 -0.8152
 4799SOL     OW15612   0.651   7.552   0.053  0.2024  0.3426 -0.5447
 4799SOL    HW115613   0.717   7.585  -0.008 -0.5322  0.0902 -1.5156
 4799SOL    HW215614   0.572   7.603   0.033 -0.3277 -0.4397 -0.5148
 4800SOL     OW15615   0.577   0.104   8.605  0.8264  0.6266  0.0788
 4800SOL    HW115616   0.577   0.198   8.625 -0.4066  0.6080  0.2637
 4800SOL    HW215617   0.630   0.096   8.526 -0.1961  1.6789 -0.7468
 4801SOL     OW15618   0.932   8.154   8.698 -0.0037 -0.7465  0.3931
 4801SOL    HW115619   0.858   8.101   8.666 -0.7422  1.4794 -1.9342
 4801SOL    HW215620   0.893   8.211   8.764 -0.4260  0.4097 -0.8150
 4802SOL     OW15621   8.607   7.528   7.838 -0.1063  0.6441  0.1751
 4802SOL    HW115622   8.661   7.469   7.891 -1.4873  0.2682  1.2280
 4802SOL    HW215623   8.639   7.516   7.748  1.8007  0.7419  0.7838
 4803SOL     OW15624   1.628   8.081   7.728 -0.3514 -0.0779 -0.2203
 4803SOL    HW115625   1.614   8.014   7.794  0.2711  0.7620  0.7856
 4803SOL    HW215626   1.594   8.162   7.768  2.3009  0.9531  0.1417
 4804SOL     OW15627   1.106   8.354   8.652 -0.0986  0.1868  0.3190
 4804SOL    HW115628   1.046   8.282   8.672 -0.4281 -0.2961 -2.0780
 4804SOL    HW215629   1.117   8.350   8.557  2.3540  1.3763  0.4681
 4805SOL     OW15630   1.999   7.667   7.588  0.3019  0.6154  0.0994
 4805SOL    HW115631   1.922   7.614   7.567  0.6419  0.3750 -0.5957
 4805SOL    HW215632   1.963   7.749   7.622 -0.2457  0.2310  0.4646
 4806SOL     OW15633   1.276   7.859   7.400  0.1018  0.5162  0.1421
 4806SOL    HW115634   1.314   7.929   7.452  0.2057 -0.0086  0.7977
 4806SOL    HW215635   1.278   7.891   7.310  0.6572  1.1208  0.3656
 4807SOL     OW15636   0.945   8.645   8.531  0.3985  0.6487 -0.1073
 4807SOL    HW115637   1.038   8.644   8.550  0.3343  0.5311  0.2163
 4807SOL    HW215638   0.919   8.553   8.531 -0.2928  0.7368  2.8269
 4808SOL     OW15639   0.465   8.257   8.284  0.5345 -0.3517  0.2591
 4808SOL    HW115640   0.387   8.260   8.340  1.0192 -0.9883  0.9990
 4808SOL    HW215641   0.438   8.206   8.208 -0.0417  0.2394  0.0551
 4809SOL     OW15642   1.607   7.728   8.634 -0.2054 -0.2893 -0.0024
 4809SOL    HW115643   1.555   7.662   8.588 -0.3231 -0.1674 -0.0467
 4809SOL    HW215644   1.542   7.784   8.676 -0.0905 -0.7317  0.7940
 4810SOL     OW15645   0.282   8.676   7.633  0.5794 -0.0662  0.5799
 4810SOL    HW115646   0.305   8.768   7.644  0.0985  0.2249 -0.6503
 4810SOL    HW215647   0.192   8.670   7.663  0.6219 -0.1450  0.6925
 4811SOL     OW15648   1.293   8.381   0.007 -0.3239 -0.2911 -0.2169
 4811SOL    HW115649   1.279   8.297   0.051 -0.7483 -0.9531 -1.5755
 4811SOL    HW215650   1.227   8.384  -0.062  0.1184  0.8686 -0.6195
 4812SOL     OW15651   8.272   8.584   8.130 -0.3890  0.2767  0.3707
 4812SOL    HW115652   8.307   8.593   8.219 -0.3528  2.8626  0.1764
 4812SOL    HW215653   8.326   8.644   8.078 -0.2063 -1.4188 -1.4877
 4813SOL     OW15654   1.130   8.477   7.883  0.3224 -0.4804  0.2334
 4813SOL    HW115655   1.078   8.398   7.900  0.8138 -1.0096 -0.6353
 4813SOL    HW215656   1.194   8.480   7.954  1.4053 -1.8368 -0.6369
 4814SOL     OW15657   1.669   8.490   8.490  0.3192  0.3377  0.0082
 4814SOL    HW115658   1.675   8.397   8.513  0.5854  0.5167  0.6779
 4814SOL    HW215659   1.619   8.530   8.561  0.3072  0.7348 -0.2168
 4815SOL     OW15660   0.717   8.264   8.402  0.8874 -0.2606 -0.3025
 4815SOL    HW115661   0.648   8.256   8.337 -0.0778 -1.1072  0.7918
 4815SOL    HW215662   0.672   8.257   8.486  2.1188  0.6671  0.4728
 4816SOL     OW15663   0.841   7.972   7.732  0.3931 -0.0318 -0.6516
 4816SOL    HW115664   0.783   7.897   7.726 -1.3648  1.2357 -0.3353
 4816SOL    HW215665   0.816   8.016   7.813  1.1550  1.0603 -0.9733
 4817SOL     OW15666   0.674   0.125   8.346 -0.2060  0.4485  0.5970
 4817SOL    HW115667   0.769   0.122   8.336 -0.3047  0.7695 -0.4876
 4817SOL    HW215668   0.645   0.036   8.325 -0.4095  1.0973 -2.2549
 4818SOL     OW15669   1.450   8.795   8.728  0.1665  0.3329 -0.2407
 4818SOL    HW115670   1.493   8.710   8.721 -1.8729 -0.7441 -0.5569
 4818SOL    HW215671   1.476   8.841   8.648  0.7095 -0.2809 -0.4333
 4819SOL     OW15672   1.750   0.071   7.993  0.0887  0.1590 -0.3475
 4819SOL    HW115673   1.831   0.117   8.011  0.3318 -0.1636 -0.6037
 4819SOL    HW215674   1.775  -0.022   7.989 -0.4937 -0.0757  0.7857
 4820SOL     OW15675   8.652   8.616   8.080  0.3131  0.4878 -0.3196
 4820SOL    HW115676   8.675   8.527   8.107 -0.9854  0.2558  0.0554
 4820SOL    HW215677   8.724   8.670   8.113 -0.6122  0.0634  2.6367
 4821SOL     OW15678   2.132   7.939   8.231  0.1773  0.2477  0.2375
 4821SOL    HW115679   2.220   7.977   8.221 -0.3190  1.1265 -1.2699
 4821SOL    HW215680   2.106   7.961   8.320  1.6280 -0.3873  0.8574
 4822SOL     OW15681   1.674   8.506   8.031  0.2357 -0.2820 -0.1693
 4822SOL    HW115682   1.653   8.579   8.090 -2.1434 -1.8214  1.0612
 4822SOL    HW215683   1.631   8.529   7.949  0.1469  0.0521 -0.0333
 4823SOL     OW15684   1.020   8.722   0.047 -0.1484  0.3046 -0.3211
 4823SOL    HW115685   1.014   8.817   0.040 -1.1384  0.8009  4.3410
 4823SOL    HW215686   0.930   8.693   0.061  0.4371 -0.9661  1.0497
 4824SOL     OW15687   1.966   7.720   8.254 -0.0962 -0.1378  0.2882
 4824SOL    HW115688   2.043   7.772   8.230  0.7176 -1.2109  0.4932
 4824SOL    HW215689   1.972   7.711   8.349  0.3576 -1.4669  0.1489
 4825SOL     OW15690   0.728   7.810   8.423 -0.1454  0.0790 -0.1670
 4825SOL    HW115691   0.715   7.868   8.498  2.3406  0.8681 -0.2684
 4825SOL    HW215692   0.755   7.727   8.461 -2.8998 -0.8846 -0.0689
 4826SOL     OW15693   0.996   0.174   8.815  0.1187 -0.4447  0.0987
 4826SOL    HW115694   1.044   0.199   8.737 -0.5092 -0.1429 -0.1965
 4826SOL    HW215695   0.911   0.218   8.807 -0.2426 -1.0295  0.5678
 4827SOL     OW15696   1.161   8.422   7.610 -0.7445  0.1729 -0.2727
 4827SOL    HW115697   1.254   8.400   7.599 -1.2057 -1.6843 -0.9100
 4827SOL    HW215698   1.149   8.423   7.705 -0.0153  0.6771 -0.1785
 4828SOL     OW15699   0.699   0.002   0.079  0.4183  0.3955 -0.0223
 4828SOL    HW115700   0.758   0.025   0.151 -0.0282 -1.8138  1.1140
 4828SOL    HW215701   0.741  -0.072   0.036 -0.9834 -0.5178  0.1236
 4829SOL     OW15702   1.842   8.405   8.773 -0.0619 -0.2157  0.4623
 4829SOL    HW115703   1.837   8.486   8.823  0.7311  0.8011 -1.0317
 4829SOL    HW215704   1.783   8.345   8.819 -0.4800  1.1185  1.7453
 4830SOL     OW15705   1.295   8.483   8.112 -0.3620 -0.6161 -0.1348
 4830SOL    HW115706   1.234   8.495   8.185  1.4244 -1.0630  1.5181
 4830SOL    HW215707   1.329   8.394   8.123  0.5167 -0.4191 -1.0719
 4831SOL     OW15708   1.536   7.951   8.432 -0.0043 -0.0787  0.2573
 4831SOL    HW115709   1.571   7.897   8.502 -2.8865 -1.8851  0.4811
 4831SOL    HW215710   1.541   7.896   8.354  1.2920  1.1640 -0.6162
 4832SOL     OW15711   1.482   7.433   8.703 -0.2730 -0.4075  0.0231
 4832SOL    HW115712   1.437   7.503   8.750 -0.1906 -0.0075 -0.4888
 4832SOL    HW215713   1.574   7.440   8.731 -0.1283  0.1442 -0.5529
 4833SOL     OW15714   0.933   7.833   8.795  0.3786 -0.0591 -0.4414
 4833SOL    HW115715   0.891   7.823   8.880  0.5757  0.0712 -0.3289
 4833SOL    HW215716   0.893   7.764   8.741  0.9771 -0.8011  0.0391
 4834SOL     OW15717   0.637   7.720   7.339  0.8421 -0.1816 -0.3420
 4834SOL    HW115718   0.646   7.626   7.325  3.4983 -0.0843  0.1805
 4834SOL    HW215719   0.679   7.760   7.263 -1.2036  0.6521 -1.0966
 4835SOL     OW15720   0.421   7.748   8.089 -0.4308  0.2456  0.3571
 4835SOL    HW115721   0.417   7.802   8.168 -1.2788  2.1587 -0.8972
 4835SOL    HW215722   0.339   7.698   8.091 -1.0951  1.2710  0.0880
 4836SOL     OW15723   0.789   8.649   8.777  0.4113  0.5126  0.2463
 4836SOL    HW115724   0.698   8.670   8.757  0.2315  0.3107  0.8120
 4836SOL    HW215725   0.834   8.650   8.693 -0.4707 -1.1331 -0.2923
 4837SOL     OW15726   2.279   8.707   8.634 -0.0662 -0.2674 -0.3761
 4837SOL    HW115727   2.186   8.713   8.657 -0.5102 -1.4162 -1.7419
 4837SOL    HW215728   2.286   8.626   8.584  2.0033 -1.1393  1.1679
 4838SOL     OW15729   1.213   8.182   8.044  0.3773  0.5767 -0.1847
 4838SOL    HW115730   1.222   8.096   8.003 -0.6445  0.5757 -0.4438
 4838SOL    HW215731   1.150   8.168   8.115 -1.2414  1.4681 -1.3870
 4839SOL     OW15732   0.660   0.085   7.901 -0.0682  0.6934 -0.5538
 4839SOL    HW115733   0.629   0.175   7.914 -0.5679  0.4635 -0.1100
 4839SOL    HW215734   0.747   0.095   7.862  0.0124  1.3757 -0.2157
 4840SOL     OW15735   2.171   0.068   0.173  0.0268 -0.0496  0.5003
 4840SOL    HW115736   2.143   0.141   0.118  0.9917  0.7259  0.9942
 4840SOL    HW215737   2.226   0.014   0.116 -1.4440 -0.9273 -0.1307
 4841SOL     OW15738   1.613   0.401   7.374 -0.0383 -0.1695 -0.1713
 4841SOL    HW115739   1.602   0.310   7.345  0.3574 -0.0810 -0.6216
 4841SOL    HW215740   1.680   0.396   7.442  0.9319 -0.0720 -1.0869
 4842SOL     OW15741   1.359   8.322   8.483 -0.1019  0.0149 -0.2313
 4842SOL    HW115742   1.382   8.340   8.391 -0.6087 -0.7257 -0.5099
 4842SOL    HW215743   1.298   8.249   8.479 -1.6217  1.1889  0.5811
 4843SOL     OW15744   1.039   8.778   7.201 -0.3212  0.1740  0.3207
 4843SOL    HW115745   0.945   8.770   7.213 -0.2085 -2.7456  0.0272
 4843SOL    HW215746   1.077   8.739   7.280  0.8205  4.5040  2.1787
 4844SOL     OW15747   8.715   0.131   7.293  0.1359  0.3660  0.2872
 4844SOL    HW115748   8.715   0.056   7.354  0.3625  0.2660  0.1661
 4844SOL    HW215749   8.630   0.173   7.307  0.5108  0.8332  1.2800
 4845SOL     OW15750   2.103   7.502   8.554 -0.2648 -0.0795 -0.4967
 4845SOL    HW115751   2.181   7.556   8.551  0.1954 -0.7626 -1.7849
 4845SOL    HW215752   2.031   7.562   8.537  0.2741  0.1222 -2.3759
 4846SOL     OW15753   0.501   7.895   7.527 -0.2157 -0.0217 -0.6953
 4846SOL    HW115754   0.525   7.862   7.441  1.6049  1.8266 -0.9823
 4846SOL    HW215755   0.550   7.840   7.588  0.8173  0.5041 -1.0282
 4847SOL     OW15756   1.937   0.169   8.636  0.4780  0.0831 -0.5163
 4847SOL    HW115757   1.909   0.247   8.588  0.7572  0.8352  0.4916
 4847SOL    HW215758   1.993   0.204   8.706  0.0905 -0.9686  0.3407
 4848SOL     OW15759   0.400   8.505   8.153  0.1630  0.2175  0.3761
 4848SOL    HW115760   0.466   8.544   8.095  0.0379 -1.0344 -0.6584
 4848SOL    HW215761   0.432   8.416   8.170 -1.9792 -1.0372 -1.5060
 4849SOL     OW15762   1.872   7.726   8.519 -0.5437  0.5058 -0.1562
 4849SOL    HW115763   1.783   7.698   8.541  0.0495  1.0333  3.7811
 4849SOL    HW215764   1.877   7.816   8.553  1.1523  0.9321 -1.4218
 4850SOL     OW15765   0.620   7.477   8.566  0.3789 -0.1959 -0.4277
 4850SOL    HW115766   0.555   7.410   8.586 -1.2573  1.7912  1.3719
 4850SOL    HW215767   0.629   7.473   8.471 -1.7281 -1.1554 -0.6531
 4851SOL     OW15768   1.597   0.149   7.231  0.5623 -0.0600 -0.5659
 4851SOL    HW115769   1.657   0.108   7.168  0.2572  1.1177 -1.6680
 4851SOL    HW215770   1.584   0.082   7.298  0.5636 -1.5464 -1.9694
 4852SOL     OW15771   1.716   7.216   7.490  0.2625 -0.4756  0.0707
 4852SOL    HW115772   1.747   7.280   7.554  1.0154 -0.8082  0.0435
 4852SOL    HW215773   1.733   7.257   7.405 -0.3565 -0.2099  0.0704
 4853SOL     OW15774   1.444   8.240   8.233  0.3684  0.5491  0.0996
 4853SOL    HW115775   1.374   8.189   8.191  0.4245 -1.5045  2.2556
 4853SOL    HW215776   1.524   8.210   8.191  0.0755  2.8478 -2.3223
 4854SOL     OW15777   1.857   7.988   8.225  0.2628  0.0263  0.3208
 4854SOL    HW115778   1.946   7.968   8.197  0.2355  0.0333  0.2304
 4854SOL    HW215779   1.827   7.909   8.269  1.1390  0.7786  2.3969
 4855SOL     OW15780   8.796   8.245   7.903  0.4394 -1.1104  0.2228
 4855SOL    HW115781   8.801   8.305   7.829 -0.1998  1.9262  2.4609
 4855SOL    HW215782   8.724   8.185   7.881 -2.1319  1.9065 -0.2248
 4856SOL     OW15783   2.581   0.539   8.762 -0.7624  0.2350 -0.2675
 4856SOL    HW115784   2.518   0.595   8.716 -0.4289  0.1194 -0.8733
 4856SOL    HW215785   2.580   0.572   8.852 -1.7324  0.1909 -0.2524
 4857SOL     OW15786   2.320   8.817   1.030 -0.2701 -0.7760 -0.2881
 4857SOL    HW115787   2.261   8.868   0.974  0.5628 -1.6335 -2.0623
 4857SOL    HW215788   2.342   8.876   1.102  1.0269  1.6557 -2.4608
 4858SOL     OW15789   1.776   0.468   1.208 -0.1943 -0.1359 -0.4267
 4858SOL    HW115790   1.718   0.426   1.271  0.4553 -0.6556 -0.1629
 4858SOL    HW215791   1.718   0.498   1.138 -0.6935 -1.3680 -0.5670
 4859SOL     OW15792   2.591   1.151   2.082 -0.3394  0.0994  0.5955
 4859SOL    HW115793   2.633   1.146   1.996  0.7023 -1.4094  1.1374
 4859SOL    HW215794   2.662   1.178   2.141 -0.8921  0.5374  1.0662
 4860SOL     OW15795   3.736   1.452   0.903  0.6219 -0.6261  0.6651
 4860SOL    HW115796   3.709   1.528   0.954 -0.2087 -0.1803 -0.3974
 4860SOL    HW215797   3.790   1.487   0.833  0.7713 -1.0872  0.5430
 4861SOL     OW15798   3.188   0.695   0.372 -0.0986  0.5945 -0.0634
 4861SOL    HW115799   3.256   0.627   0.374  0.9546  1.6190 -0.2672
 4861SOL    HW215800   3.145   0.683   0.287  0.7328  0.8000 -0.5233
 4862SOL     OW15801   3.786   0.529   0.041 -0.1358 -0.8697 -0.0654
 4862SOL    HW115802   3.784   0.553   0.133 -1.0404 -1.2507  0.0162
 4862SOL    HW215803   3.766   0.436   0.039 -0.1348 -0.8649 -0.6496
 4863SOL     OW15804   2.698   0.947   1.611 -0.0836  0.1626  0.0725
 4863SOL    HW115805   2.662   0.978   1.529  1.1448  2.5143  0.3354
 4863SOL    HW215806   2.779   0.903   1.586  0.2440  0.7974 -0.0102
 4864SOL     OW15807   2.811   1.218   2.254  0.6309 -0.0610  0.4064
 4864SOL    HW115808   2.831   1.303   2.292  1.7069 -0.2407  0.2744
 4864SOL    HW215809   2.836   1.155   2.321  0.7237 -0.3094  0.1394
 4865SOL     OW15810   2.565   0.792   1.173  0.1236 -0.3603  0.8668
 4865SOL    HW115811   2.660   0.778   1.168  0.7755  3.3231  0.0938
 4865SOL    HW215812   2.532   0.767   1.087  0.7806  0.2908  0.4077
 4866SOL     OW15813   2.822   0.836   2.103  0.1360 -0.8085 -0.4030
 4866SOL    HW115814   2.728   0.852   2.106  0.2918  0.0451  1.7674
 4866SOL    HW215815   2.852   0.881   2.023 -1.1659 -0.3864 -0.6734
 4867SOL     OW15816   2.502   1.433   1.310 -0.2295  0.4047  0.8247
 4867SOL    HW115817   2.544   1.517   1.294 -0.8627  0.8610  1.5367
 4867SOL    HW215818   2.471   1.438   1.401 -1.9066  0.1178  0.2956
 4868SOL     OW15819   3.499   1.289   1.530  0.5948 -0.0052  0.1502
 4868SOL    HW115820   3.532   1.245   1.452  0.7303  0.6393 -0.1625
 4868SOL    HW215821   3.485   1.380   1.503 -2.3603 -0.4070 -0.0368
 4869SOL     OW15822   2.532   8.624   1.074  0.3751 -0.2629 -0.3397
 4869SOL    HW115823   2.549   8.581   0.990 -2.1208 -0.1879 -0.9418
 4869SOL    HW215824   2.483   8.703   1.051 -1.2591 -0.7633  1.2358
 4870SOL     OW15825   3.388   0.309   0.963  0.3939  0.0794 -0.5412
 4870SOL    HW115826   3.346   0.232   1.002 -0.5909  0.1346 -1.4663
 4870SOL    HW215827   3.464   0.326   1.020 -0.7575 -0.0814  1.1274
 4871SOL     OW15828   2.238   1.932   0.531  0.1377 -0.1565 -0.2292
 4871SOL    HW115829   2.268   1.939   0.622 -1.2430  0.9003  0.1645
 4871SOL    HW215830   2.144   1.917   0.538 -0.4485  2.4446 -1.4792
 4872SOL     OW15831   2.753   1.622   1.600  0.2544  0.2579 -0.3639
 4872SOL    HW115832   2.674   1.576   1.573  0.2800  0.2368 -0.4034
 4872SOL    HW215833   2.754   1.614   1.695 -0.7371  1.7857 -0.1943
 4873SOL     OW15834   1.974   1.685   0.421  0.1242 -0.7654  0.1179
 4873SOL    HW115835   1.954   1.772   0.386 -0.3310 -0.4839  1.0653
 4873SOL    HW215836   1.893   1.657   0.464  0.7017 -1.0525  1.0464
 4874SOL     OW15837   2.501   1.131   0.693 -0.0801  0.9518 -0.0745
 4874SOL    HW115838   2.423   1.161   0.739 -1.3038  0.0809 -1.4905
 4874SOL    HW215839   2.550   1.211   0.675  0.5151  1.3309  2.7303
 4875SOL     OW15840   2.107   1.743   1.100  0.1617  0.3204 -0.3386
 4875SOL    HW115841   2.089   1.815   1.039  1.7773 -0.6744 -2.1044
 4875SOL    HW215842   2.198   1.719   1.081  0.7225 -0.0760  2.4829
 4876SOL     OW15843   2.641   1.146   0.223  0.7576  0.2373 -0.3067
 4876SOL    HW115844   2.591   1.210   0.273 -0.7380 -1.1605  0.1008
 4876SOL    HW215845   2.729   1.148   0.260  0.1071  0.3951  1.2973
 4877SOL     OW15846   3.281   8.723   1.538  0.0209 -0.3326 -0.6473
 4877SOL    HW115847   3.336   8.774   1.597 -0.4841 -2.7439  2.1667
 4877SOL    HW215848   3.266   8.781   1.463 -0.0666  3.3861  1.9607
 4878SOL     OW15849   2.518   0.449   0.966 -0.4482 -0.1243  0.4942
 4878SOL    HW115850   2.428   0.430   0.940 -0.1996  1.3530 -1.6892
 4878SOL    HW215851   2.571   0.389   0.913 -0.0649  0.4889  0.1783
 4879SOL     OW15852   3.498   1.956   0.156 -0.3062 -0.3919  0.5975
 4879SOL    HW115853   3.551   2.012   0.098  0.4717 -1.7248 -0.0228
 4879SOL    HW215854   3.408   1.971   0.127  0.0424 -0.8294 -0.8249
 4880SOL     OW15855   1.768   1.514   0.183  0.4695 -0.1122 -0.0814
 4880SOL    HW115856   1.681   1.554   0.184 -0.1419 -1.4051  1.6131
 4880SOL    HW215857   1.765   1.454   0.108  0.4799  0.9689 -0.9868
 4881SOL     OW15858   3.665   0.935   0.858 -0.9315 -0.2788  0.3108
 4881SOL    HW115859   3.647   1.021   0.895 -0.4404  0.1774 -0.4948
 4881SOL    HW215860   3.674   0.950   0.764 -0.3470 -1.1322  0.2202
 4882SOL     OW15861   3.915   1.371   0.070 -0.0067  0.4746  0.2005
 4882SOL    HW115862   3.911   1.438   0.138 -1.4742  1.7128 -1.0279
 4882SOL    HW215863   3.975   1.305   0.105 -1.2891  0.6424  3.0298
 4883SOL     OW15864   2.077   0.623   1.628 -0.8651  0.1679  0.0498
 4883SOL    HW115865   2.079   0.717   1.642  0.5594  0.5981 -2.4715
 4883SOL    HW215866   2.109   0.585   1.710  0.1740  1.9780  0.5231
 4884SOL     OW15867   2.861   1.457   0.660  0.1859 -0.3854 -0.1604
 4884SOL    HW115868   2.885   1.528   0.600 -0.0351 -0.0043  0.1971
 4884SOL    HW215869   2.945   1.422   0.691  0.2965 -0.3701 -0.4397
 4885SOL     OW15870   2.872   1.416   1.419  0.4351 -0.3124  0.7784
 4885SOL    HW115871   2.828   1.496   1.447  0.7082 -0.4784  1.6986
 4885SOL    HW215872   2.952   1.413   1.471  1.9832  0.3932 -1.3948
 4886SOL     OW15873   3.402   0.103   0.749  0.1812 -0.3083  0.1922
 4886SOL    HW115874   3.334   0.167   0.730 -1.0590 -1.7495 -0.4625
 4886SOL    HW215875   3.434   0.127   0.836  0.1271  1.4782 -0.2428
 4887SOL     OW15876   2.311   0.759   1.257  0.0939  0.1891  0.3721
 4887SOL    HW115877   2.402   0.761   1.226  0.9585  1.5642  2.7364
 4887SOL    HW215878   2.312   0.698   1.330 -1.1664 -0.5389 -0.1796
 4888SOL     OW15879   3.017   1.174   0.080 -0.7320 -0.3219 -0.5759
 4888SOL    HW115880   3.081   1.219   0.025  0.8629  1.5848  2.5162
 4888SOL    HW215881   3.064   1.098   0.114 -0.6365  0.1558  0.3975
 4889SOL     OW15882   3.051   1.866   1.759 -0.0491  0.2632  0.1062
 4889SOL    HW115883   3.034   1.802   1.828 -1.7378 -0.1792 -0.6591
 4889SOL    HW215884   3.138   1.845   1.727 -0.6927 -1.9324 -0.3629
 4890SOL     OW15885   2.108   0.282   1.781 -0.2427  0.0691  0.2099
 4890SOL    HW115886   2.158   0.245   1.708 -1.0238  1.3339 -1.0329
 4890SOL    HW215887   2.173   0.301   1.848  0.4461 -1.4895  0.0400
 4891SOL     OW15888   3.591   1.481   1.362 -0.3020  0.4585  0.3176
 4891SOL    HW115889   3.687   1.482   1.364 -0.2766  1.4812 -0.6283
 4891SOL    HW215890   3.568   1.513   1.275 -1.5092 -1.1929 -0.0017
 4892SOL     OW15891   3.647   1.681   8.745 -0.3472 -0.3222 -0.6062
 4892SOL    HW115892   3.716   1.722   8.692 -0.9384 -0.7747 -1.7584
 4892SOL    HW215893   3.645   1.734   8.825  1.0004 -0.0076 -0.7439
 4893SOL     OW15894   2.520   0.876   0.547  0.4285 -0.7231 -0.4196
 4893SOL    HW115895   2.613   0.892   0.568  0.7764 -0.7347 -1.8639
 4893SOL    HW215896   2.473   0.944   0.595  1.3499  0.4739 -1.1647
 4894SOL     OW15897   3.614   0.050   1.144  0.1960 -0.8788  0.1695
 4894SOL    HW115898   3.561   0.029   1.221  0.6768 -0.2626  0.6684
 4894SOL    HW215899   3.603   0.144   1.132 -0.7477 -1.1124 -1.1769
 4895SOL     OW15900   3.551   1.747   0.325  0.3872  0.2128  0.3073
 4895SOL    HW115901   3.559   1.811   0.253  2.5886  0.1683  0.4364
 4895SOL    HW215902   3.497   1.677   0.288  2.1678 -0.2350 -1.6999
 4896SOL     OW15903   2.923   0.608   1.403 -0.4666 -0.6823  0.1340
 4896SOL    HW115904   2.833   0.614   1.369 -0.6844  0.2255  0.8270
 4896SOL    HW215905   2.977   0.594   1.325 -0.9233  1.6050 -0.6924
 4897SOL     OW15906   3.423   0.716   2.109  0.1148  0.0250 -0.0794
 4897SOL    HW115907   3.386   0.804   2.111 -2.1138 -0.8474  0.7854
 4897SOL    HW215908   3.488   0.719   2.039  0.4863  2.4704  0.2752
 4898SOL     OW15909   2.960   0.784   1.612 -0.0517  0.0373 -0.0273
 4898SOL    HW115910   2.928   0.705   1.569  2.2097 -0.6893 -0.5209
 4898SOL    HW215911   2.981   0.844   1.539  2.4271 -0.6526  0.0238
 4899SOL     OW15912   3.187   0.708   1.782 -0.3335  0.8809 -0.1169
 4899SOL    HW115913   3.200   0.624   1.739 -3.8308  0.3878 -0.5113
 4899SOL    HW215914   3.101   0.738   1.751  0.0953  3.8613  1.2231
 4900SOL     OW15915   2.972   0.692   0.536 -0.0154 -0.1251  0.0273
 4900SOL    HW115916   2.974   0.669   0.629 -2.5629 -3.6917 -0.5508
 4900SOL    HW215917   3.062   0.682   0.506  0.5042 -0.9784  1.7451
 4901SOL     OW15918   1.763   0.896   1.090 -0.2682 -0.0194 -0.2602
 4901SOL    HW115919   1.794   0.822   1.143  0.8376  0.7594  0.2262
 4901SOL    HW215920   1.784   0.974   1.142 -2.7291  0.6163 -0.0946
 4902SOL     OW15921   1.889   1.667   1.452  0.3342 -0.2387 -0.3583
 4902SOL    HW115922   1.828   1.686   1.523  2.7627  0.0149  1.7692
 4902SOL    HW215923   1.889   1.746   1.399 -1.9471 -0.6451 -1.1099
 4903SOL     OW15924   2.850   0.677   0.259  0.8203 -0.0955 -0.2347
 4903SOL    HW115925   2.908   0.715   0.325  0.4994 -0.4930  0.2787
 4903SOL    HW215926   2.864   0.582   0.266 -0.9097 -0.2995  0.8592
 4904SOL     OW15927   3.683   0.725   1.937 -0.3517 -0.0403 -0.3965
 4904SOL    HW115928   3.653   0.730   1.846 -1.2239 -0.4574 -0.1392
 4904SOL    HW215929   3.778   0.710   1.930 -0.0445  1.9769 -1.2260
 4905SOL     OW15930   3.404   1.012   0.249 -0.8597 -0.2280  0.1098
 4905SOL    HW115931   3.351   0.997   0.171 -1.7935  0.9232  0.5069
 4905SOL    HW215932   3.351   0.979   0.322  0.1568 -1.6397  0.2598
 4906SOL     OW15933   3.259   8.669   1.059  0.2331 -0.3041 -0.0283
 4906SOL    HW115934   3.173   8.642   1.028  0.6979  0.4525 -2.1377
 4906SOL    HW215935   3.306   8.587   1.073 -0.1202 -0.7035 -1.0638
 4907SOL     OW15936   3.572   1.176   0.876 -0.2727  0.2304 -0.5625
 4907SOL    HW115937   3.638   1.244   0.889  0.3323 -0.2735 -0.9680
 4907SOL    HW215938   3.497   1.206   0.927  0.0529  1.1066 -0.5833
 4908SOL     OW15939   2.515   1.968   0.991  0.1914 -0.3812  0.3760
 4908SOL    HW115940   2.585   1.971   0.926  1.5146  1.9692  1.7786
 4908SOL    HW215941   2.457   2.041   0.968  0.1983 -0.0670  1.3330
 4909SOL     OW15942   3.787   1.277   1.138  0.2632  0.4745  0.1618
 4909SOL    HW115943   3.858   1.234   1.090 -0.9952 -0.7550 -0.6727
 4909SOL    HW215944   3.781   1.364   1.099  1.2634  0.5854  0.2213
 4910SOL     OW15945   3.803   1.455   1.636  0.3873 -0.2533  0.0051
 4910SOL    HW115946   3.823   1.483   1.546  0.8664 -0.3275  0.0879
 4910SOL    HW215947   3.854   1.514   1.691 -1.5588  1.2260  0.3251
 4911SOL     OW15948   2.370   1.025   0.355  0.1214 -0.1864  0.0352
 4911SOL    HW115949   2.400   1.113   0.376  1.5908 -1.0155  1.5832
 4911SOL    HW215950   2.423   0.967   0.410  0.9912 -2.2331 -2.7361
 4912SOL     OW15951   3.566   0.695   0.959 -0.4622  0.5228  0.1952
 4912SOL    HW115952   3.635   0.642   0.919 -0.7228  0.0330  0.3861
 4912SOL    HW215953   3.587   0.785   0.934  0.7790  0.4885  1.0314
 4913SOL     OW15954   2.535   1.107   2.352 -0.3648  0.2482 -0.3218
 4913SOL    HW115955   2.531   1.118   2.257  0.7443 -0.3253 -0.4427
 4913SOL    HW215956   2.577   1.186   2.384 -0.2782  0.2146 -0.3532
 4914SOL     OW15957   3.125   2.032   8.748 -0.2210  0.0899  0.6312
 4914SOL    HW115958   3.192   2.084   8.703  0.5525  0.7096  2.4018
 4914SOL    HW215959   3.042   2.068   8.717  0.2856  0.5104 -0.2698
 4915SOL     OW15960   1.861   0.140   1.600 -0.5051  0.5808  0.2622
 4915SOL    HW115961   1.796   0.199   1.638 -0.8552  2.4142 -2.8748
 4915SOL    HW215962   1.940   0.155   1.653 -1.8276  0.2925  2.4490
 4916SOL     OW15963   3.519   0.840   8.606  0.4201  0.2074  0.2504
 4916SOL    HW115964   3.576   0.791   8.546 -1.3982 -1.6509 -0.0507
 4916SOL    HW215965   3.501   0.779   8.678 -1.7322  0.4711  0.0015
 4917SOL     OW15966   2.592   2.142   0.618  0.0075  0.3107  0.5149
 4917SOL    HW115967   2.515   2.089   0.597 -0.1025  0.6686 -0.0031
 4917SOL    HW215968   2.596   2.207   0.548  1.1693 -0.1202  0.1631
 4918SOL     OW15969   3.603   8.788   0.400 -0.0119  0.1887  0.0903
 4918SOL    HW115970   3.697   8.773   0.394  0.3860  2.5931 -1.9208
 4918SOL    HW215971   3.595   8.883   0.410 -2.2414  0.0190  0.4856
 4919SOL     OW15972   1.985   1.897   1.301  0.1605 -0.3280 -0.5492
 4919SOL    HW115973   2.024   1.840   1.234  0.9843 -0.6877  0.2123
 4919SOL    HW215974   1.913   1.941   1.256  1.4101  0.3137 -1.9977
 4920SOL     OW15975   2.544   1.693   0.699  0.6210  0.5101  0.5785
 4920SOL    HW115976   2.617   1.742   0.660 -0.8176  0.9335 -1.7998
 4920SOL    HW215977   2.508   1.643   0.626 -0.6053 -0.8018  2.0175
 4921SOL     OW15978   2.450   1.302   0.357 -0.2744 -0.0853  0.5996
 4921SOL    HW115979   2.364   1.333   0.387  0.2250  0.9149  1.0422
 4921SOL    HW215980   2.512   1.342   0.417  0.4125 -2.3136  1.4533
 4922SOL     OW15981   3.446   8.848   1.698 -0.0349  0.1789 -0.4947
 4922SOL    HW115982   3.536   8.848   1.729  0.0830  0.1841 -0.8366
 4922SOL    HW215983   3.426   8.940   1.682 -0.1177  0.1827 -0.3748
 4923SOL     OW15984   2.586   0.639   0.195  0.1207  0.1450  0.5896
 4923SOL    HW115985   2.676   0.669   0.207 -0.1002  0.6502  0.9685
 4923SOL    HW215986   2.534   0.719   0.185 -0.3466 -0.1277  0.7742
 4924SOL     OW15987   2.783   0.184   1.975 -0.0166  0.4143 -0.1697
 4924SOL    HW115988   2.853   0.220   1.921  1.5757 -0.0656  1.4628
 4924SOL    HW215989   2.804   0.213   2.064 -1.3651 -0.5426  0.4943
 4925SOL     OW15990   2.889   1.434   1.086  0.3832 -0.3486  0.2494
 4925SOL    HW115991   2.880   1.529   1.095  0.8024 -0.2592 -0.2036
 4925SOL    HW215992   2.813   1.398   1.132 -0.1793  0.2330 -0.2060
 4926SOL     OW15993   3.712   0.405   1.311  0.5927 -0.0649  0.7309
 4926SOL    HW115994   3.704   0.351   1.390 -0.3654 -0.6466  0.2516
 4926SOL    HW215995   3.716   0.495   1.343  1.2562 -0.3486  1.4870
 4927SOL     OW15996   3.431   1.299   1.098  0.0760  0.6744 -0.2413
 4927SOL    HW115997   3.453   1.392   1.097  1.4035  0.3966  0.6326
 4927SOL    HW215998   3.336   1.297   1.097 -0.0866  2.1271  2.7637
 4928SOL     OW15999   2.953   8.840   1.221 -0.3908  0.1648 -0.3463
 4928SOL    HW116000   2.947   8.754   1.262 -1.0124  0.8808  1.1474
 4928SOL    HW216001   2.864   8.873   1.219 -0.0111  1.2839  0.2631
 4929SOL     OW16002   2.764   0.123   0.710 -0.4970  0.3796 -0.0597
 4929SOL    HW116003   2.793   0.154   0.624  0.1643 -0.4480 -0.1414
 4929SOL    HW216004   2.731   0.034   0.693 -0.1440  0.1265  0.5870
 4930SOL     OW16005   2.919   1.977   0.188  0.0049  0.0081  0.1672
 4930SOL    HW116006   2.836   1.930   0.179  0.3077 -0.1891 -2.3770
 4930SOL    HW216007   2.986   1.912   0.170  0.6000  0.6667 -0.0714
 4931SOL     OW16008   2.318   0.425   0.290 -0.0945 -0.1533 -0.2370
 4931SOL    HW116009   2.250   0.397   0.352  0.4365  0.4480  0.6354
 4931SOL    HW216010   2.335   0.347   0.237 -1.8327 -0.1796 -0.8308
 4932SOL     OW16011   3.263   0.071   1.022  0.3102 -0.1082 -0.4637
 4932SOL    HW116012   3.194   0.078   0.956 -1.6049 -0.2892  1.3904
 4932SOL    HW216013   3.276  -0.023   1.033  0.0442 -0.0980 -0.0363
 4933SOL     OW16014   3.083   1.081   1.699 -0.1366 -0.2314 -0.5374
 4933SOL    HW116015   3.157   1.020   1.699 -1.6797 -2.2517 -0.9533
 4933SOL    HW216016   3.084   1.120   1.612  1.0173  0.5570 -0.1875
 4934SOL     OW16017   3.458   1.215   0.596  1.4752  0.2331  0.3409
 4934SOL    HW116018   3.465   1.177   0.683 -0.3643  1.5196  1.1098
 4934SOL    HW216019   3.454   1.310   0.611 -3.1235  0.4373 -0.6328
 4935SOL     OW16020   2.676   0.980   0.904 -0.6659  0.0880  0.3053
 4935SOL    HW116021   2.719   0.933   0.832 -0.7723  1.1823 -0.5122
 4935SOL    HW216022   2.628   1.051   0.860 -0.2612  1.1409  1.4969
 4936SOL     OW16023   3.422   1.733   0.706  0.5620 -0.2864  0.4091
 4936SOL    HW116024   3.483   1.777   0.764 -0.0090 -0.0056  0.8007
 4936SOL    HW216025   3.371   1.803   0.666  1.4925 -0.4098 -1.0739
 4937SOL     OW16026   3.166   0.234   0.625  0.5196 -0.1107  0.4536
 4937SOL    HW116027   3.194   0.177   0.554 -0.0651 -0.6375  0.6385
 4937SOL    HW216028   3.075   0.255   0.606  0.3051 -0.3883  1.1137
 4938SOL     OW16029   2.032   0.350   1.326 -0.2395 -0.2276  0.2321
 4938SOL    HW116030   1.992   0.394   1.251 -0.4626 -0.3560  0.2758
 4938SOL    HW216031   1.984   0.268   1.334 -0.0457 -0.3295  0.3592
 4939SOL     OW16032   2.493   0.164   0.692 -0.5265 -0.0262 -0.2728
 4939SOL    HW116033   2.448   0.081   0.673 -0.9481 -0.2759  1.6046
 4939SOL    HW216034   2.586   0.141   0.697 -0.5305 -0.1677 -0.8756
 4940SOL     OW16035   3.254   0.490   0.774  0.1969  0.2235  0.3772
 4940SOL    HW116036   3.303   0.448   0.844  0.3954  0.5084  0.4128
 4940SOL    HW216037   3.263   0.430   0.699 -0.6854 -0.4714  0.8136
 4941SOL     OW16038   2.888   8.454   0.650  0.2820 -0.3941 -0.1357
 4941SOL    HW116039   2.962   8.440   0.591  1.6934 -0.5486  1.5850
 4941SOL    HW216040   2.900   8.389   0.720 -1.5054 -0.4333  0.1857
 4942SOL     OW16041   3.856   1.209   0.460 -0.1664 -0.1563  0.4760
 4942SOL    HW116042   3.909   1.131   0.477  0.1674  0.0006  0.1798
 4942SOL    HW216043   3.772   1.175   0.429 -1.0433 -0.4881  2.9529
 4943SOL     OW16044   3.338   0.627   1.125  0.2038  0.2516 -0.1761
 4943SOL    HW116045   3.358   0.573   1.202  0.0381  0.3562 -0.0592
 4943SOL    HW216046   3.414   0.616   1.068 -0.4325 -1.2428 -0.8029
 4944SOL     OW16047   3.662   0.885   0.586 -0.4183 -0.6386 -0.5094
 4944SOL    HW116048   3.660   0.974   0.550 -1.4724 -0.2916  0.3649
 4944SOL    HW216049   3.573   0.852   0.573 -0.5864 -0.8138  0.9795
 4945SOL     OW16050   2.793   1.608   0.412  0.3115 -0.1762  0.0502
 4945SOL    HW116051   2.736   1.555   0.467  1.1646 -0.1837  0.9562
 4945SOL    HW216052   2.799   1.692   0.458 -1.0418  0.7648 -1.3734
 4946SOL     OW16053   3.726   1.447   0.526 -0.2486  0.2010  0.5915
 4946SOL    HW116054   3.773   1.364   0.520  0.3869  0.5323  0.8676
 4946SOL    HW216055   3.643   1.432   0.481  0.5121 -0.1145 -0.7386
 4947SOL     OW16056   3.201   0.643   0.061  0.3945 -0.0735 -0.2818
 4947SOL    HW116057   3.155   0.591  -0.004  0.7465 -2.1341  1.0079
 4947SOL    HW216058   3.287   0.659   0.023 -0.7409  2.4576 -2.0425
 4948SOL     OW16059   3.687   1.236   1.774 -0.2713 -0.0174  0.0762
 4948SOL    HW116060   3.702   1.295   1.699 -1.1608 -0.7947 -0.7442
 4948SOL    HW216061   3.646   1.292   1.840  1.3768  0.8988  0.3709
 4949SOL     OW16062   2.860   1.676   1.223  0.1355 -0.5223  0.5997
 4949SOL    HW116063   2.925   1.732   1.180 -2.0516  1.0731 -0.8439
 4949SOL    HW216064   2.782   1.732   1.231 -1.6642 -2.8886  0.5324
 4950SOL     OW16065   3.868   1.524   1.344 -0.1517  0.3039  0.6813
 4950SOL    HW116066   3.863   1.568   1.260 -2.7201 -0.5259  0.3279
 4950SOL    HW216067   3.962   1.512   1.359  0.3921 -1.2482 -2.9586
 4951SOL     OW16068   3.114   1.317   1.487 -0.4316 -0.4628 -0.1531
 4951SOL    HW116069   3.112   1.231   1.444 -1.2341 -0.9524  0.8208
 4951SOL    HW216070   3.208   1.338   1.494 -0.2399 -1.0847 -0.7281
 4952SOL     OW16071   3.582   1.172   1.287 -0.2767  0.3516  0.3767
 4952SOL    HW116072   3.529   1.198   1.212  0.4940  0.6036 -0.0958
 4952SOL    HW216073   3.671   1.200   1.264  0.1940 -0.7171  0.8173
 4953SOL     OW16074   2.977   8.600   1.326  0.1280  0.2685 -0.0238
 4953SOL    HW116075   3.029   8.528   1.290 -0.7198 -1.7357  2.5045
 4953SOL    HW216076   2.889   8.564   1.335 -0.6428  2.0750  0.1257
 4954SOL     OW16077   2.993   1.313   1.874  0.8336 -0.5040  0.0428
 4954SOL    HW116078   3.020   1.249   1.808  0.5115 -0.0822 -0.5050
 4954SOL    HW216079   3.047   1.390   1.857  1.1317 -0.5780  0.6201
 4955SOL     OW16080   3.056   0.685   0.795  0.2504 -0.2376 -0.0088
 4955SOL    HW116081   3.100   0.734   0.864  1.2369  1.8923 -2.0028
 4955SOL    HW216082   3.121   0.620   0.767  0.2981 -0.3131  0.2767
 4956SOL     OW16083   2.237   0.512   1.437  0.0175 -0.0180 -1.1706
 4956SOL    HW116084   2.175   0.563   1.489 -0.3797 -0.9074 -0.7570
 4956SOL    HW216085   2.182   0.452   1.387  0.4949 -0.2004 -1.4799
 4957SOL     OW16086   3.183   0.313   1.416  0.0420 -0.1442  0.3980
 4957SOL    HW116087   3.238   0.235   1.421  4.0742  2.3880  0.0842
 4957SOL    HW216088   3.161   0.320   1.323  1.6276  0.2276  0.0167
 4958SOL     OW16089   2.087   1.501   0.809 -0.0285 -0.6102  0.0466
 4958SOL    HW116090   2.155   1.436   0.827 -0.0083 -0.8049 -0.7208
 4958SOL    HW216091   2.106   1.532   0.720  2.0270  2.8907  1.4934
 4959SOL     OW16092   2.675   1.323   0.534 -0.6650 -0.1499 -0.0984
 4959SOL    HW116093   2.722   1.264   0.474 -0.9210 -1.9952  1.4368
 4959SOL    HW216094   2.744   1.365   0.586 -0.4962  0.8325 -1.0612
 4960SOL     OW16095   2.758   0.299   0.927  0.4871 -0.4489  0.3450
 4960SOL    HW116096   2.725   0.249   1.002  1.5092 -2.2402 -0.3244
 4960SOL    HW216097   2.765   0.234   0.857  0.4583  0.9854 -1.0219
 4961SOL     OW16098   3.273   1.348   0.270 -0.9588  0.0973 -0.8717
 4961SOL    HW116099   3.184   1.374   0.297 -1.5897 -2.2800 -0.4700
 4961SOL    HW216100   3.266   1.336   0.175 -1.1660 -0.4440 -0.7891
 4962SOL     OW16101   3.336   1.543   1.467  0.2552 -0.0079 -0.2236
 4962SOL    HW116102   3.428   1.553   1.440  0.5129  1.1329  0.9667
 4962SOL    HW216103   3.288   1.602   1.408  0.2643 -0.6529 -0.8893
 4963SOL     OW16104   3.448   0.698   0.660  0.1569 -0.2322  0.3210
 4963SOL    HW116105   3.403   0.766   0.710  0.1815 -0.8921  1.2720
 4963SOL    HW216106   3.474   0.633   0.726 -1.1277 -1.8896 -0.7225
 4964SOL     OW16107   2.619   1.209   1.664  0.5922  0.0367  0.3766
 4964SOL    HW116108   2.669   1.247   1.737 -0.3664 -0.1159  1.1431
 4964SOL    HW216109   2.671   1.134   1.637  1.7099  0.9426 -0.1014
 4965SOL     OW16110   2.351   1.070   1.422  0.2652  0.6007 -0.1893
 4965SOL    HW116111   2.309   0.990   1.391 -0.4171  0.9862 -0.2847
 4965SOL    HW216112   2.445   1.051   1.419  0.0770 -0.6437  1.0477
 4966SOL     OW16113   3.310   0.937   1.673 -0.5402 -0.5054  0.5281
 4966SOL    HW116114   3.403   0.934   1.695 -0.1380 -1.5858 -1.0888
 4966SOL    HW216115   3.278   0.849   1.690 -1.1914 -0.2385  0.7253
 4967SOL     OW16116   2.792   8.373   1.682  0.3932  0.1615 -0.6934
 4967SOL    HW116117   2.802   8.288   1.725 -0.5449 -0.0733 -0.9168
 4967SOL    HW216118   2.794   8.352   1.588 -0.8818  0.2325 -0.7559
 4968SOL     OW16119   2.213   8.616   1.540  0.3404 -0.8768  0.0744
 4968SOL    HW116120   2.215   8.632   1.635 -3.8327 -0.1594  0.2283
 4968SOL    HW216121   2.276   8.546   1.526  4.6700  2.1003  2.5340
 4969SOL     OW16122   2.446   0.354   1.572 -0.3768  0.1922  0.1259
 4969SOL    HW116123   2.499   0.424   1.610 -1.1029  0.4383  0.6922
 4969SOL    HW216124   2.364   0.396   1.547 -0.5998 -0.3391 -0.0520
 4970SOL     OW16125   2.983   0.964   1.398  0.4419  0.0412 -0.1576
 4970SOL    HW116126   3.049   1.032   1.388  1.9657 -1.5782 -1.9847
 4970SOL    HW216127   2.951   0.948   1.310  0.6147 -2.0097  0.0907
 4971SOL     OW16128   3.315   0.360   0.298 -0.5800 -0.5485 -0.2452
 4971SOL    HW116129   3.220   0.373   0.294 -0.5613 -0.0622  0.7234
 4971SOL    HW216130   3.352   0.435   0.252 -0.6429 -0.1514  0.3397
 4972SOL     OW16131   2.169   0.590   1.108 -0.1666  0.4720  0.2668
 4972SOL    HW116132   2.226   0.630   1.174  1.4226 -2.4730  0.8537
 4972SOL    HW216133   2.084   0.631   1.122  0.5289  1.2141  2.9772
 4973SOL     OW16134   2.358   1.428   1.058  0.1810  0.1031  0.8121
 4973SOL    HW116135   2.405   1.501   1.018  1.4034 -0.6876  0.7365
 4973SOL    HW216136   2.411   1.406   1.135 -0.7078 -0.0762  1.3791
 4974SOL     OW16137   2.501   0.370   1.283 -1.3201  0.0581 -0.0071
 4974SOL    HW116138   2.515   0.326   1.366 -0.0113 -0.4895 -0.4994
 4974SOL    HW216139   2.570   0.436   1.279 -0.1467 -1.1896 -1.4833
 4975SOL     OW16140   3.093   1.145   2.105 -0.2715 -0.0547  0.0396
 4975SOL    HW116141   3.034   1.199   2.051 -0.1078  1.3770  1.2186
 4975SOL    HW216142   3.049   1.138   2.189  0.1637 -0.9926  0.2032
 4976SOL     OW16143   2.456   0.410   0.608  0.4250 -0.4807  0.0833
 4976SOL    HW116144   2.366   0.408   0.641  0.9858 -1.8083  1.6958
 4976SOL    HW216145   2.491   0.323   0.629  1.5720 -0.6135 -2.0874
 4977SOL     OW16146   3.455   0.616   0.371  0.4602  0.1522  0.1342
 4977SOL    HW116147   3.500   0.679   0.315 -2.2013  0.5773 -1.7657
 4977SOL    HW216148   3.468   0.648   0.460  1.9587  1.4726 -0.5211
 4978SOL     OW16149   3.093   0.582   1.183 -0.0047  0.4907  0.0161
 4978SOL    HW116150   3.186   0.587   1.161  0.8098  1.0898  3.1407
 4978SOL    HW216151   3.066   0.494   1.157  1.7856 -0.1521  0.2469
 4979SOL     OW16152   2.653   1.852   1.232 -0.4269 -0.8082 -0.4002
 4979SOL    HW116153   2.631   1.932   1.279  0.5545 -0.4446 -0.5358
 4979SOL    HW216154   2.636   1.873   1.140  0.0044 -0.6796 -0.4559
 4980SOL     OW16155   3.997   1.702   1.986  0.1036 -0.0339 -0.2292
 4980SOL    HW116156   3.932   1.736   2.048 -0.3705  2.2370 -1.8468
 4980SOL    HW216157   4.079   1.745   2.011  0.6480 -1.4877  0.6558
 4981SOL     OW16158   2.570   0.869   2.020  0.4825 -0.3323  0.2278
 4981SOL    HW116159   2.512   0.871   1.943  1.5679  0.9878 -0.6121
 4981SOL    HW216160   2.549   0.950   2.067 -0.7978 -1.5502  1.8596
 4982SOL     OW16161   3.773   8.839   8.748  0.1335 -0.2798 -0.4394
 4982SOL    HW116162   3.786   8.746   8.728 -0.0437 -0.8241  1.7051
 4982SOL    HW216163   3.850   8.882   8.713  1.5136 -1.6407  0.7456
 4983SOL     OW16164   3.000   0.673   8.489 -0.3718  0.2134 -0.3201
 4983SOL    HW116165   3.039   0.605   8.434 -1.1066  0.1974 -0.8401
 4983SOL    HW216166   3.065   0.744   8.490  0.7677 -0.8056  0.9060
 4984SOL     OW16167   3.246   1.500   0.903  0.1149  0.3424 -0.0893
 4984SOL    HW116168   3.314   1.469   0.843  2.3110  0.1754  2.2904
 4984SOL    HW216169   3.241   1.594   0.887  0.4146  0.2497 -0.7710
 4985SOL     OW16170   2.726   0.525   1.189  0.9808 -0.1388  0.2604
 4985SOL    HW116171   2.654   0.510   1.128  0.4758  0.7721  0.6236
 4985SOL    HW216172   2.785   0.584   1.142  0.2106  1.1916  0.9205
 4986SOL     OW16173   2.519   0.714   0.889 -0.1690 -0.2554  0.2594
 4986SOL    HW116174   2.535   0.620   0.902  1.7849 -0.3652 -2.0663
 4986SOL    HW216175   2.599   0.745   0.845 -1.3701  2.2009 -0.3405
 4987SOL     OW16176   3.030   0.220   1.895 -0.4249  0.2110  0.2381
 4987SOL    HW116177   3.059   0.134   1.865 -0.4558  0.0695  0.6118
 4987SOL    HW216178   3.106   0.256   1.941 -0.8085 -0.1342  1.1669
 4988SOL     OW16179   3.223   0.011   1.299 -0.0132 -0.0177  0.4414
 4988SOL    HW116180   3.259   0.033   1.213 -1.6230 -0.0231 -0.2614
 4988SOL    HW216181   3.133  -0.016   1.281  0.2655 -2.1221  1.8681
 4989SOL     OW16182   2.072   1.945   0.937  0.2075  0.1221 -0.4722
 4989SOL    HW116183   2.139   2.004   0.971  1.0136 -1.5334  0.9623
 4989SOL    HW216184   2.113   1.903   0.862  0.2242  0.2042 -0.5092
 4990SOL     OW16185   2.377   1.728   1.038  1.1703  0.2275 -0.2273
 4990SOL    HW116186   2.467   1.697   1.026  0.8370 -1.0533  0.4373
 4990SOL    HW216187   2.387   1.815   1.077  2.1395 -0.3019  0.7780
 4991SOL     OW16188   2.787   0.336   1.502  0.3564 -0.6502 -0.1529
 4991SOL    HW116189   2.835   0.359   1.582 -0.2253 -1.5516  0.4843
 4991SOL    HW216190   2.843   0.365   1.431 -0.2896  2.7291  0.5167
 4992SOL     OW16191   1.185   0.368   1.169  0.0032  0.0472 -0.1234
 4992SOL    HW116192   1.181   0.422   1.248 -0.7435  1.3689 -1.0337
 4992SOL    HW216193   1.276   0.340   1.164 -0.1446 -0.9251  1.7464
 4993SOL     OW16194   2.019   1.070   1.513  0.0185 -0.2029  0.0330
 4993SOL    HW116195   2.058   1.156   1.496 -1.4279  0.1014 -2.1847
 4993SOL    HW216196   2.088   1.021   1.558  0.8563  2.1046  1.4446
 4994SOL     OW16197   3.489   1.158   2.106 -0.3650 -0.5076  0.8775
 4994SOL    HW116198   3.433   1.085   2.078 -0.2805 -0.0671 -0.4883
 4994SOL    HW216199   3.428   1.222   2.142 -0.8464  0.2103 -1.1173
 4995SOL     OW16200   2.798   0.917   0.652 -0.2121  0.0679 -0.1495
 4995SOL    HW116201   2.865   0.854   0.622 -1.4492 -2.2225  1.5469
 4995SOL    HW216202   2.848   0.995   0.675  1.6753 -0.9640 -0.5065
 4996SOL     OW16203   3.727   0.471   0.820  0.1555 -0.1467  0.2014
 4996SOL    HW116204   3.776   0.396   0.855 -0.0546  0.6179  2.2818
 4996SOL    HW216205   3.659   0.431   0.765 -0.4355 -1.5847  1.8761
 4997SOL     OW16206   2.337   1.366   2.355  0.3558 -0.2057  0.1240
 4997SOL    HW116207   2.290   1.318   2.423  0.0520 -0.0398  0.0305
 4997SOL    HW216208   2.315   1.321   2.274  0.0369  0.1172  0.0313
 4998SOL     OW16209   2.679   0.174   1.190  0.2217  0.2485  0.5888
 4998SOL    HW116210   2.668   0.133   1.276  0.0300 -1.0337 -0.0189
 4998SOL    HW216211   2.607   0.237   1.185 -0.2148 -0.1931  1.0804
 4999SOL     OW16212   2.325   1.736   1.705  0.0333 -0.0477 -0.0991
 4999SOL    HW116213   2.263   1.727   1.633 -1.9850 -0.5316  1.6254
 4999SOL    HW216214   2.312   1.824   1.739 -0.5291 -0.5258  0.9685
 5000SOL     OW16215   2.331   0.676   0.482 -0.5218  0.0538  0.2996
 5000SOL    HW116216   2.253   0.690   0.536 -0.3864 -0.7172  0.7080
 5000SOL    HW216217   2.397   0.735   0.519 -1.5471  2.5677 -1.5452
 5001SOL     OW16218   2.147   1.265   1.388  0.0103  0.0400 -0.5247
 5001SOL    HW116219   2.242   1.257   1.399  0.0013 -0.3726 -0.7268
 5001SOL    HW216220   2.137   1.329   1.318  0.1878 -1.1405 -1.6675
 5002SOL     OW16221   2.889   0.743   1.127 -0.2158  0.1420 -0.3612
 5002SOL    HW116222   2.975   0.702   1.129  0.3190  1.1836 -0.9780
 5002SOL    HW216223   2.906   0.835   1.146 -1.2472  0.2973 -0.1205
 5003SOL     OW16224   3.275   0.936   0.509 -0.0651  0.2267  0.2226
 5003SOL    HW116225   3.291   0.957   0.601 -2.7046 -0.4307  0.9113
 5003SOL    HW216226   3.274   0.840   0.507 -0.3841  0.2431 -0.4268
 5004SOL     OW16227   3.882   1.619   1.086  0.6277 -0.0694  0.0147
 5004SOL    HW116228   3.895   1.580   0.999  0.0844 -2.5488  0.9742
 5004SOL    HW216229   3.933   1.701   1.082  3.0627 -1.5094 -1.6832
 5005SOL     OW16230   3.237   1.668   1.149 -0.5051 -0.2413 -0.2614
 5005SOL    HW116231   3.220   1.590   1.096 -1.0096  0.0991 -0.6148
 5005SOL    HW216232   3.187   1.654   1.229 -1.2859  0.0873 -0.6777
 5006SOL     OW16233   2.285   1.248   0.813 -0.0145 -0.0230 -0.1991
 5006SOL    HW116234   2.308   1.311   0.882  3.6059 -1.7411  0.4144
 5006SOL    HW216235   2.215   1.196   0.850  0.8068  0.0773  1.6217
 5007SOL     OW16236   2.326   1.243   2.073  0.0073  0.1257  0.5140
 5007SOL    HW116237   2.341   1.315   2.012 -1.0335 -2.0767 -2.6325
 5007SOL    HW216238   2.412   1.201   2.082  0.2220  0.6220  0.8339
 5008SOL     OW16239   2.885   0.324   0.538  0.1386  0.1443  0.4461
 5008SOL    HW116240   2.928   0.351   0.456  2.7314  2.4114  2.3512
 5008SOL    HW216241   2.803   0.373   0.539  0.0226  0.0175 -0.8155
 5009SOL     OW16242   3.842   0.249   0.423  0.0654  0.3573 -0.1560
 5009SOL    HW116243   3.878   0.262   0.335 -0.8268 -2.1420 -0.9885
 5009SOL    HW216244   3.914   0.210   0.473 -0.6426 -2.5917 -1.2030
 5010SOL     OW16245   3.029   1.462   0.382 -0.2788  0.2541  0.0276
 5010SOL    HW116246   3.064   1.532   0.437  0.6408  0.1680 -0.4355
 5010SOL    HW216247   2.946   1.496   0.349 -0.8505  0.3098  1.4514
 5011SOL     OW16248   2.080   1.736   2.421  0.1730 -0.2933 -0.5584
 5011SOL    HW116249   2.173   1.712   2.416  0.3449 -0.0098  0.8235
 5011SOL    HW216250   2.038   1.661   2.462 -0.1027 -0.1417 -0.5658
 5012SOL     OW16251   3.239   0.965   0.782 -0.0188  0.0662  0.1373
 5012SOL    HW116252   3.237   0.957   0.877 -0.4568  1.5920  0.2850
 5012SOL    HW216253   3.150   0.992   0.758  0.2009  0.1229 -0.6523
 5013SOL     OW16254   2.779   1.157   1.889 -0.0681  0.0196  0.3035
 5013SOL    HW116255   2.846   1.224   1.886  0.2178 -0.2707  0.1379
 5013SOL    HW216256   2.827   1.074   1.892 -0.4042 -0.1495  1.5135
 5014SOL     OW16257   2.430   1.616   0.446 -0.4548  0.3122  0.3163
 5014SOL    HW116258   2.343   1.590   0.476 -0.8897  3.0523  1.7024
 5014SOL    HW216259   2.415   1.664   0.365 -0.0933 -0.2121 -0.0681
 5015SOL     OW16260   3.536   1.604   1.130 -0.1987  0.4249 -0.1165
 5015SOL    HW116261   3.577   1.683   1.095 -1.9153  0.6634 -1.7251
 5015SOL    HW216262   3.442   1.620   1.124 -0.5857 -1.4287  0.2520
 5016SOL     OW16263   4.086   8.816   0.930 -0.2926 -0.1797  0.0398
 5016SOL    HW116264   3.992   8.823   0.944 -0.1952  0.5242  0.3426
 5016SOL    HW216265   4.095   8.750   0.861 -0.9850 -0.5297  0.2795
 5017SOL     OW16266   2.104   0.107   0.887 -0.9143  0.5332  0.4903
 5017SOL    HW116267   2.011   0.110   0.866 -0.7893  0.7581 -0.0475
 5017SOL    HW216268   2.143   0.174   0.832 -0.4536  0.5472  0.8290
 5018SOL     OW16269   2.932   2.122   8.579  0.1874 -0.1530  0.1084
 5018SOL    HW116270   2.970   2.210   8.585  0.3896 -0.2000 -0.4667
 5018SOL    HW216271   2.969   2.085   8.499  1.3522 -1.3635  1.1538
 5019SOL     OW16272   2.615   0.997   1.367 -0.3713  0.0554  0.0732
 5019SOL    HW116273   2.572   0.950   1.295 -0.7800 -0.1798  0.4690
 5019SOL    HW216274   2.664   1.067   1.323  1.7287 -1.7924 -0.7098
 5020SOL     OW16275   3.610   1.109   0.403  0.1382  0.3697  0.0240
 5020SOL    HW116276   3.551   1.103   0.329 -1.1050 -0.4202  1.0319
 5020SOL    HW216277   3.561   1.156   0.470  1.3899  1.4445  0.2395
 5021SOL     OW16278   3.532   1.399   0.340 -1.3397  0.3300 -0.1723
 5021SOL    HW116279   3.575   1.338   0.280 -1.1830 -0.6727  0.9176
 5021SOL    HW216280   3.438   1.388   0.322 -1.2784  0.3462 -0.5115
 5022SOL     OW16281   2.109   1.090   0.938 -0.2260 -0.1149  0.2958
 5022SOL    HW116282   2.105   1.028   1.010  1.4779  0.3262  0.8158
 5022SOL    HW216283   2.109   1.036   0.859 -0.4770 -0.6836  0.6829
 5023SOL     OW16284   3.260   1.082   1.403 -0.5140 -0.3831 -0.4438
 5023SOL    HW116285   3.336   1.129   1.368 -1.1579  0.7868 -0.3219
 5023SOL    HW216286   3.275   0.991   1.379  0.8013 -0.1381 -0.6458
 5024SOL     OW16287   3.205   0.854   1.024  0.1024 -0.2070 -0.0094
 5024SOL    HW116288   3.230   0.763   1.035  1.2296  0.1918  1.0295
 5024SOL    HW216289   3.227   0.895   1.108  0.8393  1.2846 -0.8831
 5025SOL     OW16290   2.680   8.677   1.325  0.5435  0.1873 -0.3850
 5025SOL    HW116291   2.613   8.656   1.260 -0.9294  0.1457  1.0763
 5025SOL    HW216292   2.661   8.767   1.351  0.4611 -0.1255  0.7023
 5026SOL     OW16293   3.000   1.330   0.861  0.0959 -0.0564  0.7418
 5026SOL    HW116294   3.084   1.369   0.886 -0.2727  1.1386  0.2002
 5026SOL    HW216295   2.942   1.349   0.935  0.4066 -1.2755  1.3124
 5027SOL     OW16296   3.881   0.293   0.927  0.3432 -0.4657  0.0109
 5027SOL    HW116297   3.946   0.301   0.997 -0.6277 -1.7562  1.1077
 5027SOL    HW216298   3.888   0.202   0.897 -0.4261 -0.4131 -0.3690
 5028SOL     OW16299   2.065   1.121   0.653  0.1274  1.1890  0.0823
 5028SOL    HW116300   2.149   1.168   0.652  1.5387 -1.1738  0.8711
 5028SOL    HW216301   2.050   1.097   0.562 -0.0475  2.1335 -0.1570
 5029SOL     OW16302   2.178   0.780   2.203 -0.3044  0.3731  0.5730
 5029SOL    HW116303   2.243   0.732   2.152 -0.0671 -0.2292  1.4176
 5029SOL    HW216304   2.228   0.845   2.252 -0.2937 -0.2305  1.3847
 5030SOL     OW16305   2.348   0.112   1.661  0.2460  0.7794  0.4672
 5030SOL    HW116306   2.376   0.201   1.639  0.1597  0.3711 -1.4698
 5030SOL    HW216307   2.430   0.063   1.674  0.3461  0.7115 -0.3741
 5031SOL     OW16308   2.361   8.825   0.013 -0.3120  0.4432 -0.1752
 5031SOL    HW116309   2.413   8.755   0.054  0.2195 -0.2133 -1.8657
 5031SOL    HW216310   2.327   8.785  -0.068 -3.3081  0.9094  0.7079
 5032SOL     OW16311   3.423   0.463   1.304 -0.0835  0.0727 -0.3277
 5032SOL    HW116312   3.516   0.483   1.294 -0.4071  1.4133 -0.7291
 5032SOL    HW216313   3.421   0.368   1.316  1.6901  0.3285  3.7808
 5033SOL     OW16314   2.192   0.312   0.496  0.1806  0.4370  0.1668
 5033SOL    HW116315   2.145   0.293   0.578  1.2499  0.5394  0.8180
 5033SOL    HW216316   2.229   0.228   0.469 -1.2667  0.1123 -0.9563
 5034SOL     OW16317   3.150   1.169   0.467  0.1086 -0.1936  0.0441
 5034SOL    HW116318   3.223   1.228   0.448  1.5387 -1.3568  1.6038
 5034SOL    HW216319   3.188   1.081   0.461 -0.6344 -0.7849  2.7220
 5035SOL     OW16320   2.933   0.940   1.869  0.4487 -0.2127 -0.1888
 5035SOL    HW116321   2.994   0.992   1.816 -0.0700  1.6357  0.9770
 5035SOL    HW216322   2.898   0.876   1.807  0.6396  1.2014 -1.8471
 5036SOL     OW16323   3.107   1.682   1.388  0.0611 -0.4595 -0.1825
 5036SOL    HW116324   3.013   1.671   1.372  0.2552 -0.8408 -1.1467
 5036SOL    HW216325   3.112   1.724   1.473 -0.9544 -1.5379  0.4419
 5037SOL     OW16326   2.483   0.839   1.747  0.3297 -0.2451 -0.3584
 5037SOL    HW116327   2.553   0.870   1.689  0.7149 -0.6552 -0.1236
 5037SOL    HW216328   2.492   0.744   1.747 -1.1509 -0.4179 -1.4670
 5038SOL     OW16329   3.210   1.468   1.778  0.1667  0.4640 -0.3679
 5038SOL    HW116330   3.233   1.518   1.700  0.6718 -1.5286 -1.5637
 5038SOL    HW216331   3.265   1.390   1.773 -1.7080 -0.9881  0.5542
 5039SOL     OW16332   2.051   1.466   2.253  0.2603  0.4613 -0.0698
 5039SOL    HW116333   1.979   1.529   2.249  0.5228  0.6779 -1.7663
 5039SOL    HW216334   2.067   1.455   2.347 -0.1779  2.4675  0.2857
 5040SOL     OW16335   3.232   0.503   1.608  0.1969 -0.2169 -0.5539
 5040SOL    HW116336   3.281   0.579   1.578  1.0764 -0.3626  0.4595
 5040SOL    HW216337   3.224   0.446   1.531 -1.1831  1.2392 -1.5425
 5041SOL     OW16338   3.519   0.205   0.346 -0.1276 -0.0737  0.3442
 5041SOL    HW116339   3.587   0.244   0.291  0.4585  0.0094  1.1038
 5041SOL    HW216340   3.440   0.255   0.326  1.0277  3.1862  2.9239
 5042SOL     OW16341   2.794   0.618   0.824 -0.2930  0.1001  0.2071
 5042SOL    HW116342   2.790   0.531   0.863  0.4454 -0.7223 -1.4851
 5042SOL    HW216343   2.887   0.641   0.827 -0.5485  1.0954  1.1540
 5043SOL     OW16344   3.436   0.522   1.837 -0.2055  0.4606 -0.5135
 5043SOL    HW116345   3.508   0.505   1.776  0.9137  0.3680  0.7716
 5043SOL    HW216346   3.390   0.597   1.799  0.6505  0.6099 -1.3100
 5044SOL     OW16347   3.367   1.233   1.778 -0.2276 -0.0080  0.3468
 5044SOL    HW116348   3.411   1.241   1.694 -1.4069 -1.8898 -0.5264
 5044SOL    HW216349   3.302   1.163   1.764 -2.4285  1.5787  1.9831
 5045SOL     OW16350   2.897   1.198   0.335 -0.1102 -0.1934 -1.0414
 5045SOL    HW116351   2.928   1.194   0.244  0.4568 -2.1134 -0.7955
 5045SOL    HW216352   2.976   1.205   0.388 -0.3880 -0.0048 -0.6432
 5046SOL     OW16353   2.822   1.849   0.942 -0.3850 -0.2856 -0.0232
 5046SOL    HW116354   2.839   1.914   0.874  0.5076  1.0611  1.4327
 5046SOL    HW216355   2.895   1.858   1.003  1.2397 -4.4490 -1.0106
 5047SOL     OW16356   2.802   1.015   1.139  0.4331 -0.2938  0.0736
 5047SOL    HW116357   2.773   1.106   1.143  2.0125  0.1993  2.2483
 5047SOL    HW216358   2.750   0.976   1.069 -1.4456  1.8535  0.1708
 5048SOL     OW16359   2.748   1.031   0.018 -0.2230  0.3651 -0.4143
 5048SOL    HW116360   2.696   1.079   0.082 -0.6213  0.0192 -0.4722
 5048SOL    HW216361   2.790   1.099  -0.034  1.4404  0.6891  1.2464
 5049SOL     OW16362   3.758   1.724   0.486  0.5972 -0.0626 -0.4279
 5049SOL    HW116363   3.750   1.630   0.503 -0.4263 -0.0972 -1.0867
 5049SOL    HW216364   3.691   1.743   0.421 -1.8637  1.8428  2.4326
 5050SOL     OW16365   2.288   1.021   1.906  0.5858 -0.8478  0.2063
 5050SOL    HW116366   2.335   1.061   1.832 -0.3638 -1.2784 -0.6556
 5050SOL    HW216367   2.260   1.096   1.959  0.9524 -0.5021 -0.0820
 5051SOL     OW16368   1.526   1.712   0.862 -0.8203 -0.3979 -0.3361
 5051SOL    HW116369   1.461   1.660   0.815  0.7611 -1.7724 -1.1210
 5051SOL    HW216370   1.605   1.707   0.808 -0.0573  1.2442  0.5588
 5052SOL     OW16371   3.070   1.570   2.264  0.1961  0.1837  0.4956
 5052SOL    HW116372   2.989   1.522   2.282  0.4429 -0.7634 -0.8314
 5052SOL    HW216373   3.130   1.541   2.334 -0.3224  0.2139  0.9628
 5053SOL     OW16374   3.630   0.321   1.075 -0.3410 -0.4088 -0.7735
 5053SOL    HW116375   3.703   0.355   1.023  1.1156 -1.9063  0.1947
 5053SOL    HW216376   3.655   0.339   1.166 -0.5548 -1.9973 -0.3620
 5054SOL     OW16377   2.732   0.602   0.523 -0.0132 -0.1859  0.2395
 5054SOL    HW116378   2.688   0.621   0.605  0.8820 -0.9349  0.9114
 5054SOL    HW216379   2.818   0.643   0.532 -0.0451  0.0534 -0.4826
 5055SOL     OW16380   3.962   1.730   0.655  0.1419  0.5275 -0.3273
 5055SOL    HW116381   4.010   1.813   0.654  1.4951 -0.2267 -1.4814
 5055SOL    HW216382   3.905   1.733   0.578  0.5226  0.2225 -0.6281
 5056SOL     OW16383   2.309   0.205   1.212  0.4950 -0.1282  0.3745
 5056SOL    HW116384   2.233   0.260   1.193  0.2965 -0.2909  0.6864
 5056SOL    HW216385   2.382   0.267   1.219  0.4025  0.0201  0.0074
 5057SOL     OW16386   2.444   2.257   0.877 -0.4686 -0.0390  0.4756
 5057SOL    HW116387   2.535   2.282   0.859  0.1044 -2.4209 -0.3928
 5057SOL    HW216388   2.407   2.239   0.791 -1.2619 -0.6500  0.9322
 5058SOL     OW16389   3.081   0.307   1.153 -0.3621  0.1049  0.4758
 5058SOL    HW116390   3.097   0.285   1.061 -0.2965  0.1221  0.4831
 5058SOL    HW216391   3.056   0.224   1.193 -1.3033  0.2671  0.2449
 5059SOL     OW16392   2.982   8.524   1.060 -0.5027 -0.6354  0.3862
 5059SOL    HW116393   2.946   8.539   0.973  1.1283 -0.0862 -0.2262
 5059SOL    HW216394   2.962   8.604   1.109  2.1483  0.8749 -0.7882
 5060SOL     OW16395   2.995   1.090   0.689  0.1035 -0.0063 -0.0477
 5060SOL    HW116396   2.982   1.176   0.729  1.1153 -0.0259  0.3662
 5060SOL    HW216397   3.048   1.107   0.611  1.2135 -0.3395  0.6027
 5061SOL     OW16398   2.714   1.252   1.253 -0.2434  0.5613  0.0234
 5061SOL    HW116399   2.770   1.275   1.327  1.9168  0.7629 -1.6003
 5061SOL    HW216400   2.636   1.306   1.265 -0.8172 -0.7118  3.0950
 5062SOL     OW16401   3.489   0.398   0.060  0.2563 -0.0374 -0.2037
 5062SOL    HW116402   3.415   0.370   0.006 -0.1510  0.3056  0.1640
 5062SOL    HW216403   3.553   0.327   0.052 -0.7754 -1.1089  0.7535
 5063SOL     OW16404   3.052   0.221   0.887  0.0214  0.0251 -0.5894
 5063SOL    HW116405   2.960   0.247   0.892  0.0524  0.1552 -0.6968
 5063SOL    HW216406   3.074   0.230   0.794 -0.1082 -0.8525 -0.7142
 5064SOL     OW16407   3.640   0.246   0.683  0.3231 -0.6301 -0.0467
 5064SOL    HW116408   3.569   0.185   0.702  1.3286 -1.6280  0.6684
 5064SOL    HW216409   3.660   0.231   0.590  0.3138 -1.1197  0.0289
 5065SOL     OW16410   2.132   1.476   1.219  0.0041  0.8377  0.4146
 5065SOL    HW116411   2.087   1.553   1.183  0.7938  0.6368 -1.0895
 5065SOL    HW216412   2.216   1.475   1.174 -0.1409 -1.1288  0.1033
 5066SOL     OW16413   2.752   1.830   0.606  0.3359  0.3141 -0.4816
 5066SOL    HW116414   2.777   1.893   0.539  1.2936 -0.0679 -0.4931
 5066SOL    HW216415   2.803   1.856   0.683 -1.0591  1.0065  0.2459
 5067SOL     OW16416   2.408   0.643   2.109  0.4611 -0.1006 -0.3518
 5067SOL    HW116417   2.474   0.708   2.081  2.4008 -1.7424  0.1608
 5067SOL    HW216418   2.459   0.563   2.124 -1.5303 -1.1692  1.0975
 5068SOL     OW16419   1.973   0.247   2.890 -0.0457 -0.2623 -0.0169
 5068SOL    HW116420   2.040   0.181   2.873  0.4433 -0.0012  0.8599
 5068SOL    HW216421   1.971   0.256   2.985 -0.4605  0.6266 -0.0984
 5069SOL     OW16422   1.999   0.546   2.193  0.6774  0.8276  0.3975
 5069SOL    HW116423   1.921   0.564   2.246  0.1649  1.4810 -0.5622
 5069SOL    HW216424   2.062   0.613   2.219  0.8678  0.4325  1.0104
 5070SOL     OW16425   2.563   1.869   3.516  0.1078  0.3057  0.2241
 5070SOL    HW116426   2.619   1.802   3.556 -1.4402 -0.2996  1.5170
 5070SOL    HW216427   2.572   1.945   3.574  0.3816  0.5556 -0.1461
 5071SOL     OW16428   3.523   1.366   2.756  0.0645  0.7353 -0.0218
 5071SOL    HW116429   3.464   1.293   2.776 -0.6292  1.2125 -0.2846
 5071SOL    HW216430   3.469   1.426   2.704  0.6069  1.4587  0.2445
 5072SOL     OW16431   3.094   0.876   2.768 -0.2925  0.0608 -0.0782
 5072SOL    HW116432   3.186   0.857   2.787 -0.4965 -1.5089 -0.4744
 5072SOL    HW216433   3.086   0.971   2.777  1.2827  0.1835  0.2893
 5073SOL     OW16434   3.677   0.506   2.183 -0.7281 -0.4188 -0.0268
 5073SOL    HW116435   3.736   0.573   2.147 -0.1451 -0.8949  0.0350
 5073SOL    HW216436   3.601   0.507   2.124 -0.6939  0.2429 -0.0709
 5074SOL     OW16437   2.923   1.330   3.533 -0.1462 -0.5003 -0.3541
 5074SOL    HW116438   2.990   1.397   3.545 -1.6101  0.7433  1.3205
 5074SOL    HW216439   2.897   1.339   3.441  0.1040  0.8490 -0.3195
 5075SOL     OW16440   2.661   0.355   4.395 -0.2277 -0.1016  0.1168
 5075SOL    HW116441   2.659   0.362   4.300 -3.5604  0.8838  0.1309
 5075SOL    HW216442   2.740   0.304   4.414  1.2431  0.7766 -3.0412
 5076SOL     OW16443   2.700   1.185   2.726 -0.0672 -0.2174 -0.0483
 5076SOL    HW116444   2.694   1.276   2.698 -1.2540 -0.6453 -1.2816
 5076SOL    HW216445   2.689   1.189   2.821 -0.5422  0.8924 -0.1355
 5077SOL     OW16446   2.723   1.286   4.009 -0.8350  0.6324 -0.4681
 5077SOL    HW116447   2.712   1.209   4.065  0.4236 -0.9302 -2.2555
 5077SOL    HW216448   2.658   1.348   4.041 -1.0360 -0.6630  1.8603
 5078SOL     OW16449   2.598   1.445   3.439 -0.5745 -0.7215  0.2353
 5078SOL    HW116450   2.523   1.405   3.484 -0.1321  0.3519  2.0445
 5078SOL    HW216451   2.666   1.450   3.506 -0.0502  1.4608 -0.3587
 5079SOL     OW16452   3.204   1.252   3.123  0.0653  0.3477 -0.3622
 5079SOL    HW116453   3.112   1.227   3.116  0.5090 -1.4315 -0.1999
 5079SOL    HW216454   3.225   1.243   3.216  0.2591  1.3246 -0.3034
 5080SOL     OW16455   2.256   0.232   3.085  0.3067 -0.4500  0.3639
 5080SOL    HW116456   2.306   0.264   3.160 -0.6317 -1.9279  1.7078
 5080SOL    HW216457   2.164   0.246   3.110 -0.0168 -0.2319 -0.8731
 5081SOL     OW16458   3.498   8.820   2.451  1.0386 -0.2289  0.4815
 5081SOL    HW116459   3.528   8.742   2.405 -0.1562  0.4361 -1.5169
 5081SOL    HW216460   3.440   8.787   2.520  0.1057 -1.1069 -0.6909
 5082SOL     OW16461   2.364   1.526   2.654 -0.2831  0.2478  0.1037
 5082SOL    HW116462   2.336   1.567   2.571 -2.4521 -1.3665 -0.0562
 5082SOL    HW216463   2.342   1.591   2.721 -1.6488  0.2766 -0.3337
 5083SOL     OW16464   2.654   1.074   3.774 -1.0086 -0.5196  0.0254
 5083SOL    HW116465   2.637   1.159   3.815 -1.5151 -1.1320  1.1358
 5083SOL    HW216466   2.678   1.095   3.684 -0.0415  0.8744  0.5680
 5084SOL     OW16467   1.750   1.336   2.187 -0.2577  0.3919 -0.6575
 5084SOL    HW116468   1.696   1.344   2.108 -0.8292 -0.8700 -0.4152
 5084SOL    HW216469   1.840   1.335   2.154 -0.5022 -0.4285 -1.3332
 5085SOL     OW16470   2.331   1.302   3.360  0.3444  0.3983  0.1415
 5085SOL    HW116471   2.360   1.283   3.449  0.7177 -0.1603 -0.0941
 5085SOL    HW216472   2.242   1.269   3.356  0.3844  0.2770  0.2574
 5086SOL     OW16473   2.558   2.049   3.246 -0.0984  0.3250  0.0352
 5086SOL    HW116474   2.523   2.065   3.334 -1.0473  0.3863 -0.3398
 5086SOL    HW216475   2.616   2.123   3.229 -1.3308  1.2885 -0.0974
 5087SOL     OW16476   2.599   1.363   2.423  0.0123  0.6877  0.7451
 5087SOL    HW116477   2.508   1.377   2.396 -0.4029  2.6418  2.7818
 5087SOL    HW216478   2.597   1.374   2.518  2.1610 -0.7265  1.0143
 5088SOL     OW16479   3.344   0.111   3.293 -0.1781  0.6332 -0.1711
 5088SOL    HW116480   3.341   0.174   3.365  0.3339 -0.7008  1.0945
 5088SOL    HW216481   3.253   0.084   3.281 -0.2978  1.0437 -0.2041
 5089SOL     OW16482   2.072   0.565   2.532  0.1435 -0.1470 -0.0340
 5089SOL    HW116483   1.990   0.570   2.483 -0.3729  0.6832  0.8967
 5089SOL    HW216484   2.064   0.485   2.584  0.2662 -0.4868 -0.5315
 5090SOL     OW16485   3.727   1.859   2.474 -0.1728  0.3079 -0.2285
 5090SOL    HW116486   3.822   1.845   2.475  0.0623  1.7217 -0.3094
 5090SOL    HW216487   3.714   1.938   2.526 -1.2383  0.4938 -0.7593
 5091SOL     OW16488   1.958   1.081   2.324 -0.0490  0.3927  0.0763
 5091SOL    HW116489   2.021   1.088   2.252  0.1861  1.2775  0.3449
 5091SOL    HW216490   1.931   0.990   2.324  0.3094  0.2762 -0.8307
 5092SOL     OW16491   3.348   0.368   2.272  0.0663  0.5828  0.1190
 5092SOL    HW116492   3.409   0.309   2.316 -0.8897 -0.2410  0.3662
 5092SOL    HW216493   3.356   0.451   2.319 -0.8806 -0.2449  1.8419
 5093SOL     OW16494   3.723   1.012   2.198  0.2113 -0.1070 -0.8255
 5093SOL    HW116495   3.637   1.031   2.161 -0.2976 -1.0256 -0.1583
 5093SOL    HW216496   3.715   1.035   2.290  0.1785 -1.6393 -0.4208
 5094SOL     OW16497   1.859   0.710   3.422  0.4122  0.0103  0.1405
 5094SOL    HW116498   1.845   0.712   3.327  0.8414 -0.6256  0.0592
 5094SOL    HW216499   1.772   0.693   3.458  0.3841 -0.5869 -0.1861
 5095SOL     OW16500   2.733   1.695   2.684 -0.2615  0.1013 -0.2151
 5095SOL    HW116501   2.775   1.709   2.769  1.2227 -1.1636 -0.6914
 5095SOL    HW216502   2.758   1.771   2.632 -0.5188  0.4942  0.2267
 5096SOL     OW16503   3.018   0.900   3.612 -0.1741 -0.3785  0.5611
 5096SOL    HW116504   2.963   0.978   3.611  0.6545  0.2459  1.6159
 5096SOL    HW216505   3.086   0.919   3.678  0.0060 -2.0046  0.8892
 5097SOL     OW16506   2.350   0.189   2.316  0.3788  0.1794 -0.2681
 5097SOL    HW116507   2.261   0.222   2.302 -0.0052 -0.0221  1.4838
 5097SOL    HW216508   2.407   0.265   2.300 -0.2526  0.8270  0.4816
 5098SOL     OW16509   1.964   0.724   3.142  0.4568 -0.9232  0.4744
 5098SOL    HW116510   2.006   0.810   3.135  0.2080 -0.8429 -0.1352
 5098SOL    HW216511   2.016   0.668   3.084 -0.6950 -0.6467 -0.8820
 5099SOL     OW16512   3.301   0.952   2.116  0.0952  0.2085 -0.2873
 5099SOL    HW116513   3.236   0.997   2.063  0.5181 -0.4011 -1.3396
 5099SOL    HW216514   3.267   0.957   2.205 -2.0081 -1.1647 -0.9586
 5100SOL     OW16515   3.142   1.688   3.773  0.1163 -0.2325 -0.0475
 5100SOL    HW116516   3.186   1.712   3.692  0.7527  1.2031  0.6809
 5100SOL    HW216517   3.209   1.697   3.841 -0.5273 -0.9244  0.7114
 5101SOL     OW16518   2.004   0.429   3.367  0.1786 -0.4118  0.2899
 5101SOL    HW116519   1.955   0.409   3.447 -1.2992 -0.2915 -0.5445
 5101SOL    HW216520   1.977   0.518   3.345 -1.8880 -1.4847 -1.9783
 5102SOL     OW16521   3.339   1.175   2.868 -0.6044  0.1822 -0.2119
 5102SOL    HW116522   3.321   1.203   2.957 -1.8528 -1.8860  0.2633
 5102SOL    HW216523   3.353   1.080   2.875  0.6663  0.1806 -2.0335
 5103SOL     OW16524   3.461   2.455   2.342 -0.2698  0.3769 -0.2789
 5103SOL    HW116525   3.533   2.514   2.364 -0.5147  0.5196  0.1581
 5103SOL    HW216526   3.493   2.368   2.366 -1.1294  0.6850  2.3009
 5104SOL     OW16527   2.495   0.543   1.834  0.0397 -0.2009 -0.2891
 5104SOL    HW116528   2.454   0.459   1.857 -1.1732  0.7785  1.4788
 5104SOL    HW216529   2.586   0.533   1.860 -0.5444 -0.3379  1.9492
 5105SOL     OW16530   3.064   0.261   3.358  0.6150  0.7819  0.1806
 5105SOL    HW116531   3.067   0.167   3.339  0.1560  0.6765  0.5895
 5105SOL    HW216532   3.142   0.297   3.318 -0.2275  0.5615 -1.7552
 5106SOL     OW16533   3.615   1.943   2.236 -0.1033  0.0889  0.5801
 5106SOL    HW116534   3.667   1.907   2.308 -1.4871 -1.3555  0.9264
 5106SOL    HW216535   3.612   1.872   2.172  0.5656  1.1283 -0.6289
 5107SOL     OW16536   2.858   0.448   2.688  0.0449  0.0985 -0.3484
 5107SOL    HW116537   2.904   0.513   2.635 -0.2079 -0.8569 -1.7990
 5107SOL    HW216538   2.921   0.377   2.700  0.2166  0.4340  0.9688
 5108SOL     OW16539   3.290   0.361   3.997 -0.1699  0.6363  0.3458
 5108SOL    HW116540   3.206   0.332   3.962 -0.2305 -0.2962  1.2291
 5108SOL    HW216541   3.296   0.453   3.971 -1.5687  0.7871  0.4793
 5109SOL     OW16542   2.705   1.156   3.510 -0.1770  0.3231 -0.5340
 5109SOL    HW116543   2.756   1.237   3.522 -0.4516  0.4156  0.0884
 5109SOL    HW216544   2.745   1.113   3.435 -1.5240  2.2006 -2.4182
 5110SOL     OW16545   3.110   0.456   2.992  0.6031 -0.4538 -0.0297
 5110SOL    HW116546   3.106   0.375   3.043 -0.1497 -0.3100  0.1595
 5110SOL    HW216547   3.173   0.438   2.923  1.1601 -0.8719  0.5735
 5111SOL     OW16548   2.727   0.228   2.460 -0.2967 -0.5804  0.1255
 5111SOL    HW116549   2.803   0.199   2.510 -0.5565 -1.7503 -0.1297
 5111SOL    HW216550   2.762   0.285   2.392 -0.0317  1.9376  2.2365
 5112SOL     OW16551   1.989   0.765   2.722 -0.0751  0.4459  0.2398
 5112SOL    HW116552   1.978   0.693   2.783 -0.2760  1.4162  1.3891
 5112SOL    HW216553   2.007   0.723   2.637 -1.2142 -0.9526  0.6625
 5113SOL     OW16554   1.983   2.053   3.887  0.5192  0.4740  0.0756
 5113SOL    HW116555   2.070   2.054   3.927  0.3124 -0.2630  0.5783
 5113SOL    HW216556   1.944   2.136   3.913  1.2622  1.0593 -0.6186
 5114SOL     OW16557   2.757   0.486   1.901  0.0257 -0.1948 -0.4909
 5114SOL    HW116558   2.826   0.466   1.838  0.0124  0.4802 -0.7282
 5114SOL    HW216559   2.803   0.504   1.983  0.1462  0.3362 -0.6696
 5115SOL     OW16560   3.438   0.296   3.762  0.1142 -0.5205  0.2024
 5115SOL    HW116561   3.382   0.300   3.839  0.5680 -2.1365  0.6518
 5115SOL    HW216562   3.472   0.385   3.752 -3.9328  1.1069 -1.2209
 5116SOL     OW16563   3.422   1.094   2.568  0.2834 -0.0908 -0.0785
 5116SOL    HW116564   3.402   1.051   2.651  2.0750 -1.0937 -0.1111
 5116SOL    HW216565   3.354   1.063   2.507 -0.3619 -0.2698  0.7238
 5117SOL     OW16566   2.393   8.825   2.657  0.2093  0.0945  0.1044
 5117SOL    HW116567   2.416   8.909   2.696  0.8787  0.3154 -0.7555
 5117SOL    HW216568   2.458   8.810   2.589  0.1020 -1.1271  0.2373
 5118SOL     OW16569   3.441   1.736   2.421  0.2192  0.4600 -0.1333
 5118SOL    HW116570   3.508   1.794   2.458 -0.6568  0.1502  2.1077
 5118SOL    HW216571   3.406   1.785   2.346  1.9274  1.2465 -0.4770
 5119SOL     OW16572   2.176   1.523   3.012  0.0472 -0.0241  0.4026
 5119SOL    HW116573   2.242   1.554   2.950 -1.3716 -0.2647 -1.2944
 5119SOL    HW216574   2.223   1.461   3.068  1.7095  1.3364  0.5904
 5120SOL     OW16575   3.438   0.607   3.306  0.1614 -0.3785  0.2312
 5120SOL    HW116576   3.442   0.649   3.221 -0.5645 -1.1221 -0.1825
 5120SOL    HW216577   3.480   0.669   3.366  0.1222  0.4208 -0.5555
 5121SOL     OW16578   3.284   1.073   3.535  0.1781  0.3200 -0.5378
 5121SOL    HW116579   3.300   1.105   3.624 -2.2547 -1.5301  0.6932
 5121SOL    HW216580   3.275   1.153   3.483  1.3227  1.4572  0.9080
 5122SOL     OW16581   2.466   0.692   2.819 -0.0658 -0.2795 -0.0178
 5122SOL    HW116582   2.396   0.712   2.758  0.8748 -0.1154 -1.0765
 5122SOL    HW216583   2.544   0.686   2.765  0.3593 -2.9549  0.7682
 5123SOL     OW16584   3.617   0.777   2.720 -0.4246 -0.0051  0.6802
 5123SOL    HW116585   3.637   0.697   2.768 -1.0713 -1.0392 -0.6811
 5123SOL    HW216586   3.622   0.751   2.628 -0.5294  1.5604  0.2066
 5124SOL     OW16587   2.504   1.642   3.752 -0.1312  0.4963 -0.0590
 5124SOL    HW116588   2.447   1.657   3.827 -1.3392 -0.5817 -0.7231
 5124SOL    HW216589   2.446   1.648   3.676  0.6451 -0.5015 -0.7612
 5125SOL     OW16590   3.064   1.660   2.002 -0.2326 -0.4939  0.4020
 5125SOL    HW116591   3.060   1.613   2.085  0.6807 -0.4120  0.5064
 5125SOL    HW216592   3.147   1.633   1.963 -0.3097  0.0273 -0.1456
 5126SOL     OW16593   2.008   0.215   3.193 -0.2988 -0.0542  0.3449
 5126SOL    HW116594   2.007   0.132   3.241 -2.0528 -0.4075 -0.2587
 5126SOL    HW216595   1.981   0.280   3.258 -0.4730 -0.1952  0.4154
 5127SOL     OW16596   3.660   1.362   2.410 -0.1023  0.7256  0.4192
 5127SOL    HW116597   3.589   1.338   2.350  0.9323  0.9018 -0.9396
 5127SOL    HW216598   3.620   1.422   2.472 -1.2522  0.4362 -0.0109
 5128SOL     OW16599   2.348   1.639   2.396  0.1552 -0.5508  0.4973
 5128SOL    HW116600   2.339   1.545   2.384 -0.7251 -0.5030  0.7441
 5128SOL    HW216601   2.385   1.671   2.314  0.2928 -1.0815  0.3493
 5129SOL     OW16602   3.066   8.821   1.768 -0.2215  0.1786 -0.8841
 5129SOL    HW116603   3.143   8.794   1.719  0.1547  0.2771 -0.3564
 5129SOL    HW216604   2.996   8.762   1.739  0.3185 -0.6344 -0.5458
 5130SOL     OW16605   2.325   2.294   2.897  0.3269  0.0357  0.4294
 5130SOL    HW116606   2.256   2.230   2.877 -0.1024  0.7818 -0.6142
 5130SOL    HW216607   2.331   2.294   2.992 -2.0596  0.8821  0.6531
 5131SOL     OW16608   2.850   1.955   2.967  0.1658 -0.0893 -0.4248
 5131SOL    HW116609   2.899   1.919   2.893 -2.2247  0.5071 -2.4564
 5131SOL    HW216610   2.766   1.910   2.964 -1.5845  2.9112 -0.8054
 5132SOL     OW16611   2.286   0.762   2.621  0.3795  0.3486 -0.2210
 5132SOL    HW116612   2.315   0.770   2.530  0.5374  0.7485 -0.1343
 5132SOL    HW216613   2.250   0.673   2.626 -2.2059  1.2490 -1.3912
 5133SOL     OW16614   3.216   0.010   3.774 -0.7199  0.2501  0.1794
 5133SOL    HW116615   3.162   0.080   3.737 -0.8422  0.2623  0.3795
 5133SOL    HW216616   3.186  -0.069   3.730  0.5989  0.5427 -1.3383
 5134SOL     OW16617   2.619   8.829   1.707 -0.0406 -0.4027  0.3219
 5134SOL    HW116618   2.699   8.842   1.757  2.0207 -0.1811 -2.7809
 5134SOL    HW216619   2.606   8.734   1.708  3.4908 -1.1827 -3.4272
 5135SOL     OW16620   2.458   0.629   3.347  0.5264 -0.0572 -0.1620
 5135SOL    HW116621   2.541   0.652   3.305  1.4909  0.8488  2.1024
 5135SOL    HW216622   2.402   0.601   3.275  2.2434  0.9169 -1.9690
 5136SOL     OW16623   2.691   1.649   2.968 -0.4796  0.0223  0.0387
 5136SOL    HW116624   2.619   1.694   3.012  0.0415  0.4151  0.5109
 5136SOL    HW216625   2.653   1.567   2.939 -1.1555  0.2783  0.1628
 5137SOL     OW16626   2.960   0.607   3.579  0.3501  0.0036  0.2280
 5137SOL    HW116627   2.953   0.702   3.595 -1.9172 -0.3405  1.7679
 5137SOL    HW216628   2.908   0.593   3.500  0.8903  0.0624 -0.1411
 5138SOL     OW16629   2.827   1.364   3.297  0.7352 -0.2670  0.3246
 5138SOL    HW116630   2.739   1.395   3.315  0.6540 -1.3193  1.9056
 5138SOL    HW216631   2.868   1.436   3.249 -0.4946  0.8555  0.8950
 5139SOL     OW16632   2.539   0.444   2.563 -0.5765 -0.1307  0.0402
 5139SOL    HW116633   2.593   0.516   2.595 -1.5212  1.8220 -2.4494
 5139SOL    HW216634   2.602   0.374   2.542  0.4084  0.0949  2.0218
 5140SOL     OW16635   2.095   0.293   2.218 -0.3762  0.1637 -0.1391
 5140SOL    HW116636   2.072   0.385   2.202 -1.6523  0.2083  1.6764
 5140SOL    HW216637   2.026   0.261   2.275  0.7818 -1.5643  0.3455
 5141SOL     OW16638   3.357   1.469   2.026 -0.3389 -0.0773  0.0414
 5141SOL    HW116639   3.296   1.482   1.953  0.3535  1.7867 -0.2597
 5141SOL    HW216640   3.419   1.403   1.993 -0.9395 -0.4167 -0.4483
 5142SOL     OW16641   1.845   0.187   1.901 -0.4369  0.1289  0.0284
 5142SOL    HW116642   1.915   0.249   1.879  0.7281 -1.8564 -2.2984
 5142SOL    HW216643   1.891   0.111   1.937 -1.5482 -0.5269  0.1038
 5143SOL     OW16644   2.775   0.375   2.220  0.0682  0.2356  0.0457
 5143SOL    HW116645   2.839   0.304   2.222 -1.0695 -0.9945 -2.5902
 5143SOL    HW216646   2.821   0.449   2.180  0.9817  0.7400  1.9456
 5144SOL     OW16647   2.839   0.410   3.376 -0.0179 -0.1423 -1.2815
 5144SOL    HW116648   2.916   0.353   3.380  0.3205  0.3769  0.5264
 5144SOL    HW216649   2.772   0.363   3.426 -0.4704  0.0036 -1.7444
 5145SOL     OW16650   2.988   1.841   2.760 -0.0104 -0.3914 -0.4201
 5145SOL    HW116651   2.979   1.860   2.667  0.2473  0.9542 -0.1939
 5145SOL    HW216652   3.066   1.786   2.766  1.3558  1.3923 -0.8189
 5146SOL     OW16653   2.596   1.363   2.960  0.2771 -0.1182  0.3305
 5146SOL    HW116654   2.625   1.309   3.034 -0.5924 -1.1891 -0.0695
 5146SOL    HW216655   2.500   1.353   2.960  0.2996 -0.6537 -1.2817
 5147SOL     OW16656   3.179   2.043   2.458 -0.1691  0.3848  0.4056
 5147SOL    HW116657   3.239   2.097   2.510  0.0060  0.1824  0.4197
 5147SOL    HW216658   3.234   2.008   2.388  0.0631 -0.8962  1.1967
 5148SOL     OW16659   2.965   0.448   1.744  0.1873  0.1690 -0.2161
 5148SOL    HW116660   3.047   0.483   1.710  0.3704 -0.8940 -0.9217
 5148SOL    HW216661   2.992   0.386   1.812 -0.0799  0.4635  0.1636
 5149SOL     OW16662   1.767   0.531   3.192 -0.0093  0.2516 -0.3545
 5149SOL    HW116663   1.841   0.571   3.145 -0.7766  1.8845 -0.2348
 5149SOL    HW216664   1.692   0.544   3.134 -0.3374 -0.8327 -0.1966
 5150SOL     OW16665   2.527   0.175   2.798  0.2271  0.5493 -0.4368
 5150SOL    HW116666   2.592   0.185   2.867  0.5528 -1.8832 -0.3179
 5150SOL    HW216667   2.458   0.237   2.821  1.6202  1.8306  0.4646
 5151SOL     OW16668   2.510   0.425   2.260 -0.0664 -0.0453  0.4021
 5151SOL    HW116669   2.504   0.448   2.353  0.7790  0.7595  0.2629
 5151SOL    HW216670   2.602   0.407   2.245 -0.1948 -0.1625 -0.2921
 5152SOL     OW16671   2.873   8.826   3.048 -0.1172 -0.4486  0.3281
 5152SOL    HW116672   2.922   8.800   2.970 -1.5493  0.3497 -0.8792
 5152SOL    HW216673   2.801   8.762   3.053  1.3754 -2.1386  2.5615
 5153SOL     OW16674   3.085   1.163   2.771 -0.3525  0.1745  0.1105
 5153SOL    HW116675   3.033   1.186   2.848 -0.1191 -2.2311  1.0770
 5153SOL    HW216676   3.175   1.182   2.797 -0.3087 -0.2959  0.3178
 5154SOL     OW16677   3.217   0.686   3.111  0.1578  0.2115 -0.2565
 5154SOL    HW116678   3.194   0.690   3.204 -1.2111  2.5798 -0.6225
 5154SOL    HW216679   3.153   0.627   3.072  0.0302  0.1102  0.1046
 5155SOL     OW16680   3.827   0.993   1.956 -0.0261 -0.2888  0.3817
 5155SOL    HW116681   3.842   0.899   1.953 -0.1515 -0.3090  0.3703
 5155SOL    HW216682   3.797   1.010   2.046 -0.6157 -0.3550  0.2016
 5156SOL     OW16683   2.856   1.453   2.398 -0.1078  0.1323  0.3912
 5156SOL    HW116684   2.768   1.453   2.436  0.1623  1.1171  1.0868
 5156SOL    HW216685   2.912   1.484   2.469  0.2677  3.1961 -1.0507
 5157SOL     OW16686   4.158   0.806   2.524 -0.0950 -0.3904  0.2255
 5157SOL    HW116687   4.078   0.856   2.504  0.0550  0.4535  1.6381
 5157SOL    HW216688   4.161   0.739   2.455 -1.7480 -0.1395 -0.1502
 5158SOL     OW16689   3.367   0.247   1.670 -0.5340 -0.2642 -0.5491
 5158SOL    HW116690   3.293   0.273   1.615 -0.8386 -1.4393 -0.7215
 5158SOL    HW216691   3.369   0.312   1.741 -1.0134  0.4345 -1.1629
 5159SOL     OW16692   2.243   0.211   1.990 -0.3274 -0.0098  0.0997
 5159SOL    HW116693   2.203   0.242   2.072 -0.6314 -1.6615  0.6207
 5159SOL    HW216694   2.330   0.249   1.990 -0.1663 -0.3303  1.4406
 5160SOL     OW16695   3.520   1.265   3.739 -0.0715 -0.0630 -0.0532
 5160SOL    HW116696   3.426   1.262   3.756 -0.1370 -1.0843 -0.5489
 5160SOL    HW216697   3.556   1.312   3.814 -0.6230 -2.3935  1.7722
 5161SOL     OW16698   3.128   0.801   3.384  0.5286 -0.0870  0.0106
 5161SOL    HW116699   3.101   0.834   3.469 -0.5986  0.2828 -0.4681
 5161SOL    HW216700   3.049   0.806   3.330  1.6757  1.5218 -1.6199
 5162SOL     OW16701   3.483   1.947   3.451  0.0437 -0.1689  0.0221
 5162SOL    HW116702   3.537   1.995   3.514 -0.3190 -1.3744  1.3192
 5162SOL    HW216703   3.483   2.001   3.373 -1.2027  2.5021  1.7181
 5163SOL     OW16704   2.908   0.827   2.987  0.2953 -0.3779  0.2773
 5163SOL    HW116705   2.877   0.738   2.975  2.3731 -1.0965 -0.1970
 5163SOL    HW216706   2.967   0.843   2.913 -1.4742  2.1278 -0.7522
 5164SOL     OW16707   3.303   1.519   3.024  0.1801 -0.0755 -0.0380
 5164SOL    HW116708   3.281   1.437   3.067  0.7115  0.2863  0.9579
 5164SOL    HW216709   3.264   1.587   3.080  2.7360  0.5308  1.1629
 5165SOL     OW16710   2.663   8.843   3.342  0.0979 -0.1652  0.0782
 5165SOL    HW116711   2.615   8.767   3.309 -1.0590  1.0588 -1.2150
 5165SOL    HW216712   2.723   8.807   3.407 -1.8264 -1.9211  1.0008
 5166SOL     OW16713   2.548   0.808   3.801  0.6368 -0.3494  0.4392
 5166SOL    HW116714   2.618   0.870   3.784  1.7462 -1.5243  0.5196
 5166SOL    HW216715   2.488   0.818   3.727  0.6773  0.9421  0.5677
 5167SOL     OW16716   2.696   0.691   2.641  0.0797 -0.2214  0.1151
 5167SOL    HW116717   2.697   0.772   2.590 -0.8249 -0.3457 -0.1130
 5167SOL    HW216718   2.788   0.673   2.658  0.3907 -0.0252 -1.2332
 5168SOL     OW16719   2.076   0.904   3.407 -0.7455  0.3039  0.4145
 5168SOL    HW116720   2.093   0.915   3.313  0.6049  0.6009  0.6653
 5168SOL    HW216721   2.004   0.842   3.412  0.3053 -1.0651 -0.7950
 5169SOL     OW16722   3.267   0.407   3.257 -0.1852 -0.4309  0.2473
 5169SOL    HW116723   3.306   0.371   3.338 -1.0038 -1.1767  0.3259
 5169SOL    HW216724   3.317   0.487   3.240 -0.2742 -0.0306  1.7294
 5170SOL     OW16725   2.417   1.689   3.361  0.4172 -0.0575 -0.6874
 5170SOL    HW116726   2.460   1.608   3.386  0.4926  0.5031  1.2274
 5170SOL    HW216727   2.468   1.758   3.405 -2.5935  0.6001  2.1988
 5171SOL     OW16728   2.491   1.082   2.913  0.3854  0.2321 -0.0660
 5171SOL    HW116729   2.428   1.009   2.916 -0.0449  0.6311  1.1314
 5171SOL    HW216730   2.463   1.133   2.837 -0.2892  0.0015  0.0131
 5172SOL     OW16731   2.309   0.329   2.650  0.0263 -0.0543  0.1288
 5172SOL    HW116732   2.286   0.375   2.731  0.5155 -0.0163  0.2471
 5172SOL    HW216733   2.386   0.375   2.618  1.4111 -1.6551  0.9923
 5173SOL     OW16734   3.338   1.564   2.601 -0.3357  0.2207  0.6671
 5173SOL    HW116735   3.376   1.631   2.544 -0.2219  0.2445  0.7712
 5173SOL    HW216736   3.325   1.488   2.544  0.3277  0.0436  0.7484
 5174SOL     OW16737   2.959   1.223   3.009 -0.1455  0.3140 -0.7326
 5174SOL    HW116738   2.882   1.173   3.038  0.3957 -0.1512 -0.0829
 5174SOL    HW216739   2.936   1.315   3.027 -0.2874  0.1237  0.0908
 5175SOL     OW16740   3.628   0.798   2.441  0.3742 -0.5077 -0.4021
 5175SOL    HW116741   3.685   0.777   2.367  0.1232 -0.1653 -0.6923
 5175SOL    HW216742   3.589   0.883   2.419 -1.2231 -1.3130 -0.7833
 5176SOL     OW16743   2.194   2.064   3.184  0.2819  0.7568 -0.6594
 5176SOL    HW116744   2.198   2.020   3.269 -0.5724  1.1986 -0.3783
 5176SOL    HW216745   2.279   2.107   3.175  1.3781 -1.3442 -1.1854
 5177SOL     OW16746   2.444   0.360   3.253  0.1173  0.0512 -0.7078
 5177SOL    HW116747   2.502   0.386   3.181  0.7539 -0.2157 -0.2934
 5177SOL    HW216748   2.501   0.316   3.315 -0.5223 -0.1501 -0.2588
 5178SOL     OW16749   3.358   0.299   3.495  0.0949 -0.2360  0.5111
 5178SOL    HW116750   3.339   0.384   3.536 -0.6167  0.1784 -0.6197
 5178SOL    HW216751   3.395   0.246   3.565  0.4555  0.9790  1.2698
 5179SOL     OW16752   3.093   8.571   3.761  0.2911 -0.2875  0.2427
 5179SOL    HW116753   3.166   8.514   3.738  1.8316  1.5020  0.5266
 5179SOL    HW216754   3.025   8.511   3.792  1.7817 -1.9771  0.3855
 5180SOL     OW16755   2.261   0.315   3.441  0.0814 -0.2624 -0.7508
 5180SOL    HW116756   2.327   0.365   3.392  1.8408 -0.8101  0.8987
 5180SOL    HW216757   2.178   0.355   3.417  1.2387  2.3280 -0.8415
 5181SOL     OW16758   2.466   1.250   3.598  0.7488  0.3155  0.0543
 5181SOL    HW116759   2.520   1.292   3.664  1.1241 -1.9728  1.2791
 5181SOL    HW216760   2.525   1.191   3.551 -0.0587 -0.0174 -0.5821
 5182SOL     OW16761   3.325   0.518   2.680  0.2167 -0.5453 -0.0508
 5182SOL    HW116762   3.417   0.539   2.698 -0.1425  1.3352 -0.1751
 5182SOL    HW216763   3.312   0.432   2.720  1.5179  0.0141  1.7157
 5183SOL     OW16764   3.295   0.340   1.997  0.2799  0.4041 -0.5576
 5183SOL    HW116765   3.268   0.380   2.080  0.1688  0.4952 -0.6364
 5183SOL    HW216766   3.366   0.396   1.965 -0.9263  1.4842 -1.4488
 5184SOL     OW16767   2.106   8.705   3.363  0.0585 -0.8079  0.0045
 5184SOL    HW116768   2.179   8.767   3.358 -0.2519 -0.4318  0.0472
 5184SOL    HW216769   2.084   8.686   3.272  0.7624 -1.5917 -0.0103
 5185SOL     OW16770   2.106   1.225   3.204 -0.0603 -0.1617 -0.1729
 5185SOL    HW116771   2.184   1.258   3.159 -1.1768  0.9983 -1.3379
 5185SOL    HW216772   2.033   1.270   3.162 -1.4587 -1.9947  0.1586
 5186SOL     OW16773   2.599   0.465   3.019  0.4621 -0.5811 -0.2754
 5186SOL    HW116774   2.673   0.412   2.989 -0.5447 -1.3977 -1.4343
 5186SOL    HW216775   2.552   0.487   2.939 -0.5233 -0.0464  0.4359
 5187SOL     OW16776   4.154   0.897   3.823 -0.1719 -0.0502 -0.8084
 5187SOL    HW116777   4.066   0.902   3.786 -0.8052  2.0208  0.7992
 5187SOL    HW216778   4.153   0.819   3.879 -1.2608  0.4161 -0.1566
 5188SOL     OW16779   2.107   0.130   2.517  0.2472  0.3753 -0.3392
 5188SOL    HW116780   2.195   0.166   2.523  0.4276  0.0981 -1.2290
 5188SOL    HW216781   2.100   0.071   2.592  0.5827  0.8756  0.0964
 5189SOL     OW16782   3.789   0.181   2.095 -0.2981  0.7528  0.1632
 5189SOL    HW116783   3.851   0.113   2.121 -1.5848 -1.4921 -2.1193
 5189SOL    HW216784   3.737   0.198   2.173  1.3312  0.5998  1.3268
 5190SOL     OW16785   3.356   0.888   2.838  0.3231 -0.1117  0.3868
 5190SOL    HW116786   3.382   0.846   2.919  0.5224 -0.4490  0.1482
 5190SOL    HW216787   3.420   0.859   2.773 -1.4902 -2.2745 -0.6004
 5191SOL     OW16788   3.252   1.423   3.752 -0.5426 -0.3218 -0.0073
 5191SOL    HW116789   3.302   1.424   3.670  1.9037 -0.3129  1.4132
 5191SOL    HW216790   3.199   1.503   3.749 -2.1639 -1.3533 -2.4659
 5192SOL     OW16791   3.886   1.497   3.477 -0.2540  0.4511  0.2161
 5192SOL    HW116792   3.823   1.426   3.470 -0.5299  0.6754  0.3866
 5192SOL    HW216793   3.865   1.540   3.560 -0.7523  1.3438 -0.3506
 5193SOL     OW16794   2.388   0.826   3.526 -0.5099 -0.1773 -0.1023
 5193SOL    HW116795   2.406   0.763   3.456 -1.3914  1.5534 -2.0043
 5193SOL    HW216796   2.298   0.856   3.509  0.1496  2.1830  0.1913
 5194SOL     OW16797   3.549   8.465   1.654 -0.0912  0.0199 -0.1228
 5194SOL    HW116798   3.463   8.461   1.695 -0.7189 -0.3692 -1.4210
 5194SOL    HW216799   3.603   8.514   1.716 -0.5403 -1.8744  1.8939
 5195SOL     OW16800   3.175   0.636   2.060  0.6106 -0.6728  0.1890
 5195SOL    HW116801   3.264   0.617   2.090  0.4065 -2.1700 -0.0686
 5195SOL    HW216802   3.186   0.670   1.971  0.9872  0.4348  0.6364
 5196SOL     OW16803   2.935   1.521   3.118 -0.2661 -0.0481  0.1340
 5196SOL    HW116804   2.980   1.604   3.135 -1.0814  0.0981  1.7282
 5196SOL    HW216805   2.880   1.539   3.042  1.2780  0.1620 -1.0006
 5197SOL     OW16806   2.258   0.951   2.841 -0.1727  0.8969  0.4894
 5197SOL    HW116807   2.267   0.894   2.765  1.6534  1.7661  0.0239
 5197SOL    HW216808   2.181   1.004   2.822  0.2755  1.1189 -0.7728
 5198SOL     OW16809   1.951   0.349   2.644 -0.4316  0.0630  0.1249
 5198SOL    HW116810   1.995   0.295   2.578  0.0933  0.9387 -0.2495
 5198SOL    HW216811   1.985   0.318   2.728  1.8218  1.4766 -0.1868
 5199SOL     OW16812   3.057   0.253   3.872  0.1406  0.3846  0.1724
 5199SOL    HW116813   2.990   0.321   3.871 -1.0298 -0.7264  0.0985
 5199SOL    HW216814   3.038   0.199   3.796 -1.1556 -2.0107  2.0436
 5200SOL     OW16815   2.630   0.243   3.445  0.1273  0.1044  0.0687
 5200SOL    HW116816   2.564   0.229   3.512  1.3228 -0.5044  1.1624
 5200SOL    HW216817   2.653   0.156   3.415 -0.0088  0.3453 -0.7656
 5201SOL     OW16818   2.296   0.959   2.393 -0.6252  0.0080  0.1392
 5201SOL    HW116819   2.249   0.992   2.470  2.6159  1.1665  1.8161
 5201SOL    HW216820   2.379   1.007   2.394  0.4088 -1.5110 -2.9024
 5202SOL     OW16821   2.145   2.122   2.777  0.3803 -0.1314 -0.5137
 5202SOL    HW116822   2.133   2.067   2.700  0.5696 -2.5676  1.1078
 5202SOL    HW216823   2.056   2.138   2.809  0.3907 -0.6278 -0.2342
 5203SOL     OW16824   2.701   2.013   2.612  0.1613  0.0774 -0.0317
 5203SOL    HW116825   2.733   2.068   2.683  0.2370  1.5014 -1.1396
 5203SOL    HW216826   2.620   1.975   2.646 -0.1380  1.2372  0.5979
 5204SOL     OW16827   2.847   0.554   2.945 -0.0292 -0.0670 -0.2759
 5204SOL    HW116828   2.931   0.526   2.981  0.6467 -0.0554 -1.7830
 5204SOL    HW216829   2.841   0.509   2.861 -3.0327 -2.6964  1.1266
 5205SOL     OW16830   1.990   0.526   2.932 -0.2638  0.1736  0.2031
 5205SOL    HW116831   1.945   0.446   2.904  0.7764  0.2778 -2.0145
 5205SOL    HW216832   2.083   0.509   2.911  0.0274  1.7759  0.0973
 5206SOL     OW16833   1.953   0.712   3.690  0.1509 -0.2987  0.4525
 5206SOL    HW116834   1.913   0.710   3.604 -1.2556 -2.5243  1.0626
 5206SOL    HW216835   2.044   0.685   3.675  0.1485  0.1362 -0.4022
 5207SOL     OW16836   2.998   0.603   4.145  0.6468  0.4297  0.3762
 5207SOL    HW116837   3.036   0.607   4.058  0.6372  0.4108  0.3710
 5207SOL    HW216838   2.964   0.514   4.152  1.3793  0.1631  0.7037
 5208SOL     OW16839   2.907   0.581   2.104 -0.5644 -0.0243 -0.5562
 5208SOL    HW116840   2.876   0.671   2.090 -1.3976  0.0952  1.6422
 5208SOL    HW216841   3.002   0.590   2.116 -0.7740  0.7459  0.7025
 5209SOL     OW16842   3.664   0.456   3.499  0.1570  0.3621 -0.5132
 5209SOL    HW116843   3.732   0.517   3.469 -0.2194  1.1208  0.1496
 5209SOL    HW216844   3.605   0.448   3.424  0.1493  0.8997 -0.5696
 5210SOL     OW16845   2.260   1.942   3.461 -0.6223 -0.2570  0.2586
 5210SOL    HW116846   2.308   1.870   3.420  1.3586  0.2811  1.5283
 5210SOL    HW216847   2.201   1.899   3.524 -0.2356 -0.8110  0.2468
 5211SOL     OW16848   2.257   0.440   2.898 -0.5689 -0.1247 -0.5299
 5211SOL    HW116849   2.231   0.368   2.955 -2.1670  1.1081  0.3869
 5211SOL    HW216850   2.303   0.501   2.955  1.1585 -0.5446 -1.3826
 5212SOL     OW16851   3.115   1.560   3.444  0.5455 -0.0242 -0.8380
 5212SOL    HW116852   3.054   1.600   3.383 -0.8781 -0.1782  0.4242
 5212SOL    HW216853   3.173   1.631   3.472 -1.8452  1.2523  1.2586
 5213SOL     OW16854   2.203   0.720   1.893 -0.4502  0.1281  0.1157
 5213SOL    HW116855   2.249   0.638   1.908 -0.8146  0.3209  2.7164
 5213SOL    HW216856   2.270   0.787   1.901 -0.6646  0.2385  1.1588
 5214SOL     OW16857   2.172   1.362   3.632 -0.4451  0.4178 -0.5155
 5214SOL    HW116858   2.261   1.327   3.640 -0.1157  1.1164 -1.0278
 5214SOL    HW216859   2.123   1.294   3.586 -0.0743  0.1931 -0.5768
 5215SOL     OW16860   2.707   0.629   3.214  0.1700 -0.5256 -0.1881
 5215SOL    HW116861   2.677   0.581   3.137 -1.9153 -0.8970  0.7875
 5215SOL    HW216862   2.715   0.563   3.283  0.7269  0.0036  0.2827
 5216SOL     OW16863   3.426   0.602   2.361  0.4636 -0.0595  0.2086
 5216SOL    HW116864   3.431   0.647   2.277  0.1350 -1.0221 -0.3403
 5216SOL    HW216865   3.512   0.615   2.400  0.2104  1.5032  0.3284
 5217SOL     OW16866   3.749   1.382   3.136 -0.3301  0.9340  0.6143
 5217SOL    HW116867   3.691   1.451   3.104 -1.9665 -0.3441  0.6974
 5217SOL    HW216868   3.705   1.348   3.214  1.4443  1.1076  1.7421
 5218SOL     OW16869   3.217   1.674   2.809 -0.0130 -0.1098 -0.0216
 5218SOL    HW116870   3.231   1.603   2.872 -0.6318 -0.6032 -0.4324
 5218SOL    HW216871   3.259   1.643   2.728 -0.1723  0.0460 -0.1650
 5219SOL     OW16872   2.115   0.949   3.118  0.3684  0.2396  0.0371
 5219SOL    HW116873   2.115   1.038   3.152  2.3128  0.0326  0.6896
 5219SOL    HW216874   2.089   0.959   3.026 -0.4461  1.3394  0.3704
 5220SOL     OW16875   2.889   1.572   3.773 -0.0057  0.0444  0.0127
 5220SOL    HW116876   2.963   1.633   3.777  0.0326 -0.0097  0.1250
 5220SOL    HW216877   2.896   1.521   3.853  0.1260 -0.2970 -0.2137
 5221SOL     OW16878   3.615   0.190   2.327 -0.0274  0.1962 -0.0331
 5221SOL    HW116879   3.672   0.237   2.387  0.9345  0.4664 -1.1133
 5221SOL    HW216880   3.564   0.132   2.382  0.3979  0.8596  1.0948
 5222SOL     OW16881   3.658   1.616   2.579 -0.0179  0.4623 -0.1254
 5222SOL    HW116882   3.588   1.640   2.640  0.7095  0.7193  0.6287
 5222SOL    HW216883   3.679   1.697   2.533 -0.5367  0.2780 -0.6962
 5223SOL     OW16884   2.352   2.272   3.878 -0.0416  0.5847  0.0599
 5223SOL    HW116885   2.336   2.179   3.897 -0.1919  0.6352  0.1815
 5223SOL    HW216886   2.446   2.277   3.863 -0.3371 -0.0900 -2.6530
 5224SOL     OW16887   3.664   1.089   2.449  0.0250  0.3101 -0.2834
 5224SOL    HW116888   3.680   1.184   2.446 -0.1471  0.3417 -0.2094
 5224SOL    HW216889   3.579   1.080   2.493 -1.3759  0.2707 -2.8098
 5225SOL     OW16890   2.656   1.391   3.728  0.0220  0.7768  0.0209
 5225SOL    HW116891   2.617   1.444   3.798  2.1689 -0.6111  2.4443
 5225SOL    HW216892   2.750   1.404   3.737  0.4965 -1.5774 -0.8031
 5226SOL     OW16893   2.655   1.701   2.242  0.5442 -0.0340  0.4445
 5226SOL    HW116894   2.723   1.633   2.242 -0.3858 -1.0003 -0.2831
 5226SOL    HW216895   2.698   1.777   2.281  1.2927 -1.3517  2.3343
 5227SOL     OW16896   3.426   1.534   3.324  0.2075 -0.6083 -0.0997
 5227SOL    HW116897   3.455   1.578   3.404 -0.2519 -1.2215  0.4039
 5227SOL    HW216898   3.395   1.605   3.268 -0.5269 -0.2761  0.7096
 5228SOL     OW16899   3.148   8.450   2.430 -0.7147  0.1774  0.7642
 5228SOL    HW116900   3.122   8.377   2.374  0.5102  1.0332 -1.0488
 5228SOL    HW216901   3.116   8.427   2.517 -2.4926 -1.3528 -0.2160
 5229SOL     OW16902   1.891   0.206   2.379 -0.3007 -0.4924  0.6312
 5229SOL    HW116903   1.819   0.144   2.378 -2.4903  1.7946  2.9201
 5229SOL    HW216904   1.960   0.163   2.430 -0.7788 -1.8972  0.1509
 5230SOL     OW16905   3.620   1.655   1.834  0.4366  0.1446 -0.3637
 5230SOL    HW116906   3.630   1.562   1.852  0.0152  0.3446  1.0942
 5230SOL    HW216907   3.618   1.662   1.739  0.5194 -1.3280 -0.4885
 5231SOL     OW16908   2.900   0.801   3.256  0.3971  0.2041 -0.1790
 5231SOL    HW116909   2.814   0.759   3.259  0.1871  0.5543 -0.9777
 5231SOL    HW216910   2.910   0.828   3.165  0.7091  1.5076  0.2248
 5232SOL     OW16911   3.221   0.987   2.408  0.6845  0.1503  0.0987
 5232SOL    HW116912   3.127   1.006   2.399  1.0130  1.6231 -0.7114
 5232SOL    HW216913   3.225   0.899   2.445 -1.0163  0.0729  0.1770
 5233SOL     OW16914   3.582   1.703   2.112 -1.0100  0.2825 -0.1923
 5233SOL    HW116915   3.498   1.657   2.112 -0.1240 -1.4660  1.4537
 5233SOL    HW216916   3.598   1.722   2.020 -3.3859  1.0775 -0.5327
 5234SOL     OW16917   2.816   1.738   3.374 -0.3313  0.3010  0.0182
 5234SOL    HW116918   2.758   1.810   3.349  0.5834  2.5400  3.5824
 5234SOL    HW216919   2.768   1.692   3.443  1.6099  1.7723  2.5392
 5235SOL     OW16920   3.322   0.923   3.141  0.3738 -0.2751  0.1314
 5235SOL    HW116921   3.249   0.964   3.188  0.3682 -0.8930  0.6782
 5235SOL    HW216922   3.292   0.833   3.124  1.1611 -0.6674  0.7310
 5236SOL     OW16923   3.173   1.414   2.442 -0.1118  0.7535  0.0547
 5236SOL    HW116924   3.140   1.476   2.507 -1.7118 -0.8078  0.8045
 5236SOL    HW216925   3.121   1.335   2.455 -0.0324  0.1484 -2.7159
 5237SOL     OW16926   3.289   0.294   2.853  0.1028 -1.0353 -0.3301
 5237SOL    HW116927   3.234   0.247   2.917 -1.4471 -1.0241 -1.5793
 5237SOL    HW216928   3.376   0.293   2.892 -0.5340 -2.0837  1.2183
 5238SOL     OW16929   2.635   1.439   2.691  0.0210  0.2758 -0.2115
 5238SOL    HW116930   2.659   1.531   2.696 -1.3193  0.6632 -0.3446
 5238SOL    HW216931   2.542   1.437   2.712 -0.3063 -0.8692 -1.5375
 5239SOL     OW16932   4.025   0.423   3.219 -0.0628 -0.1487 -0.0517
 5239SOL    HW116933   4.019   0.444   3.312 -0.1674 -0.7005  0.0674
 5239SOL    HW216934   4.089   0.353   3.214 -1.8191 -1.8316 -0.0954
 5240SOL     OW16935   2.292   1.267   2.608  0.1641  0.4255 -0.3569
 5240SOL    HW116936   2.330   1.352   2.632 -0.8804  1.4879 -2.2133
 5240SOL    HW216937   2.212   1.261   2.660  0.2368  0.5980 -0.2230
 5241SOL     OW16938   2.019   1.166   3.488 -0.0079  0.5191 -0.8267
 5241SOL    HW116939   2.053   1.179   3.399  1.0461  0.7043 -0.4024
 5241SOL    HW216940   2.045   1.077   3.510  0.6239  0.8284 -0.3171
 5242SOL     OW16941   2.329   0.038   3.381  0.3842 -0.4179 -0.5811
 5242SOL    HW116942   2.424   0.037   3.395  0.0831 -1.1496  2.0577
 5242SOL    HW216943   2.300   0.119   3.423 -0.2977 -1.0166  0.1362
 5243SOL     OW16944   1.847   0.445   1.520  0.2200 -0.1244  0.3879
 5243SOL    HW116945   1.921   0.411   1.471 -1.0438 -0.9292 -1.0666
 5243SOL    HW216946   1.880   0.524   1.563  1.6729  0.0114 -0.9074
 5244SOL     OW16947   3.234   0.579   3.552 -0.5858 -0.4466 -0.3883
 5244SOL    HW116948   3.250   0.641   3.481 -1.3457  1.4184  1.0245
 5244SOL    HW216949   3.142   0.555   3.543 -0.5050 -0.7516 -0.4308
 5245SOL     OW16950   1.666   8.794   1.893  0.4256  0.1048  0.5770
 5245SOL    HW116951   1.711   8.719   1.853  0.8242  0.5005  0.2804
 5245SOL    HW216952   1.727   8.867   1.885 -0.5167  0.8222 -0.4678
 5246SOL     OW16953   3.385   1.393   2.279 -0.4275  0.4736 -0.2788
 5246SOL    HW116954   3.357   1.439   2.199 -0.7094  0.0170 -0.4418
 5246SOL    HW216955   3.304   1.364   2.320 -0.2414 -0.0938 -0.3025
 5247SOL     OW16956   2.898   0.485   3.880 -0.0364 -0.7661  0.9635
 5247SOL    HW116957   2.898   0.481   3.785 -0.3918  0.7511  0.8810
 5247SOL    HW216958   2.811   0.519   3.903 -0.6809 -2.8758  1.9539
 5248SOL     OW16959   3.361   1.919   2.836 -0.2833  0.3260  0.3117
 5248SOL    HW116960   3.437   1.861   2.840  0.8861  1.5781 -1.7795
 5248SOL    HW216961   3.286   1.860   2.831  0.6281 -0.9548  1.2188
 5249SOL     OW16962   2.684   0.198   3.003 -0.1676  0.1030  0.2083
 5249SOL    HW116963   2.668   0.204   3.097 -1.8011  1.2238 -0.1060
 5249SOL    HW216964   2.754   0.134   2.995  1.0293  1.0465  2.2791
 5250SOL     OW16965   3.140   0.994   3.862  0.6112  1.0611 -0.0202
 5250SOL    HW116966   3.158   1.085   3.887  0.3161  1.1467 -0.1186
 5250SOL    HW216967   3.055   0.974   3.900  0.4646  0.9745 -0.3847
 5251SOL     OW16968   2.044   2.282   3.483  0.0213  0.3678 -0.0380
 5251SOL    HW116969   2.120   2.337   3.467  1.2074 -0.8569  1.1399
 5251SOL    HW216970   2.024   2.296   3.576 -0.4111 -0.2724 -0.0307
 5252SOL     OW16971   3.365   0.838   3.488  0.2178  0.2287  0.0209
 5252SOL    HW116972   3.291   0.805   3.439  1.5164 -0.3395 -1.6481
 5252SOL    HW216973   3.340   0.927   3.514 -2.0139 -0.8184  1.7178
 5253SOL     OW16974   2.963   0.187   2.233  0.1612  0.6644 -0.4747
 5253SOL    HW116975   3.021   0.192   2.309  0.8762  0.4079 -0.9859
 5253SOL    HW216976   3.010   0.130   2.172 -0.5589  0.5975 -0.9682
 5254SOL     OW16977   2.992   0.673   2.618 -0.2256 -0.0868  0.1955
 5254SOL    HW116978   3.071   0.661   2.565 -0.7849  0.7802 -0.8701
 5254SOL    HW216979   3.012   0.749   2.674 -0.1262 -0.1658  0.2665
 5255SOL     OW16980   3.597   8.688   3.766  0.4153  0.5943  0.1498
 5255SOL    HW116981   3.532   8.706   3.698  0.0296 -0.1706  0.2981
 5255SOL    HW216982   3.634   8.774   3.789 -0.8969  1.1090  0.4100
 5256SOL     OW16983   3.661   0.869   3.473  0.1976 -0.0775  0.9086
 5256SOL    HW116984   3.655   0.923   3.552 -1.2708  0.1316  0.6748
 5256SOL    HW216985   3.571   0.859   3.444  0.7161 -0.1135 -0.7875
 5257SOL     OW16986   3.016   1.219   2.514 -0.5085 -0.4469 -0.0110
 5257SOL    HW116987   2.942   1.162   2.491 -0.1041 -0.7634 -0.5558
 5257SOL    HW216988   3.037   1.196   2.604 -2.2419  0.9376  0.8065
 5258SOL     OW16989   2.811   2.226   2.779  0.0903  0.5168 -0.2975
 5258SOL    HW116990   2.763   2.301   2.815  1.0361  0.3531  1.4244
 5258SOL    HW216991   2.901   2.241   2.805  0.5806 -0.4084 -1.3870
 5259SOL     OW16992   2.751   1.059   3.045  0.4549  0.2492 -0.0054
 5259SOL    HW116993   2.811   0.988   3.022  0.0080 -0.5911  1.3285
 5259SOL    HW216994   2.666   1.031   3.011  0.7307  1.3878 -1.7961
 5260SOL     OW16995   2.928   0.991   2.340  0.6404  0.1320  0.0834
 5260SOL    HW116996   2.855   0.961   2.393  0.2723 -0.4306 -0.7096
 5260SOL    HW216997   2.933   0.927   2.268  0.9429  1.0251 -0.7074
 5261SOL     OW16998   3.722   1.198   2.832 -0.3467  0.0189 -0.2274
 5261SOL    HW116999   3.648   1.244   2.791 -0.9490 -0.0651  0.7423
 5261SOL    HW217000   3.708   1.209   2.926  0.9166  0.0508 -0.0262
 5262SOL     OW17001   2.108   1.791   3.633  0.4427 -0.6044  0.2167
 5262SOL    HW117002   2.142   1.721   3.577  1.4440  1.6566 -2.2103
 5262SOL    HW217003   2.148   1.776   3.718  1.6152 -2.2419 -0.5717
 5263SOL     OW17004   2.372   1.267   3.079 -0.4415 -0.5566  0.6828
 5263SOL    HW117005   2.423   1.204   3.028  0.0252  0.5957 -0.3140
 5263SOL    HW217006   2.398   1.250   3.170  1.5136 -0.2037  0.2338
 5264SOL     OW17007   2.717   1.658   3.595  0.6366 -0.4647 -0.5171
 5264SOL    HW117008   2.792   1.630   3.647  0.9350  1.2457  0.0360
 5264SOL    HW217009   2.642   1.648   3.654  0.8984  0.9107  0.1033
 5265SOL     OW17010   3.806   8.791   3.174 -0.7158  0.4951 -0.4769
 5265SOL    HW117011   3.860   8.738   3.233 -0.1747  0.5175 -0.9431
 5265SOL    HW217012   3.854   8.791   3.091 -1.4695  0.4619 -0.9216
 5266SOL     OW17013   1.958   0.670   1.948 -0.2917 -0.1944 -0.5536
 5266SOL    HW117014   1.963   0.605   2.019 -0.4305 -1.3220 -1.5406
 5266SOL    HW217015   2.049   0.693   1.931 -0.3207  1.7765  1.4275
 5267SOL     OW17016   3.566   1.039   3.135 -0.3083 -0.1967  0.2606
 5267SOL    HW117017   3.597   0.999   3.054 -0.1631 -2.4475  1.3448
 5267SOL    HW217018   3.477   1.007   3.145 -0.7171  0.9650  0.4508
 5268SOL     OW17019   2.338   0.681   3.078 -0.3934  0.4355 -0.4619
 5268SOL    HW117020   2.396   0.706   3.006  0.3757 -0.3060 -0.1179
 5268SOL    HW217021   2.316   0.763   3.120  1.1116  0.6879 -0.0884
 5269SOL     OW17022   3.021   1.592   2.589 -0.0405 -0.0941  0.0214
 5269SOL    HW117023   2.962   1.661   2.558  0.7182  0.5936  0.0747
 5269SOL    HW217024   3.062   1.628   2.668  1.5513  0.0679 -0.8223
 5270SOL     OW17025   3.721   0.130   2.813  0.2895 -0.1691  0.3878
 5270SOL    HW117026   3.735   0.035   2.816  1.3527 -0.0444  0.0340
 5270SOL    HW217027   3.631   0.142   2.843  0.9798 -1.0841  3.1416
 5271SOL     OW17028   3.059   0.269   2.663  0.2788  0.1799 -0.6840
 5271SOL    HW117029   3.132   0.246   2.721  1.0574 -0.1519 -1.7569
 5271SOL    HW217030   3.070   0.211   2.588 -1.5230 -0.3737 -0.5616
 5272SOL     OW17031   2.713   0.989   2.521 -0.6363 -0.0405 -0.0524
 5272SOL    HW117032   2.701   1.039   2.602 -0.5677  0.1825 -0.1791
 5272SOL    HW217033   2.646   1.023   2.461 -0.0667  0.4709 -0.4093
 5273SOL     OW17034   2.515   1.900   3.017 -0.4882 -0.3064  0.3398
 5273SOL    HW117035   2.484   1.956   2.945 -0.1060  0.5524  0.8339
 5273SOL    HW217036   2.517   1.957   3.093  2.1971 -0.3300  0.3769
 5274SOL     OW17037   3.501   8.696   2.109  0.5795 -0.1399  0.0358
 5274SOL    HW117038   3.490   8.791   2.112 -0.1514 -0.2417  1.2311
 5274SOL    HW217039   3.471   8.671   2.022  3.8338  1.0257 -1.5973
 5275SOL     OW17040   3.262   0.723   2.524 -0.0142 -0.0197 -0.2903
 5275SOL    HW117041   3.318   0.681   2.460 -1.2709 -1.4526 -0.5024
 5275SOL    HW217042   3.277   0.675   2.605 -0.0572  0.3539 -0.0574
 5276SOL     OW17043   3.480   8.699   2.838  0.2383  0.5710  0.0490
 5276SOL    HW117044   3.573   8.713   2.857  0.2582  0.7320 -0.1571
 5276SOL    HW217045   3.434   8.751   2.904  0.2737 -0.3357  0.8112
 5277SOL     OW17046   1.903   0.843   2.135  0.4647 -0.4849  0.2659
 5277SOL    HW117047   1.993   0.832   2.164  0.2120 -0.9405  0.8898
 5277SOL    HW217048   1.896   0.788   2.057  0.8665 -0.0464 -0.0819
 5278SOL     OW17049   3.252   1.829   2.254  0.2947  0.3353 -0.4171
 5278SOL    HW117050   3.216   1.741   2.266 -0.0359  0.3359 -1.3751
 5278SOL    HW217051   3.178   1.881   2.223  0.7856  0.6540 -1.0764
 5279SOL     OW17052   2.201   0.605   3.684  0.5252 -0.2636 -0.2358
 5279SOL    HW117053   2.220   0.603   3.778  2.0930 -2.6887 -0.5144
 5279SOL    HW217054   2.281   0.572   3.643 -0.7931 -1.0885 -2.2803
 5280SOL     OW17055   2.318   0.125   4.947 -0.6680  0.0708  0.1736
 5280SOL    HW117056   2.396   0.089   4.904 -0.2243  0.5302  0.5771
 5280SOL    HW217057   2.260   0.050   4.957 -0.4909 -0.1797 -0.5917
 5281SOL     OW17058   1.872   0.534   4.250  0.1275 -0.4107 -0.2399
 5281SOL    HW117059   1.963   0.562   4.259 -0.4451  1.5529 -0.0867
 5281SOL    HW217060   1.826   0.576   4.323 -1.0964 -0.5128 -0.9155
 5282SOL     OW17061   2.596   1.248   5.652 -0.1611 -0.0421  0.1225
 5282SOL    HW117062   2.516   1.277   5.609  0.7191  1.8163 -0.3589
 5282SOL    HW217063   2.565   1.204   5.732 -1.6748 -0.4124 -0.6249
 5283SOL     OW17064   3.499   1.294   4.592 -0.6583  0.1823 -0.0366
 5283SOL    HW117065   3.572   1.269   4.534  0.5496  0.4909  1.2948
 5283SOL    HW217066   3.456   1.366   4.545 -0.0817  0.0397 -0.8204
 5284SOL     OW17067   2.709   0.188   4.696  0.0559 -0.6067 -0.1952
 5284SOL    HW117068   2.751   0.273   4.709 -0.3139 -0.4029 -0.3080
 5284SOL    HW217069   2.781   0.127   4.684  0.3106 -0.0414 -1.7750
 5285SOL     OW17070   3.210   0.748   4.234 -0.5913 -0.4163  0.0181
 5285SOL    HW117071   3.159   0.792   4.302  0.9267 -0.6657  1.3756
 5285SOL    HW217072   3.150   0.682   4.199 -0.9928 -1.2656  2.1406
 5286SOL     OW17073   3.059   1.083   4.992  0.3491  0.2527  0.2929
 5286SOL    HW117074   3.020   1.081   5.079  0.3939  0.5786  0.3228
 5286SOL    HW217075   2.988   1.108   4.934  0.3170  0.0252  0.2312
 5287SOL     OW17076   3.370   0.240   5.608 -0.5209  0.5645 -0.0908
 5287SOL    HW117077   3.433   0.232   5.537 -0.9269  0.1625 -0.4170
 5287SOL    HW217078   3.394   0.170   5.669  1.5831  2.6168  1.6106
 5288SOL     OW17079   2.498   0.628   4.249  0.4507  0.2127 -0.1682
 5288SOL    HW117080   2.484   0.674   4.167  2.3579  1.5897  0.2031
 5288SOL    HW217081   2.485   0.694   4.317 -1.9526 -1.1082  0.7648
 5289SOL     OW17082   2.593   1.008   5.781  0.9678  0.3549 -0.4370
 5289SOL    HW117083   2.678   1.053   5.782 -0.5874  3.5182  0.1824
 5289SOL    HW217084   2.596   0.949   5.857  2.4127  0.7633 -0.1519
 5290SOL     OW17085   2.392   1.003   4.780 -0.2795  0.1217 -0.5040
 5290SOL    HW117086   2.440   1.056   4.716  0.5618  0.5231  0.4303
 5290SOL    HW217087   2.390   0.915   4.741  0.5112  0.2795 -0.9387
 5291SOL     OW17088   3.141   1.912   5.414  0.2626  0.4381  0.3180
 5291SOL    HW117089   3.076   1.917   5.344 -0.1546 -1.5009  0.5166
 5291SOL    HW217090   3.222   1.888   5.369 -0.0165 -0.8577  0.4698
 5292SOL     OW17091   2.279   0.359   5.089  0.4309 -0.6847  0.4310
 5292SOL    HW117092   2.328   0.296   5.037  1.6155 -0.4378  1.2203
 5292SOL    HW217093   2.194   0.317   5.103 -0.0268 -0.6595 -1.8602
 5293SOL     OW17094   2.842   0.021   5.016  0.2354  0.0327 -0.3568
 5293SOL    HW117095   2.891   0.092   4.974 -0.0424 -0.3432 -1.3552
 5293SOL    HW217096   2.907  -0.048   5.032  0.3722  0.2387 -0.0177
 5294SOL     OW17097   2.268   2.002   4.227 -0.5022  0.0188 -0.5273
 5294SOL    HW117098   2.212   1.926   4.247  0.2080 -0.8722 -1.7798
 5294SOL    HW217099   2.232   2.073   4.280  0.3317 -1.7501  2.7390
 5295SOL     OW17100   3.043   1.543   5.683 -0.3901  0.4773  0.3064
 5295SOL    HW117101   2.956   1.532   5.722  0.1183  0.3268  1.4577
 5295SOL    HW217102   3.075   1.454   5.670 -0.0608  0.5274  0.7316
 5296SOL     OW17103   2.247   1.707   3.866 -0.0224  0.5328  0.1536
 5296SOL    HW117104   2.314   1.702   3.934 -0.0516  0.8350  0.2080
 5296SOL    HW217105   2.180   1.643   3.892 -0.0252  0.6359  0.4003
 5297SOL     OW17106   2.428   0.951   5.062  0.0325  0.5810 -0.5947
 5297SOL    HW117107   2.479   0.872   5.044 -0.6177 -0.2476  1.0006
 5297SOL    HW217108   2.407   0.986   4.976  1.0057 -0.5387 -1.3244
 5298SOL     OW17109   2.766   1.477   5.656 -0.3604 -0.2472  0.3885
 5298SOL    HW117110   2.727   1.550   5.704  0.0026 -0.4937  1.0791
 5298SOL    HW217111   2.699   1.408   5.659 -0.5477 -0.0791  0.0780
 5299SOL     OW17112   2.334   1.202   4.016  0.9416  0.4811 -0.1866
 5299SOL    HW117113   2.385   1.133   4.058  0.2961  0.3281  0.3696
 5299SOL    HW217114   2.269   1.155   3.963  2.4838  0.6565 -2.3591
 5300SOL     OW17115   3.762   8.546   5.088 -0.1408  0.4063 -0.0588
 5300SOL    HW117116   3.774   8.506   5.002 -0.0309 -2.5501  1.2226
 5300SOL    HW217117   3.704   8.620   5.071  0.9854  0.8125 -2.8479
 5301SOL     OW17118   2.060   0.222   4.288 -0.1833  0.8200  0.7629
 5301SOL    HW117119   2.095   0.176   4.365  0.0904  0.5685  0.4964
 5301SOL    HW217120   2.128   0.211   4.222 -1.0162 -0.1959  0.0373
 5302SOL     OW17121   3.644   1.632   4.506  0.4261 -0.1751  0.4355
 5302SOL    HW117122   3.690   1.553   4.532  2.0272  0.6820  0.3517
 5302SOL    HW217123   3.712   1.691   4.474 -1.0122  0.1238 -2.5160
 5303SOL     OW17124   2.168   1.620   3.437  0.1443  0.1005  0.1175
 5303SOL    HW117125   2.254   1.633   3.397 -0.7631  3.4909 -1.0528
 5303SOL    HW217126   2.127   1.552   3.384  0.8633  0.8892 -1.4952
 5304SOL     OW17127   3.409   0.943   4.369 -0.2073 -0.2509 -0.3429
 5304SOL    HW117128   3.483   0.904   4.416  0.3337 -1.9539 -2.4291
 5304SOL    HW217129   3.401   0.890   4.290 -3.3262  0.2404 -0.4653
 5305SOL     OW17130   3.419   0.925   3.870 -0.1604 -0.0338 -0.0275
 5305SOL    HW117131   3.432   0.901   3.961 -0.3441  0.9495  0.2671
 5305SOL    HW217132   3.326   0.944   3.863  0.0039  0.7541 -0.1980
 5306SOL     OW17133   1.810   1.173   5.259  0.1707  0.6229  0.0065
 5306SOL    HW117134   1.870   1.242   5.286 -0.3849  0.2130  2.5331
 5306SOL    HW217135   1.866   1.107   5.218  1.6989 -0.2372  3.2256
 5307SOL     OW17136   2.015   0.812   4.345 -0.2696  0.3759 -0.1563
 5307SOL    HW117137   2.072   0.757   4.292  1.0857 -0.2064  1.7903
 5307SOL    HW217138   1.995   0.887   4.290 -0.3903 -0.9957 -2.0927
 5308SOL     OW17139   3.206   1.321   5.127 -0.1524  0.3344  0.0149
 5308SOL    HW117140   3.141   1.338   5.195 -1.5548  2.7156 -1.7436
 5308SOL    HW217141   3.167   1.251   5.074 -0.8780  1.0400 -0.4235
 5309SOL     OW17142   2.433   8.513   4.644 -0.2027  0.2658 -0.4434
 5309SOL    HW117143   2.342   8.543   4.640 -0.1493  0.2511 -2.0980
 5309SOL    HW217144   2.485   8.592   4.628  0.0692  0.1485 -0.1586
 5310SOL     OW17145   2.573   1.066   5.319  0.3766  0.2714 -0.3900
 5310SOL    HW117146   2.656   1.059   5.273  0.6404 -1.5169  0.2669
 5310SOL    HW217147   2.519   0.996   5.283 -1.2204  1.9401 -1.4387
 5311SOL     OW17148   3.054   1.072   4.166 -0.2537  0.8338  0.2393
 5311SOL    HW117149   3.126   1.043   4.110 -0.3152  0.2428  0.4589
 5311SOL    HW217150   3.048   1.005   4.234 -0.9894  0.8987  0.2444
 5312SOL     OW17151   3.412   2.144   5.464  0.2342  0.0681 -0.1991
 5312SOL    HW117152   3.345   2.212   5.472 -0.5552 -0.2920 -2.9250
 5312SOL    HW217153   3.412   2.100   5.549 -2.4531  0.5984  0.1455
 5313SOL     OW17154   2.184   0.101   5.533  0.3880 -0.2683 -0.4600
 5313SOL    HW117155   2.257   0.144   5.489  0.9880  1.2670  1.8523
 5313SOL    HW217156   2.220   0.018   5.564  0.2153 -0.9353 -1.9680
 5314SOL     OW17157   3.680   1.228   4.382 -0.0544 -0.2694  0.2047
 5314SOL    HW117158   3.717   1.142   4.404  2.9945  1.2322  1.6019
 5314SOL    HW217159   3.717   1.247   4.296  1.7722  0.7832  1.1499
 5315SOL     OW17160   3.777   2.023   4.543 -0.6666 -0.4345 -0.2072
 5315SOL    HW117161   3.829   1.944   4.561 -1.2874 -0.9041 -0.4367
 5315SOL    HW217162   3.698   2.012   4.596  0.5236  1.4827  2.1713
 5316SOL     OW17163   2.567   0.143   4.121 -0.3135  0.0623  0.1059
 5316SOL    HW117164   2.519   0.205   4.176  0.6179  2.8572 -1.9940
 5316SOL    HW217165   2.658   0.173   4.123  0.6429 -2.6138  0.7045
 5317SOL     OW17166   3.394   0.216   5.205  0.2648  0.1117 -0.0442
 5317SOL    HW117167   3.468   0.210   5.265  0.0111  0.3018  0.2931
 5317SOL    HW217168   3.324   0.167   5.248  0.2545 -0.2280 -0.4509
 5318SOL     OW17169   3.239   1.387   4.156 -0.1428 -0.0153  0.2360
 5318SOL    HW117170   3.194   1.318   4.108 -1.6913  0.1862  1.3351
 5318SOL    HW217171   3.300   1.341   4.214 -0.6689 -0.4415  0.4584
 5319SOL     OW17172   2.624   0.514   5.464  0.7400  0.6618 -0.1050
 5319SOL    HW117173   2.547   0.511   5.408  0.3344  2.2206  0.3156
 5319SOL    HW217174   2.651   0.423   5.474 -0.3174  0.2049 -1.2506
 5320SOL     OW17175   3.970   0.270   5.556 -0.5308 -0.6347 -0.1112
 5320SOL    HW117176   3.905   0.264   5.626  0.3636 -3.5362  0.6143
 5320SOL    HW217177   4.053   0.289   5.601 -0.2099 -0.9173 -0.5691
 5321SOL     OW17178   2.980   0.640   5.309 -0.1476  0.0354 -0.3426
 5321SOL    HW117179   3.020   0.660   5.225  0.3057  0.6771  0.0255
 5321SOL    HW217180   3.031   0.567   5.343  1.3976  1.4969  0.5903
 5322SOL     OW17181   2.835   0.462   4.713  0.4609 -0.7630 -0.5955
 5322SOL    HW117182   2.868   0.421   4.633  1.2913 -0.0126 -0.6598
 5322SOL    HW217183   2.842   0.556   4.696  0.3567 -0.6003  0.2398
 5323SOL     OW17184   2.699   8.793   4.380 -0.8743  0.1716 -0.2382
 5323SOL    HW117185   2.714   8.704   4.348  1.1215 -0.6614  2.6245
 5323SOL    HW217186   2.612   8.791   4.420 -1.4914  0.0144 -1.5223
 5324SOL     OW17187   2.005   0.300   4.617  0.1685  0.4079 -0.0643
 5324SOL    HW117188   1.947   0.267   4.548 -1.8251 -1.7250  2.4348
 5324SOL    HW217189   1.963   0.381   4.646  0.1814  0.5183 -0.3516
 5325SOL     OW17190   1.537   1.518   5.424  0.5375  0.1026 -0.5519
 5325SOL    HW117191   1.576   1.581   5.365  2.0622  0.7929  1.1173
 5325SOL    HW217192   1.610   1.486   5.478 -0.7544 -0.5209  0.9200
 5326SOL     OW17193   2.719   0.003   3.814  0.2018 -0.1771 -0.1172
 5326SOL    HW117194   2.792  -0.021   3.873  1.4302  0.2411 -1.4084
 5326SOL    HW217195   2.712   0.098   3.822  0.1319 -0.1613 -0.3674
 5327SOL     OW17196   3.511   0.498   5.409 -0.6250 -0.0655  0.2486
 5327SOL    HW117197   3.603   0.526   5.409 -0.4008 -0.7048 -0.9657
 5327SOL    HW217198   3.461   0.578   5.398 -0.0502  0.0566 -2.0073
 5328SOL     OW17199   2.773   0.775   4.141 -0.3894 -0.1916  0.2634
 5328SOL    HW117200   2.735   0.776   4.229  1.1283 -1.3363  0.9754
 5328SOL    HW217201   2.864   0.751   4.154  0.1649  0.7230 -1.5463
 5329SOL     OW17202   2.965   8.765   3.920  0.1579 -0.1366 -0.4901
 5329SOL    HW117203   3.038   8.723   3.874 -0.4061 -1.6254 -0.0823
 5329SOL    HW217204   2.977   8.739   4.011 -0.7421 -0.1723 -0.3791
 5330SOL     OW17205   3.089   1.345   4.642  1.1390 -0.5083  0.1408
 5330SOL    HW117206   3.069   1.371   4.552 -1.0906 -0.1539  0.6846
 5330SOL    HW217207   3.182   1.364   4.652  1.6672 -1.4511 -2.3558
 5331SOL     OW17208   2.495   1.765   5.023 -0.5002 -0.1144  0.4983
 5331SOL    HW117209   2.422   1.785   4.964 -1.4467 -0.3866  1.5478
 5331SOL    HW217210   2.484   1.673   5.045  1.2667 -0.6935 -0.7886
 5332SOL     OW17211   3.467   0.607   4.706  0.1846 -0.0573  0.0090
 5332SOL    HW117212   3.543   0.662   4.719  2.1696 -2.4606 -0.6156
 5332SOL    HW217213   3.393   0.667   4.703  2.1104  2.4371 -0.0085
 5333SOL     OW17214   3.713   1.385   5.282 -0.5872  0.6659 -0.3496
 5333SOL    HW117215   3.732   1.320   5.349  1.5411  0.4287 -1.1068
 5333SOL    HW217216   3.630   1.358   5.244 -1.0224 -0.0924  1.0967
 5334SOL     OW17217   2.417   0.813   4.022 -0.1521 -0.2507 -0.3752
 5334SOL    HW117218   2.427   0.905   4.046  0.0516 -0.4979  0.5347
 5334SOL    HW217219   2.468   0.803   3.942  1.7736 -0.0626  0.7644
 5335SOL     OW17220   2.983   0.640   4.492 -0.0732  0.4385  0.1240
 5335SOL    HW117221   2.890   0.641   4.468 -0.3304  0.2522  1.0639
 5335SOL    HW217222   3.006   0.547   4.493  0.1126  0.4825 -0.0577
 5336SOL     OW17223   3.135   1.280   5.676  0.3211 -0.0567 -0.0133
 5336SOL    HW117224   3.191   1.207   5.703  1.0248 -0.1264 -1.5432
 5336SOL    HW217225   3.123   1.267   5.582 -0.5388  1.1428 -0.0931
 5337SOL     OW17226   3.486   1.539   4.234  0.3060 -0.2510 -0.4384
 5337SOL    HW117227   3.534   1.544   4.317  0.6476  1.6858 -0.6900
 5337SOL    HW217228   3.413   1.481   4.252  1.2140 -1.0793  0.7741
 5338SOL     OW17229   1.988   0.826   5.557 -0.6218 -0.2433  0.1922
 5338SOL    HW117230   1.903   0.871   5.558 -0.6504 -0.0073 -2.8031
 5338SOL    HW217231   1.965   0.733   5.558 -0.9597 -0.1816 -0.4727
 5339SOL     OW17232   3.153   1.248   3.941  0.2420 -0.3573 -0.4062
 5339SOL    HW117233   3.082   1.311   3.960  1.8173  0.8670  2.0321
 5339SOL    HW217234   3.207   1.292   3.876  0.5227  0.1625  0.1725
 5340SOL     OW17235   2.335   1.757   4.571  0.5670 -0.7927 -0.4237
 5340SOL    HW117236   2.250   1.714   4.570  0.8861 -1.5047  0.6287
 5340SOL    HW217237   2.316   1.850   4.566 -0.1943 -0.9920 -1.7138
 5341SOL     OW17238   3.028   8.659   4.480 -0.1111  0.0955  0.0440
 5341SOL    HW117239   2.987   8.666   4.394  0.0438  2.0102  0.0883
 5341SOL    HW217240   3.118   8.633   4.460  0.5185  2.4640 -0.6075
 5342SOL     OW17241   2.704   1.580   5.291 -0.1986 -0.0690 -0.3309
 5342SOL    HW117242   2.722   1.542   5.205  2.4214  1.9922 -0.8253
 5342SOL    HW217243   2.640   1.521   5.330 -0.3762 -1.9049 -3.0892
 5343SOL     OW17244   2.783   1.105   4.235  0.4312  0.2878 -0.0049
 5343SOL    HW117245   2.799   1.034   4.298 -0.3295 -1.4992 -1.7254
 5343SOL    HW217246   2.868   1.118   4.192  0.0829 -1.2206 -1.2401
 5344SOL     OW17247   2.213   0.156   4.530  0.0057  0.0262  0.2354
 5344SOL    HW117248   2.308   0.169   4.535  0.2881 -1.1639 -1.4418
 5344SOL    HW217249   2.177   0.238   4.564  1.6383  1.1627 -0.6287
 5345SOL     OW17250   3.901   8.794   5.610 -0.1933 -0.1246 -0.1672
 5345SOL    HW117251   3.918   8.706   5.578 -0.4581  0.6471 -2.6474
 5345SOL    HW217252   3.986   8.837   5.612 -0.1873 -0.1463  0.1045
 5346SOL     OW17253   2.303   8.638   3.719 -0.6853  0.1239 -0.2101
 5346SOL    HW117254   2.374   8.637   3.784 -0.6949  1.6350 -0.1279
 5346SOL    HW217255   2.256   8.720   3.737 -2.6171 -0.9584 -0.1057
 5347SOL     OW17256   2.599   0.067   5.272  0.0241 -0.3467  0.2865
 5347SOL    HW117257   2.678   0.022   5.302  0.7326 -0.0125 -0.9994
 5347SOL    HW217258   2.541  -0.004   5.243  2.0051 -0.5831 -3.8652
 5348SOL     OW17259   2.865   1.476   4.784  0.4599 -0.0470  0.6749
 5348SOL    HW117260   2.922   1.429   4.723 -1.4750 -1.3579 -0.2289
 5348SOL    HW217261   2.868   1.567   4.755 -0.2917 -0.6168 -1.3538
 5349SOL     OW17262   3.605   0.189   5.418  0.2993 -0.2596  0.3015
 5349SOL    HW117263   3.605   0.094   5.432  0.9447 -0.1423  1.2539
 5349SOL    HW217264   3.698   0.211   5.411  0.1066 -0.0233 -2.6069
 5350SOL     OW17265   2.693   0.941   4.832 -0.6597 -0.1255  0.1675
 5350SOL    HW117266   2.602   0.968   4.818 -0.7360 -0.0294  0.8161
 5350SOL    HW217267   2.745   1.019   4.812 -0.7767  0.0488  0.5278
 5351SOL     OW17268   2.656   0.209   5.053 -0.1087 -0.3643  0.0686
 5351SOL    HW117269   2.618   0.174   5.134  1.9851 -1.9139  0.4390
 5351SOL    HW217270   2.723   0.146   5.027  1.0571  1.3798 -1.4768
 5352SOL     OW17271   2.458   8.482   4.090 -0.2647 -0.1334  0.4904
 5352SOL    HW117272   2.370   8.512   4.113  0.3113  2.8843 -0.8210
 5352SOL    HW217273   2.493   8.445   4.171 -2.8427 -1.8545  0.9280
 5353SOL     OW17274   2.945   1.452   3.996 -0.2577  0.1708 -0.0403
 5353SOL    HW117275   2.884   1.385   4.026 -0.2461  0.4498  0.6338
 5353SOL    HW217276   2.915   1.532   4.039  1.1602  0.1203  1.1059
 5354SOL     OW17277   2.216   8.520   4.185  0.2954 -0.2599 -0.0524
 5354SOL    HW117278   2.163   8.537   4.263 -0.3289 -0.7722 -0.3607
 5354SOL    HW217279   2.156   8.478   4.124  0.9829 -0.5598 -0.5256
 5355SOL     OW17280   2.789   8.519   4.346  0.5440 -0.2034 -0.1492
 5355SOL    HW117281   2.832   8.489   4.266 -0.5441  0.5186 -1.0382
 5355SOL    HW217282   2.828   8.466   4.415  3.1766  0.7171 -0.8168
 5356SOL     OW17283   3.514   0.662   5.651  0.5409  0.2605  0.3332
 5356SOL    HW117284   3.484   0.614   5.574  0.0352 -0.0422  0.7204
 5356SOL    HW217285   3.608   0.641   5.657  0.3658 -0.5223  0.3855
 5357SOL     OW17286   3.150   1.170   4.425 -0.5755 -0.8757 -0.4210
 5357SOL    HW117287   3.083   1.238   4.429  1.8935  1.7779 -1.0885
 5357SOL    HW217288   3.167   1.159   4.331  0.7396 -0.5906 -0.2310
 5358SOL     OW17289   2.400   0.379   4.243  0.0286 -0.1025 -0.0223
 5358SOL    HW117290   2.426   0.470   4.232  2.5565 -0.7467  0.1876
 5358SOL    HW217291   2.397   0.366   4.337 -1.1509 -0.0676 -0.0332
 5359SOL     OW17292   3.232   1.863   4.649  0.2453  0.0546  0.0926
 5359SOL    HW117293   3.247   1.941   4.702  0.1389  1.8029 -2.2958
 5359SOL    HW217294   3.320   1.833   4.625  0.3198  1.3989 -1.5591
 5360SOL     OW17295   2.627   0.277   3.809 -0.3188 -0.5859  0.0218
 5360SOL    HW117296   2.625   0.355   3.864  0.6908  0.3066 -1.1377
 5360SOL    HW217297   2.538   0.269   3.774 -0.0258  1.1302 -1.2521
 5361SOL     OW17298   2.256   0.623   5.055  0.0247 -0.5113 -0.1018
 5361SOL    HW117299   2.244   0.530   5.072  2.6381 -0.7495  0.8117
 5361SOL    HW217300   2.210   0.666   5.128  0.5895 -1.1684  0.6571
 5362SOL     OW17301   2.518   0.017   4.798 -0.4057  0.4923 -0.1782
 5362SOL    HW117302   2.593   0.076   4.800 -1.3770  1.7604  0.7309
 5362SOL    HW217303   2.555  -0.069   4.781  1.6185  0.5634  3.0466
 5363SOL     OW17304   2.899   8.841   4.641 -0.1918 -0.2034  0.2026
 5363SOL    HW117305   2.922   8.922   4.595 -0.1152  0.4501  1.3508
 5363SOL    HW217306   2.944   8.772   4.592  2.3534  0.7791  0.9989
 5364SOL     OW17307   2.872   8.322   4.521  0.3743  0.6208  0.0280
 5364SOL    HW117308   2.907   8.333   4.609 -0.0130  0.6046  0.1888
 5364SOL    HW217309   2.868   8.227   4.508 -0.4057  0.5997  0.3441
 5365SOL     OW17310   3.231   0.739   4.599  0.3501  0.1003  0.2176
 5365SOL    HW117311   3.256   0.831   4.591  1.5560 -0.2107  0.2153
 5365SOL    HW217312   3.149   0.732   4.548  1.3253  0.7467 -1.5303
 5366SOL     OW17313   3.185   0.142   5.338 -0.5477  0.4290 -0.0113
 5366SOL    HW117314   3.091   0.125   5.333 -0.3808 -1.0956  1.2611
 5366SOL    HW217315   3.219   0.073   5.395  0.9602  2.5160  1.7531
 5367SOL     OW17316   3.393   0.538   4.416 -1.1507  0.1641  0.1748
 5367SOL    HW117317   3.355   0.620   4.383 -0.5015  0.4343  0.0739
 5367SOL    HW217318   3.421   0.559   4.505  1.5361  0.9300 -0.7367
 5368SOL     OW17319   2.442   1.649   4.022  0.7660  0.2280 -0.5083
 5368SOL    HW117320   2.466   1.719   4.083  1.1617  0.5098 -0.9760
 5368SOL    HW217321   2.448   1.569   4.074 -1.5255  0.6759  0.5611
 5369SOL     OW17322   4.092   1.310   4.162 -0.3851  0.6343 -0.4097
 5369SOL    HW117323   4.037   1.387   4.146 -0.0517  1.2863  1.3210
 5369SOL    HW217324   4.160   1.342   4.221  0.2492 -0.8108 -0.3245
 5370SOL     OW17325   3.262   0.566   3.830  0.1092 -0.2682 -0.6678
 5370SOL    HW117326   3.336   0.621   3.805  0.0059 -0.0184 -0.4294
 5370SOL    HW217327   3.210   0.558   3.750  0.3922 -0.4408 -0.8337
 5371SOL     OW17328   2.520   8.668   3.853  0.7433 -0.1271  0.8198
 5371SOL    HW117329   2.563   8.615   3.920  1.2484  1.6875  2.0362
 5371SOL    HW217330   2.582   8.740   3.836  0.5668 -0.4733 -1.5486
 5372SOL     OW17331   3.478   1.284   5.124  0.3574  0.5866 -0.0797
 5372SOL    HW117332   3.386   1.294   5.147 -0.0928 -1.6341 -0.7323
 5372SOL    HW217333   3.478   1.269   5.030  1.6267  2.9055 -0.5233
 5373SOL     OW17334   3.283   1.589   5.117 -0.0257  0.0699 -0.2150
 5373SOL    HW117335   3.283   1.557   5.207 -0.1270  0.3911 -0.0971
 5373SOL    HW217336   3.264   1.513   5.063  1.0677 -0.3502 -0.0420
 5374SOL     OW17337   3.796   1.446   5.821  0.0163  0.1335  0.6242
 5374SOL    HW117338   3.846   1.490   5.889  2.3972 -1.2926 -0.0810
 5374SOL    HW217339   3.763   1.367   5.863 -0.6274  0.4756  0.7668
 5375SOL     OW17340   3.305   1.044   4.881  0.4530  0.4295 -0.2185
 5375SOL    HW117341   3.284   1.040   4.787  1.4150  2.5675 -0.5786
 5375SOL    HW217342   3.219   1.050   4.923  0.0489  1.1719 -1.0987
 5376SOL     OW17343   3.189   0.439   4.984  0.0257  0.0918  0.2476
 5376SOL    HW117344   3.232   0.387   5.052  1.5406  1.1730  0.1416
 5376SOL    HW217345   3.257   0.495   4.949 -0.4407 -1.0681 -2.8664
 5377SOL     OW17346   2.906   0.127   5.297  0.0685 -0.2391 -0.4784
 5377SOL    HW117347   2.893   0.127   5.202 -1.9188  0.1863 -0.2409
 5377SOL    HW217348   2.879   0.039   5.325  0.4256 -0.2841 -0.2659
 5378SOL     OW17349   3.081   1.230   5.406  0.4031  0.2529 -0.2180
 5378SOL    HW117350   3.107   1.140   5.385  0.8426 -0.6041  3.2937
 5378SOL    HW217351   2.986   1.227   5.413  0.5323 -0.6586  2.1814
 5379SOL     OW17352   2.211   0.336   4.052 -0.4111  0.1289 -0.5994
 5379SOL    HW117353   2.286   0.308   4.104 -0.6731 -0.3728 -0.4847
 5379SOL    HW217354   2.239   0.419   4.012  0.2034 -0.0534 -0.5622
 5380SOL     OW17355   2.503   0.754   5.293 -0.0624  0.3863 -0.7346
 5380SOL    HW117356   2.463   0.668   5.306  0.9392 -0.1424 -1.0393
 5380SOL    HW217357   2.553   0.746   5.211  1.2125  0.8036 -0.0303
 5381SOL     OW17358   3.147   0.407   5.373 -0.3247 -0.4946 -0.1696
 5381SOL    HW117359   3.135   0.315   5.353 -1.8340 -0.1717 -0.8983
 5381SOL    HW217360   3.233   0.429   5.337 -0.9267 -1.0894 -2.1057
 5382SOL     OW17361   2.232   1.248   4.700 -0.4224 -0.1797  0.0091
 5382SOL    HW117362   2.165   1.195   4.656 -0.0839 -0.7785  0.2114
 5382SOL    HW217363   2.311   1.195   4.695 -0.4834 -0.5074  1.7947
 5383SOL     OW17364   2.362   0.519   4.528 -0.0462  0.0870  0.1498
 5383SOL    HW117365   2.451   0.534   4.562  0.3676 -0.8130 -0.4902
 5383SOL    HW217366   2.317   0.474   4.599  0.8512 -1.8956 -0.4507
 5384SOL     OW17367   2.088   8.712   4.373  0.3177  0.1004 -0.6645
 5384SOL    HW117368   2.071   8.712   4.467 -0.9612 -0.9868 -0.8640
 5384SOL    HW217369   2.023   8.772   4.336  1.0926  0.8630 -0.8353
 5385SOL     OW17370   2.632   1.300   4.389  0.3580 -0.5876  0.1797
 5385SOL    HW117371   2.672   1.386   4.403 -0.6666  0.1858 -1.3823
 5385SOL    HW217372   2.701   1.248   4.349  0.3130  0.2448 -1.0250
 5386SOL     OW17373   3.007   1.710   5.177 -0.3567  0.0380  0.2100
 5386SOL    HW117374   3.004   1.665   5.262 -1.9718 -1.0014 -0.3503
 5386SOL    HW217375   3.094   1.688   5.142 -0.3691 -1.0522  0.8048
 5387SOL     OW17376   3.545   1.157   4.058 -0.2783  0.0996 -0.3920
 5387SOL    HW117377   3.540   1.252   4.056  0.0056  0.1415 -3.0537
 5387SOL    HW217378   3.486   1.131   4.129  0.7961  2.2569  1.3889
 5388SOL     OW17379   2.072   1.110   4.539  0.2409  0.0430 -0.2643
 5388SOL    HW117380   2.126   1.033   4.521  0.8695  0.5578 -0.6052
 5388SOL    HW217381   2.054   1.147   4.452  0.2056  0.4603 -0.0798
 5389SOL     OW17382   3.218   0.835   5.567  0.2645  0.1341  0.6326
 5389SOL    HW117383   3.261   0.808   5.648  0.8864  2.4829  1.1512
 5389SOL    HW217384   3.128   0.854   5.593  0.3317  0.4031  0.6685
 5390SOL     OW17385   3.468   0.957   5.682 -0.2731 -0.1478 -0.0416
 5390SOL    HW117386   3.522   0.948   5.760 -1.3498  0.4693  0.8082
 5390SOL    HW217387   3.477   0.873   5.636  0.4459 -0.4798  0.6859
 5391SOL     OW17388   2.871   0.011   5.694 -0.2337 -0.0100  0.4949
 5391SOL    HW117389   2.890   0.010   5.788 -0.1178 -0.5694  0.4677
 5391SOL    HW217390   2.949   0.052   5.654 -0.5253  0.7510  0.6882
 5392SOL     OW17391   1.964   8.735   5.422 -0.7138  0.7186  0.2453
 5392SOL    HW117392   1.880   8.778   5.406 -1.2086 -0.8430 -1.7685
 5392SOL    HW217393   2.020   8.805   5.455 -2.0441  2.4486 -0.9332
 5393SOL     OW17394   2.414   0.844   4.399 -0.6443 -0.0583 -0.2140
 5393SOL    HW117395   2.391   0.922   4.347 -1.8192 -0.6140 -0.5486
 5393SOL    HW217396   2.350   0.842   4.470  0.5680  0.3373  0.9356
 5394SOL     OW17397   2.859   0.790   4.995  0.4426 -0.3543  0.1046
 5394SOL    HW117398   2.939   0.774   4.946  0.0196  0.8418 -1.0357
 5394SOL    HW217399   2.807   0.848   4.939 -0.0739  1.0909  1.9344
 5395SOL     OW17400   3.158   0.378   4.244  0.1041 -0.3357  0.3871
 5395SOL    HW117401   3.114   0.312   4.190  0.6970 -0.6684  0.3165
 5395SOL    HW217402   3.234   0.405   4.192  1.3571 -1.5018  1.5476
 5396SOL     OW17403   2.165   8.739   4.951  0.2257  0.9016  0.1553
 5396SOL    HW117404   2.201   8.682   4.883 -0.3432 -0.4027  0.9091
 5396SOL    HW217405   2.208   8.710   5.032 -0.1962  1.4294  0.5766
 5397SOL     OW17406   2.189   1.404   4.909 -0.2063  0.3696 -0.0543
 5397SOL    HW117407   2.216   1.344   4.839 -0.1407  0.5019 -0.1428
 5397SOL    HW217408   2.137   1.471   4.865 -0.8419  0.0129  0.1452
 5398SOL     OW17409   2.603   0.638   4.704 -0.5373 -0.5608  0.7563
 5398SOL    HW117410   2.621   0.577   4.775 -1.4886  0.5098  1.9707
 5398SOL    HW217411   2.570   0.717   4.748 -1.9366 -0.1574 -0.9080
 5399SOL     OW17412   3.740   1.136   5.767 -0.5514 -0.2439 -0.1722
 5399SOL    HW117413   3.666   1.186   5.731  0.2740  0.9335 -0.2844
 5399SOL    HW217414   3.703   1.050   5.786 -1.2511 -0.6725 -2.9918
 5400SOL     OW17415   1.846   8.651   4.585 -0.0096 -0.5286  0.1750
 5400SOL    HW117416   1.835   8.689   4.498  0.2800  1.1669  0.8302
 5400SOL    HW217417   1.876   8.724   4.640 -0.0716 -1.5689  1.6764
 5401SOL     OW17418   2.879   0.150   4.388 -0.1453 -0.5532 -0.7531
 5401SOL    HW117419   2.822   0.076   4.367  2.0580 -2.3767 -0.6935
 5401SOL    HW217420   2.924   0.168   4.306  0.4424 -0.3072 -0.3778
 5402SOL     OW17421   2.736   0.624   4.423 -0.2121  0.9693 -0.2240
 5402SOL    HW117422   2.695   0.584   4.500  0.6789  0.9960  0.2784
 5402SOL    HW217423   2.684   0.593   4.349  0.1325 -0.7191  0.1941
 5403SOL     OW17424   2.979   1.774   5.589  0.4358 -0.6324  0.3980
 5403SOL    HW117425   3.010   1.686   5.607  2.5728  0.0677  0.4212
 5403SOL    HW217426   3.055   1.819   5.552 -0.8595  0.9474 -0.5013
 5404SOL     OW17427   3.372   1.673   5.602  0.1876 -0.2718 -0.3576
 5404SOL    HW117428   3.463   1.650   5.621 -0.0783 -1.5851 -0.5764
 5404SOL    HW217429   3.377   1.761   5.564  1.0700  0.9325  2.3020
 5405SOL     OW17430   2.180   0.687   5.727  0.2309  0.5152  0.4613
 5405SOL    HW117431   2.141   0.669   5.813 -0.7077  0.3867  0.0240
 5405SOL    HW217432   2.168   0.781   5.715  1.8685  0.8499  1.1738
 5406SOL     OW17433   3.029   0.171   4.129  0.5039 -0.0976  0.0519
 5406SOL    HW117434   3.045   0.077   4.126 -0.0335 -0.1817 -0.4234
 5406SOL    HW217435   3.056   0.202   4.042  1.6751  0.3607  0.5564
 5407SOL     OW17436   2.724   0.397   4.110  0.3705 -0.4843  0.0029
 5407SOL    HW117437   2.670   0.467   4.073  0.7225  0.5798  1.4146
 5407SOL    HW217438   2.763   0.355   4.034 -0.4228  0.3872 -0.9221
 5408SOL     OW17439   2.861   1.089   4.514 -0.3296 -0.1332 -0.0987
 5408SOL    HW117440   2.784   1.037   4.493  0.3226 -0.3275 -2.2191
 5408SOL    HW217441   2.827   1.162   4.566 -2.1610  0.3791 -1.8811
 5409SOL     OW17442   2.503   0.711   5.016  0.2402 -0.2479  0.2058
 5409SOL    HW117443   2.552   0.630   5.024 -0.2745 -0.6943 -0.9563
 5409SOL    HW217444   2.412   0.687   5.033  0.0934  0.0888 -0.0735
 5410SOL     OW17445   2.230   0.389   4.786  0.8577 -0.3247 -0.0973
 5410SOL    HW117446   2.146   0.361   4.750  0.0133  0.6310  1.0417
 5410SOL    HW217447   2.256   0.317   4.844  0.2273 -0.1388  0.4403
 5411SOL     OW17448   2.437   0.140   5.503 -0.3853  0.1347 -0.0940
 5411SOL    HW117449   2.480   0.092   5.432 -1.0665 -1.3853  0.4594
 5411SOL    HW217450   2.503   0.202   5.533  1.3697 -1.8902  0.5083
 5412SOL     OW17451   2.677   0.256   5.596  0.1168  0.5184  0.3235
 5412SOL    HW117452   2.708   0.174   5.635 -2.3481 -0.2412  0.8450
 5412SOL    HW217453   2.744   0.320   5.620  0.5552 -0.6973  2.6963
 5413SOL     OW17454   1.902   1.459   3.723 -0.4464  0.0050 -0.2367
 5413SOL    HW117455   1.985   1.461   3.677  0.2612 -1.1381  0.9350
 5413SOL    HW217456   1.845   1.406   3.667  0.3323 -1.1793  0.0654
 5414SOL     OW17457   2.121   1.757   4.274 -0.2648  0.7183  0.2954
 5414SOL    HW117458   2.134   1.767   4.369  0.2537 -0.4030  0.3617
 5414SOL    HW217459   2.169   1.677   4.252 -2.0847 -0.1998 -0.5550
 5415SOL     OW17460   2.218   0.843   4.601  0.2539  0.2189 -0.2676
 5415SOL    HW117461   2.122   0.838   4.607  0.2902  0.4983  0.6852
 5415SOL    HW217462   2.249   0.762   4.642  0.4372  0.2561 -0.3300
 5416SOL     OW17463   2.711   0.610   5.157 -1.1947 -0.3888 -0.0173
 5416SOL    HW117464   2.727   0.526   5.113 -3.1965 -0.5659 -0.5214
 5416SOL    HW217465   2.753   0.675   5.101 -2.2094 -0.7879 -1.2870
 5417SOL     OW17466   2.291   0.660   4.784  0.2104 -0.0711  0.0275
 5417SOL    HW117467   2.279   0.566   4.774 -2.7137 -0.2104  3.0775
 5417SOL    HW217468   2.273   0.677   4.876  0.8015  3.4882 -0.3518
 5418SOL     OW17469   2.092   0.699   5.314  0.2125  0.3154 -0.1633
 5418SOL    HW117470   2.113   0.791   5.299 -1.6595  0.6265 -1.1726
 5418SOL    HW217471   2.056   0.697   5.403  0.0864  0.5893 -0.2068
 5419SOL     OW17472   3.609   1.061   5.215 -0.0189  0.0960 -0.5525
 5419SOL    HW117473   3.537   1.037   5.274  1.8143 -0.2801  1.6428
 5419SOL    HW217474   3.576   1.138   5.169 -1.5828  0.3565  0.8813
 5420SOL     OW17475   2.343   8.760   4.608  0.6550  0.5847 -0.1615
 5420SOL    HW117476   2.325   8.831   4.545  0.2284 -0.9409 -1.8525
 5420SOL    HW217477   2.399   8.800   4.674  1.8344  2.0831 -1.9659
 5421SOL     OW17478   3.594   0.425   5.104  0.6288  0.3132 -0.0452
 5421SOL    HW117479   3.566   0.400   5.192  0.2295 -0.7647 -0.4618
 5421SOL    HW217480   3.670   0.370   5.087  0.5892  0.3840 -0.4483
 5422SOL     OW17481   2.223   1.692   5.740 -0.1427 -0.1410 -0.0426
 5422SOL    HW117482   2.136   1.651   5.743 -0.3747  0.2307 -1.2221
 5422SOL    HW217483   2.216   1.769   5.796 -0.9097  0.4775 -0.9575
 5423SOL     OW17484   2.646   0.457   4.913 -0.0284 -0.0962  0.4634
 5423SOL    HW117485   2.644   0.364   4.937 -0.0588 -0.4357 -0.7579
 5423SOL    HW217486   2.723   0.466   4.857 -0.2475  0.5217  0.2477
 5424SOL     OW17487   2.633   1.343   4.827 -0.3493  0.5104 -0.4867
 5424SOL    HW117488   2.686   1.417   4.798  0.1098 -0.3513 -1.9813
 5424SOL    HW217489   2.590   1.374   4.907  1.6607  1.5670  0.2799
 5425SOL     OW17490   2.392   0.219   3.648  0.2543  0.2911 -0.5398
 5425SOL    HW117491   2.330   0.264   3.590  0.7320 -0.3776 -1.6066
 5425SOL    HW217492   2.339   0.154   3.695 -0.0875  0.6501 -0.4204
 5426SOL     OW17493   2.084   1.236   5.157  0.6739 -0.5447  0.0151
 5426SOL    HW117494   2.043   1.318   5.185 -0.2786 -1.0011 -0.0096
 5426SOL    HW217495   2.144   1.262   5.087 -0.4171  0.0180 -0.7448
 5427SOL     OW17496   2.814   0.892   5.228 -0.4306  0.1110  0.2356
 5427SOL    HW117497   2.854   0.979   5.239  0.6727 -0.2752 -0.5563
 5427SOL    HW217498   2.825   0.872   5.135 -0.3955 -1.0019  0.4614
 5428SOL     OW17499   3.026   0.908   4.404 -0.6325 -0.0356  0.0804
 5428SOL    HW117500   3.007   0.983   4.460 -0.4483 -0.6718  1.0302
 5428SOL    HW217501   2.973   0.837   4.441 -0.0429 -0.6202 -0.1757
 5429SOL     OW17502   3.625   1.810   5.436 -0.0723 -0.4609  0.3617
 5429SOL    HW117503   3.592   1.867   5.367 -0.7464  0.1368  1.1464
 5429SOL    HW217504   3.674   1.867   5.494 -0.2503 -0.7817  0.8404
 5430SOL     OW17505   3.071   2.213   4.685  0.0348  0.0890 -0.2966
 5430SOL    HW117506   3.008   2.224   4.614 -0.5065 -0.4888  0.0854
 5430SOL    HW217507   3.031   2.147   4.742  1.0614 -0.4153 -0.1374
 5431SOL     OW17508   2.822   1.185   5.462 -0.0090  0.4315  0.0471
 5431SOL    HW117509   2.796   1.227   5.544  1.2375  0.2313  0.5574
 5431SOL    HW217510   2.761   1.112   5.452  1.6286 -1.3979  2.3734
 5432SOL     OW17511   2.948   1.506   5.412  0.5754  0.1871 -0.0067
 5432SOL    HW117512   2.906   1.489   5.497  0.4216 -2.3804 -0.5047
 5432SOL    HW217513   2.875   1.507   5.350  0.9768 -4.6936 -0.9391
 5433SOL     OW17514   3.197   0.042   4.329 -0.2068 -0.1771  0.1620
 5433SOL    HW117515   3.275   0.074   4.284 -1.2424 -0.7850 -2.2351
 5433SOL    HW217516   3.205   0.076   4.418  2.1846  0.7521 -0.3338
 5434SOL     OW17517   3.354   1.516   4.504 -0.2736  0.2983 -0.2184
 5434SOL    HW117518   3.306   1.584   4.456 -0.4064  0.7068  0.4841
 5434SOL    HW217519   3.424   1.562   4.548 -1.5534  0.3307  1.9017
 5435SOL     OW17520   1.962   2.107   5.985  0.3026 -0.3089 -0.2375
 5435SOL    HW117521   2.024   2.117   6.058 -1.3589  3.1842  0.9396
 5435SOL    HW217522   1.981   2.180   5.927  0.0157 -1.6725 -2.1479
 5436SOL     OW17523   3.051   0.701   4.825 -0.1027 -0.4819 -0.0674
 5436SOL    HW117524   3.059   0.608   4.846  0.1910 -0.1686  1.3527
 5436SOL    HW217525   3.119   0.718   4.760  0.2986 -1.1273  0.1796
 5437SOL     OW17526   2.888   1.185   4.798  0.4855  0.1247 -0.3366
 5437SOL    HW117527   2.853   1.274   4.801 -1.4690 -0.5126 -2.1533
 5437SOL    HW217528   2.977   1.195   4.764 -0.3227  1.2811 -2.2458
 5438SOL     OW17529   2.758   1.535   4.455 -0.2398 -0.2307 -0.3821
 5438SOL    HW117530   2.703   1.613   4.451  0.6410  0.3809 -2.8015
 5438SOL    HW217531   2.841   1.565   4.492  0.1915  0.1017 -1.5602
 5439SOL     OW17532   3.260   2.070   5.076  0.6326 -0.1672  0.3513
 5439SOL    HW117533   3.196   2.054   5.146 -1.1130 -1.7547 -1.4896
 5439SOL    HW217534   3.309   1.988   5.069 -1.0370 -1.0767 -1.9681
 5440SOL     OW17535   3.242   0.123   4.797 -0.2917  0.2106  0.0575
 5440SOL    HW117536   3.260   0.169   4.715 -1.7852  1.3005  0.3029
 5440SOL    HW217537   3.328   0.107   4.836  0.4682 -0.6002 -1.8402
 5441SOL     OW17538   2.488   0.179   4.531 -0.1448 -0.1763 -0.2331
 5441SOL    HW117539   2.537   0.163   4.611  1.0618 -0.0550 -0.9219
 5441SOL    HW217540   2.535   0.250   4.487  0.8951 -2.0544 -2.3695
 5442SOL     OW17541   3.265   1.327   3.388  0.5188 -0.2889 -0.0741
 5442SOL    HW117542   3.191   1.383   3.411  0.7476 -0.5924  1.5756
 5442SOL    HW217543   3.334   1.387   3.362  0.1658  0.0913 -0.1375
 5443SOL     OW17544   2.713   0.842   5.531 -0.3470 -0.3883 -0.1610
 5443SOL    HW117545   2.659   0.810   5.603 -1.9337 -1.3706 -1.7125
 5443SOL    HW217546   2.654   0.897   5.480  1.0662  1.2583 -0.1365
 5444SOL     OW17547   2.471   0.514   3.620  0.2153 -0.0433 -0.2200
 5444SOL    HW117548   2.501   0.561   3.542 -0.0142  0.6292  0.0971
 5444SOL    HW217549   2.473   0.422   3.594  0.6710  0.1376 -0.8410
 5445SOL     OW17550   3.505   1.544   3.605 -0.1290  0.1874 -0.2705
 5445SOL    HW117551   3.550   1.468   3.643 -0.5302 -1.0894 -2.2617
 5445SOL    HW217552   3.550   1.619   3.644  0.6370 -1.0431  1.3381
 5446SOL     OW17553   2.524   1.342   5.318  0.1212 -0.6167  0.3132
 5446SOL    HW117554   2.532   1.246   5.315 -1.0378 -0.7136 -2.2134
 5446SOL    HW217555   2.475   1.359   5.398  1.4031 -1.9903  1.4721
 5447SOL     OW17556   3.281   1.013   4.604 -0.3199  0.3321  0.5163
 5447SOL    HW117557   3.244   1.086   4.554  1.9283  1.7999  0.8892
 5447SOL    HW217558   3.351   0.979   4.548 -0.6848 -0.9210  0.7876
 5448SOL     OW17559   2.884   0.967   3.926  0.3880  0.1354 -0.2204
 5448SOL    HW117560   2.806   1.007   3.887  0.1415 -1.3062 -1.2463
 5448SOL    HW217561   2.851   0.921   4.003  0.3607  0.2103 -0.1868
 5449SOL     OW17562   2.856   8.277   5.091 -0.6864 -0.0363 -0.6239
 5449SOL    HW117563   2.807   8.352   5.058  1.3230  0.5365 -2.5385
 5449SOL    HW217564   2.831   8.204   5.033 -0.7868 -0.2407 -0.3258
 5450SOL     OW17565   2.219   1.351   4.358  0.8770 -0.1433  0.4088
 5450SOL    HW117566   2.143   1.356   4.300 -0.1850 -2.0568  1.5197
 5450SOL    HW217567   2.196   1.405   4.434  0.5567 -0.7995  0.7886
 5451SOL     OW17568   3.855   0.236   5.334  0.0336 -0.1586 -0.2207
 5451SOL    HW117569   3.907   0.240   5.415  0.0015 -0.8232 -0.1588
 5451SOL    HW217570   3.895   0.302   5.277  0.5254 -0.1962  0.0692
 5452SOL     OW17571   2.189   1.442   3.914 -0.1440 -0.5904  0.2954
 5452SOL    HW117572   2.166   1.420   3.824 -0.4161  0.1022  0.1972
 5452SOL    HW217573   2.255   1.376   3.938 -0.3559 -1.0171 -0.2708
 5453SOL     OW17574   2.161   0.970   5.230 -0.0307 -0.0476  0.3001
 5453SOL    HW117575   2.107   1.047   5.218 -0.3096 -0.2324  0.3647
 5453SOL    HW217576   2.238   0.986   5.175 -0.9513 -0.5584 -1.1954
 5454SOL     OW17577   2.074   0.346   5.993  0.2195  0.8675 -0.0391
 5454SOL    HW117578   2.090   0.432   5.954  0.2673 -0.2469 -2.7448
 5454SOL    HW217579   2.162   0.310   6.007  0.1977  1.1796  0.9664
 5455SOL     OW17580   1.948   0.179   3.745 -0.4225 -0.7601 -0.0144
 5455SOL    HW117581   1.929   0.241   3.674  0.8290 -1.0493 -0.6391
 5455SOL    HW217582   1.981   0.101   3.700  2.4299 -0.1974  0.9395
 5456SOL     OW17583   3.159   0.746   5.090 -0.4776  0.5865  0.3621
 5456SOL    HW117584   3.123   0.739   5.002 -2.4707  0.1955  1.1550
 5456SOL    HW217585   3.240   0.696   5.088 -0.8121  0.0769 -1.0938
 5457SOL     OW17586   2.234   0.054   3.788 -0.0954 -0.0212 -0.0184
 5457SOL    HW117587   2.283   0.020   3.863  0.5590  0.1636 -0.3592
 5457SOL    HW217588   2.174   0.118   3.826 -0.5133 -0.6942  0.4760
 5458SOL     OW17589   3.281   1.662   4.026  0.3502 -0.3100 -0.1774
 5458SOL    HW117590   3.261   1.585   3.972 -0.8904  1.0913 -1.8438
 5458SOL    HW217591   3.238   1.645   4.109 -0.4643 -1.1359 -0.7484
 5459SOL     OW17592   3.502   1.756   4.691 -0.0551 -0.2598  0.4939
 5459SOL    HW117593   3.551   1.837   4.710 -0.3460 -0.1905  0.9546
 5459SOL    HW217594   3.549   1.717   4.617  0.6836 -0.1829  0.9127
 5460SOL     OW17595   2.324   0.211   6.048 -0.3305 -0.5715  0.4043
 5460SOL    HW117596   2.310   0.154   5.973 -0.1022  0.4690 -0.4591
 5460SOL    HW217597   2.399   0.173   6.094 -1.2774 -1.9551  0.8633
 5461SOL     OW17598   3.396   1.003   5.384 -0.0301 -0.4276 -0.0679
 5461SOL    HW117599   3.380   0.971   5.473 -0.2705  1.3545  0.5719
 5461SOL    HW217600   3.309   1.017   5.347  0.0641  0.1578 -0.0727
 5462SOL     OW17601   2.496   1.446   5.065 -0.1918 -0.3565  1.0677
 5462SOL    HW117602   2.522   1.384   5.133  1.3544  0.9365  1.7190
 5462SOL    HW217603   2.407   1.472   5.090  0.2403 -0.1223  2.4538
 5463SOL     OW17604   3.405   0.596   5.010 -0.4111 -0.7684 -0.8759
 5463SOL    HW117605   3.463   0.530   5.047  0.3632  0.3029 -0.1134
 5463SOL    HW217606   3.462   0.651   4.957 -0.9991 -0.5635 -1.3026
 5464SOL     OW17607   3.010   0.371   4.485  0.3555 -0.3918  0.2794
 5464SOL    HW117608   3.079   0.384   4.420  0.5171 -0.8132  0.3665
 5464SOL    HW217609   2.962   0.294   4.454 -1.3192  1.0240 -0.8540
 5465SOL     OW17610   2.356   0.011   4.036  0.4632 -0.7138 -0.0494
 5465SOL    HW117611   2.435   0.063   4.048  0.6796 -0.4015 -2.2972
 5465SOL    HW217612   2.383  -0.079   4.053  0.5447 -0.3259  2.0568
 5466SOL     OW17613   3.873   0.069   5.120 -0.0532 -0.4831 -0.0960
 5466SOL    HW117614   3.855   0.120   5.199 -0.0309 -0.7050  0.0538
 5466SOL    HW217615   3.906  -0.015   5.153  0.6465 -0.3117 -0.3537
 5467SOL     OW17616   3.366   0.731   5.342 -0.4237  0.0314  0.2331
 5467SOL    HW117617   3.356   0.799   5.276 -0.5376 -0.0986  0.1156
 5467SOL    HW217618   3.316   0.762   5.417 -0.0546  0.3165  0.3651
 5468SOL     OW17619   2.477   1.398   4.131  0.5801  0.2111  0.0560
 5468SOL    HW117620   2.467   1.388   4.225  0.1339  0.9589  0.0951
 5468SOL    HW217621   2.413   1.337   4.094  1.4763 -0.8526  0.2091
 5469SOL     OW17622   2.695   1.733   4.832 -0.3724  0.2980 -0.4094
 5469SOL    HW117623   2.621   1.765   4.883 -0.2771  0.5648 -0.4400
 5469SOL    HW217624   2.772   1.772   4.874 -0.2793  0.3575 -0.6340
 5470SOL     OW17625   2.688   0.883   4.398  0.6098 -0.5054 -0.0512
 5470SOL    HW117626   2.732   0.802   4.425  0.5468 -1.0976 -1.6385
 5470SOL    HW217627   2.597   0.871   4.425  1.2459  0.6721  3.1392
 5471SOL     OW17628   2.581   0.533   3.908  0.3181 -0.2874 -0.0573
 5471SOL    HW117629   2.592   0.628   3.905 -0.9500 -0.0343  1.7305
 5471SOL    HW217630   2.526   0.513   3.832 -0.2901  0.5604  0.1421
 5472SOL     OW17631   3.349   1.463   4.831 -0.4942  0.3585  0.0247
 5472SOL    HW117632   3.427   1.518   4.821 -0.0093 -0.0584  1.3507
 5472SOL    HW217633   3.384   1.377   4.855 -1.2178 -0.6575 -2.2282
 5473SOL     OW17634   2.022   1.198   5.551  0.5520  0.1571  0.3360
 5473SOL    HW117635   1.935   1.161   5.533  0.4187  1.0125 -0.8418
 5473SOL    HW217636   2.057   1.141   5.620 -0.6503 -0.6336  0.3408
 5474SOL     OW17637   2.159   0.569   4.298  0.6745 -0.5201 -0.1383
 5474SOL    HW117638   2.220   0.610   4.359  2.7369 -0.4230 -2.1302
 5474SOL    HW217639   2.206   0.494   4.263 -0.6647 -0.9520 -1.1305
 5475SOL     OW17640   2.832   1.191   5.179 -0.1060  0.3265 -0.1963
 5475SOL    HW117641   2.840   1.279   5.144 -0.8614  0.2513 -0.5888
 5475SOL    HW217642   2.830   1.202   5.274  1.0894  0.6124 -0.1948
 5476SOL     OW17643   4.183   8.747   5.116  0.1739 -0.2218 -0.3683
 5476SOL    HW117644   4.218   8.804   5.183 -0.2462  0.5753 -0.8057
 5476SOL    HW217645   4.103   8.710   5.155  0.1167 -0.0297 -0.3014
 5477SOL     OW17646   2.105   8.824   4.087 -0.9251 -0.4756  0.0584
 5477SOL    HW117647   2.188   8.864   4.062 -0.6210 -0.2831  1.3192
 5477SOL    HW217648   2.129   8.737   4.119 -1.3634 -0.9210 -0.7947
 5478SOL     OW17649   3.407   1.831   4.957 -0.5358  0.4144  0.0076
 5478SOL    HW117650   3.398   1.757   5.017 -0.6879  0.0326 -0.4783
 5478SOL    HW217651   3.398   1.792   4.870  0.7630  0.7874 -0.3090
 5479SOL     OW17652   2.398   0.481   5.335 -0.1105 -0.4905 -0.2110
 5479SOL    HW117653   2.366   0.438   5.255 -0.2248 -1.4640  0.3518
 5479SOL    HW217654   2.340   0.450   5.404 -1.7401  2.3733 -0.1018
 5480SOL     OW17655   2.374   1.120   4.377 -0.4216 -0.3643 -0.3851
 5480SOL    HW117656   2.399   1.127   4.469 -0.6055 -1.4729 -0.2372
 5480SOL    HW217657   2.314   1.194   4.362  0.0191  0.1235  0.2374
 5481SOL     OW17658   3.649   8.796   5.531 -0.5596 -0.0116  0.1185
 5481SOL    HW117659   3.615   8.793   5.620 -1.9492 -3.5145 -0.3759
 5481SOL    HW217660   3.743   8.806   5.541 -0.7932  0.8275  1.8949
 5482SOL     OW17661   2.679   8.680   4.678 -0.2993 -0.2020 -0.5843
 5482SOL    HW117662   2.734   8.758   4.675  0.7368 -0.8391  0.9062
 5482SOL    HW217663   2.739   8.608   4.697 -1.4075 -1.1940 -0.6953
 5483SOL     OW17664   2.520   1.036   4.146 -0.3524  0.1425 -0.0189
 5483SOL    HW117665   2.615   1.038   4.157 -0.2740 -3.7018  1.5788
 5483SOL    HW217666   2.485   1.063   4.231 -0.5068 -1.5131  0.4927
 5484SOL     OW17667   2.522   1.171   4.619 -0.1166 -0.3299 -0.2199
 5484SOL    HW117668   2.571   1.223   4.682 -0.5493  0.3226 -0.4182
 5484SOL    HW217669   2.555   1.199   4.534  1.7174 -2.4265 -0.2943
 5485SOL     OW17670   3.063   8.311   4.288  0.3847  0.4528  0.2687
 5485SOL    HW117671   3.013   8.317   4.369  0.8588  1.0224  0.5223
 5485SOL    HW217672   3.015   8.247   4.235  1.0015 -1.2472  1.6661
 5486SOL     OW17673   3.006   0.226   4.910  0.2784  0.2942  0.7099
 5486SOL    HW117674   3.038   0.312   4.936 -1.3940  1.4826 -0.9113
 5486SOL    HW217675   3.078   0.189   4.858 -0.2418  2.2914 -1.6398
 5487SOL     OW17676   3.436   8.593   4.840 -0.4560 -0.0289  0.5177
 5487SOL    HW117677   3.451   8.530   4.769  0.5497  0.1698  0.5356
 5487SOL    HW217678   3.410   8.538   4.915 -1.2874 -0.2581  0.0772
 5488SOL     OW17679   2.131   1.095   3.874  0.0086  0.3509 -0.4488
 5488SOL    HW117680   2.047   1.128   3.905  0.2329  1.7090 -1.2010
 5488SOL    HW217681   2.108   1.020   3.818 -0.5958 -0.0508  0.3163
 5489SOL     OW17682   2.590   1.734   4.528 -0.4090  0.0781  0.1453
 5489SOL    HW117683   2.495   1.739   4.540 -0.6031 -1.0429 -0.7162
 5489SOL    HW217684   2.624   1.726   4.617 -0.8851  2.9705  0.6835
 5490SOL     OW17685   1.862   0.661   5.849  1.0221 -0.1179  0.0814
 5490SOL    HW117686   1.788   0.707   5.811  0.9773 -1.7313 -1.9318
 5490SOL    HW217687   1.838   0.647   5.941 -0.1113  1.4158  0.0404
 5491SOL     OW17688   2.534   8.620   6.335 -0.0448  0.0702  0.2869
 5491SOL    HW117689   2.630   8.621   6.344 -0.0872  0.2605  0.7565
 5491SOL    HW217690   2.506   8.548   6.392 -0.2716  0.8351  1.1647
 5492SOL     OW17691   1.686   0.090   6.212  0.0085 -0.0463  0.5286
 5492SOL    HW117692   1.728   0.159   6.161 -1.3710  0.0998 -0.4638
 5492SOL    HW217693   1.739   0.082   6.291  1.3315  0.7573 -0.2591
 5493SOL     OW17694   2.617   1.336   7.156  0.5933 -0.0177  0.6753
 5493SOL    HW117695   2.712   1.325   7.154  0.7629  1.2706  0.9620
 5493SOL    HW217696   2.598   1.395   7.084  0.1840  0.8912  1.5071
 5494SOL     OW17697   3.114   1.660   6.821 -0.2445 -0.7578 -0.2360
 5494SOL    HW117698   3.148   1.717   6.890 -0.1919  1.0825 -1.7128
 5494SOL    HW217699   3.172   1.584   6.822  0.5739 -0.1451  0.8408
 5495SOL     OW17700   3.404   0.470   5.841  0.2859 -0.1582  0.4426
 5495SOL    HW117701   3.365   0.545   5.887  0.0659 -0.8463  1.4239
 5495SOL    HW217702   3.374   0.479   5.751 -0.2820  0.5793  0.6910
 5496SOL     OW17703   3.978   0.341   5.988  0.1760  0.1954 -0.0286
 5496SOL    HW117704   4.025   0.272   6.034  1.3824 -0.0425 -1.5402
 5496SOL    HW217705   3.915   0.295   5.933  0.7032  0.3028 -0.7345
 5497SOL     OW17706   2.487   0.857   6.948 -0.4290  0.1612  0.4628
 5497SOL    HW117707   2.434   0.935   6.928  0.9948  1.2979  0.8827
 5497SOL    HW217708   2.431   0.783   6.926 -1.8107  1.3082 -0.0418
 5498SOL     OW17709   2.642   0.530   6.960  0.1976  0.5155  0.1983
 5498SOL    HW117710   2.550   0.554   6.968  0.1762  0.6528 -0.4314
 5498SOL    HW217711   2.689   0.613   6.952  0.1599  0.3900 -1.5861
 5499SOL     OW17712   2.563   0.856   6.000  0.2553 -0.1163 -0.2474
 5499SOL    HW117713   2.580   0.764   5.977  1.1838 -0.0607  0.1508
 5499SOL    HW217714   2.605   0.867   6.086 -0.6721  0.4361  0.1502
 5500SOL     OW17715   3.202   1.305   7.830  0.1454  0.2529 -0.1400
 5500SOL    HW117716   3.230   1.240   7.894  0.6946  1.5190  0.9693
 5500SOL    HW217717   3.165   1.254   7.758  2.2768 -1.3573 -0.1828
 5501SOL     OW17718   2.317   1.166   6.604  0.1990  0.2065  0.0293
 5501SOL    HW117719   2.339   1.150   6.512 -1.3415  2.1976 -0.7435
 5501SOL    HW217720   2.398   1.199   6.642  0.5882  0.3259 -0.8710
 5502SOL     OW17721   3.234   1.877   6.972 -0.7226 -0.4658 -0.0002
 5502SOL    HW117722   3.307   1.937   6.960 -1.8305  1.0670  0.4884
 5502SOL    HW217723   3.252   1.833   7.055  0.5867 -1.5748 -0.8439
 5503SOL     OW17724   1.876   0.139   6.779 -0.0014 -0.3323  0.3345
 5503SOL    HW117725   1.866   0.223   6.822  1.0874  0.4144 -0.8006
 5503SOL    HW217726   1.815   0.081   6.825  0.0846  0.7587  1.9030
 5504SOL     OW17727   3.338   0.848   6.486  0.0141  0.7531 -0.1532
 5504SOL    HW117728   3.406   0.833   6.551  0.3565  1.5551 -0.3092
 5504SOL    HW217729   3.292   0.764   6.478  1.2511  0.0789 -0.3605
 5505SOL     OW17730   2.729   1.689   6.438 -0.2799  0.3668 -0.2107
 5505SOL    HW117731   2.822   1.712   6.440 -0.4357  1.1162 -0.8322
 5505SOL    HW217732   2.716   1.649   6.352 -0.9410  2.2314 -1.0353
 5506SOL     OW17733   3.330   1.044   7.358 -0.2768  0.1135 -0.2173
 5506SOL    HW117734   3.275   1.106   7.407 -0.5199 -0.0215 -0.3190
 5506SOL    HW217735   3.409   1.094   7.338 -0.9183  0.7626 -1.2601
 5507SOL     OW17736   2.271   1.453   6.139 -0.5000 -0.3092 -0.6037
 5507SOL    HW117737   2.330   1.440   6.213 -1.0402 -1.2345 -0.3086
 5507SOL    HW217738   2.306   1.529   6.093 -0.2979  0.4551  0.7492
 5508SOL     OW17739   2.092   1.252   5.999 -0.1421 -0.0334 -0.2867
 5508SOL    HW117740   2.099   1.167   6.041 -0.1573  0.2138  0.2164
 5508SOL    HW217741   2.138   1.312   6.056 -1.0368  0.4898 -0.0872
 5509SOL     OW17742   2.479   1.651   7.119 -0.4020 -0.4339  0.3130
 5509SOL    HW117743   2.407   1.712   7.131  0.2328  0.4017 -0.0096
 5509SOL    HW217744   2.526   1.652   7.203  0.0695  0.1446  0.0486
 5510SOL     OW17745   2.476   0.598   5.735 -0.0887 -0.1642  0.3313
 5510SOL    HW117746   2.394   0.643   5.757 -0.0605 -0.5607  1.3263
 5510SOL    HW217747   2.453   0.540   5.663 -0.9252 -0.9505  1.2022
 5511SOL     OW17748   3.328   0.080   6.691 -0.1954  0.4744  0.2915
 5511SOL    HW117749   3.380   0.141   6.638  1.4512  0.0122  1.3030
 5511SOL    HW217750   3.239   0.112   6.683  0.1356  1.0320 -1.9073
 5512SOL     OW17751   1.667   0.517   6.081  0.4908  0.1041 -0.2422
 5512SOL    HW117752   1.730   0.561   6.137  3.1117  0.0049 -2.8813
 5512SOL    HW217753   1.682   0.423   6.096  3.1703 -0.0337 -2.8214
 5513SOL     OW17754   4.136   1.662   5.995  0.4788 -0.4675  0.0483
 5513SOL    HW117755   4.138   1.727   5.925  0.2574 -0.1638  0.3255
 5513SOL    HW217756   4.198   1.594   5.966  0.5172 -0.2615 -0.3590
 5514SOL     OW17757   1.979   1.563   5.752  0.1438  0.5781 -0.5832
 5514SOL    HW117758   1.989   1.493   5.817 -0.9715 -0.4808 -1.5105
 5514SOL    HW217759   1.886   1.564   5.732  0.6226  0.0235 -3.0914
 5515SOL     OW17760   3.929   1.047   5.950  0.6917  0.1677 -0.4021
 5515SOL    HW117761   3.890   0.960   5.950 -1.5689  1.0033  2.6198
 5515SOL    HW217762   3.871   1.099   5.894  0.1426  0.3686  0.3292
 5516SOL     OW17763   3.632   1.054   6.486  0.0102 -0.3462 -0.4365
 5516SOL    HW117764   3.681   0.977   6.514 -0.8926 -0.6887  0.2608
 5516SOL    HW217765   3.686   1.094   6.418  1.6914 -0.1919  0.9152
 5517SOL     OW17766   1.473   0.596   6.939 -0.3464  0.1791 -0.2617
 5517SOL    HW117767   1.509   0.591   7.028  0.7881 -0.5019 -0.7439
 5517SOL    HW217768   1.437   0.509   6.923 -1.0924  0.4780 -0.2656
 5518SOL     OW17769   2.599   1.246   6.222 -0.0121  0.0696  0.0067
 5518SOL    HW117770   2.666   1.290   6.274  0.2201 -0.7261  0.3997
 5518SOL    HW217771   2.576   1.309   6.154 -0.4470  1.2129  1.1710
 5519SOL     OW17772   3.632   0.923   7.142  0.0008  0.6684 -0.0350
 5519SOL    HW117773   3.616   0.955   7.053  2.1346 -2.3808 -1.6721
 5519SOL    HW217774   3.713   0.966   7.168 -1.7389  3.3099  1.5298
 5520SOL     OW17775   2.807   8.619   6.046  0.2948 -0.1718 -0.2065
 5520SOL    HW117776   2.794   8.583   5.959  0.6392  0.7062 -0.6348
 5520SOL    HW217777   2.800   8.714   6.034 -2.3785 -0.0909  1.1592
 5521SOL     OW17778   1.982   0.924   7.005  0.2373 -0.0026 -0.0911
 5521SOL    HW117779   2.016   0.875   6.930 -1.5009 -1.3668 -0.0537
 5521SOL    HW217780   1.934   0.859   7.057 -0.7130  1.4045  0.8728
 5522SOL     OW17781   3.243   1.063   6.594 -0.0010 -0.0082 -0.1141
 5522SOL    HW117782   3.281   0.986   6.552 -2.1657 -1.8959  1.1846
 5522SOL    HW217783   3.224   1.035   6.683 -0.6563  2.1202  0.4642
 5523SOL     OW17784   3.033   1.859   7.557 -0.1714  0.3495 -0.5129
 5523SOL    HW117785   2.987   1.786   7.516  0.7796  0.2831 -1.4909
 5523SOL    HW217786   3.019   1.846   7.651 -0.0647 -1.0540 -0.6695
 5524SOL     OW17787   2.226   0.634   7.651 -0.3611 -0.3197  0.5693
 5524SOL    HW117788   2.278   0.690   7.709  0.6583  1.3817 -1.8178
 5524SOL    HW217789   2.283   0.559   7.634  0.5418  0.5334 -0.3705
 5525SOL     OW17790   3.702   1.205   6.702  0.1446  0.2725  0.5831
 5525SOL    HW117791   3.663   1.168   6.622  0.5918 -0.9080  0.8930
 5525SOL    HW217792   3.688   1.300   6.694 -0.8479  0.0678 -0.3398
 5526SOL     OW17793   3.656   1.750   6.744 -0.6589 -0.0986 -0.2593
 5526SOL    HW117794   3.640   1.817   6.678 -1.2940 -0.1041 -0.1180
 5526SOL    HW217795   3.647   1.796   6.827 -1.1524 -0.3676 -0.1601
 5527SOL     OW17796   2.548   0.441   6.072 -0.2290 -0.3208 -0.2391
 5527SOL    HW117797   2.565   0.500   5.999  1.2774 -1.8613 -1.1887
 5527SOL    HW217798   2.486   0.377   6.037 -1.4174  0.3246  0.6136
 5528SOL     OW17799   3.135   0.733   5.942  0.4600 -0.6729 -0.3438
 5528SOL    HW117800   3.097   0.795   6.004  0.8583  0.5687 -1.2959
 5528SOL    HW217801   3.198   0.682   5.993  1.9418  1.3844 -0.0139
 5529SOL     OW17802   3.673   1.732   6.003  0.2124  0.6753 -0.7327
 5529SOL    HW117803   3.649   1.696   5.918  0.1654  0.0355 -0.4539
 5529SOL    HW217804   3.751   1.683   6.029 -2.1816 -2.3527  1.5532
 5530SOL     OW17805   2.374   0.602   6.962 -0.7238  0.3910  0.3397
 5530SOL    HW117806   2.331   0.550   6.893 -0.6087  0.9364 -0.1477
 5530SOL    HW217807   2.337   0.568   7.044 -1.5153  0.3286 -0.0362
 5531SOL     OW17808   3.493   0.480   7.239  0.0408 -0.4382 -0.3398
 5531SOL    HW117809   3.546   0.559   7.245 -1.2796  0.4828 -0.2807
 5531SOL    HW217810   3.466   0.476   7.147 -1.7612  0.5112  0.0852
 5532SOL     OW17811   2.994   1.100   7.065 -0.3549 -0.6133 -0.2721
 5532SOL    HW117812   3.085   1.131   7.062 -0.8514  0.9013 -0.8190
 5532SOL    HW217813   2.942   1.178   7.047 -1.6781 -1.8671 -2.3633
 5533SOL     OW17814   2.878   0.613   6.748 -0.5044 -0.5223  0.7901
 5533SOL    HW117815   2.849   0.540   6.693 -2.6910  0.2508  0.8083
 5533SOL    HW217816   2.815   0.683   6.730  1.2593  1.2180  1.1263
 5534SOL     OW17817   2.944   0.694   5.729  0.0303  0.3583  0.4117
 5534SOL    HW117818   2.950   0.783   5.692  1.0502  0.3858  0.6062
 5534SOL    HW217819   2.999   0.697   5.807 -0.2407 -0.3452  0.6355
 5535SOL     OW17820   1.842   0.297   6.120 -0.5505 -0.1270  0.3212
 5535SOL    HW117821   1.887   0.296   6.036 -1.2680 -1.0809 -0.0769
 5535SOL    HW217822   1.900   0.345   6.179  0.3306 -0.1480 -0.5150
 5536SOL     OW17823   1.710   1.795   7.493 -0.5162 -0.3108  0.2440
 5536SOL    HW117824   1.714   1.750   7.577  1.1827  0.8272  0.8205
 5536SOL    HW217825   1.800   1.791   7.459 -1.0987 -0.4725 -1.3856
 5537SOL     OW17826   2.344   0.059   5.807  0.6064 -0.2860 -0.1197
 5537SOL    HW117827   2.305   0.097   5.729 -0.3116  0.3642  0.6236
 5537SOL    HW217828   2.422   0.013   5.776  0.2384 -0.0735 -1.4065
 5538SOL     OW17829   3.354   0.547   7.467  0.2835 -0.5479 -0.4134
 5538SOL    HW117830   3.282   0.610   7.455  0.3179 -0.0724  1.5564
 5538SOL    HW217831   3.399   0.547   7.383 -1.1376  0.2595 -1.2307
 5539SOL     OW17832   3.577   1.496   6.706  0.0702 -0.3952 -0.6027
 5539SOL    HW117833   3.560   1.494   6.611 -2.4785  0.3963 -0.2430
 5539SOL    HW217834   3.590   1.589   6.725  2.5277 -0.7102 -0.3868
 5540SOL     OW17835   2.568   0.099   6.126  0.6206  0.1090 -0.2953
 5540SOL    HW117836   2.611   0.088   6.211  0.0672 -3.0925 -0.3086
 5540SOL    HW217837   2.638   0.085   6.062  0.8433  1.6060 -0.4224
 5541SOL     OW17838   3.324   1.665   6.285  0.2920  0.0833 -0.0495
 5541SOL    HW117839   3.316   1.605   6.211  0.1933 -0.7470  0.6225
 5541SOL    HW217840   3.271   1.741   6.261 -0.2248 -0.4340 -0.5718
 5542SOL     OW17841   2.662   2.044   6.854  0.0849 -0.2939  0.0497
 5542SOL    HW117842   2.618   2.037   6.938  0.9983  0.7557  0.6458
 5542SOL    HW217843   2.729   1.976   6.856  0.9633  0.5554  0.7472
 5543SOL     OW17844   3.991   1.342   6.798  0.3351 -0.1882 -0.0726
 5543SOL    HW117845   4.012   1.330   6.706  1.2591  0.2673  0.0661
 5543SOL    HW217846   3.979   1.254   6.832 -0.2380 -0.3486 -0.6769
 5544SOL     OW17847   3.387   1.340   7.206  0.1227  0.1454 -0.1382
 5544SOL    HW117848   3.477   1.311   7.220 -0.0941 -1.3919 -1.6340
 5544SOL    HW217849   3.359   1.374   7.291  1.5689 -0.8640  0.7735
 5545SOL     OW17850   2.326   0.988   5.739 -0.1593  0.2980 -0.3656
 5545SOL    HW117851   2.419   0.966   5.736 -0.1341  0.5019 -1.2496
 5545SOL    HW217852   2.293   0.966   5.652 -0.7319  1.1101 -0.3718
 5546SOL     OW17853   3.810   0.847   6.534  0.3707 -0.0663 -0.6258
 5546SOL    HW117854   3.788   0.816   6.447  2.5947  1.8160 -1.9850
 5546SOL    HW217855   3.901   0.874   6.527  1.3158 -1.7701  2.8907
 5547SOL     OW17856   2.311   1.241   7.724 -0.2250 -0.0037  0.5266
 5547SOL    HW117857   2.335   1.261   7.815 -1.0382 -0.3955  0.8424
 5547SOL    HW217858   2.223   1.279   7.714 -0.4465 -0.6008  0.1420
 5548SOL     OW17859   2.829   1.958   5.489 -0.3360 -0.0584  0.2399
 5548SOL    HW117860   2.891   1.886   5.497  0.6111  0.4626 -1.8175
 5548SOL    HW217861   2.749   1.918   5.455 -0.0175 -0.2401 -0.2977
 5549SOL     OW17862   2.145   0.653   7.376  0.1489 -0.5016  0.0999
 5549SOL    HW117863   2.104   0.739   7.385  0.4388 -0.2789 -0.5809
 5549SOL    HW217864   2.158   0.623   7.466 -1.7280 -0.7081  0.3369
 5550SOL     OW17865   3.571   1.147   6.094 -0.1416  0.0210 -0.2374
 5550SOL    HW117866   3.509   1.120   6.162  1.1905  0.1267  1.0768
 5550SOL    HW217867   3.531   1.224   6.055 -0.8996  0.0306  0.5284
 5551SOL     OW17868   2.687   1.922   6.215 -0.0128 -0.0222  0.1379
 5551SOL    HW117869   2.675   1.923   6.310 -0.6769 -0.4225  0.0680
 5551SOL    HW217870   2.615   1.977   6.182  0.0894 -0.0601 -0.1453
 5552SOL     OW17871   3.437   0.000   5.777  0.0292 -0.0724  0.5431
 5552SOL    HW117872   3.386  -0.078   5.755 -1.6241  1.1674 -0.2722
 5552SOL    HW217873   3.436   0.005   5.872  1.1666 -1.6561  0.6669
 5553SOL     OW17874   2.921   1.343   6.617  0.1623  0.0012 -0.0436
 5553SOL    HW117875   2.884   1.348   6.528  1.8434 -0.7597 -0.8311
 5553SOL    HW217876   3.013   1.321   6.603  0.8587  1.4514  1.8488
 5554SOL     OW17877   2.962   1.605   6.325 -0.0734  0.2886 -0.1568
 5554SOL    HW117878   3.053   1.585   6.347 -0.2784  0.5730  1.0155
 5554SOL    HW217879   2.964   1.624   6.231  0.8853 -0.7625 -0.3750
 5555SOL     OW17880   1.975   0.494   6.716 -0.7351  0.1476  0.2776
 5555SOL    HW117881   2.015   0.456   6.638 -2.0460  1.2024 -0.9653
 5555SOL    HW217882   1.929   0.421   6.757 -1.6369 -0.0570 -1.0263
 5556SOL     OW17883   3.370   0.503   7.010  0.2742  0.2422 -0.0017
 5556SOL    HW117884   3.318   0.434   6.969  1.4882 -2.4752  2.6547
 5556SOL    HW217885   3.306   0.567   7.040 -1.0254 -0.3338 -1.4354
 5557SOL     OW17886   2.271   8.689   5.561  0.4454 -0.2195  0.2159
 5557SOL    HW117887   2.218   8.611   5.550  1.1907 -0.8256  0.7923
 5557SOL    HW217888   2.360   8.661   5.539  0.8148  0.3036  0.9945
 5558SOL     OW17889   2.233   0.231   7.259  0.1768  0.5408 -0.7834
 5558SOL    HW117890   2.322   0.207   7.232  0.6729  0.9804  0.3899
 5558SOL    HW217891   2.233   0.220   7.354 -1.0398  0.5236 -0.7711
 5559SOL     OW17892   2.545   1.209   6.776  0.7315 -0.2518  0.2003
 5559SOL    HW117893   2.502   1.143   6.830  1.4385 -0.7794  0.1391
 5559SOL    HW217894   2.535   1.290   6.825  1.9858 -0.8423  1.5139
 5560SOL     OW17895   3.226   0.965   6.845 -0.3779  0.4641  0.8445
 5560SOL    HW117896   3.310   0.978   6.801 -0.3844 -1.0722  0.3213
 5560SOL    HW217897   3.241   0.994   6.934  0.8919 -0.3130  0.9051
 5561SOL     OW17898   2.855   1.345   6.349  0.0990 -0.9179 -0.4377
 5561SOL    HW117899   2.914   1.302   6.288  0.6381 -0.7912 -0.0145
 5561SOL    HW217900   2.868   1.439   6.333  2.8143 -0.7149  2.1574
 5562SOL     OW17901   2.779   0.418   6.523  0.1291 -0.7011  0.2928
 5562SOL    HW117902   2.855   0.372   6.488  0.9963  0.0618  1.1234
 5562SOL    HW217903   2.742   0.464   6.447  0.4397 -1.1334 -0.1303
 5563SOL     OW17904   2.198   8.763   6.003 -0.2304  0.5388  0.1944
 5563SOL    HW117905   2.209   8.676   5.964  1.5790 -0.1914  2.1749
 5563SOL    HW217906   2.222   8.823   5.933 -0.1136 -0.5848 -0.7734
 5564SOL     OW17907   3.410   1.096   6.330 -0.2578  0.2774  0.0944
 5564SOL    HW117908   3.495   1.083   6.372  0.8363  0.5099 -1.8981
 5564SOL    HW217909   3.366   1.160   6.385  1.2881  0.9492  0.6202
 5565SOL     OW17910   2.090   0.320   6.478  0.2954  0.1361  0.6279
 5565SOL    HW117911   2.097   0.233   6.519 -0.5689  0.8000  2.2856
 5565SOL    HW217912   2.177   0.335   6.441  0.4625 -1.4325  0.2864
 5566SOL     OW17913   2.820   0.047   6.028 -0.8015 -0.0216  0.8380
 5566SOL    HW117914   2.871   0.066   6.107  1.3555  1.4036 -0.7600
 5566SOL    HW217915   2.821   0.130   5.979  0.8628 -1.6583 -2.1834
 5567SOL     OW17916   3.157   0.698   6.713  0.8907  0.6785 -0.3882
 5567SOL    HW117917   3.064   0.676   6.707  1.1019 -0.8370  1.2799
 5567SOL    HW217918   3.160   0.772   6.774  0.8669 -0.2768  0.8151
 5568SOL     OW17919   3.283   1.425   6.783  0.3963 -0.7820 -0.7231
 5568SOL    HW117920   3.244   1.370   6.716  2.6627 -1.4663 -1.5772
 5568SOL    HW217921   3.373   1.440   6.753  0.4903  1.6624  0.5302
 5569SOL     OW17922   2.147   1.018   6.151 -0.0452 -0.1869  0.2646
 5569SOL    HW117923   2.202   0.974   6.086 -2.1114  0.6189 -2.1947
 5569SOL    HW217924   2.074   0.958   6.164  0.1159 -0.1188  1.5325
 5570SOL     OW17925   3.171   1.876   6.217  0.4397 -0.3527 -0.0443
 5570SOL    HW117926   3.200   1.927   6.141 -1.2576  1.0730  0.1871
 5570SOL    HW217927   3.125   1.940   6.272 -0.7674 -1.9154  0.8400
 5571SOL     OW17928   3.270   0.485   5.610 -0.2225  0.0176  0.1636
 5571SOL    HW117929   3.208   0.501   5.539  1.9310  1.3668 -1.5775
 5571SOL    HW217930   3.310   0.400   5.587 -0.5744 -0.2760  0.6228
 5572SOL     OW17931   1.639   0.469   6.689 -0.3025 -0.1360 -0.0939
 5572SOL    HW117932   1.635   0.563   6.706 -0.1522 -0.2003  0.3010
 5572SOL    HW217933   1.665   0.462   6.598 -0.7960  0.2109 -0.2658
 5573SOL     OW17934   2.394   0.050   6.737 -0.1904 -0.3320 -0.2578
 5573SOL    HW117935   2.458  -0.002   6.688  0.3133  1.0854 -1.1688
 5573SOL    HW217936   2.424   0.140   6.728 -1.8454  0.2871  0.0384
 5574SOL     OW17937   2.779   0.326   5.975 -0.2119  0.3849 -0.4174
 5574SOL    HW117938   2.715   0.379   6.023  1.2745  1.6596  0.2325
 5574SOL    HW217939   2.776   0.360   5.886  0.5025  1.3894 -0.0765
 5575SOL     OW17940   2.821   8.534   6.303  1.3357 -0.0433  0.4130
 5575SOL    HW117941   2.811   8.559   6.211 -0.7403  0.6649  0.7794
 5575SOL    HW217942   2.874   8.454   6.300  0.1903 -0.8163 -1.5227
 5576SOL     OW17943   3.635   1.417   6.409  0.4761  0.1676 -0.1350
 5576SOL    HW117944   3.684   1.344   6.370  1.2772 -0.0738  1.2603
 5576SOL    HW217945   3.702   1.476   6.442 -0.1613  0.2517  1.0537
 5577SOL     OW17946   3.519   0.988   6.833 -0.1860  0.5756  0.5187
 5577SOL    HW117947   3.549   0.908   6.788 -1.9512  0.7439 -1.1091
 5577SOL    HW217948   3.582   1.055   6.808 -0.1059  0.2341 -0.2414
 5578SOL     OW17949   3.343   0.616   6.100  0.1488  0.0906  0.1750
 5578SOL    HW117950   3.413   0.669   6.138  1.0123  0.1599 -1.4483
 5578SOL    HW217951   3.362   0.527   6.130  1.2586  0.0236 -0.6941
 5579SOL     OW17952   2.358   1.255   5.824 -0.8208 -0.0574 -0.2261
 5579SOL    HW117953   2.281   1.276   5.877 -1.2195 -1.7681 -0.0712
 5579SOL    HW217954   2.347   1.163   5.801  2.2963 -1.0749  1.7441
 5580SOL     OW17955   3.762   1.199   6.302 -0.7727 -0.0095 -0.0621
 5580SOL    HW117956   3.709   1.182   6.225 -0.7625  1.1345 -0.3350
 5580SOL    HW217957   3.847   1.159   6.282 -0.7889  0.2240 -0.6129
 5581SOL     OW17958   3.222   1.032   6.097 -0.1523 -0.7905  0.1320
 5581SOL    HW117959   3.212   1.100   6.164  1.1889 -0.1204 -0.3027
 5581SOL    HW217960   3.139   0.985   6.097 -0.5262 -0.1646  1.5649
 5582SOL     OW17961   1.980   0.017   6.153  0.1101 -0.2326  0.3594
 5582SOL    HW117962   1.984   0.112   6.166 -1.9785  0.1523 -1.3398
 5582SOL    HW217963   2.055  -0.002   6.097  0.4173  0.4468  0.5260
 5583SOL     OW17964   3.638   1.390   7.556 -0.1236  0.6885  0.8628
 5583SOL    HW117965   3.661   1.297   7.565 -0.3282  0.5040 -0.3403
 5583SOL    HW217966   3.723   1.436   7.558  0.0061  0.4435  1.0527
 5584SOL     OW17967   2.897   1.361   7.060 -0.1376 -0.7385 -0.1301
 5584SOL    HW117968   2.858   1.324   6.980 -1.1871 -0.5987  0.2934
 5584SOL    HW217969   2.982   1.394   7.032 -0.0519 -1.6210 -0.9614
 5585SOL     OW17970   3.834   1.721   7.351 -0.2452  0.3154  0.1983
 5585SOL    HW117971   3.877   1.637   7.335  0.4305  0.5070  0.9647
 5585SOL    HW217972   3.746   1.709   7.314 -0.0050 -0.5600 -0.1337
 5586SOL     OW17973   2.841   1.218   6.839 -0.4955  0.1709  0.4125
 5586SOL    HW117974   2.875   1.263   6.762  0.3316 -0.8017  0.1838
 5586SOL    HW217975   2.750   1.199   6.818 -0.8518  1.6224  0.4860
 5587SOL     OW17976   4.173   0.990   6.910 -0.1130 -0.6348 -0.2327
 5587SOL    HW117977   4.149   1.046   6.983  1.5638 -1.0299  0.6721
 5587SOL    HW217978   4.237   1.042   6.860 -0.3777 -0.8185 -0.7722
 5588SOL     OW17979   2.559   0.377   6.704 -0.2997  0.0920  0.3146
 5588SOL    HW117980   2.620   0.409   6.637  0.2752 -0.5804  0.5112
 5588SOL    HW217981   2.605   0.388   6.787 -0.9948  0.8794  0.6039
 5589SOL     OW17982   2.912   1.126   7.394 -0.4415 -0.0036 -0.5445
 5589SOL    HW117983   2.830   1.091   7.361  0.7728 -1.2779 -2.4649
 5589SOL    HW217984   2.908   1.220   7.373 -1.0548 -0.2168 -1.4644
 5590SOL     OW17985   2.679   0.736   6.443  0.1898  0.3646 -0.1110
 5590SOL    HW117986   2.771   0.743   6.416  0.5531 -3.1911 -0.2309
 5590SOL    HW217987   2.677   0.777   6.529  1.3514  2.3854 -0.9562
 5591SOL     OW17988   2.364   0.879   7.384 -0.1549  0.9050 -0.1909
 5591SOL    HW117989   2.322   0.802   7.422  0.7758  0.4305 -0.0952
 5591SOL    HW217990   2.332   0.882   7.293  0.3587 -0.0191 -0.4090
 5592SOL     OW17991   3.562   0.503   6.771  0.0166  0.4218 -0.2284
 5592SOL    HW117992   3.650   0.492   6.809  0.4589 -0.8761 -1.5242
 5592SOL    HW217993   3.503   0.485   6.844  0.8398 -2.3016 -0.0974
 5593SOL     OW17994   2.156   1.244   6.978 -0.5202  0.2207 -0.5065
 5593SOL    HW117995   2.070   1.253   7.019  0.4967 -1.1040  2.1482
 5593SOL    HW217996   2.200   1.328   6.995 -1.2581  0.9470 -1.9795
 5594SOL     OW17997   1.835   1.282   5.909 -0.4732 -0.0697 -0.1299
 5594SOL    HW117998   1.928   1.289   5.931 -0.3301  0.7737 -0.9347
 5594SOL    HW217999   1.827   1.200   5.861 -0.4454 -0.9420  1.2850
 5595SOL     OW18000   2.315   0.477   6.725  0.4870 -0.1848  0.3533
 5595SOL    HW118001   2.259   0.406   6.693  0.7435  0.6056 -2.0743
 5595SOL    HW218002   2.404   0.443   6.716  0.6786  0.7098 -1.8215
 5596SOL     OW18003   3.292   1.509   6.055  0.1988  0.3123 -0.2617
 5596SOL    HW118004   3.362   1.465   6.008  0.4959  1.9683 -1.4423
 5596SOL    HW218005   3.259   1.575   5.994 -0.3924  1.5686  1.3277
 5597SOL     OW18006   3.178   1.387   7.040  0.3665  0.2763 -1.2113
 5597SOL    HW118007   3.255   1.401   7.096  0.5618 -1.2424 -1.0580
 5597SOL    HW218008   3.211   1.402   6.951  1.2563 -1.6970 -1.2754
 5598SOL     OW18009   3.689   0.808   6.262  0.1546  0.3917 -0.6260
 5598SOL    HW118010   3.721   0.773   6.179  1.9073  2.7165 -1.0035
 5598SOL    HW218011   3.597   0.830   6.245 -0.1933 -1.3093 -1.1769
 5599SOL     OW18012   2.368   1.146   6.317 -0.3484  0.0396  0.2699
 5599SOL    HW118013   2.314   1.086   6.265 -0.3757  0.0431  0.2941
 5599SOL    HW218014   2.453   1.147   6.272 -0.8194  1.2053 -0.6877
 5600SOL     OW18015   2.686   0.786   7.125 -0.4000 -0.3687  0.0434
 5600SOL    HW118016   2.613   0.795   7.064 -0.2210 -0.0229 -0.1237
 5600SOL    HW218017   2.705   0.876   7.152 -0.8489 -0.5538  1.0430
 5601SOL     OW18018   3.410   0.797   7.286 -0.2104 -0.1101 -0.1811
 5601SOL    HW118019   3.382   0.887   7.306 -0.7276 -0.1077 -0.8749
 5601SOL    HW218020   3.498   0.807   7.248  0.9714 -0.1466  2.3444
 5602SOL     OW18021   2.833   0.372   7.131 -0.6482 -0.6188 -0.5452
 5602SOL    HW118022   2.891   0.448   7.137  1.0359 -1.8059 -1.0021
 5602SOL    HW218023   2.757   0.404   7.083  0.7234  0.4333 -2.1568
 5603SOL     OW18024   2.226   0.208   7.519  0.0337 -0.2861 -0.0211
 5603SOL    HW118025   2.274   0.133   7.555  0.1718 -0.1161  0.1493
 5603SOL    HW218026   2.142   0.206   7.565 -0.6086 -1.2976 -1.1774
 5604SOL     OW18027   2.970   0.923   6.104 -0.4087 -0.4312 -0.1257
 5604SOL    HW118028   2.886   0.958   6.075 -0.9293 -0.7708  0.8998
 5604SOL    HW218029   2.955   0.899   6.195  0.6744 -0.9313 -0.0660
 5605SOL     OW18030   3.694   0.672   7.221  0.4678 -0.2157  0.2704
 5605SOL    HW118031   3.785   0.680   7.249  0.1154 -0.5323  1.5485
 5605SOL    HW218032   3.675   0.756   7.177  1.1311  0.1618  0.6924
 5606SOL     OW18033   3.440   0.262   5.976  0.2873  0.5219 -0.3237
 5606SOL    HW118034   3.421   0.327   5.908 -1.9927 -0.0345 -0.3179
 5606SOL    HW218035   3.417   0.306   6.058 -4.1999 -1.0170 -0.4820
 5607SOL     OW18036   2.063   0.039   6.516 -0.4910  0.0977  0.2584
 5607SOL    HW118037   2.015  -0.014   6.579  2.8738  0.4484  3.4861
 5607SOL    HW218038   2.128  -0.021   6.478  0.0074  0.7495  0.0542
 5608SOL     OW18039   2.299   1.477   6.996 -0.0432 -0.1810 -0.4612
 5608SOL    HW118040   2.317   1.504   6.907  2.5691 -1.2964 -0.3480
 5608SOL    HW218041   2.374   1.507   7.047 -2.1139  1.7424  1.7372
 5609SOL     OW18042   2.703   0.981   6.209  0.0019 -0.3588 -0.0938
 5609SOL    HW118043   2.700   1.076   6.199 -1.0265 -0.5354 -2.2604
 5609SOL    HW218044   2.708   0.966   6.303 -3.2271  1.8211  0.5980
 5610SOL     OW18045   3.583   0.645   7.622  0.1117  0.1923 -0.2056
 5610SOL    HW118046   3.563   0.561   7.581  1.7481  0.3009 -1.3108
 5610SOL    HW218047   3.524   0.707   7.578 -0.4115 -0.2088 -0.0849
 5611SOL     OW18048   2.190   8.529   6.244  0.0626 -0.1473 -0.0673
 5611SOL    HW118049   2.106   8.552   6.284 -1.0128  2.0582 -3.2521
 5611SOL    HW218050   2.179   8.438   6.215 -2.0678  0.7101 -2.1915
 5612SOL     OW18051   3.777   0.024   6.366  0.4888 -0.0158 -0.8408
 5612SOL    HW118052   3.701   0.022   6.308 -0.4307 -0.0831  0.3224
 5612SOL    HW218053   3.740   0.046   6.452  1.8802  0.6491 -0.3928
 5613SOL     OW18054   2.920   0.789   6.352 -0.3711  0.0180 -1.0856
 5613SOL    HW118055   3.001   0.739   6.361 -0.9396 -0.6635  0.9594
 5613SOL    HW218056   2.938   0.871   6.398 -0.3855  0.4597 -1.8690
 5614SOL     OW18057   3.208   1.310   7.454  0.5889 -0.0411  0.6259
 5614SOL    HW118058   3.243   1.376   7.514  0.3900  0.8480 -0.2145
 5614SOL    HW218059   3.124   1.345   7.427  1.2113  0.1886 -1.1137
 5615SOL     OW18060   3.940   1.486   7.297  0.2834  0.4146  0.0842
 5615SOL    HW118061   4.024   1.450   7.268  0.1205 -0.1128  0.2603
 5615SOL    HW218062   3.939   1.473   7.391 -0.2166 -0.0593  0.0217
 5616SOL     OW18063   2.854   1.246   7.735 -0.2943 -0.1579 -0.5306
 5616SOL    HW118064   2.782   1.308   7.726  1.0579  1.4709 -0.8091
 5616SOL    HW218065   2.861   1.231   7.830 -0.6864  0.0776 -0.4649
 5617SOL     OW18066   3.079   0.240   5.716  0.2379  0.2580  0.2349
 5617SOL    HW118067   3.120   0.252   5.802 -0.1673  0.7925  0.3588
 5617SOL    HW218068   3.145   0.271   5.654 -0.5226  2.6572  0.5133
 5618SOL     OW18069   3.261   1.080   5.798 -0.7361  0.5593  0.1733
 5618SOL    HW118070   3.250   1.031   5.880  0.3475 -0.0667 -0.0361
 5618SOL    HW218071   3.331   1.033   5.751  2.0830  3.5500  0.9792
 5619SOL     OW18072   3.369   1.416   6.404  0.1319 -0.3439  0.2351
 5619SOL    HW118073   3.464   1.410   6.391  0.0156  0.2976 -1.0803
 5619SOL    HW218074   3.348   1.507   6.383 -0.8626 -0.6472 -0.1261
 5620SOL     OW18075   2.294   0.890   5.980  0.6563  0.3906 -0.3511
 5620SOL    HW118076   2.385   0.881   6.010  0.1022 -0.7548  1.0970
 5620SOL    HW218077   2.302   0.914   5.887  2.4304  0.4315 -0.2284
 5621SOL     OW18078   2.361   0.296   6.434  0.3596 -0.1404 -0.5612
 5621SOL    HW118079   2.425   0.350   6.387 -0.5896 -0.6416 -2.5576
 5621SOL    HW218080   2.362   0.212   6.387 -0.9129 -0.5407  0.0897
 5622SOL     OW18081   2.967   0.593   7.044 -0.2102  0.6031 -0.0858
 5622SOL    HW118082   2.959   0.586   6.948  1.5011 -1.3500 -0.1792
 5622SOL    HW218083   3.056   0.625   7.058 -0.4088  0.7695  0.8572
 5623SOL     OW18084   2.854   8.706   6.886 -0.0262 -0.1096 -0.6992
 5623SOL    HW118085   2.898   8.642   6.942 -0.4698  2.5637  3.0776
 5623SOL    HW218086   2.910   8.784   6.890 -2.0076  1.3972 -0.8365
 5624SOL     OW18087   1.779   0.953   5.945 -0.1650 -0.0803  0.3685
 5624SOL    HW118088   1.790   0.877   6.002  0.7795  0.3662  0.7959
 5624SOL    HW218089   1.808   0.922   5.859 -0.7169 -0.4759  0.3101
 5625SOL     OW18090   2.575   1.494   6.596 -0.3180  0.4982  0.6532
 5625SOL    HW118091   2.595   1.553   6.523  2.0273 -1.7038 -0.6425
 5625SOL    HW218092   2.591   1.406   6.561  1.0705 -0.6693  3.8742
 5626SOL     OW18093   2.782   2.504   6.501 -0.0364 -0.5026  0.1044
 5626SOL    HW118094   2.878   2.502   6.501  0.0362  0.1071  2.1877
 5626SOL    HW218095   2.757   2.449   6.576 -1.3802 -1.5439 -1.0524
 5627SOL     OW18096   2.956   0.944   6.774 -0.1178 -0.1451  0.2221
 5627SOL    HW118097   3.044   0.933   6.808 -0.4223 -0.7291  0.8377
 5627SOL    HW218098   2.930   1.032   6.800  0.5271  0.2844 -0.5461
 5628SOL     OW18099   1.403   0.374   6.816 -0.3185  0.1115  0.6846
 5628SOL    HW118100   1.328   0.337   6.770 -0.4932 -0.0604  1.1067
 5628SOL    HW218101   1.473   0.375   6.750 -0.6305  0.0899  0.3477
 5629SOL     OW18102   2.544   1.211   7.572 -0.0472  0.0512  0.1511
 5629SOL    HW118103   2.485   1.245   7.639 -0.0418  0.2921  0.0364
 5629SOL    HW218104   2.613   1.278   7.564 -0.4958  0.4308 -0.6816
 5630SOL     OW18105   3.287   1.090   7.091  0.1928  0.0526  0.3937
 5630SOL    HW118106   3.303   1.053   7.178 -0.5253  0.4953  0.7213
 5630SOL    HW218107   3.293   1.185   7.104  0.6892  0.0961 -0.1641
 5631SOL     OW18108   2.698   0.627   5.904  0.3241 -0.0851 -0.6807
 5631SOL    HW118109   2.662   0.620   5.815  0.9440  1.0984 -1.0480
 5631SOL    HW218110   2.788   0.658   5.891  0.6346 -0.5173  0.3379
 5632SOL     OW18111   3.721   0.477   7.023 -0.4623  1.3321  0.5723
 5632SOL    HW118112   3.733   0.537   7.097 -0.0506  0.0784  1.5689
 5632SOL    HW218113   3.796   0.492   6.967  0.5606  0.5902  1.6872
 5633SOL     OW18114   2.158   1.469   7.241 -0.4696  0.0940  0.4981
 5633SOL    HW118115   2.162   1.469   7.146 -3.6829  0.7303  0.2353
 5633SOL    HW218116   2.214   1.396   7.268 -1.4471 -1.7479 -2.0654
 5634SOL     OW18117   2.316   0.626   6.475 -0.1903  0.4512  0.6318
 5634SOL    HW118118   2.317   0.573   6.554  0.5630  0.4443  0.6289
 5634SOL    HW218119   2.395   0.599   6.427 -1.8326 -1.2920 -1.3124
 5635SOL     OW18120   3.061   1.085   7.640 -0.3216  0.2385 -0.1373
 5635SOL    HW118121   3.051   1.088   7.545  0.7363  0.9466 -0.2476
 5635SOL    HW218122   2.986   1.134   7.674 -1.4023 -1.0894 -0.5266
 5636SOL     OW18123   2.216   0.944   5.499  0.0020 -0.3512 -0.2337
 5636SOL    HW118124   2.221   0.972   5.407 -0.4520 -2.7254 -1.0623
 5636SOL    HW218125   2.126   0.913   5.509  0.0935 -0.2478  0.9921
 5637SOL     OW18126   2.153   1.153   7.293  0.1176  0.7683  0.3933
 5637SOL    HW118127   2.223   1.218   7.300  1.2123 -0.2988 -0.2477
 5637SOL    HW218128   2.172   1.105   7.213 -1.7837  0.8996 -0.1869
 5638SOL     OW18129   4.057   0.765   7.043  0.2861  0.5103  0.3825
 5638SOL    HW118130   3.973   0.810   7.053 -0.8923 -1.0624 -1.6641
 5638SOL    HW218131   4.105   0.818   6.979  1.2126  1.7955  2.0688
 5639SOL     OW18132   3.548   0.765   6.661  0.2072 -0.1695  0.1556
 5639SOL    HW118133   3.545   0.680   6.705 -1.7787  0.3974  1.2414
 5639SOL    HW218134   3.586   0.746   6.575  0.7560 -1.9548  0.7412
 5640SOL     OW18135   3.603   1.721   7.238 -0.2775  0.7649  0.1460
 5640SOL    HW118136   3.626   1.736   7.146  1.2218  0.3143  0.4148
 5640SOL    HW218137   3.516   1.681   7.235 -0.0126  0.2308 -1.1245
 5641SOL     OW18138   2.814   1.592   6.742  0.0289  0.2403 -0.4155
 5641SOL    HW118139   2.741   1.549   6.698  0.4410 -0.7794 -0.1479
 5641SOL    HW218140   2.892   1.553   6.701  0.4209 -0.2998  0.7864
 5642SOL     OW18141   2.064   0.760   6.813  0.1170  0.2669  0.3411
 5642SOL    HW118142   2.055   0.665   6.812  2.5378 -0.1201  2.7230
 5642SOL    HW218143   2.123   0.779   6.740 -0.8347  0.0563 -0.5059
 5643SOL     OW18144   2.968   1.805   8.112 -0.1408 -0.5747  0.0641
 5643SOL    HW118145   3.007   1.830   8.029  0.1696  0.1731  0.4214
 5643SOL    HW218146   2.934   1.717   8.098  2.1788 -1.4993 -0.0792
 5644SOL     OW18147   3.658   0.473   6.333 -0.5609  0.0885 -0.2355
 5644SOL    HW118148   3.704   0.515   6.260 -0.8702  2.4663  0.8558
 5644SOL    HW218149   3.724   0.467   6.403 -1.0231  0.5398  0.2506
 5645SOL     OW18150   3.573   1.721   6.374 -0.8185  0.2317  0.4729
 5645SOL    HW118151   3.632   1.674   6.315 -1.7975  0.8702 -1.0710
 5645SOL    HW218152   3.485   1.699   6.344 -1.3179  1.6397  0.8146
 5646SOL     OW18153   1.701   1.380   7.766  0.2772  0.0133 -0.2785
 5646SOL    HW118154   1.718   1.328   7.688  1.3135 -0.0162 -0.0492
 5646SOL    HW218155   1.610   1.360   7.790  0.8869 -2.3639  0.2842
 5647SOL     OW18156   3.190   1.309   6.564 -0.1989  0.5363 -0.1977
 5647SOL    HW118157   3.203   1.215   6.580 -1.0817  0.4354  0.0100
 5647SOL    HW218158   3.231   1.325   6.478  1.5480  0.3561  0.5663
 5648SOL     OW18159   2.772   1.381   7.431  0.3650  0.2506  0.3319
 5648SOL    HW118160   2.833   1.454   7.438  1.3643 -0.4095 -1.1960
 5648SOL    HW218161   2.700   1.415   7.377  1.5571 -0.2993 -1.6965
 5649SOL     OW18162   2.568   1.413   5.970 -0.2871  0.1829  0.3321
 5649SOL    HW118163   2.575   1.496   5.924  0.2728 -0.2894 -0.4486
 5649SOL    HW218164   2.517   1.357   5.911 -0.3859 -0.1306  0.7114
 5650SOL     OW18165   3.752   1.301   7.199 -0.3160  0.4473  0.3114
 5650SOL    HW118166   3.714   1.340   7.121  0.0273  0.3070  0.0690
 5650SOL    HW218167   3.821   1.362   7.225 -0.8880  0.8443  0.9130
 5651SOL     OW18168   3.459   0.242   6.532 -0.3936 -0.1990  0.2795
 5651SOL    HW118169   3.489   0.193   6.456 -1.4634  1.8735 -1.5975
 5651SOL    HW218170   3.377   0.282   6.504 -0.0846  1.8289  1.9978
 5652SOL     OW18171   1.938   0.754   6.503  1.2781  0.6515 -0.2562
 5652SOL    HW118172   1.944   0.681   6.565  1.2126  0.3709 -0.5762
 5652SOL    HW218173   1.919   0.831   6.557  1.4381  0.4449  0.0916
 5653SOL     OW18174   3.242   1.667   5.841  0.0106  0.5026  0.3409
 5653SOL    HW118175   3.303   1.670   5.768  1.0554 -1.7147  1.0231
 5653SOL    HW218176   3.159   1.640   5.802  0.0491  1.2898 -0.2889
 5654SOL     OW18177   2.712   0.839   6.708  0.7172  0.4102 -0.4366
 5654SOL    HW118178   2.790   0.888   6.732  0.7466 -0.7497  2.1583
 5654SOL    HW218179   2.654   0.846   6.784 -0.5599 -0.9887 -1.2033
 5655SOL     OW18180   3.810   0.221   5.798  0.3978 -0.9645  0.2534
 5655SOL    HW118181   3.744   0.287   5.822  0.1387 -0.7905 -0.8509
 5655SOL    HW218182   3.778   0.140   5.837  0.3596 -0.5726  1.0545
 5656SOL     OW18183   3.663   1.580   5.643 -0.0922  0.4862 -0.2771
 5656SOL    HW118184   3.714   1.524   5.701 -1.8522 -1.2184 -0.2812
 5656SOL    HW218185   3.727   1.640   5.605  1.6939 -0.7967  0.5852
 5657SOL     OW18186   1.870   1.409   7.195  0.1270 -0.2300  0.0377
 5657SOL    HW118187   1.885   1.329   7.143 -2.0677  0.2093 -1.4310
 5657SOL    HW218188   1.957   1.439   7.219  1.0602 -2.4786 -0.2820
 5658SOL     OW18189   3.845   0.817   6.812  0.2688 -0.2763  0.2730
 5658SOL    HW118190   3.824   0.848   6.725  1.7598  0.9044  0.2947
 5658SOL    HW218191   3.872   0.895   6.860 -0.3375 -0.9312  1.7418
 5659SOL     OW18192   3.095   1.275   6.186 -0.3825  0.1238  0.3248
 5659SOL    HW118193   3.063   1.310   6.103  0.5961 -1.1693 -0.6443
 5659SOL    HW218194   3.183   1.312   6.194 -1.3991  2.4155  2.1975
 5660SOL     OW18195   2.902   0.180   6.438  0.1658 -0.4806 -0.1608
 5660SOL    HW118196   2.903   0.084   6.440  1.4031 -0.4635  0.8361
 5660SOL    HW218197   2.937   0.202   6.352  1.1949 -0.9289  0.1304
 5661SOL     OW18198   2.537   1.520   6.217  0.2468  0.5519  0.1496
 5661SOL    HW118199   2.547   1.483   6.129 -0.7230  2.2847 -0.7668
 5661SOL    HW218200   2.516   1.613   6.201 -1.6008  0.5606  2.1422
 5662SOL     OW18201   3.845   0.391   6.559 -0.1894  0.3733 -0.2678
 5662SOL    HW118202   3.856   0.437   6.642 -1.2186  0.2856 -0.0746
 5662SOL    HW218203   3.925   0.411   6.510 -0.1056  1.4087  0.2671
 5663SOL     OW18204   2.046   1.287   6.351  0.0001 -0.3749  0.3458
 5663SOL    HW118205   2.115   1.249   6.297 -0.4424 -1.9839  0.8496
 5663SOL    HW218206   1.998   1.344   6.292 -0.7449 -2.4223 -1.1221
 5664SOL     OW18207   2.373   1.294   7.335  0.0630 -0.2831 -0.4439
 5664SOL    HW118208   2.431   1.319   7.263  0.2976  0.5770  0.0171
 5664SOL    HW218209   2.431   1.255   7.400  0.3354  1.4204  0.4170
 5665SOL     OW18210   2.861   0.096   7.233 -0.4853 -0.8223  0.2175
 5665SOL    HW118211   2.816   0.166   7.187  1.7877 -0.4456 -1.6342
 5665SOL    HW218212   2.828   0.100   7.323 -0.6037  2.4889  0.1271
 5666SOL     OW18213   1.833   0.576   5.600  0.0191  0.4470  0.2985
 5666SOL    HW118214   1.820   0.481   5.600  1.5538  0.1737 -1.7221
 5666SOL    HW218215   1.853   0.597   5.691 -1.5194 -0.9430  1.0179
 5667SOL     OW18216   3.854   1.049   7.248  0.0428  0.2082  0.5302
 5667SOL    HW118217   3.840   1.142   7.231  1.7032  0.4027  0.0553
 5667SOL    HW218218   3.851   1.041   7.343 -2.5563  0.2780  0.5291
 5668SOL     OW18219   1.960   8.636   6.394  0.6600  0.3132 -0.0657
 5668SOL    HW118220   1.950   8.727   6.367 -1.7003 -0.0106 -0.4944
 5668SOL    HW218221   1.958   8.638   6.489 -0.1774  0.6564 -0.0853
 5669SOL     OW18222   3.546   1.268   5.656 -0.5718  0.0006  0.1496
 5669SOL    HW118223   3.541   1.345   5.600 -0.7156 -0.4310 -0.4381
 5669SOL    HW218224   3.509   1.198   5.604  2.3840 -1.1718 -0.5607
 5670SOL     OW18225   2.223   0.938   7.144  0.2113  0.5012  0.2797
 5670SOL    HW118226   2.131   0.918   7.125  0.7266 -2.0077 -0.0405
 5670SOL    HW218227   2.271   0.896   7.072  1.7402 -1.3027  2.2136
 5671SOL     OW18228   3.096   1.844   6.610  0.1765 -0.3972  0.0117
 5671SOL    HW118229   3.173   1.849   6.667  0.9367 -0.3000 -0.9890
 5671SOL    HW218230   3.060   1.757   6.626  0.2936 -0.3149  0.7461
 5672SOL     OW18231   2.217   1.035   7.603 -0.7158  0.2875  0.3080
 5672SOL    HW118232   2.253   1.045   7.515 -0.2061 -0.2888  0.4431
 5672SOL    HW218233   2.257   1.105   7.653 -1.1842  0.7604  0.0327
 5673SOL     OW18234   3.566   1.158   7.363  0.0059  0.1234 -0.2865
 5673SOL    HW118235   3.629   1.161   7.290  1.2402  2.8428  0.7615
 5673SOL    HW218236   3.595   1.227   7.422 -2.6769 -0.0636  1.3902
 5674SOL     OW18237   2.037   1.561   7.515 -0.0929  0.4929  0.1004
 5674SOL    HW118238   2.028   1.629   7.448  3.1164 -0.1788 -1.2015
 5674SOL    HW218239   1.991   1.485   7.478  0.1984  0.6330 -0.5646
 5675SOL     OW18240   4.227   1.109   7.408  0.5881  0.1532 -0.1571
 5675SOL    HW118241   4.228   1.023   7.364 -1.9222  0.1830 -0.3885
 5675SOL    HW218242   4.220   1.088   7.501  1.9472  0.1355 -0.0335
 5676SOL     OW18243   2.869   0.426   5.682  0.0167  0.3103  0.2509
 5676SOL    HW118244   2.958   0.391   5.680 -0.5124 -1.1097  0.0873
 5676SOL    HW218245   2.880   0.521   5.687  1.5544  0.2732 -1.4077
 5677SOL     OW18246   2.580   0.477   6.335  0.3844 -0.8449  0.2929
 5677SOL    HW118247   2.615   0.566   6.345  0.0860 -0.7469  0.4713
 5677SOL    HW218248   2.564   0.469   6.241 -0.4154 -0.3886  0.3799
 5678SOL     OW18249   3.339   0.575   6.555  0.1560  0.2718  0.1678
 5678SOL    HW118250   3.402   0.518   6.599  0.4528  0.5210  0.0666
 5678SOL    HW218251   3.288   0.614   6.626 -1.3773 -1.6026  0.1939
 5679SOL     OW18252   3.932   0.689   7.375  0.4528 -0.3891  0.1791
 5679SOL    HW118253   3.915   0.695   7.469  0.6292 -2.3627  0.3923
 5679SOL    HW218254   3.995   0.758   7.358  0.0277  0.3451  1.4078
 5680SOL     OW18255   2.894   1.203   5.836  0.2441  0.0592  0.2068
 5680SOL    HW118256   2.969   1.244   5.793  0.1448 -0.6197 -0.6421
 5680SOL    HW218257   2.854   1.273   5.887  1.2845  0.4976  0.4373
 5681SOL     OW18258   2.846   1.843   6.885  0.1290  0.0820 -0.2950
 5681SOL    HW118259   2.859   1.815   6.976  2.1763  1.5179 -0.0764
 5681SOL    HW218260   2.859   1.763   6.834  1.0673 -0.3578  0.5823
 5682SOL     OW18261   2.985   1.013   6.497  0.5588 -0.1326 -0.0429
 5682SOL    HW118262   2.962   0.978   6.583 -1.9814 -0.4883 -0.7847
 5682SOL    HW218263   3.081   1.016   6.497  0.7537 -2.8484  1.7261
 5683SOL     OW18264   3.125   0.989   5.292  0.1028  0.2957 -0.3827
 5683SOL    HW118265   3.102   0.914   5.347 -1.4379  0.3389 -0.9386
 5683SOL    HW218266   3.142   0.951   5.206 -0.6028  0.5726 -0.6462
 5684SOL     OW18267   3.875   1.563   6.898 -0.5488  0.0278 -0.4647
 5684SOL    HW118268   3.905   1.486   6.850  0.2112 -0.3938  0.6459
 5684SOL    HW218269   3.929   1.635   6.863  0.0108 -0.2791 -0.2502
 5685SOL     OW18270   1.966   1.084   7.491 -0.0810 -0.2958 -0.3870
 5685SOL    HW118271   2.034   1.074   7.558  0.4932  1.1931 -0.7188
 5685SOL    HW218272   2.014   1.096   7.409 -0.7763 -1.3022 -0.9588
 5686SOL     OW18273   1.849   0.739   6.112  0.2379  0.2019 -0.3468
 5686SOL    HW118274   1.784   0.723   6.180  1.3622 -3.1266  0.0999
 5686SOL    HW218275   1.932   0.743   6.159  0.6988  1.6115 -1.2089
 5687SOL     OW18276   2.891   1.616   7.461  0.1760 -0.1482  0.0298
 5687SOL    HW118277   2.828   1.669   7.412 -0.1520 -0.8746 -0.3391
 5687SOL    HW218278   2.866   1.629   7.553 -0.3637 -0.2352 -0.1000
 5688SOL     OW18279   3.704   0.146   6.618 -0.1631 -0.0704 -0.2394
 5688SOL    HW118280   3.765   0.218   6.601  1.0755 -0.6118  1.7299
 5688SOL    HW218281   3.618   0.189   6.624  0.6153  1.3445  1.3569
 5689SOL     OW18282   2.363   0.026   6.337  0.7137 -0.9468 -0.1318
 5689SOL    HW118283   2.457   0.042   6.343  0.6195  0.1747 -1.2142
 5689SOL    HW218284   2.342  -0.023   6.416  2.1223 -0.7939  0.3654
 5690SOL     OW18285   3.837   1.103   6.907  0.3507  0.0354 -0.3332
 5690SOL    HW118286   3.787   1.150   6.974 -0.5313 -1.0712 -0.1953
 5690SOL    HW218287   3.808   1.140   6.824 -0.8323 -0.7163 -0.2630
 5691SOL     OW18288   1.804   0.359   6.913  0.4702 -0.2357 -0.4401
 5691SOL    HW118289   1.743   0.407   6.857 -1.2350  0.1398  1.6255
 5691SOL    HW218290   1.846   0.427   6.966 -0.0013 -0.7910  0.6659
 5692SOL     OW18291   3.444   1.317   5.915 -0.5035 -0.0867  0.3198
 5692SOL    HW118292   3.368   1.275   5.875  0.4468 -2.1036  0.5066
 5692SOL    HW218293   3.497   1.347   5.841  0.7208 -2.8447 -0.0578
 5693SOL     OW18294   3.145   0.646   6.348  0.4724 -0.0131 -0.1201
 5693SOL    HW118295   3.204   0.644   6.273 -1.2461  0.4152 -1.5440
 5693SOL    HW218296   3.187   0.589   6.412  0.3179 -3.3512 -2.7156
 5694SOL     OW18297   2.613   0.157   6.461  0.2320  0.1591 -0.1794
 5694SOL    HW118298   2.577   0.210   6.532 -0.4201 -0.2050 -0.2291
 5694SOL    HW218299   2.707   0.158   6.475  0.0028 -1.4487  1.8028
 5695SOL     OW18300   2.979   0.954   5.681  0.2207  0.0798 -0.2446
 5695SOL    HW118301   2.982   1.015   5.755 -0.1312 -1.7117  1.3294
 5695SOL    HW218302   2.923   0.997   5.616 -1.3590  0.7242  1.4782
 5696SOL     OW18303   2.309   1.049   6.867 -0.1435  0.3450  0.8689
 5696SOL    HW118304   2.280   1.075   6.780  1.9655  0.4228  0.1511
 5696SOL    HW218305   2.245   1.089   6.926 -1.5455  0.3770 -0.6082
 5697SOL     OW18306   3.374   8.763   6.040  0.2550 -0.4255 -0.6504
 5697SOL    HW118307   3.303   8.719   5.992 -1.4115 -0.0947  1.3512
 5697SOL    HW218308   3.445   8.699   6.042  0.1870 -0.6715 -2.9516
 5698SOL     OW18309   3.793   0.530   6.096 -0.0477  0.4225 -0.3437
 5698SOL    HW118310   3.733   0.509   6.024 -0.0983 -3.0932  0.5739
 5698SOL    HW218311   3.868   0.472   6.083  1.4881  2.0521  0.6719
 5699SOL     OW18312   3.423   0.379   6.235  0.4710 -0.2072  0.2417
 5699SOL    HW118313   3.360   0.353   6.302  0.6302  0.0070  0.4757
 5699SOL    HW218314   3.506   0.390   6.282  0.2622  1.4501  0.3059
 5700SOL     OW18315   2.162   0.635   6.000 -0.4886 -0.4302 -0.7805
 5700SOL    HW118316   2.199   0.723   6.008 -0.6349 -0.3379 -1.0901
 5700SOL    HW218317   2.126   0.616   6.087  0.5386 -0.6435 -0.3903
 5701SOL     OW18318   2.840   1.432   6.007 -0.1059 -0.3950  0.7118
 5701SOL    HW118319   2.751   1.402   6.026 -0.5079  0.4636  0.2155
 5701SOL    HW218320   2.838   1.526   6.024  0.6627 -0.3385  0.5195
 5702SOL     OW18321   1.879   0.929   7.833 -0.0997 -0.0241 -0.3728
 5702SOL    HW118322   1.846   0.933   7.923  0.5746  0.7089 -0.1376
 5702SOL    HW218323   1.801   0.918   7.779 -0.6083  0.4326  0.2451
 5703SOL     OW18324   2.417   0.363   8.538  0.3854 -0.2894 -0.3791
 5703SOL    HW118325   2.479   0.388   8.607 -0.2283 -0.6212  0.3151
 5703SOL    HW218326   2.411   0.268   8.546 -0.9300 -0.1716  0.1998
 5704SOL     OW18327   2.436   0.483   8.070  0.0964  0.8651 -0.2768
 5704SOL    HW118328   2.509   0.451   8.018  0.5800  1.4244  0.0619
 5704SOL    HW218329   2.449   0.577   8.077 -1.1431  1.1126 -0.9709
 5705SOL     OW18330   2.871   1.402   8.739 -0.3210 -0.6434  0.4449
 5705SOL    HW118331   2.860   1.440   8.826  1.5171  0.3687  0.2794
 5705SOL    HW218332   2.914   1.470   8.688  0.7495 -2.0279 -0.5897
 5706SOL     OW18333   3.435   1.833   8.291  0.8724  0.5042  0.6261
 5706SOL    HW118334   3.370   1.769   8.263  2.4878 -1.1436  0.4470
 5706SOL    HW218335   3.492   1.784   8.351  0.6544  2.5004  2.5708
 5707SOL     OW18336   3.383   1.222   8.359  0.5404  0.4560  0.2558
 5707SOL    HW118337   3.351   1.174   8.282  0.0317  1.4797 -0.1864
 5707SOL    HW218338   3.399   1.153   8.424 -1.1442 -0.2511 -0.0102
 5708SOL     OW18339   3.163   0.323   6.959  0.2593  0.1744 -0.3955
 5708SOL    HW118340   3.095   0.273   6.916 -0.0717 -0.1483  0.4774
 5708SOL    HW218341   3.137   0.325   7.052  1.9671 -0.9015  0.1614
 5709SOL     OW18342   2.915   1.131   8.662 -0.8171 -0.1750 -0.7950
 5709SOL    HW118343   2.948   1.170   8.581  0.1761 -0.4569 -0.5425
 5709SOL    HW218344   2.921   1.201   8.727 -0.0360 -0.4212 -0.5890
 5710SOL     OW18345   2.782   0.857   8.497 -0.1634 -0.1861  0.1846
 5710SOL    HW118346   2.868   0.834   8.461 -0.2347  0.1474 -0.2051
 5710SOL    HW218347   2.750   0.927   8.440  0.0694  0.9157  1.3575
 5711SOL     OW18348   2.114   1.358   8.563  0.1027  0.4326  0.1227
 5711SOL    HW118349   2.162   1.389   8.639 -1.7313  1.5176  0.9101
 5711SOL    HW218350   2.054   1.292   8.598 -0.4690  0.6414 -0.4340
 5712SOL     OW18351   2.120   0.295   8.830  0.0155 -0.4160  0.1074
 5712SOL    HW118352   2.205   0.264   8.800  0.2053  0.0691  0.1327
 5712SOL    HW218353   2.133   0.389   8.847 -0.5184 -0.3408  0.1208
 5713SOL     OW18354   4.004   1.219   8.401 -0.2694  0.1024  0.3966
 5713SOL    HW118355   4.039   1.265   8.477 -0.3788  1.2004 -0.2015
 5713SOL    HW218356   3.943   1.281   8.362 -0.8897 -0.7951 -0.0810
 5714SOL     OW18357   2.078   1.810   8.209  0.4067 -0.4595  0.4659
 5714SOL    HW118358   2.106   1.735   8.262  1.9471 -0.4259 -0.2344
 5714SOL    HW218359   2.140   1.811   8.136 -0.1414  0.9773 -0.0024
 5715SOL     OW18360   2.382   1.679   8.296  0.4454  0.2830 -0.5268
 5715SOL    HW118361   2.415   1.733   8.367  1.6328 -0.1275 -0.7273
 5715SOL    HW218362   2.321   1.618   8.338 -1.0383  1.8548 -0.3353
 5716SOL     OW18363   2.428   0.848   8.527 -0.1271 -0.1117  0.1907
 5716SOL    HW118364   2.377   0.772   8.556 -2.1825  1.2380  0.3382
 5716SOL    HW218365   2.489   0.865   8.598 -1.0860 -0.3902  1.1101
 5717SOL     OW18366   2.224   2.187   0.145  0.8978 -0.3920 -0.1115
 5717SOL    HW118367   2.283   2.113   0.163 -0.0770 -1.1984 -0.1458
 5717SOL    HW218368   2.274   2.264   0.173  1.1980 -1.2124  1.7953
 5718SOL     OW18369   3.056   0.907   7.258  0.7149  0.5011 -0.4195
 5718SOL    HW118370   3.042   0.995   7.294 -1.8763 -0.5486  1.4513
 5718SOL    HW218371   3.034   0.915   7.166 -0.5322  1.6136 -0.0516
 5719SOL     OW18372   2.145   0.762   8.238 -0.1855 -0.1494 -0.9285
 5719SOL    HW118373   2.232   0.732   8.210 -0.0227 -0.1342 -0.4544
 5719SOL    HW218374   2.087   0.740   8.165  0.1212 -0.6551 -1.0273
 5720SOL     OW18375   3.585   1.882   7.716 -0.4915 -0.2297  0.2154
 5720SOL    HW118376   3.678   1.894   7.696 -0.2166 -1.9727  0.2876
 5720SOL    HW218377   3.552   1.826   7.646 -1.2457 -0.4811  0.7537
 5721SOL     OW18378   1.941   1.247   7.918  0.1285  0.3369  0.0459
 5721SOL    HW118379   1.993   1.291   7.851  2.2078 -1.3122  0.4619
 5721SOL    HW218380   1.858   1.295   7.919  0.3455  0.9920 -3.0299
 5722SOL     OW18381   3.577   0.581   8.063  0.4851 -0.2131 -0.0189
 5722SOL    HW118382   3.522   0.523   8.010  1.8513 -2.1373  0.5689
 5722SOL    HW218383   3.587   0.659   8.009 -0.7847 -0.7997 -1.1827
 5723SOL     OW18384   3.721   1.475   7.967 -0.0645  0.4729 -1.1219
 5723SOL    HW118385   3.816   1.471   7.981  0.1360  1.4555 -2.0048
 5723SOL    HW218386   3.683   1.429   8.041  1.0877  0.7031 -0.3692
 5724SOL     OW18387   2.614   1.475   8.430  0.0127 -0.0633  0.5977
 5724SOL    HW118388   2.563   1.455   8.351  2.6761 -1.8828 -0.8083
 5724SOL    HW218389   2.624   1.390   8.473  1.7539  0.2474  0.8605
 5725SOL     OW18390   2.694   0.522   7.670  0.2169  0.1515  0.3229
 5725SOL    HW118391   2.780   0.522   7.712  0.4101  0.2170 -0.0714
 5725SOL    HW218392   2.711   0.550   7.580 -0.1767 -0.1140  0.1627
 5726SOL     OW18393   2.006   1.113   8.817 -0.0466 -0.0558 -0.2029
 5726SOL    HW118394   2.037   1.181   8.876  0.5646 -0.0387 -0.5419
 5726SOL    HW218395   2.084   1.062   8.795 -0.4041 -0.5337 -0.3844
 5727SOL     OW18396   3.248   0.505   7.708  0.2041 -0.7736 -0.3198
 5727SOL    HW118397   3.299   0.520   7.629 -0.5704 -0.8046 -0.8311
 5727SOL    HW218398   3.313   0.484   7.775  0.9013 -0.2346 -0.8201
 5728SOL     OW18399   4.104   1.002   8.523  0.0049  0.3548  0.3226
 5728SOL    HW118400   4.187   1.004   8.476  0.7167  1.4591  1.5440
 5728SOL    HW218401   4.050   1.068   8.480  0.0229  0.1309 -0.0400
 5729SOL     OW18402   3.532   2.028   8.544  0.2306 -0.2901  0.0314
 5729SOL    HW118403   3.504   1.938   8.529  1.1487 -0.4088 -1.1544
 5729SOL    HW218404   3.515   2.072   8.460 -1.2358  0.9514  0.9092
 5730SOL     OW18405   2.904   1.151   8.004  0.3800  0.1887  0.3229
 5730SOL    HW118406   2.884   1.070   7.958  0.9545  0.1068  0.2152
 5730SOL    HW218407   2.995   1.169   7.983  0.6632  0.1407  1.4421
 5731SOL     OW18408   3.277   0.449   8.459  0.0502  0.0200  0.0070
 5731SOL    HW118409   3.350   0.487   8.506  0.5589  1.0000 -1.4938
 5731SOL    HW218410   3.317   0.399   8.388 -0.6927 -1.2351  0.4323
 5732SOL     OW18411   3.614   2.037   8.255  0.1865  0.1942  0.3852
 5732SOL    HW118412   3.639   2.083   8.174 -3.3807  0.9473 -0.4799
 5732SOL    HW218413   3.552   1.971   8.227 -0.4196 -0.1761  2.4288
 5733SOL     OW18414   2.925   0.815   0.039 -0.5520 -0.3092  0.5688
 5733SOL    HW118415   2.862   0.886   0.023  1.3881  1.8120  1.7348
 5733SOL    HW218416   2.895   0.776   0.121 -0.0297  1.1753  1.5156
 5734SOL     OW18417   2.978   0.565   8.788  0.5100 -0.0580  0.0980
 5734SOL    HW118418   2.968   0.653   8.824  0.2957 -0.2867  0.6097
 5734SOL    HW218419   2.913   0.560   8.718 -0.0077 -0.0675  0.5720
 5735SOL     OW18420   3.159   0.729   7.468  0.2958 -0.4423 -0.4205
 5735SOL    HW118421   3.218   0.788   7.515 -0.8018  0.3652 -0.0029
 5735SOL    HW218422   3.111   0.787   7.408 -1.4393 -0.7381  0.6306
 5736SOL     OW18423   2.408   1.033   8.326  0.4051 -0.3819 -0.4879
 5736SOL    HW118424   2.313   1.042   8.339  0.7736  1.3574  1.6718
 5736SOL    HW218425   2.436   0.975   8.397  1.1094  0.2420 -0.2385
 5737SOL     OW18426   2.094   1.667   8.792 -0.1004 -0.2876 -0.1650
 5737SOL    HW118427   2.016   1.650   8.738  0.4704 -0.7434 -0.8543
 5737SOL    HW218428   2.167   1.667   8.730  0.4084  0.5621  0.4137
 5738SOL     OW18429   2.532   0.312   7.448  0.0517  0.0162  0.2383
 5738SOL    HW118430   2.518   0.272   7.362  0.1306  0.8889 -0.1844
 5738SOL    HW218431   2.593   0.384   7.432 -1.1404  1.1793  0.7559
 5739SOL     OW18432   3.554   0.784   7.862  0.1583 -0.1851 -0.3556
 5739SOL    HW118433   3.564   0.701   7.815  0.9654  0.2076 -0.9161
 5739SOL    HW218434   3.581   0.851   7.799 -2.1046  0.6695 -0.4859
 5740SOL     OW18435   2.539   0.735   8.042 -0.0049  0.2911  0.2172
 5740SOL    HW118436   2.624   0.693   8.035 -0.5894 -0.7743 -0.8540
 5740SOL    HW218437   2.513   0.753   7.952 -0.6940  1.0814  0.5585
 5741SOL     OW18438   2.885   1.477   8.332  0.0316  0.1438  0.0761
 5741SOL    HW118439   2.838   1.469   8.249  1.2505 -1.5761 -0.4907
 5741SOL    HW218440   2.816   1.490   8.397 -1.0445  0.1598 -1.0223
 5742SOL     OW18441   2.198   2.009   8.456  0.0789 -0.2763 -0.5644
 5742SOL    HW118442   2.182   2.006   8.361  2.7470  2.2491 -1.2635
 5742SOL    HW218443   2.279   1.961   8.468 -0.5311 -1.0568  0.5755
 5743SOL     OW18444   3.885   1.026   7.982 -0.1118  0.1403 -0.4754
 5743SOL    HW118445   3.971   1.056   8.011 -0.5645  0.2146  0.8388
 5743SOL    HW218446   3.844   0.991   8.060 -1.0378 -0.4950 -1.2239
 5744SOL     OW18447   2.479   1.236   7.954 -0.1511 -0.8034 -0.0041
 5744SOL    HW118448   2.525   1.154   7.969 -0.8099 -1.2427 -0.3517
 5744SOL    HW218449   2.458   1.269   8.042 -2.0804 -2.2699  0.1507
 5745SOL     OW18450   3.786   0.895   8.192 -0.0598  0.0793 -0.6004
 5745SOL    HW118451   3.869   0.852   8.213 -0.4721 -0.5761 -0.2682
 5745SOL    HW218452   3.719   0.837   8.228 -0.6749  0.4961 -1.0441
 5746SOL     OW18453   3.185   2.126   7.729  0.6512  0.2254  0.0873
 5746SOL    HW118454   3.112   2.140   7.668 -0.1156  1.7366  1.2568
 5746SOL    HW218455   3.263   2.143   7.677  0.0506  0.6739 -0.6981
 5747SOL     OW18456   3.521   1.517   7.799 -0.2251 -0.3559 -0.2642
 5747SOL    HW118457   3.582   1.471   7.856 -1.3611 -3.0212 -1.0469
 5747SOL    HW218458   3.566   1.525   7.716 -0.4977 -1.3466 -0.5230
 5748SOL     OW18459   2.448   1.670   7.631  0.5230 -0.6537 -0.4834
 5748SOL    HW118460   2.408   1.668   7.544 -0.4511 -0.2446 -0.0626
 5748SOL    HW218461   2.483   1.582   7.644 -1.6442 -1.5349 -0.2371
 5749SOL     OW18462   3.519   0.514   8.560 -0.3072 -0.0927  0.0495
 5749SOL    HW118463   3.561   0.428   8.566  0.8253  0.4778  0.5193
 5749SOL    HW218464   3.586   0.576   8.589 -1.8217  0.7692  1.8770
 5750SOL     OW18465   1.907   1.691   8.513 -0.2600  0.3479  0.0068
 5750SOL    HW118466   1.923   1.785   8.520 -0.6588  0.3139  2.3262
 5750SOL    HW218467   1.819   1.684   8.477 -0.4607  0.9029  0.3623
 5751SOL     OW18468   3.216   1.975   8.199 -0.2957  0.5920 -0.3349
 5751SOL    HW118469   3.262   2.021   8.129  0.3410 -1.3662 -1.2785
 5751SOL    HW218470   3.286   1.940   8.254 -0.7019 -0.4284 -0.4531
 5752SOL     OW18471   2.374   0.789   7.824  1.2408  0.4860  0.3672
 5752SOL    HW118472   2.410   0.855   7.766 -0.5249  1.7129  0.5978
 5752SOL    HW218473   2.313   0.836   7.880 -1.5515 -1.5879 -0.7020
 5753SOL     OW18474   2.491   0.154   7.232 -0.0824  0.3219 -0.1394
 5753SOL    HW118475   2.524   0.108   7.309 -0.8509  0.8872  0.5484
 5753SOL    HW218476   2.497   0.090   7.161  1.9500  0.2206  0.0562
 5754SOL     OW18477   3.057   1.781   8.653 -0.0075 -0.3027 -0.1331
 5754SOL    HW118478   2.973   1.809   8.616  0.4403  0.4661 -0.6003
 5754SOL    HW218479   3.098   1.863   8.683  1.6943 -0.3065 -2.2599
 5755SOL     OW18480   2.666   1.828   8.548 -0.5292 -0.3846 -0.6175
 5755SOL    HW118481   2.730   1.800   8.483  0.7507 -0.6595  0.7135
 5755SOL    HW218482   2.680   1.769   8.623 -0.5636  1.2090  0.6860
 5756SOL     OW18483   3.335   0.303   8.243  0.6608  0.3671 -0.0658
 5756SOL    HW118484   3.359   0.211   8.246 -1.7715 -0.2954  1.9095
 5756SOL    HW218485   3.284   0.312   8.161  2.7432  0.5511 -1.4123
 5757SOL     OW18486   3.074   0.245   7.672  0.0473 -0.0677 -0.4221
 5757SOL    HW118487   3.128   0.169   7.651  0.0462 -0.1094 -0.2715
 5757SOL    HW218488   3.137   0.315   7.688  0.0573 -0.1324 -0.1833
 5758SOL     OW18489   3.806   1.148   7.582 -0.2345  0.2057 -0.6572
 5758SOL    HW118490   3.878   1.194   7.625 -0.7143  0.1239  0.2554
 5758SOL    HW218491   3.771   1.090   7.650 -1.6981  0.8639 -0.8182
 5759SOL     OW18492   2.282   8.813   7.625  0.7269  0.1775 -0.1466
 5759SOL    HW118493   2.188   8.829   7.626  0.6833 -0.0873  0.1299
 5759SOL    HW218494   2.292   8.732   7.573  0.6868 -0.4880  0.8631
 5760SOL     OW18495   2.756   0.485   7.397  0.0075 -0.0673  0.6729
 5760SOL    HW118496   2.849   0.495   7.416 -0.1360  0.5619  1.0787
 5760SOL    HW218497   2.740   0.544   7.323 -0.1148  0.0067  0.7581
 5761SOL     OW18498   2.862   1.773   8.384 -0.0927 -0.0484  0.3457
 5761SOL    HW118499   2.892   1.683   8.369  0.2174 -0.0927  1.2088
 5761SOL    HW218500   2.911   1.825   8.320  2.1158 -0.0770  1.9127
 5762SOL     OW18501   2.582   1.349   8.809  0.6225  0.4365  0.3607
 5762SOL    HW118502   2.554   1.311   8.726 -0.6473  0.9480  0.5319
 5762SOL    HW218503   2.667   1.388   8.789  0.9404 -0.5730 -0.3593
 5763SOL     OW18504   2.930   1.539   7.893  0.0471  0.1990 -0.0500
 5763SOL    HW118505   2.862   1.509   7.952 -0.0497 -0.4222 -0.4679
 5763SOL    HW218506   3.011   1.503   7.930 -0.1609 -1.3407 -1.0131
 5764SOL     OW18507   2.693   1.011   7.308 -0.3311  0.3621 -0.7829
 5764SOL    HW118508   2.621   1.044   7.254 -0.8318 -1.6367 -1.4566
 5764SOL    HW218509   2.650   0.949   7.369  0.1529  2.7438  2.2288
 5765SOL     OW18510   2.342   0.611   8.633  0.4584 -0.2205 -0.2439
 5765SOL    HW118511   2.364   0.534   8.580  0.3587 -1.8393  1.9153
 5765SOL    HW218512   2.298   0.575   8.710 -1.5768  2.1996 -0.1426
 5766SOL     OW18513   2.806   0.860   7.614 -0.1701 -0.0356 -0.3760
 5766SOL    HW118514   2.826   0.846   7.521 -0.0763  1.3851 -0.5930
 5766SOL    HW218515   2.715   0.833   7.623  0.0367 -0.8909 -0.7042
 5767SOL     OW18516   2.872   8.648   7.968 -0.5656  0.5061 -0.2504
 5767SOL    HW118517   2.881   8.673   7.876 -2.3141  1.7551 -0.1295
 5767SOL    HW218518   2.926   8.711   8.015  0.7979 -0.4856 -0.4068
 5768SOL     OW18519   3.475   1.317   8.676  0.2421  0.3614  0.5001
 5768SOL    HW118520   3.493   1.301   8.768  0.0108  2.7444  1.0438
 5768SOL    HW218521   3.561   1.334   8.637  0.1272  3.1655  1.2090
 5769SOL     OW18522   3.910   0.261   8.642 -0.1357 -0.1354  0.3310
 5769SOL    HW118523   3.958   0.343   8.631  1.0097 -0.9322 -0.9585
 5769SOL    HW218524   3.973   0.193   8.618 -1.2034 -1.3730  0.8943
 5770SOL     OW18525   3.498   0.413   7.842 -0.3170  0.3643  0.8001
 5770SOL    HW118526   3.532   0.331   7.877  0.3024 -0.2316 -1.0487
 5770SOL    HW218527   3.553   0.431   7.765 -2.4480  0.8165 -0.7141
 5771SOL     OW18528   2.571   1.429   7.754  0.2206  0.3977 -0.4386
 5771SOL    HW118529   2.545   1.353   7.806  1.2947 -0.5467 -1.2313
 5771SOL    HW218530   2.561   1.503   7.813  1.0473 -0.5965  1.0166
 5772SOL     OW18531   3.212   1.420   8.448 -0.1010 -0.5214  0.6391
 5772SOL    HW118532   3.287   1.362   8.438 -0.0825 -0.4620  0.4359
 5772SOL    HW218533   3.220   1.483   8.377  0.4442  0.3583  1.4409
 5773SOL     OW18534   3.196   0.720   7.098 -0.6211  0.3811  0.4372
 5773SOL    HW118535   3.285   0.754   7.086 -0.6241 -0.2007 -1.6507
 5773SOL    HW218536   3.171   0.749   7.186  1.4092  1.0365  0.8585
 5774SOL     OW18537   2.439   0.454   7.652 -0.2564  0.2295 -0.2825
 5774SOL    HW118538   2.529   0.473   7.681 -0.1988 -0.4932  0.0370
 5774SOL    HW218539   2.451   0.407   7.569 -0.3984  1.6157 -1.1054
 5775SOL     OW18540   4.237   1.126   0.381  0.3562  0.1129 -0.3421
 5775SOL    HW118541   4.278   1.101   0.464 -1.2180  0.8929  0.7179
 5775SOL    HW218542   4.234   1.222   0.383  0.9562  0.1850 -1.6592
 5776SOL     OW18543   3.380   1.062   8.570  0.6711 -0.4221 -0.2612
 5776SOL    HW118544   3.436   0.991   8.601  0.7437 -0.2897 -0.0870
 5776SOL    HW218545   3.396   1.134   8.631  1.1947  0.0157 -0.8899
 5777SOL     OW18546   3.785   1.027   8.428  0.3417 -0.3502 -0.9976
 5777SOL    HW118547   3.815   1.118   8.430 -1.1495  0.1642  1.1727
 5777SOL    HW218548   3.773   1.009   8.334  1.0069  1.5672 -1.5064
 5778SOL     OW18549   2.754   1.081   8.315  0.1767  0.6254  0.2106
 5778SOL    HW118550   2.729   1.081   8.222  2.0836 -1.0372 -0.3789
 5778SOL    HW218551   2.840   1.122   8.317  1.1842 -1.3495  0.8334
 5779SOL     OW18552   2.374   0.819   0.173 -0.7670  0.2269  0.5218
 5779SOL    HW118553   2.345   0.885   0.236 -3.0559 -1.3795  1.3143
 5779SOL    HW218554   2.340   0.849   0.089 -1.8518  0.0857  0.8896
 5780SOL     OW18555   3.079   0.371   8.613  0.2457  0.4148 -0.2209
 5780SOL    HW118556   3.145   0.400   8.550 -0.4923  0.0426 -1.1876
 5780SOL    HW218557   3.055   0.450   8.661  1.0643  0.6350 -0.1588
 5781SOL     OW18558   2.069   1.520   0.184 -0.3761 -0.9072  0.1036
 5781SOL    HW118559   2.058   1.569   0.103 -0.5112 -1.4096 -0.1814
 5781SOL    HW218560   1.980   1.500   0.213 -0.3599  0.0227  0.8405
 5782SOL     OW18561   2.796   1.395   8.077  0.9064 -0.1669  0.4912
 5782SOL    HW118562   2.817   1.302   8.068  0.1365 -0.3158  0.1627
 5782SOL    HW218563   2.702   1.400   8.060  1.2855  0.9430 -1.6095
 5783SOL     OW18564   2.809   0.709   8.001  0.1827  0.0229  0.0692
 5783SOL    HW118565   2.847   0.794   7.978 -0.8739  0.2860 -0.7783
 5783SOL    HW218566   2.882   0.659   8.038  1.5018  0.3080 -2.0168
 5784SOL     OW18567   3.282   1.636   8.181 -0.2355 -0.3013  0.2466
 5784SOL    HW118568   3.253   1.703   8.120 -1.0278 -0.1119  0.8123
 5784SOL    HW218569   3.228   1.560   8.160 -0.5850 -0.2026  0.7709
 5785SOL     OW18570   3.693   1.054   8.773 -0.2077  0.1439  0.0160
 5785SOL    HW118571   3.787   1.038   8.771 -0.2764 -0.2313 -0.0860
 5785SOL    HW218572   3.658   1.006   8.699 -0.2615  1.7239 -1.0334
 5786SOL     OW18573   3.625   0.703   8.296 -0.2013  0.0733  0.2005
 5786SOL    HW118574   3.552   0.686   8.356 -0.6043 -0.8607 -0.5303
 5786SOL    HW218575   3.604   0.653   8.218  1.0861  0.0310 -0.1390
 5787SOL     OW18576   2.268   1.427   8.792  0.1497 -0.5151  0.0146
 5787SOL    HW118577   2.206   1.392   8.857 -0.4938 -0.2463 -0.4424
 5787SOL    HW218578   2.336   1.470   8.844 -0.2786 -0.4402  0.5195
 5788SOL     OW18579   2.640   1.206   8.553 -0.1929 -0.1911  0.3288
 5788SOL    HW118580   2.659   1.168   8.467  0.8692 -0.0824  0.5019
 5788SOL    HW218581   2.705   1.167   8.611  0.7882  1.7133  0.5620
 5789SOL     OW18582   3.164   0.930   0.091  0.8030 -0.4623 -0.7793
 5789SOL    HW118583   3.219   0.852   0.077 -0.7046 -2.3285  2.5036
 5789SOL    HW218584   3.081   0.908   0.051  1.5763  1.3695 -3.6186
 5790SOL     OW18585   3.049   0.487   7.430 -1.1094 -0.1349 -0.2806
 5790SOL    HW118586   3.095   0.422   7.483 -0.9155 -0.6370 -1.0440
 5790SOL    HW218587   3.083   0.571   7.460 -0.1666 -0.4688 -0.3875
 5791SOL     OW18588   2.801   0.497   8.601  0.0482 -0.2769  0.3665
 5791SOL    HW118589   2.723   0.530   8.646  1.2930  1.0909  1.6388
 5791SOL    HW218590   2.827   0.569   8.544  0.2899 -0.7951 -0.1875
 5792SOL     OW18591   2.142   1.270   0.151 -0.0369  0.5042  0.2655
 5792SOL    HW118592   2.121   1.223   0.232  0.1554  1.0862  0.6646
 5792SOL    HW218593   2.142   1.363   0.177 -1.7912  0.8537 -0.7939
 5793SOL     OW18594   2.647   0.591   8.342 -0.4210 -0.5354  0.0759
 5793SOL    HW118595   2.551   0.592   8.350 -0.4619  1.3103 -0.2133
 5793SOL    HW218596   2.673   0.681   8.359  1.2188 -0.8680 -0.5350
 5794SOL     OW18597   2.643   0.394   7.932  0.3570 -0.4539  0.5154
 5794SOL    HW118598   2.635   0.446   7.852 -0.4324  0.4948  1.1952
 5794SOL    HW218599   2.738   0.390   7.948  0.4373  0.7959  0.4553
 5795SOL     OW18600   2.936   0.527   7.788  0.2975 -0.1420 -0.1909
 5795SOL    HW118601   2.936   0.565   7.876 -0.7709 -1.0107  0.2141
 5795SOL    HW218602   3.017   0.557   7.748  0.2745  1.1599  0.7033
 5796SOL     OW18603   3.024   0.525   8.071 -0.2925 -0.2245  0.6806
 5796SOL    HW118604   2.988   0.487   8.151  1.4890  1.7641  2.5527
 5796SOL    HW218605   3.074   0.453   8.031 -3.0096 -1.9012  0.0468
 5797SOL     OW18606   3.104   0.234   7.262  1.0037  0.6027 -0.4947
 5797SOL    HW118607   3.068   0.313   7.303 -0.4516 -0.2791 -0.0107
 5797SOL    HW218608   3.028   0.179   7.244  1.9739 -0.6243 -0.9933
 5798SOL     OW18609   3.552   0.942   7.586 -1.1760 -0.4585  0.1673
 5798SOL    HW118610   3.460   0.938   7.613 -1.6191  1.1477 -0.9303
 5798SOL    HW218611   3.552   0.999   7.509  0.9728  1.3471  1.3548
 5799SOL     OW18612   3.223   1.322   8.809  0.2268 -0.7630  0.4029
 5799SOL    HW118613   3.297   1.324   8.748  0.0155  0.2900  0.1545
 5799SOL    HW218614   3.167   1.394   8.780 -1.7603 -2.5613 -0.4727
 5800SOL     OW18615   2.118   1.027   8.345  0.4177 -0.1328  0.5366
 5800SOL    HW118616   2.133   0.936   8.321 -0.2912 -0.4411  1.2310
 5800SOL    HW218617   2.105   1.072   8.262  2.1457 -0.3792  0.0836
 5801SOL     OW18618   2.601   1.018   8.114  0.1231 -0.1312  0.6711
 5801SOL    HW118619   2.536   1.021   8.184  0.0983 -0.7060  0.6747
 5801SOL    HW218620   2.607   0.925   8.091  0.4336  0.0070  0.1961
 5802SOL     OW18621   3.077   0.164   0.268 -0.1489  0.3091 -0.0716
 5802SOL    HW118622   3.155   0.108   0.272 -0.9077 -0.7245  1.1559
 5802SOL    HW218623   3.006   0.105   0.243 -0.3538  1.5219 -2.6711
 5803SOL     OW18624   1.719   1.126   7.383  0.3209  0.3698  0.6629
 5803SOL    HW118625   1.689   1.047   7.337 -0.2820  0.0859  1.5299
 5803SOL    HW218626   1.798   1.097   7.429 -0.4035  0.0005  1.7231
 5804SOL     OW18627   1.875   1.980   8.547  0.3470 -0.2685 -0.2622
 5804SOL    HW118628   1.782   1.992   8.524 -0.1941  0.5242  2.1003
 5804SOL    HW218629   1.922   2.014   8.471 -1.2742 -0.3730 -1.3855
 5805SOL     OW18630   2.438   1.523   0.130  0.1343  0.7285  0.2596
 5805SOL    HW118631   2.516   1.492   0.084 -1.5973 -0.8828 -1.7382
 5805SOL    HW218632   2.445   1.485   0.218  1.6242  0.7127  0.1603
 5806SOL     OW18633   2.855   0.420   8.286  0.0218 -0.8426 -0.1642
 5806SOL    HW118634   2.777   0.471   8.307  0.5802  0.6163 -1.4226
 5806SOL    HW218635   2.871   0.367   8.364 -0.9692  0.4337  0.9562
 5807SOL     OW18636   2.007   0.643   8.458 -0.3362  0.1340 -0.9559
 5807SOL    HW118637   2.022   0.553   8.487 -1.1375 -0.0214 -1.0199
 5807SOL    HW218638   2.078   0.659   8.395 -0.0820 -0.3824 -0.8106
 5808SOL     OW18639   2.909   0.927   7.860  0.2755 -0.0219  0.0364
 5808SOL    HW118640   2.999   0.893   7.854  0.4670  0.5406 -0.3797
 5808SOL    HW218641   2.871   0.909   7.774  0.3974  0.8533 -0.2075
 5809SOL     OW18642   3.747   0.667   8.640  0.3479 -0.7028 -0.3007
 5809SOL    HW118643   3.772   0.651   8.730 -0.0556 -0.8808 -0.2170
 5809SOL    HW218644   3.822   0.713   8.601  0.4813 -0.5436  0.1463
 5810SOL     OW18645   2.729   0.204   8.133  0.0770 -1.0275 -0.1458
 5810SOL    HW118646   2.726   0.298   8.150 -0.0818 -1.2111  0.9299
 5810SOL    HW218647   2.720   0.196   8.038 -0.9086 -0.0097 -0.1519
 5811SOL     OW18648   2.416   1.881   0.320 -0.2544 -0.0681 -0.3119
 5811SOL    HW118649   2.372   1.914   0.398  0.7157 -0.2736  0.3398
 5811SOL    HW218650   2.349   1.883   0.252 -1.3153 -0.5348  0.6865
 5812SOL     OW18651   2.139   0.917   7.819  0.1797 -0.0594  0.3628
 5812SOL    HW118652   2.044   0.918   7.809  0.1776  0.9017  0.4467
 5812SOL    HW218653   2.173   0.961   7.742  0.5737 -0.6006  0.2213
 5813SOL     OW18654   2.098   1.017   0.343 -0.1043 -0.0160 -0.4329
 5813SOL    HW118655   2.191   1.034   0.329 -0.0363 -0.8562 -1.0311
 5813SOL    HW218656   2.087   0.924   0.323 -1.0378  0.0317 -0.1738
 5814SOL     OW18657   3.474   0.659   0.000  0.2477  0.4407  0.0648
 5814SOL    HW118658   3.493   0.566   0.013  0.0780  0.5059  0.8983
 5814SOL    HW218659   3.520   0.703   0.072  0.7043  1.0535 -0.5908
 5815SOL     OW18660   3.200   0.639   8.259 -0.0293  0.4666 -0.1036
 5815SOL    HW118661   3.126   0.603   8.209 -1.3717  3.2610 -0.3568
 5815SOL    HW218662   3.222   0.570   8.322 -2.2776 -0.8196 -0.6040
 5816SOL     OW18663   4.167   1.899   8.206 -0.5723  0.3492  0.1921
 5816SOL    HW118664   4.076   1.883   8.182 -0.9557  0.5596  1.4257
 5816SOL    HW218665   4.172   1.994   8.218  0.2355  0.5414 -1.4688
 5817SOL     OW18666   3.112   1.535   8.696 -0.1594 -0.1876  0.1654
 5817SOL    HW118667   3.135   1.491   8.613  0.4184 -0.4465  0.4556
 5817SOL    HW218668   3.098   1.626   8.672 -2.2465 -0.6398 -0.6141
 5818SOL     OW18669   1.833   0.997   8.439  0.1184 -0.8057  0.2143
 5818SOL    HW118670   1.817   0.909   8.404  0.5149 -0.8805  0.2171
 5818SOL    HW218671   1.888   1.039   8.374 -0.9614 -0.1757 -0.3138
 5819SOL     OW18672   4.032   0.756   8.265  0.7591  0.6253  0.3598
 5819SOL    HW118673   4.119   0.754   8.305  0.7061 -0.1875  0.4586
 5819SOL    HW218674   3.975   0.714   8.329  0.1504  1.8013  0.6019
 5820SOL     OW18675   3.349   1.737   7.910  0.2831 -0.1488  1.1483
 5820SOL    HW118676   3.386   1.650   7.894 -0.0306 -0.7160  3.1676
 5820SOL    HW218677   3.425   1.795   7.907  0.4865 -0.4410 -0.3148
 5821SOL     OW18678   3.674   1.182   7.852 -0.0778  0.5827 -0.2249
 5821SOL    HW118679   3.738   1.123   7.892 -0.8761  0.0834  0.3400
 5821SOL    HW218680   3.705   1.269   7.874 -1.0846  0.3376  2.5546
 5822SOL     OW18681   2.834   1.721   7.698 -0.4933  0.3646  0.5067
 5822SOL    HW118682   2.761   1.769   7.739  2.0184  1.7606  3.8533
 5822SOL    HW218683   2.861   1.658   7.765  1.3262 -0.1532 -0.6663
 5823SOL     OW18684   4.161   0.121   8.695 -0.2306  0.4706 -0.2926
 5823SOL    HW118685   4.250   0.152   8.680 -0.1423 -0.1230 -1.0535
 5823SOL    HW218686   4.163   0.081   8.782  0.0706  1.0827 -0.0196
 5824SOL     OW18687   1.967   0.426   8.160  0.1757  0.4190 -0.4429
 5824SOL    HW118688   2.009   0.502   8.119  0.4121  1.1541  1.0966
 5824SOL    HW218689   1.898   0.464   8.215  0.8186 -0.4084  0.9772
 5825SOL     OW18690   3.285   1.494   7.631  0.0891 -0.5641 -0.0444
 5825SOL    HW118691   3.208   1.494   7.688 -1.2233  1.3037 -1.6961
 5825SOL    HW218692   3.359   1.488   7.691 -1.2808 -0.7847  1.7024
 5826SOL     OW18693   2.445   1.082   0.032 -0.0203  0.1464  0.8591
 5826SOL    HW118694   2.483   1.103   0.117 -0.5636  0.2344  1.0847
 5826SOL    HW218695   2.504   1.123  -0.032  0.7875 -0.5265  1.1545
 5827SOL     OW18696   3.179   0.781   7.901  0.1485  0.1038  0.4124
 5827SOL    HW118697   3.225   0.701   7.873 -0.0003 -0.3193  1.3421
 5827SOL    HW218698   3.225   0.808   7.980 -1.4455 -0.5845  1.6278
 5828SOL     OW18699   3.467   2.151   7.015  0.3778  0.0699 -0.4577
 5828SOL    HW118700   3.520   2.168   7.092  1.7964 -1.1843 -1.0976
 5828SOL    HW218701   3.377   2.167   7.043  0.9522  0.6431  1.1407
 5829SOL     OW18702   3.661   1.270   0.089 -0.1202 -0.2359 -0.2858
 5829SOL    HW118703   3.751   1.300   0.104 -0.8169  0.9109  2.1067
 5829SOL    HW218704   3.671   1.192   0.034  2.3014  0.0902 -0.4330
 5830SOL     OW18705   2.993   1.258   8.414  0.1834  0.3475 -0.6801
 5830SOL    HW118706   3.081   1.290   8.436 -0.0062  1.5636 -1.6170
 5830SOL    HW218707   2.947   1.335   8.381 -0.1121 -0.9534 -3.5877
 5831SOL     OW18708   3.151   0.277   8.037 -0.3417  0.4476  0.1035
 5831SOL    HW118709   3.173   0.229   7.958 -3.2610  1.0756 -1.2154
 5831SOL    HW218710   3.107   0.212   8.093  1.4031  0.0920  1.1220
 5832SOL     OW18711   2.651   1.812   8.030 -0.7074  0.1126  0.3713
 5832SOL    HW118712   2.694   1.866   7.964 -1.4702  0.1670 -0.0938
 5832SOL    HW218713   2.623   1.874   8.097 -0.1271  0.0829  0.6518
 5833SOL     OW18714   3.726   0.220   0.083 -0.6793 -0.6788 -0.0768
 5833SOL    HW118715   3.816   0.239   0.111 -0.7522 -1.6826  0.8950
 5833SOL    HW218716   3.736   0.150   0.019 -0.6522  0.4521 -1.3612
 5834SOL     OW18717   2.555   1.556   8.097  0.2404 -0.0162  0.0008
 5834SOL    HW118718   2.505   1.573   8.177 -0.5374 -0.0778 -0.4665
 5834SOL    HW218719   2.590   1.642   8.073  0.4063  0.0188  0.3568
 5835SOL     OW18720   1.936   0.590   7.633 -0.6599  0.0339 -0.4857
 5835SOL    HW118721   2.024   0.612   7.662 -0.1432  0.1834 -2.0913
 5835SOL    HW218722   1.886   0.671   7.644  0.2678  0.9756 -2.7029
 5836SOL     OW18723   2.392   0.275   7.840  0.1876  0.1710 -0.1187
 5836SOL    HW118724   2.388   0.309   7.751 -2.8138 -0.4530 -0.3200
 5836SOL    HW218725   2.404   0.352   7.895 -0.0133  0.8038 -0.9496
 5837SOL     OW18726   3.403   1.058   7.941 -0.4474  0.0943 -0.2739
 5837SOL    HW118727   3.425   0.965   7.947 -0.3110  0.0692 -1.1026
 5837SOL    HW218728   3.477   1.097   7.894 -1.1991  0.3599 -1.2794
 5838SOL     OW18729   2.626   0.827   8.732 -0.0552  0.4465 -0.0211
 5838SOL    HW118730   2.684   0.822   8.656 -0.6377 -3.9299 -0.3854
 5838SOL    HW218731   2.650   0.910   8.774  3.4448  0.8951 -2.4520
 5839SOL     OW18732   3.497   1.550   8.331  0.3524 -0.1336 -0.1989
 5839SOL    HW118733   3.480   1.563   8.424 -0.2412  1.2104 -0.4630
 5839SOL    HW218734   3.413   1.566   8.288  0.3874 -1.6606 -0.9185
 5840SOL     OW18735   2.206   1.431   0.419 -0.0911 -0.2129 -0.0770
 5840SOL    HW118736   2.152   1.477   0.356 -0.7723  0.0662  0.6959
 5840SOL    HW218737   2.200   1.483   0.499  1.1140 -0.3148  0.1034
 5841SOL     OW18738   4.029   0.746   8.577 -0.2965  0.0827  0.2716
 5841SOL    HW118739   4.119   0.727   8.550 -0.3071 -3.2946  1.9547
 5841SOL    HW218740   4.018   0.839   8.562  3.4744  0.6425 -0.0492
 5842SOL     OW18741   3.425   0.059   8.106 -0.0309 -0.2896 -0.3746
 5842SOL    HW118742   3.482   0.122   8.063 -1.5781  3.6689  2.6954
 5842SOL    HW218743   3.351   0.049   8.046 -1.2444  3.5648  0.1708
 5843SOL     OW18744   3.226   1.171   8.104 -0.0844 -0.4768 -0.8207
 5843SOL    HW118745   3.201   1.089   8.146  0.4554 -0.2116  0.0496
 5843SOL    HW218746   3.305   1.149   8.054  1.0336 -0.1444  0.7457
 5844SOL     OW18747   3.867   0.848   0.202 -0.2169  0.4854  0.9217
 5844SOL    HW118748   3.888   0.894   0.121  0.3690 -1.1365  0.1180
 5844SOL    HW218749   3.923   0.890   0.268  1.0508  0.2896  0.0155
 5845SOL     OW18750   3.107   1.427   8.132  0.3985 -0.0696 -0.0887
 5845SOL    HW118751   3.030   1.390   8.175 -0.4210 -1.0361 -2.2303
 5845SOL    HW218752   3.162   1.351   8.112  0.6951  0.3293 -0.8250
 5846SOL     OW18753   2.390   1.834   8.536  0.6398  0.5161 -0.0411
 5846SOL    HW118754   2.370   1.829   8.630 -0.0518  2.5495 -0.0176
 5846SOL    HW218755   2.485   1.824   8.531  0.4710 -2.0156  0.5918
 5847SOL     OW18756   3.110   0.914   8.478 -0.3753  0.4920 -0.3805
 5847SOL    HW118757   3.198   0.931   8.512  0.1282  1.2864 -2.0126
 5847SOL    HW218758   3.051   0.936   8.551  0.7229  0.7172  0.4598
 5848SOL     OW18759   2.850   0.743   7.350  0.5203  0.3969  0.1666
 5848SOL    HW118760   2.929   0.787   7.319 -0.1873  0.9994 -0.8160
 5848SOL    HW218761   2.790   0.745   7.276 -0.7735  0.8120  1.1807
 5849SOL     OW18762   3.721   1.757   8.019  0.2178  0.6681 -0.3280
 5849SOL    HW118763   3.645   1.814   8.031 -0.2909 -0.1033  0.2397
 5849SOL    HW218764   3.683   1.674   7.989  0.6511 -0.2629  1.5827
 5850SOL     OW18765   2.118   1.563   8.401 -0.1144  0.2169 -0.2664
 5850SOL    HW118766   2.111   1.475   8.438  0.6023  0.4118  0.3678
 5850SOL    HW218767   2.048   1.613   8.443 -0.3443  0.0178 -0.4149
 5851SOL     OW18768   4.035   0.009   8.485  0.5115 -0.2805  0.1230
 5851SOL    HW118769   4.098   0.052   8.543  0.7629 -1.6369  0.8731
 5851SOL    HW218770   4.013  -0.073   8.528 -0.5488 -0.5764 -0.9179
 5852SOL     OW18771   2.495   0.929   7.619 -0.0305 -0.6634  0.5168
 5852SOL    HW118772   2.534   1.013   7.596  1.1969 -0.7907  2.0011
 5852SOL    HW218773   2.432   0.912   7.549  0.6302  0.8642 -0.5001
 5853SOL     OW18774   3.629   1.335   8.171  0.0222 -0.1078 -0.4997
 5853SOL    HW118775   3.677   1.358   8.251  0.7902  2.7757 -1.6716
 5853SOL    HW218776   3.538   1.332   8.198  0.4499 -1.9752  0.9969
 5854SOL     OW18777   2.224   0.964   8.769 -0.6240  0.6013 -0.3872
 5854SOL    HW118778   2.266   0.908   8.703  0.5728 -1.5801  2.0407
 5854SOL    HW218779   2.297   1.013   8.808 -1.1047  0.8511  0.2067
 5855SOL     OW18780   2.642   2.091   8.514  0.0764  0.2585  0.4972
 5855SOL    HW118781   2.663   1.999   8.531  1.4006  0.7295  1.6303
 5855SOL    HW218782   2.716   2.139   8.550  0.4928  1.6868 -2.0093
 5856SOL     OW18783   3.086   0.134   8.791 -0.4884 -0.4520 -0.0072
 5856SOL    HW118784   3.066   0.070   8.722 -1.2162 -2.2501  1.7669
 5856SOL    HW218785   3.172   0.168   8.768 -1.1898 -0.1229 -2.3966
 5857SOL     OW18786   3.005   0.101   8.174 -0.1080 -0.0258  0.2700
 5857SOL    HW118787   2.924   0.141   8.143  0.3000  1.1000  0.6404
 5857SOL    HW218788   2.997   0.102   8.270  1.0366  1.6075  0.3847
 5858SOL     OW18789   3.272   0.908   7.665 -0.0289  0.2731 -0.0847
 5858SOL    HW118790   3.254   0.879   7.754  1.1260  2.4260  0.9231
 5858SOL    HW218791   3.205   0.974   7.648  0.9804  1.3551  0.0137
 5859SOL     OW18792   2.851   1.565   0.111 -0.0713  0.0916  0.0853
 5859SOL    HW118793   2.923   1.627   0.118  0.6625 -0.8383  1.0395
 5859SOL    HW218794   2.787   1.596   0.175  0.1892  0.0062  0.3895
 5860SOL     OW18795   3.473   0.068   7.608  0.0527 -0.2468 -0.0437
 5860SOL    HW118796   3.444   0.139   7.550  0.2762 -0.4202 -0.3643
 5860SOL    HW218797   3.468  -0.011   7.554 -2.6089 -0.9011  0.9963
 5861SOL     OW18798   3.214   0.907   8.182 -0.4089  0.2501 -0.2092
 5861SOL    HW118799   3.195   0.935   8.271  1.1696  0.8595 -0.0464
 5861SOL    HW218800   3.233   0.813   8.189 -0.0695  0.3465  0.1191
 5862SOL     OW18801   4.271   0.751   8.439  0.4332 -0.8774 -0.0176
 5862SOL    HW118802   4.341   0.689   8.460 -0.1227 -1.5262 -0.0265
 5862SOL    HW218803   4.315   0.835   8.430  1.0274 -0.9837  1.4702
 5863SOL     OW18804   1.810   0.976   8.113  0.5205 -0.4072  0.1719
 5863SOL    HW118805   1.905   0.984   8.122  0.3877  0.4320  0.9921
 5863SOL    HW218806   1.787   0.900   8.166  0.8542 -1.3598 -1.0025
 5864SOL     OW18807   2.549   1.955   7.378 -0.1852 -0.0417  0.4898
 5864SOL    HW118808   2.460   1.927   7.396  0.0962 -0.6750  0.9354
 5864SOL    HW218809   2.564   2.029   7.437 -1.0641  1.3672 -0.9713
 5865SOL     OW18810   2.046   2.322   0.000  0.0201 -0.1449 -0.2464
 5865SOL    HW118811   2.077   2.304  -0.089 -0.0291 -0.3846 -0.2176
 5865SOL    HW218812   2.107   2.274   0.057  0.1433  0.1331 -0.1441
 5866SOL     OW18813   2.226   2.044   1.148 -0.1124  0.6886  0.6717
 5866SOL    HW118814   2.283   1.986   1.199  0.9272  0.8648 -0.2589
 5866SOL    HW218815   2.228   2.127   1.196  0.9074  0.8716  0.3297
 5867SOL     OW18816   2.058   2.254   0.504  0.6250 -0.0618 -0.2814
 5867SOL    HW118817   2.006   2.203   0.566 -0.2429  1.2415  0.0925
 5867SOL    HW218818   2.049   2.206   0.421 -0.9502 -0.0160 -0.1601
 5868SOL     OW18819   2.521   3.571   1.110 -0.2166  0.6876  0.3974
 5868SOL    HW118820   2.509   3.660   1.143  0.7365  1.5803 -1.5085
 5868SOL    HW218821   2.454   3.561   1.043  1.5335  1.1507 -1.5330
 5869SOL     OW18822   3.498   3.325   0.787  0.2657  0.0304  0.3359
 5869SOL    HW118823   3.422   3.300   0.735  1.0298 -1.9535  0.0946
 5869SOL    HW218824   3.464   3.387   0.851 -1.3079  0.0844 -0.5103
 5870SOL     OW18825   3.301   2.297   0.877 -0.3210  0.4639 -0.5343
 5870SOL    HW118826   3.335   2.347   0.803 -2.1092  1.4735 -0.7328
 5870SOL    HW218827   3.294   2.361   0.948  0.8032 -0.3609  0.3592
 5871SOL     OW18828   3.359   2.425   0.252  0.2444 -0.1077  0.2059
 5871SOL    HW118829   3.352   2.349   0.310 -1.3137  1.7921  2.7183
 5871SOL    HW218830   3.312   2.400   0.173  0.2770 -1.9376  0.7199
 5872SOL     OW18831   2.573   3.329   0.878 -0.2246  0.0067 -0.4241
 5872SOL    HW118832   2.515   3.365   0.945 -0.3236 -0.0842 -0.4600
 5872SOL    HW218833   2.652   3.383   0.883 -0.8016  0.9605 -1.2565
 5873SOL     OW18834   2.834   2.610   1.434 -0.3478 -0.2984  0.1459
 5873SOL    HW118835   2.914   2.570   1.467  0.7464  1.0741 -0.7332
 5873SOL    HW218836   2.763   2.563   1.478  0.9676 -0.4675  2.1919
 5874SOL     OW18837   2.313   2.817   0.710  0.2583 -0.9042 -0.0845
 5874SOL    HW118838   2.326   2.912   0.711  0.6058 -0.9315  2.0344
 5874SOL    HW218839   2.227   2.804   0.749  1.0100 -1.5251  1.4348
 5875SOL     OW18840   2.361   2.666   1.396 -0.2895  0.3861  0.0991
 5875SOL    HW118841   2.271   2.689   1.417 -0.1629  0.1416  0.9626
 5875SOL    HW218842   2.412   2.701   1.469  0.2078 -0.2829  0.0787
 5876SOL     OW18843   2.051   2.997   1.184  0.4077 -0.1722 -0.4068
 5876SOL    HW118844   2.059   3.056   1.110  0.0778  0.9781  0.4499
 5876SOL    HW218845   2.010   2.918   1.147  0.1569  0.4105 -1.4102
 5877SOL     OW18846   3.198   3.575   1.559 -0.9689  0.2029 -1.1517
 5877SOL    HW118847   3.168   3.621   1.480 -0.0171  0.8226 -1.1652
 5877SOL    HW218848   3.131   3.595   1.624 -0.6405  1.5358 -1.1873
 5878SOL     OW18849   2.239   2.295   1.260  0.2524  0.0110 -0.1253
 5878SOL    HW118850   2.264   2.325   1.347 -0.1091 -2.8710  1.0936
 5878SOL    HW218851   2.315   2.314   1.205  0.7922  1.1680  0.9833
 5879SOL     OW18852   3.533   2.116   0.957 -0.1993  0.0034 -0.4227
 5879SOL    HW118853   3.582   2.198   0.948 -0.9994  0.7499  1.3565
 5879SOL    HW218854   3.465   2.121   0.890  0.7585  0.0096 -1.4152
 5880SOL     OW18855   2.015   3.528   0.727 -0.3196 -0.2839 -0.0760
 5880SOL    HW118856   1.971   3.606   0.760  0.6060 -0.3638  1.4720
 5880SOL    HW218857   1.976   3.512   0.641 -1.1036  1.3879 -0.0631
 5881SOL     OW18858   3.084   3.250   1.720 -0.1205  0.2694  0.4156
 5881SOL    HW118859   3.131   3.217   1.644 -0.5395  0.2414  0.1634
 5881SOL    HW218860   2.991   3.239   1.697 -0.2469  0.0609  1.0162
 5882SOL     OW18861   2.033   3.252   1.010 -0.1651  0.1243  0.2084
 5882SOL    HW118862   2.117   3.219   0.979  0.1596 -0.3078  1.4627
 5882SOL    HW218863   2.025   3.339   0.971  0.3369 -0.2623 -0.7962
 5883SOL     OW18864   2.134   3.046   0.727 -0.3764 -0.2084 -0.3762
 5883SOL    HW118865   2.123   3.069   0.635 -2.0482 -0.0337 -0.1684
 5883SOL    HW218866   2.198   3.109   0.761 -0.2819  0.1682 -1.2428
 5884SOL     OW18867   2.140   3.602   1.620 -0.1052  0.0861  0.0621
 5884SOL    HW118868   2.081   3.550   1.676  0.1190  0.0763  0.2914
 5884SOL    HW218869   2.198   3.647   1.682 -1.1570  1.6770 -0.0430
 5885SOL     OW18870   2.369   3.094   0.013  0.1610 -0.2102 -0.1135
 5885SOL    HW118871   2.407   3.068  -0.071  1.2577 -0.0769  0.3271
 5885SOL    HW218872   2.444   3.102   0.072 -0.6355 -0.7547  1.0048
 5886SOL     OW18873   3.581   2.028   1.712 -0.6354 -0.5725 -0.4221
 5886SOL    HW118874   3.542   2.056   1.795  0.4144  1.7628 -0.6312
 5886SOL    HW218875   3.508   2.028   1.650 -1.2482 -1.4058  0.2896
 5887SOL     OW18876   2.180   2.493   0.463  0.2395  0.4927 -0.3577
 5887SOL    HW118877   2.114   2.558   0.441  0.3800  0.2521 -1.5426
 5887SOL    HW218878   2.129   2.414   0.483  0.1064  0.7448  0.3403
 5888SOL     OW18879   3.557   3.345   0.351  0.5556 -0.2071 -0.4061
 5888SOL    HW118880   3.645   3.334   0.385  1.3069 -0.0301 -2.1770
 5888SOL    HW218881   3.566   3.409   0.280 -1.0902  0.2265 -0.2767
 5889SOL     OW18882   2.078   3.745   0.366 -0.0317  0.1735 -0.0604
 5889SOL    HW118883   2.052   3.762   0.456 -0.3207 -0.4923 -0.0087
 5889SOL    HW218884   2.168   3.712   0.372  0.7566  2.1429 -0.2103
 5890SOL     OW18885   3.321   3.310   1.042 -0.4813 -0.1884  0.6404
 5890SOL    HW118886   3.385   3.249   1.005  0.4613  0.4952  1.0860
 5890SOL    HW218887   3.271   3.257   1.105  1.3447 -0.1926  2.1651
 5891SOL     OW18888   3.527   3.080   0.543  0.3919  0.0792  0.1710
 5891SOL    HW118889   3.554   3.061   0.454  0.1224  1.9619 -0.3467
 5891SOL    HW218890   3.431   3.072   0.541  0.5089 -2.3831  0.9637
 5892SOL     OW18891   1.901   2.276   1.426  0.5093  0.5056  0.0543
 5892SOL    HW118892   1.872   2.262   1.336 -0.1663 -2.0021  0.5946
 5892SOL    HW218893   1.861   2.358   1.452 -0.0722  0.7825 -1.6159
 5893SOL     OW18894   2.336   3.404   0.700  0.2445  0.5890  0.1695
 5893SOL    HW118895   2.424   3.401   0.664 -0.3457  0.5951 -1.3592
 5893SOL    HW218896   2.280   3.427   0.626 -1.2867 -1.3173  0.6395
 5894SOL     OW18897   2.656   2.827   1.432  0.3542  0.7239 -0.1974
 5894SOL    HW118898   2.726   2.892   1.444  0.7095  0.3965 -0.4545
 5894SOL    HW218899   2.703   2.744   1.419 -0.0574 -0.3101  3.6704
 5895SOL     OW18900   2.995   2.011   0.685 -0.2121  0.6639  0.3934
 5895SOL    HW118901   2.976   2.035   0.594  2.2602  1.5526  0.0227
 5895SOL    HW218902   3.006   2.094   0.730 -0.4945  0.2202  1.3019
 5896SOL     OW18903   2.560   3.238   1.331 -0.5002 -0.3402 -0.2339
 5896SOL    HW118904   2.555   3.156   1.282  0.1645 -0.6609  0.2281
 5896SOL    HW218905   2.469   3.269   1.335 -1.1306 -2.1815  1.4676
 5897SOL     OW18906   3.391   2.681   0.416 -0.1148  0.5791  0.0052
 5897SOL    HW118907   3.378   2.647   0.328  0.6339 -0.2677  0.2055
 5897SOL    HW218908   3.475   2.726   0.412  0.9145 -1.1483  0.7307
 5898SOL     OW18909   2.682   4.068   1.659  0.3521 -0.6258 -0.3042
 5898SOL    HW118910   2.669   3.973   1.658 -1.5921 -0.4050  0.2038
 5898SOL    HW218911   2.619   4.102   1.596 -1.3156  0.5232  1.8351
 5899SOL     OW18912   2.377   2.110   1.518 -0.2383  0.0179 -0.4632
 5899SOL    HW118913   2.444   2.050   1.487 -0.3787  0.0478 -0.8254
 5899SOL    HW218914   2.294   2.072   1.487 -0.3245  0.4169 -0.7275
 5900SOL     OW18915   3.394   3.644   1.247  0.0357  0.2168 -0.2811
 5900SOL    HW118916   3.415   3.736   1.263  1.2700 -0.1894  0.6172
 5900SOL    HW218917   3.422   3.599   1.327  0.8329 -1.1240 -1.2775
 5901SOL     OW18918   3.041   3.766   1.417 -0.5627  0.2803 -0.2413
 5901SOL    HW118919   3.061   3.813   1.336  0.3616  1.3953  0.6047
 5901SOL    HW218920   2.993   3.829   1.471  0.8762  0.3620  0.9925
 5902SOL     OW18921   2.450   2.849   0.379 -0.0066  0.3986  0.2990
 5902SOL    HW118922   2.457   2.763   0.421  0.7113  0.1591 -0.2967
 5902SOL    HW218923   2.439   2.910   0.452 -0.8602 -0.2250  0.7093
 5903SOL     OW18924   3.225   2.070   1.469  0.1192 -0.2867  0.2098
 5903SOL    HW118925   3.278   2.035   1.398  0.4297  1.5812 -0.5147
 5903SOL    HW218926   3.135   2.047   1.446 -0.0718  2.3378 -2.1219
 5904SOL     OW18927   3.265   3.148   0.596 -0.0944 -0.3747 -0.0318
 5904SOL    HW118928   3.179   3.121   0.565  0.1245 -0.9483 -0.1543
 5904SOL    HW218929   3.257   3.150   0.692 -0.6320  0.9241 -0.0889
 5905SOL     OW18930   2.363   1.488   1.938  0.6916 -0.3560 -0.2498
 5905SOL    HW118931   2.283   1.533   1.966  2.5865  0.7860  4.0157
 5905SOL    HW218932   2.430   1.556   1.938  2.5604 -2.1091  0.8266
 5906SOL     OW18933   3.280   1.851   1.634  0.0003  1.0392  0.3027
 5906SOL    HW118934   3.274   1.928   1.578 -0.1117  0.7937 -0.0267
 5906SOL    HW218935   3.369   1.819   1.623  0.0262  1.0809  0.3873
 5907SOL     OW18936   2.603   2.421   1.381  0.5150  0.0440  0.1142
 5907SOL    HW118937   2.565   2.462   1.304 -0.3789 -0.5470  0.2272
 5907SOL    HW218938   2.541   2.439   1.452  1.0651  0.1386  0.5829
 5908SOL     OW18939   2.819   2.260   1.448  0.5556  0.5222  0.7369
 5908SOL    HW118940   2.827   2.220   1.535  0.2700  2.1047  1.5274
 5908SOL    HW218941   2.740   2.313   1.454 -0.5337 -0.7739 -1.1187
 5909SOL     OW18942   3.124   2.478   0.656  0.2553  0.5133 -0.1275
 5909SOL    HW118943   3.096   2.422   0.584 -1.0305  2.7452 -1.4708
 5909SOL    HW218944   3.218   2.492   0.641  0.2052  0.1559 -0.7967
 5910SOL     OW18945   1.662   2.705   0.649  0.3860  0.0100  0.0773
 5910SOL    HW118946   1.753   2.678   0.665 -0.4830 -2.9939  0.6613
 5910SOL    HW218947   1.644   2.768   0.718  1.6523 -0.3611  0.7896
 5911SOL     OW18948   1.846   3.510   1.925 -0.0502 -0.0981  0.4812
 5911SOL    HW118949   1.755   3.486   1.945  0.1102 -1.4735 -0.3210
 5911SOL    HW218950   1.840   3.600   1.893 -1.1325 -0.1681  0.4403
 5912SOL     OW18951   2.897   2.246   0.137 -0.0083  0.0910  0.6575
 5912SOL    HW118952   2.804   2.250   0.114 -0.3319  3.2167  1.9346
 5912SOL    HW218953   2.914   2.153   0.151 -3.1432 -0.5500  1.0880
 5913SOL     OW18954   3.282   2.518   1.707  0.4185 -0.0666  0.3596
 5913SOL    HW118955   3.351   2.568   1.663  0.2489 -0.7937 -0.7713
 5913SOL    HW218956   3.296   2.428   1.678 -0.9738 -0.2367  0.1294
 5914SOL     OW18957   3.136   2.887   0.728 -0.2432 -0.0333  0.2762
 5914SOL    HW118958   3.094   2.874   0.643  2.0514 -0.9121 -0.8051
 5914SOL    HW218959   3.210   2.826   0.728 -1.1151 -1.3517  3.6384
 5915SOL     OW18960   3.164   2.140   1.094 -0.3871 -0.2809  0.3683
 5915SOL    HW118961   3.168   2.203   1.022  1.2008  0.6873  1.2295
 5915SOL    HW218962   3.093   2.172   1.150  0.1643  0.5638  0.6073
 5916SOL     OW18963   2.630   3.334   0.584 -0.5512  0.2600  0.1105
 5916SOL    HW118964   2.651   3.371   0.670 -1.6407 -0.1961  0.5944
 5916SOL    HW218965   2.579   3.403   0.541  0.9152  0.9344 -0.6395
 5917SOL     OW18966   2.224   4.070   0.972 -0.5275  0.9612  0.2529
 5917SOL    HW118967   2.147   4.075   1.029  0.3749  1.9360  1.4397
 5917SOL    HW218968   2.241   4.160   0.945 -0.6257  0.5820 -1.1895
 5918SOL     OW18969   3.461   3.005   0.901 -0.3746  0.3585 -0.0647
 5918SOL    HW118970   3.369   3.024   0.883 -0.5011  0.1355  0.3311
 5918SOL    HW218971   3.467   3.007   0.997 -0.0937 -0.2212 -0.0693
 5919SOL     OW18972   2.874   3.248   1.523 -0.1086 -0.4405 -0.4720
 5919SOL    HW118973   2.792   3.243   1.573 -0.0974  0.0705 -0.3965
 5919SOL    HW218974   2.870   3.333   1.479  0.3046 -0.4885 -0.6075
 5920SOL     OW18975   2.237   3.014   0.258  0.2208  0.7401 -0.3675
 5920SOL    HW118976   2.272   3.043   0.174 -0.5405  1.9317 -0.3049
 5920SOL    HW218977   2.312   2.977   0.305  0.4414 -0.9540 -1.9640
 5921SOL     OW18978   3.113   2.647   1.153 -0.3757  0.3833  0.0234
 5921SOL    HW118979   3.198   2.680   1.180  0.8052 -2.1734 -0.3227
 5921SOL    HW218980   3.127   2.612   1.065 -1.3756 -1.3868  0.5147
 5922SOL     OW18981   2.746   3.296   1.947  0.4150  0.7786  0.0385
 5922SOL    HW118982   2.737   3.255   2.033  1.5791  1.2173  0.3819
 5922SOL    HW218983   2.656   3.313   1.919  0.0390  1.4235  1.5623
 5923SOL     OW18984   3.012   3.157   0.082 -0.5720  0.0949 -0.1882
 5923SOL    HW118985   2.919   3.170   0.064 -0.4634  0.0474 -0.7864
 5923SOL    HW218986   3.042   3.243   0.113 -0.5821  0.3992 -1.0113
 5924SOL     OW18987   1.900   1.970   1.733 -0.2136  0.6591 -0.0243
 5924SOL    HW118988   1.975   1.990   1.677  0.2302 -0.2835  0.2155
 5924SOL    HW218989   1.826   2.010   1.688  0.2347  0.4940 -0.9496
 5925SOL     OW18990   3.315   3.233   0.356  0.2177 -0.0853 -0.5293
 5925SOL    HW118991   3.284   3.227   0.446 -1.4580  4.8594 -0.4911
 5925SOL    HW218992   3.405   3.265   0.364 -0.7517  2.8563 -0.4403
 5926SOL     OW18993   2.504   4.004   0.733  0.2759  0.1258  0.5463
 5926SOL    HW118994   2.465   4.089   0.751  0.3534  0.0078  1.3200
 5926SOL    HW218995   2.573   4.022   0.668 -0.0661  0.5605  0.3023
 5927SOL     OW18996   3.238   2.163   0.370  0.8467 -0.0378 -0.4820
 5927SOL    HW118997   3.252   2.139   0.278  1.5493 -0.0606 -0.3746
 5927SOL    HW218998   3.158   2.216   0.369 -1.2164 -2.9021 -0.6446
 5928SOL     OW18999   2.279   3.888   1.387 -0.5307  0.2774  0.2292
 5928SOL    HW119000   2.337   3.907   1.313 -1.8220 -0.1536 -0.9117
 5928SOL    HW219001   2.333   3.908   1.464  1.1420 -0.1290 -0.7859
 5929SOL     OW19002   2.645   3.792   1.222 -0.1359 -0.4256  0.5793
 5929SOL    HW119003   2.712   3.812   1.157  0.3015 -0.9382  0.8615
 5929SOL    HW219004   2.572   3.849   1.200  0.2400 -0.1560  0.0140
 5930SOL     OW19005   2.455   2.586   0.464 -0.2985  0.1069 -0.2480
 5930SOL    HW119006   2.364   2.604   0.442 -0.4952  2.8071  2.2404
 5930SOL    HW219007   2.454   2.559   0.556  1.4831  1.0544  0.1010
 5931SOL     OW19008   3.428   1.951   2.005 -0.2304  0.0195 -0.4850
 5931SOL    HW119009   3.359   1.975   2.067  1.9231  2.0808  1.2904
 5931SOL    HW219010   3.466   1.871   2.041  0.1819  0.5143  0.2174
 5932SOL     OW19011   2.877   1.855   1.561  0.6164 -0.1236 -0.1972
 5932SOL    HW119012   2.928   1.865   1.641  1.4635 -0.4898 -0.6694
 5932SOL    HW219013   2.830   1.772   1.573 -1.0671  0.9410  0.8609
 5933SOL     OW19014   2.748   3.533   1.671 -0.1364  0.3914 -0.2927
 5933SOL    HW119015   2.824   3.507   1.620 -0.5287 -0.7138 -0.3336
 5933SOL    HW219016   2.675   3.532   1.609 -0.6290 -1.0390  0.2814
 5934SOL     OW19017   3.240   2.397   1.384  0.0376  0.0181  0.5848
 5934SOL    HW119018   3.304   2.418   1.316 -1.4695  0.1994 -0.8389
 5934SOL    HW219019   3.283   2.330   1.437  1.0830 -0.5250 -0.8607
 5935SOL     OW19020   2.330   3.578   0.945 -0.2318 -0.4066  0.3689
 5935SOL    HW119021   2.296   3.655   0.899 -1.1728 -0.1542  1.4173
 5935SOL    HW219022   2.289   3.503   0.901  0.9476 -0.3581 -0.8687
 5936SOL     OW19023   3.001   2.259   0.792  0.1453  0.4537  0.2000
 5936SOL    HW119024   3.012   2.286   0.883  1.4098 -0.8698  0.4740
 5936SOL    HW219025   3.050   2.325   0.742  0.0237  0.7968  0.5214
 5937SOL     OW19026   1.867   1.915   0.324 -0.6766 -0.1696 -0.0056
 5937SOL    HW119027   1.839   1.880   0.240 -0.9902 -0.3889  0.1899
 5937SOL    HW219028   1.786   1.936   0.370 -0.5253 -0.6567  0.4947
 5938SOL     OW19029   3.447   2.676   8.751  0.3327  0.0687 -0.0115
 5938SOL    HW119030   3.406   2.719   8.826  0.5808 -1.0225  0.7625
 5938SOL    HW219031   3.430   2.736   8.678  1.1414  1.7540  1.1158
 5939SOL     OW19032   2.876   2.043   0.423  0.2127  0.3628  0.3033
 5939SOL    HW119033   2.795   2.094   0.420 -0.5558 -0.8554 -0.1680
 5939SOL    HW219034   2.900   2.031   0.332 -0.2254 -1.0438  0.3558
 5940SOL     OW19035   3.014   2.301   1.271  0.1334 -0.2218  0.1657
 5940SOL    HW119036   2.949   2.298   1.341  0.7300  2.4654  0.9773
 5940SOL    HW219037   3.092   2.338   1.313  0.3331  2.0488 -1.9761
 5941SOL     OW19038   2.791   3.514   0.826 -0.1990 -0.0128 -0.6819
 5941SOL    HW119039   2.816   3.555   0.909 -1.1560  0.7790 -0.7739
 5941SOL    HW219040   2.768   3.587   0.768 -1.7553 -0.6244 -0.9047
 5942SOL     OW19041   2.297   3.193   0.875  0.0625 -0.4585 -0.0314
 5942SOL    HW119042   2.378   3.171   0.921  0.9955  0.6824 -1.0278
 5942SOL    HW219043   2.311   3.283   0.844 -1.3957 -0.4112 -0.6537
 5943SOL     OW19044   3.100   3.432   0.600  1.0524 -0.0794 -0.4673
 5943SOL    HW119045   3.020   3.475   0.571  1.8737  1.7714 -0.1698
 5943SOL    HW219046   3.075   3.341   0.615 -0.4994 -0.0363 -2.3496
 5944SOL     OW19047   3.021   2.373   0.358  0.5300  0.4722 -0.0785
 5944SOL    HW119048   2.943   2.423   0.383  0.6298  0.3558  0.4832
 5944SOL    HW219049   2.991   2.313   0.290  0.8834  2.9261 -2.6181
 5945SOL     OW19050   2.014   2.356   1.103 -0.0494 -0.1707  0.6085
 5945SOL    HW119051   2.089   2.321   1.151  0.4521  1.1561  0.8312
 5945SOL    HW219052   1.938   2.322   1.149  0.3709 -2.0995 -0.0228
 5946SOL     OW19053   2.226   1.584   1.483 -0.6629  0.0391  1.0677
 5946SOL    HW119054   2.174   1.570   1.563 -0.8258  0.7008  1.0791
 5946SOL    HW219055   2.160   1.592   1.414 -0.4982 -1.6533  0.6714
 5947SOL     OW19056   2.741   2.132   0.837  0.3463 -0.1286 -0.0635
 5947SOL    HW119057   2.683   2.155   0.763 -0.2755  0.1249  0.4906
 5947SOL    HW219058   2.818   2.188   0.825 -0.2615  0.7773  0.1225
 5948SOL     OW19059   3.202   1.644   0.480  0.1793 -0.1309 -0.0965
 5948SOL    HW119060   3.284   1.614   0.520  0.1581  0.5429  0.4701
 5948SOL    HW219061   3.203   1.739   0.492  0.6666  0.2460 -2.6661
 5949SOL     OW19062   3.206   3.098   0.881 -0.1924  0.4349 -0.5096
 5949SOL    HW119063   3.175   3.014   0.847  1.1011 -0.3461  0.1542
 5949SOL    HW219064   3.127   3.141   0.915 -0.8602 -0.5666 -0.7453
 5950SOL     OW19065   3.611   2.450   1.322 -0.3966 -0.5018  0.0291
 5950SOL    HW119066   3.577   2.390   1.255 -1.1714 -0.2522  0.1994
 5950SOL    HW219067   3.589   2.537   1.290  2.4596 -0.1029 -1.2323
 5951SOL     OW19068   3.639   2.651   1.133 -0.7391 -0.6782  0.5487
 5951SOL    HW119069   3.719   2.702   1.147  0.1518 -1.5461 -1.0853
 5951SOL    HW219070   3.670   2.561   1.119 -2.2234 -1.6763  2.8873
 5952SOL     OW19071   2.245   3.537   0.209 -0.5843  0.2385  0.1430
 5952SOL    HW119072   2.187   3.525   0.133 -0.2070  1.3171 -0.3329
 5952SOL    HW219073   2.280   3.625   0.199 -0.9763  0.6323  1.8950
 5953SOL     OW19074   3.218   3.515   0.836 -0.1472 -0.6184  0.0482
 5953SOL    HW119075   3.175   3.488   0.755 -1.6090  0.2972  0.4932
 5953SOL    HW219076   3.179   3.461   0.904  0.7627 -1.0775  0.2280
 5954SOL     OW19077   2.956   2.415   8.518 -0.4003  0.4030  0.5676
 5954SOL    HW119078   3.037   2.444   8.476 -0.1320  2.0751  2.1272
 5954SOL    HW219079   2.972   2.428   8.612 -1.6370 -1.4662  1.0921
 5955SOL     OW19080   2.787   2.540   0.416  0.3063  0.0811  0.2981
 5955SOL    HW119081   2.740   2.606   0.365 -1.6836 -2.5897 -1.5798
 5955SOL    HW219082   2.777   2.570   0.507  0.8942  3.1041 -0.5025
 5956SOL     OW19083   2.905   3.002   1.430 -0.1955  0.5246  0.1086
 5956SOL    HW119084   2.879   3.093   1.446  0.6426  0.6607  0.7326
 5956SOL    HW219085   2.960   2.979   1.504 -0.0872 -0.3764 -0.2403
 5957SOL     OW19086   2.879   3.515   1.427 -0.6255  0.3796  0.3335
 5957SOL    HW119087   2.941   3.586   1.415  0.2983 -0.5068 -0.3690
 5957SOL    HW219088   2.800   3.543   1.379 -0.9990  1.7395  1.6648
 5958SOL     OW19089   3.186   3.464   2.193 -0.3040  0.3892  0.0348
 5958SOL    HW119090   3.207   3.555   2.171 -0.4192  0.7482  1.2711
 5958SOL    HW219091   3.116   3.440   2.133 -1.0685  1.5267  0.4281
 5959SOL     OW19092   2.748   3.001   1.146 -0.0128  0.2285  0.1159
 5959SOL    HW119093   2.801   2.922   1.160 -0.3633 -0.2897 -1.3105
 5959SOL    HW219094   2.667   2.984   1.194  0.3013  0.1589  0.6329
 5960SOL     OW19095   3.440   3.357   1.289  0.1664  0.0350  0.0985
 5960SOL    HW119096   3.528   3.394   1.294 -0.2060  0.8194  1.1719
 5960SOL    HW219097   3.406   3.389   1.205  1.2001 -1.0223 -0.7568
 5961SOL     OW19098   3.081   1.216   1.171  0.1685 -0.1543 -0.6666
 5961SOL    HW119099   3.043   1.146   1.118 -0.7115 -0.0778 -0.1680
 5961SOL    HW219100   3.013   1.283   1.174  1.6777  1.5492 -2.6273
 5962SOL     OW19101   2.613   3.002   1.756 -0.2311  0.0194 -0.6196
 5962SOL    HW119102   2.608   3.086   1.710  0.7451 -0.1312 -1.0093
 5962SOL    HW219103   2.526   2.964   1.746 -0.9504  1.3366  0.2447
 5963SOL     OW19104   2.792   2.640   0.954  0.5686  0.3630  0.1916
 5963SOL    HW119105   2.813   2.659   1.046 -0.0575  0.7779  0.2544
 5963SOL    HW219106   2.697   2.645   0.950  0.6287  1.0821 -0.6372
 5964SOL     OW19107   2.476   2.999   1.222  0.0288  0.2469  0.1498
 5964SOL    HW119108   2.445   2.920   1.178  0.5863 -1.1187  2.0705
 5964SOL    HW219109   2.399   3.034   1.267 -0.3912  1.2730 -1.3031
 5965SOL     OW19110   3.348   1.952   1.175 -0.4202  0.5225  0.2576
 5965SOL    HW119111   3.294   1.873   1.168 -0.1334  0.1547  1.7050
 5965SOL    HW219112   3.326   2.003   1.098 -1.9244 -0.1729  0.1798
 5966SOL     OW19113   1.857   3.199   1.632  0.5550  0.1688  0.5133
 5966SOL    HW119114   1.873   3.126   1.572  1.8364 -0.1190  1.1904
 5966SOL    HW219115   1.824   3.269   1.575 -2.0238 -1.3031  0.0170
 5967SOL     OW19116   2.119   3.132   0.486  0.2753  0.2403 -0.2315
 5967SOL    HW119117   2.112   3.228   0.485 -2.3401  0.1467 -0.0808
 5967SOL    HW219118   2.138   3.109   0.395 -1.1862  0.8629 -0.7301
 5968SOL     OW19119   2.724   2.415   0.760  0.3450 -0.2344 -0.4693
 5968SOL    HW119120   2.787   2.461   0.704 -0.5002  0.7931 -0.5999
 5968SOL    HW219121   2.736   2.453   0.846 -0.5319  0.4431 -0.6291
 5969SOL     OW19122   2.981   3.109   0.565 -0.1921  0.0313 -0.6693
 5969SOL    HW119123   2.940   3.023   0.552  1.7954 -1.0746 -0.1233
 5969SOL    HW219124   2.945   3.164   0.496 -1.6020 -1.2082 -0.9687
 5970SOL     OW19125   2.896   3.613   1.069 -0.0149 -1.0650 -0.4255
 5970SOL    HW119126   2.841   3.547   1.112  0.3769 -0.7806  0.5411
 5970SOL    HW219127   2.983   3.598   1.105 -0.2510  1.1951  1.3078
 5971SOL     OW19128   3.701   2.566   0.732 -0.1263  0.3847 -0.2687
 5971SOL    HW119129   3.697   2.660   0.749 -1.1535  0.6693 -1.8577
 5971SOL    HW219130   3.674   2.557   0.640  1.3712 -1.3306 -0.5966
 5972SOL     OW19131   2.196   3.360   1.284 -0.1423  0.2051  0.2766
 5972SOL    HW119132   2.101   3.353   1.292 -0.1045  0.6036  1.2383
 5972SOL    HW219133   2.215   3.453   1.297  0.3150  0.2533 -0.6825
 5973SOL     OW19134   2.462   2.393   1.111 -0.2085 -0.3335  0.4835
 5973SOL    HW119135   2.461   2.338   1.033 -0.3918 -1.9401  1.5678
 5973SOL    HW219136   2.419   2.474   1.084 -0.0988 -0.7790 -1.1156
 5974SOL     OW19137   3.476   2.727   1.632  0.3444 -0.1737 -0.0110
 5974SOL    HW119138   3.550   2.787   1.626  0.5098 -0.4949 -1.5829
 5974SOL    HW219139   3.409   2.765   1.575 -0.0287 -0.8275 -0.0163
 5975SOL     OW19140   2.804   1.644   1.864 -0.2854  0.0551  0.4620
 5975SOL    HW119141   2.885   1.656   1.914 -1.4661  3.5384  1.8291
 5975SOL    HW219142   2.754   1.724   1.880 -2.5922 -0.4934 -3.0487
 5976SOL     OW19143   2.521   1.487   1.587  0.1589  0.2253  0.3939
 5976SOL    HW119144   2.506   1.395   1.608 -1.8680  0.7661  1.5030
 5976SOL    HW219145   2.458   1.535   1.640 -0.7913  2.1002 -2.2011
 5977SOL     OW19146   2.542   2.725   0.873  0.9995  0.0545 -0.3162
 5977SOL    HW119147   2.512   2.776   0.797  2.4456  1.3308 -0.0870
 5977SOL    HW219148   2.508   2.773   0.948 -0.4973 -1.2517 -0.1063
 5978SOL     OW19149   3.100   2.942   1.255  0.4827  0.0578 -0.2771
 5978SOL    HW119150   3.028   2.969   1.312 -0.4287 -0.6129 -1.0759
 5978SOL    HW219151   3.057   2.909   1.176  1.6088 -1.3896 -0.3321
 5979SOL     OW19152   3.289   2.450   8.843  0.0602 -0.2623  0.1880
 5979SOL    HW119153   3.340   2.529   8.860  1.7485 -1.0909 -0.8452
 5979SOL    HW219154   3.260   2.459   8.752  0.4878 -0.9620 -0.0174
 5980SOL     OW19155   2.114   1.571   2.021 -0.2633 -0.2022  0.0030
 5980SOL    HW119156   2.120   1.504   2.089  0.2138 -1.1973 -0.9983
 5980SOL    HW219157   2.038   1.623   2.047  0.9275  0.5439  2.2422
 5981SOL     OW19158   2.266   3.109   1.347 -0.9815 -0.1560  0.4168
 5981SOL    HW119159   2.246   3.202   1.356  0.8634  0.2574  0.6956
 5981SOL    HW219160   2.184   3.070   1.318 -1.9262  1.4771  0.7382
 5982SOL     OW19161   2.938   2.362   1.033  0.2729 -0.5554 -0.7042
 5982SOL    HW119162   2.962   2.398   1.119 -0.3571 -0.3118 -0.6213
 5982SOL    HW219163   2.886   2.284   1.054 -0.1304 -0.3294 -0.8570
 5983SOL     OW19164   3.335   2.921   1.827  0.3068 -0.3196  0.2651
 5983SOL    HW119165   3.410   2.928   1.885  0.4774 -0.3816  0.0533
 5983SOL    HW219166   3.336   3.002   1.776  0.4906 -0.5196 -0.0489
 5984SOL     OW19167   1.566   1.857   0.393  0.0987 -0.3886 -0.2051
 5984SOL    HW119168   1.479   1.892   0.410  0.0365 -0.7636  0.2881
 5984SOL    HW219169   1.560   1.819   0.305 -0.1317 -0.1030 -0.3131
 5985SOL     OW19170   3.818   2.150   0.432 -0.3299  0.4028 -0.2473
 5985SOL    HW119171   3.792   2.122   0.344 -1.2550  2.2898 -0.6073
 5985SOL    HW219172   3.812   2.245   0.430 -0.3834  0.4806  1.8703
 5986SOL     OW19173   2.961   2.880   0.937  0.6073  0.2159  0.4318
 5986SOL    HW119174   2.962   2.786   0.921 -0.8972  0.3823 -1.0053
 5986SOL    HW219175   3.011   2.917   0.865  1.0284  0.5300  0.8839
 5987SOL     OW19176   2.709   3.422   1.160  0.2942 -0.2377 -0.5862
 5987SOL    HW119177   2.644   3.491   1.144 -1.3230 -1.7632 -0.8614
 5987SOL    HW219178   2.679   3.378   1.240  0.9403 -1.0370 -0.7679
 5988SOL     OW19179   3.514   3.152   1.470 -0.8128 -0.0164 -0.2638
 5988SOL    HW119180   3.482   3.235   1.433 -1.5829 -0.1870  0.0102
 5988SOL    HW219181   3.460   3.138   1.548  0.2649 -0.0679  0.4880
 5989SOL     OW19182   2.404   2.937   1.578 -0.6020  0.2046  0.2423
 5989SOL    HW119183   2.368   3.004   1.519 -0.7762  0.1088  0.2396
 5989SOL    HW219184   2.487   2.911   1.536 -1.7933 -1.4998 -1.1866
 5990SOL     OW19185   3.523   2.169   8.783 -0.2790 -0.0214 -1.1201
 5990SOL    HW119186   3.617   2.185   8.781 -0.5015  1.5590 -0.1430
 5990SOL    HW219187   3.505   2.123   8.701  1.3781 -0.6727 -1.1646
 5991SOL     OW19188   3.112   2.658   0.214  0.5461  0.4340 -0.2494
 5991SOL    HW119189   3.066   2.575   0.229  0.8716  0.1920 -0.5422
 5991SOL    HW219190   3.064   2.699   0.142  0.3832  0.5039 -0.1027
 5992SOL     OW19191   3.152   3.190   1.215 -0.1275  0.2376  0.4207
 5992SOL    HW119192   3.153   3.100   1.248  0.3772  0.5195  1.2052
 5992SOL    HW219193   3.062   3.205   1.187  0.2774 -1.3182 -2.0020
 5993SOL     OW19194   1.956   2.711   0.705  0.1893  0.0393  0.0854
 5993SOL    HW119195   1.995   2.733   0.620 -0.6872  1.5827  0.0497
 5993SOL    HW219196   1.996   2.627   0.729  1.4010  0.2052 -1.2490
 5994SOL     OW19197   1.902   2.266   0.869 -0.3273  0.1457  0.3463
 5994SOL    HW119198   1.826   2.225   0.911  0.1422 -1.7287 -0.5472
 5994SOL    HW219199   1.969   2.269   0.937 -0.8782  0.9624  0.8729
 5995SOL     OW19200   2.816   2.100   1.662  0.7867  0.7183  0.4098
 5995SOL    HW119201   2.777   2.062   1.741 -1.5304  0.3664 -0.7794
 5995SOL    HW219202   2.838   2.023   1.608  1.1967  0.9662  0.2262
 5996SOL     OW19203   2.972   2.007   1.375  0.5383 -0.4491 -0.0887
 5996SOL    HW119204   2.913   1.964   1.437 -1.0382  0.7161 -0.7005
 5996SOL    HW219205   2.917   2.070   1.330  2.6181  1.9744  0.5022
 5997SOL     OW19206   1.932   3.738   1.533 -0.9542  0.4800  0.1033
 5997SOL    HW119207   1.902   3.688   1.457 -0.6291  1.0299 -0.3940
 5997SOL    HW219208   2.016   3.698   1.557  0.5849  2.3168 -1.8565
 5998SOL     OW19209   2.094   3.683   1.096  0.0394  0.2368  0.0531
 5998SOL    HW119210   2.100   3.656   1.188  1.5490  2.7920  0.7815
 5998SOL    HW219211   2.184   3.674   1.063  0.2419  2.5246 -0.1444
 5999SOL     OW19212   2.857   2.733   1.198  0.1108  0.1426  0.2755
 5999SOL    HW119213   2.858   2.686   1.282  0.9494  0.3364  0.3838
 5999SOL    HW219214   2.947   2.728   1.167 -0.2302 -0.1048 -0.7245
 6000SOL     OW19215   2.091   2.484   0.796  0.1484 -0.4514 -0.4183
 6000SOL    HW119216   2.185   2.495   0.784  0.2272 -2.1039 -1.6615
 6000SOL    HW219217   2.079   2.390   0.811 -0.9797  0.0945  3.4407
 6001SOL     OW19218   2.390   2.775   1.118 -0.3845  0.8188  0.1097
 6001SOL    HW119219   2.305   2.742   1.088 -0.0167 -2.4825  2.1872
 6001SOL    HW219220   2.398   2.740   1.207  3.2743  0.7697 -0.1158
 6002SOL     OW19221   3.053   2.536   1.527  0.0704  0.3152  0.3091
 6002SOL    HW119222   3.118   2.513   1.461  0.5046  2.7760 -0.1970
 6002SOL    HW219223   3.104   2.560   1.604 -0.2792  1.0065  0.3345
 6003SOL     OW19224   2.878   2.628   0.682 -0.0708 -0.5029 -0.0654
 6003SOL    HW119225   2.970   2.604   0.672  0.2850  0.9503 -0.4217
 6003SOL    HW219226   2.871   2.658   0.773 -0.1996 -0.5965 -0.0437
 6004SOL     OW19227   3.434   2.224   1.193  0.2617  0.0229  0.4094
 6004SOL    HW119228   3.491   2.173   1.135  0.6157 -0.1158  0.8703
 6004SOL    HW219229   3.346   2.194   1.172  0.4246 -0.3823  0.2856
 6005SOL     OW19230   2.002   3.365   2.122  0.3484 -0.0171 -0.0653
 6005SOL    HW119231   1.992   3.273   2.147  1.1266 -1.1163 -3.2527
 6005SOL    HW219232   1.948   3.375   2.044  2.1797  1.4970 -1.2454
 6006SOL     OW19233   2.803   2.128   1.100  0.7425 -0.5462 -0.0601
 6006SOL    HW119234   2.774   2.085   1.020  1.3593  1.9358 -1.7481
 6006SOL    HW219235   2.731   2.115   1.162  0.5280 -3.0807 -0.7324
 6007SOL     OW19236   2.386   3.595   1.773 -0.0212  0.1220 -0.4456
 6007SOL    HW119237   2.384   3.510   1.728  1.5316 -0.5241  0.5841
 6007SOL    HW219238   2.377   3.573   1.866 -1.8523  1.3113 -0.2931
 6008SOL     OW19239   2.761   2.743   0.220 -0.3408  0.2794  0.0505
 6008SOL    HW119240   2.737   2.826   0.260 -0.5030  0.0492  0.4427
 6008SOL    HW219241   2.828   2.765   0.156 -0.2381  0.6839  0.2926
 6009SOL     OW19242   1.930   2.986   1.472 -0.3684 -0.5280 -0.1863
 6009SOL    HW119243   1.993   2.919   1.497  1.4140  0.7964 -0.8915
 6009SOL    HW219244   1.938   2.993   1.377 -0.6954  0.4772 -0.1555
 6010SOL     OW19245   3.717   2.341   1.537 -0.6572 -0.1907 -0.0036
 6010SOL    HW119246   3.636   2.321   1.584  0.0222 -1.4249  0.7011
 6010SOL    HW219247   3.690   2.396   1.464 -2.2023 -0.9351 -0.0306
 6011SOL     OW19248   3.198   2.563   0.906 -0.7681 -0.1947  0.3429
 6011SOL    HW119249   3.280   2.609   0.888 -1.0169  0.6779  1.3605
 6011SOL    HW219250   3.163   2.541   0.819  0.1190  0.1693 -0.1162
 6012SOL     OW19251   2.883   4.007   1.292  0.1953 -0.6401 -0.0955
 6012SOL    HW119252   2.795   4.035   1.265  0.3501 -2.0409 -2.2370
 6012SOL    HW219253   2.942   4.058   1.237  0.7142 -0.5587  0.5257
 6013SOL     OW19254   3.373   3.941   1.319 -0.0821  0.0122  0.9473
 6013SOL    HW119255   3.363   3.992   1.239  0.7647 -1.7854 -0.3595
 6013SOL    HW219256   3.312   3.982   1.381 -0.4898  1.6740 -0.4687
 6014SOL     OW19257   1.881   2.968   0.743 -0.0352  0.3806 -0.1658
 6014SOL    HW119258   1.970   3.002   0.739  0.2796 -0.5658 -1.6783
 6014SOL    HW219259   1.891   2.874   0.757 -0.9015  0.6906  4.2150
 6015SOL     OW19260   2.468   3.470   2.200  0.0777  0.4388 -0.2744
 6015SOL    HW119261   2.457   3.462   2.105  2.1577 -0.8113 -0.4637
 6015SOL    HW219262   2.470   3.379   2.231 -1.3309  0.8414  1.1045
 6016SOL     OW19263   2.618   2.279   0.106 -0.3192  0.1505 -0.5783
 6016SOL    HW119264   2.587   2.202   0.058  0.9971 -0.3554 -0.6451
 6016SOL    HW219265   2.611   2.351   0.043 -0.8947 -0.0412 -0.7385
 6017SOL     OW19266   3.708   2.038   0.700 -0.6701 -0.0051 -0.0982
 6017SOL    HW119267   3.779   2.009   0.758 -0.4661 -0.1151 -0.3998
 6017SOL    HW219268   3.722   1.989   0.619 -1.3594 -0.3555 -0.0045
 6018SOL     OW19269   2.997   3.291   0.908  0.2748 -0.1726  0.8521
 6018SOL    HW119270   2.954   3.282   0.993 -0.9887  2.4114  0.5737
 6018SOL    HW219271   2.927   3.321   0.849  1.5121 -0.2217 -0.7022
 6019SOL     OW19272   1.677   3.545   2.134 -0.3287  0.4328  0.0275
 6019SOL    HW119273   1.717   3.627   2.160 -0.5581 -0.4861  3.8388
 6019SOL    HW219274   1.586   3.552   2.163 -0.1456 -1.3973  1.2104
 6020SOL     OW19275   2.836   2.892   0.617  0.7680  0.1747 -0.0457
 6020SOL    HW119276   2.791   2.919   0.696  3.1013  0.0882  1.4073
 6020SOL    HW219277   2.845   2.797   0.625  0.7004  0.1199 -0.5823
 6021SOL     OW19278   2.615   3.257   1.626  0.0241  0.5046  0.1056
 6021SOL    HW119279   2.563   3.279   1.549  0.5541  0.0846 -0.3771
 6021SOL    HW219280   2.558   3.277   1.700 -0.1691  1.7715 -0.3620
 6022SOL     OW19281   2.513   3.436   0.352  0.0857  0.0754 -0.3276
 6022SOL    HW119282   2.562   3.359   0.323 -1.6976 -1.0763 -0.3982
 6022SOL    HW219283   2.431   3.433   0.304 -1.3564  0.2265  1.9796
 6023SOL     OW19284   3.061   4.151   1.130  0.6627  0.2825  0.1749
 6023SOL    HW119285   3.152   4.124   1.118  0.1513 -1.6544  0.4686
 6023SOL    HW219286   3.037   4.191   1.046  1.3220 -0.5751 -0.4312
 6024SOL     OW19287   3.839   2.169   1.016 -0.1567  0.1363  0.0162
 6024SOL    HW119288   3.832   2.167   1.111 -1.1820  0.3863 -0.0382
 6024SOL    HW219289   3.769   2.228   0.988 -0.3174 -0.4736 -0.9248
 6025SOL     OW19290   1.780   2.384   0.621 -0.0407 -0.1502 -0.0226
 6025SOL    HW119291   1.751   2.308   0.570  1.2330  0.3439 -1.5625
 6025SOL    HW219292   1.827   2.346   0.695  0.1194 -0.8738 -0.4781
 6026SOL     OW19293   3.126   2.785   0.469  0.0763  0.4699 -0.1207
 6026SOL    HW119294   3.194   2.724   0.440 -0.1252 -0.3971  1.1710
 6026SOL    HW219295   3.088   2.818   0.387  0.1000 -1.2226 -0.8563
 6027SOL     OW19296   2.884   3.218   1.139  0.6415  0.1180 -0.2050
 6027SOL    HW119297   2.856   3.127   1.145  1.9542 -0.2141  3.2255
 6027SOL    HW219298   2.803   3.268   1.141 -0.0253 -0.9563  1.5976
 6028SOL     OW19299   2.686   2.982   0.337 -0.1626 -0.5593 -1.2099
 6028SOL    HW119300   2.733   2.992   0.420  0.3869  1.6986 -1.7425
 6028SOL    HW219301   2.600   2.948   0.363  0.4859 -1.2862  0.1197
 6029SOL     OW19302   3.405   3.160   8.631 -0.4477  0.4105  0.0598
 6029SOL    HW119303   3.316   3.127   8.648  0.7818 -2.8603  0.9642
 6029SOL    HW219304   3.433   3.199   8.713 -0.0795 -1.2497  0.7737
 6030SOL     OW19305   2.250   3.377   1.964 -0.1997  0.3719 -0.2802
 6030SOL    HW119306   2.205   3.368   2.048 -0.8819 -1.4577 -0.7914
 6030SOL    HW219307   2.179   3.389   1.900  0.0997 -0.9527 -0.8957
 6031SOL     OW19308   3.271   3.323   1.517  0.5476 -0.5116 -0.1960
 6031SOL    HW119309   3.269   3.325   1.421  0.0067 -0.5108 -0.1884
 6031SOL    HW219310   3.241   3.411   1.542 -1.2121 -1.1123 -0.0221
 6032SOL     OW19311   2.506   3.025   0.639 -1.0866 -0.0780 -0.7082
 6032SOL    HW119312   2.500   3.120   0.627  0.8971 -0.0429 -1.8594
 6032SOL    HW219313   2.574   3.013   0.705 -0.3029 -0.6906 -1.5897
 6033SOL     OW19314   3.020   1.920   1.120  0.2419  0.0600 -0.1385
 6033SOL    HW119315   3.007   1.948   1.211 -0.5477  1.1958 -0.5862
 6033SOL    HW219316   3.061   1.995   1.078  0.1696 -0.2924 -0.8440
 6034SOL     OW19317   2.520   3.637   0.577  0.5303 -0.0456  0.6804
 6034SOL    HW119318   2.542   3.647   0.485  0.2452 -2.3455  0.2941
 6034SOL    HW219319   2.438   3.587   0.577  1.5188 -1.7827  2.1587
 6035SOL     OW19320   3.434   2.272   1.580  0.0937 -0.3006 -0.3511
 6035SOL    HW119321   3.411   2.240   1.667 -0.2497 -0.3543 -0.4582
 6035SOL    HW219322   3.458   2.194   1.531  0.7790 -0.2147 -0.1621
 6036SOL     OW19323   2.217   3.445   0.461  0.5484 -0.2510 -0.7853
 6036SOL    HW119324   2.241   3.456   0.369 -2.1718  0.0942 -1.5207
 6036SOL    HW219325   2.121   3.443   0.461  0.4697 -0.0031  2.0795
 6037SOL     OW19326   1.762   2.502   1.517  0.0744  0.2211  0.6679
 6037SOL    HW119327   1.828   2.480   1.583 -0.6043 -2.8797  0.4779
 6037SOL    HW219328   1.679   2.504   1.565 -0.0414  1.2992  0.4409
 6038SOL     OW19329   2.614   1.643   0.960  0.2830 -0.1245 -0.4862
 6038SOL    HW119330   2.591   1.653   0.868 -0.6423  1.7977 -0.1147
 6038SOL    HW219331   2.701   1.683   0.968  0.0666  0.3503 -0.4318
 6039SOL     OW19332   1.967   2.166   0.244  0.5731  0.2591  0.6635
 6039SOL    HW119333   1.929   2.083   0.214 -0.2821 -0.4224  3.3505
 6039SOL    HW219334   2.055   2.167   0.207 -0.0366 -0.9709 -0.9014
 6040SOL     OW19335   3.363   2.723   1.159  0.3794 -0.0291 -0.0762
 6040SOL    HW119336   3.355   2.818   1.164 -0.2975  0.1488 -2.9957
 6040SOL    HW219337   3.454   2.707   1.134  0.6176 -0.1931  0.8714
 6041SOL     OW19338   1.806   1.777   0.082  0.5269 -1.2113  0.4957
 6041SOL    HW119339   1.730   1.768   0.024  1.1637 -1.2103 -0.3533
 6041SOL    HW219340   1.833   1.686   0.099 -0.6150 -1.2880  2.1083
 6042SOL     OW19341   3.453   3.297   0.023  0.8911 -0.0795  0.1837
 6042SOL    HW119342   3.538   3.340   0.037  0.1304  1.6617 -0.2793
 6042SOL    HW219343   3.388   3.365   0.043 -0.3647 -0.8960 -0.9445
 6043SOL     OW19344   2.621   2.123   1.312  0.1308 -0.0281 -0.3537
 6043SOL    HW119345   2.551   2.171   1.268 -0.1598  1.1988  1.3345
 6043SOL    HW219346   2.689   2.188   1.328  1.1263 -0.9156 -0.8313
 6044SOL     OW19347   2.829   3.246   0.392  0.1713  0.1060  0.1981
 6044SOL    HW119348   2.821   3.325   0.338 -2.3318 -1.2934 -1.6742
 6044SOL    HW219349   2.770   3.261   0.465 -0.4161 -0.0727 -0.2351
 6045SOL     OW19350   2.512   1.848   1.523  0.6232 -0.0140 -0.0718
 6045SOL    HW119351   2.603   1.824   1.504 -0.2960 -1.9681 -2.6148
 6045SOL    HW219352   2.495   1.810   1.609  2.1361  0.2061  0.3610
 6046SOL     OW19353   3.283   2.805   1.443  0.0729 -0.4690 -0.2756
 6046SOL    HW119354   3.320   2.741   1.383  0.0247 -0.0110 -0.8056
 6046SOL    HW219355   3.232   2.864   1.387  0.8178  0.5505  0.0782
 6047SOL     OW19356   2.034   3.383   1.783 -0.0395 -0.0159  0.0169
 6047SOL    HW119357   1.987   3.431   1.851 -1.3030 -1.1114 -0.0520
 6047SOL    HW219358   1.967   3.332   1.739  0.8470  0.2598 -1.7200
 6048SOL     OW19359   3.712   3.005   1.370 -0.0024 -0.1652  0.1129
 6048SOL    HW119360   3.643   3.060   1.407 -0.5111 -0.6905 -0.0381
 6048SOL    HW219361   3.732   2.941   1.439 -0.6034 -0.8366 -0.3225
 6049SOL     OW19362   3.245   1.914   0.526 -0.2089  0.5050  0.2419
 6049SOL    HW119363   3.176   1.934   0.589 -0.7679 -0.4035 -0.0579
 6049SOL    HW219364   3.260   1.997   0.480 -3.3309  0.0981 -1.8440
 6050SOL     OW19365   2.383   2.541   0.734 -0.1967  0.1539 -0.1495
 6050SOL    HW119366   2.376   2.636   0.744 -0.1132  0.1884 -0.4209
 6050SOL    HW219367   2.463   2.518   0.781 -0.1538  0.2336 -0.1825
 6051SOL     OW19368   3.314   2.156   1.802  0.3235 -0.0061 -0.3845
 6051SOL    HW119369   3.222   2.181   1.814  0.1356 -0.6936 -0.3441
 6051SOL    HW219370   3.337   2.110   1.883  0.3658 -0.8104 -0.8495
 6052SOL     OW19371   3.857   2.092   1.569  0.1774 -0.7772 -0.9604
 6052SOL    HW119372   3.825   2.052   1.650  1.5892 -1.3554 -0.6662
 6052SOL    HW219373   3.818   2.180   1.569 -1.1342 -1.3403 -0.4837
 6053SOL     OW19374   2.779   3.229   8.798  0.6705 -0.5029  0.3242
 6053SOL    HW119375   2.787   3.156   8.737 -0.5232 -0.3383 -0.0447
 6053SOL    HW219376   2.790   3.307   8.744 -0.5968 -0.3515  0.2660
 6054SOL     OW19377   2.399   3.947   1.144 -0.2769 -0.1180 -0.4151
 6054SOL    HW119378   2.333   3.984   1.086  0.2069 -0.5480 -1.2701
 6054SOL    HW219379   2.479   3.997   1.125  0.4491 -1.6784 -1.7655
 6055SOL     OW19380   2.711   3.005   0.836  0.3050  0.4528  0.3322
 6055SOL    HW119381   2.701   2.991   0.931 -1.0587  0.2410  0.1796
 6055SOL    HW219382   2.784   3.065   0.829  0.3568  0.5707  1.5352
 6056SOL     OW19383   3.394   2.432   0.603 -0.3164  0.2113 -0.0599
 6056SOL    HW119384   3.413   2.470   0.518  1.1905  0.8746  0.5427
 6056SOL    HW219385   3.454   2.358   0.611  0.7775  1.1920  1.1085
 6057SOL     OW19386   3.841   3.312   0.527  0.8023 -0.1618  0.0282
 6057SOL    HW119387   3.837   3.400   0.564 -0.9767  0.1361 -0.7660
 6057SOL    HW219388   3.802   3.256   0.593  1.1389 -0.2254  0.1747
 6058SOL     OW19389   2.021   2.991   1.878 -0.2327 -0.1359  0.1818
 6058SOL    HW119390   2.021   2.907   1.832 -0.9055 -0.1354  0.1757
 6058SOL    HW219391   1.930   3.020   1.877 -0.2984 -0.2093  1.6581
 6059SOL     OW19392   1.865   2.815   1.083  0.1371 -0.0399  0.6199
 6059SOL    HW119393   1.805   2.871   1.034  1.2368  0.3144 -0.3725
 6059SOL    HW219394   1.808   2.764   1.140 -0.9522  1.7163  1.2036
 6060SOL     OW19395   2.329   3.369   1.645 -0.0795 -0.3097 -0.0441
 6060SOL    HW119396   2.324   3.276   1.669  1.0973 -0.3679  0.0383
 6060SOL    HW219397   2.242   3.390   1.612 -0.9451 -0.9534  1.6822
 6061SOL     OW19398   3.636   1.838   0.967 -0.4050 -0.5756  0.5241
 6061SOL    HW119399   3.605   1.927   0.947 -1.1346 -1.2229 -1.4658
 6061SOL    HW219400   3.723   1.833   0.928  0.1528 -0.3744  1.7031
 6062SOL     OW19401   2.298   2.265   0.657  0.2352 -0.2279  0.0590
 6062SOL    HW119402   2.231   2.245   0.592  1.4815 -1.0759 -1.0182
 6062SOL    HW219403   2.312   2.359   0.649 -0.5541 -0.1041  0.0414
 6063SOL     OW19404   3.686   3.684   1.184  0.3753 -0.2288 -0.5741
 6063SOL    HW119405   3.694   3.757   1.245 -2.2411 -0.0754 -0.3336
 6063SOL    HW219406   3.695   3.606   1.238  2.2985 -0.1672 -0.7079
 6064SOL     OW19407   2.323   1.864   1.335  0.3422 -0.1400 -0.0399
 6064SOL    HW119408   2.409   1.842   1.370 -0.4943 -0.7257  1.7619
 6064SOL    HW219409   2.264   1.800   1.375 -0.8299 -0.2795 -1.8804
 6065SOL     OW19410   2.240   3.801   0.836  0.3635  0.1009 -0.5402
 6065SOL    HW119411   2.249   3.858   0.912 -0.6493  0.2988 -0.5524
 6065SOL    HW219412   2.292   3.843   0.767  0.9549  0.1321 -0.0755
 6066SOL     OW19413   3.579   1.743   1.512 -0.1124 -0.3805 -0.3262
 6066SOL    HW119414   3.589   1.657   1.472 -1.1114  0.2916 -2.1282
 6066SOL    HW219415   3.629   1.803   1.456 -0.8755  0.4717 -0.1286
 6067SOL     OW19416   3.464   1.466   0.728 -0.3685  0.0407 -0.3601
 6067SOL    HW119417   3.457   1.554   0.691 -0.6248 -0.3897 -1.3919
 6067SOL    HW219418   3.553   1.461   0.761  0.8340 -0.4044 -3.3390
 6068SOL     OW19419   2.586   3.196   0.149  0.0746 -0.3425  0.5381
 6068SOL    HW119420   2.640   3.134   0.199 -0.7170 -2.1961 -0.7995
 6068SOL    HW219421   2.648   3.239   0.090  0.4337 -0.8001  0.5740
 6069SOL     OW19422   2.188   3.647   1.345 -0.2749 -0.0976 -0.5579
 6069SOL    HW119423   2.175   3.636   1.439  0.0426  1.7011 -0.2711
 6069SOL    HW219424   2.218   3.737   1.335  0.7662 -0.5736 -2.2838
 6070SOL     OW19425   3.233   1.995   0.149  0.1113 -0.6605 -0.3176
 6070SOL    HW119426   3.204   1.996   0.058  0.0865 -1.5336 -0.3268
 6070SOL    HW219427   3.214   1.906   0.179  0.7392 -0.5781  0.3373
 6071SOL     OW19428   3.354   2.710   0.712 -0.0244 -0.2068 -0.3409
 6071SOL    HW119429   3.382   2.681   0.625 -0.4745 -1.5551 -0.0617
 6071SOL    HW219430   3.436   2.736   0.755  0.6447 -2.4017 -0.1541
 6072SOL     OW19431   3.556   2.226   0.583  0.3757 -0.1550  0.9006
 6072SOL    HW119432   3.603   2.205   0.502 -1.3423  0.0653 -0.2000
 6072SOL    HW219433   3.613   2.193   0.653  2.2255  0.2696 -0.3416
 6073SOL     OW19434   2.086   2.751   0.483  0.1284  0.3083 -0.2525
 6073SOL    HW119435   2.065   2.787   0.397  0.9518 -0.0083 -0.6018
 6073SOL    HW219436   2.179   2.772   0.496 -0.3348  1.6163  1.2011
 6074SOL     OW19437   2.776   3.445   0.206 -0.2658  0.3274  0.0108
 6074SOL    HW119438   2.688   3.480   0.222 -0.9152 -1.1053 -0.2583
 6074SOL    HW219439   2.805   3.489   0.126  0.1735  2.3783  1.2165
 6075SOL     OW19440   2.439   2.061   1.794  0.2874  0.5345 -0.7622
 6075SOL    HW119441   2.427   2.076   1.700 -1.3563  1.4852 -0.4402
 6075SOL    HW219442   2.428   2.147   1.833  0.1030  0.0068  0.3826
 6076SOL     OW19443   2.168   2.159   1.969 -0.0284 -0.3788  0.0708
 6076SOL    HW119444   2.234   2.218   1.935 -1.0199 -0.8639 -3.0452
 6076SOL    HW219445   2.145   2.195   2.055  1.9195  1.6207 -0.1586
 6077SOL     OW19446   1.921   2.322   2.680  0.1159 -0.4573 -0.1564
 6077SOL    HW119447   1.996   2.364   2.638 -1.4028  0.2895 -2.3407
 6077SOL    HW219448   1.884   2.390   2.737 -0.2955  0.0295 -0.9822
 6078SOL     OW19449   2.450   3.113   2.938 -0.1881  0.3869 -0.0382
 6078SOL    HW119450   2.534   3.068   2.930  0.2143  1.4112 -2.9164
 6078SOL    HW219451   2.472   3.206   2.925 -1.4554  1.0304  1.9890
 6079SOL     OW19452   3.417   3.423   2.779 -0.2187  0.2474 -0.1854
 6079SOL    HW119453   3.388   3.366   2.851  0.0348  0.7400  0.3114
 6079SOL    HW219454   3.393   3.511   2.807  2.9160  0.8692  0.8910
 6080SOL     OW19455   2.717   2.642   2.108 -0.2179 -0.7435  0.3799
 6080SOL    HW119456   2.711   2.585   2.185  1.7321 -3.3847 -1.2070
 6080SOL    HW219457   2.800   2.689   2.119 -0.4983 -0.2630  0.4372
 6081SOL     OW19458   3.511   2.933   2.056  0.0548  0.1870  0.0897
 6081SOL    HW119459   3.598   2.944   2.095  0.1287 -2.5137  0.8523
 6081SOL    HW219460   3.463   3.012   2.082  1.5176  0.5785  1.8111
 6082SOL     OW19461   2.419   2.844   3.136 -0.1714 -0.5273 -0.3198
 6082SOL    HW119462   2.337   2.807   3.103 -1.1545 -0.0940  1.4824
 6082SOL    HW219463   2.398   2.936   3.153 -0.4560 -1.0957  3.3191
 6083SOL     OW19464   2.961   2.654   3.629 -0.3369 -0.2205 -0.1790
 6083SOL    HW119465   2.878   2.680   3.670 -0.9748 -0.2049 -1.4394
 6083SOL    HW219466   2.935   2.617   3.544  1.1070  1.9974 -1.6867
 6084SOL     OW19467   2.307   2.983   2.176 -0.0704  0.3994  0.6635
 6084SOL    HW119468   2.402   2.981   2.163 -0.1307  1.0916  0.0020
 6084SOL    HW219469   2.287   2.901   2.220  0.9528  0.6564  1.6483
 6085SOL     OW19470   2.384   2.996   3.992 -0.2700  0.1398  0.2775
 6085SOL    HW119471   2.356   2.921   3.940  0.7084 -0.2244  0.2390
 6085SOL    HW219472   2.469   3.020   3.955  0.1328  0.2913  1.2688
 6086SOL     OW19473   2.087   3.209   2.896 -0.7110 -0.4424  0.4034
 6086SOL    HW119474   2.047   3.129   2.931  1.5653 -1.5367  0.6963
 6086SOL    HW219475   2.062   3.278   2.958 -1.6760 -1.1754  0.8494
 6087SOL     OW19476   3.606   3.720   3.325  0.1911  0.2041 -0.1864
 6087SOL    HW119477   3.695   3.687   3.314  0.7969  1.3968  0.8366
 6087SOL    HW219478   3.614   3.788   3.392 -1.9424 -1.4730  1.9552
 6088SOL     OW19479   2.333   2.285   3.175 -0.3944 -0.7088  0.3565
 6088SOL    HW119480   2.387   2.258   3.250  2.5560  1.9610 -0.6059
 6088SOL    HW219481   2.291   2.366   3.204  2.3723  1.5126 -1.2825
 6089SOL     OW19482   3.619   2.639   2.537  0.6053 -0.1707  0.0903
 6089SOL    HW119483   3.633   2.708   2.602  1.0453 -0.6067  0.4632
 6089SOL    HW219484   3.588   2.686   2.459  0.7879  0.4346  0.3741
 6090SOL     OW19485   2.236   3.608   2.306  0.2421 -0.7697  0.1672
 6090SOL    HW119486   2.180   3.550   2.357 -2.2141 -0.0885 -1.5332
 6090SOL    HW219487   2.312   3.555   2.283  0.8301 -1.4807  3.2836
 6091SOL     OW19488   2.928   3.246   3.962  0.6329  0.8758  0.2238
 6091SOL    HW119489   2.916   3.311   4.032  0.8477  1.9041 -0.6687
 6091SOL    HW219490   2.997   3.283   3.907 -0.6842  0.9135 -1.4772
 6092SOL     OW19491   1.836   3.509   2.637 -0.3218  0.0849  0.3774
 6092SOL    HW119492   1.884   3.473   2.562 -1.2104 -1.4534  0.5189
 6092SOL    HW219493   1.792   3.434   2.677 -1.4765  1.1838  1.2719
 6093SOL     OW19494   2.399   2.941   2.738  0.0181 -0.3383  0.4519
 6093SOL    HW119495   2.474   2.977   2.691  1.3173 -2.4796  0.7513
 6093SOL    HW219496   2.407   2.978   2.826  1.3825 -1.3187  0.7844
 6094SOL     OW19497   2.551   3.867   3.964  0.2468  0.1039  0.3487
 6094SOL    HW119498   2.512   3.922   3.896 -0.3310 -0.4460  0.2239
 6094SOL    HW219499   2.611   3.925   4.010 -0.3672  0.8442  0.2359
 6095SOL     OW19500   1.999   2.467   1.662  0.4603 -0.2072 -0.5576
 6095SOL    HW119501   2.014   2.475   1.756 -0.9815 -0.3872 -0.2897
 6095SOL    HW219502   2.036   2.547   1.624  0.9354 -0.0807  0.1704
 6096SOL     OW19503   3.684   2.040   3.619  0.6130  0.1445 -0.3521
 6096SOL    HW119504   3.738   1.980   3.670 -0.3255 -1.7677 -1.4702
 6096SOL    HW219505   3.723   2.126   3.632  0.7153 -0.3006  3.1162
 6097SOL     OW19506   2.174   2.835   2.663 -0.3625  0.2185  0.0566
 6097SOL    HW119507   2.147   2.777   2.735  1.5525 -1.3856 -0.4313
 6097SOL    HW219508   2.256   2.874   2.693 -0.8715  1.5787 -0.2409
 6098SOL     OW19509   3.661   3.725   1.930 -0.3335 -0.3108  0.3495
 6098SOL    HW119510   3.729   3.662   1.954  0.0881 -0.5398 -1.2982
 6098SOL    HW219511   3.686   3.754   1.842 -2.2519 -0.2460 -0.2119
 6099SOL     OW19512   1.925   3.485   2.377 -0.3732  0.1253  0.1964
 6099SOL    HW119513   1.920   3.428   2.300  0.7750  0.9115 -0.4931
 6099SOL    HW219514   1.876   3.563   2.353  1.5213  1.1692 -0.5135
 6100SOL     OW19515   3.223   2.806   2.377 -0.3482 -0.4250 -0.3443
 6100SOL    HW119516   3.144   2.855   2.400 -0.0000  0.3924 -0.8537
 6100SOL    HW219517   3.219   2.796   2.282 -0.2568 -1.1297 -0.2816
 6101SOL     OW19518   3.938   3.130   2.633  0.2759 -0.1464  0.1773
 6101SOL    HW119519   3.877   3.200   2.610 -0.4607 -0.8340  0.0098
 6101SOL    HW219520   3.943   3.076   2.554  2.2546  0.7055 -0.3387
 6102SOL     OW19521   1.988   2.691   3.531 -0.1831 -0.5839  0.5628
 6102SOL    HW119522   1.989   2.631   3.606 -0.8141 -0.8251  0.3858
 6102SOL    HW219523   2.066   2.745   3.543 -0.5995 -0.1973  1.7522
 6103SOL     OW19524   2.207   3.187   2.663 -0.6276 -0.5384 -0.2877
 6103SOL    HW119525   2.252   3.102   2.666 -0.4664 -0.4272  0.8998
 6103SOL    HW219526   2.189   3.208   2.754  3.5588  2.9624  0.0483
 6104SOL     OW19527   2.999   3.310   3.266 -0.0140 -0.2417 -0.1350
 6104SOL    HW119528   3.059   3.378   3.296  0.9799 -1.2054  0.1503
 6104SOL    HW219529   2.912   3.345   3.282  0.4901  0.4455  1.2031
 6105SOL     OW19530   2.996   1.852   2.488 -0.1227 -0.1905 -0.4125
 6105SOL    HW119531   2.916   1.868   2.438 -0.7412 -0.0517  0.5789
 6105SOL    HW219532   3.049   1.931   2.475 -0.4922  0.0516 -0.4656
 6106SOL     OW19533   2.163   2.917   3.578 -0.1028  0.1490  0.0419
 6106SOL    HW119534   2.250   2.941   3.610 -0.8195 -0.3912  2.7008
 6106SOL    HW219535   2.127   2.999   3.544  1.5852  0.2656 -1.6544
 6107SOL     OW19536   2.663   2.358   2.006  0.8066  0.3358  0.1659
 6107SOL    HW119537   2.742   2.394   1.966  0.6170 -0.5037 -1.0087
 6107SOL    HW219538   2.658   2.402   2.091  1.6758  1.5524 -0.3725
 6108SOL     OW19539   2.976   3.780   3.243  0.1492 -0.3031  0.3172
 6108SOL    HW119540   2.993   3.740   3.158 -3.6345  0.0343 -0.8072
 6108SOL    HW219541   2.959   3.872   3.223  0.7145  0.1209  1.6723
 6109SOL     OW19542   2.893   1.954   3.953 -0.0458 -0.2459 -0.7528
 6109SOL    HW119543   2.913   2.008   4.029 -1.5806  0.3784 -0.7810
 6109SOL    HW219544   2.976   1.909   3.934  0.6780  0.4864  0.5436
 6110SOL     OW19545   3.334   3.387   3.070  0.2520 -0.4045 -0.0970
 6110SOL    HW119546   3.323   3.481   3.082 -3.2427 -0.5902 -0.9324
 6110SOL    HW219547   3.426   3.371   3.094  0.0290  2.5747  3.8400
 6111SOL     OW19548   3.578   3.884   2.136  0.2276 -0.1565  0.6963
 6111SOL    HW119549   3.485   3.885   2.158  0.4950 -1.2183  1.9931
 6111SOL    HW219550   3.586   3.814   2.071 -0.2080  1.5019 -1.2468
 6112SOL     OW19551   2.295   1.862   2.036  0.3759  0.6205 -0.5222
 6112SOL    HW119552   2.209   1.835   2.066  0.4743  0.6187 -0.2307
 6112SOL    HW219553   2.278   1.925   1.966  0.0984  2.1382  0.8534
 6113SOL     OW19554   3.078   2.269   2.899  0.6352  0.3124 -0.4552
 6113SOL    HW119555   3.128   2.201   2.854  1.0713 -0.2913  0.8853
 6113SOL    HW219556   3.136   2.345   2.901  1.2101 -0.1255  0.3552
 6114SOL     OW19557   3.333   3.778   2.466 -0.1828  0.7534  0.1998
 6114SOL    HW119558   3.290   3.707   2.513 -0.3856 -0.1604 -1.2933
 6114SOL    HW219559   3.419   3.785   2.506  0.3843 -1.3243 -0.5263
 6115SOL     OW19560   2.981   2.122   3.372  0.8396  0.7931  0.2203
 6115SOL    HW119561   2.914   2.106   3.305  0.1508  0.6455  0.9361
 6115SOL    HW219562   3.046   2.176   3.327  0.7364  0.1175 -0.7694
 6116SOL     OW19563   3.734   2.561   3.245 -0.2152 -0.6992  0.1031
 6116SOL    HW119564   3.701   2.471   3.235 -1.0718 -0.6388  1.9644
 6116SOL    HW219565   3.724   2.600   3.159 -5.0227 -0.7242  0.3800
 6117SOL     OW19566   2.591   2.791   3.515 -0.0043  0.5770  0.4001
 6117SOL    HW119567   2.670   2.797   3.461 -0.7691  2.5823 -0.6341
 6117SOL    HW219568   2.613   2.730   3.585  1.7969 -0.3814 -0.9390
 6118SOL     OW19569   2.811   2.166   3.126 -0.2096 -0.8495  0.5736
 6118SOL    HW119570   2.831   2.091   3.071 -1.3527  0.3766 -1.6228
 6118SOL    HW219571   2.839   2.242   3.075 -0.6685  0.3205  1.9846
 6119SOL     OW19572   2.434   2.461   1.632  0.2560  0.0381  0.0404
 6119SOL    HW119573   2.458   2.507   1.712  1.2642  0.1115 -0.2788
 6119SOL    HW219574   2.391   2.381   1.662 -0.7217  0.7562  0.6158
 6120SOL     OW19575   1.913   2.932   2.828 -0.5732 -0.4314 -0.1038
 6120SOL    HW119576   1.856   2.954   2.901 -1.2489 -1.9867 -0.1146
 6120SOL    HW219577   1.944   2.843   2.848  0.3438 -0.3406 -1.0288
 6121SOL     OW19578   2.008   4.070   3.401  0.4015  0.6196 -0.2179
 6121SOL    HW119579   1.964   4.001   3.451 -0.2647  1.4875  0.4085
 6121SOL    HW219580   2.100   4.042   3.397  0.3156  0.1540  0.8186
 6122SOL     OW19581   2.672   1.957   1.889 -0.3082 -0.7918  0.1473
 6122SOL    HW119582   2.623   1.882   1.923 -0.3056 -1.2180 -0.7681
 6122SOL    HW219583   2.606   2.013   1.850 -0.2101 -0.7511  0.0383
 6123SOL     OW19584   3.502   2.063   4.040 -0.5954  0.0736  0.6085
 6123SOL    HW119585   3.486   2.154   4.015  2.8079  0.1851 -1.8914
 6123SOL    HW219586   3.464   2.012   3.969 -0.6092 -0.3374  0.9119
 6124SOL     OW19587   2.921   2.884   2.144  0.1627 -0.1391 -0.4366
 6124SOL    HW119588   2.901   2.943   2.071  3.8741  1.4052 -0.4306
 6124SOL    HW219589   3.009   2.852   2.125  0.6999 -0.8142  2.6398
 6125SOL     OW19590   2.395   1.986   2.781 -0.0455 -0.0195 -0.2910
 6125SOL    HW119591   2.305   2.009   2.804  0.1160  0.1841  0.1491
 6125SOL    HW219592   2.390   1.954   2.691 -0.5340  0.1302 -0.3165
 6126SOL     OW19593   2.736   3.191   2.201 -0.0877  0.6420  0.7492
 6126SOL    HW119594   2.729   3.186   2.297 -0.2410 -0.6411  0.6841
 6126SOL    HW219595   2.828   3.170   2.183 -0.3197 -0.2744  0.5645
 6127SOL     OW19596   2.338   3.775   2.800  0.0691  0.0359  0.1941
 6127SOL    HW119597   2.398   3.841   2.834 -0.5869  0.1011  1.2620
 6127SOL    HW219598   2.254   3.820   2.791  0.5786  0.5924 -3.4464
 6128SOL     OW19599   3.194   2.992   2.984 -0.0563 -0.7026  0.4172
 6128SOL    HW119600   3.122   2.933   2.961 -0.2360 -0.9629  1.6328
 6128SOL    HW219601   3.151   3.074   3.007  0.1276 -0.4326 -0.1830
 6129SOL     OW19602   2.687   3.345   3.337 -0.1454 -0.1799  0.2407
 6129SOL    HW119603   2.728   3.393   3.408 -0.7801  1.0580 -0.1925
 6129SOL    HW219604   2.632   3.410   3.293  0.8219 -0.6745 -1.8567
 6130SOL     OW19605   1.991   2.741   1.698 -0.0102 -0.9012  0.1347
 6130SOL    HW119606   1.933   2.710   1.767  1.4536 -0.8901  1.4044
 6130SOL    HW219607   2.079   2.728   1.731  0.7323  0.2430 -1.2266
 6131SOL     OW19608   3.091   2.644   2.706 -0.2154  0.1069  0.5605
 6131SOL    HW119609   3.053   2.587   2.638  0.0110 -0.5141  0.9478
 6131SOL    HW219610   3.170   2.679   2.666 -0.7486  0.7549  0.0458
 6132SOL     OW19611   2.425   3.015   3.597  0.1628  0.0788 -1.0551
 6132SOL    HW119612   2.480   3.081   3.639 -0.2691 -0.9394  1.2260
 6132SOL    HW219613   2.485   2.942   3.579 -0.3437 -1.0535  1.4820
 6133SOL     OW19614   2.773   3.547   2.207 -0.8983  0.2569 -0.4075
 6133SOL    HW119615   2.679   3.529   2.214 -0.8099  0.1515  0.5243
 6133SOL    HW219616   2.798   3.582   2.292  0.2790 -1.4280  0.0014
 6134SOL     OW19617   2.284   2.404   3.496 -0.9221 -0.2033  0.3986
 6134SOL    HW119618   2.319   2.469   3.557 -0.1309 -0.6214  0.4121
 6134SOL    HW219619   2.346   2.331   3.501 -0.4156  0.0391 -1.4304
 6135SOL     OW19620   3.392   3.171   1.715  0.7055 -0.4155 -0.0700
 6135SOL    HW119621   3.469   3.226   1.730  1.3944 -0.3017 -3.3888
 6135SOL    HW219622   3.325   3.232   1.683  0.3405 -1.0044 -0.4384
 6136SOL     OW19623   2.630   3.860   2.335  0.8638  0.2919 -0.0255
 6136SOL    HW119624   2.587   3.910   2.405  0.3170 -1.1904  0.7339
 6136SOL    HW219625   2.641   3.772   2.372 -1.4706 -1.2045 -2.5541
 6137SOL     OW19626   3.523   2.185   2.334  0.6731  0.7064  0.0437
 6137SOL    HW119627   3.437   2.194   2.292  0.0622 -0.5466  0.9849
 6137SOL    HW219628   3.559   2.105   2.298  1.4672  1.2206 -0.3354
 6138SOL     OW19629   1.972   2.906   3.812 -0.0226  0.0238  0.4462
 6138SOL    HW119630   2.046   2.931   3.757 -0.5498 -1.4977 -1.0317
 6138SOL    HW219631   1.914   2.983   3.812  0.0735  0.1137 -0.9855
 6139SOL     OW19632   2.575   3.614   2.864  0.1223  0.1594 -0.6911
 6139SOL    HW119633   2.633   3.598   2.789 -0.0147 -1.6639 -0.4418
 6139SOL    HW219634   2.509   3.675   2.829  1.2020  0.9309 -1.4564
 6140SOL     OW19635   2.071   2.495   1.962  0.1317  0.4321 -0.5086
 6140SOL    HW119636   2.075   2.430   2.032  1.0209 -0.2527 -1.1549
 6140SOL    HW219637   1.999   2.552   1.985  1.0379  0.8417  1.4906
 6141SOL     OW19638   3.426   2.040   3.777  0.2254 -0.1853  0.0097
 6141SOL    HW119639   3.373   2.092   3.717 -0.6546 -1.5983 -0.4852
 6141SOL    HW219640   3.515   2.046   3.741 -0.1513 -0.3492 -0.9875
 6142SOL     OW19641   2.551   1.730   1.988  0.6837  0.0473  0.0953
 6142SOL    HW119642   2.572   1.711   2.080 -4.1489 -0.9338  1.2566
 6142SOL    HW219643   2.467   1.776   1.992  0.4790  0.3331 -3.8920
 6143SOL     OW19644   2.608   2.101   3.672  0.0396  0.9343  0.4588
 6143SOL    HW119645   2.696   2.137   3.664 -0.1357  1.1200 -0.8255
 6143SOL    HW219646   2.612   2.046   3.750  0.3504  3.6104  2.4619
 6144SOL     OW19647   2.953   3.028   2.658  0.6587  0.4124  0.0010
 6144SOL    HW119648   2.990   3.020   2.570 -0.7220 -0.0565 -0.5630
 6144SOL    HW219649   2.948   3.122   2.674 -1.0617  0.5710 -1.3121
 6145SOL     OW19650   3.247   2.425   3.379  0.1094  0.5622 -0.0731
 6145SOL    HW119651   3.228   2.356   3.316 -0.7237  0.9121 -0.2188
 6145SOL    HW219652   3.331   2.460   3.351  0.7830 -0.7043  0.2979
 6146SOL     OW19653   2.542   3.329   2.828  0.6365 -0.0447  0.3569
 6146SOL    HW119654   2.537   3.424   2.836 -1.1905  0.0090 -0.7682
 6146SOL    HW219655   2.512   3.311   2.739 -0.2443 -1.7373  0.9420
 6147SOL     OW19656   2.657   2.433   2.902  0.3187  0.0018  0.3191
 6147SOL    HW119657   2.590   2.390   2.956  0.4983 -0.4895  0.1546
 6147SOL    HW219658   2.627   2.523   2.895  0.7990  0.3272  2.0598
 6148SOL     OW19659   2.764   1.935   2.363 -0.4046  0.2210  0.3358
 6148SOL    HW119660   2.743   1.981   2.444  1.9558  0.4694  0.8800
 6148SOL    HW219661   2.730   1.991   2.294 -1.9000  0.3170  1.1082
 6149SOL     OW19662   2.893   2.779   1.808  0.2487 -0.2133 -0.2616
 6149SOL    HW119663   2.968   2.823   1.768 -0.0147  0.7267  0.2474
 6149SOL    HW219664   2.849   2.848   1.858 -0.3397 -1.0007  0.3224
 6150SOL     OW19665   2.429   2.007   2.276 -0.1069  0.5807 -0.2395
 6150SOL    HW119666   2.503   2.041   2.225  0.5321 -1.4291 -0.7245
 6150SOL    HW219667   2.361   1.990   2.211  0.0982 -0.3831 -0.2175
 6151SOL     OW19668   3.071   2.265   1.843 -0.7763 -0.0941 -0.3062
 6151SOL    HW119669   3.042   2.234   1.758  0.4487  0.4914 -0.9608
 6151SOL    HW219670   3.021   2.344   1.859 -0.4133  0.2552 -0.8731
 6152SOL     OW19671   3.000   2.508   3.396 -0.3052 -0.2422  0.1945
 6152SOL    HW119672   3.001   2.587   3.343 -1.1727  0.3493  1.0209
 6152SOL    HW219673   3.088   2.472   3.387  0.1910  0.9558  0.0030
 6153SOL     OW19674   2.986   2.850   2.846  0.1436  0.3464  0.3321
 6153SOL    HW119675   2.974   2.925   2.787 -1.5969  0.4713  0.7664
 6153SOL    HW219676   2.993   2.775   2.788 -0.3415  0.6074 -0.0812
 6154SOL     OW19677   2.161   2.742   2.429  0.0337  0.1476  0.5880
 6154SOL    HW119678   2.172   2.793   2.509  0.6860 -1.5957  1.6549
 6154SOL    HW219679   2.094   2.790   2.379 -0.8549  0.9487  2.4529
 6155SOL     OW19680   3.333   3.725   2.197  0.2769  0.8648  0.3767
 6155SOL    HW119681   3.413   3.674   2.194 -0.8899 -1.0381 -0.3382
 6155SOL    HW219682   3.322   3.748   2.289  1.0894  0.2281  0.6428
 6156SOL     OW19683   2.679   2.698   1.698  0.2194 -0.0372  0.2625
 6156SOL    HW119684   2.751   2.740   1.744 -1.6300  1.0026  2.3734
 6156SOL    HW219685   2.678   2.741   1.612  2.1384 -0.2027  0.0978
 6157SOL     OW19686   2.200   2.622   3.150  0.1331  0.0867 -0.2821
 6157SOL    HW119687   2.125   2.667   3.188 -0.6098 -1.7950  0.5743
 6157SOL    HW219688   2.269   2.630   3.216 -0.1944 -0.5266  0.1469
 6158SOL     OW19689   2.421   2.577   2.393  0.1935 -0.0389 -0.1498
 6158SOL    HW119690   2.334   2.613   2.373 -1.5169 -3.2092  0.9442
 6158SOL    HW219691   2.461   2.642   2.451 -2.7309  0.1842  1.8310
 6159SOL     OW19692   2.315   2.287   2.383 -0.5257  0.1228  0.1140
 6159SOL    HW119693   2.393   2.289   2.327 -0.7075 -2.6342 -0.3542
 6159SOL    HW219694   2.350   2.286   2.472 -0.0076 -0.9385 -0.0911
 6160SOL     OW19695   2.698   2.090   2.133 -0.0131  0.2772 -0.3057
 6160SOL    HW119696   2.736   2.035   2.065 -1.1135  0.5634 -1.1755
 6160SOL    HW219697   2.683   2.175   2.090 -0.7001  0.4671  0.2844
 6161SOL     OW19698   3.016   2.987   2.387  0.3726 -0.5143 -0.1358
 6161SOL    HW119699   3.040   3.062   2.332  1.7546 -1.1756 -0.4965
 6161SOL    HW219700   2.965   2.930   2.330 -0.3525 -0.0413  0.0274
 6162SOL     OW19701   3.043   2.264   2.558 -0.4809 -0.4359  0.2889
 6162SOL    HW119702   3.091   2.240   2.637  0.0233 -0.3589  0.0104
 6162SOL    HW219703   3.054   2.189   2.499 -2.0053 -1.1049  0.7756
 6163SOL     OW19704   3.492   2.600   2.819  0.4536 -0.4407 -0.2419
 6163SOL    HW119705   3.469   2.669   2.757  0.3175 -1.4155 -1.3388
 6163SOL    HW219706   3.408   2.566   2.850  0.5193 -0.0905  0.3233
 6164SOL     OW19707   2.167   3.341   2.444  0.2559  0.3340 -0.1282
 6164SOL    HW119708   2.082   3.384   2.438  0.3904  0.4310 -1.4760
 6164SOL    HW219709   2.172   3.312   2.535 -1.5793 -0.4060 -0.2129
 6165SOL     OW19710   3.032   3.196   2.198  0.2094 -0.3654 -0.1385
 6165SOL    HW119711   3.059   3.154   2.117 -2.4481 -1.5280 -0.5108
 6165SOL    HW219712   3.081   3.279   2.199 -0.2049  0.0432 -3.3098
 6166SOL     OW19713   2.912   2.505   1.902 -0.0363 -0.3023 -0.7202
 6166SOL    HW119714   3.001   2.527   1.928  0.0268  0.0501 -1.2175
 6166SOL    HW219715   2.874   2.589   1.875 -1.3565  0.0484  1.8826
 6167SOL     OW19716   1.901   2.108   1.959 -0.0435  0.6310 -0.2906
 6167SOL    HW119717   1.990   2.113   1.995  0.9393  0.8342 -2.5873
 6167SOL    HW219718   1.906   2.042   1.890 -2.1673 -0.6677  0.7085
 6168SOL     OW19719   3.661   3.031   3.788  0.4098 -0.1255  0.2687
 6168SOL    HW119720   3.712   3.112   3.792  1.3391 -0.6919  0.2216
 6168SOL    HW219721   3.649   3.015   3.694 -1.5200  1.0030  0.2791
 6169SOL     OW19722   3.095   3.235   3.029 -0.1270 -0.3458  0.6154
 6169SOL    HW119723   3.035   3.256   3.101 -0.6333  0.8957 -0.1216
 6169SOL    HW219724   3.164   3.301   3.036 -0.8639  0.6249 -0.7794
 6170SOL     OW19725   3.608   3.546   3.675  0.0687  0.3492 -0.4689
 6170SOL    HW119726   3.604   3.552   3.771 -1.1331 -0.4794 -0.4450
 6170SOL    HW219727   3.674   3.610   3.650 -0.4966  1.4846  0.8290
 6171SOL     OW19728   2.717   3.177   3.116  0.5215 -0.0127  0.3415
 6171SOL    HW119729   2.624   3.155   3.127  0.2711  0.3526 -0.9192
 6171SOL    HW219730   2.729   3.257   3.167 -0.2169  0.7421 -0.6314
 6172SOL     OW19731   3.422   2.900   3.090 -0.2618  0.0124 -0.2364
 6172SOL    HW119732   3.462   2.986   3.096 -0.2721  0.0013  0.0501
 6172SOL    HW219733   3.329   2.917   3.074 -0.6183  0.1219  1.7125
 6173SOL     OW19734   3.286   1.735   3.206  0.0829  0.2153  0.1741
 6173SOL    HW119735   3.196   1.762   3.223  0.3873  0.9414  0.7081
 6173SOL    HW219736   3.332   1.817   3.185  1.1390  0.2463  2.2947
 6174SOL     OW19737   2.997   3.200   3.604  0.2229 -0.2323  0.0596
 6174SOL    HW119738   3.064   3.268   3.606 -0.8561  0.8544  0.4676
 6174SOL    HW219739   2.914   3.248   3.598 -0.5580 -1.5088  0.2726
 6175SOL     OW19740   1.810   2.646   1.948  0.1491  0.1839  0.3876
 6175SOL    HW119741   1.774   2.559   1.963  0.0090  0.3508  1.0474
 6175SOL    HW219742   1.736   2.705   1.959  0.3380  0.4232  0.3800
 6176SOL     OW19743   2.601   2.479   3.238 -0.7218  0.3566 -0.0199
 6176SOL    HW119744   2.537   2.523   3.295  0.5445  1.7105  0.4287
 6176SOL    HW219745   2.635   2.407   3.290 -0.8486  0.5073  0.2711
 6177SOL     OW19746   3.466   2.227   3.207  1.0239 -0.1689  0.2824
 6177SOL    HW119747   3.522   2.207   3.283  0.3438  1.2152  1.1818
 6177SOL    HW219748   3.527   2.256   3.139  1.7518 -2.4248 -0.1117
 6178SOL     OW19749   2.219   3.182   3.490 -0.5007  0.6088  0.2743
 6178SOL    HW119750   2.300   3.130   3.490 -0.6966  0.2733 -1.0868
 6178SOL    HW219751   2.233   3.249   3.424 -0.9899  1.1115  0.6766
 6179SOL     OW19752   1.842   2.833   2.351  0.3445 -0.0664  0.7739
 6179SOL    HW119753   1.896   2.881   2.288  1.0349 -2.3683 -0.5011
 6179SOL    HW219754   1.778   2.786   2.298 -2.1557  1.5397  2.1719
 6180SOL     OW19755   2.448   2.295   2.635  0.5189  0.0812  0.1802
 6180SOL    HW119756   2.412   2.307   2.723 -0.1781  0.3930 -0.1431
 6180SOL    HW219757   2.520   2.234   2.647  0.8318  0.6115  1.0651
 6181SOL     OW19758   2.593   2.940   2.170 -0.2502  0.6697  0.6609
 6181SOL    HW119759   2.636   2.876   2.114 -0.5620 -0.2317  1.4254
 6181SOL    HW219760   2.651   3.016   2.169  0.7602 -0.0873  0.7475
 6182SOL     OW19761   3.317   3.646   3.171  0.1350  0.4115 -0.2313
 6182SOL    HW119762   3.362   3.729   3.163 -2.6612  2.3185  1.7936
 6182SOL    HW219763   3.340   3.614   3.258  0.3379 -0.3963 -0.5732
 6183SOL     OW19764   3.312   2.580   2.569 -0.5160 -0.3620  1.0019
 6183SOL    HW119765   3.352   2.526   2.501 -0.2339  1.9623 -0.8234
 6183SOL    HW219766   3.271   2.652   2.520 -0.5171  1.2814  3.2916
 6184SOL     OW19767   1.912   3.136   3.415  0.1557  0.5175  0.5849
 6184SOL    HW119768   2.005   3.150   3.400  0.4240 -1.7264 -0.1843
 6184SOL    HW219769   1.887   3.068   3.353 -1.8798  0.6485  1.1736
 6185SOL     OW19770   2.289   2.513   3.993 -0.2624 -0.7422  0.3427
 6185SOL    HW119771   2.303   2.419   3.998  0.9652 -0.6434 -0.6685
 6185SOL    HW219772   2.349   2.550   4.059 -0.8209 -0.6626  0.8154
 6186SOL     OW19773   3.339   3.126   3.792 -0.3518 -0.5422 -0.0893
 6186SOL    HW119774   3.434   3.116   3.785  0.0253  2.7976 -1.8778
 6186SOL    HW219775   3.325   3.170   3.876  0.1791  2.0669 -1.2534
 6187SOL     OW19776   3.142   2.033   3.570 -0.0679  0.2046 -0.1118
 6187SOL    HW119777   3.096   2.053   3.489 -2.3001  1.0469  1.2675
 6187SOL    HW219778   3.163   2.118   3.608  0.2656 -0.1550  0.5344
 6188SOL     OW19779   2.420   2.174   3.479  0.2619  0.4591  0.0363
 6188SOL    HW119780   2.350   2.109   3.482  0.5624  0.1024 -0.5445
 6188SOL    HW219781   2.473   2.155   3.556  0.0197  0.3977  0.1918
 6189SOL     OW19782   2.372   2.687   3.356  0.3029 -1.3688  0.1685
 6189SOL    HW119783   2.400   2.756   3.295 -2.4110  0.1994  0.5335
 6189SOL    HW219784   2.422   2.705   3.436  1.6087 -1.5389 -0.5742
 6190SOL     OW19785   3.664   2.682   3.017 -0.1791 -0.3450  0.3283
 6190SOL    HW119786   3.623   2.761   3.050 -0.0276  0.1964 -0.7557
 6190SOL    HW219787   3.612   2.657   2.941  1.7211  0.6588 -1.4083
 6191SOL     OW19788   2.412   2.304   1.908  0.5686 -0.0876 -0.5041
 6191SOL    HW119789   2.501   2.301   1.946 -0.2566 -1.1320  1.5377
 6191SOL    HW219790   2.385   2.395   1.917  1.4065  0.2288 -1.0960
 6192SOL     OW19791   2.099   2.481   2.528  0.1662 -0.0518 -0.0232
 6192SOL    HW119792   2.128   2.569   2.506 -0.8232 -0.3315 -2.8777
 6192SOL    HW219793   2.168   2.424   2.494 -0.2847 -0.4570 -0.2721
 6193SOL     OW19794   2.140   3.668   3.196  0.1745 -0.2671 -0.4332
 6193SOL    HW119795   2.227   3.664   3.156 -0.0389  0.3940 -0.9894
 6193SOL    HW219796   2.156   3.657   3.290  1.0627  1.5091 -0.3208
 6194SOL     OW19797   2.570   2.704   2.913  0.1817 -0.3773  0.4787
 6194SOL    HW119798   2.552   2.711   3.006 -0.3048 -0.1241  0.3698
 6194SOL    HW219799   2.502   2.757   2.871 -0.9207 -2.2013 -0.1470
 6195SOL     OW19800   3.527   2.930   4.210  0.1266 -0.2150 -0.3301
 6195SOL    HW119801   3.581   2.985   4.267  2.2259  0.3848 -2.6771
 6195SOL    HW219802   3.480   2.991   4.154 -1.8735 -0.7842  0.6373
 6196SOL     OW19803   2.316   1.709   2.863 -0.1793  0.2134  0.1809
 6196SOL    HW119804   2.383   1.766   2.899  0.2387 -1.2314  1.8188
 6196SOL    HW219805   2.233   1.753   2.884  0.1656  0.9111  0.1041
 6197SOL     OW19806   3.174   2.835   2.082  0.1964  0.2228 -0.2665
 6197SOL    HW119807   3.257   2.866   2.047  0.1893  0.7848  0.2074
 6197SOL    HW219808   3.162   2.749   2.042  1.7154 -0.5200  0.7674
 6198SOL     OW19809   2.682   2.526   2.523 -0.3656 -0.1014  0.6448
 6198SOL    HW119810   2.631   2.481   2.590 -2.6110  0.3899 -0.6118
 6198SOL    HW219811   2.663   2.619   2.536 -1.4694 -0.0299 -1.0357
 6199SOL     OW19812   2.615   3.162   3.720 -0.7446 -0.1185  0.0327
 6199SOL    HW119813   2.641   3.254   3.714 -1.2844  0.0172 -0.2960
 6199SOL    HW219814   2.666   3.128   3.793 -0.5010  0.4285  0.1258
 6200SOL     OW19815   3.282   3.352   3.594 -0.5760 -0.0886 -0.2169
 6200SOL    HW119816   3.288   3.443   3.625  1.4117  0.3124 -1.5786
 6200SOL    HW219817   3.312   3.300   3.669  0.9104  0.6203 -0.2762
 6201SOL     OW19818   2.389   2.532   3.699 -0.2557 -0.0104 -0.1797
 6201SOL    HW119819   2.338   2.473   3.756  0.0680 -0.0788  0.0430
 6201SOL    HW219820   2.476   2.492   3.696  0.4019  1.2275  1.1706
 6202SOL     OW19821   3.087   2.026   2.013  0.7229  0.5666  0.6214
 6202SOL    HW119822   3.045   1.946   1.981  1.0326  0.5197  0.3261
 6202SOL    HW219823   3.065   2.092   1.947  0.5945  0.6900  0.7870
 6203SOL     OW19824   3.088   2.891   1.657  0.2743  0.2049 -0.6853
 6203SOL    HW119825   3.106   2.832   1.585 -0.4880 -1.6332  0.5548
 6203SOL    HW219826   3.165   2.885   1.713 -0.3584 -0.7200  0.1232
 6204SOL     OW19827   2.728   3.214   2.458 -0.4139 -0.1361 -0.1215
 6204SOL    HW119828   2.661   3.273   2.493 -2.3036 -1.9192 -0.5379
 6204SOL    HW219829   2.808   3.239   2.504 -1.6212  1.2074  1.3794
 6205SOL     OW19830   2.274   3.085   3.155  0.3483  0.1808 -0.3580
 6205SOL    HW119831   2.309   3.099   3.067 -0.2104 -0.3939 -0.6810
 6205SOL    HW219832   2.241   3.171   3.182 -0.6437  0.0929 -1.2364
 6206SOL     OW19833   2.219   2.541   2.890 -0.0877  0.2522  0.4516
 6206SOL    HW119834   2.221   2.541   2.986  1.9556  1.3636  0.4587
 6206SOL    HW219835   2.249   2.454   2.865  0.2876  0.2692  0.8328
 6207SOL     OW19836   3.263   2.309   3.661  0.2634 -0.0203 -0.3000
 6207SOL    HW119837   3.285   2.355   3.580  0.3344  1.9690  0.8039
 6207SOL    HW219838   3.201   2.366   3.706 -1.9828 -2.3681 -0.1673
 6208SOL     OW19839   3.355   1.978   3.097  0.4990 -0.1483  0.3285
 6208SOL    HW119840   3.404   2.057   3.120 -0.3980  1.5828 -3.0435
 6208SOL    HW219841   3.344   1.984   3.002 -2.1158 -2.8853  0.3180
 6209SOL     OW19842   1.764   3.124   1.890 -0.3294  0.3094  0.2151
 6209SOL    HW119843   1.747   3.182   1.964  1.2187 -1.2002  1.8693
 6209SOL    HW219844   1.765   3.182   1.814 -0.3008  2.2091  1.5845
 6210SOL     OW19845   2.009   3.454   3.033  0.3415  0.1335 -0.8818
 6210SOL    HW119846   2.050   3.539   3.020 -0.0089  0.2333 -1.3443
 6210SOL    HW219847   1.924   3.461   2.990  1.4461 -1.3765 -3.5578
 6211SOL     OW19848   2.453   3.650   2.565  0.8149 -0.4771 -0.1479
 6211SOL    HW119849   2.359   3.658   2.555  1.0402  1.2891 -1.2123
 6211SOL    HW219850   2.480   3.730   2.610  2.0060 -0.1227 -1.4422
 6212SOL     OW19851   3.035   2.673   3.045 -0.4321  0.4771  0.0836
 6212SOL    HW119852   2.978   2.596   3.050 -0.3551  0.4723  1.0807
 6212SOL    HW219853   2.995   2.727   2.977 -1.0154 -0.0212  0.0142
 6213SOL     OW19854   2.095   2.889   3.275  0.4539 -0.0891 -0.1751
 6213SOL    HW119855   2.141   2.857   3.353 -0.1526  0.5446  0.4564
 6213SOL    HW219856   2.152   2.958   3.240  0.9045 -0.6281 -0.5122
 6214SOL     OW19857   1.886   1.920   3.688  0.4308 -0.0677  0.2880
 6214SOL    HW119858   1.917   1.959   3.770 -0.2289 -0.3301  0.6740
 6214SOL    HW219859   1.959   1.866   3.657  0.5317 -0.3103  0.9353
 6215SOL     OW19860   3.174   3.026   3.372  0.0786 -0.8432  0.1185
 6215SOL    HW119861   3.112   3.099   3.364 -0.1595 -1.1824 -1.5537
 6215SOL    HW219862   3.260   3.068   3.381 -0.1290 -0.3464 -0.1721
 6216SOL     OW19863   2.114   2.329   2.202  0.6121 -0.0530  0.6080
 6216SOL    HW119864   2.037   2.327   2.259  0.1485  2.1135  0.1434
 6216SOL    HW219865   2.188   2.319   2.262  0.0206 -1.5257  1.1299
 6217SOL     OW19866   3.228   2.492   2.922 -0.1539  0.2346  0.4033
 6217SOL    HW119867   3.168   2.532   2.986 -1.5261 -0.6346 -0.2823
 6217SOL    HW219868   3.214   2.543   2.841  0.2195  0.1764  0.2994
 6218SOL     OW19869   1.833   3.452   4.100  0.6025  0.0200  0.3203
 6218SOL    HW119870   1.911   3.493   4.062  0.1995  1.6738  1.1494
 6218SOL    HW219871   1.866   3.376   4.147  1.6969  0.5851  0.4959
 6219SOL     OW19872   2.873   2.475   3.133  0.4380  0.2137 -0.0517
 6219SOL    HW119873   2.928   2.450   3.208  0.2272  0.2251  0.1093
 6219SOL    HW219874   2.784   2.472   3.168 -0.0441 -3.3862 -1.2053
 6220SOL     OW19875   2.859   3.468   3.517 -0.1621 -0.5822 -0.7043
 6220SOL    HW119876   2.829   3.552   3.552 -1.7466 -0.8297 -1.3733
 6220SOL    HW219877   2.953   3.480   3.503  0.1528  0.1948  1.6389
 6221SOL     OW19878   1.499   2.358   1.860  0.5141  0.4274 -0.6011
 6221SOL    HW119879   1.487   2.414   1.937  0.0809 -1.8613  1.0983
 6221SOL    HW219880   1.593   2.350   1.850  0.5734  0.7702 -0.3447
 6222SOL     OW19881   1.975   2.614   3.791 -0.2402  0.4164  0.1434
 6222SOL    HW119882   1.893   2.610   3.840 -0.5334  1.1760 -0.2715
 6222SOL    HW219883   2.005   2.704   3.803 -0.6719  0.8198 -1.6220
 6223SOL     OW19884   3.107   2.767   3.283 -0.3092  0.1584 -0.1478
 6223SOL    HW119885   3.091   2.719   3.201  1.9438  2.0129 -1.8073
 6223SOL    HW219886   3.150   2.848   3.255  1.6712  0.3440  2.9744
 6224SOL     OW19887   2.481   2.617   1.866  0.3008  0.1970  0.2961
 6224SOL    HW119888   2.514   2.614   1.956  0.4232  1.8210  0.3491
 6224SOL    HW219889   2.557   2.642   1.814  0.2421 -0.7981 -0.2763
 6225SOL     OW19890   3.073   3.653   3.016 -0.4524 -0.5664 -0.3159
 6225SOL    HW119891   3.089   3.718   2.947 -1.0528  0.2692  0.3138
 6225SOL    HW219892   3.157   3.646   3.062 -0.2594 -0.5678 -0.6639
 6226SOL     OW19893   2.155   3.319   3.242  0.3895 -0.2317 -0.0070
 6226SOL    HW119894   2.213   3.395   3.254  1.1948 -0.8895  0.3363
 6226SOL    HW219895   2.092   3.347   3.176 -0.9112  1.6526  1.8797
 6227SOL     OW19896   2.682   3.733   3.333  0.0753  0.0479 -0.2197
 6227SOL    HW119897   2.773   3.751   3.308  0.3614 -2.3597 -1.1634
 6227SOL    HW219898   2.640   3.819   3.333  2.7985  1.5786  2.3910
 6228SOL     OW19899   3.434   2.448   2.076 -0.0199 -0.1878  0.1612
 6228SOL    HW119900   3.473   2.529   2.043 -0.5588 -0.4615 -1.2026
 6228SOL    HW219901   3.453   2.449   2.170  2.1311  0.3291 -0.2167
 6229SOL     OW19902   2.834   3.681   2.440  0.3456 -0.3978  0.2413
 6229SOL    HW119903   2.924   3.662   2.413  1.1168  2.1130  0.8610
 6229SOL    HW219904   2.834   3.668   2.535  0.1200 -0.1226  0.2790
 6230SOL     OW19905   2.048   4.048   4.168 -0.4283 -0.2158  0.2093
 6230SOL    HW119906   1.970   4.003   4.135 -0.9078  1.8392 -1.7025
 6230SOL    HW219907   2.070   4.001   4.249 -1.4145 -3.1885 -1.1073
 6231SOL     OW19908   2.571   2.790   2.492  0.0801  0.0230  0.6312
 6231SOL    HW119909   2.587   2.859   2.556  0.0464  1.7919 -1.1690
 6231SOL    HW219910   2.588   2.831   2.407  0.0575 -2.1937 -0.5337
 6232SOL     OW19911   2.372   3.486   3.286 -0.0646 -0.0421  0.5208
 6232SOL    HW119912   2.411   3.517   3.368  1.4443 -1.0907  0.2327
 6232SOL    HW219913   2.444   3.485   3.223 -0.2777 -2.7753  0.1853
 6233SOL     OW19914   2.382   3.226   2.306 -0.2008  0.2278 -0.0734
 6233SOL    HW119915   2.355   3.145   2.263 -2.0837  0.9775 -0.3769
 6233SOL    HW219916   2.304   3.258   2.351  1.0586  0.7691  1.8951
 6234SOL     OW19917   3.823   3.697   3.612 -0.3046  0.0556 -0.2172
 6234SOL    HW119918   3.874   3.668   3.536  0.8187  3.0369 -0.7323
 6234SOL    HW219919   3.887   3.710   3.681 -0.6442  1.5585 -0.1382
 6235SOL     OW19920   3.632   2.325   3.000 -0.4746 -0.3888 -0.4300
 6235SOL    HW119921   3.577   2.364   2.932 -1.1519  2.1344  1.3935
 6235SOL    HW219922   3.715   2.372   2.994 -1.0762  1.0518  1.3851
 6236SOL     OW19923   1.928   2.286   2.401 -0.1888  0.0508  0.4634
 6236SOL    HW119924   1.962   2.353   2.460 -1.3063  1.2776 -0.2153
 6236SOL    HW219925   1.907   2.212   2.458 -0.1517  0.7605  1.4236
 6237SOL     OW19926   2.952   3.476   2.003 -0.1562  0.2165 -0.2300
 6237SOL    HW119927   2.898   3.415   1.952  0.3609  0.5033 -1.1404
 6237SOL    HW219928   2.898   3.497   2.080 -0.8119 -0.4869 -0.4839
 6238SOL     OW19929   2.693   2.958   2.893 -0.5400  0.0192 -0.0132
 6238SOL    HW119930   2.692   2.862   2.894  2.0633 -0.1098 -1.4654
 6238SOL    HW219931   2.764   2.981   2.953 -1.1611  1.0557  0.3385
 6239SOL     OW19932   2.176   2.724   2.046  0.0398 -0.3098  0.5929
 6239SOL    HW119933   2.144   2.635   2.032 -0.6536  0.0957 -0.5659
 6239SOL    HW219934   2.213   2.749   1.962 -0.3541  0.7153  0.7107
 6240SOL     OW19935   3.130   3.145   1.950 -0.0187  0.2198  0.0490
 6240SOL    HW119936   3.152   3.057   1.920 -0.8064  0.1264 -0.2844
 6240SOL    HW219937   3.128   3.198   1.871 -0.6672  0.2867  0.1037
 6241SOL     OW19938   2.312   3.332   3.862 -0.2396  0.0268 -0.0008
 6241SOL    HW119939   2.264   3.278   3.924 -0.1849 -0.8880 -0.7292
 6241SOL    HW219940   2.399   3.292   3.858 -0.0323  0.4870 -0.1552
 6242SOL     OW19941   3.417   3.550   3.391  0.4294  0.3638 -0.0686
 6242SOL    HW119942   3.473   3.627   3.400 -0.9680  1.4227 -0.0911
 6242SOL    HW219943   3.454   3.487   3.453  1.9312  0.8340 -0.4506
 6243SOL     OW19944   2.629   3.013   2.634  0.0303  0.3153  0.1608
 6243SOL    HW119945   2.680   3.058   2.566 -0.0041  2.2857  1.3651
 6243SOL    HW219946   2.682   3.021   2.713 -1.0173  0.1917  0.8986
 6244SOL     OW19947   3.172   2.251   3.188  0.2371  0.1390 -0.7885
 6244SOL    HW119948   3.264   2.228   3.192  0.8137  2.2345 -0.5663
 6244SOL    HW219949   3.152   2.256   3.095 -0.5651 -3.3164 -0.9287
 6245SOL     OW19950   1.990   2.965   2.170  0.2685 -0.1689 -0.2855
 6245SOL    HW119951   2.085   2.957   2.176  0.1924 -0.8806  0.1288
 6245SOL    HW219952   1.974   2.992   2.080  0.8635 -0.0420 -0.3559
 6246SOL     OW19953   3.869   2.286   3.594  0.3514 -0.2824 -0.2310
 6246SOL    HW119954   3.945   2.279   3.536 -0.7846 -2.6624 -1.5994
 6246SOL    HW219955   3.891   2.356   3.655  2.2160  1.4238 -2.6768
 6247SOL     OW19956   1.636   2.881   1.954 -0.1048  0.0249 -0.2320
 6247SOL    HW119957   1.561   2.886   2.013  1.7660  0.1558  2.3102
 6247SOL    HW219958   1.663   2.973   1.943  1.2476 -0.1579  1.1484
 6248SOL     OW19959   1.629   3.234   4.069  0.3652 -0.0603 -0.1754
 6248SOL    HW119960   1.611   3.140   4.076 -0.8193  0.1328 -0.3019
 6248SOL    HW219961   1.558   3.276   4.118 -0.9737  0.8493 -2.6543
 6249SOL     OW19962   3.262   1.792   3.534 -0.3096  0.2630  0.2734
 6249SOL    HW119963   3.346   1.824   3.501  0.3754 -1.5544  0.1638
 6249SOL    HW219964   3.217   1.871   3.564  2.0831  1.1481  1.8221
 6250SOL     OW19965   2.058   2.070   1.523 -0.4998 -0.3883  0.5769
 6250SOL    HW119966   2.048   2.019   1.442 -0.2803  1.4030 -0.6254
 6250SOL    HW219967   2.016   2.154   1.504  2.2309  1.2326  1.1839
 6251SOL     OW19968   3.418   2.601   3.221  0.3973 -0.2832 -0.0577
 6251SOL    HW119969   3.414   2.691   3.254  1.2036 -0.4301  0.4728
 6251SOL    HW219970   3.443   2.609   3.130 -0.2358  0.0566 -0.2080
 6252SOL     OW19971   1.656   2.085   2.468 -0.9091 -0.4589  0.8605
 6252SOL    HW119972   1.651   2.111   2.560  0.4271 -0.0816  0.8405
 6252SOL    HW219973   1.715   2.009   2.467 -1.7294 -1.1155  0.4280
 6253SOL     OW19974   2.815   3.028   1.947 -0.2903  0.2629  0.0076
 6253SOL    HW119975   2.750   3.019   1.878 -0.2655  0.5580 -0.0521
 6253SOL    HW219976   2.864   3.107   1.925  2.3428 -1.7062 -1.8531
 6254SOL     OW19977   2.696   2.682   3.737  0.0458  0.6150  0.5649
 6254SOL    HW119978   2.659   2.613   3.792  1.9103 -1.2444 -0.3472
 6254SOL    HW219979   2.722   2.750   3.798 -0.9251  0.0875  1.6191
 6255SOL     OW19980   3.223   4.037   3.023  0.2642  0.9625  0.0447
 6255SOL    HW119981   3.266   4.122   3.014 -0.6200  1.2636 -1.9622
 6255SOL    HW219982   3.292   3.978   3.053  1.1037  2.2044  0.6173
 6256SOL     OW19983   2.656   2.399   3.828  0.2139 -0.8419  0.4991
 6256SOL    HW119984   2.726   2.346   3.789  1.3749 -0.4799  2.0173
 6256SOL    HW219985   2.635   2.354   3.910  1.1927  0.9795  1.8018
 6257SOL     OW19986   3.582   3.099   3.028 -0.1624  0.4035  0.1109
 6257SOL    HW119987   3.629   3.090   3.110  1.3723  0.5775 -0.7152
 6257SOL    HW219988   3.596   3.191   3.002 -0.6029  0.3473 -0.3474
 6258SOL     OW19989   2.147   3.174   4.026  0.0162  0.3216 -0.4287
 6258SOL    HW119990   2.055   3.147   4.017 -0.4411  1.5052  0.4694
 6258SOL    HW219991   2.192   3.094   4.055 -1.3509  0.4737  2.4515
 6259SOL     OW19992   3.429   3.133   3.449  0.0544  0.2886  0.0575
 6259SOL    HW119993   3.387   3.213   3.482  1.5937  0.6252  1.2936
 6259SOL    HW219994   3.523   3.149   3.460  0.5007 -0.8558 -1.6636
 6260SOL     OW19995   3.186   2.405   2.276 -0.5285 -0.4261 -0.2316
 6260SOL    HW119996   3.264   2.455   2.297 -0.4270 -1.2522  1.5428
 6260SOL    HW219997   3.114   2.456   2.312 -0.9223  0.6255 -2.3755
 6261SOL     OW19998   2.613   2.426   2.266  0.1455  0.1317 -0.2457
 6261SOL    HW119999   2.665   2.415   2.346 -0.5450 -1.0476  0.0744
 6261SOL    HW220000   2.529   2.458   2.297  0.5221  1.6257 -0.7200
 6262SOL     OW20001   3.458   2.323   3.881  0.5526  0.1839 -0.5253
 6262SOL    HW120002   3.513   2.382   3.828 -1.4260  1.0354 -1.7223
 6262SOL    HW220003   3.394   2.288   3.819 -2.3075  1.7226  1.3291
 6263SOL     OW20004   3.721   3.098   3.506  0.5274  0.1972  0.6094
 6263SOL    HW120005   3.752   3.054   3.426  1.5125  0.2755  0.9377
 6263SOL    HW220006   3.737   3.191   3.490 -2.0626  0.5755 -0.3116
 6264SOL     OW20007   2.473   3.260   1.885  0.1793 -0.0204  0.3169
 6264SOL    HW120008   2.389   3.305   1.887 -0.6645 -1.5299  0.2924
 6264SOL    HW220009   2.456   3.174   1.925  1.2872 -1.0047 -1.1960
 6265SOL     OW20010   2.123   3.841   2.406 -0.1723  0.2532  0.3402
 6265SOL    HW120011   2.172   3.765   2.374  3.1196  1.3853  2.2617
 6265SOL    HW220012   2.175   3.916   2.378 -1.5932  1.6549  1.3215
 6266SOL     OW20013   2.917   3.320   2.643 -0.4912 -0.7868 -0.2693
 6266SOL    HW120014   3.012   3.311   2.657  0.2509  3.1424 -1.5049
 6266SOL    HW220015   2.886   3.366   2.721 -0.2160  2.6368 -1.9826
 6267SOL     OW20016   2.239   2.753   1.773  0.2484 -0.3252 -0.3062
 6267SOL    HW120017   2.267   2.834   1.730 -0.9761  0.7020  0.7404
 6267SOL    HW220018   2.317   2.697   1.772  1.7481  1.6271  0.6872
 6268SOL     OW20019   3.600   3.576   2.269 -0.1232 -0.8077 -0.1723
 6268SOL    HW120020   3.654   3.642   2.224 -0.2853 -0.9737 -0.6137
 6268SOL    HW220021   3.645   3.562   2.352 -1.8990  2.4195  1.5384
 6269SOL     OW20022   1.870   3.132   4.075  0.1228 -0.3621  0.0490
 6269SOL    HW120023   1.899   3.171   4.157 -1.8522 -1.9862  1.6395
 6269SOL    HW220024   1.776   3.151   4.072  0.1978 -0.0828 -2.0319
 6270SOL     OW20025   1.975   3.085   2.588  0.1416 -0.0243 -0.2686
 6270SOL    HW120026   2.052   3.131   2.620 -0.1500 -0.3252  0.9276
 6270SOL    HW220027   1.977   3.001   2.634 -0.4221 -0.3910 -0.8990
 6271SOL     OW20028   2.247   3.955   3.356  0.4019  0.4277  0.6630
 6271SOL    HW120029   2.341   3.964   3.374  0.4299 -1.1178  1.4339
 6271SOL    HW220030   2.222   3.873   3.397 -1.3928  0.9915  0.8002
 6272SOL     OW20031   3.735   2.088   3.262 -0.4264 -0.0746 -0.2261
 6272SOL    HW120032   3.744   2.001   3.301  1.3106  0.7164  1.2974
 6272SOL    HW220033   3.716   2.145   3.337 -2.8906  0.7431 -1.3520
 6273SOL     OW20034   2.178   1.961   1.747 -0.1497 -0.2004  0.4446
 6273SOL    HW120035   2.154   2.011   1.669 -0.9798  0.0897  0.8652
 6273SOL    HW220036   2.186   2.027   1.816 -0.0499 -0.5218  0.7447
 6274SOL     OW20037   3.595   3.155   2.650 -0.2266 -0.0930 -0.2387
 6274SOL    HW120038   3.579   3.237   2.604 -0.6167 -1.1846 -2.1872
 6274SOL    HW220039   3.523   3.148   2.713  0.7144  1.7863  1.1212
 6275SOL     OW20040   2.795   2.370   3.415  0.5237 -0.0773 -0.2182
 6275SOL    HW120041   2.828   2.285   3.384  1.6168  0.5896 -0.9336
 6275SOL    HW220042   2.872   2.426   3.419 -0.4047  1.3615 -1.3250
 6276SOL     OW20043   2.902   3.477   2.903  0.1044  0.5322 -0.0963
 6276SOL    HW120044   2.886   3.391   2.941  0.0586 -0.3068 -1.9079
 6276SOL    HW220045   2.964   3.518   2.963  0.5741 -0.9766  0.5102
 6277SOL     OW20046   3.252   2.151   2.752  0.2536 -0.6316  0.2506
 6277SOL    HW120047   3.325   2.211   2.737 -0.6072  0.5845  0.7494
 6277SOL    HW220048   3.294   2.067   2.774  1.5174  0.2809  1.5107
 6278SOL     OW20049   3.008   1.782   3.192  0.2233  0.5308 -0.0001
 6278SOL    HW120050   2.931   1.781   3.249  0.3081 -0.8573  0.1107
 6278SOL    HW220051   3.022   1.875   3.173 -0.7997  0.8869  0.8880
 6279SOL     OW20052   2.298   3.039   1.891  0.0163  0.1833 -0.5167
 6279SOL    HW120053   2.303   3.007   1.981 -0.4827  0.2846 -0.4469
 6279SOL    HW220054   2.206   3.026   1.866 -0.3162  1.8954 -0.3397
 6280SOL     OW20055   2.590   3.515   3.132  0.3717 -0.3731 -0.0546
 6280SOL    HW120056   2.604   3.560   3.049  3.6045 -0.2221  0.4651
 6280SOL    HW220057   2.614   3.579   3.199  3.9147 -2.2541  0.7404
 6281SOL     OW20058   3.265   2.153   2.176 -0.1018 -0.3898  0.1283
 6281SOL    HW120059   3.219   2.227   2.215  0.3156 -0.5754  1.0179
 6281SOL    HW220060   3.205   2.118   2.111  0.3441  1.7392 -1.5515
 6282SOL     OW20061   2.982   2.494   2.446 -0.5256  0.1498 -0.0617
 6282SOL    HW120062   2.890   2.482   2.471 -0.1814 -0.3643  1.0360
 6282SOL    HW220063   3.026   2.417   2.482  0.3315  0.3867 -0.5947
 6283SOL     OW20064   3.477   2.314   2.702 -0.1780  0.1554 -0.1675
 6283SOL    HW120065   3.427   2.395   2.707 -2.0721 -0.7759 -2.3556
 6283SOL    HW220066   3.565   2.342   2.676 -1.3300  1.4612 -3.0914
 6284SOL     OW20067   1.883   3.146   2.348 -0.5189  0.7841  0.2236
 6284SOL    HW120068   1.930   3.131   2.430 -0.6364  0.5889  0.2564
 6284SOL    HW220069   1.911   3.075   2.290 -0.3727  0.9679  0.0637
 6285SOL     OW20070   2.496   3.369   2.531 -0.2501 -0.2377 -0.1036
 6285SOL    HW120071   2.435   3.340   2.463 -0.7607  0.2736  0.1296
 6285SOL    HW220072   2.497   3.465   2.523 -0.8723 -0.1263  1.0859
 6286SOL     OW20073   1.758   2.416   3.879  0.4637  0.5616  0.0882
 6286SOL    HW120074   1.837   2.390   3.831  0.4099  0.1476  0.2243
 6286SOL    HW220075   1.711   2.474   3.818  0.9047  0.8713  0.0331
 6287SOL     OW20076   2.164   2.158   4.983  0.3919  0.0224  0.4913
 6287SOL    HW120077   2.211   2.199   5.056  0.3726  2.5667 -0.8413
 6287SOL    HW220078   2.222   2.168   4.908 -0.2782 -1.1276 -0.2053
 6288SOL     OW20079   1.979   2.284   4.502  0.4922  0.3421  0.1427
 6288SOL    HW120080   1.958   2.244   4.417  2.4112  2.4700 -1.4630
 6288SOL    HW220081   1.897   2.326   4.529 -0.5270 -1.5044  0.0835
 6289SOL     OW20082   2.465   3.041   5.008 -0.2696 -0.2735 -0.0415
 6289SOL    HW120083   2.446   3.135   5.018  0.9670 -0.1956  1.9529
 6289SOL    HW220084   2.557   3.038   4.982  0.2347 -0.9530  1.7044
 6290SOL     OW20085   3.638   3.118   4.387  0.1734 -0.0021  0.0367
 6290SOL    HW120086   3.718   3.158   4.351  0.1196 -0.2210 -0.3260
 6290SOL    HW220087   3.572   3.186   4.379  0.7343  0.8468  2.0121
 6291SOL     OW20088   3.264   2.352   4.479 -0.0551  0.2257  0.3301
 6291SOL    HW120089   3.322   2.421   4.512  0.0355  0.8473 -1.0611
 6291SOL    HW220090   3.226   2.313   4.557  1.8294  0.1559  1.2677
 6292SOL     OW20091   3.662   2.309   4.135  0.7446 -0.0979 -0.1714
 6292SOL    HW120092   3.625   2.353   4.058  0.1715  0.1516  0.2395
 6292SOL    HW220093   3.698   2.227   4.100 -2.3007 -1.5320 -0.2930
 6293SOL     OW20094   2.343   2.702   4.788 -0.0696 -0.5698 -0.0648
 6293SOL    HW120095   2.377   2.723   4.701 -0.1770  0.2804  0.0903
 6293SOL    HW220096   2.310   2.613   4.780  1.8188 -1.2955 -0.3380
 6294SOL     OW20097   2.493   2.533   5.663 -0.1210  0.1129  0.0029
 6294SOL    HW120098   2.444   2.557   5.584 -3.3564 -0.1620  1.7588
 6294SOL    HW220099   2.511   2.617   5.705 -3.1536  0.1904  1.4714
 6295SOL     OW20100   2.894   3.020   4.827 -0.1245  0.2584 -0.2249
 6295SOL    HW120101   2.889   2.989   4.917 -0.5967 -0.1379 -0.3822
 6295SOL    HW220102   2.874   2.942   4.774 -0.4617  0.6305 -0.6503
 6296SOL     OW20103   2.272   3.188   5.839  0.0392  0.5909  0.2645
 6296SOL    HW120104   2.343   3.160   5.782  0.4985 -0.8067  1.4452
 6296SOL    HW220105   2.282   3.283   5.845  2.3450  0.3736  1.0081
 6297SOL     OW20106   1.962   3.256   4.305  0.0593  0.6656 -0.0272
 6297SOL    HW120107   1.943   3.339   4.349 -2.7203 -0.1453  0.4678
 6297SOL    HW220108   1.932   3.189   4.366  1.3653 -0.7115 -0.8329
 6298SOL     OW20109   3.467   3.304   4.433  0.4065 -0.4263  0.1405
 6298SOL    HW120110   3.386   3.276   4.473 -0.3626  0.3974 -0.7747
 6298SOL    HW220111   3.494   3.381   4.483  0.8714 -0.9528  0.7163
 6299SOL     OW20112   2.683   1.922   5.769  0.3386 -0.0581  0.3867
 6299SOL    HW120113   2.604   1.974   5.780  0.0923 -0.5650  1.0673
 6299SOL    HW220114   2.715   1.945   5.681 -1.9150 -1.6871 -0.9637
 6300SOL     OW20115   3.421   2.667   4.029  0.3177 -0.3899 -0.1803
 6300SOL    HW120116   3.379   2.753   4.033  0.6835 -0.2406  0.6040
 6300SOL    HW220117   3.514   2.686   4.016  0.3557 -0.6834 -0.3602
 6301SOL     OW20118   2.062   3.547   3.922 -0.0636 -0.1922 -0.7494
 6301SOL    HW120119   2.027   3.608   3.857 -0.4101 -1.6667 -1.9869
 6301SOL    HW220120   2.156   3.568   3.926 -0.0828  0.0622 -1.5507
 6302SOL     OW20121   2.341   3.491   5.809  0.0509 -0.1628  0.5540
 6302SOL    HW120122   2.434   3.495   5.834 -0.0757  3.4040  0.8825
 6302SOL    HW220123   2.343   3.492   5.713  0.3288 -0.3128  0.5545
 6303SOL     OW20124   2.170   2.718   4.249 -0.2646 -0.6041 -0.0350
 6303SOL    HW120125   2.263   2.707   4.233 -0.5379 -2.0786 -0.7832
 6303SOL    HW220126   2.144   2.792   4.194  0.1656 -1.1678 -1.0000
 6304SOL     OW20127   1.942   2.735   4.970  0.0754 -0.5121 -0.0775
 6304SOL    HW120128   1.978   2.797   5.034  0.1136  1.5558 -1.9703
 6304SOL    HW220129   2.018   2.692   4.932  0.3713  1.0672 -1.3736
 6305SOL     OW20130   2.378   4.108   5.034  0.3855 -0.6527  0.3080
 6305SOL    HW120131   2.425   4.042   5.086 -0.0379  0.1022  1.7027
 6305SOL    HW220132   2.408   4.192   5.070 -1.4001 -0.1392  0.6783
 6306SOL     OW20133   2.800   2.840   3.949  0.4668 -0.3173 -0.4424
 6306SOL    HW120134   2.771   2.929   3.931  0.7837  1.1653  4.7704
 6306SOL    HW220135   2.896   2.844   3.944  0.4511 -0.7620 -1.3696
 6307SOL     OW20136   3.686   2.226   5.398  0.5370 -0.0606 -0.1379
 6307SOL    HW120137   3.748   2.284   5.354  1.5399 -0.7391  0.3479
 6307SOL    HW220138   3.606   2.278   5.405  1.8693  1.9230  1.7724
 6308SOL     OW20139   2.115   2.568   4.624  0.5037  0.6493 -0.2123
 6308SOL    HW120140   2.073   2.485   4.604  0.6963  0.4930  0.0305
 6308SOL    HW220141   2.145   2.559   4.714  2.6540  0.0771 -0.9256
 6309SOL     OW20142   1.832   3.482   4.401  0.0454 -0.0714 -0.4425
 6309SOL    HW120143   1.885   3.542   4.455  0.5685 -0.9380  0.0239
 6309SOL    HW220144   1.768   3.539   4.359  1.2358  0.9933 -0.8947
 6310SOL     OW20145   3.545   2.595   4.279 -0.6461  0.4232 -0.4018
 6310SOL    HW120146   3.522   2.666   4.220 -0.5513 -0.9658 -2.1959
 6310SOL    HW220147   3.578   2.525   4.222 -0.5308 -0.9977  1.2907
 6311SOL     OW20148   3.082   3.426   3.808  0.1066 -0.3299 -0.5479
 6311SOL    HW120149   3.153   3.472   3.762  0.1675 -1.8130 -2.0077
 6311SOL    HW220150   3.019   3.495   3.829  1.0854  0.7216 -0.9254
 6312SOL     OW20151   2.282   2.592   5.475  0.2536 -0.3072  0.1702
 6312SOL    HW120152   2.293   2.590   5.380 -2.9422 -0.0538 -0.2939
 6312SOL    HW220153   2.254   2.682   5.495  0.6759 -0.4112  1.3394
 6313SOL     OW20154   2.440   2.644   4.204 -0.2533 -0.4634  0.9075
 6313SOL    HW120155   2.450   2.598   4.288  1.2904 -1.5763  0.1590
 6313SOL    HW220156   2.530   2.653   4.172 -0.8470 -0.2553 -0.7445
 6314SOL     OW20157   3.287   2.834   5.376 -0.6792  0.6700 -0.0238
 6314SOL    HW120158   3.311   2.744   5.396 -3.4795  0.1093  1.3831
 6314SOL    HW220159   3.337   2.856   5.298  1.3974 -1.4716  0.6076
 6315SOL     OW20160   2.957   1.788   4.920 -0.4183  0.4702 -0.4893
 6315SOL    HW120161   2.980   1.781   5.012 -1.3548 -1.3209 -0.3468
 6315SOL    HW220162   3.008   1.719   4.877 -2.2111 -0.7143 -0.8103
 6316SOL     OW20163   1.879   2.783   5.421  0.4326  0.1331 -0.5601
 6316SOL    HW120164   1.855   2.815   5.334  0.1054  2.1009  0.2146
 6316SOL    HW220165   1.969   2.811   5.433  0.2499  0.4924  0.0084
 6317SOL     OW20166   3.418   3.310   3.997 -0.0527 -0.1672  0.1195
 6317SOL    HW120167   3.416   3.404   3.977  0.8873 -0.6188 -2.5245
 6317SOL    HW220168   3.512   3.289   4.000 -0.2646 -1.1449  0.0454
 6318SOL     OW20169   2.811   3.621   5.392 -0.4107 -0.1672 -0.0920
 6318SOL    HW120170   2.893   3.617   5.441 -0.7661  2.1024  0.8171
 6318SOL    HW220171   2.826   3.566   5.315  1.1938 -1.4813  1.0872
 6319SOL     OW20172   2.176   1.906   5.909 -0.0438  0.5085  0.1565
 6319SOL    HW120173   2.131   1.941   5.986 -0.4869 -1.2226  0.7536
 6319SOL    HW220174   2.111   1.910   5.839 -0.8283 -0.9802  0.7468
 6320SOL     OW20175   3.268   3.244   4.624  0.6536  0.3811 -0.2490
 6320SOL    HW120176   3.221   3.170   4.661  0.0338  1.0094  0.2421
 6320SOL    HW220177   3.312   3.285   4.699  0.7228  0.7012 -0.4586
 6321SOL     OW20178   3.173   3.928   4.065  0.2613 -0.0386 -0.2239
 6321SOL    HW120179   3.263   3.897   4.071  0.0333 -0.5823  0.7642
 6321SOL    HW220180   3.134   3.901   4.149 -0.2699  1.9583  0.2177
 6322SOL     OW20181   2.747   2.633   4.375  0.1957 -0.3845  0.3764
 6322SOL    HW120182   2.749   2.637   4.279  1.4344  0.4651  0.4127
 6322SOL    HW220183   2.757   2.725   4.402  0.4269 -0.6872  1.3305
 6323SOL     OW20184   3.060   2.635   5.240 -0.0498  0.3582 -0.1976
 6323SOL    HW120185   3.049   2.568   5.307  0.2499  0.7302  0.2282
 6323SOL    HW220186   3.154   2.641   5.227 -0.1534 -0.6682 -1.6367
 6324SOL     OW20187   3.307   3.600   3.679  0.1256  0.2046  0.8705
 6324SOL    HW120188   3.400   3.579   3.684  0.4108  0.9530 -0.5694
 6324SOL    HW220189   3.305   3.687   3.638 -1.2255 -0.3119 -0.2277
 6325SOL     OW20190   2.364   2.573   5.155 -0.0142  0.0997  0.4778
 6325SOL    HW120191   2.457   2.572   5.136 -0.4474  1.0564 -2.0943
 6325SOL    HW220192   2.343   2.666   5.169 -1.1603  0.4537 -2.8107
 6326SOL     OW20193   3.816   2.528   5.458 -0.1958  0.4264 -0.4041
 6326SOL    HW120194   3.797   2.487   5.373 -0.6896  0.8124 -0.4892
 6326SOL    HW220195   3.870   2.464   5.505 -1.5422 -0.6361 -0.2509
 6327SOL     OW20196   3.015   2.791   5.492 -0.5037 -0.6491 -0.1253
 6327SOL    HW120197   2.985   2.880   5.473  0.4194 -0.5821 -1.4534
 6327SOL    HW220198   3.089   2.777   5.432  2.1865 -0.7747  2.9327
 6328SOL     OW20199   2.955   2.453   5.469 -0.2156  0.7436 -0.3324
 6328SOL    HW120200   2.876   2.429   5.518  0.5867 -0.2011  0.5443
 6328SOL    HW220201   2.999   2.518   5.525 -0.0578  0.8063 -0.5274
 6329SOL     OW20202   3.301   2.423   4.079  0.0138  0.8011 -0.1694
 6329SOL    HW120203   3.345   2.377   4.008  0.8623  0.3037  0.6517
 6329SOL    HW220204   3.328   2.515   4.069  0.5471  0.6430 -0.1786
 6330SOL     OW20205   2.198   2.495   4.871  0.4117 -0.2370  0.0191
 6330SOL    HW120206   2.124   2.489   4.932 -0.1493  0.3528 -0.5899
 6330SOL    HW220207   2.255   2.423   4.896 -0.5973 -1.0024  0.2026
 6331SOL     OW20208   2.164   3.694   5.418 -0.0947 -0.4690  0.3084
 6331SOL    HW120209   2.208   3.753   5.357 -0.4813 -0.2592  0.2287
 6331SOL    HW220210   2.072   3.701   5.395 -0.2311 -0.4675  0.8519
 6332SOL     OW20211   2.879   2.237   3.780 -0.2345  0.0388  0.4206
 6332SOL    HW120212   2.914   2.149   3.791 -0.3627  0.1527  1.9122
 6332SOL    HW220213   2.956   2.294   3.775 -0.1713  0.0739  1.6831
 6333SOL     OW20214   3.931   2.218   5.635  0.4681 -0.1167 -0.1945
 6333SOL    HW120215   3.848   2.195   5.676  0.4826 -0.3908 -0.3173
 6333SOL    HW220216   3.965   2.290   5.688  0.0966  0.0773 -0.2156
 6334SOL     OW20217   2.953   2.912   4.331  0.4511  0.2795  0.1041
 6334SOL    HW120218   2.972   2.833   4.380  0.3008  0.7870  1.0144
 6334SOL    HW220219   3.036   2.938   4.293  0.5557 -0.1624  0.0289
 6335SOL     OW20220   2.570   2.034   5.123  0.6871 -0.2670  0.4603
 6335SOL    HW120221   2.587   1.943   5.147  2.0173  0.0975  1.0108
 6335SOL    HW220222   2.499   2.029   5.059  0.9783 -1.7172  0.2076
 6336SOL     OW20223   2.252   3.587   4.144  0.2190  0.2887  0.1101
 6336SOL    HW120224   2.161   3.580   4.116 -0.4412  0.8578  1.9464
 6336SOL    HW220225   2.284   3.497   4.147  0.2181  0.1657 -1.9386
 6337SOL     OW20226   2.521   3.241   4.714 -0.1778 -0.2631  0.4419
 6337SOL    HW120227   2.565   3.237   4.630 -1.2830 -2.4224 -0.1062
 6337SOL    HW220228   2.592   3.243   4.779  0.8410 -3.2623 -0.4077
 6338SOL     OW20229   3.411   2.657   4.946 -0.4414 -0.4130 -0.5736
 6338SOL    HW120230   3.396   2.737   4.998 -2.0140  0.0636 -1.7042
 6338SOL    HW220231   3.452   2.689   4.866 -1.4597 -0.6677 -1.2106
 6339SOL     OW20232   2.740   3.360   5.484  0.1318 -0.0194  0.2131
 6339SOL    HW120233   2.742   3.456   5.484  0.5973 -0.0280  0.4786
 6339SOL    HW220234   2.807   3.335   5.548 -0.4483 -0.5104  0.6452
 6340SOL     OW20235   2.282   2.770   3.840  0.6070 -0.2103 -0.5283
 6340SOL    HW120236   2.273   2.710   3.915 -1.4162 -0.2318 -0.7359
 6340SOL    HW220237   2.315   2.714   3.770 -0.6859 -0.9995 -0.5503
 6341SOL     OW20238   3.578   2.263   4.393  0.0821 -0.1283 -0.2609
 6341SOL    HW120239   3.506   2.325   4.399 -1.4331 -1.7524 -0.8362
 6341SOL    HW220240   3.616   2.278   4.306 -1.0836 -0.8114 -0.9104
 6342SOL     OW20241   2.459   2.938   5.774  0.6419 -0.4389  0.2096
 6342SOL    HW120242   2.528   2.887   5.817 -0.4555 -0.2700  2.2923
 6342SOL    HW220243   2.506   3.008   5.729  1.8764 -0.6217  1.1654
 6343SOL     OW20244   2.919   3.866   4.266  0.2096  0.4605 -0.1592
 6343SOL    HW120245   2.878   3.847   4.350 -0.0844  0.6370 -0.2636
 6343SOL    HW220246   2.985   3.798   4.256  1.1262  1.1599  0.8126
 6344SOL     OW20247   2.351   1.741   5.310  0.0719  0.2313  0.3273
 6344SOL    HW120248   2.409   1.788   5.250 -1.8676  0.4026 -1.5447
 6344SOL    HW220249   2.341   1.654   5.270 -0.2135 -0.1188  1.1353
 6345SOL     OW20250   3.302   3.834   3.550 -0.1633 -0.2005 -0.2811
 6345SOL    HW120251   3.343   3.870   3.471 -0.3872 -2.5214 -1.5353
 6345SOL    HW220252   3.347   3.877   3.622  0.7908  1.2058 -1.6508
 6346SOL     OW20253   2.530   3.604   4.075 -0.2693 -0.2554 -0.5420
 6346SOL    HW120254   2.579   3.687   4.074 -1.4268  0.4615 -0.3943
 6346SOL    HW220255   2.444   3.628   4.112 -0.3610 -1.6776  0.2511
 6347SOL     OW20256   3.429   1.848   4.377  0.2831 -0.8714 -0.1073
 6347SOL    HW120257   3.381   1.913   4.326  1.7849  0.3745 -0.0085
 6347SOL    HW220258   3.521   1.866   4.358  0.7888 -1.9355  1.1810
 6348SOL     OW20259   2.251   3.258   4.727 -0.2358 -0.4403  0.3466
 6348SOL    HW120260   2.235   3.166   4.709  2.9978 -0.7168 -2.1316
 6348SOL    HW220261   2.346   3.264   4.741 -0.3097  2.4961  0.2672
 6349SOL     OW20262   3.029   3.406   4.617 -0.0617  0.7177 -0.3502
 6349SOL    HW120263   3.061   3.495   4.634  0.7881  0.2002  0.9217
 6349SOL    HW220264   3.107   3.352   4.621 -0.5747 -0.1018 -1.1156
 6350SOL     OW20265   2.646   1.895   3.842 -0.2312 -0.5713  0.0935
 6350SOL    HW120266   2.733   1.915   3.874 -1.6429  1.5938  2.9934
 6350SOL    HW220267   2.650   1.802   3.817  2.6314 -0.7451  0.9071
 6351SOL     OW20268   3.664   2.083   5.626 -0.3252  0.2244  0.5841
 6351SOL    HW120269   3.581   2.122   5.653  0.4865  2.6708 -0.2551
 6351SOL    HW220270   3.687   2.126   5.544  1.6039 -0.6541  0.5861
 6352SOL     OW20271   2.748   1.637   4.156 -0.1480 -0.0268  0.3485
 6352SOL    HW120272   2.683   1.706   4.161  1.0080  1.0954  0.2874
 6352SOL    HW220273   2.725   1.578   4.228 -0.1315  1.3417  1.5226
 6353SOL     OW20274   2.861   1.477   5.063 -0.2619  0.5953  0.2000
 6353SOL    HW120275   2.907   1.559   5.080  0.7008 -0.0469  0.8511
 6353SOL    HW220276   2.867   1.464   4.969  0.0389  1.0163  0.1605
 6354SOL     OW20277   2.667   2.947   4.566  0.4600  0.4284  0.6129
 6354SOL    HW120278   2.673   2.972   4.474 -2.1949 -0.8195  0.0088
 6354SOL    HW220279   2.630   3.024   4.610 -3.6565 -0.6498 -0.4940
 6355SOL     OW20280   2.777   2.607   5.329 -0.1510 -0.0597 -0.0027
 6355SOL    HW120281   2.763   2.649   5.244 -0.5767  0.4964  0.3323
 6355SOL    HW220282   2.872   2.600   5.336 -0.1297 -1.5676 -1.2015
 6356SOL     OW20283   2.687   2.973   4.269  0.7269 -0.8403  0.2585
 6356SOL    HW120284   2.778   2.948   4.284  1.0188 -0.3221 -0.5213
 6356SOL    HW220285   2.681   2.983   4.174  0.7155  2.1970  0.4902
 6357SOL     OW20286   2.740   1.993   4.569  0.4018  0.0148  0.4609
 6357SOL    HW120287   2.742   1.908   4.524  0.3073  1.2879 -2.1518
 6357SOL    HW220288   2.818   1.992   4.624  1.0476 -1.3369 -0.4177
 6358SOL     OW20289   2.954   1.695   4.540  0.4209  0.3245  0.0211
 6358SOL    HW120290   3.003   1.750   4.478  0.1492  1.1669  0.5393
 6358SOL    HW220291   2.971   1.734   4.625  0.0323 -0.2669  0.3769
 6359SOL     OW20292   3.136   3.536   3.412  0.3096 -0.2786  0.2054
 6359SOL    HW120293   3.231   3.529   3.414  0.4579  0.7624 -1.4499
 6359SOL    HW220294   3.118   3.625   3.381 -1.2179 -0.3007  0.8956
 6360SOL     OW20295   2.480   1.835   4.228 -0.0664  0.1328  0.1504
 6360SOL    HW120296   2.439   1.920   4.209  0.1893  0.2799  0.2577
 6360SOL    HW220297   2.475   1.827   4.323  0.3430  0.2471  0.1839
 6361SOL     OW20298   3.037   1.413   4.366  0.1791 -0.2337  0.6219
 6361SOL    HW120299   2.958   1.466   4.359 -0.2948 -0.9825  0.0974
 6361SOL    HW220300   3.107   1.470   4.334 -0.2421  0.2414  0.5307
 6362SOL     OW20301   2.965   2.154   5.679  0.6054  0.0231 -0.3266
 6362SOL    HW120302   2.906   2.217   5.721  0.0507 -1.7296  1.6921
 6362SOL    HW220303   2.913   2.119   5.607 -0.1666 -0.1532  0.2878
 6363SOL     OW20304   2.819   3.575   4.886  0.1215 -0.3741  0.4235
 6363SOL    HW120305   2.887   3.527   4.839  0.4738  1.1038 -0.6513
 6363SOL    HW220306   2.829   3.665   4.857 -2.8454 -0.2073 -0.4861
 6364SOL     OW20307   2.027   2.790   4.476  0.0952 -0.0765 -0.1247
 6364SOL    HW120308   2.048   2.715   4.532  0.3933  0.1583  0.0821
 6364SOL    HW220309   2.078   2.775   4.396  1.1961  0.5764  0.4432
 6365SOL     OW20310   2.674   3.619   4.394 -0.3221  0.4581 -0.4946
 6365SOL    HW120311   2.752   3.640   4.445 -0.3451  0.6338 -0.5296
 6365SOL    HW220312   2.629   3.553   4.446 -0.6080  1.0092 -0.0254
 6366SOL     OW20313   2.048   1.986   5.650  0.3201 -0.4881 -0.3380
 6366SOL    HW120314   2.079   2.070   5.684 -1.1154 -0.6208  1.4373
 6366SOL    HW220315   2.119   1.956   5.592  1.3598  1.3761 -0.1165
 6367SOL     OW20316   2.800   2.143   5.068 -0.8206 -0.3109  0.0951
 6367SOL    HW120317   2.821   2.216   5.126 -1.4826 -0.5129  0.6057
 6367SOL    HW220318   2.714   2.113   5.098 -0.3387 -1.6241  0.2385
 6368SOL     OW20319   2.838   2.370   4.254 -0.3111  0.1730 -0.0275
 6368SOL    HW120320   2.787   2.377   4.174  0.3165  1.8949 -0.3206
 6368SOL    HW220321   2.885   2.453   4.261 -0.2492  0.0329  2.0639
 6369SOL     OW20322   3.128   1.627   4.795  0.3532  0.4943 -0.3134
 6369SOL    HW120323   3.150   1.660   4.708  2.6154  1.3911  0.5036
 6369SOL    HW220324   3.204   1.574   4.820 -0.6595 -0.5063  0.7715
 6370SOL     OW20325   3.278   2.880   4.339 -0.0017 -0.0038  0.2575
 6370SOL    HW120326   3.308   2.950   4.396  0.8907 -0.4377  0.3424
 6370SOL    HW220327   3.354   2.822   4.329 -0.3502 -0.3189 -0.7790
 6371SOL     OW20328   2.948   2.498   5.006 -0.1005 -0.1010 -0.1647
 6371SOL    HW120329   2.897   2.553   4.948  1.5597 -0.6744 -2.2955
 6371SOL    HW220330   2.963   2.551   5.084 -2.9106  0.4649  0.0945
 6372SOL     OW20331   3.421   2.601   4.521 -0.1810  0.6973 -0.1854
 6372SOL    HW120332   3.474   2.651   4.583 -0.8908  1.3085 -0.0598
 6372SOL    HW220333   3.477   2.593   4.443  0.2916  0.8839  0.1299
 6373SOL     OW20334   2.018   3.601   3.616 -0.7902 -0.0474 -0.1489
 6373SOL    HW120335   2.083   3.533   3.631 -0.1475 -0.2949 -3.3273
 6373SOL    HW220336   1.934   3.553   3.611 -0.5032 -0.4615 -1.1722
 6374SOL     OW20337   3.208   2.983   4.077 -0.5748 -0.4652  0.5710
 6374SOL    HW120338   3.254   2.949   4.154  1.9092 -0.6850 -0.8936
 6374SOL    HW220339   3.190   3.074   4.099  0.2039 -0.4850  1.3818
 6375SOL     OW20340   3.661   2.288   3.431  0.5094  0.1906  1.0436
 6375SOL    HW120341   3.743   2.306   3.477  0.1506  1.0413  1.3704
 6375SOL    HW220342   3.612   2.370   3.435 -0.7040 -0.5234  1.5483
 6376SOL     OW20343   2.968   1.853   4.237 -0.0875 -0.6187 -0.1896
 6376SOL    HW120344   2.929   1.826   4.154 -2.4260  1.1086  0.2148
 6376SOL    HW220345   2.960   1.949   4.236  1.7156 -0.4041  1.1879
 6377SOL     OW20346   3.378   2.951   5.116 -0.4998  0.3114 -0.5809
 6377SOL    HW120347   3.443   2.932   5.049 -1.3531  0.1889 -1.3890
 6377SOL    HW220348   3.340   3.034   5.090 -1.5866 -0.2556 -0.8495
 6378SOL     OW20349   2.385   3.299   5.035  0.0925  0.1266 -0.4977
 6378SOL    HW120350   2.470   3.340   5.020  0.5239 -0.3356  0.5610
 6378SOL    HW220351   2.324   3.372   5.042  0.5264  0.4989 -0.5828
 6379SOL     OW20352   3.605   3.602   5.449  0.5123 -0.0322  0.1365
 6379SOL    HW120353   3.537   3.623   5.386  0.7998  0.4051 -0.0293
 6379SOL    HW220354   3.674   3.665   5.432  0.5186  0.2062  1.0105
 6380SOL     OW20355   3.163   3.064   4.814 -0.0281 -0.1255 -0.2725
 6380SOL    HW120356   3.070   3.072   4.833  0.3033 -0.6310  1.7252
 6380SOL    HW220357   3.179   2.970   4.809  0.6673 -0.0998  1.0985
 6381SOL     OW20358   3.520   2.797   4.696 -0.1130 -0.4351 -0.0329
 6381SOL    HW120359   3.605   2.832   4.721  0.6633 -0.5475 -2.3176
 6381SOL    HW220360   3.473   2.872   4.659 -1.4031 -0.1654  2.0069
 6382SOL     OW20361   2.982   1.990   5.216 -0.7289 -0.1861  0.2133
 6382SOL    HW120362   2.977   1.897   5.192 -0.6646 -0.2858  0.5828
 6382SOL    HW220363   2.908   2.030   5.169 -0.7465 -0.4194  0.0383
 6383SOL     OW20364   3.196   3.080   5.489 -0.5272  0.1071 -0.1810
 6383SOL    HW120365   3.186   3.027   5.568 -2.6301  0.7283  0.0229
 6383SOL    HW220366   3.230   3.019   5.424  0.3342 -0.6469  0.9328
 6384SOL     OW20367   2.903   3.322   4.357  0.2685  0.5970  0.4450
 6384SOL    HW120368   2.966   3.262   4.317  1.3624  0.1705  2.6678
 6384SOL    HW220369   2.955   3.374   4.418 -1.0517  2.3369  0.1495
 6385SOL     OW20370   2.311   2.306   5.175  0.1697 -0.1658 -0.1232
 6385SOL    HW120371   2.384   2.285   5.117  0.9465 -0.0331  0.7723
 6385SOL    HW220372   2.321   2.400   5.193 -0.0353 -0.2104  0.2426
 6386SOL     OW20373   3.475   2.478   5.430 -0.3874  0.0107 -0.1765
 6386SOL    HW120374   3.413   2.419   5.472  0.0849 -0.7851 -0.5868
 6386SOL    HW220375   3.514   2.527   5.502 -0.7035 -0.2492  0.1737
 6387SOL     OW20376   2.073   2.836   5.182  0.5322 -0.5883  0.0175
 6387SOL    HW120377   2.056   2.885   5.263 -2.1423  2.1307 -1.9489
 6387SOL    HW220378   2.168   2.824   5.181  0.8399  0.7689  2.7405
 6388SOL     OW20379   2.709   2.466   4.600  0.3956  0.0458 -0.1345
 6388SOL    HW120380   2.773   2.395   4.587 -0.9808 -1.3179  0.2430
 6388SOL    HW220381   2.689   2.497   4.512 -0.8456 -1.7944 -0.5700
 6389SOL     OW20382   2.458   2.312   4.636  0.0195 -0.4970  0.0241
 6389SOL    HW120383   2.409   2.333   4.557 -0.8023  0.3303  0.7283
 6389SOL    HW220384   2.536   2.368   4.632 -0.0497 -0.4129 -0.1660
 6390SOL     OW20385   3.175   3.237   4.150  0.5063 -0.0812  0.1561
 6390SOL    HW120386   3.224   3.276   4.077 -1.6294  1.5921 -0.4999
 6390SOL    HW220387   3.191   3.295   4.224  0.7542 -0.4169  0.3682
 6391SOL     OW20388   2.907   3.233   5.265  0.2210 -0.7372 -0.4870
 6391SOL    HW120389   2.982   3.239   5.326 -1.7007  1.5249  1.8800
 6391SOL    HW220390   2.870   3.321   5.264 -2.1285 -1.6568 -1.9603
 6392SOL     OW20391   3.925   2.775   4.099  0.5680  0.1284 -0.3694
 6392SOL    HW120392   3.960   2.724   4.025  0.9547  1.5019 -1.1663
 6392SOL    HW220393   3.928   2.866   4.069 -0.4953  0.6002  0.8585
 6393SOL     OW20394   2.231   2.945   4.832  0.1165 -0.0386  0.2126
 6393SOL    HW120395   2.257   2.854   4.839 -0.7186 -0.2183  1.2232
 6393SOL    HW220396   2.305   2.994   4.868  0.1625 -0.3757  0.5822
 6394SOL     OW20397   2.342   2.830   5.201 -0.1200 -0.0713  0.1862
 6394SOL    HW120398   2.351   2.876   5.285 -1.2151 -0.2808  0.4340
 6394SOL    HW220399   2.384   2.888   5.138  0.7638  0.0668  0.8859
 6395SOL     OW20400   3.742   2.941   5.641 -0.0730  0.2195 -0.2526
 6395SOL    HW120401   3.650   2.929   5.665 -0.4550  0.7257 -1.4197
 6395SOL    HW220402   3.751   2.899   5.556  0.5841  0.8439 -0.5030
 6396SOL     OW20403   3.125   2.296   5.219  0.2096 -0.0037 -0.5619
 6396SOL    HW120404   3.187   2.238   5.175  1.1704  0.3457  0.2885
 6396SOL    HW220405   3.059   2.316   5.152 -0.5007 -2.5278 -0.7289
 6397SOL     OW20406   2.432   1.696   5.568  0.0743 -0.1962 -0.1423
 6397SOL    HW120407   2.377   1.732   5.499 -1.7867 -2.5842  0.0055
 6397SOL    HW220408   2.380   1.706   5.648 -0.1033 -2.2497  0.0451
 6398SOL     OW20409   2.213   3.049   4.472 -0.1790 -0.1049 -0.0111
 6398SOL    HW120410   2.269   3.016   4.402 -2.4096 -1.1245 -1.3995
 6398SOL    HW220411   2.156   2.976   4.495 -0.8248  0.8208  1.5351
 6399SOL     OW20412   3.023   2.714   4.496 -0.1864  0.3345  0.9534
 6399SOL    HW120413   3.093   2.773   4.523 -0.2139  0.5269  0.6076
 6399SOL    HW220414   3.009   2.656   4.572 -2.1181  2.5697  2.4452
 6400SOL     OW20415   3.072   2.450   3.779  0.9047  0.5300 -0.4156
 6400SOL    HW120416   3.032   2.463   3.865 -0.5649 -2.8800 -0.4387
 6400SOL    HW220417   3.047   2.529   3.730 -0.3491  1.4272  1.5216
 6401SOL     OW20418   1.944   2.013   5.028  0.4462  0.4982  0.2028
 6401SOL    HW120419   2.022   2.065   5.009  0.3422 -0.2704 -2.8302
 6401SOL    HW220420   1.873   2.077   5.038  0.6910  1.0523 -1.4439
 6402SOL     OW20421   1.805   3.015   5.221 -0.2801 -0.0755  0.1622
 6402SOL    HW120422   1.830   3.027   5.130 -0.3150 -1.1000  0.0075
 6402SOL    HW220423   1.864   3.072   5.270 -1.5119  1.9700 -0.6187
 6403SOL     OW20424   2.431   2.257   4.909 -0.1275 -0.1020  0.5269
 6403SOL    HW120425   2.428   2.271   4.814 -0.6731 -0.6703  0.4517
 6403SOL    HW220426   2.517   2.289   4.935 -0.2629  0.7810 -0.0381
 6404SOL     OW20427   3.447   3.440   5.607 -0.7491  0.0343 -0.3737
 6404SOL    HW120428   3.444   3.486   5.690 -0.4399 -0.5589 -0.0232
 6404SOL    HW220429   3.498   3.496   5.549  0.9363 -0.5433  0.4913
 6405SOL     OW20430   2.234   2.187   4.436 -0.1853 -0.3031  0.6002
 6405SOL    HW120431   2.270   2.109   4.479 -1.1601 -1.0340  0.1232
 6405SOL    HW220432   2.153   2.206   4.483  0.1480  0.5563  0.8445
 6406SOL     OW20433   3.584   2.532   3.774  0.0667 -0.1916 -0.0048
 6406SOL    HW120434   3.608   2.596   3.842  1.8727  0.2903 -1.0310
 6406SOL    HW220435   3.667   2.489   3.751 -0.9400 -2.2562 -0.0373
 6407SOL     OW20436   2.854   2.224   4.495 -0.0959  0.1953  0.3958
 6407SOL    HW120437   2.799   2.147   4.507  0.6970 -0.1743  1.8464
 6407SOL    HW220438   2.833   2.254   4.406 -3.4982  0.7831  1.2460
 6408SOL     OW20439   2.678   3.911   5.602 -0.2493  0.4390  0.0116
 6408SOL    HW120440   2.761   3.892   5.559 -0.6228  1.8235 -1.3944
 6408SOL    HW220441   2.688   3.999   5.637 -0.7840  0.2264  0.7371
 6409SOL     OW20442   3.529   3.438   5.106 -0.5152 -0.5275 -0.5353
 6409SOL    HW120443   3.624   3.439   5.111 -0.5448  0.5498  0.2558
 6409SOL    HW220444   3.502   3.368   5.166 -0.2698  0.7838  1.1997
 6410SOL     OW20445   2.142   2.607   5.710 -0.4366  0.2652 -0.2728
 6410SOL    HW120446   2.046   2.605   5.699 -0.2744  0.3281 -1.9931
 6410SOL    HW220447   2.175   2.619   5.621  1.1617  0.8976  0.3863
 6411SOL     OW20448   2.966   2.114   4.182 -0.4121  0.0598 -0.0304
 6411SOL    HW120449   2.923   2.180   4.237 -0.4819 -0.2850  0.3327
 6411SOL    HW220450   3.058   2.142   4.179  0.0178 -0.9522  1.8688
 6412SOL     OW20451   3.271   2.651   3.539 -0.4124  0.5709 -0.5772
 6412SOL    HW120452   3.340   2.708   3.506 -1.6736  2.5931  0.0789
 6412SOL    HW220453   3.297   2.563   3.512  2.0995  1.3186 -0.8293
 6413SOL     OW20454   2.625   3.212   4.439 -0.2558 -0.1545  0.1426
 6413SOL    HW120455   2.644   3.206   4.345 -0.7651 -1.6709  0.1008
 6413SOL    HW220456   2.679   3.284   4.470  0.4855 -0.1073 -1.1780
 6414SOL     OW20457   2.016   2.440   5.087 -0.0583  0.8265 -0.0685
 6414SOL    HW120458   2.079   2.463   5.156 -2.1606  1.4932  1.7133
 6414SOL    HW220459   1.932   2.437   5.131 -1.3876  0.3967 -2.4825
 6415SOL     OW20460   1.881   2.077   5.464 -0.1230  0.0983  0.2892
 6415SOL    HW120461   1.939   2.038   5.531 -1.5086  1.5352  2.4606
 6415SOL    HW220462   1.886   2.171   5.480 -0.9337  0.4465 -1.3291
 6416SOL     OW20463   3.495   2.277   5.730 -0.4834  0.0389 -0.1707
 6416SOL    HW120464   3.444   2.279   5.811  1.7611 -1.5791  1.4205
 6416SOL    HW220465   3.493   2.367   5.698 -0.2555  1.0988  2.5187
 6417SOL     OW20466   3.230   2.328   5.494  0.0742  0.4724  0.1267
 6417SOL    HW120467   3.142   2.324   5.531 -0.0937 -3.2925 -0.2936
 6417SOL    HW220468   3.217   2.328   5.400  0.4226 -1.1752  0.0386
 6418SOL     OW20469   1.518   2.968   4.161  0.0493 -0.1319  0.3727
 6418SOL    HW120470   1.480   2.884   4.186  0.4225 -0.4128  0.0040
 6418SOL    HW220471   1.443   3.022   4.137 -0.0657 -1.1063 -1.6334
 6419SOL     OW20472   1.831   3.108   4.972  0.5631 -0.0985 -0.5844
 6419SOL    HW120473   1.761   3.166   4.942 -0.0518 -1.1174 -1.1882
 6419SOL    HW220474   1.881   3.088   4.893  0.6236 -0.5792 -0.4245
 6420SOL     OW20475   2.802   3.271   4.714  0.2564 -0.3306  0.4806
 6420SOL    HW120476   2.827   3.179   4.719  0.0115 -0.4354 -0.1082
 6420SOL    HW220477   2.881   3.315   4.681  0.3526 -0.3380  0.6995
 6421SOL     OW20478   2.718   2.670   4.990  0.0796  0.2416  0.0514
 6421SOL    HW120479   2.728   2.755   5.033 -1.8945  0.5533  0.0260
 6421SOL    HW220480   2.714   2.691   4.896 -1.8862  0.3725  0.1092
 6422SOL     OW20481   2.306   1.877   4.850  0.5057 -0.1651  0.0483
 6422SOL    HW120482   2.276   1.918   4.769  2.1440  1.4115  0.1847
 6422SOL    HW220483   2.246   1.909   4.917  0.0221 -0.3133 -0.3128
 6423SOL     OW20484   2.161   2.341   5.522  0.2688  0.7611 -0.4848
 6423SOL    HW120485   2.179   2.428   5.487  0.6417  0.6836 -0.4976
 6423SOL    HW220486   2.172   2.283   5.447 -0.7166  0.7784 -0.6443
 6424SOL     OW20487   3.550   3.187   5.631  0.1118  0.2129  0.3124
 6424SOL    HW120488   3.500   3.138   5.565  0.4671  1.6707 -1.0847
 6424SOL    HW220489   3.511   3.274   5.631  1.4611  0.8362  0.5337
 6425SOL     OW20490   2.716   2.611   4.101 -0.2443  1.0322 -0.2270
 6425SOL    HW120491   2.799   2.565   4.091 -0.7887 -0.0347  0.0542
 6425SOL    HW220492   2.727   2.691   4.049  0.9440  0.9018 -0.2049
 6426SOL     OW20493   3.611   2.183   5.012  0.1322  0.7806 -0.1487
 6426SOL    HW120494   3.591   2.273   5.039 -0.5157  0.8912 -0.9632
 6426SOL    HW220495   3.663   2.193   4.933  1.1583  0.4466  0.4739
 6427SOL     OW20496   1.973   3.598   5.658  0.2566 -0.0186 -0.1696
 6427SOL    HW120497   1.980   3.572   5.567 -0.1100 -2.1228  0.3560
 6427SOL    HW220498   1.894   3.652   5.661  1.8796  2.6136 -1.5632
 6428SOL     OW20499   2.622   2.425   5.046  0.2639 -0.3579 -0.5616
 6428SOL    HW120500   2.655   2.514   5.041 -0.0472 -0.2646 -0.9829
 6428SOL    HW220501   2.699   2.371   5.062  0.4657 -0.0287 -0.4162
 6429SOL     OW20502   2.526   3.284   5.309  0.3220  0.0930  0.7255
 6429SOL    HW120503   2.598   3.308   5.367  0.9067  0.5015 -0.1514
 6429SOL    HW220504   2.489   3.368   5.281  1.4413 -0.0045 -1.2032
 6430SOL     OW20505   2.014   2.342   3.755 -0.7861  0.1099 -0.2968
 6430SOL    HW120506   2.023   2.324   3.848 -1.6431 -0.4922 -0.3172
 6430SOL    HW220507   2.013   2.437   3.749 -1.6481  0.1560  0.4083
 6431SOL     OW20508   2.095   2.937   5.746 -0.8017 -0.3351 -0.1003
 6431SOL    HW120509   2.136   3.003   5.802 -0.3728  0.2836 -1.1072
 6431SOL    HW220510   2.059   2.873   5.806  0.8413 -0.4085  0.8619
 6432SOL     OW20511   2.778   2.880   5.147 -0.2488  0.4086  0.5683
 6432SOL    HW120512   2.873   2.893   5.145 -0.3044  0.9910 -2.2692
 6432SOL    HW220513   2.742   2.966   5.128 -1.2764 -0.1469 -0.0756
 6433SOL     OW20514   3.148   2.986   3.696 -0.0053  0.1396 -0.0191
 6433SOL    HW120515   3.224   3.031   3.732 -0.2339  0.4435  0.0866
 6433SOL    HW220516   3.082   3.055   3.686 -0.5431 -0.2702  0.6718
 6434SOL     OW20517   3.470   3.526   4.602  0.2545  0.3315 -0.0786
 6434SOL    HW120518   3.530   3.539   4.676  1.1993 -0.0001 -0.7576
 6434SOL    HW220519   3.421   3.608   4.596 -0.7948 -0.1259  1.7349
 6435SOL     OW20520   3.246   3.214   5.088  0.5726  0.0784 -0.1870
 6435SOL    HW120521   3.272   3.247   5.002  0.1765  1.9539  0.3635
 6435SOL    HW220522   3.195   3.285   5.126 -0.1275 -1.1197  1.2026
 6436SOL     OW20523   1.995   3.070   4.762 -0.0878  0.7448  0.1605
 6436SOL    HW120524   1.990   3.115   4.677  0.9799  0.5777 -0.0063
 6436SOL    HW220525   2.081   3.028   4.762 -1.0772 -1.3906  0.2802
 6437SOL     OW20526   2.353   3.797   5.584  0.0521 -0.1021 -0.3268
 6437SOL    HW120527   2.281   3.773   5.526  1.3884 -2.4119 -1.1599
 6437SOL    HW220528   2.430   3.799   5.527  0.5144  4.2880  0.1132
 6438SOL     OW20529   3.514   2.029   4.642 -0.3552  0.1803  0.4639
 6438SOL    HW120530   3.490   2.070   4.725 -1.4375 -2.0318  1.3308
 6438SOL    HW220531   3.449   2.061   4.579 -2.3197 -1.4729  1.5344
 6439SOL     OW20532   3.212   3.430   4.349  0.0915 -0.4877 -0.0394
 6439SOL    HW120533   3.294   3.476   4.328 -0.7662  1.3113  0.3590
 6439SOL    HW220534   3.217   3.416   4.444  0.0988 -0.7045 -0.0723
 6440SOL     OW20535   1.922   3.728   6.061  0.4748  0.0138  0.4163
 6440SOL    HW120536   1.948   3.749   6.151 -0.1093 -1.8260  1.0790
 6440SOL    HW220537   2.002   3.695   6.020  0.4840 -0.2530  0.6440
 6441SOL     OW20538   3.682   2.739   3.969  0.1781 -0.2373 -0.2645
 6441SOL    HW120539   3.659   2.826   3.934 -2.4158 -0.8671 -0.3360
 6441SOL    HW220540   3.738   2.758   4.044 -1.2284  1.5828  0.4019
 6442SOL     OW20541   3.195   2.795   4.731 -0.3310 -0.4375  0.0434
 6442SOL    HW120542   3.269   2.768   4.677  0.6454 -0.0117  1.1257
 6442SOL    HW220543   3.192   2.729   4.800 -0.5105 -0.0524  0.4039
 6443SOL     OW20544   2.196   3.394   3.633 -0.3599 -0.5968 -0.2242
 6443SOL    HW120545   2.262   3.370   3.698  2.9784  1.0971 -2.6659
 6443SOL    HW220546   2.200   3.324   3.567  0.2411  0.3109 -1.1831
 6444SOL     OW20547   3.615   3.528   4.861 -0.5567 -0.6636 -0.2165
 6444SOL    HW120548   3.597   3.498   4.950 -0.2977 -0.9765 -0.2729
 6444SOL    HW220549   3.689   3.476   4.832  0.3947  0.5254 -0.0409
 6445SOL     OW20550   3.926   1.934   4.897  0.3646  0.4594  0.2760
 6445SOL    HW120551   3.950   1.851   4.938  1.3786  0.5948 -0.0016
 6445SOL    HW220552   3.831   1.934   4.895  0.3409 -1.2449 -0.8074
 6446SOL     OW20553   2.396   2.037   4.598  0.1934  0.0273 -0.0382
 6446SOL    HW120554   2.441   1.973   4.653  0.9825  0.4359 -0.1881
 6446SOL    HW220555   2.456   2.111   4.594  0.4932 -0.2717 -2.0299
 6447SOL     OW20556   3.105   3.671   4.228 -0.1226 -0.0942  0.1853
 6447SOL    HW120557   3.110   3.608   4.300  0.8140 -0.3523 -0.0879
 6447SOL    HW220558   3.184   3.655   4.176 -0.1137  0.9736 -0.1688
 6448SOL     OW20559   2.625   2.779   5.560 -0.5132  0.1579 -0.1527
 6448SOL    HW120560   2.681   2.854   5.539 -3.2499  1.8167 -2.1764
 6448SOL    HW220561   2.633   2.721   5.484 -0.1912 -0.5156  0.3795
 6449SOL     OW20562   3.082   2.820   3.923  0.5333 -0.3665 -0.6582
 6449SOL    HW120563   3.133   2.842   3.846  0.6376 -0.6003 -0.6548
 6449SOL    HW220564   3.123   2.869   3.994 -0.7377  1.4353 -1.0733
 6450SOL     OW20565   2.868   3.573   3.911 -0.1021  0.6524  0.4398
 6450SOL    HW120566   2.897   3.661   3.935  5.0654 -1.0490  1.8070
 6450SOL    HW220567   2.828   3.539   3.990 -1.0427  1.3331  0.2742
 6451SOL     OW20568   1.917   3.329   5.271 -0.0811 -0.3418 -0.3536
 6451SOL    HW120569   1.920   3.266   5.343 -0.0971 -0.1769 -0.2077
 6451SOL    HW220570   1.986   3.300   5.211  0.0558 -0.3761 -0.1830
 6452SOL     OW20571   3.424   3.309   4.837 -0.2637  0.1005 -0.0457
 6452SOL    HW120572   3.518   3.293   4.828 -0.4227 -1.0970  0.3583
 6452SOL    HW220573   3.415   3.404   4.825  1.2673  0.6107  2.1890
 6453SOL     OW20574   3.067   2.522   4.277  0.1567  0.1208 -0.2409
 6453SOL    HW120575   3.154   2.484   4.293 -0.0257 -1.1769 -2.0877
 6453SOL    HW220576   3.060   2.591   4.343  3.3840  1.5889 -1.1897
 6454SOL     OW20577   2.984   2.516   4.673 -0.3389  0.4134 -0.4969
 6454SOL    HW120578   2.890   2.530   4.663 -0.4587  0.3991  0.5243
 6454SOL    HW220579   2.993   2.424   4.697  0.2110 -0.5454 -3.7728
 6455SOL     OW20580   2.277   3.333   4.227  0.1476  0.2403  0.0987
 6455SOL    HW120581   2.227   3.302   4.303  2.3756 -1.5164  0.9872
 6455SOL    HW220582   2.243   3.281   4.154  0.0185 -0.2651  0.5069
 6456SOL     OW20583   4.071   2.409   5.779  0.1347 -0.5676  0.1055
 6456SOL    HW120584   4.099   2.499   5.767 -2.7395  0.4782  0.3928
 6456SOL    HW220585   4.056   2.401   5.874  2.2605 -2.0332  0.3854
 6457SOL     OW20586   1.580   3.070   4.417 -0.0203 -0.1489 -0.1590
 6457SOL    HW120587   1.550   3.006   4.352 -1.2710 -1.0468  1.2264
 6457SOL    HW220588   1.671   3.048   4.433  0.0875 -0.3882 -1.0729
 6458SOL     OW20589   2.188   2.847   5.484  0.2349  0.2496  0.0885
 6458SOL    HW120590   2.264   2.905   5.481  0.8606 -0.6154 -1.1053
 6458SOL    HW220591   2.132   2.885   5.552  2.2926  0.1749  1.9086
 6459SOL     OW20592   2.640   1.813   5.379  0.5728 -0.2249 -0.5828
 6459SOL    HW120593   2.689   1.737   5.348  0.4044 -0.3926 -0.4357
 6459SOL    HW220594   2.568   1.777   5.430  0.1325  0.0092 -1.0258
 6460SOL     OW20595   1.848   2.096   3.481 -0.1634  0.4541 -0.1003
 6460SOL    HW120596   1.860   2.044   3.561  0.6995 -0.1148 -0.5881
 6460SOL    HW220597   1.928   2.149   3.475 -1.2722  2.3410  0.7138
 6461SOL     OW20598   3.623   2.681   5.263 -0.5666 -0.4799 -0.4871
 6461SOL    HW120599   3.616   2.594   5.223 -1.5123 -0.1232 -1.1258
 6461SOL    HW220600   3.552   2.684   5.327  0.3274 -0.6779  0.5410
 6462SOL     OW20601   1.740   1.806   3.435  0.3016 -0.5966 -0.0151
 6462SOL    HW120602   1.741   1.747   3.510  0.4125 -1.8759 -0.9849
 6462SOL    HW220603   1.807   1.871   3.455 -0.4605 -0.2352  1.4913
 6463SOL     OW20604   2.975   2.556   4.019 -0.4895  0.5978  0.3863
 6463SOL    HW120605   3.032   2.519   4.086 -2.9249  2.2426  3.7118
 6463SOL    HW220606   3.013   2.642   4.000  1.2149 -0.5552 -1.9368
 6464SOL     OW20607   2.410   2.995   5.407 -0.2458  0.2298 -0.2868
 6464SOL    HW120608   2.424   3.070   5.350  0.4906 -0.1385 -0.6043
 6464SOL    HW220609   2.485   2.996   5.467 -0.0859 -0.3888 -0.4614
 6465SOL     OW20610   3.253   3.595   4.894 -0.0519 -0.1817  0.0503
 6465SOL    HW120611   3.234   3.591   4.988  0.7155  1.6593  0.3435
 6465SOL    HW220612   3.330   3.652   4.888 -0.4917  0.2893 -1.7410
 6466SOL     OW20613   2.725   2.401   5.601  0.1445 -0.0051 -0.0852
 6466SOL    HW120614   2.669   2.323   5.600  0.6161 -0.3399 -0.3233
 6466SOL    HW220615   2.663   2.474   5.596 -0.2301 -0.3908 -1.4562
 6467SOL     OW20616   3.177   3.354   5.449 -0.0261 -0.5092 -0.3322
 6467SOL    HW120617   3.186   3.260   5.467  1.6243 -0.2191  0.5740
 6467SOL    HW220618   3.255   3.393   5.487 -1.2669  1.4037  0.3906
 6468SOL     OW20619   2.307   3.467   5.476  0.1978 -0.1134 -0.0496
 6468SOL    HW120620   2.368   3.477   5.403  0.7990 -0.5501  0.3840
 6468SOL    HW220621   2.256   3.548   5.476  0.7556  0.2455 -0.4355
 6469SOL     OW20622   3.572   2.475   5.079  0.5423 -0.1309 -0.5431
 6469SOL    HW120623   3.527   2.512   5.003 -1.9091 -0.8995  0.4317
 6469SOL    HW220624   3.660   2.514   5.077  0.4506  0.1375 -3.5243
 6470SOL     OW20625   3.226   2.228   4.235  0.4565 -0.1099  0.3800
 6470SOL    HW120626   3.234   2.256   4.326 -1.2783  0.5323  0.3683
 6470SOL    HW220627   3.261   2.301   4.184  1.6353 -0.5613  0.5146
 6471SOL     OW20628   2.433   2.786   4.548  0.4605 -0.6291  0.0636
 6471SOL    HW120629   2.359   2.840   4.521 -0.8358 -0.4014  3.5537
 6471SOL    HW220630   2.507   2.846   4.552 -0.4972  0.5366  1.8524
 6472SOL     OW20631   3.551   2.020   5.257  0.1203  0.5651  0.0509
 6472SOL    HW120632   3.562   2.070   5.176  0.9351  1.1537  0.5098
 6472SOL    HW220633   3.521   2.085   5.321 -0.5498  0.0970  0.2188
 6473SOL     OW20634   3.816   2.843   5.395  0.3686 -0.4985  0.0226
 6473SOL    HW120635   3.739   2.803   5.355  0.2925 -0.9142  0.5710
 6473SOL    HW220636   3.868   2.770   5.426  1.3960 -0.2503 -1.0602
 6474SOL     OW20637   2.394   3.000   4.289 -0.1840 -0.2210  0.3559
 6474SOL    HW120638   2.365   2.976   4.201 -0.4960  0.3143  0.3107
 6474SOL    HW220639   2.489   3.003   4.283 -0.2324  3.0876 -0.8786
 6475SOL     OW20640   2.568   3.489   4.975  0.2693 -0.4658  0.3447
 6475SOL    HW120641   2.508   3.559   4.949  0.7665 -0.5178 -1.0580
 6475SOL    HW220642   2.645   3.502   4.919  1.0074 -1.2042  1.1642
 6476SOL     OW20643   2.705   2.709   4.717 -0.3069 -0.4843 -0.1994
 6476SOL    HW120644   2.696   2.632   4.662 -4.1155 -0.4782  0.1420
 6476SOL    HW220645   2.691   2.783   4.658 -0.0556 -0.2307  0.0546
 6477SOL     OW20646   2.872   2.951   3.500 -0.5664 -0.0608  0.6523
 6477SOL    HW120647   2.819   3.002   3.440  2.5297  0.9402 -1.4093
 6477SOL    HW220648   2.922   3.015   3.550  2.1717 -0.8479 -0.8398
 6478SOL     OW20649   3.827   3.302   4.591 -0.1223  0.0667  0.5107
 6478SOL    HW120650   3.872   3.384   4.574 -2.5277  1.6758  1.4090
 6478SOL    HW220651   3.815   3.262   4.505 -0.7340  1.6921 -0.1850
 6479SOL     OW20652   1.959   3.370   5.802  0.3131 -0.1585 -0.1820
 6479SOL    HW120653   1.969   3.377   5.897  2.8027 -2.2712 -0.1868
 6479SOL    HW220654   1.957   3.460   5.771  0.8950  0.5557  1.7444
 6480SOL     OW20655   1.836   3.002   4.497 -0.0617  0.3184 -0.1946
 6480SOL    HW120656   1.782   2.984   4.573 -0.1886  1.4219 -0.0001
 6480SOL    HW220657   1.889   2.924   4.485  1.2426  0.7628  2.0965
 6481SOL     OW20658   2.689   3.152   5.120 -0.0858 -0.1032  0.3095
 6481SOL    HW120659   2.611   3.192   5.158 -0.7363  0.8636 -1.8490
 6481SOL    HW220660   2.759   3.216   5.136 -1.2775  2.6073 -3.8105
 6482SOL     OW20661   4.133   2.384   5.378  0.4903  0.0972  0.3289
 6482SOL    HW120662   4.147   2.479   5.378  2.8430 -0.0858  3.1201
 6482SOL    HW220663   4.046   2.372   5.342  0.2286  3.2970 -0.3826
 6483SOL     OW20664   2.372   2.522   4.452 -0.1513  0.8274 -0.3534
 6483SOL    HW120665   2.281   2.508   4.478  0.2909 -1.0335  0.3746
 6483SOL    HW220666   2.396   2.606   4.492 -0.7863  0.0944  1.6795
 6484SOL     OW20667   3.440   3.023   4.540  0.0305 -1.2061  0.0546
 6484SOL    HW120668   3.516   3.061   4.497  0.3081 -2.3121 -0.4852
 6484SOL    HW220669   3.408   3.092   4.598 -0.1403  0.1988 -1.6351
 6485SOL     OW20670   2.815   2.336   5.270  0.0458 -0.1686  0.1164
 6485SOL    HW120671   2.769   2.389   5.334  1.0044  1.1329 -0.2358
 6485SOL    HW220672   2.908   2.343   5.294  0.8534  2.8458 -3.0440
 6486SOL     OW20673   2.813   3.479   5.172 -0.0616 -0.0698 -0.0306
 6486SOL    HW120674   2.721   3.495   5.151 -0.0544 -1.7259 -1.6316
 6486SOL    HW220675   2.861   3.517   5.099  0.4402 -0.2688  0.1922
 6487SOL     OW20676   2.935   2.047   4.833 -0.0536 -0.3888  0.2481
 6487SOL    HW120677   2.894   2.082   4.912 -1.0939 -0.3408 -0.2940
 6487SOL    HW220678   2.952   1.955   4.854 -0.9528 -0.5559  0.3072
 6488SOL     OW20679   3.212   1.546   5.378  0.6141 -0.1619 -0.3989
 6488SOL    HW120680   3.256   1.553   5.463 -0.0893 -0.1637 -0.0310
 6488SOL    HW220681   3.122   1.522   5.400  1.0262 -2.8472 -1.2377
 6489SOL     OW20682   2.702   3.105   3.970  0.4864  0.1246 -0.2567
 6489SOL    HW120683   2.789   3.143   3.975  0.2404  0.5212  3.2414
 6489SOL    HW220684   2.645   3.171   4.010 -1.2642 -0.6311 -1.3760
 6490SOL     OW20685   2.102   3.234   5.093 -0.2422 -0.2069  0.1026
 6490SOL    HW120686   2.192   3.210   5.115  0.2977  1.0283 -0.6690
 6490SOL    HW220687   2.075   3.169   5.029 -0.1397 -0.9590  0.8052
 6491SOL     OW20688   3.186   1.679   4.310  0.2291 -0.2176  0.8841
 6491SOL    HW120689   3.266   1.731   4.316  0.2443  0.0060 -0.8935
 6491SOL    HW220690   3.118   1.743   4.287  0.2661 -0.9324 -1.4345
 6492SOL     OW20691   3.288   1.967   4.177  0.1906 -0.3518 -0.0561
 6492SOL    HW120692   3.235   2.047   4.176  0.7189  0.0020 -0.1957
 6492SOL    HW220693   3.365   1.989   4.125 -0.4080 -1.4703 -1.4793
 6493SOL     OW20694   3.624   1.960   4.903  0.0674 -0.2285 -0.3558
 6493SOL    HW120695   3.616   2.042   4.951  0.1960 -0.4298  0.0092
 6493SOL    HW220696   3.552   1.905   4.935 -0.2172 -0.1449 -0.8344
 6494SOL     OW20697   1.952   2.276   4.037 -0.0794 -0.2384 -0.1913
 6494SOL    HW120698   1.990   2.360   4.063  0.4574 -0.7186  0.6226
 6494SOL    HW220699   1.943   2.228   4.119 -0.2885 -1.0142 -0.6649
 6495SOL     OW20700   2.596   3.260   4.153 -0.7408 -0.2313  0.3604
 6495SOL    HW120701   2.503   3.274   4.172 -0.2808  1.7738  1.4259
 6495SOL    HW220702   2.630   3.347   4.131  0.8015 -1.0011 -0.4626
 6496SOL     OW20703   2.172   2.207   5.756 -0.0811  0.1675  0.0566
 6496SOL    HW120704   2.153   2.260   5.679  1.3057  1.2104  0.3933
 6496SOL    HW220705   2.245   2.252   5.799  2.1752 -2.7798 -0.3830
 6497SOL     OW20706   2.139   2.155   6.615 -0.1071 -0.3291  0.4067
 6497SOL    HW120707   2.205   2.223   6.629  1.1060 -1.1742 -0.9062
 6497SOL    HW220708   2.187   2.073   6.621 -0.9829 -0.9668 -0.7861
 6498SOL     OW20709   2.289   2.687   6.260 -0.2394  0.0253 -0.1071
 6498SOL    HW120710   2.238   2.634   6.199 -0.2580 -0.6245  0.4491
 6498SOL    HW220711   2.380   2.667   6.240 -0.2508 -0.3900  0.2455
 6499SOL     OW20712   2.297   2.679   7.067 -0.1279 -0.1008 -0.1979
 6499SOL    HW120713   2.240   2.662   6.992 -0.1489  0.7088 -0.3802
 6499SOL    HW220714   2.299   2.775   7.074  1.9250 -0.0535 -0.7665
 6500SOL     OW20715   3.127   3.344   5.868 -0.6159 -0.3541 -0.0272
 6500SOL    HW120716   3.200   3.286   5.890 -0.6693 -0.1948  0.5985
 6500SOL    HW220717   3.090   3.369   5.953 -0.5652  0.6278 -0.2833
 6501SOL     OW20718   3.038   2.474   6.563 -0.0286  0.1304 -0.2133
 6501SOL    HW120719   3.041   2.390   6.518  0.9115 -0.6689  1.2564
 6501SOL    HW220720   3.126   2.486   6.598 -0.1326  1.7778 -0.4600
 6502SOL     OW20721   3.765   2.628   5.837  0.9448 -0.0519 -0.6908
 6502SOL    HW120722   3.773   2.533   5.838 -1.9183 -0.3706 -1.3914
 6502SOL    HW220723   3.774   2.653   5.745  0.7858  0.2543 -0.6260
 6503SOL     OW20724   2.698   2.816   6.643  0.1920  0.2195 -0.2403
 6503SOL    HW120725   2.733   2.734   6.607  0.4837 -0.1556  0.8348
 6503SOL    HW220726   2.677   2.794   6.734 -2.3921  0.5885 -0.6809
 6504SOL     OW20727   2.903   2.523   7.514 -0.4231  0.0588  0.4926
 6504SOL    HW120728   2.938   2.597   7.463 -0.1593 -0.3659  0.0474
 6504SOL    HW220729   2.817   2.507   7.477 -0.8300  0.6844  1.1544
 6505SOL     OW20730   2.562   2.139   6.105  0.0661  0.2416  0.2300
 6505SOL    HW120731   2.599   2.175   6.025  0.5780 -0.9211 -0.0836
 6505SOL    HW220732   2.596   2.195   6.175 -0.3145  1.2121 -0.3436
 6506SOL     OW20733   2.587   2.437   7.629  0.2267 -0.2121 -0.1663
 6506SOL    HW120734   2.500   2.465   7.600  0.5995  0.4999 -0.6326
 6506SOL    HW220735   2.635   2.423   7.547  0.3933 -1.1190  0.0802
 6507SOL     OW20736   2.077   3.278   6.580 -0.1835  0.6427  0.3822
 6507SOL    HW120737   2.039   3.190   6.572 -0.3162  0.7992 -0.9331
 6507SOL    HW220738   2.002   3.337   6.585 -0.1130  0.7964 -0.2758
 6508SOL     OW20739   3.123   3.392   6.565 -0.0164 -0.4331 -0.9200
 6508SOL    HW120740   3.171   3.472   6.539  1.2276 -1.1620 -0.9582
 6508SOL    HW220741   3.179   3.352   6.631 -1.9501  0.1103  1.1628
 6509SOL     OW20742   2.291   1.831   7.150 -0.0185 -0.6758 -0.9110
 6509SOL    HW120743   2.265   1.835   7.058  1.3043 -0.5249 -1.3073
 6509SOL    HW220744   2.242   1.902   7.192  1.0529  0.7484 -1.9658
 6510SOL     OW20745   3.528   1.966   6.564 -0.7379  1.0345 -0.0032
 6510SOL    HW120746   3.512   1.897   6.500  1.5625 -0.4911  0.9358
 6510SOL    HW220747   3.595   2.021   6.524  0.9889 -0.1443  1.1411
 6511SOL     OW20748   2.208   3.382   6.926 -0.1327  0.7838  0.2195
 6511SOL    HW120749   2.288   3.332   6.910 -0.6239  0.0986 -0.1339
 6511SOL    HW220750   2.208   3.450   6.859 -0.3168  0.2012 -0.3811
 6512SOL     OW20751   3.008   2.832   7.053 -0.2346 -0.5747 -0.0180
 6512SOL    HW120752   3.095   2.809   7.087  0.2065 -1.1427 -1.4783
 6512SOL    HW220753   3.021   2.843   6.959 -1.6139  0.0749 -0.1553
 6513SOL     OW20754   2.225   3.550   6.723 -0.7522  0.1672 -0.3386
 6513SOL    HW120755   2.256   3.638   6.746  1.9018 -0.8563  0.3747
 6513SOL    HW220756   2.212   3.554   6.629  0.5248  1.0164 -0.5111
 6514SOL     OW20757   2.290   2.994   6.171 -0.2743 -0.1040  0.0193
 6514SOL    HW120758   2.251   2.912   6.201 -1.4568  0.2829 -0.4051
 6514SOL    HW220759   2.300   2.983   6.077 -0.8509  0.3989 -0.1047
 6515SOL     OW20760   2.189   3.596   7.118  0.5633  0.0753  0.5689
 6515SOL    HW120761   2.264   3.578   7.175  2.8607  1.2853 -1.8409
 6515SOL    HW220762   2.184   3.521   7.060  0.6767  0.5263 -0.0315
 6516SOL     OW20763   2.648   2.696   5.860 -0.5281  0.4029 -0.2882
 6516SOL    HW120764   2.732   2.682   5.818 -0.7125  0.0427 -0.5465
 6516SOL    HW220765   2.659   2.776   5.912  0.3278 -0.3009  0.6344
 6517SOL     OW20766   3.299   1.780   7.256  0.1413 -0.3726 -0.1576
 6517SOL    HW120767   3.339   1.809   7.337 -0.4967  1.0583 -0.3316
 6517SOL    HW220768   3.238   1.711   7.282  0.1691 -0.1387  0.5245
 6518SOL     OW20769   1.896   2.249   6.920  0.0654  0.1024  0.6271
 6518SOL    HW120770   1.938   2.162   6.918  0.0462  0.0660 -2.1038
 6518SOL    HW220771   1.964   2.307   6.953  0.3373 -0.8266  1.7625
 6519SOL     OW20772   1.803   3.608   6.328  0.1613 -0.7354  0.1347
 6519SOL    HW120773   1.793   3.681   6.390  1.1054 -1.4887  1.2319
 6519SOL    HW220774   1.716   3.597   6.289 -0.9178 -1.1773  2.4531
 6520SOL     OW20775   3.455   2.857   6.175  0.3787 -0.4440 -0.2715
 6520SOL    HW120776   3.491   2.943   6.196  1.5288 -1.2062  1.0432
 6520SOL    HW220777   3.508   2.796   6.226 -1.9167 -1.7647  0.6674
 6521SOL     OW20778   2.877   3.114   5.934 -0.1688 -0.7114 -0.0221
 6521SOL    HW120779   2.942   3.124   5.865 -0.2367  2.2918  0.2352
 6521SOL    HW220780   2.919   3.057   5.999  1.9444  0.5732 -0.1872
 6522SOL     OW20781   1.215   2.540   6.816  0.1068  0.0604  0.2714
 6522SOL    HW120782   1.274   2.612   6.793 -0.1532  0.3622  0.5220
 6522SOL    HW220783   1.224   2.532   6.911  0.3889 -0.4678  0.2009
 6523SOL     OW20784   2.406   3.197   6.404 -0.6044 -0.1923 -0.1200
 6523SOL    HW120785   2.499   3.217   6.390 -0.3972 -0.9615  0.0994
 6523SOL    HW220786   2.389   3.121   6.349 -0.3131 -1.9161  2.0072
 6524SOL     OW20787   3.341   3.087   7.106  0.5867  0.2450  0.3412
 6524SOL    HW120788   3.272   3.118   7.048  0.8316  0.0021 -0.0832
 6524SOL    HW220789   3.335   3.144   7.183  0.5948  0.8991 -0.1370
 6525SOL     OW20790   2.634   1.643   5.793  0.0027  0.1164 -0.1521
 6525SOL    HW120791   2.572   1.674   5.727  1.4080  1.5911 -0.8451
 6525SOL    HW220792   2.660   1.721   5.841  0.1653 -0.7112  1.1742
 6526SOL     OW20793   2.243   2.445   7.282 -0.4843 -0.3192  0.2691
 6526SOL    HW120794   2.290   2.482   7.357 -0.3114  1.8074 -0.8002
 6526SOL    HW220795   2.208   2.521   7.237 -0.6766 -1.5440 -1.7513
 6527SOL     OW20796   3.896   3.019   6.083 -0.2697  0.3096 -0.2250
 6527SOL    HW120797   3.872   3.103   6.042 -2.7117 -1.7437 -3.5588
 6527SOL    HW220798   3.927   2.965   6.010  0.2587 -2.0214  1.6216
 6528SOL     OW20799   3.077   3.426   7.056 -0.2589 -0.0677  0.3774
 6528SOL    HW120800   3.123   3.468   6.984  1.8404  0.4872  1.9232
 6528SOL    HW220801   3.099   3.333   7.047 -1.4154 -0.2649 -0.6271
 6529SOL     OW20802   2.260   1.943   7.463  0.4330 -1.2280  0.0917
 6529SOL    HW120803   2.232   2.004   7.532 -0.0005 -0.6396 -0.5917
 6529SOL    HW220804   2.239   1.857   7.498  0.2352 -0.9358  0.7077
 6530SOL     OW20805   3.026   3.440   6.112  0.0367  0.4332  0.2303
 6530SOL    HW120806   2.938   3.433   6.149 -0.0873  0.9576  0.0415
 6530SOL    HW220807   3.033   3.531   6.084 -0.2169 -0.1542 -1.8859
 6531SOL     OW20808   3.765   3.613   6.438 -0.3509  0.8115 -0.1029
 6531SOL    HW120809   3.837   3.595   6.377 -0.2273  0.4067  0.1593
 6531SOL    HW220810   3.692   3.639   6.382 -0.0415  1.1021 -0.3802
 6532SOL     OW20811   2.446   2.005   5.811 -0.1137 -0.1099  0.8121
 6532SOL    HW120812   2.353   1.990   5.829 -0.1327 -1.5853 -0.2954
 6532SOL    HW220813   2.447   2.084   5.757 -0.3023  2.4269  4.1820
 6533SOL     OW20814   3.034   2.100   6.831  0.0517  0.2902 -0.2192
 6533SOL    HW120815   2.990   2.042   6.769  0.2037 -0.0430 -0.0171
 6533SOL    HW220816   3.113   2.052   6.856  0.0223  0.4531  0.1803
 6534SOL     OW20817   3.166   3.726   5.797 -0.0290 -0.2404  0.4103
 6534SOL    HW120818   3.232   3.782   5.838  0.4575  0.3819 -1.1406
 6534SOL    HW220819   3.194   3.719   5.706 -0.0350 -3.1133  0.5485
 6535SOL     OW20820   2.472   2.288   7.114 -0.0537  0.1937 -0.5502
 6535SOL    HW120821   2.406   2.223   7.091 -0.2735  0.4283 -0.5944
 6535SOL    HW220822   2.554   2.239   7.120 -0.2384 -0.1085 -0.4562
 6536SOL     OW20823   3.336   2.581   7.654 -1.0307  0.2642 -0.4091
 6536SOL    HW120824   3.260   2.529   7.680  0.1256 -2.2202 -1.6934
 6536SOL    HW220825   3.301   2.647   7.594 -2.2388 -0.5382 -0.6060
 6537SOL     OW20826   3.260   2.758   7.162  0.4484 -0.0848  0.4622
 6537SOL    HW120827   3.335   2.802   7.202  0.3262  0.0659  0.5261
 6537SOL    HW220828   3.282   2.665   7.166  0.2749 -0.1024  1.2304
 6538SOL     OW20829   3.253   2.496   7.202 -0.3972 -0.3460 -0.1945
 6538SOL    HW120830   3.219   2.433   7.138 -0.0145 -0.4281 -0.3220
 6538SOL    HW220831   3.243   2.452   7.286 -0.2119 -0.5439 -0.2750
 6539SOL     OW20832   3.344   2.593   6.403 -0.3955 -0.0601 -0.2240
 6539SOL    HW120833   3.353   2.504   6.368 -0.3977 -0.5408  0.9295
 6539SOL    HW220834   3.250   2.607   6.410 -0.4421 -0.9754  1.9099
 6540SOL     OW20835   1.979   2.364   6.499 -0.3428 -0.0812 -0.6207
 6540SOL    HW120836   2.029   2.371   6.418  2.1496  1.3321  0.9102
 6540SOL    HW220837   2.017   2.289   6.544 -0.3224  0.3595  0.1091
 6541SOL     OW20838   1.709   3.554   7.443 -0.2158  0.2605 -0.0245
 6541SOL    HW120839   1.678   3.644   7.444  1.3455  0.8272  0.8304
 6541SOL    HW220840   1.789   3.556   7.390  1.1695 -0.0928  1.9371
 6542SOL     OW20841   2.908   1.831   5.869 -0.0093 -0.3834 -0.2694
 6542SOL    HW120842   2.829   1.872   5.833  0.6772  0.3987 -0.9323
 6542SOL    HW220843   2.953   1.795   5.793 -0.9768 -3.1726  0.3611
 6543SOL     OW20844   3.835   2.679   7.814 -0.1332 -0.2232 -0.0024
 6543SOL    HW120845   3.844   2.774   7.812 -2.9021  0.1296 -0.5848
 6543SOL    HW220846   3.809   2.656   7.725  0.5772 -1.5479  0.1163
 6544SOL     OW20847   2.745   3.528   6.104 -0.0755  1.0140  0.5282
 6544SOL    HW120848   2.771   3.611   6.143  2.0868  0.6808 -0.0956
 6544SOL    HW220849   2.649   3.528   6.110 -0.1484  3.6215  0.3395
 6545SOL     OW20850   2.744   2.436   6.764 -0.1700 -0.0879 -0.1180
 6545SOL    HW120851   2.819   2.463   6.817  0.3710 -0.1145 -0.8577
 6545SOL    HW220852   2.670   2.486   6.800  0.4607  0.9649 -0.2372
 6546SOL     OW20853   2.905   3.657   6.381  0.1835 -0.4024 -0.0129
 6546SOL    HW120854   2.831   3.714   6.362  0.5144  0.5181  1.3373
 6546SOL    HW220855   2.965   3.670   6.308  0.0457  0.6312  0.0460
 6547SOL     OW20856   2.313   3.124   6.655 -0.2599 -0.2839 -0.8923
 6547SOL    HW120857   2.243   3.188   6.640 -0.7986 -0.6970 -0.1863
 6547SOL    HW220858   2.365   3.127   6.574 -0.7326  0.4657 -1.1878
 6548SOL     OW20859   3.396   3.076   6.487 -0.6409  0.6444  0.1378
 6548SOL    HW120860   3.437   3.161   6.469 -1.5408  0.8940 -0.8435
 6548SOL    HW220861   3.423   3.054   6.576  0.0241  1.7119  0.2129
 6549SOL     OW20862   2.966   3.247   6.386  0.4044  0.4567  0.0490
 6549SOL    HW120863   3.000   3.294   6.463 -0.1701 -0.7456  1.0720
 6549SOL    HW220864   3.044   3.213   6.343  0.7031  0.6346  0.4372
 6550SOL     OW20865   2.026   3.099   5.996  0.5289 -1.0200  0.2396
 6550SOL    HW120866   2.056   3.109   6.086 -0.1196  0.0490  0.3581
 6550SOL    HW220867   2.075   3.164   5.947 -1.1523  0.3946  0.3477
 6551SOL     OW20868   2.941   2.989   6.163 -0.5858  0.2153 -0.0823
 6551SOL    HW120869   2.895   3.006   6.245 -2.3938  2.3634 -1.4197
 6551SOL    HW220870   3.025   2.952   6.190 -1.2631  0.4556  2.6919
 6552SOL     OW20871   2.740   2.833   7.003 -0.3424  0.5581 -0.2383
 6552SOL    HW120872   2.833   2.852   7.015 -0.2400  1.4513 -2.0243
 6552SOL    HW220873   2.717   2.776   7.076  2.4333 -2.5397 -1.5360
 6553SOL     OW20874   2.576   4.152   5.711 -0.1070  0.4073  0.5320
 6553SOL    HW120875   2.568   4.148   5.807 -1.7196 -2.3545  0.3860
 6553SOL    HW220876   2.626   4.232   5.695  0.8321  0.6162  3.7048
 6554SOL     OW20877   1.942   1.766   7.342  0.2740 -0.1924 -0.0100
 6554SOL    HW120878   1.876   1.761   7.272  0.3278 -1.3974  0.0017
 6554SOL    HW220879   1.992   1.844   7.321 -2.1341  1.7142  0.8720
 6555SOL     OW20880   3.435   3.473   5.898  0.0414 -0.0763 -0.0189
 6555SOL    HW120881   3.365   3.409   5.890 -0.3081  0.3765 -0.7788
 6555SOL    HW220882   3.508   3.425   5.937  0.1280 -1.2137 -1.5046
 6556SOL     OW20883   2.380   3.782   6.441  0.3573 -0.1350  0.0210
 6556SOL    HW120884   2.394   3.861   6.389 -0.7051  0.1340  0.1237
 6556SOL    HW220885   2.409   3.805   6.529  0.6678 -0.0734 -0.0976
 6557SOL     OW20886   3.442   2.073   6.076  0.1387  0.1146  0.9867
 6557SOL    HW120887   3.393   2.040   6.000 -0.1717  1.1207  0.7286
 6557SOL    HW220888   3.494   1.999   6.106  1.4799  0.0964 -1.1822
 6558SOL     OW20889   2.145   3.278   7.192  0.5727 -0.0436  0.0309
 6558SOL    HW120890   2.125   3.287   7.099 -0.4101 -0.6825  0.1614
 6558SOL    HW220891   2.079   3.217   7.225 -0.0836  1.3822  1.4821
 6559SOL     OW20892   2.523   3.886   6.048  1.0102  0.1674 -0.1824
 6559SOL    HW120893   2.462   3.826   6.092 -1.3875  0.2651 -3.0553
 6559SOL    HW220894   2.537   3.847   5.962  3.2710  1.3606 -0.4285
 6560SOL     OW20895   1.861   2.462   6.184 -0.1148  0.3519 -1.0036
 6560SOL    HW120896   1.945   2.420   6.203  0.1483 -0.3694 -3.4144
 6560SOL    HW220897   1.805   2.438   6.258  0.4312 -3.1847 -1.5628
 6561SOL     OW20898   3.547   2.479   7.209  0.0624  0.2195  0.6545
 6561SOL    HW120899   3.457   2.511   7.202  0.2043  0.3371 -1.2504
 6561SOL    HW220900   3.538   2.387   7.232 -0.5085  0.4105  1.2337
 6562SOL     OW20901   3.198   2.030   5.655 -0.0988 -0.0077  0.5113
 6562SOL    HW120902   3.167   1.997   5.571 -0.7171 -2.3054  1.5717
 6562SOL    HW220903   3.122   2.071   5.694 -0.2646 -0.4322  0.6410
 6563SOL     OW20904   2.782   2.097   7.604 -0.0920 -0.2446  0.3089
 6563SOL    HW120905   2.703   2.108   7.551 -0.2730 -2.2653  0.0944
 6563SOL    HW220906   2.762   2.024   7.662  1.4785 -0.5167  0.5495
 6564SOL     OW20907   2.806   2.907   6.396  0.1367  0.0587 -0.2048
 6564SOL    HW120908   2.781   2.842   6.331  0.1918 -0.7745  0.5880
 6564SOL    HW220909   2.759   2.881   6.475  0.0315  1.0844  0.0786
 6565SOL     OW20910   3.238   2.739   7.458 -0.0701  0.1931  0.3873
 6565SOL    HW120911   3.146   2.743   7.486 -0.1472  0.8775  0.0667
 6565SOL    HW220912   3.233   2.740   7.362  0.2636  0.0444  0.3691
 6566SOL     OW20913   2.457   2.597   6.067  0.1691 -0.8203 -0.5460
 6566SOL    HW120914   2.531   2.603   6.007  0.0619 -0.4446 -0.6493
 6566SOL    HW220915   2.398   2.667   6.038  0.5419 -0.0208  0.5710
 6567SOL     OW20916   2.655   2.266   6.334  0.4498  0.7730 -0.1477
 6567SOL    HW120917   2.688   2.345   6.376 -2.0240  1.7760  0.0876
 6567SOL    HW220918   2.611   2.218   6.404  0.4084  0.0685 -0.6487
 6568SOL     OW20919   2.378   2.093   6.372  0.5924  0.0510  0.3518
 6568SOL    HW120920   2.417   2.174   6.341 -1.5283  1.4421  1.1492
 6568SOL    HW220921   2.404   2.087   6.464  1.0215 -0.3642  0.2077
 6569SOL     OW20922   2.934   3.389   5.666 -0.3544  0.0938 -0.1505
 6569SOL    HW120923   3.012   3.367   5.717 -1.1340  0.3636  1.2083
 6569SOL    HW220924   2.905   3.473   5.701 -0.8353  0.3568 -1.1506
 6570SOL     OW20925   2.003   1.521   6.172 -0.0282 -0.2423  0.1243
 6570SOL    HW120926   2.005   1.616   6.171  0.8255 -0.1708  2.3415
 6570SOL    HW220927   2.093   1.496   6.196 -0.7027 -1.5017  1.4970
 6571SOL     OW20928   2.819   1.702   6.090 -0.6613 -0.0260  0.2781
 6571SOL    HW120929   2.862   1.746   6.016 -0.0072  0.7826  1.1175
 6571SOL    HW220930   2.789   1.773   6.146 -2.7381 -0.5806 -0.0435
 6572SOL     OW20931   3.218   2.563   6.812  0.3212 -0.3310  0.0809
 6572SOL    HW120932   3.230   2.486   6.868 -0.5782 -0.4955  0.0563
 6572SOL    HW220933   3.293   2.619   6.833  0.6045 -0.8933  0.6189
 6573SOL     OW20934   2.908   3.709   5.884 -0.3521 -0.3166  0.7135
 6573SOL    HW120935   3.002   3.710   5.866 -0.7106  0.0468 -1.5422
 6573SOL    HW220936   2.890   3.792   5.927  0.0612  0.6869 -0.9629
 6574SOL     OW20937   2.691   2.924   5.982  0.7338  0.5012 -0.5073
 6574SOL    HW120938   2.642   2.982   6.040  0.1275  0.0641 -0.5799
 6574SOL    HW220939   2.779   2.964   5.977  0.4541  1.1679 -0.2115
 6575SOL     OW20940   3.165   3.985   6.103  0.1779  0.2226  0.4986
 6575SOL    HW120941   3.204   3.956   6.020  4.4187  1.6646  1.7514
 6575SOL    HW220942   3.183   4.079   6.107 -2.8907  0.8794  1.6997
 6576SOL     OW20943   3.474   2.571   5.693 -0.1780 -0.1791 -0.0194
 6576SOL    HW120944   3.538   2.637   5.718  0.7879 -0.5770 -1.3779
 6576SOL    HW220945   3.410   2.572   5.765  1.4840  0.0085  1.5427
 6577SOL     OW20946   1.583   2.476   7.304  0.4625 -0.1670 -0.1188
 6577SOL    HW120947   1.648   2.488   7.236  0.2840  0.1037 -0.2484
 6577SOL    HW220948   1.499   2.474   7.257  0.4306 -1.3582 -0.0364
 6578SOL     OW20949   3.199   2.328   6.964  0.7680  0.5703 -0.0057
 6578SOL    HW120950   3.177   2.262   7.030 -0.4051 -0.1605 -1.0827
 6578SOL    HW220951   3.151   2.301   6.886 -1.7199  3.9893  0.1105
 6579SOL     OW20952   2.562   1.854   6.643 -0.1332  0.2014  0.4405
 6579SOL    HW120953   2.601   1.925   6.694 -0.0809  0.9128 -0.5586
 6579SOL    HW220954   2.635   1.796   6.624 -0.1969 -0.1918  1.3611
 6580SOL     OW20955   2.983   2.226   6.248 -0.4532 -0.3265 -0.3875
 6580SOL    HW120956   2.969   2.164   6.176  3.0530 -1.1150 -0.5563
 6580SOL    HW220957   2.984   2.171   6.326 -0.4325 -0.0364 -0.1825
 6581SOL     OW20958   3.205   2.975   6.276 -0.0901 -0.0868 -0.7555
 6581SOL    HW120959   3.285   2.926   6.256 -0.1075  0.6068 -2.8615
 6581SOL    HW220960   3.227   3.027   6.353  0.4428 -2.1431  0.5604
 6582SOL     OW20961   3.084   2.753   6.410  0.1330 -0.4308 -0.4364
 6582SOL    HW120962   2.999   2.750   6.454  0.6971  0.3097  0.7585
 6582SOL    HW220963   3.103   2.847   6.402  0.7809 -0.5911 -0.8295
 6583SOL     OW20964   3.602   2.667   6.277 -0.5138  0.7444 -0.5684
 6583SOL    HW120965   3.571   2.622   6.355 -1.5384  1.6673 -0.4143
 6583SOL    HW220966   3.668   2.609   6.240  0.8746  0.8381  1.6284
 6584SOL     OW20967   2.354   3.711   6.136  0.0985  0.3564 -0.0648
 6584SOL    HW120968   2.402   3.630   6.117  0.2809  0.5746 -0.5709
 6584SOL    HW220969   2.263   3.684   6.145 -0.0033  0.2380 -1.3194
 6585SOL     OW20970   3.255   3.311   6.171 -0.2125  0.6313 -0.3196
 6585SOL    HW120971   3.306   3.355   6.239  1.5940  0.7183 -1.6784
 6585SOL    HW220972   3.183   3.371   6.153  0.8214  1.9075 -0.3881
 6586SOL     OW20973   3.501   2.910   5.745 -0.0308  0.8583 -0.2543
 6586SOL    HW120974   3.496   3.002   5.768  1.2087  0.6579  0.9244
 6586SOL    HW220975   3.444   2.866   5.808 -0.9138  0.8428 -1.0500
 6587SOL     OW20976   2.929   2.048   6.059  0.2775 -0.6017  0.3015
 6587SOL    HW120977   2.844   2.017   6.089 -0.6646 -0.1731 -1.8017
 6587SOL    HW220978   2.950   1.994   5.983  0.9646  0.5810 -0.3813
 6588SOL     OW20979   3.561   3.204   6.699 -0.2364  0.1428  0.0767
 6588SOL    HW120980   3.639   3.182   6.749  0.1398 -0.7289 -0.8549
 6588SOL    HW220981   3.584   3.286   6.655  0.4220 -0.4240 -0.6846
 6589SOL     OW20982   2.678   3.219   6.478  0.4078  0.1424 -0.1462
 6589SOL    HW120983   2.698   3.307   6.511  2.0013 -0.8306  1.7053
 6589SOL    HW220984   2.757   3.194   6.429  1.1987 -1.2760  1.7327
 6590SOL     OW20985   3.568   3.624   6.919  0.1856  0.7591 -0.1671
 6590SOL    HW120986   3.598   3.657   6.834 -0.7680 -2.8225 -2.1222
 6590SOL    HW220987   3.634   3.559   6.943 -0.0248  1.1074  1.4250
 6591SOL     OW20988   2.726   3.066   6.718 -0.0649 -0.8666  0.0672
 6591SOL    HW120989   2.685   3.118   6.650  1.4579 -1.2092 -1.1675
 6591SOL    HW220990   2.712   2.975   6.691 -0.7477 -1.0557  1.0104
 6592SOL     OW20991   3.119   3.173   6.948 -0.0225  0.1766 -0.5625
 6592SOL    HW120992   3.080   3.088   6.929 -0.8885  0.2772  0.6290
 6592SOL    HW220993   3.171   3.194   6.870  1.6458 -2.2209 -0.2290
 6593SOL     OW20994   2.961   1.841   7.161 -0.1264  0.1918 -0.4258
 6593SOL    HW120995   3.030   1.775   7.170 -0.9885 -0.6170  0.6465
 6593SOL    HW220996   2.987   1.912   7.219  0.3074  0.3549 -0.8151
 6594SOL     OW20997   3.052   2.990   7.279  0.5215  0.5190 -0.1670
 6594SOL    HW120998   3.138   2.964   7.315 -0.1723 -1.0106  0.4893
 6594SOL    HW220999   3.049   2.949   7.193  0.5530  0.7912 -0.2972
 6595SOL     OW21000   2.541   3.183   5.661 -0.1157 -0.6146 -0.3251
 6595SOL    HW121001   2.554   3.234   5.581 -0.5615 -1.1823 -0.7625
 6595SOL    HW221002   2.612   3.211   5.719  0.2283 -0.2252 -0.9286
 6596SOL     OW21003   2.078   2.426   7.030 -0.3838  0.0725  0.8188
 6596SOL    HW121004   2.048   2.510   7.064  1.1519  0.3673  1.5227
 6596SOL    HW221005   2.170   2.421   7.055  0.3787 -0.4806 -1.8418
 6597SOL     OW21006   3.282   2.352   7.446 -0.5764  0.4243  0.7936
 6597SOL    HW121007   3.323   2.285   7.501 -1.5668 -1.9072 -1.1299
 6597SOL    HW221008   3.250   2.417   7.509  2.7512  0.5847  2.6052
 6598SOL     OW21009   1.660   3.829   7.232 -0.1139  0.4867  0.1176
 6598SOL    HW121010   1.638   3.750   7.182  1.1647  0.2749 -0.1285
 6598SOL    HW221011   1.754   3.824   7.246 -0.3249  0.9449  1.8917
 6599SOL     OW21012   2.264   2.759   5.906 -0.2387 -0.0606  0.0804
 6599SOL    HW121013   2.220   2.702   5.844 -1.6357  1.1866 -0.1277
 6599SOL    HW221014   2.301   2.829   5.853 -0.9550  0.7084  0.5552
 6600SOL     OW21015   2.301   2.422   5.885 -0.0119 -0.1461 -0.4062
 6600SOL    HW121016   2.313   2.470   5.804  0.1567  0.6946  0.1084
 6600SOL    HW221017   2.356   2.468   5.949 -0.1485 -0.7847  0.1872
 6601SOL     OW21018   2.667   3.291   5.905  0.0236 -0.2684  0.0551
 6601SOL    HW121019   2.748   3.241   5.903  0.3580  0.2907 -0.8427
 6601SOL    HW221020   2.687   3.371   5.857 -1.2031 -0.3588 -0.6526
 6602SOL     OW21021   2.845   3.434   6.572 -0.4707  0.3969  0.5132
 6602SOL    HW121022   2.938   3.426   6.594 -0.5260  1.8985  1.4337
 6602SOL    HW221023   2.843   3.497   6.500 -0.6455 -1.2864 -1.0325
 6603SOL     OW21024   3.515   2.714   6.590  0.1325 -0.0730  0.3372
 6603SOL    HW121025   3.442   2.681   6.538 -1.4187 -0.8885  2.8863
 6603SOL    HW221026   3.533   2.801   6.554 -2.2108  0.2267 -0.2551
 6604SOL     OW21027   1.915   3.285   6.949 -0.1169 -0.0394  0.5251
 6604SOL    HW121028   1.975   3.335   6.894  0.5851 -1.9653 -0.5594
 6604SOL    HW221029   1.950   3.196   6.947 -1.6201 -0.6973  1.9192
 6605SOL     OW21030   2.405   2.565   7.475 -0.2567  0.3973  0.2404
 6605SOL    HW121031   2.348   2.640   7.455  0.7114  1.0677 -0.0942
 6605SOL    HW221032   2.492   2.592   7.444  0.8443  0.5282  3.1921
 6606SOL     OW21033   3.810   3.069   6.799  0.6040 -0.1156  0.0754
 6606SOL    HW121034   3.853   3.138   6.849  4.4143 -0.4620 -2.2998
 6606SOL    HW221035   3.872   2.997   6.799 -0.3367 -1.0842 -2.8871
 6607SOL     OW21036   3.001   2.253   7.560 -0.2372  0.0070 -0.5180
 6607SOL    HW121037   2.974   2.329   7.509  0.1615  0.9787  0.6666
 6607SOL    HW221038   2.923   2.197   7.564 -0.4437  0.1948 -1.6465
 6608SOL     OW21039   2.322   1.658   7.367 -0.2842 -0.2771  0.2881
 6608SOL    HW121040   2.256   1.589   7.361  1.5658 -2.1291 -0.0818
 6608SOL    HW221041   2.306   1.714   7.292 -1.9748 -0.1191  0.7211
 6609SOL     OW21042   1.913   2.741   6.408  0.6684  0.3305  0.0316
 6609SOL    HW121043   1.983   2.801   6.436  0.9032  0.3029 -0.4832
 6609SOL    HW221044   1.935   2.720   6.318  0.1496  0.0856 -0.0383
 6610SOL     OW21045   2.967   2.682   6.119  0.9861 -0.5611  0.4294
 6610SOL    HW121046   2.955   2.761   6.066  0.0587 -0.7315  0.3555
 6610SOL    HW221047   3.010   2.713   6.198  1.8647 -0.2100 -0.1699
 6611SOL     OW21048   3.341   2.806   5.923  0.1681  0.4420 -0.5081
 6611SOL    HW121049   3.377   2.834   6.007 -1.0046  0.6563 -0.0650
 6611SOL    HW221050   3.292   2.726   5.942  0.5075  0.0733 -1.1287
 6612SOL     OW21051   2.597   1.509   6.931  0.2672 -0.0864  0.3325
 6612SOL    HW121052   2.550   1.575   6.982 -1.3017  2.0403 -3.4319
 6612SOL    HW221053   2.649   1.560   6.868  3.5073 -2.4928  0.8061
 6613SOL     OW21054   1.919   3.496   6.649  0.0502 -0.1629 -0.5427
 6613SOL    HW121055   1.911   3.531   6.738  1.4892 -2.0922  0.4319
 6613SOL    HW221056   1.940   3.572   6.595  0.6411  0.8356  1.0239
 6614SOL     OW21057   2.378   2.326   6.238  0.0776 -0.1920  0.2208
 6614SOL    HW121058   2.432   2.402   6.215  0.3143 -0.4467 -0.0876
 6614SOL    HW221059   2.396   2.263   6.168 -0.6091 -0.2886  0.1236
 6615SOL     OW21060   3.705   3.038   7.308  0.1676 -0.2380 -0.0371
 6615SOL    HW121061   3.704   3.080   7.394 -2.7970 -0.6635  0.2445
 6615SOL    HW221062   3.700   3.111   7.246 -4.1734  0.1721  0.4340
 6616SOL     OW21063   2.276   1.896   6.641  0.0235 -0.2675 -0.0876
 6616SOL    HW121064   2.365   1.884   6.609 -0.1869  0.8414 -1.2049
 6616SOL    HW221065   2.230   1.816   6.616  0.1141  0.1627 -1.8000
 6617SOL     OW21066   3.525   2.308   6.192  0.3182 -0.2023  0.0129
 6617SOL    HW121067   3.492   2.227   6.154  0.3094 -0.5104  0.6772
 6617SOL    HW221068   3.452   2.344   6.241  0.0220  0.7035 -1.0324
 6618SOL     OW21069   2.952   2.501   6.975  0.5984  0.3724  0.4260
 6618SOL    HW121070   2.938   2.593   6.953 -0.2641  0.0489 -0.5137
 6618SOL    HW221071   3.036   2.479   6.934  1.5942  1.1117  1.9805
 6619SOL     OW21072   2.980   3.417   7.626 -0.0432 -0.2222  0.0468
 6619SOL    HW121073   2.900   3.459   7.594 -0.3133  0.4968  1.6262
 6619SOL    HW221074   2.951   3.331   7.657 -0.2489  0.1217  0.8173
 6620SOL     OW21075   3.642   3.749   6.680 -0.2654  0.3380  0.0310
 6620SOL    HW121076   3.660   3.818   6.616 -2.5914 -0.8649 -2.1130
 6620SOL    HW221077   3.666   3.668   6.635 -0.2782 -0.4338  1.3809
 6621SOL     OW21078   2.282   2.475   7.720  0.4740  0.5422  0.1640
 6621SOL    HW121079   2.209   2.530   7.747  0.5054  0.9680 -0.5899
 6621SOL    HW221080   2.318   2.519   7.643  0.6534 -0.4005 -0.3120
 6622SOL     OW21081   3.735   2.362   5.854  0.4523 -0.1003  0.3928
 6622SOL    HW121082   3.744   2.293   5.919 -3.0089 -2.0907 -0.9760
 6622SOL    HW221083   3.661   2.335   5.801 -0.4950  4.2323 -0.8675
 6623SOL     OW21084   3.168   2.993   5.760 -0.2718 -0.2746  0.1941
 6623SOL    HW121085   3.209   3.069   5.799  0.5026  0.3787 -1.7735
 6623SOL    HW221086   3.211   2.918   5.801  0.5821  0.3765  0.5037
 6624SOL     OW21087   2.700   3.555   5.782  0.2166  0.0024 -0.3971
 6624SOL    HW121088   2.637   3.624   5.802 -0.9156 -0.8900 -0.7090
 6624SOL    HW221089   2.781   3.582   5.824 -0.4201  1.1250  0.1448
 6625SOL     OW21090   2.275   2.593   6.538 -0.4738  0.4402 -0.5308
 6625SOL    HW121091   2.322   2.621   6.460  0.9461  4.4998  1.4708
 6625SOL    HW221092   2.186   2.627   6.527 -0.3000  0.9257 -0.4747
 6626SOL     OW21093   2.258   2.430   6.749 -0.0953  0.8998  0.8412
 6626SOL    HW121094   2.301   2.464   6.671  0.0078 -0.0988  0.4539
 6626SOL    HW221095   2.206   2.504   6.782 -0.6632  1.1395 -0.5424
 6627SOL     OW21096   3.412   2.135   7.572  0.8514  0.5600 -0.6492
 6627SOL    HW121097   3.463   2.133   7.491  0.5796 -1.8900 -0.8390
 6627SOL    HW221098   3.459   2.076   7.631 -0.1113  0.6524  0.2409
 6628SOL     OW21099   3.066   2.029   7.344 -0.1336 -0.0236  0.2195
 6628SOL    HW121100   3.030   1.979   7.417 -0.5498 -1.6783 -1.0522
 6628SOL    HW221101   3.091   2.113   7.382 -0.4820 -0.7732  2.2128
 6629SOL     OW21102   2.104   3.277   5.576  0.5095  0.4882  0.1476
 6629SOL    HW121103   2.077   3.308   5.662  0.5544  1.0747 -0.0466
 6629SOL    HW221104   2.184   3.325   5.556  1.0836 -0.4125  0.2229
 6630SOL     OW21105   1.760   3.743   6.876 -0.6091  0.3245 -0.0045
 6630SOL    HW121106   1.748   3.782   6.790 -0.4842  0.6019  0.1017
 6630SOL    HW221107   1.848   3.769   6.902 -1.1881  1.5494  0.8599
 6631SOL     OW21108   2.232   3.439   6.404  0.1071 -0.1431 -0.3163
 6631SOL    HW121109   2.190   3.404   6.482 -1.2846  1.8485 -0.0847
 6631SOL    HW221110   2.321   3.404   6.407  0.5559  0.8945  2.9486
 6632SOL     OW21111   2.762   2.155   7.331 -0.0302 -0.2972 -0.0705
 6632SOL    HW121112   2.842   2.108   7.352  1.7835  1.2941 -2.7093
 6632SOL    HW221113   2.763   2.162   7.235 -1.3440  3.0044  0.0285
 6633SOL     OW21114   1.772   2.343   6.707 -0.4332  0.4031 -0.3998
 6633SOL    HW121115   1.828   2.310   6.636  0.7893  0.3890  0.5229
 6633SOL    HW221116   1.802   2.295   6.784 -0.7557  1.4255  0.3829
 6634SOL     OW21117   2.161   2.190   7.335  0.2454  0.0562 -0.3099
 6634SOL    HW121118   2.201   2.174   7.420  1.7500 -1.3891 -1.2436
 6634SOL    HW221119   2.184   2.281   7.315 -0.6971  0.6461  1.0664
 6635SOL     OW21120   3.088   3.038   7.687 -0.1312  0.7677  0.2950
 6635SOL    HW121121   3.159   3.079   7.638 -0.6582 -0.5310 -1.6555
 6635SOL    HW221122   3.127   2.957   7.721 -1.1096 -0.9553 -2.4495
 6636SOL     OW21123   2.717   2.263   5.931 -0.2748  0.2091 -0.3128
 6636SOL    HW121124   2.749   2.324   5.997 -0.5274 -0.5704  0.5470
 6636SOL    HW221125   2.789   2.201   5.919 -0.6575 -0.3245  0.0910
 6637SOL     OW21126   3.432   2.724   6.848  0.3128 -0.1231  0.1251
 6637SOL    HW121127   3.482   2.799   6.881  0.1791 -0.5832  1.4461
 6637SOL    HW221128   3.468   2.707   6.761  1.5616  0.3590  0.5315
 6638SOL     OW21129   2.308   2.990   7.131  0.0256  0.2032 -0.0424
 6638SOL    HW121130   2.347   3.010   7.046  0.1933  0.9333  0.1991
 6638SOL    HW221131   2.380   2.996   7.194 -0.0826 -0.4002  0.1521
 6639SOL     OW21132   2.864   2.211   7.054  0.3152  0.1652  0.1704
 6639SOL    HW121133   2.856   2.305   7.036  0.7179  0.4934  1.5761
 6639SOL    HW221134   2.912   2.176   6.979  1.3141  1.3270  0.2280
 6640SOL     OW21135   2.842   3.575   6.875  0.4625  0.3861 -0.0466
 6640SOL    HW121136   2.851   3.636   6.802  0.8342  1.3591  0.7769
 6640SOL    HW221137   2.931   3.540   6.888  0.1368 -0.8381 -0.9066
 6641SOL     OW21138   2.421   2.117   5.413 -1.2059  0.3484 -0.3543
 6641SOL    HW121139   2.504   2.084   5.378 -1.1683 -0.4920  0.4809
 6641SOL    HW221140   2.402   2.195   5.361  0.2719  0.7367 -0.3572
 6642SOL     OW21141   2.130   2.675   6.852  0.3499  0.3261  0.2979
 6642SOL    HW121142   2.166   2.762   6.835  0.3153  0.8556  2.6457
 6642SOL    HW221143   2.037   2.683   6.829  0.3836  0.8583  0.3396
 6643SOL     OW21144   3.055   2.974   6.579 -0.1675 -0.0221 -0.4591
 6643SOL    HW121145   3.095   3.061   6.588  0.2883 -0.4542  2.4107
 6643SOL    HW221146   2.961   2.991   6.576 -0.0567  0.5939 -0.6677
 6644SOL     OW21147   3.339   3.151   5.965 -0.0613 -0.0131  0.7572
 6644SOL    HW121148   3.298   3.211   6.028  1.4761  1.7497  0.1816
 6644SOL    HW221149   3.414   3.115   6.013 -1.1934 -1.8401  1.2258
 6645SOL     OW21150   3.526   3.717   6.316 -0.6813  0.3441 -0.7174
 6645SOL    HW121151   3.573   3.801   6.322  0.6245 -0.2739 -1.7308
 6645SOL    HW221152   3.464   3.729   6.245 -3.0056  1.5570  1.3788
 6646SOL     OW21153   3.048   3.747   6.148 -0.5574  0.4081 -0.4397
 6646SOL    HW121154   3.054   3.841   6.165  0.4861  0.2037  0.4452
 6646SOL    HW221155   3.134   3.724   6.112 -0.3660 -0.4128  0.5001
 6647SOL     OW21156   2.063   3.126   6.284  0.1059  0.1736  0.2276
 6647SOL    HW121157   2.066   3.222   6.289 -0.0942  0.1490  0.8852
 6647SOL    HW221158   2.153   3.099   6.301 -0.1890  0.1772  2.0037
 6648SOL     OW21159   2.439   3.580   7.251 -0.1889 -0.3379 -1.3443
 6648SOL    HW121160   2.513   3.581   7.191 -0.6334  0.7868 -1.8955
 6648SOL    HW221161   2.449   3.497   7.300  4.0719  1.6500  1.8872
 6649SOL     OW21162   3.657   1.939   6.158 -0.0900 -0.1005  0.5152
 6649SOL    HW121163   3.669   1.860   6.105 -0.1026 -0.1290  0.5551
 6649SOL    HW221164   3.707   1.923   6.237  0.4148  0.1891  0.2579
 6650SOL     OW21165   3.068   3.619   5.464 -0.3782  0.9382 -0.0933
 6650SOL    HW121166   3.098   3.530   5.483  0.5866  0.8835 -1.6302
 6650SOL    HW221167   3.145   3.674   5.479 -0.2901  1.1892 -1.3478
 6651SOL     OW21168   1.530   3.782   7.528  0.5030 -0.2017 -0.4748
 6651SOL    HW121169   1.440   3.759   7.508  0.1192  0.7402  0.0906
 6651SOL    HW221170   1.558   3.836   7.455  1.0890 -1.6110 -1.3330
 6652SOL     OW21171   2.846   2.433   6.117 -0.5293  0.4806  0.6970
 6652SOL    HW121172   2.904   2.508   6.126  1.3891 -0.5002 -1.9793
 6652SOL    HW221173   2.887   2.364   6.169 -0.6643  0.4746  0.7962
 6653SOL     OW21174   2.531   2.547   7.168  0.0480 -0.6065 -0.4191
 6653SOL    HW121175   2.460   2.608   7.146  0.9656  0.5934 -0.2001
 6653SOL    HW221176   2.493   2.460   7.156 -1.9686 -0.0468  1.2330
 6654SOL     OW21177   2.128   3.681   5.874 -0.1394 -0.0902 -0.4843
 6654SOL    HW121178   2.079   3.672   5.793  0.3224  0.7133 -0.8654
 6654SOL    HW221179   2.203   3.622   5.863  1.8298  2.5049 -2.1637
 6655SOL     OW21180   3.363   3.994   6.930  0.1378  0.3285 -0.0384
 6655SOL    HW121181   3.448   3.958   6.903 -0.8469 -0.3873 -2.4176
 6655SOL    HW221182   3.375   4.089   6.926  0.7519  0.2379 -0.5715
 6656SOL     OW21183   3.687   1.410   6.983  0.5043  0.4573  0.0330
 6656SOL    HW121184   3.655   1.399   6.893  1.6480 -0.1550 -0.3203
 6656SOL    HW221185   3.754   1.478   6.977  1.3521 -0.3347  0.2015
 6657SOL     OW21186   2.071   1.753   6.290  0.2773  0.5479 -0.1922
 6657SOL    HW121187   1.987   1.765   6.335  0.2318  2.5865 -0.7077
 6657SOL    HW221188   2.129   1.716   6.356 -1.0292 -0.9813  0.1473
 6658SOL     OW21189   3.156   3.495   5.185  0.7689  1.0844 -0.7052
 6658SOL    HW121190   3.228   3.545   5.224 -0.2950  2.3055 -0.2563
 6658SOL    HW221191   3.120   3.443   5.256  0.8308  0.9161 -0.7957
 6659SOL     OW21192   3.149   2.897   6.819  0.4332 -0.4899  0.2770
 6659SOL    HW121193   3.239   2.866   6.817  0.1682 -1.2936 -0.8639
 6659SOL    HW221194   3.118   2.885   6.728 -0.9618 -0.7223  0.7511
 6660SOL     OW21195   3.005   2.489   5.833 -0.0219 -0.2257 -0.2623
 6660SOL    HW121196   2.967   2.573   5.807 -0.0514 -0.6759 -1.7238
 6660SOL    HW221197   2.967   2.471   5.919  0.9484  1.8564  0.6725
 6661SOL     OW21198   3.282   3.820   5.566 -0.3785  0.1223  0.0526
 6661SOL    HW121199   3.328   3.817   5.482 -0.6679  0.6476 -0.1297
 6661SOL    HW221200   3.297   3.910   5.598 -0.6256  0.0540  0.3613
 6662SOL     OW21201   2.688   2.407   7.383 -0.2796  0.0821  0.3795
 6662SOL    HW121202   2.704   2.314   7.366  0.3091  0.4438 -1.2447
 6662SOL    HW221203   2.661   2.442   7.299  2.2709  1.9424  0.2090
 6663SOL     OW21204   3.385   3.444   6.366 -0.3174  0.6192  0.9469
 6663SOL    HW121205   3.339   3.523   6.396  0.0988  0.2596  2.6713
 6663SOL    HW221206   3.471   3.450   6.408  0.5000  0.2833 -0.6237
 6664SOL     OW21207   2.620   3.205   6.168 -0.4033 -0.5908  0.1387
 6664SOL    HW121208   2.631   3.270   6.098 -1.8211  0.6720  1.0136
 6664SOL    HW221209   2.708   3.189   6.200 -0.1453  2.8119  1.5113
 6665SOL     OW21210   3.041   2.078   6.465  0.1645 -0.1883  0.6346
 6665SOL    HW121211   3.103   2.139   6.505  0.9752 -0.0989 -0.6951
 6665SOL    HW221212   3.071   1.992   6.492  2.6694 -0.3592 -2.2234
 6666SOL     OW21213   2.522   3.514   6.435 -0.3250  0.1105 -0.1319
 6666SOL    HW121214   2.438   3.561   6.432 -0.3825  0.2154  2.0362
 6666SOL    HW221215   2.580   3.567   6.380 -1.0015  1.4661  0.4043
 6667SOL     OW21216   3.203   2.108   7.133 -0.2537  0.3345  0.3860
 6667SOL    HW121217   3.174   2.055   7.058  1.0462 -1.6239  1.1691
 6667SOL    HW221218   3.156   2.071   7.208 -0.1303  1.0169  0.8123
 6668SOL     OW21219   2.069   3.666   6.292 -0.1387 -0.5297  0.1165
 6668SOL    HW121220   2.136   3.604   6.321  0.3246  0.2718  0.7868
 6668SOL    HW221221   1.996   3.652   6.351  1.4794  2.4154  3.1234
 6669SOL     OW21222   2.258   2.797   7.427  0.5893  0.3615  0.0610
 6669SOL    HW121223   2.349   2.823   7.438  0.8984 -0.8667  0.5239
 6669SOL    HW221224   2.208   2.874   7.454  1.4708  0.6924  0.7876
 6670SOL     OW21225   2.732   1.752   7.290  0.3307  0.2729  0.1273
 6670SOL    HW121226   2.807   1.778   7.238  1.3794 -0.7718  1.0729
 6670SOL    HW221227   2.710   1.829   7.342  1.6987  0.1460  0.9262
 6671SOL     OW21228   2.107   2.322   6.278 -0.4981  0.3861  0.0755
 6671SOL    HW121229   2.195   2.356   6.262 -0.8900  0.4298 -2.3815
 6671SOL    HW221230   2.119   2.227   6.282 -0.3370  0.3984 -0.1238
 6672SOL     OW21231   3.486   2.870   7.240 -0.1166 -0.3566  0.2576
 6672SOL    HW121232   3.570   2.915   7.250 -0.5873  0.7454 -0.4981
 6672SOL    HW221233   3.433   2.931   7.189 -1.4647 -0.9249  0.9322
 6673SOL     OW21234   1.733   1.548   6.147 -0.6804 -0.0662  0.4407
 6673SOL    HW121235   1.827   1.563   6.137 -0.6903 -0.1366  0.2414
 6673SOL    HW221236   1.706   1.609   6.215 -0.1395 -1.3217  1.8329
 6674SOL     OW21237   2.783   2.998   5.390  1.0414 -0.0717  0.1220
 6674SOL    HW121238   2.764   2.954   5.307 -0.0296 -0.5581  0.5961
 6674SOL    HW221239   2.792   3.091   5.367  0.4934 -0.1661 -0.5050
 6675SOL     OW21240   2.529   2.609   6.869  0.5909  0.1168 -0.1079
 6675SOL    HW121241   2.545   2.593   6.962  0.8028  1.4151  0.0906
 6675SOL    HW221242   2.461   2.676   6.868  1.0229  0.5458 -0.8882
 6676SOL     OW21243   3.417   3.957   6.496 -0.1052 -0.1697 -0.5110
 6676SOL    HW121244   3.433   4.033   6.441 -0.9878  1.1171  0.9301
 6676SOL    HW221245   3.504   3.922   6.516  0.6814  2.7010  1.7861
 6677SOL     OW21246   2.306   2.155   6.924  0.1329 -0.0157 -0.3657
 6677SOL    HW121247   2.400   2.146   6.909  0.0123 -0.9793 -0.6142
 6677SOL    HW221248   2.282   2.238   6.883  1.1034  0.9074  0.8437
 6678SOL     OW21249   3.188   3.416   7.411  0.3266 -0.5931 -0.3668
 6678SOL    HW121250   3.145   3.471   7.346  0.2630  1.4190  1.2703
 6678SOL    HW221251   3.123   3.404   7.480  1.0345 -0.9503  0.2601
 6679SOL     OW21252   2.390   3.305   7.336  0.0686  0.2173  0.0018
 6679SOL    HW121253   2.425   3.216   7.345  1.6322  0.7885 -0.1402
 6679SOL    HW221254   2.319   3.296   7.273 -0.7788 -1.1639  1.0756
 6680SOL     OW21255   3.564   2.946   6.935 -0.3865 -0.1616  0.0591
 6680SOL    HW121256   3.521   3.025   6.968  1.8509  1.8805 -1.4699
 6680SOL    HW221257   3.644   2.979   6.894  0.3056 -3.2042 -1.2937
 6681SOL     OW21258   3.275   2.505   5.897  0.6679 -0.2974  0.0223
 6681SOL    HW121259   3.256   2.443   5.967  0.6877 -0.3449 -0.0139
 6681SOL    HW221260   3.195   2.508   5.845  0.6521 -0.2599  0.0483
 6682SOL     OW21261   2.531   2.248   5.721  0.4626  0.0772 -0.5230
 6682SOL    HW121262   2.498   2.338   5.716 -1.7413 -0.7141 -0.9325
 6682SOL    HW221263   2.573   2.243   5.807  4.1042  2.5334 -1.8740
 6683SOL     OW21264   3.514   2.714   7.461  0.1787 -0.0732 -0.3647
 6683SOL    HW121265   3.511   2.767   7.381  0.7810  1.2523  0.4628
 6683SOL    HW221266   3.422   2.689   7.475 -0.0686  0.4415 -0.9716
 6684SOL     OW21267   3.775   2.631   6.627  0.4601 -0.4978  0.0720
 6684SOL    HW121268   3.682   2.652   6.633  0.7438  0.7629  0.3611
 6684SOL    HW221269   3.814   2.708   6.588  1.3292 -1.2077 -0.4856
 6685SOL     OW21270   2.539   3.779   5.794 -0.2659  0.3689  0.4356
 6685SOL    HW121271   2.605   3.829   5.747  0.9806 -1.6175 -0.0670
 6685SOL    HW221272   2.463   3.780   5.737  0.4135  0.0403 -0.5074
 6686SOL     OW21273   2.601   3.438   6.687  0.1674 -0.2247  0.0016
 6686SOL    HW121274   2.692   3.411   6.695 -0.3356 -2.3173 -0.8214
 6686SOL    HW221275   2.587   3.449   6.593 -0.9024 -1.7981 -0.0578
 6687SOL     OW21276   2.740   2.680   6.291  0.5083  0.0998 -0.5013
 6687SOL    HW121277   2.757   2.617   6.222  1.3363  0.0222 -0.2400
 6687SOL    HW221278   2.734   2.627   6.371 -1.5804  0.0477 -0.6199
 6688SOL     OW21279   3.005   2.755   5.765 -0.5863  0.0642 -0.7978
 6688SOL    HW121280   3.011   2.745   5.670  0.7630  0.8742 -0.8182
 6688SOL    HW221281   3.006   2.849   5.780 -2.3143  0.0054 -0.0334
 6689SOL     OW21282   4.075   3.364   6.595 -0.2409  0.2770  0.7892
 6689SOL    HW121283   4.053   3.446   6.551  1.0143 -0.1225 -0.6295
 6689SOL    HW221284   4.148   3.387   6.653  2.0708 -0.3223 -1.6979
 6690SOL     OW21285   2.686   2.748   7.269  0.1380 -0.6479 -0.2708
 6690SOL    HW121286   2.621   2.681   7.249  0.2558 -1.5487  2.0530
 6690SOL    HW221287   2.642   2.807   7.330 -1.0591  3.4427 -4.4325
 6691SOL     OW21288   1.786   3.009   6.313 -0.0163  0.4425  0.2393
 6691SOL    HW121289   1.867   3.044   6.278 -0.9455  3.3241  0.7440
 6691SOL    HW221290   1.717   3.054   6.265 -1.3302 -0.5979  1.0643
 6692SOL     OW21291   2.497   2.952   6.906  0.1672 -0.4606  0.0276
 6692SOL    HW121292   2.570   2.894   6.926  0.3973 -0.5024 -0.8910
 6692SOL    HW221293   2.537   3.038   6.892  0.3654 -0.8936 -2.6270
 6693SOL     OW21294   3.676   1.910   6.994  0.0513  0.0499  0.5412
 6693SOL    HW121295   3.640   1.980   7.049  1.0637  1.5624 -0.6172
 6693SOL    HW221296   3.768   1.905   7.019  0.6350  1.0539 -1.2154
 6694SOL     OW21297   2.221   1.908   5.461 -0.2808  0.1272 -0.4495
 6694SOL    HW121298   2.289   1.975   5.461  2.1432 -2.0023  2.9330
 6694SOL    HW221299   2.260   1.836   5.411 -1.7771  0.2425 -1.8487
 6695SOL     OW21300   3.332   3.700   6.086 -0.4595 -0.1180 -0.3709
 6695SOL    HW121301   3.371   3.631   6.033 -3.3862 -0.5953 -2.1401
 6695SOL    HW221302   3.318   3.773   6.025  0.1982  1.0801  0.8470
 6696SOL     OW21303   1.789   2.447   7.122  0.1286  0.9530 -0.1164
 6696SOL    HW121304   1.828   2.362   7.104 -2.6829 -0.9188  1.8917
 6696SOL    HW221305   1.863   2.504   7.143  2.1449 -0.7439 -2.1698
 6697SOL     OW21306   2.991   4.036   6.629  0.0529 -0.0167  0.6681
 6697SOL    HW121307   3.036   4.056   6.547  1.2127 -1.1771  0.9905
 6697SOL    HW221308   3.047   4.072   6.697 -1.5216  2.0782  0.9677
 6698SOL     OW21309   3.367   2.060   6.784  0.3898 -0.3920 -1.0547
 6698SOL    HW121310   3.439   2.030   6.728  1.4789 -0.9735  0.5450
 6698SOL    HW221311   3.411   2.095   6.862 -1.0572  0.0756 -0.4090
 6699SOL     OW21312   3.092   1.595   7.271  0.2133 -0.7526 -0.1233
 6699SOL    HW121313   3.010   1.590   7.321  0.5182 -1.3782  0.3421
 6699SOL    HW221314   3.077   1.538   7.196 -0.0116 -0.3353 -0.3989
 6700SOL     OW21315   2.473   3.442   6.109  0.1417  0.2216  0.4269
 6700SOL    HW121316   2.388   3.409   6.081  0.7331 -2.3142  1.3312
 6700SOL    HW221317   2.501   3.380   6.177  3.3911  0.0131 -0.9236
 6701SOL     OW21318   2.247   2.888   6.787 -0.1964 -0.4349 -0.2457
 6701SOL    HW121319   2.317   2.914   6.847 -0.4840 -1.1918  0.4370
 6701SOL    HW221320   2.250   2.953   6.718  0.8628 -0.1671  0.0250
 6702SOL     OW21321   3.280   1.945   5.904 -0.0524  0.3841 -0.5124
 6702SOL    HW121322   3.261   1.851   5.893 -1.9016  0.6229  0.3514
 6702SOL    HW221323   3.264   1.982   5.818  0.4811 -0.0512 -0.8082
 6703SOL     OW21324   3.227   2.351   6.304 -0.7432 -0.2406 -0.0010
 6703SOL    HW121325   3.243   2.323   6.394 -0.9979 -0.5140 -0.0379
 6703SOL    HW221326   3.162   2.289   6.272 -0.4697 -0.2931 -0.4540
 6704SOL     OW21327   3.270   2.241   6.577  0.0889 -0.3772 -0.2733
 6704SOL    HW121328   3.347   2.298   6.574  0.7578 -1.2825 -0.9922
 6704SOL    HW221329   3.305   2.155   6.603 -0.4999 -1.0289 -1.5396
 6705SOL     OW21330   2.197   3.459   6.129 -0.2092 -0.8964  0.9262
 6705SOL    HW121331   2.197   3.427   6.220 -0.3691 -0.6566  1.0119
 6705SOL    HW221332   2.107   3.446   6.099 -0.1761 -0.8996  0.8301
 6706SOL     OW21333   2.660   4.153   5.980  0.3923 -0.4344  0.2878
 6706SOL    HW121334   2.687   4.188   6.065 -0.7148 -2.5090  1.5702
 6706SOL    HW221335   2.640   4.061   5.997 -1.3948 -0.5321 -1.8762
 6707SOL     OW21336   1.879   2.310   7.834 -0.3971  0.2318  0.0923
 6707SOL    HW121337   1.825   2.388   7.847  3.1859  2.8593  0.8199
 6707SOL    HW221338   1.894   2.307   7.739 -0.7733  0.2456  0.0299
 6708SOL     OW21339   2.085   2.067   7.806 -0.0911  0.0167 -0.0053
 6708SOL    HW121340   2.036   2.092   7.885 -1.5684  0.1566 -0.9163
 6708SOL    HW221341   2.055   1.977   7.788 -0.7157  0.4323 -1.0864
 6709SOL     OW21342   1.462   2.393   8.495  0.2409  0.0831  0.4511
 6709SOL    HW121343   1.493   2.318   8.546  2.5571  0.7584  0.1370
 6709SOL    HW221344   1.541   2.428   8.453 -1.2806  0.6162 -2.2055
 6710SOL     OW21345   2.510   3.016   8.337  0.4151 -0.1613 -0.4365
 6710SOL    HW121346   2.453   3.066   8.279 -0.0726 -0.2154 -0.0098
 6710SOL    HW221347   2.596   3.058   8.328  0.4518 -0.4467 -1.5231
 6711SOL     OW21348   3.586   3.565   7.819 -0.0097  0.2288 -0.1103
 6711SOL    HW121349   3.642   3.642   7.806  0.6858 -0.0313  1.2087
 6711SOL    HW221350   3.639   3.504   7.869 -0.8522 -0.7886 -0.4124
 6712SOL     OW21351   3.158   2.948   8.329  0.1175  0.2710 -0.2334
 6712SOL    HW121352   3.182   2.955   8.237 -1.8849  0.3150 -0.8105
 6712SOL    HW221353   3.160   3.038   8.361 -1.2930  0.5647 -0.8702
 6713SOL     OW21354   3.660   2.210   7.849  0.7482  0.0244 -0.7048
 6713SOL    HW121355   3.746   2.241   7.878  0.5624  0.4175 -0.5703
 6713SOL    HW221356   3.598   2.274   7.885  0.1870 -1.4876  1.2138
 6714SOL     OW21357   2.294   2.862   8.333  0.0537  0.1527 -0.1799
 6714SOL    HW121358   2.309   2.833   8.243 -1.0875  0.9301 -0.6344
 6714SOL    HW221359   2.377   2.903   8.358  0.3041  0.1475 -0.9633
 6715SOL     OW21360   2.659   3.185   7.922  0.0100  0.2642 -0.3057
 6715SOL    HW121361   2.686   3.095   7.904 -1.3240 -0.1280 -0.4233
 6715SOL    HW221362   2.735   3.224   7.966  0.3070 -1.1642  0.5114
 6716SOL     OW21363   2.339   3.294   8.350 -0.5560  0.1094 -0.0207
 6716SOL    HW121364   2.269   3.231   8.332  0.2269 -1.2409  1.3413
 6716SOL    HW221365   2.304   3.378   8.322 -1.8431 -0.8446 -1.4582
 6717SOL     OW21366   2.349   2.389   0.270  0.5751 -0.1048 -0.3794
 6717SOL    HW121367   2.439   2.416   0.288  0.3690 -0.1094  0.7329
 6717SOL    HW221368   2.299   2.424   0.343  0.0465 -2.1851  0.3188
 6718SOL     OW21369   3.230   2.452   7.978 -0.1901  0.0847  0.1405
 6718SOL    HW121370   3.187   2.435   8.062 -0.0955 -1.7137 -0.1210
 6718SOL    HW221371   3.160   2.449   7.914  0.1180 -1.9579 -0.1841
 6719SOL     OW21372   2.136   3.341   8.085 -1.0817  0.3256  0.0609
 6719SOL    HW121373   2.086   3.405   8.035 -1.9913  0.0371  0.5899
 6719SOL    HW221374   2.100   3.256   8.059 -0.8769  0.1134  0.4602
 6720SOL     OW21375   2.458   3.103   7.634  0.0088  0.2771 -0.0417
 6720SOL    HW121376   2.369   3.070   7.643 -1.0865  2.5073 -1.6707
 6720SOL    HW221377   2.478   3.142   7.719 -1.3427  1.4423 -0.2325
 6721SOL     OW21378   2.060   2.984   8.321 -0.6337  0.3754 -0.2892
 6721SOL    HW121379   2.010   2.920   8.271 -0.5492 -0.0947  0.2299
 6721SOL    HW221380   2.138   2.938   8.349 -0.8013  0.5579  0.4987
 6722SOL     OW21381   2.412   3.783   0.232 -0.0178 -0.5093 -0.0636
 6722SOL    HW121382   2.378   3.825   0.311  0.2426  0.9578 -0.6961
 6722SOL    HW221383   2.394   3.845   0.162  1.3442 -0.9806 -0.8796
 6723SOL     OW21384   2.063   2.493   7.969  0.3215  0.4006 -0.5293
 6723SOL    HW121385   2.018   2.416   7.935 -0.7594  0.3098  0.9791
 6723SOL    HW221386   2.000   2.565   7.956  0.3027  0.5451  0.3080
 6724SOL     OW21387   1.595   2.222   8.269  0.0466  0.5054  0.2481
 6724SOL    HW121388   1.564   2.184   8.187  1.4443  1.3873 -0.7304
 6724SOL    HW221389   1.530   2.289   8.290 -0.2879  0.3163 -0.1699
 6725SOL     OW21390   3.458   3.638   7.175  0.8095 -0.8336 -0.1809
 6725SOL    HW121391   3.482   3.662   7.085  0.8023  1.1586  0.2974
 6725SOL    HW221392   3.363   3.630   7.173  0.7703 -0.3765 -0.2669
 6726SOL     OW21393   1.789   4.002   7.552  0.5299  0.6173  0.0892
 6726SOL    HW121394   1.843   3.964   7.482  1.3577  0.1754  0.9387
 6726SOL    HW221395   1.820   3.959   7.632 -0.5069  0.9947  0.7140
 6727SOL     OW21396   3.795   2.991   8.408 -0.0947  0.1744 -0.0552
 6727SOL    HW121397   3.844   3.072   8.400  0.1489  0.0564  0.2154
 6727SOL    HW221398   3.851   2.924   8.368  0.0786 -0.0024  0.4701
 6728SOL     OW21399   3.536   2.932   7.611 -0.0643  0.3916  0.3002
 6728SOL    HW121400   3.534   2.856   7.553  0.7969  0.0662  0.6802
 6728SOL    HW221401   3.620   2.926   7.656  0.7199  2.3897 -0.7497
 6729SOL     OW21402   2.416   3.159   8.101 -0.6976 -0.2972 -0.6440
 6729SOL    HW121403   2.407   3.231   8.164 -1.7339  0.8760 -2.0546
 6729SOL    HW221404   2.495   3.181   8.051 -0.4481 -0.6925 -0.4321
 6730SOL     OW21405   2.716   2.194   7.866  0.2864 -0.9320 -0.0065
 6730SOL    HW121406   2.634   2.145   7.875  0.1177 -1.0183 -1.6013
 6730SOL    HW221407   2.753   2.162   7.784 -0.3307  2.2982 -1.7222
 6731SOL     OW21408   1.945   2.829   8.827 -0.1246 -0.0356  0.6451
 6731SOL    HW121409   1.985   2.848   8.741 -2.1891 -0.1263 -0.3915
 6731SOL    HW221410   1.852   2.818   8.808 -0.4065 -1.7476  2.6634
 6732SOL     OW21411   3.364   3.210   7.850 -0.1212 -0.3920 -0.4752
 6732SOL    HW121412   3.334   3.300   7.846  0.9688 -0.0460 -1.6029
 6732SOL    HW221413   3.340   3.173   7.765 -1.0028 -1.3272  0.1626
 6733SOL     OW21414   3.111   3.363   8.214 -0.3482 -0.0406  0.3382
 6733SOL    HW121415   3.150   3.418   8.147 -1.4756 -0.5372 -0.7605
 6733SOL    HW221416   3.183   3.311   8.248  0.2556  0.2705 -0.4458
 6734SOL     OW21417   3.920   3.803   8.037  0.8210  0.3863 -0.2131
 6734SOL    HW121418   3.900   3.800   8.131  0.7809 -0.9853 -0.2496
 6734SOL    HW221419   3.960   3.889   8.024 -3.1562  2.5054  0.2198
 6735SOL     OW21420   2.455   2.055   7.950 -0.3051  0.2000 -0.2713
 6735SOL    HW121421   2.419   2.137   7.916 -1.4021 -0.6925 -1.3293
 6735SOL    HW221422   2.484   2.077   8.039  0.5144  2.0108 -0.9493
 6736SOL     OW21423   3.132   2.307   8.245 -0.0749 -0.0662  0.1148
 6736SOL    HW121424   3.098   2.232   8.293 -1.5228  1.0137  0.8485
 6736SOL    HW221425   3.054   2.353   8.214  0.7185  1.9421  0.9483
 6737SOL     OW21426   3.585   3.672   7.439 -0.0501  0.1921 -0.2848
 6737SOL    HW121427   3.552   3.661   7.350  0.1101 -1.3157 -0.1746
 6737SOL    HW221428   3.574   3.587   7.480  1.1189  0.4918  0.7261
 6738SOL     OW21429   2.160   2.758   8.597 -0.2675  0.3825 -0.1623
 6738SOL    HW121430   2.162   2.719   8.510 -1.1384  1.5058 -0.7237
 6738SOL    HW221431   2.246   2.741   8.634  0.4788  0.7632 -1.6532
 6739SOL     OW21432   2.970   2.447   8.792 -0.0357  0.6329  0.4863
 6739SOL    HW121433   2.962   2.374   8.854 -0.0040  0.9162  0.8264
 6739SOL    HW221434   2.891   2.499   8.806 -0.8588 -0.1783 -0.8726
 6740SOL     OW21435   3.088   2.659   8.278 -0.2033  0.5015 -0.2464
 6740SOL    HW121436   3.068   2.752   8.276  0.2943  0.6069 -2.1669
 6740SOL    HW221437   3.178   2.655   8.309  0.1579  0.7706 -1.2140
 6741SOL     OW21438   2.388   2.278   8.317  0.5026  0.0075 -0.1734
 6741SOL    HW121439   2.365   2.288   8.410 -0.9664  0.2184 -0.5357
 6741SOL    HW221440   2.345   2.352   8.273  1.2123 -0.0678 -1.0307
 6742SOL     OW21441   1.872   3.845   0.217 -0.5350 -0.2997  0.0473
 6742SOL    HW121442   1.947   3.786   0.228 -0.5661 -0.1672  1.1416
 6742SOL    HW221443   1.864   3.857   0.123  1.4391  0.4505 -0.0733
 6743SOL     OW21444   2.740   2.461   7.867  0.3673  0.0069 -0.8587
 6743SOL    HW121445   2.707   2.376   7.896  0.5844  0.2081  0.0154
 6743SOL    HW221446   2.688   2.483   7.789 -0.7973 -0.1802 -0.1507
 6744SOL     OW21447   3.056   3.075   7.992 -0.4055  0.7192  0.0801
 6744SOL    HW121448   3.122   3.105   7.928  1.2886  1.5689  2.1105
 6744SOL    HW221449   3.005   3.154   8.011 -0.0458  0.7997  0.7323
 6745SOL     OW21450   2.668   1.885   0.158  0.2018 -0.3296 -0.0559
 6745SOL    HW121451   2.629   1.889   0.245  1.0564  0.2179  0.3107
 6745SOL    HW221452   2.593   1.873   0.099 -0.1637 -3.7778  0.9224
 6746SOL     OW21453   3.172   3.612   7.735  0.1705  0.1706 -0.1302
 6746SOL    HW121454   3.214   3.562   7.805  0.7190  0.2175 -0.4198
 6746SOL    HW221455   3.124   3.546   7.685  0.8248 -0.0654 -0.4599
 6747SOL     OW21456   2.135   3.663   8.302 -0.1625  0.9630  0.0736
 6747SOL    HW121457   2.073   3.711   8.358 -0.4558  1.5919 -0.7783
 6747SOL    HW221458   2.103   3.676   8.213  0.6101  0.4221 -0.2947
 6748SOL     OW21459   3.748   2.693   8.532 -0.8911 -0.3352 -0.0558
 6748SOL    HW121460   3.714   2.764   8.587 -0.9464  0.3701 -0.9671
 6748SOL    HW221461   3.681   2.625   8.536 -1.6645  0.3740 -0.5307
 6749SOL     OW21462   2.092   2.681   7.714  0.5962  0.1315  0.1871
 6749SOL    HW121463   2.010   2.708   7.756 -0.3203 -2.5058  0.2913
 6749SOL    HW221464   2.064   2.638   7.633  1.8419 -0.9106  0.2787
 6750SOL     OW21465   3.728   2.756   8.211 -0.0187  0.4484  0.2543
 6750SOL    HW121466   3.657   2.803   8.170  0.8721  0.4989 -1.3034
 6750SOL    HW221467   3.689   2.715   8.289 -2.0301 -0.5106 -1.1854
 6751SOL     OW21468   2.921   3.542   7.237  0.0193 -0.4849  0.4477
 6751SOL    HW121469   2.846   3.486   7.255  0.5203 -1.1564  0.5236
 6751SOL    HW221470   2.967   3.499   7.165  1.5348 -1.3357  1.8325
 6752SOL     OW21471   3.812   3.107   7.617 -0.7424  0.1393  0.2168
 6752SOL    HW121472   3.830   3.195   7.584  0.2684 -0.0064  0.3329
 6752SOL    HW221473   3.898   3.063   7.615 -1.4065 -1.1841 -0.8539
 6753SOL     OW21474   1.978   3.716   7.701 -0.9232  0.3148  0.0387
 6753SOL    HW121475   2.022   3.791   7.742 -1.3556 -0.3414  1.7545
 6753SOL    HW221476   1.887   3.722   7.730 -0.8477 -1.1788  0.6444
 6754SOL     OW21477   3.331   2.166   7.971  0.2869  0.0489  0.0317
 6754SOL    HW121478   3.258   2.143   7.913 -0.3744 -0.0157  0.8558
 6754SOL    HW221479   3.334   2.262   7.969 -0.5582  0.1067  0.8450
 6755SOL     OW21480   1.844   3.511   8.637 -0.9060  0.4020 -0.1314
 6755SOL    HW121481   1.827   3.487   8.546 -2.1338  0.1566  0.1369
 6755SOL    HW221482   1.833   3.606   8.638  1.3271  0.7128 -0.6620
 6756SOL     OW21483   2.435   3.993   8.268 -0.4350 -0.0579 -0.3807
 6756SOL    HW121484   2.355   4.046   8.269 -0.6187 -0.3310  1.2162
 6756SOL    HW221485   2.506   4.057   8.263 -0.6467  0.4160  1.7553
 6757SOL     OW21486   2.243   2.486   8.175  0.1626  0.2282  0.5219
 6757SOL    HW121487   2.203   2.460   8.092  1.8285  0.5059 -0.3970
 6757SOL    HW221488   2.170   2.518   8.228 -1.1417 -1.2953 -0.2884
 6758SOL     OW21489   2.054   1.979   7.222  0.0373  0.3105  0.0380
 6758SOL    HW121490   2.080   2.057   7.271 -0.7886  0.0550  0.9268
 6758SOL    HW221491   2.038   2.010   7.133  1.3558  0.8315 -0.0324
 6759SOL     OW21492   2.954   3.377   8.564 -0.1450 -0.1452  0.3477
 6759SOL    HW121493   3.010   3.416   8.632 -0.7681 -0.1772  0.8876
 6759SOL    HW221494   2.976   3.427   8.485 -0.7231  1.1553  0.9649
 6760SOL     OW21495   2.600   3.389   8.191 -1.1410  0.4864  0.3563
 6760SOL    HW121496   2.600   3.469   8.140  0.5493 -0.8891 -1.9942
 6760SOL    HW221497   2.692   3.364   8.197 -1.3106  0.1757  3.5756
 6761SOL     OW21498   2.758   2.377   8.340 -0.0170 -0.7897 -0.1330
 6761SOL    HW121499   2.835   2.385   8.397  0.8599  1.4768 -1.4970
 6761SOL    HW221500   2.789   2.324   8.266  1.0732  1.9214 -1.7821
 6762SOL     OW21501   2.599   1.889   7.751  0.2994  1.1625  0.3889
 6762SOL    HW121502   2.556   1.817   7.706  1.1237  1.2948 -0.6596
 6762SOL    HW221503   2.528   1.934   7.798 -0.3970  0.3382  0.1460
 6763SOL     OW21504   3.369   3.217   7.346  0.4569  0.1418 -0.5728
 6763SOL    HW121505   3.312   3.290   7.370 -0.2109 -1.0239  1.6580
 6763SOL    HW221506   3.447   3.258   7.309 -0.7390  1.8730 -1.2970
 6764SOL     OW21507   2.271   1.615   7.837 -0.4973 -0.0582 -0.1100
 6764SOL    HW121508   2.339   1.613   7.770  1.2019 -0.2550  1.5245
 6764SOL    HW221509   2.281   1.700   7.879  0.0033 -0.7919  1.3418
 6765SOL     OW21510   3.104   1.859   7.845 -0.2866  0.6697  0.6954
 6765SOL    HW121511   3.190   1.826   7.870 -0.2802  0.4201  0.3523
 6765SOL    HW221512   3.120   1.950   7.820  0.4578 -0.1700 -2.3058
 6766SOL     OW21513   3.077   3.700   8.123 -0.1474 -0.4061 -0.0923
 6766SOL    HW121514   3.084   3.793   8.101  1.2295 -0.6260 -0.7157
 6766SOL    HW221515   2.995   3.671   8.081 -0.2987  0.3973 -0.3621
 6767SOL     OW21516   2.082   3.009   8.621 -0.4184  0.1796  0.0957
 6767SOL    HW121517   2.115   2.919   8.630 -0.1532  0.2600 -0.0458
 6767SOL    HW221518   2.046   3.013   8.533 -1.3547 -0.0788  0.4566
 6768SOL     OW21519   3.366   3.702   8.395 -0.2636  0.0458 -0.0144
 6768SOL    HW121520   3.420   3.774   8.362  1.1751 -0.7131  0.5812
 6768SOL    HW221521   3.285   3.744   8.424 -0.4020  1.1087 -1.7587
 6769SOL     OW21522   2.520   2.013   7.103 -0.6687  0.1220  0.3028
 6769SOL    HW121523   2.539   2.002   7.196 -0.0624 -1.8075 -0.0146
 6769SOL    HW221524   2.455   1.946   7.083 -1.2746  0.9224 -0.5588
 6770SOL     OW21525   2.431   1.782   8.836 -0.4424  0.2334  0.4221
 6770SOL    HW121526   2.456   1.698   8.874 -1.4009 -0.5747 -0.6627
 6770SOL    HW221527   2.358   1.813   8.890 -1.0761 -0.3846 -0.0496
 6771SOL     OW21528   3.010   2.065   8.327  0.7640  0.3053 -0.1765
 6771SOL    HW121529   2.945   2.097   8.265  1.5176  0.6433 -0.8206
 6771SOL    HW221530   3.074   2.018   8.272  1.5447  0.7801  0.3008
 6772SOL     OW21531   2.483   2.112   8.771  0.4652 -0.1227 -0.0594
 6772SOL    HW121532   2.531   2.096   8.690  1.8725 -1.7918  1.0343
 6772SOL    HW221533   2.400   2.150   8.743  1.0319 -0.3975 -2.2569
 6773SOL     OW21534   3.520   3.082   8.002 -0.5259  0.0441 -0.4088
 6773SOL    HW121535   3.451   3.113   7.943 -0.8110  0.9873  0.3922
 6773SOL    HW221536   3.540   3.158   8.057  0.0003 -0.7063  0.4602
 6774SOL     OW21537   3.357   2.686   8.354  0.2302 -0.0702 -0.0049
 6774SOL    HW121538   3.441   2.640   8.353  0.2141 -0.1801 -2.8461
 6774SOL    HW221539   3.375   2.769   8.310 -0.6794  0.9390  1.4440
 6775SOL     OW21540   3.944   2.581   8.273  0.1171 -0.2353  0.3449
 6775SOL    HW121541   3.898   2.498   8.279 -0.1683 -0.2219 -1.1079
 6775SOL    HW221542   3.875   2.645   8.254  0.7309 -0.3483 -2.7774
 6776SOL     OW21543   2.558   3.073   7.301 -0.0500 -0.0358  0.1552
 6776SOL    HW121544   2.567   3.140   7.233 -0.9453 -0.9651 -0.9256
 6776SOL    HW221545   2.648   3.047   7.320  0.2351  0.4346 -0.4979
 6777SOL     OW21546   3.820   3.365   7.919  0.0423 -0.0893 -0.8504
 6777SOL    HW121547   3.844   3.456   7.900 -0.5590 -0.2030 -2.2676
 6777SOL    HW221548   3.896   3.314   7.891  0.2548 -0.0491 -0.3493
 6778SOL     OW21549   3.038   2.450   7.770 -0.2739  0.4574 -0.3644
 6778SOL    HW121550   3.020   2.449   7.676 -0.8789  0.2943 -0.2487
 6778SOL    HW221551   2.955   2.425   7.811  0.4170 -1.1226  0.1578
 6779SOL     OW21552   2.315   1.814   8.053  0.3788 -0.4169  0.1474
 6779SOL    HW121553   2.387   1.783   8.108  0.7095  0.5832  0.2968
 6779SOL    HW221554   2.342   1.901   8.024 -0.4575 -0.3207 -0.3805
 6780SOL     OW21555   3.897   3.015   0.092  0.1468 -0.0951  0.2956
 6780SOL    HW121556   3.917   3.059   0.009 -0.4834  0.9394  0.6738
 6780SOL    HW221557   3.801   3.017   0.097  0.1449 -0.8670  0.6804
 6781SOL     OW21558   3.143   3.068   8.706 -0.3300  0.2482 -0.8583
 6781SOL    HW121559   3.130   3.059   8.801  1.9602  0.9287 -0.4273
 6781SOL    HW221560   3.060   3.102   8.674 -1.0718  0.2685  0.9398
 6782SOL     OW21561   3.463   2.850   8.143 -0.4586 -0.2791 -0.4268
 6782SOL    HW121562   3.444   2.784   8.077  2.0102  0.0902 -1.6444
 6782SOL    HW221563   3.478   2.930   8.093 -0.0899  0.3954  0.7276
 6783SOL     OW21564   2.350   2.980   7.908 -0.2329  0.0611  0.3728
 6783SOL    HW121565   2.366   3.062   7.955 -1.1813  1.0429 -0.9424
 6783SOL    HW221566   2.277   2.940   7.956  0.8706 -0.5216  1.6073
 6784SOL     OW21567   2.312   3.413   8.677 -0.3036  0.1930  0.1099
 6784SOL    HW121568   2.235   3.364   8.706 -0.5017 -0.6366 -1.6309
 6784SOL    HW221569   2.367   3.347   8.635  0.8413  0.9786  0.3434
 6785SOL     OW21570   3.288   2.220   8.626  0.4489  0.2472  0.0249
 6785SOL    HW121571   3.350   2.243   8.695  0.6925  0.8357 -0.3775
 6785SOL    HW221572   3.300   2.288   8.559  0.0760 -0.1976 -0.5091
 6786SOL     OW21573   2.117   3.216   8.788 -0.0654 -0.2953  0.2309
 6786SOL    HW121574   2.198   3.175   8.819  0.5186  0.8768  0.2863
 6786SOL    HW221575   2.075   3.148   8.735  0.3955 -1.2921  1.1147
 6787SOL     OW21576   2.188   2.815   8.049 -0.0355 -0.4482  0.0573
 6787SOL    HW121577   2.098   2.810   8.081  0.4854  0.9971  1.9401
 6787SOL    HW221578   2.191   2.756   7.974 -2.8268  0.2987 -0.7281
 6788SOL     OW21579   2.383   2.593   8.476  0.0774 -0.1580  0.3831
 6788SOL    HW121580   2.415   2.594   8.386  1.1289 -0.7246  0.7301
 6788SOL    HW221581   2.427   2.667   8.517  0.2042 -0.3645  0.6219
 6789SOL     OW21582   3.325   3.473   7.896 -0.6317 -0.1148  0.1725
 6789SOL    HW121583   3.408   3.510   7.864 -0.5892 -0.4173 -0.0775
 6789SOL    HW221584   3.326   3.490   7.990  0.2197 -1.0609  0.3546
 6790SOL     OW21585   3.321   3.199   8.320 -0.2454 -0.2290  0.2063
 6790SOL    HW121586   3.395   3.220   8.263 -0.0317  1.2884  0.9800
 6790SOL    HW221587   3.357   3.142   8.387  0.2732  0.5824  0.6359
 6791SOL     OW21588   3.774   2.958   7.847  0.4204  0.3466  0.1832
 6791SOL    HW121589   3.708   2.974   7.915  1.3871 -0.7153  1.4140
 6791SOL    HW221590   3.760   3.029   7.784 -1.0525  0.8857  1.0586
 6792SOL     OW21591   1.809   3.416   8.390 -0.4948  0.0859  0.5363
 6792SOL    HW121592   1.773   3.436   8.304  0.4052  4.6119  0.9622
 6792SOL    HW221593   1.899   3.389   8.373 -0.6435 -0.0888  0.0129
 6793SOL     OW21594   2.471   2.802   8.673 -0.1623 -0.0941  0.0074
 6793SOL    HW121595   2.495   2.885   8.633  0.4356  1.0770  2.5713
 6793SOL    HW221596   2.477   2.818   8.767 -0.2302 -3.0006  0.6114
 6794SOL     OW21597   3.207   2.808   8.639  0.6265 -0.0822  0.2147
 6794SOL    HW121598   3.208   2.828   8.546 -1.6420  0.6283  0.2885
 6794SOL    HW221599   3.185   2.892   8.681  2.7682 -0.0936  1.5323
 6795SOL     OW21600   2.523   2.186   7.579  0.1175 -0.4928 -0.2177
 6795SOL    HW121601   2.559   2.261   7.625 -1.5042 -1.4176  2.8683
 6795SOL    HW221602   2.429   2.203   7.575 -0.0242 -1.4114 -1.4070
 6796SOL     OW21603   2.221   1.866   0.118  0.0031  0.1719 -0.0688
 6796SOL    HW121604   2.188   1.777   0.106 -0.7416  0.4958 -0.5597
 6796SOL    HW221605   2.153   1.922   0.078  1.3235  0.8532 -1.4622
 6797SOL     OW21606   1.760   3.169   8.617  0.2685  0.0500 -0.8959
 6797SOL    HW121607   1.733   3.224   8.543 -0.1412 -0.9106 -1.4816
 6797SOL    HW221608   1.814   3.227   8.671  0.8755  0.6902 -2.1304
 6798SOL     OW21609   2.635   2.502   8.758  0.1039 -0.5588 -0.4737
 6798SOL    HW121610   2.547   2.491   8.721  0.1046  1.7867 -1.3499
 6798SOL    HW221611   2.675   2.570   8.704  1.4766  0.3861  1.6080
 6799SOL     OW21612   2.523   2.057   8.229 -0.3171  0.7422 -0.0797
 6799SOL    HW121613   2.581   2.053   8.305  0.0536  1.3201 -0.3217
 6799SOL    HW221614   2.471   2.136   8.243  0.9943  1.8937 -1.2694
 6800SOL     OW21615   3.672   2.496   7.944 -0.2300 -0.1982 -0.3164
 6800SOL    HW121616   3.739   2.553   7.905  0.6905 -1.3130 -0.4042
 6800SOL    HW221617   3.589   2.538   7.919  0.4018  1.9724  0.9528
 6801SOL     OW21618   2.949   2.836   0.060  0.3601  0.4767 -0.0228
 6801SOL    HW121619   2.892   2.832  -0.017  0.0676  0.5210  0.1902
 6801SOL    HW221620   2.988   2.923   0.056 -0.2983  0.7937  0.3318
 6802SOL     OW21621   3.579   2.441   7.547  0.3496 -0.2758 -0.1150
 6802SOL    HW121622   3.518   2.466   7.617 -0.3110 -1.3715 -0.2651
 6802SOL    HW221623   3.553   2.495   7.472 -1.8189 -2.0998 -0.7913
 6803SOL     OW21624   2.993   2.750   7.675 -0.2103 -0.3330  0.3514
 6803SOL    HW121625   2.954   2.752   7.762 -1.7725 -0.0947 -0.3083
 6803SOL    HW221626   2.950   2.676   7.631  1.0370 -0.8669 -0.0230
 6804SOL     OW21627   3.344   3.628   8.129 -0.8526 -0.4244  0.2310
 6804SOL    HW121628   3.369   3.669   8.212  0.1833  0.8531 -0.6657
 6804SOL    HW221629   3.250   3.645   8.121 -1.0101 -0.7604  1.2349
 6805SOL     OW21630   1.983   2.554   8.341 -0.1915 -0.0335  0.1449
 6805SOL    HW121631   1.977   2.607   8.420 -1.9405  0.9223 -0.5940
 6805SOL    HW221632   1.948   2.469   8.366  0.2160 -0.0607  0.6464
 6806SOL     OW21633   2.189   2.455   8.591  0.2206  0.2926 -0.1008
 6806SOL    HW121634   2.261   2.493   8.540  0.2629 -1.3725 -1.3870
 6806SOL    HW221635   2.184   2.509   8.670  0.7051  2.4761 -1.4767
 6807SOL     OW21636   3.433   1.657   8.569  0.6597  0.5608 -0.2402
 6807SOL    HW121637   3.505   1.641   8.629  2.0860 -0.3981 -2.0858
 6807SOL    HW221638   3.355   1.661   8.624  1.8063 -0.9102  1.5835
 6808SOL     OW21639   2.195   2.978   7.631 -0.4457  0.1282 -0.0762
 6808SOL    HW121640   2.115   3.020   7.662 -0.5763 -0.0828 -0.1239
 6808SOL    HW221641   2.185   2.885   7.655  0.6317  0.4050  1.6559
 6809SOL     OW21642   1.493   3.551   8.415 -0.4886  1.0008  0.3987
 6809SOL    HW121643   1.457   3.627   8.370 -0.8108  0.0376 -1.0460
 6809SOL    HW221644   1.524   3.494   8.345  0.4806  0.1507  1.4781
 6810SOL     OW21645   2.349   3.618   8.472 -0.3213  0.5486 -0.1338
 6810SOL    HW121646   2.319   3.555   8.539  0.4635  0.1542 -0.1407
 6810SOL    HW221647   2.274   3.627   8.413 -0.2555 -0.8638 -0.4847
 6811SOL     OW21648   2.752   2.640   8.486 -0.3611  0.4469  0.1061
 6811SOL    HW121649   2.698   2.582   8.432 -0.3384  1.0370 -0.5713
 6811SOL    HW221650   2.828   2.587   8.510 -1.1143 -0.3156  0.8691
 6812SOL     OW21651   2.227   2.179   8.677 -0.4260 -0.7269  0.2825
 6812SOL    HW121652   2.203   2.114   8.612  0.3860 -0.5897 -0.1720
 6812SOL    HW221653   2.242   2.259   8.627 -0.5562 -0.4148  0.7309
 6813SOL     OW21654   2.849   2.211   8.137  0.2326 -0.1070 -0.3656
 6813SOL    HW121655   2.769   2.197   8.085 -0.1499  1.4939 -0.2520
 6813SOL    HW221656   2.893   2.284   8.094 -0.1424  1.3306  1.5568
 6814SOL     OW21657   3.585   2.476   8.645  0.3504 -0.2191  0.1724
 6814SOL    HW121658   3.620   2.436   8.725  0.6220  0.0604  0.1948
 6814SOL    HW221659   3.524   2.543   8.676  0.5229 -0.0495  0.1479
 6815SOL     OW21660   2.355   2.517   0.013  0.4123 -0.0382  0.0759
 6815SOL    HW121661   2.357   2.484   0.102 -0.7951 -0.3145  0.0071
 6815SOL    HW221662   2.370   2.611   0.022  2.7965 -0.3679  0.3460
 6816SOL     OW21663   2.585   3.328   8.518 -0.0504  0.0090  0.0683
 6816SOL    HW121664   2.604   3.422   8.517 -0.8716  0.2507  1.8476
 6816SOL    HW221665   2.521   3.315   8.448  1.4935  0.4047 -1.4559
 6817SOL     OW21666   2.214   2.223   7.612 -0.4437  0.3871  0.2213
 6817SOL    HW121667   2.209   2.310   7.650  0.2766  0.5368  0.0032
 6817SOL    HW221668   2.181   2.164   7.680 -1.6743  0.8893  0.0853
 6818SOL     OW21669   2.034   2.843   0.223  0.3671  0.8313 -0.3411
 6818SOL    HW121670   2.016   2.845   0.129 -0.1054  0.9796 -0.2514
 6818SOL    HW221671   2.091   2.919   0.238  0.1878  0.9910 -0.4583
 6819SOL     OW21672   3.324   2.782   0.130  0.3970 -0.1453 -0.6194
 6819SOL    HW121673   3.256   2.723   0.163 -0.9023  0.0989 -2.6907
 6819SOL    HW221674   3.300   2.868   0.165  0.2507 -0.2470 -0.4671
 6820SOL     OW21675   2.851   2.689   7.944  0.1899  0.1317 -0.0549
 6820SOL    HW121676   2.790   2.621   7.916 -1.3598  1.2770  0.4369
 6820SOL    HW221677   2.835   2.699   8.038  2.1352 -0.4912  0.3880
 6821SOL     OW21678   3.716   3.550   8.578  0.3015 -0.4105  0.3904
 6821SOL    HW121679   3.739   3.586   8.492 -1.7699  1.8746  0.6942
 6821SOL    HW221680   3.800   3.520   8.614  1.5159  0.3783 -1.6027
 6822SOL     OW21681   3.347   3.921   8.650 -0.5037 -0.4266  0.6964
 6822SOL    HW121682   3.435   3.895   8.676 -0.6382 -1.3314  0.2483
 6822SOL    HW221683   3.312   3.965   8.728 -0.0658 -1.0562  1.2590
 6823SOL     OW21684   1.686   2.776   8.785 -0.4135  0.5003  0.2130
 6823SOL    HW121685   1.626   2.701   8.790 -0.9017  0.9305  1.0389
 6823SOL    HW221686   1.628   2.852   8.778  0.0808  0.7788 -1.1565
 6824SOL     OW21687   3.756   2.349   8.133 -0.3334  0.1980 -0.2024
 6824SOL    HW121688   3.697   2.389   8.197  1.3651  1.4747  0.6467
 6824SOL    HW221689   3.745   2.402   8.054 -0.1807  0.5547  0.0139
 6825SOL     OW21690   3.564   3.427   7.573  0.3505  0.1424 -0.6646
 6825SOL    HW121691   3.572   3.340   7.613  0.8410  0.4140 -0.1686
 6825SOL    HW221692   3.533   3.483   7.644  0.5598  0.4880 -0.8466
 6826SOL     OW21693   2.784   3.022   8.243  0.2055 -0.1685 -0.0220
 6826SOL    HW121694   2.843   3.061   8.178  3.2805 -1.2434  1.8923
 6826SOL    HW221695   2.784   2.929   8.222 -0.8715 -0.1918  0.0363
 6827SOL     OW21696   2.678   3.391   7.310  0.1348 -0.1114 -0.3365
 6827SOL    HW121697   2.624   3.370   7.234  0.8577  0.0171 -0.8905
 6827SOL    HW221698   2.723   3.309   7.330  0.0298 -0.1150 -0.1046
 6828SOL     OW21699   3.815   1.898   8.379 -0.5463 -0.4196 -0.2633
 6828SOL    HW121700   3.825   1.807   8.352 -0.5727 -0.6880  0.5992
 6828SOL    HW221701   3.727   1.922   8.350 -0.0047 -0.1882 -1.8084
 6829SOL     OW21702   2.093   2.230   8.199  1.2026 -0.6607 -0.1225
 6829SOL    HW121703   2.026   2.269   8.254  2.2488  2.6763 -0.9989
 6829SOL    HW221704   2.176   2.257   8.237  1.9716 -0.1721 -2.0121
 6830SOL     OW21705   2.782   3.175   6.961 -0.1581 -0.3055  0.2518
 6830SOL    HW121706   2.842   3.242   6.928 -0.6397  0.0297  0.0541
 6830SOL    HW221707   2.769   3.116   6.887 -2.2277  1.1340 -0.6053
 6831SOL     OW21708   3.239   3.023   0.221  1.0672  0.3039 -0.3592
 6831SOL    HW121709   3.162   3.073   0.193  0.3676 -1.2569 -1.3810
 6831SOL    HW221710   3.299   3.089   0.256 -1.0810  1.4836  1.3520
 6832SOL     OW21711   2.807   2.946   7.890  0.5757 -0.0545 -0.3556
 6832SOL    HW121712   2.893   2.983   7.914  0.6752 -0.6813  0.2996
 6832SOL    HW221713   2.818   2.852   7.901 -0.0468 -0.1809 -0.7940
 6833SOL     OW21714   3.365   3.850   7.352  0.4303  0.1753  0.2624
 6833SOL    HW121715   3.386   3.842   7.445  0.5700 -1.2935  0.1193
 6833SOL    HW221716   3.428   3.793   7.308  0.4161  0.9154 -0.7445
 6834SOL     OW21717   3.601   2.964   8.578  0.0280 -0.2119  0.2262
 6834SOL    HW121718   3.522   3.012   8.555  0.3078  1.5916  2.6964
 6834SOL    HW221719   3.663   2.985   8.507 -0.3715  1.8191  0.4222
 6835SOL     OW21720   2.863   3.109   8.548 -0.6958 -0.2443 -0.2092
 6835SOL    HW121721   2.895   3.199   8.546  3.4307 -1.5253 -1.3470
 6835SOL    HW221722   2.848   3.087   8.456  1.8312 -1.6422 -0.3963
 6836SOL     OW21723   3.227   2.523   8.580 -0.3111 -0.2298 -0.0061
 6836SOL    HW121724   3.292   2.579   8.538  0.7956 -1.5917 -0.1809
 6836SOL    HW221725   3.176   2.583   8.635 -0.6806  1.3061 -1.9223
 6837SOL     OW21726   2.525   2.815   7.760 -0.4186 -0.0092 -0.2604
 6837SOL    HW121727   2.606   2.861   7.781 -0.4932 -0.9910  2.6877
 6837SOL    HW221728   2.457   2.865   7.806 -0.7389 -1.8618  1.4247
 6838SOL     OW21729   3.778   2.403   8.836 -0.1187  0.6942  0.1991
 6838SOL    HW121730   3.841   2.438   8.773 -0.1040  1.0684  0.4165
 6838SOL    HW221731   3.796   2.450   8.917  0.2500 -0.2053  0.6500
 6839SOL     OW21732   2.544   2.844   7.488  0.2987 -0.0149 -0.2521
 6839SOL    HW121733   2.552   2.939   7.483  0.4750  0.0151  0.5225
 6839SOL    HW221734   2.540   2.825   7.582 -1.3268 -0.6409 -0.4248
 6840SOL     OW21735   2.709   2.265   0.382  0.6372 -0.4709  0.4928
 6840SOL    HW121736   2.699   2.274   0.287 -1.4929 -0.2762  0.6755
 6840SOL    HW221737   2.721   2.355   0.413 -0.2925 -0.3484  0.5286
 6841SOL     OW21738   1.916   2.252   7.553 -0.1650 -0.3104 -0.4899
 6841SOL    HW121739   1.856   2.193   7.598  0.0180  0.1443  0.3629
 6841SOL    HW221740   1.982   2.194   7.515 -0.5276 -0.7256 -0.4983
 6842SOL     OW21741   2.097   1.406   7.733 -0.3027  0.1323 -0.1024
 6842SOL    HW121742   2.053   1.450   7.660  0.4630  1.3662  0.1562
 6842SOL    HW221743   2.147   1.475   7.776 -0.3601 -0.6671  1.3171
 6843SOL     OW21744   3.313   3.099   7.583  0.5192 -0.2053  0.5787
 6843SOL    HW121745   3.384   3.041   7.608  0.7981 -0.6275 -1.1186
 6843SOL    HW221746   3.322   3.109   7.488 -1.5647 -0.1157  0.3519
 6844SOL     OW21747   2.514   3.081   8.624  0.1980  0.0796  0.0469
 6844SOL    HW121748   2.458   3.069   8.548  1.8123  0.5711 -1.2786
 6844SOL    HW221749   2.567   3.158   8.603  1.9478 -0.8533  0.8638
 6845SOL     OW21750   3.170   3.487   8.759  0.4724 -0.3501 -0.4494
 6845SOL    HW121751   3.174   3.467   8.853 -0.7040 -0.2736 -0.3628
 6845SOL    HW221752   3.247   3.541   8.743  2.3402 -2.7824 -0.1631
 6846SOL     OW21753   2.701   4.059   0.560  0.3142  0.4012 -0.1193
 6846SOL    HW121754   2.711   4.134   0.502 -1.3084  0.3472 -0.5231
 6846SOL    HW221755   2.770   3.998   0.533 -0.9297  0.0042 -2.6392
 6847SOL     OW21756   3.623   3.026   8.848 -0.3350 -0.1387 -0.2696
 6847SOL    HW121757   3.606   2.986   8.762 -0.6448  2.1237 -1.3431
 6847SOL    HW221758   3.555   3.093   8.857  0.9135  1.0402  0.7907
 6848SOL     OW21759   2.955   2.470   8.085  0.3178 -0.3453 -0.0172
 6848SOL    HW121760   2.945   2.517   8.002  2.6434 -0.6828 -0.5636
 6848SOL    HW221761   2.958   2.539   8.151 -3.0450 -0.1265  0.0798
 6849SOL     OW21762   2.751   2.740   8.202  0.1223 -0.5249  0.4030
 6849SOL    HW121763   2.658   2.717   8.215  0.2059 -0.3828  1.2650
 6849SOL    HW221764   2.788   2.742   8.290  0.6777  0.5847  0.1527
 6850SOL     OW21765   3.793   2.717   0.085  0.1064  0.2309 -0.7007
 6850SOL    HW121766   3.824   2.788   0.142  0.7011 -0.0129 -0.7148
 6850SOL    HW221767   3.830   2.738  -0.001 -2.1067  1.4933 -1.4332
 6851SOL     OW21768   2.836   3.002   7.577  0.2180 -0.2100 -0.0761
 6851SOL    HW121769   2.905   2.950   7.617  1.1157 -0.8547 -2.2933
 6851SOL    HW221770   2.877   3.087   7.560  0.4285 -0.5043 -1.1419
 6852SOL     OW21771   2.677   3.669   8.786 -0.3743  0.0411  0.2459
 6852SOL    HW121772   2.681   3.664   8.691  0.2639 -0.4428  0.2917
 6852SOL    HW221773   2.588   3.641   8.807 -0.2499 -0.6916 -0.1638
 6853SOL     OW21774   2.805   2.870   8.673  0.2064  0.0360 -0.1490
 6853SOL    HW121775   2.789   2.797   8.614  0.2667 -1.0451  1.1385
 6853SOL    HW221776   2.792   2.948   8.619  1.7063 -0.9102 -1.9693
 6854SOL     OW21777   2.331   2.287   7.919 -0.0579 -0.0505 -0.6347
 6854SOL    HW121778   2.333   2.378   7.888  0.9580  0.9345  1.9572
 6854SOL    HW221779   2.238   2.268   7.930 -0.2992  0.5453 -1.5090
 6855SOL     OW21780   3.629   3.656   8.107  0.5329 -0.4258  0.1063
 6855SOL    HW121781   3.586   3.735   8.140  0.7865 -0.2082 -0.0794
 6855SOL    HW221782   3.559   3.606   8.065  0.4231 -0.1710 -0.0166
 6856SOL     OW21783   1.968   3.011   7.743 -0.3292  0.4314 -0.7251
 6856SOL    HW121784   1.931   3.092   7.708 -0.2390  1.1330  0.7190
 6856SOL    HW221785   1.894   2.967   7.784 -0.2169  0.1634 -0.8079
 6857SOL     OW21786   3.836   2.319   8.448  0.1633 -0.2792  0.6438
 6857SOL    HW121787   3.868   2.366   8.525  0.6431 -2.2738  1.7363
 6857SOL    HW221788   3.742   2.339   8.446  0.5780  1.8908  0.1493
 6858SOL     OW21789   2.528   2.525   8.241  0.8356  0.1766 -0.2489
 6858SOL    HW121790   2.571   2.444   8.270 -1.2666 -0.5335  1.0775
 6858SOL    HW221791   2.447   2.495   8.200 -1.1428  1.6146  2.3440
 6859SOL     OW21792   3.880   3.241   8.430  0.2438  0.3712 -0.2071
 6859SOL    HW121793   3.889   3.295   8.352 -2.0175 -0.6798 -1.2797
 6859SOL    HW221794   3.823   3.291   8.488  0.3974  0.3186 -0.0060
 6860SOL     OW21795   1.841   2.302   8.356 -0.1075 -0.1426 -0.5687
 6860SOL    HW121796   1.764   2.282   8.304 -1.4323  0.9489  0.8941
 6860SOL    HW221797   1.810   2.303   8.447  1.9041 -0.9612  0.2100
 6861SOL     OW21798   2.713   3.261   7.622  0.1076 -0.3464 -0.1125
 6861SOL    HW121799   2.639   3.289   7.568 -0.3629 -0.9157  0.2340
 6861SOL    HW221800   2.687   3.177   7.659 -0.6681  1.1350  3.0521
 6862SOL     OW21801   3.577   2.457   8.370  0.1407 -0.0180  0.0821
 6862SOL    HW121802   3.497   2.409   8.350  0.7664 -0.8092 -0.6085
 6862SOL    HW221803   3.584   2.455   8.465 -0.1967 -0.7180  0.0938
 6863SOL     OW21804   3.113   1.717   0.206  0.2331  0.4131  0.4802
 6863SOL    HW121805   3.111   1.636   0.156  1.8335  0.2906  0.5640
 6863SOL    HW221806   3.149   1.692   0.291  0.5715  1.1567  0.5658
 6864SOL     OW21807   2.878   3.281   8.079 -0.3685 -0.0460 -0.0840
 6864SOL    HW121808   2.933   3.314   8.151 -0.4344  1.4883 -0.6897
 6864SOL    HW221809   2.865   3.358   8.023 -2.5852 -0.5295 -0.3015
 6865SOL     OW21810   2.443   3.560   0.009  0.4662  0.1699 -0.0214
 6865SOL    HW121811   2.430   3.512   0.091 -2.0573  1.3945  0.4104
 6865SOL    HW221812   2.414   3.498  -0.059  1.1102 -0.3188  0.1411
 6866SOL     OW21813   3.363   1.765   7.537  0.4960 -0.4774 -0.6838
 6866SOL    HW121814   3.321   1.680   7.549  0.2332 -0.4852 -1.6002
 6866SOL    HW221815   3.307   1.826   7.585  0.6429 -0.8027 -0.0874
 6867SOL     OW21816   3.440   2.653   7.925  0.9575  0.0052 -0.0223
 6867SOL    HW121817   3.420   2.684   7.836 -0.6469  3.0625  1.2575
 6867SOL    HW221818   3.366   2.596   7.947  0.7000  0.2520 -0.2283
 6868SOL     OW21819   3.910   2.058   8.565 -0.0379 -0.1007  0.0881
 6868SOL    HW121820   3.881   1.994   8.500 -0.3879  0.7152 -0.5655
 6868SOL    HW221821   3.883   2.143   8.530  1.6695  0.5583  0.2340
 6869SOL     OW21822   1.828   2.681   7.797  0.2729  0.1176 -0.4889
 6869SOL    HW121823   1.776   2.606   7.827 -2.6358  2.1433 -0.1133
 6869SOL    HW221824   1.783   2.712   7.719  1.7719  1.1657 -0.9802
 6870SOL     OW21825   2.757   3.556   7.533 -0.0790 -0.0729 -0.2345
 6870SOL    HW121826   2.724   3.497   7.464 -1.2624 -0.8266  0.9393
 6870SOL    HW221827   2.792   3.631   7.485  1.1516 -1.5406 -1.7738
 6871SOL     OW21828   1.797   4.497   0.092  0.5024  0.2669 -0.0555
 6871SOL    HW121829   1.808   4.468   0.183 -1.0448  1.3900  0.5321
 6871SOL    HW221830   1.875   4.548   0.073  0.1604  1.3097  1.1983
 6872SOL     OW21831   1.803   4.111   1.196 -0.3159  0.1131  0.1001
 6872SOL    HW121832   1.852   4.059   1.260  2.3084 -0.0286 -1.8563
 6872SOL    HW221833   1.834   4.079   1.111 -2.7504  1.1407 -1.2727
 6873SOL     OW21834   1.558   3.796   1.092  0.0986  0.1984  0.0715
 6873SOL    HW121835   1.539   3.715   1.044  0.9418 -0.1488  0.3031
 6873SOL    HW221836   1.562   3.768   1.184 -2.5709  1.0284  0.5317
 6874SOL     OW21837   2.896   4.956   1.470  0.3588  0.4960  0.4500
 6874SOL    HW121838   2.959   5.018   1.432  0.0405  0.9746  0.7065
 6874SOL    HW221839   2.926   4.943   1.560  0.4408  0.2523  0.3887
 6875SOL     OW21840   3.469   5.375   0.887  0.1415  0.2940 -0.1501
 6875SOL    HW121841   3.523   5.313   0.936  0.0124  0.2573 -0.0528
 6875SOL    HW221842   3.390   5.326   0.865  0.3055  0.2323 -0.6180
 6876SOL     OW21843   2.972   4.561   0.776  0.0422  0.4524  0.2182
 6876SOL    HW121844   2.946   4.566   0.868  1.3862 -2.2197  0.8470
 6876SOL    HW221845   3.065   4.584   0.776  0.0574  0.4061 -0.4596
 6877SOL     OW21846   3.712   3.781   0.322 -0.0097  0.1707  0.1630
 6877SOL    HW121847   3.679   3.867   0.295 -0.5241  0.1376  0.6555
 6877SOL    HW221848   3.648   3.751   0.387  0.3248 -0.4569  0.2040
 6878SOL     OW21849   2.432   4.636   1.043  0.4318 -0.4928 -0.0769
 6878SOL    HW121850   2.385   4.711   1.008  1.2452  0.6056  1.1067
 6878SOL    HW221851   2.458   4.586   0.966 -2.2660 -0.9435 -0.8015
 6879SOL     OW21852   2.475   4.458   1.753  0.5722 -0.1042 -0.0438
 6879SOL    HW121853   2.436   4.510   1.682 -0.1833  0.8092  1.0011
 6879SOL    HW221854   2.417   4.382   1.761 -1.1236  1.2426  1.4957
 6880SOL     OW21855   2.731   5.503   0.786 -0.6227  0.4871 -0.2043
 6880SOL    HW121856   2.712   5.578   0.729  0.2830  0.9568  0.0778
 6880SOL    HW221857   2.752   5.432   0.726 -1.8528  0.3373 -0.4849
 6881SOL     OW21858   2.645   5.043   2.012  0.4459 -0.0398 -0.3000
 6881SOL    HW121859   2.711   4.994   1.963  1.0910  0.6782 -0.1673
 6881SOL    HW221860   2.690   5.122   2.040 -0.4012  0.3351  0.0299
 6882SOL     OW21861   2.263   4.856   1.014 -0.2052 -0.0688 -0.1098
 6882SOL    HW121862   2.263   4.943   1.053  0.3255 -0.5771  1.0499
 6882SOL    HW221863   2.292   4.871   0.924 -2.2042  1.2087 -0.5984
 6883SOL     OW21864   3.497   5.432   1.441 -0.1483  0.1948 -0.0199
 6883SOL    HW121865   3.420   5.482   1.413  0.8879  1.1281 -1.3262
 6883SOL    HW221866   3.470   5.340   1.434 -1.1219  0.5071 -0.4748
 6884SOL     OW21867   2.339   4.159   1.684  0.3642  0.8039 -0.3550
 6884SOL    HW121868   2.346   4.067   1.659 -2.1683 -0.0025  1.4917
 6884SOL    HW221869   2.322   4.204   1.602 -1.6509 -0.8836 -0.9669
 6885SOL     OW21870   3.493   3.884   1.053 -0.6137 -0.4093  0.5024
 6885SOL    HW121871   3.549   3.895   0.977 -0.7983  0.0627  0.4318
 6885SOL    HW221872   3.545   3.831   1.114  0.1506  0.5273  0.6858
 6886SOL     OW21873   1.950   5.345   0.882  0.0424  0.9440  0.3737
 6886SOL    HW121874   1.997   5.402   0.943  1.0610  0.2796  0.2324
 6886SOL    HW221875   1.973   5.378   0.796  0.8246  0.1866  0.2847
 6887SOL     OW21876   3.106   4.843   2.107 -0.1777  0.4061  0.1687
 6887SOL    HW121877   3.123   4.883   2.192  0.1058  0.7637 -0.0532
 6887SOL    HW221878   3.063   4.760   2.127  0.1449  0.3605  0.6703
 6888SOL     OW21879   1.739   5.060   0.754 -0.1272 -0.0369  0.8895
 6888SOL    HW121880   1.672   4.993   0.765  0.5211 -0.6871  0.9810
 6888SOL    HW221881   1.691   5.143   0.756 -1.1163 -0.5270 -0.5561
 6889SOL     OW21882   1.931   4.969   1.156  0.0705 -0.4379  0.2732
 6889SOL    HW121883   1.889   4.885   1.137 -2.7968  0.5800  1.6263
 6889SOL    HW221884   1.922   4.980   1.251 -1.2336  2.1172 -0.0544
 6890SOL     OW21885   2.806   5.884   1.000  0.3399 -0.5576  0.0041
 6890SOL    HW121886   2.722   5.838   0.994 -0.1931  0.0677  1.8883
 6890SOL    HW221887   2.814   5.907   1.093  1.3379  1.7409 -0.5754
 6891SOL     OW21888   2.234   5.458   0.389  0.0572  0.1793  0.3342
 6891SOL    HW121889   2.281   5.540   0.381  0.3328 -0.0534 -0.4983
 6891SOL    HW221890   2.266   5.419   0.471 -0.4968  1.1537  1.0281
 6892SOL     OW21891   1.625   4.346   1.011 -0.4601  0.1118 -0.1555
 6892SOL    HW121892   1.569   4.268   1.017 -2.3322  1.4620  1.2643
 6892SOL    HW221893   1.564   4.418   0.997  1.0058  1.5840  0.7154
 6893SOL     OW21894   3.649   4.815   0.203 -0.2438 -0.4968  0.2782
 6893SOL    HW121895   3.672   4.903   0.234 -0.5640 -0.4562  0.4101
 6893SOL    HW221896   3.720   4.760   0.235 -0.0222 -0.2797  0.1642
 6894SOL     OW21897   1.538   5.455   0.158 -0.2438  0.1162  0.4078
 6894SOL    HW121898   1.592   5.523   0.198  0.0561  0.3864 -0.4536
 6894SOL    HW221899   1.490   5.417   0.232 -0.8517  1.6417  0.8330
 6895SOL     OW21900   3.426   4.725   0.623  0.4815  0.2936  0.2627
 6895SOL    HW121901   3.506   4.703   0.671  0.6367  0.0351 -0.1104
 6895SOL    HW221902   3.442   4.693   0.534 -0.6524 -1.1874  0.5590
 6896SOL     OW21903   3.395   5.001   0.450 -0.6128  0.4583 -0.3746
 6896SOL    HW121904   3.385   4.968   0.539 -0.2334 -0.0646 -0.5167
 6896SOL    HW221905   3.328   4.955   0.399 -0.0569 -0.1583 -0.5806
 6897SOL     OW21906   2.171   4.614   1.697  0.2597  0.0926  0.5143
 6897SOL    HW121907   2.090   4.650   1.661  0.3094  0.2505  0.5586
 6897SOL    HW221908   2.144   4.536   1.745  0.2638 -0.4465 -0.3397
 6898SOL     OW21909   2.504   5.416   0.605  0.0835  0.1681  0.6783
 6898SOL    HW121910   2.495   5.348   0.671  1.5815 -1.1566 -0.4105
 6898SOL    HW221911   2.456   5.491   0.641 -1.7136 -1.4700  1.8516
 6899SOL     OW21912   3.215   4.727   1.662 -0.1403 -0.0943  0.3464
 6899SOL    HW121913   3.237   4.639   1.692  0.7316  0.0843  0.2547
 6899SOL    HW221914   3.192   4.717   1.570  1.1602 -0.0550  0.0074
 6900SOL     OW21915   2.875   3.571   0.492  0.1690 -0.1068 -0.2610
 6900SOL    HW121916   2.916   3.576   0.406 -0.7359 -1.7836 -0.8209
 6900SOL    HW221917   2.781   3.580   0.475  0.0798  1.3283  0.7666
 6901SOL     OW21918   2.147   4.835   1.359 -0.3321 -0.1160  0.3248
 6901SOL    HW121919   2.237   4.810   1.336  0.0069  1.0011  0.4001
 6901SOL    HW221920   2.153   4.927   1.385 -1.2008 -0.5077  2.0476
 6902SOL     OW21921   2.772   4.948   0.259 -0.0451 -0.4465  0.5000
 6902SOL    HW121922   2.686   4.946   0.217 -0.0134 -0.2072  0.4225
 6902SOL    HW221923   2.808   4.861   0.244  0.1813 -0.2027 -0.4189
 6903SOL     OW21924   2.762   5.239   1.652 -0.5629 -0.2400 -0.4330
 6903SOL    HW121925   2.783   5.234   1.559 -1.3297 -0.3947 -0.6013
 6903SOL    HW221926   2.699   5.169   1.667 -0.4932 -0.1808  0.1904
 6904SOL     OW21927   2.580   4.035   1.947  0.4009  0.0972 -0.0899
 6904SOL    HW121928   2.633   4.027   1.867  0.6535 -1.5513  0.2074
 6904SOL    HW221929   2.643   4.030   2.019  0.1420  1.3008  0.2480
 6905SOL     OW21930   3.446   5.688   1.056 -0.9579  0.4754  0.2460
 6905SOL    HW121931   3.463   5.618   1.119 -2.7534  0.7363  1.0904
 6905SOL    HW221932   3.528   5.699   1.009  0.6272  0.6421  2.8836
 6906SOL     OW21933   3.725   5.607   0.474  0.0702 -0.5015  0.1322
 6906SOL    HW121934   3.665   5.561   0.533 -0.8706 -0.1102 -0.4955
 6906SOL    HW221935   3.710   5.567   0.388  0.2726  0.0139 -0.1501
 6907SOL     OW21936   2.258   5.149   0.370 -0.3197 -0.3536  0.5927
 6907SOL    HW121937   2.209   5.208   0.313  1.0957  0.3873  0.0763
 6907SOL    HW221938   2.208   5.146   0.451 -0.7452  1.0852  0.4187
 6908SOL     OW21939   3.481   4.405   1.262 -0.4165  0.6139 -0.2353
 6908SOL    HW121940   3.390   4.378   1.249  0.1027 -1.5053  0.2245
 6908SOL    HW221941   3.531   4.324   1.258  1.5209  1.7676 -0.8174
 6909SOL     OW21942   3.717   5.485   0.240  0.0570 -0.2170 -0.7992
 6909SOL    HW121943   3.754   5.401   0.268  1.0635 -0.1383 -1.8163
 6909SOL    HW221944   3.754   5.499   0.152 -0.3112  1.1548 -0.7531
 6910SOL     OW21945   2.644   4.444   1.437 -0.4109  0.1410  0.1931
 6910SOL    HW121946   2.570   4.500   1.460 -1.5210 -1.1435 -0.1408
 6910SOL    HW221947   2.663   4.395   1.518  0.8348  1.2447  0.6142
 6911SOL     OW21948   2.920   4.154   1.988 -0.2966  0.5552 -0.2787
 6911SOL    HW121949   2.866   4.089   2.033 -0.4244  1.5792  1.1115
 6911SOL    HW221950   2.986   4.102   1.941  0.6692 -0.5897  2.1377
 6912SOL     OW21951   2.851   4.370   2.163  0.2374  0.1715 -0.2468
 6912SOL    HW121952   2.819   4.324   2.085 -2.2444 -1.0330  1.3382
 6912SOL    HW221953   2.906   4.306   2.208 -1.2961 -0.4982  0.7605
 6913SOL     OW21954   2.995   4.417   1.190  0.2032  0.4952 -0.2268
 6913SOL    HW121955   3.035   4.339   1.152  2.1027  1.8647 -1.2408
 6913SOL    HW221956   3.042   4.431   1.272 -0.1860  0.5090 -0.0077
 6914SOL     OW21957   2.805   4.297   0.440  0.6559  0.5584  0.0716
 6914SOL    HW121958   2.880   4.238   0.451  1.3641  0.7532 -2.8242
 6914SOL    HW221959   2.844   4.384   0.440  0.3972  0.6856 -0.9851
 6915SOL     OW21960   1.855   4.703   1.033 -0.1440 -0.4652 -0.6082
 6915SOL    HW121961   1.946   4.675   1.036 -0.5916 -2.1166 -1.2618
 6915SOL    HW221962   1.827   4.686   0.943 -1.1528 -0.1473 -0.3792
 6916SOL     OW21963   1.695   5.618   1.922 -0.4389  0.0714  0.4108
 6916SOL    HW121964   1.642   5.675   1.866 -1.9539 -1.5990  0.0432
 6916SOL    HW221965   1.744   5.563   1.861 -1.1854 -0.9454  0.6959
 6917SOL     OW21966   2.729   3.951   0.233 -0.3858 -0.5236  0.5712
 6917SOL    HW121967   2.712   3.940   0.139  2.7471 -0.6368 -0.1042
 6917SOL    HW221968   2.687   4.035   0.255  2.1922  1.7069 -2.0654
 6918SOL     OW21969   3.237   4.568   0.388  0.0579  0.0145  0.3879
 6918SOL    HW121970   3.323   4.579   0.346 -0.1052 -0.6628 -0.1250
 6918SOL    HW221971   3.251   4.497   0.451  0.4981  1.4890  2.0563
 6919SOL     OW21972   2.158   4.377   1.009  0.1651 -0.0624 -0.1125
 6919SOL    HW121973   2.142   4.465   1.043  3.4845  0.1000  1.4229
 6919SOL    HW221974   2.163   4.321   1.086 -0.1889 -1.3204 -0.9511
 6920SOL     OW21975   2.821   5.301   0.580 -0.3360 -0.0930  0.4060
 6920SOL    HW121976   2.852   5.388   0.555  1.7040 -0.2940  1.9446
 6920SOL    HW221977   2.828   5.249   0.500 -0.8011  0.9592 -0.3310
 6921SOL     OW21978   2.145   5.614   0.678 -0.3077 -0.1935  0.0735
 6921SOL    HW121979   2.233   5.647   0.659 -0.0492 -0.9216 -0.0281
 6921SOL    HW221980   2.159   5.525   0.708 -1.0931 -0.7265 -1.0859
 6922SOL     OW21981   3.884   4.706   0.884  0.7412  0.2055  0.4087
 6922SOL    HW121982   3.859   4.698   0.976 -0.2595 -0.4187  0.0974
 6922SOL    HW221983   3.968   4.754   0.886  0.6049  0.4302  1.6147
 6923SOL     OW21984   3.322   5.196   1.869  0.7899  0.1041 -0.5148
 6923SOL    HW121985   3.354   5.179   1.958  0.7373  0.3312 -0.4501
 6923SOL    HW221986   3.318   5.110   1.828  2.8127  0.1812 -0.9839
 6924SOL     OW21987   1.916   4.733   8.610 -0.1459 -0.3845  0.2025
 6924SOL    HW121988   1.991   4.677   8.632 -0.0060 -0.8240 -1.3095
 6924SOL    HW221989   1.914   4.799   8.680  0.5717 -1.4045  1.2216
 6925SOL     OW21990   3.234   4.209   0.843 -0.0995  0.7090 -0.1505
 6925SOL    HW121991   3.299   4.258   0.791  0.5966  0.2493  0.2684
 6925SOL    HW221992   3.162   4.271   0.855 -0.7805  0.5099 -2.5548
 6926SOL     OW21993   2.574   5.050   1.626  0.4118 -0.3683 -0.1345
 6926SOL    HW121994   2.586   4.955   1.632 -0.3305 -0.4621 -0.0912
 6926SOL    HW221995   2.527   5.073   1.707  1.5404  0.1969  0.3783
 6927SOL     OW21996   3.427   6.138   0.885 -0.6329 -0.1608  0.4481
 6927SOL    HW121997   3.373   6.119   0.962 -1.0376  0.4799  0.3332
 6927SOL    HW221998   3.517   6.126   0.916 -0.7185  1.4003  1.4192
 6928SOL     OW21999   2.152   3.858   1.837  0.0353  0.0635  0.3067
 6928SOL    HW122000   2.117   3.947   1.838  0.3227  0.2387  3.0960
 6928SOL    HW222001   2.119   3.819   1.918  1.0968 -1.8944 -0.1515
 6929SOL     OW22002   3.060   4.885   0.125 -0.1635 -0.1883 -0.0348
 6929SOL    HW122003   3.079   4.834   0.203  1.0960  0.0264 -0.1711
 6929SOL    HW222004   3.098   4.833   0.053  1.2240  0.9262 -0.1645
 6930SOL     OW22005   2.607   5.424   0.370 -0.5214  0.0802  0.3803
 6930SOL    HW122006   2.582   5.435   0.462  1.3026 -1.5576  1.1493
 6930SOL    HW222007   2.686   5.369   0.373  0.7141  1.5373 -2.0602
 6931SOL     OW22008   3.171   3.544   1.131  0.8870 -0.1997  0.2046
 6931SOL    HW122009   3.190   3.452   1.118 -0.7103 -0.7487  1.3984
 6931SOL    HW222010   3.253   3.582   1.163  1.5657 -1.1896 -0.3442
 6932SOL     OW22011   2.701   5.723   1.375  0.2523 -0.5488  0.0200
 6932SOL    HW122012   2.648   5.754   1.448 -0.9208  0.1294 -1.0749
 6932SOL    HW222013   2.757   5.798   1.353  0.0935 -0.5003 -0.2243
 6933SOL     OW22014   2.791   5.225   1.385 -0.3010 -0.4276  0.1076
 6933SOL    HW122015   2.854   5.210   1.315  1.3060 -0.4328  1.5014
 6933SOL    HW222016   2.761   5.315   1.372  4.6666  1.9983  2.8140
 6934SOL     OW22017   2.173   4.927   0.233 -0.1429  0.2470 -0.4596
 6934SOL    HW122018   2.241   4.991   0.250 -1.1143  0.7441  1.9466
 6934SOL    HW222019   2.156   4.935   0.139  3.8804 -0.8010 -1.4849
 6935SOL     OW22020   2.511   4.704   1.926  0.4516 -0.2963  0.8946
 6935SOL    HW122021   2.541   4.689   2.015 -0.9559  0.0976  1.4643
 6935SOL    HW222022   2.503   4.616   1.888 -0.2999 -0.5718  1.6461
 6936SOL     OW22023   2.711   5.547   1.054  0.5662 -0.4107  0.3748
 6936SOL    HW122024   2.717   5.528   0.960 -0.8163  0.4437  0.0808
 6936SOL    HW222025   2.671   5.634   1.058  2.6442  0.5603  1.7400
 6937SOL     OW22026   2.949   4.603   1.701 -0.2132 -0.1278  0.3178
 6937SOL    HW122027   3.031   4.650   1.711 -0.3810  0.0596  0.8622
 6937SOL    HW222028   2.957   4.528   1.760  0.2527 -1.0850 -0.9052
 6938SOL     OW22029   2.986   5.544   1.090 -0.4726 -0.1077 -0.1320
 6938SOL    HW122030   2.987   5.584   1.177  0.5942 -0.0309 -0.1706
 6938SOL    HW222031   2.893   5.539   1.067 -0.6894  1.0908  0.4481
 6939SOL     OW22032   2.830   4.548   1.043  0.6857  0.9465  0.6144
 6939SOL    HW122033   2.820   4.637   1.077  2.4083  1.7054 -0.7032
 6939SOL    HW222034   2.900   4.510   1.096  0.2580  0.5206  0.8806
 6940SOL     OW22035   2.379   4.289   0.830  0.1340 -0.4682 -0.0357
 6940SOL    HW122036   2.298   4.338   0.843  1.4826  1.4615  1.7260
 6940SOL    HW222037   2.443   4.356   0.806  1.4075 -1.8259 -0.5214
 6941SOL     OW22038   3.163   4.859   0.397 -0.1383  0.5012  0.2370
 6941SOL    HW122039   3.094   4.872   0.463  1.6039 -0.9222  2.5129
 6941SOL    HW222040   3.183   4.766   0.403 -0.1297  0.2457 -2.6605
 6942SOL     OW22041   2.918   3.872   0.546 -0.0746 -0.5374  0.3001
 6942SOL    HW122042   2.912   3.778   0.564 -0.6596 -0.6027 -0.2266
 6942SOL    HW222043   2.976   3.905   0.615  0.1109 -1.2756  0.5111
 6943SOL     OW22044   2.896   4.562   1.418 -0.1402  0.1105  0.1272
 6943SOL    HW122045   2.808   4.524   1.413 -0.7038  1.2994  0.4212
 6943SOL    HW222046   2.900   4.598   1.507  1.2513 -1.3077  0.6667
 6944SOL     OW22047   3.226   5.662   0.876 -0.1418 -0.1432 -0.6072
 6944SOL    HW122048   3.222   5.567   0.863  1.5759 -0.5880  1.4570
 6944SOL    HW222049   3.304   5.675   0.930 -2.5321  2.0299  2.6493
 6945SOL     OW22050   2.237   5.090   0.718  0.5122  0.4670  0.2555
 6945SOL    HW122051   2.271   5.001   0.723 -0.8273 -0.0602  0.2471
 6945SOL    HW222052   2.145   5.082   0.741  0.4547  1.9076  0.6030
 6946SOL     OW22053   3.392   5.967   1.117  0.1765  0.0831  0.1035
 6946SOL    HW122054   3.416   5.877   1.095 -1.0046  0.0158 -1.0021
 6946SOL    HW222055   3.351   5.960   1.203  3.2112  0.1085  1.7112
 6947SOL     OW22056   3.080   4.095   0.449 -0.2081 -0.1425  0.1176
 6947SOL    HW122057   3.034   4.016   0.420 -1.4758  0.6305 -0.0467
 6947SOL    HW222058   3.074   4.092   0.545 -2.7689  1.1295  0.0769
 6948SOL     OW22059   2.295   4.290   1.451  0.3856 -0.0578 -0.4085
 6948SOL    HW122060   2.204   4.314   1.472  0.6872  0.6507  0.1427
 6948SOL    HW222061   2.307   4.320   1.362  0.1566  0.0862 -0.3937
 6949SOL     OW22062   2.636   4.093   1.126  0.2332 -0.1636  0.0265
 6949SOL    HW122063   2.610   4.181   1.100 -1.2517 -1.0537 -1.7555
 6949SOL    HW222064   2.692   4.062   1.055  1.2708 -0.4448  0.9500
 6950SOL     OW22065   2.358   4.414   1.232  0.2077  0.1204  0.3932
 6950SOL    HW122066   2.297   4.471   1.185 -1.1549  0.9558  3.0047
 6950SOL    HW222067   2.414   4.473   1.282  0.7781 -0.7726  0.8443
 6951SOL     OW22068   2.625   3.777   0.815  0.8000  0.0989 -0.1622
 6951SOL    HW122069   2.573   3.857   0.803  0.6870  0.2544  1.1900
 6951SOL    HW222070   2.584   3.713   0.757 -1.2144  0.0920  1.1610
 6952SOL     OW22071   3.328   4.983   0.879 -0.1871  0.3611  0.0952
 6952SOL    HW122072   3.334   5.065   0.830 -0.7247  0.5690  0.3751
 6952SOL    HW222073   3.388   4.924   0.834 -0.1689  0.7561 -0.4041
 6953SOL     OW22074   3.581   4.817   1.055  0.9897  0.2481  0.3508
 6953SOL    HW122075   3.508   4.860   1.098  1.3116  0.2203  0.9388
 6953SOL    HW222076   3.600   4.740   1.110  0.7527 -0.3558 -0.3988
 6954SOL     OW22077   3.314   4.356   0.545  0.0393  0.7208 -0.4935
 6954SOL    HW122078   3.360   4.364   0.628 -1.9269  0.7878  0.6490
 6954SOL    HW222079   3.347   4.275   0.506  0.2369  0.1330  0.8445
 6955SOL     OW22080   2.524   5.628   0.183 -0.0809  0.2541 -0.3810
 6955SOL    HW122081   2.555   5.537   0.189 -1.2223 -0.1072  0.3688
 6955SOL    HW222082   2.576   5.675   0.247 -2.2146 -0.7118  2.2340
 6956SOL     OW22083   3.662   5.032   0.413  0.0881 -0.1700  0.0480
 6956SOL    HW122084   3.691   4.960   0.469 -0.0105 -1.6565 -1.7407
 6956SOL    HW222085   3.568   5.036   0.426  0.3745  1.5834  2.2906
 6957SOL     OW22086   3.561   3.898   0.611  0.3456 -0.0682  0.4177
 6957SOL    HW122087   3.471   3.929   0.596  0.5798 -0.2716 -1.7150
 6957SOL    HW222088   3.566   3.815   0.564  1.2763 -0.7718  1.6906
 6958SOL     OW22089   2.164   4.497   0.376 -0.4858 -0.0910  0.3773
 6958SOL    HW122090   2.204   4.581   0.350  0.5056 -0.0048  2.0584
 6958SOL    HW222091   2.110   4.518   0.452 -1.0241 -0.8279  0.2091
 6959SOL     OW22092   3.673   4.945   1.369  0.4176  0.2598 -0.3950
 6959SOL    HW122093   3.680   4.979   1.459 -0.7730 -1.0053  0.2062
 6959SOL    HW222094   3.721   4.863   1.371 -0.0631 -0.0338 -0.7739
 6960SOL     OW22095   2.857   5.388   1.859 -0.0484  0.4667  0.0288
 6960SOL    HW122096   2.837   5.312   1.805  2.7351  0.7000 -1.4987
 6960SOL    HW222097   2.910   5.355   1.930  0.5366  0.8583 -0.2183
 6961SOL     OW22098   3.378   4.970   1.635 -0.5085  0.4700 -0.2038
 6961SOL    HW122099   3.466   4.943   1.663 -0.5645  1.6862  1.2707
 6961SOL    HW222100   3.323   4.894   1.653  0.3242 -0.6067 -1.8883
 6962SOL     OW22101   2.788   5.013   1.085  0.7288  0.2683 -0.0721
 6962SOL    HW122102   2.801   4.925   1.118  0.2707 -0.0375 -0.6840
 6962SOL    HW222103   2.866   5.061   1.113  0.8257 -0.2391  0.5477
 6963SOL     OW22104   3.125   5.363   1.354 -0.4602  0.0234  0.2252
 6963SOL    HW122105   3.141   5.304   1.427  1.7453 -0.1615 -0.3528
 6963SOL    HW222106   3.209   5.370   1.309 -1.5563  0.7595 -1.8462
 6964SOL     OW22107   2.928   4.344   1.785  0.1820  0.0571 -0.1687
 6964SOL    HW122108   2.929   4.285   1.710  0.0563 -1.0830  0.7122
 6964SOL    HW222109   2.954   4.290   1.860  2.4729  1.6641  0.2982
 6965SOL     OW22110   2.985   4.620   2.188  0.3091  0.0702  0.8536
 6965SOL    HW122111   3.036   4.545   2.219 -0.0192 -0.4101  0.2675
 6965SOL    HW222112   2.906   4.581   2.149  0.2520  0.7037  0.3160
 6966SOL     OW22113   2.954   4.898   0.571 -0.4527  0.6123 -0.3574
 6966SOL    HW122114   2.882   4.946   0.530  0.7999  1.6185 -1.4600
 6966SOL    HW222115   2.978   4.951   0.647  0.9157  1.7929 -1.5619
 6967SOL     OW22116   2.640   4.915   1.379  0.4364  0.5132  0.1221
 6967SOL    HW122117   2.585   4.953   1.448 -0.6692 -1.7773  0.5945
 6967SOL    HW222118   2.729   4.940   1.403 -0.1783  2.6195  0.4556
 6968SOL     OW22119   3.208   4.043   1.497  0.2561 -0.4202 -0.0312
 6968SOL    HW122120   3.231   4.007   1.583 -0.3972  0.8649  0.7152
 6968SOL    HW222121   3.113   4.031   1.491  0.4029 -1.2543 -0.9594
 6969SOL     OW22122   2.374   5.672   1.329  0.3516  0.0865 -0.2981
 6969SOL    HW122123   2.401   5.682   1.421 -0.9636  0.3221  0.0888
 6969SOL    HW222124   2.360   5.762   1.299  1.6296  0.0678 -1.0311
 6970SOL     OW22125   2.534   5.153   1.038  0.8078  0.2225 -0.3189
 6970SOL    HW122126   2.609   5.109   1.077  0.8914  0.8202  0.2115
 6970SOL    HW222127   2.458   5.116   1.084  0.7840 -0.2672 -0.7456
 6971SOL     OW22128   2.369   4.834   0.767  0.1874  0.8123  0.1482
 6971SOL    HW122129   2.333   4.757   0.723 -0.4842  1.1623  0.0697
 6971SOL    HW222130   2.460   4.838   0.737 -0.2355  1.0128 -1.1888
 6972SOL     OW22131   3.293   5.185   0.705 -0.4799  0.4823  0.3622
 6972SOL    HW122132   3.314   5.195   0.612  0.8181  0.2502  0.6093
 6972SOL    HW222133   3.198   5.193   0.709 -0.7861 -1.4576 -1.2470
 6973SOL     OW22134   2.938   5.532   1.438  0.1362 -0.8456  0.3262
 6973SOL    HW122135   2.872   5.463   1.429  0.2400 -0.7837 -1.2678
 6973SOL    HW222136   3.022   5.486   1.428  0.2053 -0.1734 -4.9983
 6974SOL     OW22137   3.313   4.033   0.606 -0.2175  0.5897  0.1522
 6974SOL    HW122138   3.247   4.032   0.675 -1.2010  2.0238 -0.7171
 6974SOL    HW222139   3.273   4.082   0.535  1.2297  0.1881 -0.9953
 6975SOL     OW22140   2.426   5.329   1.374 -0.1393  0.2457 -0.4877
 6975SOL    HW122141   2.520   5.347   1.366  0.2097 -1.0000  0.5013
 6975SOL    HW222142   2.384   5.409   1.343  1.2291  0.5418 -1.6782
 6976SOL     OW22143   2.769   4.762   2.281 -1.0792 -0.2958  0.4263
 6976SOL    HW122144   2.859   4.733   2.290 -0.4547  1.5619  0.6460
 6976SOL    HW222145   2.775   4.857   2.267 -2.8801 -0.4419 -1.9543
 6977SOL     OW22146   3.165   4.392   1.402 -0.1808 -0.3299  0.0072
 6977SOL    HW122147   3.201   4.429   1.483 -1.3984  0.1341  0.3576
 6977SOL    HW222148   3.106   4.323   1.431 -1.2133  0.3475 -0.4422
 6978SOL     OW22149   2.921   3.992   1.560  0.3079  0.2564  0.1786
 6978SOL    HW122150   2.877   4.010   1.478 -1.1382  0.2456  0.9163
 6978SOL    HW222151   2.855   4.008   1.627  0.6754 -2.0192  1.2095
 6979SOL     OW22152   2.359   3.885   1.657  0.1376  0.8841  0.2805
 6979SOL    HW122153   2.288   3.845   1.707  0.5074 -1.9465 -1.2372
 6979SOL    HW222154   2.437   3.835   1.682  0.8532  1.3480 -0.9399
 6980SOL     OW22155   2.418   4.762   1.304  0.2850 -0.5892  0.2686
 6980SOL    HW122156   2.423   4.724   1.216  0.1504  0.1419 -0.0610
 6980SOL    HW222157   2.494   4.820   1.309  0.3291 -0.6745  0.6649
 6981SOL     OW22158   3.132   4.848   1.008  0.4180 -0.2701 -0.7282
 6981SOL    HW122159   3.156   4.856   1.101  0.5630  0.4517 -0.8257
 6981SOL    HW222160   3.175   4.922   0.966 -0.2509 -0.1780 -1.2560
 6982SOL     OW22161   3.032   4.379   0.591 -0.1122  0.4497  0.0926
 6982SOL    HW122162   3.025   4.430   0.672  1.8599 -0.0523  0.6398
 6982SOL    HW222163   3.119   4.400   0.557  0.1485 -1.3765 -0.4790
 6983SOL     OW22164   1.997   4.006   1.453  0.0998  0.0577  0.1165
 6983SOL    HW122165   2.081   3.987   1.411 -0.2418 -1.1494 -0.0763
 6983SOL    HW222166   1.964   3.920   1.479 -0.5684  0.6189  1.1887
 6984SOL     OW22167   1.862   5.257   1.154 -0.1199  0.4890 -0.6774
 6984SOL    HW122168   1.888   5.196   1.224 -0.1870  0.3534 -0.7712
 6984SOL    HW222169   1.933   5.252   1.090  0.2037  1.0127 -0.3684
 6985SOL     OW22170   2.641   4.800   0.733 -0.2766  0.1811 -0.3218
 6985SOL    HW122171   2.671   4.861   0.665 -0.9827  0.1537 -0.6670
 6985SOL    HW222172   2.694   4.821   0.809 -1.3494  2.1154 -0.0380
 6986SOL     OW22173   1.845   3.683   0.980 -0.4157  0.3869  0.4319
 6986SOL    HW122174   1.796   3.692   1.062  0.6356 -0.4294  1.1734
 6986SOL    HW222175   1.933   3.658   1.007 -0.2758 -0.7619 -0.9691
 6987SOL     OW22176   3.248   3.617   0.412  0.9650  0.4913 -0.7173
 6987SOL    HW122177   3.170   3.612   0.357  0.3725  2.2357 -0.0870
 6987SOL    HW222178   3.221   3.580   0.496  0.5155  1.8973 -0.2172
 6988SOL     OW22179   2.921   4.936   0.858 -0.4970  0.6303 -0.0754
 6988SOL    HW122180   2.858   4.987   0.908  1.3914  1.4944  1.5324
 6988SOL    HW222181   2.966   4.882   0.923  0.0205 -0.4416 -1.2635
 6989SOL     OW22182   2.969   5.022   1.968 -0.3436  0.1855  0.0402
 6989SOL    HW122183   3.014   5.100   2.000 -2.0829  0.5928  1.5994
 6989SOL    HW222184   3.014   4.949   2.010 -0.3868  0.5156  0.6645
 6990SOL     OW22185   3.618   4.855   1.753  0.3956  0.5361 -0.3345
 6990SOL    HW122186   3.693   4.910   1.730  0.0527  2.9658  3.4852
 6990SOL    HW222187   3.646   4.808   1.831 -1.6423  0.6925  0.5527
 6991SOL     OW22188   2.426   4.953   2.175  0.4422  0.2310 -0.4018
 6991SOL    HW122189   2.364   4.925   2.108 -0.4399 -0.7208  0.7805
 6991SOL    HW222190   2.504   4.979   2.126  0.5371 -2.2375 -1.7176
 6992SOL     OW22191   3.019   3.679   0.251 -0.0209 -0.0149  0.1037
 6992SOL    HW122192   2.998   3.616   0.182  1.3752 -0.5616  0.1475
 6992SOL    HW222193   2.972   3.758   0.227 -1.5710 -0.9609 -0.1282
 6993SOL     OW22194   3.444   4.241   0.339  0.4143 -0.4369 -0.6730
 6993SOL    HW122195   3.394   4.313   0.300  0.0181 -0.2270  0.2024
 6993SOL    HW222196   3.529   4.278   0.359  0.1757 -0.1853 -0.1290
 6994SOL     OW22197   3.356   5.332   1.178  0.0359  0.7727 -0.3998
 6994SOL    HW122198   3.419   5.263   1.158 -0.1384  0.5866 -0.3085
 6994SOL    HW222199   3.336   5.372   1.093 -0.5378  0.1268 -0.5819
 6995SOL     OW22200   2.309   5.108   1.187  0.2041 -0.3872 -0.5131
 6995SOL    HW122201   2.347   5.176   1.242 -3.3793  0.4469  1.2953
 6995SOL    HW222202   2.215   5.110   1.208 -0.7085 -3.1571 -3.4113
 6996SOL     OW22203   2.130   4.613   1.126 -0.1640  0.7106  0.3969
 6996SOL    HW122204   2.108   4.677   1.194  0.3880  0.7673  0.5299
 6996SOL    HW222205   2.206   4.651   1.082 -0.1664  0.3976  0.1222
 6997SOL     OW22206   2.994   3.860   1.930 -0.2347 -0.1905  0.2643
 6997SOL    HW122207   3.021   3.793   1.867  2.6714 -0.1021  1.2660
 6997SOL    HW222208   2.911   3.829   1.964 -0.4720 -1.6831 -1.5133
 6998SOL     OW22209   3.024   3.614   1.782 -0.4446 -0.2239 -0.3197
 6998SOL    HW122210   2.935   3.631   1.751 -0.9486  1.4741  1.8241
 6998SOL    HW222211   3.016   3.532   1.831 -0.5125 -0.7475 -1.1742
 6999SOL     OW22212   1.991   5.835   0.724 -0.0855  0.4803  0.7705
 6999SOL    HW122213   2.048   5.758   0.721  0.0590  0.5983  0.4213
 6999SOL    HW222214   1.997   5.872   0.636  0.2503  1.1803  1.0801
 7000SOL     OW22215   1.992   5.001   0.877  0.0104 -0.6723  0.2968
 7000SOL    HW122216   1.969   4.985   0.969 -0.4853 -0.4522  0.2174
 7000SOL    HW222217   1.925   5.063   0.847  0.2949 -0.5848 -0.1542
 7001SOL     OW22218   2.784   4.746   1.218 -0.0643  0.2861 -0.7131
 7001SOL    HW122219   2.727   4.801   1.271  0.6178  0.5439 -0.2405
 7001SOL    HW222220   2.818   4.680   1.278 -1.4219 -1.1230 -1.4115
 7002SOL     OW22221   2.080   4.208   1.210  0.2708 -0.3602 -0.1292
 7002SOL    HW122222   1.985   4.222   1.210  0.1034 -1.3655 -0.9234
 7002SOL    HW222223   2.106   4.224   1.300 -0.4139  1.3460 -0.1813
 7003SOL     OW22224   2.352   3.981   2.039  0.0474 -0.4001 -0.3103
 7003SOL    HW122225   2.429   4.014   1.993  1.1359 -1.9942  0.2932
 7003SOL    HW222226   2.342   3.891   2.008 -3.3870  0.5588 -2.6072
 7004SOL     OW22227   3.263   4.468   1.707 -0.1511  0.0990  0.0761
 7004SOL    HW122228   3.230   4.440   1.792  0.7855 -0.1890  0.3537
 7004SOL    HW222229   3.330   4.404   1.684 -0.0032  0.4862 -0.6179
 7005SOL     OW22230   2.385   4.625   0.581  0.2776  0.5314  0.7700
 7005SOL    HW122231   2.473   4.632   0.544  0.3024 -0.0710  0.7159
 7005SOL    HW222232   2.326   4.637   0.506  0.3206  0.2188  0.6856
 7006SOL     OW22233   3.672   4.576   1.180 -0.0052  0.1258  0.1363
 7006SOL    HW122234   3.726   4.536   1.113  0.2340  0.2263  0.2668
 7006SOL    HW222235   3.608   4.509   1.204 -1.3225  0.7041 -1.5337
 7007SOL     OW22236   1.972   5.158   1.420 -0.2050 -0.4015 -0.5235
 7007SOL    HW122237   1.946   5.096   1.489 -0.0374 -0.8233 -0.8354
 7007SOL    HW222238   2.063   5.180   1.440 -0.0368 -0.8133 -0.8168
 7008SOL     OW22239   2.528   4.104   1.404  0.1737 -0.1306 -0.3811
 7008SOL    HW122240   2.535   4.107   1.309  0.6140 -0.7425 -0.3698
 7008SOL    HW222241   2.484   4.186   1.427  0.6767  0.3338 -1.0526
 7009SOL     OW22242   2.037   5.463   1.787 -0.5939  0.5974  0.1522
 7009SOL    HW122243   2.038   5.371   1.813 -3.6458  0.7663  1.4063
 7009SOL    HW222244   1.990   5.464   1.703 -1.5384  1.0432  0.6648
 7010SOL     OW22245   2.177   4.338   0.070 -0.1704  0.0028  0.0109
 7010SOL    HW122246   2.262   4.340   0.115  0.1713 -0.8854 -0.5623
 7010SOL    HW222247   2.162   4.429   0.043  0.3722  0.2514  0.5370
 7011SOL     OW22248   2.209   5.236   1.788  0.0195 -0.1244  0.2041
 7011SOL    HW122249   2.180   5.183   1.862  0.1901 -1.7753 -0.8557
 7011SOL    HW222250   2.301   5.213   1.777  0.1217  0.4671 -0.2381
 7012SOL     OW22251   3.157   4.952   1.362  0.0431 -0.0868  0.0407
 7012SOL    HW122252   3.250   4.945   1.338 -0.1901 -0.9019 -0.6730
 7012SOL    HW222253   3.132   4.863   1.385 -0.9099 -0.1386 -1.1100
 7013SOL     OW22254   3.255   4.496   8.697 -0.2375 -0.3410  0.3936
 7013SOL    HW122255   3.278   4.409   8.663 -0.7166  0.3074 -1.7065
 7013SOL    HW222256   3.319   4.555   8.658 -2.2055  0.7516 -1.4081
 7014SOL     OW22257   3.769   5.220   1.229 -0.3386 -0.3873  0.0290
 7014SOL    HW122258   3.757   5.197   1.322 -2.1714 -1.4050 -0.4022
 7014SOL    HW222259   3.855   5.185   1.206  0.5333  0.6490  1.5422
 7015SOL     OW22260   3.139   5.369   0.930 -0.0129 -0.5237 -0.2771
 7015SOL    HW122261   3.078   5.312   0.883 -0.9954  1.7906 -1.9717
 7015SOL    HW222262   3.084   5.424   0.985  0.9513 -1.3317  1.6134
 7016SOL     OW22263   1.959   4.669   1.458 -0.2404  0.2640 -0.0253
 7016SOL    HW122264   1.939   4.715   1.540  1.1858  1.2051 -0.1612
 7016SOL    HW222265   2.012   4.731   1.408  0.5669 -1.0171 -0.8307
 7017SOL     OW22266   2.546   5.432   1.626 -0.2815  0.6565 -0.2120
 7017SOL    HW122267   2.607   5.363   1.651 -0.9028  0.2019  0.0881
 7017SOL    HW222268   2.482   5.388   1.570 -1.4314  0.6848  1.0482
 7018SOL     OW22269   2.657   3.693   0.346 -0.7257 -0.0773  0.8389
 7018SOL    HW122270   2.725   3.758   0.329 -0.3725 -1.0508 -2.0000
 7018SOL    HW222271   2.583   3.720   0.292 -0.0063 -2.7344 -1.7656
 7019SOL     OW22272   3.535   3.651   0.464 -0.2610 -0.3392  0.6586
 7019SOL    HW122273   3.568   3.597   0.536  0.2170  0.4023  1.0103
 7019SOL    HW222274   3.465   3.599   0.425  0.8804 -1.6810  0.3099
 7020SOL     OW22275   3.295   5.482   0.566 -0.1782  0.2905  0.0062
 7020SOL    HW122276   3.243   5.550   0.608  0.3124  0.9463 -0.4325
 7020SOL    HW222277   3.372   5.472   0.622 -0.7771 -0.7226  0.6879
 7021SOL     OW22278   1.652   5.916   1.901  0.0162 -0.1686  0.0864
 7021SOL    HW122279   1.741   5.890   1.874  0.1735  0.0946  0.3461
 7021SOL    HW222280   1.617   5.963   1.826  0.0791 -0.3166 -0.0362
 7022SOL     OW22281   3.223   4.643   0.798 -0.0561 -0.3196 -0.2170
 7022SOL    HW122282   3.285   4.674   0.732 -0.0939  0.2781  0.0176
 7022SOL    HW222283   3.213   4.717   0.858  0.2522 -0.9554  0.6617
 7023SOL     OW22284   3.053   4.948   1.694  0.1661 -0.2006  0.5644
 7023SOL    HW122285   3.024   4.951   1.785  0.0043  0.7640  0.4966
 7023SOL    HW222286   3.106   4.869   1.688  0.5831 -0.0218  1.6268
 7024SOL     OW22287   2.906   5.634   0.277 -0.1776  0.2539 -0.4769
 7024SOL    HW122288   2.879   5.576   0.206  0.5970  0.5957 -1.0611
 7024SOL    HW222289   2.998   5.652   0.260 -0.1174  0.7571  0.3287
 7025SOL     OW22290   3.735   5.531   1.490 -0.0845  1.1310 -0.1204
 7025SOL    HW122291   3.758   5.550   1.399 -0.2162 -0.9165 -0.6218
 7025SOL    HW222292   3.650   5.488   1.485  0.8894 -1.0644  0.6981
 7026SOL     OW22293   3.622   4.139   1.213 -0.1016 -0.3481 -0.0989
 7026SOL    HW122294   3.583   4.091   1.286  1.0966  0.5761  1.1975
 7026SOL    HW222295   3.712   4.106   1.208 -0.7546 -2.0243 -2.6548
 7027SOL     OW22296   1.998   4.343   0.803  0.0369 -0.3614  0.4216
 7027SOL    HW122297   1.923   4.400   0.820  0.4992  1.1391 -2.1034
 7027SOL    HW222298   2.042   4.335   0.888 -2.6323 -0.8916  1.8762
 7028SOL     OW22299   3.313   5.358   0.318 -0.2836  0.6786 -0.4872
 7028SOL    HW122300   3.252   5.285   0.323 -2.2162  2.0616 -2.3089
 7028SOL    HW222301   3.283   5.420   0.384  0.3592  0.5493 -0.0611
 7029SOL     OW22302   3.000   5.140   1.217 -0.5937  0.1374  0.3440
 7029SOL    HW122303   3.065   5.071   1.234  1.7527  1.1441 -3.3120
 7029SOL    HW222304   3.033   5.216   1.265 -0.1458  0.0818  0.1355
 7030SOL     OW22305   2.879   4.633   0.478 -0.2137  0.2502 -0.1795
 7030SOL    HW122306   2.893   4.703   0.542 -0.8107 -0.1019  0.3505
 7030SOL    HW222307   2.943   4.566   0.502 -0.5665  0.0362  0.1783
 7031SOL     OW22308   3.157   5.167   0.393 -0.0080  0.1060 -0.0910
 7031SOL    HW122309   3.062   5.171   0.392  0.0094  0.6235  0.0514
 7031SOL    HW222310   3.178   5.075   0.380 -0.5413 -0.1633  0.8956
 7032SOL     OW22311   2.213   5.181   1.498  0.0057  0.2576 -0.3192
 7032SOL    HW122312   2.285   5.233   1.464  0.2761 -1.1028 -1.9587
 7032SOL    HW222313   2.214   5.198   1.593  1.9561  0.8751 -0.4018
 7033SOL     OW22314   3.128   5.169   1.554  0.2088  0.3461 -0.6387
 7033SOL    HW122315   3.169   5.105   1.496  1.0152  1.1194 -0.9525
 7033SOL    HW222316   3.093   5.118   1.626 -1.3107 -0.7193 -2.0626
 7034SOL     OW22317   2.693   5.046   0.562 -0.5768  0.3126 -0.1602
 7034SOL    HW122318   2.620   5.059   0.501  0.9850  3.9684 -1.5154
 7034SOL    HW222319   2.675   5.107   0.633  1.5313  1.9765 -0.9745
 7035SOL     OW22320   2.790   4.127   0.814 -0.3362 -0.5262 -0.1976
 7035SOL    HW122321   2.737   4.130   0.734  1.4781 -1.5326 -1.5062
 7035SOL    HW222322   2.765   4.045   0.856 -3.0263  1.0729  1.6328
 7036SOL     OW22323   2.571   5.331   0.010  0.5565 -0.1824 -0.4951
 7036SOL    HW122324   2.555   5.407  -0.046  0.4712  0.4880  0.4116
 7036SOL    HW222325   2.662   5.339   0.037  0.7272 -0.7439 -0.8664
 7037SOL     OW22326   1.952   5.042   0.578  0.0428 -0.0551 -0.0745
 7037SOL    HW122327   1.953   5.132   0.546  0.4988  0.2302  0.7079
 7037SOL    HW222328   1.892   5.043   0.652 -0.7522 -0.6338 -0.7023
 7038SOL     OW22329   1.934   4.936   2.719 -0.0430  0.1397  0.2045
 7038SOL    HW122330   2.023   4.906   2.739  0.3030  0.8987 -0.1287
 7038SOL    HW222331   1.896   4.957   2.804  0.6521  1.2892  0.2533
 7039SOL     OW22332   2.564   3.571   1.455  0.2228 -0.2158  0.4635
 7039SOL    HW122333   2.481   3.537   1.422  1.6756 -1.9337 -1.7215
 7039SOL    HW222334   2.570   3.660   1.418  0.0983 -0.7387 -0.8843
 7040SOL     OW22335   1.860   4.430   0.383 -0.0861 -0.2213 -0.1640
 7040SOL    HW122336   1.818   4.353   0.421 -0.3090  0.4452  1.0005
 7040SOL    HW222337   1.951   4.425   0.415 -0.3134  0.4238  0.6298
 7041SOL     OW22338   3.145   4.686   1.407  0.2433 -0.6161 -0.2573
 7041SOL    HW122339   3.061   4.639   1.408  0.1816 -0.5134 -0.5141
 7041SOL    HW222340   3.200   4.636   1.348 -0.2948  0.4350 -1.6964
 7042SOL     OW22341   2.248   4.263   0.546  0.3226  0.2145 -0.1782
 7042SOL    HW122342   2.245   4.358   0.554  2.4975  0.2888  0.5254
 7042SOL    HW222343   2.338   4.240   0.569 -0.3191 -2.0865  0.3215
 7043SOL     OW22344   2.816   4.655   0.203 -0.0100 -0.8124  0.3800
 7043SOL    HW122345   2.837   4.651   0.296  2.9122  0.4450 -0.1018
 7043SOL    HW222346   2.877   4.593   0.162  0.9028  0.8509 -0.9045
 7044SOL     OW22347   2.645   4.803   1.715  0.4230 -0.2003 -0.2120
 7044SOL    HW122348   2.613   4.775   1.801  1.1784 -0.2993  0.0402
 7044SOL    HW222349   2.702   4.732   1.686 -1.0997 -0.9552 -1.5484
 7045SOL     OW22350   3.639   5.463   1.170  0.2500 -0.0681  0.4165
 7045SOL    HW122351   3.554   5.430   1.201 -0.3656 -0.8727 -1.8960
 7045SOL    HW222352   3.701   5.394   1.193 -0.2672 -0.8625 -0.4781
 7046SOL     OW22353   2.182   4.163   1.913 -0.3872 -0.0555 -0.6535
 7046SOL    HW122354   2.250   4.154   1.846 -1.6405 -0.9987 -1.8733
 7046SOL    HW222355   2.200   4.092   1.975 -0.4481 -0.5366 -1.1710
 7047SOL     OW22356   3.393   4.620   1.988 -0.1449  0.1469 -0.2238
 7047SOL    HW122357   3.375   4.694   1.930 -1.2688 -0.6755 -0.9689
 7047SOL    HW222358   3.431   4.660   2.067 -1.2728  1.5890 -0.3624
 7048SOL     OW22359   2.211   5.518   1.565 -0.1281 -0.1560 -0.2116
 7048SOL    HW122360   2.127   5.494   1.526  0.4426 -0.9073 -1.0251
 7048SOL    HW222361   2.207   5.482   1.654 -0.0725 -1.5948 -0.7674
 7049SOL     OW22362   3.416   4.881   1.330 -0.1736  0.7572 -0.2781
 7049SOL    HW122363   3.505   4.916   1.332  0.3779 -0.5819  0.4699
 7049SOL    HW222364   3.420   4.804   1.387 -1.2767 -0.5635 -1.8715
 7050SOL     OW22365   2.781   3.906   0.999  0.0622 -0.8426  0.2277
 7050SOL    HW122366   2.728   3.861   0.933  0.5158  0.2350 -0.9229
 7050SOL    HW222367   2.862   3.855   1.003  0.5322 -0.2277 -0.9916
 7051SOL     OW22368   2.044   4.540   0.602  0.3122 -0.3379 -0.1261
 7051SOL    HW122369   2.050   4.629   0.637 -1.3127 -0.6055  0.9458
 7051SOL    HW222370   2.032   4.485   0.679  0.2112 -1.3658 -0.8592
 7052SOL     OW22371   3.863   4.950   1.707 -0.5813 -0.3542  0.0223
 7052SOL    HW122372   3.834   5.036   1.677  0.9352  0.4426  0.7253
 7052SOL    HW222373   3.954   4.943   1.676  0.2786 -0.4490  2.3445
 7053SOL     OW22374   2.123   4.889   8.822  0.1354  0.4584 -0.4202
 7053SOL    HW122375   2.163   4.936   8.749 -0.8219  2.2213  0.1409
 7053SOL    HW222376   2.033   4.922   8.826 -0.2665 -0.6866  0.6426
 7054SOL     OW22377   2.402   5.667   0.695  0.0898  0.4129 -0.8230
 7054SOL    HW122378   2.472   5.733   0.697  1.4986 -1.0325 -0.8973
 7054SOL    HW222379   2.365   5.668   0.783 -0.6079  1.9785 -1.0869
 7055SOL     OW22380   3.031   5.172   0.714 -0.0906  1.3363 -0.0838
 7055SOL    HW122381   2.962   5.203   0.654  0.2313  1.0607 -0.6054
 7055SOL    HW222382   2.983   5.129   0.785 -0.5004  2.2328  0.1900
 7056SOL     OW22383   3.353   4.463   0.120 -0.0739  0.2307  0.1199
 7056SOL    HW122384   3.398   4.547   0.124  1.4816 -0.6075  0.7651
 7056SOL    HW222385   3.318   4.459   0.031 -0.2738  1.5894  0.1096
 7057SOL     OW22386   3.527   5.535   0.683 -1.0531 -0.3587 -0.2108
 7057SOL    HW122387   3.565   5.616   0.717 -1.5757  0.1096 -0.7053
 7057SOL    HW222388   3.501   5.486   0.760 -1.3737  0.2720  0.0943
 7058SOL     OW22389   2.430   5.052   1.853 -0.0062  0.2377  0.9057
 7058SOL    HW122390   2.511   5.053   1.905  1.7063 -1.2566 -1.5037
 7058SOL    HW222391   2.386   4.972   1.878  1.1181 -0.7929 -0.2409
 7059SOL     OW22392   2.060   4.804   0.713  0.3115  0.0854  0.3418
 7059SOL    HW122393   2.054   4.868   0.642  0.2683 -0.3676 -0.0665
 7059SOL    HW222394   2.024   4.849   0.789 -0.0878  0.4089 -0.0388
 7060SOL     OW22395   2.396   5.335   2.062 -0.9931 -0.3324 -0.1511
 7060SOL    HW122396   2.433   5.263   2.011 -0.9832  0.4799 -1.3070
 7060SOL    HW222397   2.310   5.350   2.023 -2.1732 -1.4772  1.8120
 7061SOL     OW22398   2.055   4.082   0.747 -0.0157  0.4608 -0.1590
 7061SOL    HW122399   2.052   4.177   0.752 -0.6393  0.4101  0.8742
 7061SOL    HW222400   2.141   4.058   0.780 -0.5602  0.6041  1.4533
 7062SOL     OW22401   3.514   5.157   1.080  0.0065  0.6193  0.4166
 7062SOL    HW122402   3.607   5.135   1.076 -0.6447 -3.5100  2.7176
 7062SOL    HW222403   3.470   5.087   1.031 -1.9693  1.5139  0.7952
 7063SOL     OW22404   2.408   4.589   1.510 -0.1923  0.0112 -0.2669
 7063SOL    HW122405   2.344   4.602   1.581  1.8157 -0.1314  1.6831
 7063SOL    HW222406   2.402   4.668   1.458 -2.6431 -0.4283 -0.7685
 7064SOL     OW22407   3.090   5.900   0.876 -0.0821 -0.1377  0.3750
 7064SOL    HW122408   3.142   5.822   0.858 -0.1884 -0.4227  1.2747
 7064SOL    HW222409   3.020   5.869   0.934  0.9578  0.9760  2.2809
 7065SOL     OW22410   2.963   4.288   0.915  0.1107  0.3003  0.1662
 7065SOL    HW122411   2.891   4.348   0.933  0.2522  0.6822 -0.4868
 7065SOL    HW222412   2.921   4.211   0.876 -0.0021  0.2886  0.3117
 7066SOL     OW22413   2.593   4.350   1.091  0.1387  0.3026 -0.0429
 7066SOL    HW122414   2.504   4.386   1.097  0.0366 -0.0522  0.7961
 7066SOL    HW222415   2.650   4.427   1.088 -0.1609  0.5342  0.1287
 7067SOL     OW22416   2.526   5.064   0.345  0.3126  0.0471 -1.0080
 7067SOL    HW122417   2.444   5.113   0.341  0.5230  0.4421 -0.6238
 7067SOL    HW222418   2.584   5.111   0.284  0.7997  0.8415  0.0324
 7068SOL     OW22419   2.386   5.394   0.971 -0.1289  0.1725 -0.1446
 7068SOL    HW122420   2.460   5.455   0.972  0.6105 -0.6994  0.1307
 7068SOL    HW222421   2.424   5.310   1.000 -1.2203 -0.2958 -0.0227
 7069SOL     OW22422   3.217   3.412   0.181  0.3866 -0.8553  0.1968
 7069SOL    HW122423   3.258   3.351   0.242  1.6952 -0.3478 -0.1469
 7069SOL    HW222424   3.259   3.496   0.198  0.6952 -0.6721 -1.2792
 7070SOL     OW22425   3.071   3.992   0.737  0.2021  0.4649 -0.2842
 7070SOL    HW122426   3.057   3.920   0.799 -1.0054  1.3819  0.5673
 7070SOL    HW222427   3.051   4.070   0.788 -3.3427  1.1631 -2.4779
 7071SOL     OW22428   3.311   4.086   1.096 -0.3812 -0.3288  0.1220
 7071SOL    HW122429   3.340   4.140   1.022 -0.2544 -1.0215 -0.3485
 7071SOL    HW222430   3.334   3.996   1.070  1.0813 -0.4399  1.6831
 7072SOL     OW22431   1.954   4.863   0.357 -0.7845 -0.1796 -0.5357
 7072SOL    HW122432   1.946   4.941   0.411 -2.0050  0.1111 -1.1132
 7072SOL    HW222433   2.025   4.883   0.296  0.4386 -0.4166  0.7502
 7073SOL     OW22434   2.871   5.582   0.539  0.2050  0.0415 -0.1557
 7073SOL    HW122435   2.899   5.608   0.452 -0.7502  1.5247 -0.0435
 7073SOL    HW222436   2.901   5.653   0.596 -0.2118 -0.3407  0.5543
 7074SOL     OW22437   2.112   4.838   2.395  0.4185  0.1402  0.1953
 7074SOL    HW122438   2.190   4.888   2.420  0.0897  1.0977 -0.6378
 7074SOL    HW222439   2.097   4.780   2.470  1.4871  0.4632  0.6948
 7075SOL     OW22440   1.953   3.832   3.067 -0.1384 -0.1254 -0.0012
 7075SOL    HW122441   2.020   3.783   3.115 -0.7914 -0.2331  0.8169
 7075SOL    HW222442   1.923   3.772   2.999  0.2849 -0.2318 -0.0962
 7076SOL     OW22443   1.810   3.997   2.755  0.4158 -0.1031  0.0929
 7076SOL    HW122444   1.855   3.932   2.701 -0.2164  0.3590 -1.0538
 7076SOL    HW222445   1.860   4.078   2.743  1.3629 -0.4101  1.7365
 7077SOL     OW22446   2.210   5.275   2.935  0.4130 -0.0957  0.0051
 7077SOL    HW122447   2.223   5.229   2.853  2.0681 -1.2168  0.8524
 7077SOL    HW222448   2.188   5.206   2.998 -0.0302  0.6463  0.6885
 7078SOL     OW22449   3.957   5.435   2.680  0.1267 -0.4670  0.2956
 7078SOL    HW122450   3.954   5.342   2.658  0.1655 -0.5795  0.7502
 7078SOL    HW222451   3.993   5.437   2.769  3.0832  0.1666 -0.8091
 7079SOL     OW22452   3.157   4.614   2.592 -0.2870  0.0669 -0.2988
 7079SOL    HW122453   3.233   4.562   2.569  0.1478  0.3378  0.5021
 7079SOL    HW222454   3.173   4.644   2.681 -1.4085 -0.0186 -0.0436
 7080SOL     OW22455   3.532   4.138   1.989  0.5568  0.0842  0.0588
 7080SOL    HW122456   3.544   4.044   2.002 -0.7325 -0.1978 -0.6777
 7080SOL    HW222457   3.591   4.178   2.053  0.2336 -1.2207  1.2390
 7081SOL     OW22458   2.841   4.971   2.904  0.2642  0.1705 -0.8425
 7081SOL    HW122459   2.877   4.901   2.848  1.5088  0.5831 -0.5836
 7081SOL    HW222460   2.899   4.972   2.980 -1.0962 -0.0154  0.2205
 7082SOL     OW22461   2.487   4.797   3.724  0.0912 -0.4401 -0.1591
 7082SOL    HW122462   2.577   4.783   3.697 -0.2902 -0.4437 -1.4722
 7082SOL    HW222463   2.493   4.817   3.818  1.3598 -1.2953 -0.0436
 7083SOL     OW22464   2.561   4.892   2.865 -0.8102  0.0922 -0.2975
 7083SOL    HW122465   2.640   4.943   2.881 -0.2021 -1.3107  1.5856
 7083SOL    HW222466   2.560   4.827   2.935 -2.9439 -0.7840 -1.0512
 7084SOL     OW22467   2.140   5.221   3.644 -0.2699  0.1746 -0.6657
 7084SOL    HW122468   2.085   5.143   3.654  0.2364  0.0792  2.2515
 7084SOL    HW222469   2.229   5.192   3.664  0.2833  1.0870 -1.6573
 7085SOL     OW22470   2.000   5.517   2.767 -0.0601 -0.0750  0.2222
 7085SOL    HW122471   1.969   5.430   2.740 -0.1854 -0.0919  0.4148
 7085SOL    HW222472   2.089   5.523   2.732 -0.9002  0.7023 -1.9781
 7086SOL     OW22473   2.966   5.537   3.034 -0.3906 -0.5237  0.2247
 7086SOL    HW122474   2.885   5.584   3.056  1.0856  1.9234  0.8366
 7086SOL    HW222475   2.941   5.445   3.032 -3.0178  0.0957  1.1433
 7087SOL     OW22476   2.457   3.596   3.797 -0.9487 -0.3623  0.0284
 7087SOL    HW122477   2.458   3.671   3.857  1.2834 -1.8237  2.0354
 7087SOL    HW222478   2.395   3.535   3.837 -1.5583 -0.2390 -0.7195
 7088SOL     OW22479   2.110   5.548   2.186  0.8808 -0.0048  0.2190
 7088SOL    HW122480   2.173   5.519   2.252  1.2002 -0.2078 -0.1633
 7088SOL    HW222481   2.162   5.604   2.127  0.3187  1.2123  0.8442
 7089SOL     OW22482   3.054   5.023   3.394 -0.2940 -0.0054  0.0871
 7089SOL    HW122483   3.016   5.010   3.481  0.0321  0.6309  0.3357
 7089SOL    HW222484   3.142   4.985   3.401 -0.4099 -0.3004 -0.0807
 7090SOL     OW22485   1.722   5.280   2.059 -0.1192 -0.5421 -0.3076
 7090SOL    HW122486   1.751   5.366   2.089  0.0795 -0.8004  0.2669
 7090SOL    HW222487   1.661   5.298   1.987  0.9781  0.0208 -1.1123
 7091SOL     OW22488   1.908   4.451   3.024  0.7347 -0.7490 -0.6833
 7091SOL    HW122489   1.963   4.440   3.102  1.0683 -0.2006 -0.8381
 7091SOL    HW222490   1.843   4.381   3.031  1.4083 -1.3627 -0.4621
 7092SOL     OW22491   3.013   5.868   3.189  0.1312  0.2131 -0.1604
 7092SOL    HW122492   3.001   5.773   3.193  0.7105  0.1869  1.8075
 7092SOL    HW222493   2.976   5.900   3.271  3.4376  1.2495  1.0752
 7093SOL     OW22494   2.654   5.274   2.427 -0.1192 -1.0308 -0.1884
 7093SOL    HW122495   2.613   5.306   2.506  0.1423  0.0498 -0.4786
 7093SOL    HW222496   2.663   5.179   2.441 -1.0293 -1.0087  0.6182
 7094SOL     OW22497   1.696   4.380   2.750  0.5480 -0.4985 -0.1633
 7094SOL    HW122498   1.777   4.331   2.763 -0.2300 -1.8424 -0.2565
 7094SOL    HW222499   1.671   4.361   2.660 -0.9519 -1.8182  0.4790
 7095SOL     OW22500   3.628   5.516   2.104 -0.1662 -0.1722 -0.7476
 7095SOL    HW122501   3.709   5.488   2.062  0.1572  2.0502 -1.7966
 7095SOL    HW222502   3.572   5.543   2.031 -0.6634  1.1671  0.0934
 7096SOL     OW22503   1.893   5.018   1.651 -0.2733 -0.2758  0.0519
 7096SOL    HW122504   1.865   5.060   1.733  1.5240 -1.1656  1.1836
 7096SOL    HW222505   1.899   4.925   1.673 -0.3192 -0.6121 -1.2817
 7097SOL     OW22506   2.239   4.627   3.121  0.1281  0.5006  0.2119
 7097SOL    HW122507   2.280   4.639   3.035  0.4036 -1.5806 -0.0096
 7097SOL    HW222508   2.285   4.687   3.179  1.4235  0.4087 -0.6765
 7098SOL     OW22509   2.441   5.496   2.507  0.4580  0.7129  0.8929
 7098SOL    HW122510   2.379   5.519   2.577  0.6795  0.3895  1.2001
 7098SOL    HW222511   2.507   5.565   2.509  0.3204  0.8468  0.8270
 7099SOL     OW22512   3.666   4.647   2.978 -0.3838  0.2343 -0.2421
 7099SOL    HW122513   3.633   4.591   2.908 -0.0423  0.0862 -0.2886
 7099SOL    HW222514   3.710   4.587   3.038 -0.7564  0.3483  0.1509
 7100SOL     OW22515   2.497   4.016   2.858 -0.3773  0.3616 -0.0639
 7100SOL    HW122516   2.441   4.045   2.930  0.2940  1.0072  0.2068
 7100SOL    HW222517   2.584   4.008   2.897  0.1308  1.3833 -0.9557
 7101SOL     OW22518   2.250   4.365   2.985  0.2343  0.0144 -0.4111
 7101SOL    HW122519   2.276   4.285   3.030  0.1306 -0.9376 -1.9549
 7101SOL    HW222520   2.179   4.401   3.038  0.0661 -1.1074  0.1407
 7102SOL     OW22521   3.184   4.432   1.974  0.1468  0.1679 -0.3001
 7102SOL    HW122522   3.253   4.494   2.000  1.3047 -1.5374  0.9159
 7102SOL    HW222523   3.152   4.397   2.057 -0.1523 -1.2163 -0.9800
 7103SOL     OW22524   3.273   5.142   2.994  0.1334 -0.1766 -0.1446
 7103SOL    HW122525   3.229   5.189   3.065  0.2458 -0.2634 -0.0167
 7103SOL    HW222526   3.353   5.108   3.034  1.0945  1.2830 -0.7586
 7104SOL     OW22527   2.979   3.824   3.845  0.1299  0.2005 -0.0129
 7104SOL    HW122528   3.022   3.862   3.921 -2.0791 -1.3618  2.1888
 7104SOL    HW222529   2.989   3.890   3.776  2.8409  1.3707  1.3503
 7105SOL     OW22530   3.170   5.368   2.736  0.4462 -0.5326  0.0891
 7105SOL    HW122531   3.194   5.276   2.750  0.5661 -0.7043 -1.1233
 7105SOL    HW222532   3.241   5.418   2.776  1.6326 -1.0093 -1.3292
 7106SOL     OW22533   3.417   5.915   1.658  0.6543 -0.3882 -0.4523
 7106SOL    HW122534   3.377   5.830   1.642 -0.9136  0.6424 -2.5225
 7106SOL    HW222535   3.475   5.929   1.584  1.4214  0.0814  0.2175
 7107SOL     OW22536   3.135   4.305   2.811 -0.2840 -0.3078 -0.2284
 7107SOL    HW122537   3.204   4.371   2.809 -0.6464  0.0878 -2.0789
 7107SOL    HW222538   3.109   4.299   2.903  0.7232  1.1058  0.1730
 7108SOL     OW22539   3.285   4.521   3.419 -0.0822  0.1400  0.6118
 7108SOL    HW122540   3.289   4.439   3.370  0.7640  1.6147 -1.9907
 7108SOL    HW222541   3.374   4.555   3.416 -0.8712  2.2724 -0.5327
 7109SOL     OW22542   3.895   5.420   2.013  0.2170 -0.5794 -0.2562
 7109SOL    HW122543   3.936   5.378   1.938 -0.6547 -0.3342 -0.8879
 7109SOL    HW222544   3.864   5.348   2.068  0.7712 -0.7604 -0.1849
 7110SOL     OW22545   2.776   4.283   3.069  0.2597 -0.2224 -0.0851
 7110SOL    HW122546   2.800   4.264   3.160  2.3753  0.8039 -0.3655
 7110SOL    HW222547   2.759   4.197   3.030 -1.1012 -0.6465  1.3520
 7111SOL     OW22548   3.164   4.600   3.671 -0.6606 -0.0280  0.7416
 7111SOL    HW122549   3.191   4.580   3.581  1.3340  1.2010  1.0101
 7111SOL    HW222550   3.218   4.543   3.725  0.2695  1.2480  1.2251
 7112SOL     OW22551   2.587   4.629   3.284 -0.0162  0.1287 -0.3110
 7112SOL    HW122552   2.671   4.664   3.313  0.1769  0.4171 -1.1676
 7112SOL    HW222553   2.523   4.692   3.315  0.2066  0.5608 -0.7200
 7113SOL     OW22554   2.933   4.496   2.936  0.0145  0.9489 -0.4209
 7113SOL    HW122555   2.857   4.456   2.979  0.1083  1.5027  0.2844
 7113SOL    HW222556   3.008   4.467   2.987  0.3254  0.1022 -1.3384
 7114SOL     OW22557   3.133   4.334   2.505 -0.5923 -0.1481  0.3373
 7114SOL    HW122558   3.070   4.368   2.568 -0.3386 -0.9488  1.0318
 7114SOL    HW222559   3.217   4.336   2.550 -0.0113  1.3172 -0.7241
 7115SOL     OW22560   1.950   4.261   2.801 -0.1495  0.4904  0.1790
 7115SOL    HW122561   2.013   4.294   2.738 -0.4740 -1.5124 -1.2978
 7115SOL    HW222562   1.952   4.324   2.873  2.2826  1.3555 -0.5688
 7116SOL     OW22563   1.998   5.395   3.493  0.0444  0.1560 -0.1866
 7116SOL    HW122564   2.044   5.404   3.410 -0.8732  0.9730 -0.6258
 7116SOL    HW222565   2.046   5.326   3.539  0.6163 -0.2600 -1.3512
 7117SOL     OW22566   2.781   4.000   2.154 -0.3169  0.3297  0.4422
 7117SOL    HW122567   2.846   4.031   2.216  0.6834  1.0810 -0.9286
 7117SOL    HW222568   2.719   3.950   2.207  0.5327  0.8780  2.0122
 7118SOL     OW22569   3.252   5.189   2.416  0.0613  0.4484  0.4028
 7118SOL    HW122570   3.182   5.133   2.450  0.8416 -2.1647 -1.9206
 7118SOL    HW222571   3.328   5.168   2.469  0.3937 -0.9588 -0.5604
 7119SOL     OW22572   2.747   4.011   2.976  0.1539  0.0526 -0.8948
 7119SOL    HW122573   2.821   3.989   3.032 -0.4400 -0.8489 -0.4331
 7119SOL    HW222574   2.783   4.013   2.888  0.7170 -0.4510 -0.6822
 7120SOL     OW22575   2.814   5.522   2.398  0.6294  0.0827  0.5639
 7120SOL    HW122576   2.868   5.492   2.471  0.0609 -0.4461  0.7663
 7120SOL    HW222577   2.755   5.449   2.379  0.3923  0.4258 -0.0586
 7121SOL     OW22578   2.279   5.566   2.746  0.0546  0.3918 -1.1062
 7121SOL    HW122579   2.278   5.661   2.746  0.3053  0.4034 -0.1428
 7121SOL    HW222580   2.329   5.542   2.823 -1.8454 -0.5339 -0.0781
 7122SOL     OW22581   3.490   4.906   2.857 -0.7452 -0.0318 -1.0703
 7122SOL    HW122582   3.503   4.918   2.763  0.6021 -0.1078 -0.9206
 7122SOL    HW222583   3.561   4.955   2.898  0.2158 -2.0051 -0.1926
 7123SOL     OW22584   3.130   4.716   3.224  0.2130 -0.3300  0.3766
 7123SOL    HW122585   3.174   4.763   3.295  0.4248 -1.2579  0.8865
 7123SOL    HW222586   3.201   4.669   3.179 -0.2398 -2.0962  1.4083
 7124SOL     OW22587   1.820   4.722   2.225 -0.0342  0.0950 -0.7130
 7124SOL    HW122588   1.731   4.720   2.191  0.0168  0.6031 -0.8931
 7124SOL    HW222589   1.817   4.789   2.294  0.0706 -0.3026 -0.3211
 7125SOL     OW22590   1.894   4.703   2.977  0.2658 -0.5062 -0.2893
 7125SOL    HW122591   1.904   4.608   2.985  0.5612 -0.4725 -0.2582
 7125SOL    HW222592   1.879   4.733   3.066 -0.0537 -0.5476 -0.3265
 7126SOL     OW22593   2.859   5.985   2.057 -0.1995 -0.0309  0.4429
 7126SOL    HW122594   2.918   5.946   1.993  0.8088 -2.1269  2.5143
 7126SOL    HW222595   2.863   5.927   2.133 -2.8086  1.2818  1.7302
 7127SOL     OW22596   2.112   3.989   3.786  0.0336  0.1619 -0.1184
 7127SOL    HW122597   2.199   3.958   3.761  0.1039 -1.1689  1.5642
 7127SOL    HW222598   2.129   4.057   3.852 -0.2011  0.2578 -0.1556
 7128SOL     OW22599   3.352   4.899   1.935  0.0609  0.0852  0.2194
 7128SOL    HW122600   3.406   4.939   2.004  0.5557  0.2783 -0.2740
 7128SOL    HW222601   3.273   4.870   1.981  0.8618 -0.8280  1.0901
 7129SOL     OW22602   1.835   5.511   2.157  0.2321  0.1615 -0.2858
 7129SOL    HW122603   1.797   5.569   2.091  0.1823 -2.3831 -2.7021
 7129SOL    HW222604   1.927   5.538   2.162  0.4210 -0.0198 -2.0093
 7130SOL     OW22605   2.701   3.743   2.011 -0.4252  0.3020  0.7203
 7130SOL    HW122606   2.734   3.682   2.076 -0.6848 -0.9020 -0.2326
 7130SOL    HW222607   2.677   3.821   2.060  0.4414 -0.1576  1.8963
 7131SOL     OW22608   2.439   5.920   2.967  0.2652  0.2024  0.4392
 7131SOL    HW122609   2.408   5.999   3.011 -2.2268 -1.3969  1.8550
 7131SOL    HW222610   2.448   5.856   3.038 -1.3697 -1.7600 -0.9927
 7132SOL     OW22611   2.946   5.276   2.968 -0.4371 -0.4880  0.3446
 7132SOL    HW122612   2.934   5.236   3.054  0.8303  1.0935  1.3239
 7132SOL    HW222613   3.030   5.242   2.937  0.2629  0.7111  0.8323
 7133SOL     OW22614   2.167   4.347   2.672  0.2974 -0.0095 -0.1396
 7133SOL    HW122615   2.153   4.253   2.655 -0.1379 -0.4402  2.2231
 7133SOL    HW222616   2.232   4.349   2.742 -0.7560  1.3670  0.8643
 7134SOL     OW22617   3.595   4.162   3.705  0.0053 -0.7371 -0.1262
 7134SOL    HW122618   3.592   4.241   3.759 -0.9155  0.2785 -1.6122
 7134SOL    HW222619   3.663   4.109   3.746  0.2425  0.5548  1.2620
 7135SOL     OW22620   2.696   4.437   1.894  0.8001  0.6467  0.1637
 7135SOL    HW122621   2.773   4.433   1.837  0.3158 -1.2007 -0.4302
 7135SOL    HW222622   2.623   4.451   1.835  0.5940  1.7540  0.6655
 7136SOL     OW22623   2.658   3.378   3.875 -0.7412 -0.1459 -0.3083
 7136SOL    HW122624   2.745   3.415   3.858 -0.7273 -1.1583 -2.8578
 7136SOL    HW222625   2.612   3.448   3.922  1.2360  0.6417  0.5740
 7137SOL     OW22626   2.531   5.438   3.229 -0.5356 -0.4154 -0.0081
 7137SOL    HW122627   2.571   5.479   3.306 -1.4058 -0.9624  0.7504
 7137SOL    HW222628   2.580   5.357   3.217  0.8269  0.5278 -1.1809
 7138SOL     OW22629   3.596   4.490   3.202  0.4819  0.2626  0.0022
 7138SOL    HW122630   3.596   4.528   3.290  0.1244 -0.4987  0.3438
 7138SOL    HW222631   3.604   4.395   3.217  1.1823  0.1818 -0.8157
 7139SOL     OW22632   2.823   5.810   2.856  0.3566  0.1026  0.2819
 7139SOL    HW122633   2.835   5.814   2.761  1.2612  0.1106  0.3957
 7139SOL    HW222634   2.784   5.723   2.871  0.3325  0.0480 -0.0795
 7140SOL     OW22635   3.407   4.256   3.011 -0.5448  0.7776 -0.3607
 7140SOL    HW122636   3.405   4.322   2.942 -1.0756  0.3159 -0.7929
 7140SOL    HW222637   3.490   4.212   3.000  0.5497  2.3880  0.9145
 7141SOL     OW22638   2.269   4.051   2.280  0.0850 -0.0786 -0.6155
 7141SOL    HW122639   2.229   4.138   2.274 -0.0993 -0.2476 -2.5751
 7141SOL    HW222640   2.296   4.031   2.191  0.7264 -1.7709 -0.0823
 7142SOL     OW22641   3.107   4.864   2.400 -0.6028 -0.3393 -0.3120
 7142SOL    HW122642   3.124   4.803   2.472 -2.1616 -1.3009 -0.7198
 7142SOL    HW222643   3.083   4.946   2.444  0.6579 -0.2367  0.2365
 7143SOL     OW22644   2.052   3.695   2.081 -0.0014 -0.4833 -0.0862
 7143SOL    HW122645   1.994   3.618   2.075 -0.0617 -0.5230  0.8884
 7143SOL    HW222646   2.101   3.681   2.162 -0.6907  0.9725  0.6065
 7144SOL     OW22647   2.863   3.663   2.721  0.2185 -0.1008 -0.1699
 7144SOL    HW122648   2.919   3.731   2.760 -0.7332 -0.2515  1.5660
 7144SOL    HW222649   2.879   3.586   2.775 -0.0135 -0.7856 -1.0611
 7145SOL     OW22650   2.878   4.733   3.381  0.0122  0.5516  0.1597
 7145SOL    HW122651   2.891   4.647   3.420 -2.9471 -0.6602 -1.2753
 7145SOL    HW222652   2.948   4.741   3.315 -0.0629 -1.0258 -0.1289
 7146SOL     OW22653   2.944   5.378   2.590  0.5604 -0.0304  0.3905
 7146SOL    HW122654   3.009   5.370   2.660  0.5260 -0.9215  0.3415
 7146SOL    HW222655   2.895   5.295   2.594 -0.2813  0.4426  0.1405
 7147SOL     OW22656   2.484   4.748   2.399 -0.2926  0.0554 -0.3957
 7147SOL    HW122657   2.413   4.792   2.352 -0.3103 -0.2433 -0.6517
 7147SOL    HW222658   2.505   4.672   2.345 -0.3043 -0.2887  0.0735
 7148SOL     OW22659   3.466   5.456   2.344  0.1046 -0.0380  0.1087
 7148SOL    HW122660   3.516   5.491   2.270 -0.2824  0.2461 -0.0283
 7148SOL    HW222661   3.393   5.518   2.354  0.1487 -0.0875  0.7217
 7149SOL     OW22662   2.941   4.149   2.334 -0.2273  0.2765 -0.3011
 7149SOL    HW122663   2.903   4.192   2.410 -0.4851  1.3550 -1.0248
 7149SOL    HW222664   3.002   4.085   2.371 -0.5903  0.5484  0.8089
 7150SOL     OW22665   2.034   4.526   3.285  0.1146  0.2308 -0.2821
 7150SOL    HW122666   2.107   4.550   3.228  0.9875 -0.3554  0.5545
 7150SOL    HW222667   2.068   4.455   3.339 -0.7592  0.6035  0.7989
 7151SOL     OW22668   2.331   4.030   3.073 -0.2168 -0.1967 -0.1078
 7151SOL    HW122669   2.304   3.966   3.139  1.0306 -1.3622 -0.6822
 7151SOL    HW222670   2.249   4.069   3.043 -0.9810 -1.2072  0.5845
 7152SOL     OW22671   2.879   4.287   2.651  0.0475 -0.2283 -0.2438
 7152SOL    HW122672   2.937   4.297   2.726 -1.2747  0.3841  0.7487
 7152SOL    HW222673   2.850   4.376   2.631  0.6305 -0.3373 -1.7182
 7153SOL     OW22674   3.326   3.689   2.826  0.6033 -0.1724  0.4055
 7153SOL    HW122675   3.260   3.758   2.815 -1.7662 -2.3390  0.1464
 7153SOL    HW222676   3.359   3.703   2.915 -1.7566 -0.2036  1.3699
 7154SOL     OW22677   3.209   5.060   2.727 -0.0673 -0.0553  0.4469
 7154SOL    HW122678   3.231   5.031   2.815  0.7660  2.4053  1.1108
 7154SOL    HW222679   3.290   5.050   2.677 -0.7840 -2.3667 -0.3766
 7155SOL     OW22680   2.294   5.324   2.315 -0.0003 -0.2937 -0.1193
 7155SOL    HW122681   2.347   5.314   2.236 -0.7272 -1.5912 -0.4633
 7155SOL    HW222682   2.350   5.372   2.376  1.4837 -1.3977 -0.5655
 7156SOL     OW22683   3.175   3.990   2.376 -0.0115 -0.3903  0.4613
 7156SOL    HW122684   3.241   3.935   2.419  0.1035  0.3119  1.1950
 7156SOL    HW222685   3.186   3.970   2.282  0.6928 -0.8826  0.6323
 7157SOL     OW22686   2.401   4.407   2.059 -0.0867  0.3979 -0.0976
 7157SOL    HW122687   2.442   4.329   2.021  0.9463  0.5330  0.6884
 7157SOL    HW222688   2.475   4.462   2.086 -0.7907  1.8036 -0.9076
 7158SOL     OW22689   2.476   5.040   2.663 -0.3470  0.1784  0.1270
 7158SOL    HW122690   2.534   5.010   2.593 -1.4307 -2.2614  0.1831
 7158SOL    HW222691   2.488   4.977   2.734 -1.0358  1.2299  1.2292
 7159SOL     OW22692   3.274   5.211   3.524  0.1183 -0.0534  0.5248
 7159SOL    HW122693   3.294   5.267   3.449 -0.3929 -0.9559 -0.3074
 7159SOL    HW222694   3.330   5.134   3.513 -0.2556 -0.3801  0.8466
 7160SOL     OW22695   3.006   4.917   3.120  0.2226 -0.4437  0.3538
 7160SOL    HW122696   2.996   4.952   3.208 -1.9974 -0.1389  0.0416
 7160SOL    HW222697   3.054   4.835   3.132  1.9581  0.6830  1.5445
 7161SOL     OW22698   3.664   5.195   2.772  0.6015  0.1904 -0.3371
 7161SOL    HW122699   3.672   5.116   2.718 -2.2962 -2.2781  2.3831
 7161SOL    HW222700   3.717   5.177   2.849  1.9767  2.1392 -0.7768
 7162SOL     OW22701   2.793   3.713   3.645  0.5309 -0.9272 -0.1018
 7162SOL    HW122702   2.793   3.683   3.735  1.3822  0.3899  0.3636
 7162SOL    HW222703   2.871   3.769   3.638 -0.6010  0.6047 -1.0834
 7163SOL     OW22704   2.391   4.813   3.283  0.2612 -0.0767  0.1446
 7163SOL    HW122705   2.438   4.889   3.251 -0.7813  0.6375  0.2677
 7163SOL    HW222706   2.361   4.838   3.371  0.5518 -0.9170  0.4990
 7164SOL     OW22707   2.910   4.712   2.761 -0.1280  0.1605  0.3025
 7164SOL    HW122708   2.990   4.734   2.713 -1.4950  0.2815 -2.0833
 7164SOL    HW222709   2.938   4.646   2.824  1.8162  0.0019 -0.6365
 7165SOL     OW22710   2.497   4.259   3.165  0.2543  0.0766 -0.0962
 7165SOL    HW122711   2.571   4.264   3.105 -1.4100  0.5328 -2.2173
 7165SOL    HW222712   2.447   4.183   3.135 -0.1981 -0.1970  1.2677
 7166SOL     OW22713   3.361   4.590   3.077  0.2695 -0.7294 -0.2618
 7166SOL    HW122714   3.437   4.569   3.132  0.0158 -0.5148  0.1724
 7166SOL    HW222715   3.390   4.569   2.988  1.8442  1.9803 -0.4954
 7167SOL     OW22716   2.403   5.172   3.376 -0.3376  0.3140  0.1355
 7167SOL    HW122717   2.337   5.242   3.378 -0.1447  0.5155 -0.3723
 7167SOL    HW222718   2.408   5.141   3.466 -2.0896 -0.6145 -0.0421
 7168SOL     OW22719   1.850   4.893   2.446 -0.3438  0.1748  0.0206
 7168SOL    HW122720   1.939   4.882   2.412 -0.5326 -0.5489 -0.2563
 7168SOL    HW222721   1.862   4.915   2.538  0.1495  1.1038 -0.2589
 7169SOL     OW22722   2.678   4.645   2.650  0.1936  0.8393  0.3961
 7169SOL    HW122723   2.747   4.680   2.707  0.1007  1.4825  0.1211
 7169SOL    HW222724   2.725   4.607   2.576  0.2678  0.9777  0.3713
 7170SOL     OW22725   2.816   5.040   2.265  0.6399  0.1906  0.1502
 7170SOL    HW122726   2.909   5.037   2.241  0.3801 -0.5564 -0.8447
 7170SOL    HW222727   2.785   5.123   2.229  0.4961 -0.4441 -1.2605
 7171SOL     OW22728   2.387   5.097   3.690 -0.3416 -0.1865 -0.1829
 7171SOL    HW122729   2.442   5.023   3.667  0.2201  0.8052 -2.2603
 7171SOL    HW222730   2.401   5.110   3.784  0.5115 -1.8872 -0.0495
 7172SOL     OW22731   1.747   5.256   2.883 -0.3872 -0.4311 -0.4097
 7172SOL    HW122732   1.790   5.200   2.948 -0.7727  1.1186  1.2468
 7172SOL    HW222733   1.802   5.247   2.805  1.0664 -1.0533  0.6228
 7173SOL     OW22734   2.348   4.521   3.648 -0.5292 -0.1803 -0.7693
 7173SOL    HW122735   2.395   4.601   3.669 -1.3849  0.4758 -1.2893
 7173SOL    HW222736   2.356   4.513   3.553 -0.3051 -0.8116 -0.7037
 7174SOL     OW22737   3.641   3.925   3.538  0.2145  0.5880  0.0936
 7174SOL    HW122738   3.713   3.895   3.592 -0.1110 -0.4480 -0.0290
 7174SOL    HW222739   3.610   4.005   3.581  0.5164  0.2594  0.9426
 7175SOL     OW22740   2.993   3.898   3.570  0.3388 -0.1837 -0.3202
 7175SOL    HW122741   3.001   3.937   3.483  0.5024  0.2847 -0.0969
 7175SOL    HW222742   3.078   3.855   3.585  0.7026  0.6534  0.0490
 7176SOL     OW22743   2.214   3.713   3.463 -0.6272 -0.3074 -0.2399
 7176SOL    HW122744   2.155   3.666   3.522  0.3680 -2.0420 -0.5538
 7176SOL    HW222745   2.298   3.667   3.472  0.3157  1.2421 -0.8242
 7177SOL     OW22746   2.428   4.555   2.864  0.7627  0.4979  0.1387
 7177SOL    HW122747   2.500   4.601   2.908  2.4422 -1.7495 -0.0472
 7177SOL    HW222748   2.397   4.493   2.929  0.0173  0.4060 -0.3003
 7178SOL     OW22749   3.055   4.046   2.608  0.1618 -0.1176  0.2162
 7178SOL    HW122750   3.092   4.023   2.523  0.1553 -0.9780  0.4435
 7178SOL    HW222751   3.031   4.139   2.599  0.3011 -0.1592 -0.6636
 7179SOL     OW22752   2.028   4.317   3.553 -0.5937 -0.4847 -0.1172
 7179SOL    HW122753   2.102   4.297   3.610 -0.5452  1.6746  0.6562
 7179SOL    HW222754   2.027   4.245   3.489  1.3745 -1.2155  0.5993
 7180SOL     OW22755   2.139   4.767   2.869  0.6911 -0.2649 -0.0624
 7180SOL    HW122756   2.193   4.805   2.939  0.4065 -0.8379  0.4757
 7180SOL    HW222757   2.060   4.736   2.913  1.9099 -3.7518  0.0520
 7181SOL     OW22758   3.134   4.431   3.103  0.1514  0.7947 -1.0393
 7181SOL    HW122759   3.219   4.468   3.084  0.4031  0.9812  0.3362
 7181SOL    HW222760   3.131   4.425   3.199 -1.0498  0.0333 -1.0969
 7182SOL     OW22761   1.908   3.792   2.578 -0.5294  0.4074 -0.0048
 7182SOL    HW122762   1.987   3.807   2.525  0.9949  1.8743  2.4876
 7182SOL    HW222763   1.887   3.700   2.564  0.7854  0.3144 -1.7700
 7183SOL     OW22764   3.186   3.928   2.095 -0.3065 -0.4229  0.3464
 7183SOL    HW122765   3.111   3.930   2.037 -0.1771 -0.6187  0.1748
 7183SOL    HW222766   3.214   3.837   2.097  0.2095 -0.2738  0.0447
 7184SOL     OW22767   2.621   4.689   3.025 -0.0332 -0.0461  0.2825
 7184SOL    HW122768   2.711   4.659   3.015  0.6757  1.9063  0.2010
 7184SOL    HW222769   2.599   4.670   3.116 -0.3174 -2.3532 -0.2025
 7185SOL     OW22770   2.496   5.177   3.932 -0.1529  0.1602  0.0417
 7185SOL    HW122771   2.578   5.182   3.980  0.0859  0.1039 -0.3601
 7185SOL    HW222772   2.433   5.223   3.988  0.1562  0.2274  0.3363
 7186SOL     OW22773   2.253   4.289   3.732  0.0579 -0.2382 -0.2751
 7186SOL    HW122774   2.290   4.234   3.800  0.8410 -0.1863 -0.6493
 7186SOL    HW222775   2.316   4.361   3.722 -0.4833  0.2228 -0.4444
 7187SOL     OW22776   3.381   3.823   1.670 -0.4090 -0.3369 -0.2251
 7187SOL    HW122777   3.322   3.838   1.744  0.8747  0.1034  0.7405
 7187SOL    HW222778   3.431   3.904   1.662  0.2413 -0.7850 -0.8705
 7188SOL     OW22779   3.274   4.050   1.861 -0.2026 -1.0081 -0.1195
 7188SOL    HW122780   3.344   4.115   1.854 -0.4034 -0.8574 -0.7829
 7188SOL    HW222781   3.250   4.050   1.954 -0.5896  0.2805 -0.2060
 7189SOL     OW22782   2.816   5.171   2.724 -0.3678  0.1740  0.5919
 7189SOL    HW122783   2.731   5.208   2.750  0.0086  1.0231  0.6394
 7189SOL    HW222784   2.841   5.115   2.798 -0.2577  0.9843  1.1850
 7190SOL     OW22785   2.430   4.414   2.566 -0.6516 -0.4535  0.2683
 7190SOL    HW122786   2.358   4.409   2.504 -0.6181  0.2541  0.1612
 7190SOL    HW222787   2.469   4.327   2.565 -0.0514 -0.2031 -1.4395
 7191SOL     OW22788   2.202   4.098   2.603 -0.0234 -0.1874  0.9054
 7191SOL    HW122789   2.144   4.061   2.536  1.4078 -2.8344  0.9648
 7191SOL    HW222790   2.283   4.048   2.593  2.0293  2.8436  1.3007
 7192SOL     OW22791   2.651   4.375   3.424 -0.4886 -0.1593  0.7746
 7192SOL    HW122792   2.714   4.422   3.479  2.3214 -1.7987 -0.8061
 7192SOL    HW222793   2.603   4.444   3.378 -0.4988  1.1563  2.6265
 7193SOL     OW22794   3.389   4.286   3.296  0.3485  0.0261 -0.0585
 7193SOL    HW122795   3.394   4.300   3.201  0.7031  0.8890  0.0746
 7193SOL    HW222796   3.455   4.220   3.314 -0.0202 -0.4651 -0.4660
 7194SOL     OW22797   2.314   5.035   2.423  0.2671 -0.3740  0.1112
 7194SOL    HW122798   2.390   5.036   2.481  0.8190 -0.8325 -0.5827
 7194SOL    HW222799   2.351   5.031   2.335 -0.5610 -0.3094 -0.2524
 7195SOL     OW22800   1.909   5.413   2.422  0.5610  0.1293 -0.0952
 7195SOL    HW122801   1.954   5.328   2.419 -0.8587 -0.6848  0.7207
 7195SOL    HW222802   1.865   5.420   2.337 -0.9676 -0.9269  0.5689
 7196SOL     OW22803   2.526   5.782   3.207 -0.2071 -0.4663 -0.3576
 7196SOL    HW122804   2.614   5.753   3.185  1.1466  2.5821  0.4530
 7196SOL    HW222805   2.499   5.727   3.280  2.0417  0.0079  0.9324
 7197SOL     OW22806   2.869   4.491   3.529 -0.0114 -0.0800 -0.1162
 7197SOL    HW122807   2.952   4.449   3.508 -0.1635  0.0069 -0.9314
 7197SOL    HW222808   2.874   4.511   3.623  0.7029 -0.4702 -0.0711
 7198SOL     OW22809   2.074   4.230   3.191  0.1396 -0.4392  0.0311
 7198SOL    HW122810   2.032   4.178   3.258 -2.7936 -1.1049 -2.1390
 7198SOL    HW222811   2.072   4.175   3.113 -0.3034  1.7427 -1.5921
 7199SOL     OW22812   2.607   3.924   3.656 -0.0305 -0.6143  0.0319
 7199SOL    HW122813   2.657   3.982   3.713 -1.5643 -0.1799  1.0000
 7199SOL    HW222814   2.671   3.863   3.621  1.2873  0.4040  0.5880
 7200SOL     OW22815   3.940   4.505   3.520 -0.3825  0.0700 -0.2281
 7200SOL    HW122816   3.963   4.596   3.505  1.6844 -0.2881  0.3253
 7200SOL    HW222817   3.846   4.505   3.535 -0.8396  1.7734 -2.5538
 7201SOL     OW22818   3.099   3.869   2.825 -0.0587  0.3954 -0.3868
 7201SOL    HW122819   3.123   3.930   2.894 -0.5986  0.5318 -0.3194
 7201SOL    HW222820   3.093   3.923   2.746  0.0144  0.3336 -0.4350
 7202SOL     OW22821   4.041   4.058   3.327 -0.0821 -0.9157  0.5480
 7202SOL    HW122822   3.961   4.057   3.275  0.5297 -0.5348 -0.4430
 7202SOL    HW222823   4.077   4.146   3.313  1.0598 -1.4396  0.0972
 7203SOL     OW22824   2.152   5.124   3.190  0.3146 -0.4884  0.3766
 7203SOL    HW122825   2.114   5.063   3.254 -1.3220 -1.2812 -1.2313
 7203SOL    HW222826   2.139   5.210   3.228 -2.9172 -0.7398  0.1327
 7204SOL     OW22827   2.581   4.161   2.636  0.6569  0.0582 -0.1440
 7204SOL    HW122828   2.545   4.121   2.716  1.2430 -3.2297 -1.3486
 7204SOL    HW222829   2.670   4.188   2.662  1.8776 -3.4187 -0.1424
 7205SOL     OW22830   2.489   5.027   3.171  0.4204 -0.0372  0.2363
 7205SOL    HW122831   2.569   5.072   3.141  0.3819  0.1272  0.3793
 7205SOL    HW222832   2.456   5.082   3.242  0.5170 -0.4322  0.5857
 7206SOL     OW22833   2.440   3.979   2.490 -0.0260 -0.1484 -0.3778
 7206SOL    HW122834   2.408   4.021   2.410  2.0918 -0.4345 -1.4491
 7206SOL    HW222835   2.486   4.049   2.536 -0.0628 -0.3242 -0.0759
 7207SOL     OW22836   1.843   4.546   3.552 -0.3330  0.3580  0.0897
 7207SOL    HW122837   1.771   4.535   3.489  0.9080  0.7257 -1.4452
 7207SOL    HW222838   1.899   4.470   3.537 -0.4894 -0.0488  1.4402
 7208SOL     OW22839   3.551   4.853   3.170 -0.0599 -0.0737  0.5905
 7208SOL    HW122840   3.568   4.785   3.105 -0.0899 -0.1806  0.6955
 7208SOL    HW222841   3.509   4.807   3.243 -0.4003  0.1116  0.5181
 7209SOL     OW22842   3.157   4.388   2.256 -0.7578  0.6344  0.2190
 7209SOL    HW122843   3.249   4.369   2.276 -0.5403  0.4559 -0.8967
 7209SOL    HW222844   3.109   4.362   2.335  0.0882  0.2456  0.6167
 7210SOL     OW22845   3.800   5.112   3.062 -0.8174 -0.3184 -0.3186
 7210SOL    HW122846   3.835   5.145   3.146 -0.1739  2.1669 -1.4608
 7210SOL    HW222847   3.848   5.031   3.047 -1.1924 -1.0248  1.8416
 7211SOL     OW22848   3.501   5.775   2.858  0.4513  0.0299 -0.3787
 7211SOL    HW122849   3.564   5.703   2.859  0.6145  0.0624 -3.1740
 7211SOL    HW222850   3.457   5.768   2.774 -0.2215  2.6337 -0.3237
 7212SOL     OW22851   1.955   5.257   2.704 -0.8846  0.0683  0.0456
 7212SOL    HW122852   2.047   5.253   2.731 -1.1995 -0.7991  1.0222
 7212SOL    HW222853   1.953   5.211   2.620 -0.7074 -1.4488  0.8485
 7213SOL     OW22854   2.275   4.917   3.045  0.4471  0.0559 -0.3098
 7213SOL    HW122855   2.370   4.922   3.053  0.4193  0.4360 -0.1839
 7213SOL    HW222856   2.243   4.990   3.098  0.0451 -0.6755  0.4650
 7214SOL     OW22857   3.852   3.720   2.194  0.6342 -0.4964 -0.3843
 7214SOL    HW122858   3.868   3.754   2.282  0.6679  1.5620 -1.1431
 7214SOL    HW222859   3.893   3.783   2.135  0.8008 -1.9459 -1.8911
 7215SOL     OW22860   3.086   5.258   2.028 -0.4566 -0.7531 -0.3138
 7215SOL    HW122861   3.142   5.261   2.106 -0.3418  0.8517 -0.4146
 7215SOL    HW222862   3.146   5.244   1.955 -0.1229  0.9634 -0.4210
 7216SOL     OW22863   2.038   5.315   3.916 -0.6634 -0.2736  0.1710
 7216SOL    HW122864   2.080   5.250   3.972 -0.1339 -0.5434 -0.5227
 7216SOL    HW222865   2.071   5.296   3.828  0.8754  2.0012  0.1664
 7217SOL     OW22866   2.906   5.750   2.251  0.0010  0.1022  0.2134
 7217SOL    HW122867   2.868   5.674   2.295 -0.0080  0.3368  0.6138
 7217SOL    HW222868   2.974   5.713   2.193 -0.4584 -0.2655 -0.0961
 7218SOL     OW22869   2.241   5.176   2.674  0.6821  0.3838 -0.3541
 7218SOL    HW122870   2.245   5.181   2.578  1.5879 -0.7259 -0.3907
 7218SOL    HW222871   2.296   5.102   2.697 -1.2054 -0.7323  0.8895
 7219SOL     OW22872   2.273   5.737   2.059 -0.9684  0.4381  0.0103
 7219SOL    HW122873   2.249   5.729   1.966  0.2384 -0.3761 -0.2507
 7219SOL    HW222874   2.316   5.823   2.065 -0.0994  0.0407 -0.4140
 7220SOL     OW22875   3.446   5.371   3.291  0.1401 -1.0938  0.0772
 7220SOL    HW122876   3.479   5.292   3.249  3.9405  0.5001 -0.3377
 7220SOL    HW222877   3.523   5.427   3.301 -2.3502  2.7142  0.0794
 7221SOL     OW22878   1.902   4.034   2.426 -0.0591  0.1840 -0.4145
 7221SOL    HW122879   1.892   4.009   2.334 -0.2454  1.7047 -0.8307
 7221SOL    HW222880   1.892   3.952   2.474 -0.9179 -0.4924 -1.6877
 7222SOL     OW22881   3.316   5.256   2.168  0.0446  0.2133  0.1876
 7222SOL    HW122882   3.376   5.331   2.169 -0.3484  0.5287  0.4462
 7222SOL    HW222883   3.297   5.239   2.260 -0.1842  0.0513  0.1125
 7223SOL     OW22884   2.780   4.897   3.562 -0.6056 -0.2896 -0.0853
 7223SOL    HW122885   2.804   4.845   3.485  2.1935  1.7650 -0.7681
 7223SOL    HW222886   2.852   4.884   3.624 -2.0459 -0.6635  1.6040
 7224SOL     OW22887   2.597   4.583   2.154  0.2914  0.0317 -0.3637
 7224SOL    HW122888   2.644   4.661   2.182  0.2514  0.1580 -0.6544
 7224SOL    HW222889   2.664   4.514   2.153  0.7629  0.4792 -2.0302
 7225SOL     OW22890   2.874   5.666   1.888 -0.0222  0.3929 -0.3412
 7225SOL    HW122891   2.820   5.699   1.816 -0.5268 -1.0684 -0.6787
 7225SOL    HW222892   2.853   5.572   1.892  1.8809 -0.0598  0.0504
 7226SOL     OW22893   2.188   4.632   2.642  0.3211  0.1799  0.2531
 7226SOL    HW122894   2.178   4.670   2.729  2.0631  1.9905 -0.2819
 7226SOL    HW222895   2.140   4.549   2.647 -2.1420  1.5646  2.0209
 7227SOL     OW22896   3.514   5.110   3.253 -0.3159  0.0222 -0.6169
 7227SOL    HW122897   3.500   5.083   3.344 -0.0841  0.8730 -0.3268
 7227SOL    HW222898   3.554   5.033   3.212  0.2521 -0.1213  0.1779
 7228SOL     OW22899   2.662   5.211   3.112 -0.7770 -0.4108  0.4691
 7228SOL    HW122900   2.725   5.221   3.183 -1.1857 -0.3395  0.8227
 7228SOL    HW222901   2.716   5.198   3.034 -0.2907 -3.6463  1.1960
 7229SOL     OW22902   2.826   3.948   2.714  0.2494 -0.1796  0.7569
 7229SOL    HW122903   2.912   3.975   2.683  0.8798 -1.8862  0.9406
 7229SOL    HW222904   2.809   3.865   2.670 -0.7465 -0.4924  1.6780
 7230SOL     OW22905   2.508   5.537   2.204  1.0221 -0.1129  0.2599
 7230SOL    HW122906   2.468   5.475   2.143  1.8275 -0.4360  0.0451
 7230SOL    HW222907   2.477   5.509   2.290 -0.5626  0.6783 -0.0093
 7231SOL     OW22908   2.091   5.087   2.046  0.5593  0.6146  0.1898
 7231SOL    HW122909   2.083   4.995   2.070  0.2437  0.9288  1.3604
 7231SOL    HW222910   2.118   5.131   2.127  1.8588  1.3961 -0.6262
 7232SOL     OW22911   1.932   4.795   3.253  0.3242 -0.4797  0.0981
 7232SOL    HW122912   1.998   4.844   3.302 -0.7749 -0.3734  1.5620
 7232SOL    HW222913   1.949   4.703   3.273  0.6090 -0.5112 -0.2900
 7233SOL     OW22914   2.482   3.599   3.532 -0.6112  0.1673  0.6175
 7233SOL    HW122915   2.471   3.571   3.623 -1.1115 -1.1462  0.1685
 7233SOL    HW222916   2.562   3.651   3.532  0.2051 -1.0518  1.5443
 7234SOL     OW22917   2.044   4.232   2.175  0.0136  0.0755  0.1873
 7234SOL    HW122918   1.965   4.178   2.176  1.1054 -1.6075 -0.0753
 7234SOL    HW222919   2.069   4.236   2.083  0.7961 -0.2933  0.3748
 7235SOL     OW22920   3.686   4.224   3.227  0.2734 -0.0821  0.0894
 7235SOL    HW122921   3.625   4.178   3.170 -0.8943  0.5632  0.7738
 7235SOL    HW222922   3.753   4.258   3.168 -1.0351  0.7741 -0.9571
 7236SOL     OW22923   1.924   3.945   2.173  0.1815 -0.0631 -0.1946
 7236SOL    HW122924   1.919   3.989   2.088 -1.7645 -0.5340 -0.3827
 7236SOL    HW222925   1.955   3.857   2.152 -0.1338 -0.1262 -0.4094
 7237SOL     OW22926   3.027   5.076   2.535 -0.3461 -0.2694  0.0268
 7237SOL    HW122927   2.939   5.088   2.570  0.1121  2.2994  0.4621
 7237SOL    HW222928   3.082   5.065   2.613  0.0808  1.0995 -0.0540
 7238SOL     OW22929   2.367   4.427   3.357  0.3037  0.4063  0.0810
 7238SOL    HW122930   2.416   4.363   3.305 -0.4429  0.4950 -0.7606
 7238SOL    HW222931   2.342   4.495   3.294 -1.7096 -0.1096  0.2707
 7239SOL     OW22932   3.404   5.458   2.832 -0.4891  0.0885  0.4090
 7239SOL    HW122933   3.460   5.436   2.906  0.5830  3.5782  0.7935
 7239SOL    HW222934   3.461   5.454   2.755 -1.3060 -2.2746 -0.1903
 7240SOL     OW22935   2.844   4.224   3.323 -0.0081 -0.1825  0.1551
 7240SOL    HW122936   2.770   4.276   3.356 -0.7281 -0.0264 -1.5899
 7240SOL    HW222937   2.921   4.278   3.340 -0.3114 -0.1385  1.5680
 7241SOL     OW22938   2.379   5.714   3.461 -0.0688 -0.3905  0.1700
 7241SOL    HW122939   2.394   5.642   3.523  1.8913  0.1062  0.3463
 7241SOL    HW222940   2.285   5.713   3.445 -0.0699 -3.2958 -0.2092
 7242SOL     OW22941   3.541   4.625   3.426 -0.2263 -0.5312  0.0292
 7242SOL    HW122942   3.571   4.558   3.487  1.3920 -2.1902 -2.3776
 7242SOL    HW222943   3.579   4.707   3.459 -0.4444 -1.1238  1.8480
 7243SOL     OW22944   3.197   3.520   2.479  0.3028  0.1296  0.4244
 7243SOL    HW122945   3.178   3.447   2.538  0.2473 -0.0538  0.1789
 7243SOL    HW222946   3.218   3.479   2.395 -1.0484  0.4308 -0.0876
 7244SOL     OW22947   3.841   3.961   3.164  0.1323  0.3683 -0.1278
 7244SOL    HW122948   3.751   3.983   3.138 -0.2346 -1.2796 -0.3544
 7244SOL    HW222949   3.830   3.897   3.235  1.1391  1.3517  0.9579
 7245SOL     OW22950   3.667   4.450   3.589  0.1529  0.2458 -0.1132
 7245SOL    HW122951   3.651   4.359   3.564  0.0266 -0.4014  2.0665
 7245SOL    HW222952   3.679   4.446   3.684 -0.5852  2.5994  0.1363
 7246SOL     OW22953   2.762   5.274   2.139 -0.3506 -0.1483  0.0867
 7246SOL    HW122954   2.734   5.288   2.230  1.0270 -2.6309  0.9900
 7246SOL    HW222955   2.760   5.362   2.100  0.4392  1.2730  2.9271
 7247SOL     OW22956   2.704   6.259   2.784 -0.1765 -0.2407 -0.3616
 7247SOL    HW122957   2.685   6.203   2.859  1.0524 -1.9084 -1.2297
 7247SOL    HW222958   2.618   6.279   2.747 -0.8042  0.6615  1.4886
 7248SOL     OW22959   3.264   4.744   2.804 -0.3071 -0.3533 -0.8571
 7248SOL    HW122960   3.287   4.679   2.871 -1.5637  0.3552  0.3183
 7248SOL    HW222961   3.331   4.812   2.813 -0.6246 -0.1314 -0.1126
 7249SOL     OW22962   2.892   4.541   2.500  0.2313  1.0088 -0.0002
 7249SOL    HW122963   2.906   4.495   2.417 -0.5720 -2.1625  1.4766
 7249SOL    HW222964   2.976   4.582   2.519  1.8900 -1.9634 -0.3080
 7250SOL     OW22965   3.565   5.410   2.612 -0.1914  0.1746  0.1048
 7250SOL    HW122966   3.529   5.400   2.524 -1.2806 -1.7514  0.7195
 7250SOL    HW222967   3.586   5.321   2.640  1.7145  0.8986  1.1863
 7251SOL     OW22968   2.292   4.847   3.537  0.6334  0.5343  0.7221
 7251SOL    HW122969   2.344   4.837   3.617  0.3012 -0.3103  0.8410
 7251SOL    HW222970   2.210   4.802   3.557  0.2578  0.9576  0.1613
 7252SOL     OW22971   1.856   4.436   2.232 -0.2380 -0.2069 -0.2172
 7252SOL    HW122972   1.835   4.529   2.241 -0.4345 -0.1533 -1.1542
 7252SOL    HW222973   1.926   4.421   2.296 -1.7785  0.0411  1.5964
 7253SOL     OW22974   2.427   5.447   2.953  0.2982  0.1785  0.2806
 7253SOL    HW122975   2.356   5.386   2.973 -0.7737  1.3091  0.0091
 7253SOL    HW222976   2.470   5.461   3.037 -1.3510  1.3838  0.9697
 7254SOL     OW22977   2.276   4.362   2.333  0.2898 -0.1074  0.4181
 7254SOL    HW122978   2.329   4.361   2.254  1.1583 -2.8860  0.9164
 7254SOL    HW222979   2.187   4.345   2.303  0.8355 -2.8148  0.0208
 7255SOL     OW22980   3.737   5.640   2.582  0.5560  0.0171 -0.7042
 7255SOL    HW122981   3.748   5.653   2.488 -0.0748  0.0622 -0.7773
 7255SOL    HW222982   3.678   5.565   2.589  0.0334  0.4539 -0.3582
 7256SOL     OW22983   2.525   3.967   3.405 -0.4519 -0.1713  0.4960
 7256SOL    HW122984   2.533   3.970   3.500  3.5983 -1.6799  0.3985
 7256SOL    HW222985   2.544   4.056   3.376 -1.0921  0.1473  1.0138
 7257SOL     OW22986   2.629   5.699   2.501 -0.3362 -0.2159  0.6478
 7257SOL    HW122987   2.680   5.769   2.541 -1.3794  0.9465  0.0150
 7257SOL    HW222988   2.693   5.644   2.457  0.3217  1.8288 -1.1056
 7258SOL     OW22989   3.434   3.990   3.354 -0.3945  0.1333 -0.5881
 7258SOL    HW122990   3.435   3.947   3.268  0.7508 -2.5000  0.6371
 7258SOL    HW222991   3.526   3.995   3.379 -0.7120  0.9551  0.4752
 7259SOL     OW22992   3.187   4.081   3.393 -0.4614  0.2553  0.8110
 7259SOL    HW122993   3.280   4.072   3.371 -0.5075  2.2438 -0.4178
 7259SOL    HW222994   3.185   4.083   3.489  0.4699 -2.0895  0.9573
 7260SOL     OW22995   2.632   4.997   2.446 -0.2949 -0.4414 -0.4158
 7260SOL    HW122996   2.589   4.915   2.420  1.1966 -1.7011  0.9029
 7260SOL    HW222997   2.721   4.990   2.411  0.4113 -0.2413  1.2410
 7261SOL     OW22998   2.555   5.294   2.745 -0.2392 -0.0859  0.3135
 7261SOL    HW122999   2.520   5.205   2.737 -0.7577  0.2243 -0.9717
 7261SOL    HW223000   2.481   5.345   2.779 -0.4219  0.1666 -0.4624
 7262SOL     OW23001   2.650   3.786   1.738 -0.4700  0.0111  0.1128
 7262SOL    HW123002   2.637   3.697   1.705 -1.2004  0.0296  0.3482
 7262SOL    HW223003   2.655   3.776   1.833 -2.1681  0.3898  0.2721
 7263SOL     OW23004   2.970   4.011   3.131 -0.2350  0.0012  0.4129
 7263SOL    HW123005   2.949   4.085   3.189  0.5328 -0.9673  1.9732
 7263SOL    HW223006   3.065   4.016   3.120  0.2281 -2.2369  2.6973
 7264SOL     OW23007   1.856   4.475   1.930  0.5806  0.2812  0.1445
 7264SOL    HW123008   1.920   4.430   1.875 -0.3326 -0.6248 -0.1888
 7264SOL    HW223009   1.892   4.467   2.019  2.0681  1.7755 -0.2580
 7265SOL     OW23010   2.959   6.110   1.762 -0.5001  0.4908  0.0181
 7265SOL    HW123011   3.001   6.178   1.814  0.7658  0.9055 -1.4674
 7265SOL    HW223012   2.997   6.028   1.794  0.0158  0.7137 -0.0123
 7266SOL     OW23013   2.570   4.490   4.037  0.0810 -0.2736 -0.1241
 7266SOL    HW123014   2.602   4.429   3.970  0.3062 -2.0641  1.5332
 7266SOL    HW223015   2.482   4.458   4.058  0.2188 -0.0710  0.8044
 7267SOL     OW23016   2.146   3.840   4.970 -0.2463  0.1452  0.3294
 7267SOL    HW123017   2.158   3.928   4.935  0.6495 -0.3757 -0.7415
 7267SOL    HW223018   2.126   3.787   4.893 -0.5243 -0.6383  0.9280
 7268SOL     OW23019   1.859   3.733   4.846  0.5578  0.4869  0.1630
 7268SOL    HW123020   1.818   3.710   4.929  1.2438 -1.6929 -0.0272
 7268SOL    HW223021   1.834   3.662   4.787  0.1033  1.9755 -1.5202
 7269SOL     OW23022   2.446   4.793   5.339 -0.0390  0.0572  0.2880
 7269SOL    HW123023   2.413   4.716   5.294  0.5647  0.7528 -1.4507
 7269SOL    HW223024   2.416   4.784   5.429 -0.0387 -2.1503  0.1093
 7270SOL     OW23025   3.541   5.097   4.373  0.0321  0.3940 -0.1081
 7270SOL    HW123026   3.541   5.002   4.382  0.4196  0.3761 -0.2704
 7270SOL    HW223027   3.474   5.127   4.435 -0.6266 -0.0259 -0.6149
 7271SOL     OW23028   3.063   4.313   4.557  0.1638 -0.7160  0.1929
 7271SOL    HW123029   3.108   4.374   4.499 -0.2346 -1.3245 -0.7795
 7271SOL    HW223030   3.048   4.362   4.637 -0.0602  0.4211 -0.5303
 7272SOL     OW23031   2.455   5.039   5.005 -0.1336 -0.3008 -0.3987
 7272SOL    HW123032   2.524   4.973   4.992  0.5623  0.0952  1.0510
 7272SOL    HW223033   2.444   5.078   4.919  2.4661  0.5514 -0.4468
 7273SOL     OW23034   2.827   4.731   5.472 -0.0266  0.0394 -0.5581
 7273SOL    HW123035   2.802   4.786   5.547  2.1348  1.0653 -0.5019
 7273SOL    HW223036   2.887   4.786   5.421  0.7647 -1.6397 -1.5175
 7274SOL     OW23037   3.106   4.705   4.692  0.2266 -0.3587  0.0503
 7274SOL    HW123038   3.132   4.665   4.609  0.0726 -2.1883  0.8510
 7274SOL    HW223039   3.012   4.717   4.684  0.0263 -1.6033  0.3772
 7275SOL     OW23040   2.629   4.906   5.602 -0.1619  0.1009 -0.0830
 7275SOL    HW123041   2.582   4.986   5.627 -0.4089 -0.2945  0.7385
 7275SOL    HW223042   2.611   4.896   5.508 -0.4193  0.8144 -0.1146
 7276SOL     OW23043   2.439   4.396   4.773 -0.7683 -0.8596 -0.2159
 7276SOL    HW123044   2.532   4.415   4.756 -0.6020 -0.5091  0.9969
 7276SOL    HW223045   2.415   4.334   4.705 -0.6440  1.7270 -2.8045
 7277SOL     OW23046   3.420   5.223   5.106 -0.1109 -0.3272  0.2477
 7277SOL    HW123047   3.450   5.284   5.039 -1.7178  0.1884 -0.0523
 7277SOL    HW223048   3.498   5.177   5.133  0.5710 -0.6857 -2.1173
 7278SOL     OW23049   2.272   3.859   5.236  0.4029  0.3913  0.0193
 7278SOL    HW123050   2.231   3.830   5.155  1.5502 -0.6751 -0.2167
 7278SOL    HW223051   2.353   3.902   5.209  1.8137 -1.7147  0.5936
 7279SOL     OW23052   3.139   4.155   4.315  0.2412  0.4150 -0.0415
 7279SOL    HW123053   3.074   4.152   4.245 -0.0615  2.3119  0.0904
 7279SOL    HW223054   3.099   4.104   4.386  0.4066 -1.2449 -1.0754
 7280SOL     OW23055   1.954   5.132   4.439  0.3411  0.4643  0.3614
 7280SOL    HW123056   1.881   5.099   4.387  0.3634  0.4887  0.3146
 7280SOL    HW223057   1.997   5.195   4.382  0.4828  0.3448  0.3376
 7281SOL     OW23058   2.836   5.120   5.607 -0.1371 -0.2653 -0.1909
 7281SOL    HW123059   2.853   5.132   5.700  0.6613 -0.3613 -0.3108
 7281SOL    HW223060   2.805   5.030   5.599 -3.0381  0.5878  0.3171
 7282SOL     OW23061   2.413   5.131   4.744 -0.3919 -0.5696  0.1455
 7282SOL    HW123062   2.350   5.163   4.679  0.0956  0.6069  0.2252
 7282SOL    HW223063   2.497   5.130   4.697  0.2486  1.6654  1.0706
 7283SOL     OW23064   2.271   4.696   4.750 -0.2009 -0.6613 -0.0325
 7283SOL    HW123065   2.263   4.644   4.670 -0.8951 -0.6594  0.0281
 7283SOL    HW223066   2.338   4.762   4.730 -0.8553 -0.2307 -0.8461
 7284SOL     OW23067   2.481   5.223   5.405  0.2165  0.4555 -0.2637
 7284SOL    HW123068   2.515   5.158   5.343 -0.3333  0.1129 -0.2165
 7284SOL    HW223069   2.437   5.288   5.350 -0.8752 -0.2108 -0.2098
 7285SOL     OW23070   2.801   4.952   4.220 -0.0202  0.2252 -0.5789
 7285SOL    HW123071   2.870   5.001   4.265 -0.3176  0.8025 -0.7444
 7285SOL    HW223072   2.814   4.971   4.127  1.1728 -1.7032 -0.8605
 7286SOL     OW23073   3.736   3.807   5.067  0.1590  0.1947 -0.4972
 7286SOL    HW123074   3.819   3.815   5.020  0.5760  1.5579  0.4170
 7286SOL    HW223075   3.761   3.809   5.160 -0.7288 -1.4950 -0.1682
 7287SOL     OW23076   2.038   4.320   4.505 -0.5662  0.0687 -0.3680
 7287SOL    HW123077   2.106   4.260   4.475 -0.1082  0.8351 -0.8822
 7287SOL    HW223078   2.041   4.393   4.444 -0.5698  1.0037  0.7158
 7288SOL     OW23079   3.513   5.742   4.926 -0.3235 -0.0167  0.3934
 7288SOL    HW123080   3.517   5.804   4.998  1.0295  0.1012  0.2379
 7288SOL    HW223081   3.593   5.690   4.935  0.2287  0.4503 -1.4082
 7289SOL     OW23082   1.747   5.107   3.936  0.6194 -0.0977  0.4428
 7289SOL    HW123083   1.750   5.177   3.871  0.1697 -0.4935 -0.0096
 7289SOL    HW223084   1.702   5.145   4.011 -1.4357 -0.4796 -0.5354
 7290SOL     OW23085   1.915   4.672   5.262  0.3040 -0.1369 -0.1595
 7290SOL    HW123086   1.976   4.627   5.203 -0.7832 -1.5783 -0.2366
 7290SOL    HW223087   1.971   4.730   5.314  1.6541 -0.9616 -0.6304
 7291SOL     OW23088   2.693   4.826   4.454 -0.1839 -0.6032 -0.0999
 7291SOL    HW123089   2.621   4.889   4.458 -0.2393 -0.6191 -0.8122
 7291SOL    HW223090   2.744   4.852   4.378  0.9950 -0.1446  0.8208
 7292SOL     OW23091   2.964   5.060   5.056 -0.1973 -0.0939 -0.3531
 7292SOL    HW123092   3.056   5.077   5.038 -0.6389 -0.0073 -2.9271
 7292SOL    HW223093   2.938   5.128   5.119  1.7303 -0.8959  1.4435
 7293SOL     OW23094   2.533   3.505   4.611  0.5041  0.3404  0.5673
 7293SOL    HW123095   2.441   3.529   4.626  0.9822  2.1342  0.9143
 7293SOL    HW223096   2.547   3.428   4.667 -0.2631  1.3007  2.1688
 7294SOL     OW23097   2.258   4.790   5.531 -0.4249  0.2325 -0.2476
 7294SOL    HW123098   2.212   4.874   5.536 -0.2948  0.3066 -0.2664
 7294SOL    HW223099   2.198   4.727   5.570 -0.6702  0.2709 -0.5531
 7295SOL     OW23100   3.061   5.811   4.737 -0.4403  0.1003 -0.0874
 7295SOL    HW123101   2.981   5.799   4.787 -0.1726  2.3978  1.0053
 7295SOL    HW223102   3.108   5.727   4.747 -2.7756 -1.4283 -1.0698
 7296SOL     OW23103   2.590   4.257   5.353  0.3129 -0.1515  0.2609
 7296SOL    HW123104   2.593   4.195   5.425  0.6373  1.7505  1.9709
 7296SOL    HW223105   2.656   4.323   5.375 -0.0433  0.8455 -1.4492
 7297SOL     OW23106   3.472   4.947   4.753  0.0409 -0.2463 -0.4672
 7297SOL    HW123107   3.473   4.940   4.849 -0.8725 -2.1969 -0.5430
 7297SOL    HW223108   3.502   5.036   4.735 -1.1228  0.6775  1.6967
 7298SOL     OW23109   3.243   5.644   4.540  0.2388  0.5371 -0.8168
 7298SOL    HW123110   3.268   5.646   4.633 -0.8300  4.5637 -0.3860
 7298SOL    HW223111   3.321   5.615   4.494  1.4611  0.3830  1.2463
 7299SOL     OW23112   2.667   4.535   4.484  0.2022  0.2516  0.9600
 7299SOL    HW123113   2.666   4.631   4.491  1.7761  0.4048 -0.2878
 7299SOL    HW223114   2.702   4.518   4.397 -4.9401 -1.4830 -1.1163
 7300SOL     OW23115   3.049   4.027   4.845 -0.0775  0.9562 -0.2264
 7300SOL    HW123116   3.117   4.089   4.871  1.8850 -0.4158 -1.7511
 7300SOL    HW223117   3.069   3.947   4.894  0.7262 -0.0972 -2.1625
 7301SOL     OW23118   3.410   5.899   4.404 -0.1894  0.3824 -0.1096
 7301SOL    HW123119   3.454   5.936   4.481 -0.6520 -1.4346  1.0733
 7301SOL    HW223120   3.324   5.873   4.436 -0.0371 -1.2835 -0.9764
 7302SOL     OW23121   2.856   4.172   5.506  0.2225 -0.0907  0.0220
 7302SOL    HW123122   2.891   4.249   5.550  1.5441 -0.1953 -0.7977
 7302SOL    HW223123   2.916   4.101   5.527 -0.5859 -0.7552  0.1818
 7303SOL     OW23124   3.114   4.536   5.326  0.1753  0.5918 -0.4431
 7303SOL    HW123125   3.096   4.611   5.269 -2.0925  0.8201  0.4614
 7303SOL    HW223126   3.156   4.575   5.403 -1.6172  1.0784  0.3239
 7304SOL     OW23127   3.055   4.768   5.178 -0.2610  0.3923  0.0294
 7304SOL    HW123128   3.100   4.802   5.101  0.9726  1.1352  1.0296
 7304SOL    HW223129   2.964   4.756   5.150  0.0947  0.9193 -1.4376
 7305SOL     OW23130   3.022   4.274   5.309  0.0049 -0.1948 -0.0654
 7305SOL    HW123131   3.049   4.365   5.318 -0.0104 -0.2187  0.2189
 7305SOL    HW223132   2.945   4.266   5.364  1.1763 -0.8823  1.5435
 7306SOL     OW23133   2.867   3.818   4.801  0.4657 -0.3427 -0.3278
 7306SOL    HW123134   2.786   3.855   4.766  0.9051  0.8464 -0.1366
 7306SOL    HW223135   2.917   3.894   4.832  1.9889 -0.9597 -1.1281
 7307SOL     OW23136   1.955   4.064   4.711  0.8768  0.0023  0.7189
 7307SOL    HW123137   1.875   4.085   4.759  1.1878 -0.0273  1.2498
 7307SOL    HW223138   2.010   4.142   4.720  1.6819 -0.6791  1.9667
 7308SOL     OW23139   1.949   5.170   5.049  0.2816 -0.1859 -0.1015
 7308SOL    HW123140   1.931   5.262   5.029 -1.0268 -0.5894 -0.8734
 7308SOL    HW223141   2.026   5.149   4.997  1.6535  0.9162  1.3861
 7309SOL     OW23142   2.744   4.009   4.101  0.6266 -0.3746 -0.2594
 7309SOL    HW123143   2.772   4.098   4.122  0.3177 -0.1597 -0.7434
 7309SOL    HW223144   2.797   3.954   4.158 -0.4308  0.2067  1.3678
 7310SOL     OW23145   3.282   5.243   4.276 -0.5302  0.1775  0.0421
 7310SOL    HW123146   3.373   5.247   4.247 -1.0978 -2.6276 -2.6488
 7310SOL    HW223147   3.233   5.290   4.208 -1.3414 -0.9445 -0.1682
 7311SOL     OW23148   2.591   3.853   4.590  0.5734  0.5252  0.1175
 7311SOL    HW123149   2.548   3.775   4.555  0.7336 -0.3653  1.8165
 7311SOL    HW223150   2.589   3.841   4.685  2.1315  1.7779  0.3467
 7312SOL     OW23151   3.080   4.889   3.668 -0.4342 -0.3638  0.0174
 7312SOL    HW123152   3.114   4.927   3.749 -1.0890 -0.4524  0.3462
 7312SOL    HW223153   3.117   4.800   3.665  0.7694  0.1353 -0.5439
 7313SOL     OW23154   2.605   5.470   4.997  0.4788  0.2063 -0.5308
 7313SOL    HW123155   2.614   5.499   4.906  0.0284 -0.8706 -0.9303
 7313SOL    HW223156   2.514   5.441   5.004  0.0936  1.5391  0.6608
 7314SOL     OW23157   3.551   4.823   4.379  1.1228  0.1742  0.0791
 7314SOL    HW123158   3.618   4.765   4.416  2.4346  0.6257 -1.4254
 7314SOL    HW223159   3.531   4.785   4.293  0.6105  0.9102 -0.1426
 7315SOL     OW23160   3.181   5.236   5.229 -0.4938 -0.0621  0.1473
 7315SOL    HW123161   3.193   5.185   5.310 -0.6177  0.8900  0.7850
 7315SOL    HW223162   3.269   5.264   5.206 -0.2297 -1.6846 -0.9906
 7316SOL     OW23163   2.619   4.331   3.803 -0.6614 -0.1451  0.1059
 7316SOL    HW123164   2.645   4.240   3.814 -1.8984 -0.7229 -1.4011
 7316SOL    HW223165   2.662   4.358   3.722 -1.2131  0.2404 -0.0634
 7317SOL     OW23166   3.093   4.796   4.133 -0.3795  0.8885  0.1333
 7317SOL    HW123167   3.112   4.814   4.225 -2.0101  1.7078  0.3493
 7317SOL    HW223168   3.126   4.873   4.086 -0.4188  0.9153  0.1498
 7318SOL     OW23169   2.413   5.118   5.648  0.3566 -0.5803  0.2182
 7318SOL    HW123170   2.442   5.159   5.566 -0.5294 -0.2240  0.0713
 7318SOL    HW223171   2.330   5.077   5.626  0.1979 -0.6412  0.9029
 7319SOL     OW23172   3.009   5.601   3.779 -0.1214 -0.0899  0.2635
 7319SOL    HW123173   3.072   5.535   3.750 -0.1812 -0.2431  0.4812
 7319SOL    HW223174   3.060   5.659   3.836 -0.2994 -0.5125  0.8524
 7320SOL     OW23175   2.085   4.077   5.280 -0.9129 -0.3340  0.1085
 7320SOL    HW123176   2.145   4.002   5.277  1.2292  1.2468  0.9787
 7320SOL    HW223177   2.133   4.148   5.238 -2.7891  0.6698 -0.4841
 7321SOL     OW23178   2.487   5.540   3.665 -0.5949  0.0572 -0.4073
 7321SOL    HW123179   2.578   5.568   3.654 -0.8210  0.3188 -1.7756
 7321SOL    HW223180   2.487   5.489   3.746  0.9191 -0.6161 -0.8032
 7322SOL     OW23181   3.075   4.106   3.840  0.3191 -0.0598  0.0625
 7322SOL    HW123182   3.117   4.060   3.913 -1.2218 -1.9308 -0.1216
 7322SOL    HW223183   3.140   4.104   3.770  2.2054  2.6430  1.5781
 7323SOL     OW23184   2.383   5.287   5.124  0.4684 -0.1580 -0.0711
 7323SOL    HW123185   2.303   5.235   5.128 -0.6526  1.5441  0.5187
 7323SOL    HW223186   2.449   5.226   5.089 -0.7341 -1.9786  0.6659
 7324SOL     OW23187   2.371   5.165   4.419  0.3179  0.5654  0.0392
 7324SOL    HW123188   2.337   5.079   4.444  1.1577  0.1463 -0.2164
 7324SOL    HW223189   2.445   5.146   4.362 -1.2251  1.4728 -2.4587
 7325SOL     OW23190   2.776   4.503   4.240 -0.2434  0.0174 -0.4617
 7325SOL    HW123191   2.715   4.516   4.167  0.1728  1.3288 -0.6042
 7325SOL    HW223192   2.858   4.540   4.209  0.0403  0.2577  0.5342
 7326SOL     OW23193   2.783   3.465   4.141 -0.0062 -0.0064 -0.3504
 7326SOL    HW123194   2.819   3.413   4.213 -0.6469  0.1522  0.0876
 7326SOL    HW223195   2.716   3.520   4.182 -2.4458 -1.9452 -1.4923
 7327SOL     OW23196   2.312   4.349   5.484 -0.0858 -0.0382 -0.8221
 7327SOL    HW123197   2.331   4.287   5.555 -2.4450  0.4559  0.3172
 7327SOL    HW223198   2.397   4.364   5.443  1.5014 -0.0552  2.1439
 7328SOL     OW23199   2.789   5.700   5.137 -0.2573  0.5295 -0.0931
 7328SOL    HW123200   2.750   5.621   5.100 -1.9160  1.5872 -0.6873
 7328SOL    HW223201   2.814   5.674   5.226 -0.3528 -0.7712 -0.4168
 7329SOL     OW23202   3.258   4.554   4.519  0.5585  0.4294  0.6324
 7329SOL    HW123203   3.323   4.595   4.576  1.2044 -1.9148  1.6805
 7329SOL    HW223204   3.308   4.502   4.457 -0.2813 -0.7313  0.9026
 7330SOL     OW23205   2.620   5.532   4.735  0.1613 -0.1577  0.2413
 7330SOL    HW123206   2.529   5.545   4.711  0.4175  0.8057 -0.2502
 7330SOL    HW223207   2.651   5.462   4.678 -0.0275  0.1454 -0.2402
 7331SOL     OW23208   2.509   4.834   4.719 -0.0280 -0.4588  0.6550
 7331SOL    HW123209   2.588   4.796   4.679  0.6379  0.3309  1.1908
 7331SOL    HW223210   2.542   4.884   4.794 -0.9667  0.4664  0.4716
 7332SOL     OW23211   2.099   3.474   4.673  0.2032  0.6712 -0.5092
 7332SOL    HW123212   2.151   3.395   4.687  1.0805  0.8520 -2.3739
 7332SOL    HW223213   2.162   3.537   4.637 -0.7373  1.8223 -0.1797
 7333SOL     OW23214   2.253   4.122   3.982 -0.8278 -0.2895 -0.0973
 7333SOL    HW123215   2.331   4.090   4.028 -1.5036 -0.7978  0.7237
 7333SOL    HW223216   2.184   4.120   4.048 -1.4873  0.4067 -0.7442
 7334SOL     OW23217   2.597   3.902   4.871  0.2210  0.1224 -0.5688
 7334SOL    HW123218   2.669   3.911   4.934 -0.2668  0.2759 -0.0251
 7334SOL    HW223219   2.543   3.831   4.906 -0.8248  1.1516 -0.0363
 7335SOL     OW23220   3.165   4.256   5.039  0.6370 -0.2583  1.0333
 7335SOL    HW123221   3.137   4.323   5.101  0.7715  0.6172  0.1663
 7335SOL    HW223222   3.250   4.227   5.073  0.6197  0.0724  1.3671
 7336SOL     OW23223   2.655   5.119   4.653  0.2017 -0.1792 -0.4624
 7336SOL    HW123224   2.696   5.186   4.599  0.5955 -0.4577 -0.5171
 7336SOL    HW223225   2.718   5.103   4.723 -0.5364  0.5640  0.3985
 7337SOL     OW23226   3.297   4.999   4.550  0.5244  0.1643 -0.0473
 7337SOL    HW123227   3.350   4.979   4.627  2.9220  2.3992 -0.9705
 7337SOL    HW223228   3.275   5.092   4.560 -0.4699  0.0953 -1.3114
 7338SOL     OW23229   2.996   5.376   4.346 -0.1248  0.0311 -0.2459
 7338SOL    HW123230   3.032   5.464   4.358 -0.6729 -0.0437  3.1968
 7338SOL    HW223231   2.929   5.386   4.279  0.9266  1.8555 -1.0959
 7339SOL     OW23232   3.077   4.338   3.371 -0.1154 -0.1204  0.1503
 7339SOL    HW123233   3.094   4.248   3.343 -0.7600 -0.3871  0.6097
 7339SOL    HW223234   3.141   4.353   3.441 -0.4395 -0.4478  0.5214
 7340SOL     OW23235   1.957   4.336   5.491 -0.5152  0.2820  0.0352
 7340SOL    HW123236   2.031   4.282   5.463  0.6144  2.2442 -0.9974
 7340SOL    HW223237   1.881   4.292   5.453  0.3856 -0.3807 -1.1078
 7341SOL     OW23238   2.400   3.689   4.966 -0.5820 -0.3799  0.3873
 7341SOL    HW123239   2.353   3.773   4.961  0.2833  0.1877  1.3432
 7341SOL    HW223240   2.332   3.623   4.953 -1.4985  0.4516  0.8124
 7342SOL     OW23241   2.462   4.362   4.452  0.4004 -0.2209 -0.2169
 7342SOL    HW123242   2.460   4.269   4.476  1.5235  0.0293  1.0060
 7342SOL    HW223243   2.553   4.388   4.466  0.4572  0.7006 -2.0843
 7343SOL     OW23244   3.147   3.682   4.665  0.3228  0.2583 -0.3913
 7343SOL    HW123245   3.157   3.655   4.756  1.7296 -2.1064 -1.1633
 7343SOL    HW223246   3.223   3.738   4.648 -0.9335  2.2940  0.3357
 7344SOL     OW23247   3.142   4.806   4.387 -0.6485 -0.1591  0.0972
 7344SOL    HW123248   3.160   4.717   4.418 -2.7727 -0.6164  0.1516
 7344SOL    HW223249   3.192   4.862   4.446  1.3034 -1.2957 -0.3794
 7345SOL     OW23250   3.367   4.194   4.623 -0.0771 -0.6700 -0.2838
 7345SOL    HW123251   3.407   4.136   4.558  0.5583  0.2283 -0.7034
 7345SOL    HW223252   3.288   4.227   4.579 -2.0781 -3.3870  0.9710
 7346SOL     OW23253   2.040   4.964   3.710 -0.5480 -0.0841  0.1092
 7346SOL    HW123254   2.080   4.905   3.773  0.1606  0.8609  0.5741
 7346SOL    HW223255   1.946   4.956   3.725 -0.4882 -1.3277 -0.0754
 7347SOL     OW23256   3.678   5.358   4.457  0.4845  0.1616  0.2558
 7347SOL    HW123257   3.595   5.312   4.446 -0.1215  1.1680  0.5309
 7347SOL    HW223258   3.743   5.299   4.417 -0.1839 -1.1434  1.0142
 7348SOL     OW23259   3.305   4.204   3.667  0.3756 -0.1184 -0.5157
 7348SOL    HW123260   3.385   4.153   3.677  0.8747  0.2652 -2.1662
 7348SOL    HW223261   3.323   4.287   3.709  0.5899 -0.2869 -0.2743
 7349SOL     OW23262   2.316   3.741   4.388 -0.4011  0.7509  0.7364
 7349SOL    HW123263   2.302   3.665   4.332  2.8533 -2.6478  3.9091
 7349SOL    HW223264   2.399   3.778   4.358 -1.5967  2.7340 -0.3064
 7350SOL     OW23265   2.986   5.550   4.963  0.1193  0.3560 -0.1704
 7350SOL    HW123266   3.046   5.498   5.017 -1.6290 -1.1124  0.4621
 7350SOL    HW223267   2.933   5.599   5.026  0.1259  1.0452 -0.6892
 7351SOL     OW23268   3.248   5.110   5.449  0.1479  0.0032 -0.1322
 7351SOL    HW123269   3.229   5.166   5.525  0.2637  0.2905 -0.3131
 7351SOL    HW223270   3.332   5.141   5.417  0.7018 -0.9456  0.3739
 7352SOL     OW23271   2.692   4.900   4.936 -0.1142  0.3993  0.3439
 7352SOL    HW123272   2.776   4.919   4.893  0.1030 -0.1868  0.5047
 7352SOL    HW223273   2.706   4.815   4.978 -1.3492 -0.5629 -1.0939
 7353SOL     OW23274   3.574   5.200   4.686  0.3603 -0.3543 -0.7240
 7353SOL    HW123275   3.552   5.293   4.679 -1.0609 -0.7302 -1.6993
 7353SOL    HW223276   3.655   5.191   4.637  0.5778  0.3888 -0.5227
 7354SOL     OW23277   3.388   3.626   5.263  0.2155 -0.5881 -0.0801
 7354SOL    HW123278   3.438   3.577   5.197 -0.6496 -1.0483 -0.4100
 7354SOL    HW223279   3.404   3.718   5.242  1.9558 -0.6950  0.6196
 7355SOL     OW23280   3.060   4.910   5.422 -0.6504  0.0559 -0.4313
 7355SOL    HW123281   3.064   4.894   5.328  1.9489  0.1841 -0.4278
 7355SOL    HW223282   3.117   4.986   5.436 -0.5747 -0.2703  1.3027
 7356SOL     OW23283   2.751   4.067   3.832 -0.5141 -0.1822  0.5343
 7356SOL    HW123284   2.835   4.113   3.834 -0.3231 -0.5033  2.6763
 7356SOL    HW223285   2.752   4.012   3.911 -1.7639 -2.0087 -0.6336
 7357SOL     OW23286   2.456   4.348   5.130  0.1475  0.6236  0.5962
 7357SOL    HW123287   2.510   4.311   5.200 -1.6810  0.4468  1.9920
 7357SOL    HW223288   2.511   4.415   5.090  1.5160  0.2062  1.6978
 7358SOL     OW23289   3.436   4.155   5.102  0.2123  0.2101  0.3637
 7358SOL    HW123290   3.448   4.151   5.007  0.8635 -1.4186  0.4950
 7358SOL    HW223291   3.502   4.217   5.132  0.5714  0.0835 -0.1576
 7359SOL     OW23292   1.719   5.326   5.197 -0.0587  0.0546  0.1547
 7359SOL    HW123293   1.761   5.338   5.112 -1.7279 -0.0635 -0.7323
 7359SOL    HW223294   1.658   5.400   5.204  0.5907  0.5008  1.6181
 7360SOL     OW23295   2.322   4.666   4.197  0.1022 -0.2994 -0.0290
 7360SOL    HW123296   2.298   4.648   4.106  1.0229 -0.4576 -0.2448
 7360SOL    HW223297   2.361   4.585   4.228 -1.7394 -0.8349  1.0633
 7361SOL     OW23298   2.046   4.309   4.768 -0.1836 -0.2792  0.2509
 7361SOL    HW123299   1.995   4.382   4.804 -0.5084 -0.6478  0.5459
 7361SOL    HW223300   2.066   4.336   4.679  1.4341  1.0625  0.9648
 7362SOL     OW23301   3.115   4.353   3.964 -0.1601 -0.4120  0.0443
 7362SOL    HW123302   3.099   4.266   3.929 -1.1480 -0.6800  1.0785
 7362SOL    HW223303   3.184   4.389   3.909  0.7185 -2.0783 -0.0101
 7363SOL     OW23304   3.225   5.092   4.947  0.3001 -0.4410  0.2126
 7363SOL    HW123305   3.290   5.132   5.005 -0.7347  1.7211 -0.0103
 7363SOL    HW223306   3.204   5.160   4.883 -0.6089 -1.8212 -1.0389
 7364SOL     OW23307   2.628   4.983   5.265  0.7616  0.1168  0.0211
 7364SOL    HW123308   2.568   4.915   5.298  1.8735  0.0965  2.1641
 7364SOL    HW223309   2.654   4.952   5.178  0.5547 -1.7649  0.5873
 7365SOL     OW23310   2.469   4.703   5.695 -0.0332 -0.1592  0.1683
 7365SOL    HW123311   2.398   4.740   5.643 -0.8473  0.2480  1.5144
 7365SOL    HW223312   2.538   4.770   5.693 -0.9710  0.9009  1.4740
 7366SOL     OW23313   2.741   4.073   5.158 -0.4986  0.2945  0.2136
 7366SOL    HW123314   2.793   4.074   5.238 -1.8172  1.3680  1.1090
 7366SOL    HW223315   2.784   4.135   5.100 -0.3534  0.6057  0.6553
 7367SOL     OW23316   2.179   3.956   6.182 -0.1597 -0.1523  0.6389
 7367SOL    HW123317   2.230   3.991   6.109  2.4691  0.2173  2.5193
 7367SOL    HW223318   2.210   3.866   6.191 -3.0395 -1.4355 -0.7990
 7368SOL     OW23319   2.334   4.605   5.192  0.2855 -0.4926  0.1503
 7368SOL    HW123320   2.355   4.603   5.099  0.9471  0.3984  0.2695
 7368SOL    HW223321   2.252   4.556   5.199 -1.1191  1.5253 -1.2669
 7369SOL     OW23322   2.860   4.770   4.651  0.0905  0.6996 -0.0850
 7369SOL    HW123323   2.804   4.784   4.575 -1.7353 -0.9269  0.8915
 7369SOL    HW223324   2.866   4.855   4.693 -1.1268  1.0357 -0.5714
 7370SOL     OW23325   2.564   4.117   4.529  0.5510 -0.3377 -0.3383
 7370SOL    HW123326   2.651   4.136   4.566 -0.0562 -0.2771  1.1551
 7370SOL    HW223327   2.548   4.025   4.551 -0.8510  0.3514  1.8913
 7371SOL     OW23328   2.454   3.548   5.251  0.6443  0.3555  0.7352
 7371SOL    HW123329   2.481   3.636   5.276  3.8231 -0.8036  1.8810
 7371SOL    HW223330   2.481   3.539   5.160 -2.0971  1.3479 -0.2601
 7372SOL     OW23331   2.045   4.774   4.914 -0.0440 -0.4277 -0.7969
 7372SOL    HW123332   2.084   4.859   4.932  0.4787 -1.3205  3.5707
 7372SOL    HW223333   2.114   4.724   4.871  0.9367  0.3034 -0.1148
 7373SOL     OW23334   2.704   4.457   5.006 -0.1315  0.0770  0.3103
 7373SOL    HW123335   2.772   4.395   5.031  1.5805  1.6395 -0.3246
 7373SOL    HW223336   2.684   4.435   4.915 -0.1451 -0.0622  0.3457
 7374SOL     OW23337   2.321   3.670   4.634  0.3602 -0.0739 -0.3277
 7374SOL    HW123338   2.251   3.721   4.675  0.6171 -0.0390  0.0836
 7374SOL    HW223339   2.303   3.674   4.540  0.2652  0.6184 -0.2861
 7375SOL     OW23340   2.886   4.268   5.013 -0.2767 -0.2571 -0.1800
 7375SOL    HW123341   2.903   4.234   4.925 -1.8147 -0.2224 -0.5180
 7375SOL    HW223342   2.972   4.272   5.054  0.4881 -0.1725 -1.7211
 7376SOL     OW23343   2.839   5.591   5.665  0.2917  0.2625  0.4568
 7376SOL    HW123344   2.789   5.509   5.660 -2.2295  1.7763 -1.5400
 7376SOL    HW223345   2.841   5.611   5.759  0.3693 -1.6869  0.9281
 7377SOL     OW23346   1.989   4.804   5.762  0.0943 -0.1742  0.3779
 7377SOL    HW123347   2.057   4.747   5.797  0.2815 -1.1065 -1.3673
 7377SOL    HW223348   1.976   4.871   5.830 -0.7147 -2.6942  2.8826
 7378SOL     OW23349   2.937   4.558   3.796 -0.2445  0.2757 -0.2866
 7378SOL    HW123350   3.021   4.581   3.755  0.0702 -1.6411 -0.8401
 7378SOL    HW223351   2.960   4.490   3.860 -1.3400 -0.1188 -0.2992
 7379SOL     OW23352   2.866   4.777   3.978 -0.3015  0.8335  0.6308
 7379SOL    HW123353   2.893   4.724   3.902 -0.8323 -0.2940  1.1992
 7379SOL    HW223354   2.945   4.787   4.030  0.0498  1.5481 -0.0181
 7380SOL     OW23355   2.205   4.330   5.243 -0.0321 -0.1115  0.1771
 7380SOL    HW123356   2.219   4.353   5.335  0.8747 -0.0570  0.0368
 7380SOL    HW223357   2.293   4.326   5.205 -0.3865 -0.2035 -0.6749
 7381SOL     OW23358   2.269   4.144   4.448 -0.0068 -0.1729  0.2415
 7381SOL    HW123359   2.204   4.075   4.435  0.4725 -0.9316  1.6246
 7381SOL    HW223360   2.323   4.112   4.521  1.7097  0.5754 -0.6446
 7382SOL     OW23361   3.112   4.028   5.342 -0.1013  0.3338  0.0551
 7382SOL    HW123362   3.036   3.981   5.376 -0.1380  0.8901  0.7586
 7382SOL    HW223363   3.079   4.114   5.318 -0.1516 -0.1499 -1.7627
 7383SOL     OW23364   3.349   3.909   5.238 -0.3598 -0.1007 -0.3357
 7383SOL    HW123365   3.284   3.965   5.281  1.6809  1.1728  1.2681
 7383SOL    HW223366   3.379   3.961   5.163 -0.5175 -0.3125 -0.5501
 7384SOL     OW23367   2.102   4.639   3.672  0.2768  0.0460  0.1791
 7384SOL    HW123368   2.030   4.639   3.610 -0.5727 -2.1296  1.0552
 7384SOL    HW223369   2.168   4.581   3.633  0.5415  0.1576  0.4517
 7385SOL     OW23370   2.176   5.288   4.713 -0.6460 -0.0827  0.0987
 7385SOL    HW123371   2.244   5.338   4.759  2.5229 -1.1809 -2.9077
 7385SOL    HW223372   2.151   5.345   4.640 -0.3548 -1.0121 -0.7546
 7386SOL     OW23373   2.278   5.017   5.268  0.0026 -0.1410  0.7535
 7386SOL    HW123374   2.309   4.942   5.318 -0.0171 -1.6089 -1.3270
 7386SOL    HW223375   2.340   5.025   5.195 -0.5315  1.2894  0.4216
 7387SOL     OW23376   3.029   4.480   4.794 -0.1362  0.4454  0.0233
 7387SOL    HW123377   3.097   4.455   4.856  0.1762 -1.1885 -0.9206
 7387SOL    HW223378   3.054   4.568   4.765  0.4301  0.6924  1.2103
 7388SOL     OW23379   1.743   4.214   5.126 -0.4816 -1.0726  0.3714
 7388SOL    HW123380   1.771   4.167   5.204 -0.4512 -1.3045  0.2236
 7388SOL    HW223381   1.775   4.160   5.053  0.2277 -0.4217  0.1900
 7389SOL     OW23382   2.138   4.188   5.817  0.7964  0.0795  0.1323
 7389SOL    HW123383   2.214   4.149   5.773  0.3258 -2.1847  1.1723
 7389SOL    HW223384   2.131   4.276   5.780  2.8859 -0.2587 -1.2312
 7390SOL     OW23385   2.879   3.770   4.528  0.2704 -0.3659 -0.1493
 7390SOL    HW123386   2.809   3.811   4.580  1.9988  1.2616  1.0226
 7390SOL    HW223387   2.934   3.726   4.592  2.1941  1.2899 -0.5428
 7391SOL     OW23388   3.506   4.119   4.828 -0.6753 -0.0718 -0.0215
 7391SOL    HW123389   3.470   4.166   4.753 -0.2565  2.2740  1.1724
 7391SOL    HW223390   3.600   4.140   4.827 -0.2151 -1.9089 -0.1131
 7392SOL     OW23391   2.189   5.335   5.691  0.2270 -0.1709 -0.2523
 7392SOL    HW123392   2.238   5.404   5.647 -0.3117  0.1095 -0.4269
 7392SOL    HW223393   2.254   5.268   5.711  0.8030  0.4825  0.1213
 7393SOL     OW23394   2.512   3.943   5.183 -0.2254 -0.5999  0.3864
 7393SOL    HW123395   2.573   4.017   5.180 -1.8484  0.7950  0.2364
 7393SOL    HW223396   2.560   3.874   5.228  2.0889 -0.1943 -1.2548
 7394SOL     OW23397   3.317   5.555   5.527 -0.0058 -0.1331  0.5612
 7394SOL    HW123398   3.239   5.506   5.553 -0.7418 -0.9783 -2.7230
 7394SOL    HW223399   3.368   5.494   5.473  1.4729  1.2807  0.2435
 7395SOL     OW23400   2.547   3.864   4.277 -0.3827 -0.4695  0.3087
 7395SOL    HW123401   2.593   3.948   4.278 -1.8155  0.3387  0.7435
 7395SOL    HW223402   2.615   3.799   4.298  0.6189  0.6362  0.5962
 7396SOL     OW23403   2.038   4.482   5.117 -0.2432  0.4836  0.1659
 7396SOL    HW123404   2.096   4.410   5.144 -0.7759 -0.3160 -0.7822
 7396SOL    HW223405   2.085   4.525   5.046 -0.2763  0.6070  0.2175
 7397SOL     OW23406   3.180   4.817   4.954 -0.7042 -0.2867  0.6990
 7397SOL    HW123407   3.222   4.903   4.949 -2.5450  0.5963 -1.0447
 7397SOL    HW223408   3.187   4.782   4.865 -2.2005 -0.7771  0.7497
 7398SOL     OW23409   2.900   4.252   4.136 -0.0732 -0.1171 -0.3464
 7398SOL    HW123410   2.852   4.330   4.163 -1.4077 -0.6644 -1.0059
 7398SOL    HW223411   2.973   4.286   4.083 -0.5856  0.6922 -0.5571
 7399SOL     OW23412   3.542   5.483   4.699  0.1714 -0.0873 -0.0498
 7399SOL    HW123413   3.522   5.518   4.612 -0.1317  0.2561  0.1540
 7399SOL    HW223414   3.637   5.471   4.699  0.0997 -0.6899 -0.6454
 7400SOL     OW23415   3.096   5.238   4.753  0.0301 -0.3057 -0.5811
 7400SOL    HW123416   3.048   5.320   4.744  0.5030  0.1211  0.5816
 7400SOL    HW223417   3.163   5.241   4.684 -0.1170  0.1623 -0.7021
 7401SOL     OW23418   2.268   4.499   4.942  0.4860  0.3198 -0.0950
 7401SOL    HW123419   2.330   4.435   4.907  0.0891  0.7475 -1.6351
 7401SOL    HW223420   2.279   4.576   4.887  0.8123  1.5480  1.6049
 7402SOL     OW23421   2.547   5.547   5.255  0.0080 -0.1578  0.3467
 7402SOL    HW123422   2.595   5.479   5.301  0.4562  0.2964  0.5663
 7402SOL    HW223423   2.567   5.532   5.162  0.2455 -0.2249  0.4073
 7403SOL     OW23424   3.153   5.032   4.024 -0.6538  0.6236  0.2678
 7403SOL    HW123425   3.203   5.088   3.965  0.5991  0.2396  0.9350
 7403SOL    HW223426   3.132   5.088   4.099  0.0543  0.4023  0.6459
 7404SOL     OW23427   2.149   5.567   5.498  0.2937 -0.5220  0.4255
 7404SOL    HW123428   2.243   5.563   5.515  0.2311 -2.1589  0.5923
 7404SOL    HW223429   2.135   5.506   5.426 -0.2367  2.1406 -1.9063
 7405SOL     OW23430   3.129   5.394   3.997  0.3421  0.6742 -0.7779
 7405SOL    HW123431   3.115   5.357   3.910  0.6739  0.4952 -0.7594
 7405SOL    HW223432   3.044   5.429   4.023  0.7544  2.8283 -2.1304
 7406SOL     OW23433   2.687   5.353   5.643  0.6208 -0.0090 -0.1974
 7406SOL    HW123434   2.654   5.330   5.729 -0.6549  0.1685 -0.6196
 7406SOL    HW223435   2.712   5.269   5.603  0.4878 -0.1680  0.0545
 7407SOL     OW23436   2.757   5.463   3.421 -0.3157 -0.6395  0.4250
 7407SOL    HW123437   2.736   5.519   3.496  3.9312  0.7062  0.8580
 7407SOL    HW223438   2.768   5.376   3.459 -1.5834 -0.7145  0.6853
 7408SOL     OW23439   3.502   5.423   4.964 -0.0531  0.2507 -0.2141
 7408SOL    HW123440   3.486   5.449   4.873  1.8456  1.1635 -0.3308
 7408SOL    HW223441   3.577   5.476   4.991 -1.5406  1.1755  2.4279
 7409SOL     OW23442   2.095   3.807   4.700 -0.1079 -0.4513 -0.0460
 7409SOL    HW123443   2.062   3.896   4.686 -1.6121 -1.3062 -2.4879
 7409SOL    HW223444   2.018   3.758   4.728  1.1131 -0.6870  3.4555
 7410SOL     OW23445   3.195   5.413   3.687 -0.7431 -1.0172 -0.0659
 7410SOL    HW123446   3.203   5.491   3.633  1.4305 -0.6326  0.6970
 7410SOL    HW223447   3.218   5.341   3.629  0.5186 -0.7134  0.0197
 7411SOL     OW23448   2.830   5.171   5.312  0.1913 -0.3286 -0.3363
 7411SOL    HW123449   2.850   5.158   5.405  1.6480  0.3328 -0.5286
 7411SOL    HW223450   2.765   5.103   5.292 -0.6516 -0.0750  1.3087
 7412SOL     OW23451   2.789   5.327   3.810  0.6039 -0.3475 -0.2279
 7412SOL    HW123452   2.840   5.388   3.756  0.0852  0.5395  0.2594
 7412SOL    HW223453   2.756   5.262   3.748 -0.0538  0.6947 -1.0150
 7413SOL     OW23454   3.272   5.122   3.790  0.1784 -0.2073  0.2544
 7413SOL    HW123455   3.360   5.084   3.788 -0.1248 -0.8952 -0.0370
 7413SOL    HW223456   3.259   5.156   3.702 -0.3255 -1.2051 -0.0627
 7414SOL     OW23457   2.157   5.035   5.540  0.2491 -0.4563  0.4035
 7414SOL    HW123458   2.153   5.064   5.448  0.7374  1.9783  1.0778
 7414SOL    HW223459   2.070   5.000   5.557 -0.2331  0.1328 -0.6806
 7415SOL     OW23460   3.054   4.531   4.189  0.8375  0.0772 -0.0884
 7415SOL    HW123461   3.105   4.476   4.129 -0.7204  0.5882 -1.9743
 7415SOL    HW223462   3.087   4.620   4.172  1.0176  0.1246  0.4983
 7416SOL     OW23463   3.073   3.871   5.085  0.2204 -0.5933  0.2711
 7416SOL    HW123464   3.070   3.779   5.057  0.8177 -0.7830  0.8156
 7416SOL    HW223465   3.103   3.868   5.175 -0.5673  0.0923  0.5738
 7417SOL     OW23466   3.023   5.085   4.353  0.6951  0.5349 -0.5000
 7417SOL    HW123467   3.031   5.019   4.421 -2.6576  1.3246  0.9098
 7417SOL    HW223468   3.067   5.162   4.389  1.8646 -0.0097 -0.7481
 7418SOL     OW23469   2.215   4.766   3.924 -0.6568  0.3358 -0.1134
 7418SOL    HW123470   2.217   4.707   3.849 -0.6888  0.0376  0.1174
 7418SOL    HW223471   2.125   4.762   3.955 -0.7022  0.6455 -0.2084
 7419SOL     OW23472   1.905   4.892   5.520  0.5378  0.3745 -0.1152
 7419SOL    HW123473   1.815   4.923   5.529  0.7444  1.1970 -0.7684
 7419SOL    HW223474   1.928   4.861   5.608 -1.6188 -3.4913 -0.6974
 7420SOL     OW23475   2.563   3.744   5.392  0.1510 -0.6182  0.0877
 7420SOL    HW123476   2.629   3.679   5.366  0.3134 -0.3273 -0.2493
 7420SOL    HW223477   2.611   3.805   5.449  0.5089  0.2947 -1.1439
 7421SOL     OW23478   1.983   4.302   4.129  0.3246 -1.0782 -0.1499
 7421SOL    HW123479   1.893   4.296   4.097  0.9693 -0.1380 -2.3286
 7421SOL    HW223480   2.009   4.211   4.146 -0.3009 -1.6076 -1.8061
 7422SOL     OW23481   1.818   3.901   4.174  0.1346 -0.3402  0.3510
 7422SOL    HW123482   1.810   3.882   4.268  0.9442  0.1678  0.5379
 7422SOL    HW223483   1.752   3.847   4.133 -0.4493 -0.3333  1.2513
 7423SOL     OW23484   3.278   4.831   3.434  0.2770 -0.0965 -0.1591
 7423SOL    HW123485   3.339   4.893   3.473 -0.3917  0.8606 -0.6075
 7423SOL    HW223486   3.323   4.747   3.439  0.9775  0.3230  0.9381
 7424SOL     OW23487   2.622   4.989   5.973 -0.4016  0.0213  0.2433
 7424SOL    HW123488   2.652   4.901   5.992  0.7407  0.1998 -0.6101
 7424SOL    HW223489   2.688   5.046   6.013 -0.0653  0.4364 -0.8519
 7425SOL     OW23490   3.269   5.282   4.547  0.0940  0.7691  0.1490
 7425SOL    HW123491   3.268   5.261   4.454 -1.2164  0.2669  0.2595
 7425SOL    HW223492   3.292   5.375   4.550  2.6300  0.2588 -0.5123
 7426SOL     OW23493   2.791   4.712   5.120 -0.8907  0.2611  0.0894
 7426SOL    HW123494   2.792   4.629   5.072 -0.8844 -0.5942  1.5236
 7426SOL    HW223495   2.709   4.710   5.169  0.2944 -0.1036  2.1328
 7427SOL     OW23496   2.361   5.892   5.412  0.6163  0.1067  0.1607
 7427SOL    HW123497   2.412   5.870   5.490  0.4029  0.4340  0.3953
 7427SOL    HW223498   2.410   5.964   5.371  0.7862 -0.1375 -0.0686
 7428SOL     OW23499   3.485   4.668   4.672  0.1879 -0.4190  0.0207
 7428SOL    HW123500   3.462   4.755   4.640  0.0232 -0.6561 -0.5158
 7428SOL    HW223501   3.581   4.669   4.675  0.2214 -0.4769 -0.7449
 7429SOL     OW23502   3.409   3.800   4.661 -0.6601  0.1213 -0.0063
 7429SOL    HW123503   3.426   3.883   4.615  0.2761 -0.2945 -0.4415
 7429SOL    HW223504   3.432   3.818   4.752  1.3827 -0.1669 -0.4239
 7430SOL     OW23505   2.355   4.075   4.756  0.3672 -0.3948  0.4540
 7430SOL    HW123506   2.445   4.056   4.728  0.1467 -0.5544 -0.1722
 7430SOL    HW223507   2.362   4.091   4.850  1.1179  0.0001  0.3415
 7431SOL     OW23508   2.709   5.175   3.573 -0.0964 -0.3975 -0.0069
 7431SOL    HW123509   2.613   5.180   3.573 -0.1750 -1.6269 -0.7726
 7431SOL    HW223510   2.728   5.082   3.565  1.1724 -0.1830  0.3861
 7432SOL     OW23511   2.318   5.505   4.820 -0.3107  0.5427 -0.0837
 7432SOL    HW123512   2.323   5.575   4.756  2.1705  1.0444  0.5579
 7432SOL    HW223513   2.273   5.544   4.895  1.0632  1.4899  0.2711
 7433SOL     OW23514   2.706   4.354   4.706  0.0965  0.4932 -0.3029
 7433SOL    HW123515   2.700   4.400   4.622  1.8283  0.5693 -0.4180
 7433SOL    HW223516   2.777   4.291   4.693  0.0232  0.1411  0.9361
 7434SOL     OW23517   2.576   5.110   4.238  0.1144  0.1898 -0.4270
 7434SOL    HW123518   2.506   5.053   4.208 -1.6045  0.6158  2.4306
 7434SOL    HW223519   2.656   5.059   4.225 -1.0007 -1.4587 -1.1306
 7435SOL     OW23520   3.805   5.091   4.540  0.6317 -0.0508 -0.1490
 7435SOL    HW123521   3.723   5.043   4.531  0.7679 -0.1482 -0.9900
 7435SOL    HW223522   3.859   5.060   4.466  2.2185 -1.5253  1.5305
 7436SOL     OW23523   2.021   4.994   5.944 -0.7247  0.2166 -0.1183
 7436SOL    HW123524   2.085   5.064   5.958 -2.3948  2.0022 -0.9690
 7436SOL    HW223525   1.983   4.980   6.031 -0.6455  0.6552 -0.0072
 7437SOL     OW23526   2.407   4.880   4.473  0.0023 -0.0913  0.3854
 7437SOL    HW123527   2.369   4.796   4.447  1.7433 -0.6494 -0.5177
 7437SOL    HW223528   2.422   4.871   4.567  0.5580 -0.9800  0.2258
 7438SOL     OW23529   2.574   5.217   5.857  0.4930  0.5281 -0.2080
 7438SOL    HW123530   2.512   5.201   5.785  0.2121  0.9268 -0.0543
 7438SOL    HW223531   2.590   5.130   5.894  0.1879  0.3967 -0.3814
 7439SOL     OW23532   2.418   4.091   4.200  0.2602  0.0554 -0.0820
 7439SOL    HW123533   2.458   4.004   4.197  0.8286  0.3324 -0.7762
 7439SOL    HW223534   2.342   4.080   4.258 -1.3949 -1.6442 -2.3626
 7440SOL     OW23535   2.118   4.136   4.969  0.6518  0.2519 -0.5206
 7440SOL    HW123536   2.211   4.129   4.989  0.6991  0.5821 -0.6211
 7440SOL    HW223537   2.112   4.205   4.903  0.3956 -0.1622 -0.9355
 7441SOL     OW23538   2.379   4.963   4.138  0.0606 -0.7294  0.2336
 7441SOL    HW123539   2.425   4.930   4.061  0.7509 -0.2870  0.4531
 7441SOL    HW223540   2.353   4.884   4.186 -1.4630 -1.0825 -1.0437
 7442SOL     OW23541   3.485   3.763   4.959  0.3763 -0.5430  0.3619
 7442SOL    HW123542   3.528   3.787   5.041  0.9025  0.2361 -0.1254
 7442SOL    HW223543   3.542   3.697   4.920  0.8924  0.1339 -0.0514
 7443SOL     OW23544   3.043   2.983   5.128 -0.1521 -0.1379  0.4090
 7443SOL    HW123545   3.136   2.969   5.110  0.0078  0.4934  0.7272
 7443SOL    HW223546   3.042   3.054   5.193 -0.8470 -0.2554  0.5278
 7444SOL     OW23547   2.577   4.773   3.983  0.3574  0.1391  0.0551
 7444SOL    HW123548   2.671   4.791   3.987  0.5407 -0.8252  0.5775
 7444SOL    HW223549   2.571   4.679   4.002 -0.6329 -0.0163 -0.9855
 7445SOL     OW23550   2.898   5.030   4.785  0.3508  0.1235  0.3250
 7445SOL    HW123551   2.963   5.096   4.762 -0.9251  1.0216 -0.8619
 7445SOL    HW223552   2.896   5.029   4.880  0.6512  1.5493  0.3579
 7446SOL     OW23553   3.428   3.878   3.785 -0.1279 -0.4388 -0.3272
 7446SOL    HW123554   3.426   3.873   3.881 -0.0766  0.8463 -0.2469
 7446SOL    HW223555   3.521   3.892   3.764 -0.1416 -0.6991 -0.5760
 7447SOL     OW23556   2.879   4.125   4.636  0.2477 -0.7979 -0.4466
 7447SOL    HW123557   2.938   4.174   4.579  0.7474 -0.7968  0.0578
 7447SOL    HW223558   2.936   4.092   4.706 -0.7853  1.9563  1.8950
 7448SOL     OW23559   2.159   4.468   3.966  0.1069 -0.7784 -0.4436
 7448SOL    HW123560   2.175   4.426   3.881 -2.6734 -1.1350 -0.8931
 7448SOL    HW223561   2.143   4.395   4.026 -0.5510 -0.4780 -0.2462
 7449SOL     OW23562   2.860   5.447   4.065  0.3011  0.2461 -0.4234
 7449SOL    HW123563   2.856   5.541   4.046 -1.0073  0.2280 -0.3784
 7449SOL    HW223564   2.830   5.405   3.984  1.7155 -0.1907 -0.7421
 7450SOL     OW23565   2.438   4.582   5.954 -0.5039  0.2738 -0.3440
 7450SOL    HW123566   2.524   4.583   5.997 -0.2851 -1.5796 -0.6682
 7450SOL    HW223567   2.443   4.652   5.889  0.7680  0.1931 -0.3579
 7451SOL     OW23568   1.997   4.056   6.873  0.0826 -0.2202  0.3968
 7451SOL    HW123569   1.909   4.034   6.902 -0.5016  0.0693 -1.0793
 7451SOL    HW223570   2.047   3.975   6.882 -0.7518 -0.8262 -0.2551
 7452SOL     OW23571   0.968   3.961   6.568 -0.0413  0.4372 -0.1240
 7452SOL    HW123572   1.024   4.000   6.635 -0.5532  0.6429  0.1881
 7452SOL    HW223573   0.938   4.034   6.515  2.4881  0.0807 -2.3075
 7453SOL     OW23574   2.317   4.583   6.870 -0.4005  0.3618 -0.1519
 7453SOL    HW123575   2.234   4.572   6.823  0.7047  0.1235 -2.1621
 7453SOL    HW223576   2.379   4.529   6.822  1.0376  0.8958  1.0271
 7454SOL     OW23577   3.350   5.185   6.583  0.1889  0.0344 -0.1483
 7454SOL    HW123578   3.408   5.146   6.519 -0.3813  0.8312 -1.1970
 7454SOL    HW223579   3.266   5.192   6.538 -0.7799 -1.2177  1.3677
 7455SOL     OW23580   2.663   4.686   6.337 -0.7443  0.2590 -0.2455
 7455SOL    HW123581   2.696   4.702   6.248 -2.8632  2.5233 -0.7506
 7455SOL    HW223582   2.589   4.627   6.324  0.1741 -1.0639  0.3177
 7456SOL     OW23583   2.779   4.911   6.844  0.3717 -0.0063 -0.1200
 7456SOL    HW123584   2.796   4.880   6.933 -1.4993  1.5000  0.8237
 7456SOL    HW223585   2.763   4.831   6.794  2.5038 -0.9614  0.5783
 7457SOL     OW23586   2.542   4.274   8.213  0.4521  0.0280 -0.0512
 7457SOL    HW123587   2.573   4.360   8.243  1.9836 -0.6100  0.2736
 7457SOL    HW223588   2.617   4.236   8.167 -0.4697 -0.8195 -0.9022
 7458SOL     OW23589   2.725   4.369   6.479  0.3508 -0.0385  0.2489
 7458SOL    HW123590   2.706   4.450   6.432  1.3739 -1.0625 -2.1360
 7458SOL    HW223591   2.810   4.384   6.520  0.3425  0.2517  0.1596
 7459SOL     OW23592   2.338   4.441   7.711 -0.2300 -0.0909 -0.6021
 7459SOL    HW123593   2.392   4.411   7.783  0.3024  1.2872 -0.4013
 7459SOL    HW223594   2.396   4.494   7.657 -1.2258  0.9484 -0.6894
 7460SOL     OW23595   2.098   5.366   6.752 -0.2331 -0.3104  0.6187
 7460SOL    HW123596   2.142   5.439   6.795 -0.4948 -0.0065  0.3747
 7460SOL    HW223597   2.005   5.378   6.773 -0.5800  0.7197 -1.2557
 7461SOL     OW23598   3.408   4.988   7.639  0.5345  0.1259 -0.6538
 7461SOL    HW123599   3.335   4.938   7.603  1.2842 -0.5196 -1.3312
 7461SOL    HW223600   3.480   4.925   7.644  0.8904  0.5971  0.5552
 7462SOL     OW23601   1.752   4.027   6.994 -0.1759 -0.1910  1.1009
 7462SOL    HW123602   1.718   4.117   6.992 -1.9429 -0.8286  0.0451
 7462SOL    HW223603   1.741   4.000   7.085 -1.9142 -0.1029  0.9578
 7463SOL     OW23604   3.586   4.426   6.246  0.6484 -0.2022  0.0714
 7463SOL    HW123605   3.589   4.392   6.157  2.0179  0.7689 -0.2965
 7463SOL    HW223606   3.674   4.462   6.261  0.5250 -0.5671  1.9066
 7464SOL     OW23607   2.082   5.345   6.231  0.6054 -0.4506  0.6621
 7464SOL    HW123608   2.053   5.434   6.208 -0.7749 -0.6982  1.2846
 7464SOL    HW223609   2.174   5.342   6.207  0.7863  1.2956  1.0160
 7465SOL     OW23610   2.923   5.213   7.612 -0.2239  0.1819  1.1134
 7465SOL    HW123611   3.004   5.261   7.594 -0.3949  0.8579  2.0586
 7465SOL    HW223612   2.943   5.122   7.590  0.6295  0.4236  0.8606
 7466SOL     OW23613   1.702   5.332   6.480  0.3836 -0.1861  0.0893
 7466SOL    HW123614   1.743   5.410   6.517  1.1178 -1.5361  2.2802
 7466SOL    HW223615   1.752   5.314   6.400  0.8296  1.0006  0.0822
 7467SOL     OW23616   1.746   4.694   7.046  0.6320 -0.0447 -0.4259
 7467SOL    HW123617   1.770   4.728   7.132  2.5801 -2.4678  0.0798
 7467SOL    HW223618   1.798   4.615   7.036 -3.4090 -2.8838 -1.5627
 7468SOL     OW23619   2.394   5.269   7.193  0.1642  0.6957  0.2090
 7468SOL    HW123620   2.483   5.243   7.215  0.0801  0.4619  0.2742
 7468SOL    HW223621   2.354   5.190   7.157  0.0125  0.8245  0.0908
 7469SOL     OW23622   2.302   4.870   6.340 -0.4745  0.0169 -0.1891
 7469SOL    HW123623   2.314   4.781   6.306 -0.9390  0.3437 -1.2726
 7469SOL    HW223624   2.387   4.912   6.325 -0.2870 -0.2067  0.2273
 7470SOL     OW23625   3.373   4.301   7.233 -0.0249  0.0269  0.2334
 7470SOL    HW123626   3.306   4.234   7.220 -1.4003  0.7514  2.7950
 7470SOL    HW223627   3.444   4.255   7.279  0.3864 -0.2925 -0.6935
 7471SOL     OW23628   2.116   4.497   6.262  0.4114 -0.0336 -0.3713
 7471SOL    HW123629   2.129   4.403   6.268 -1.2493 -0.3388 -1.1582
 7471SOL    HW223630   2.038   4.514   6.314  1.3158  1.0898  0.6767
 7472SOL     OW23631   3.983   5.005   5.769  0.2917 -0.3711  0.2867
 7472SOL    HW123632   4.041   4.931   5.789 -0.1625 -0.8168 -0.0350
 7472SOL    HW223633   3.895   4.972   5.787  0.1113  0.1857  0.4176
 7473SOL     OW23634   2.052   5.375   5.330  0.3234 -0.1309 -0.3938
 7473SOL    HW123635   2.030   5.285   5.309 -0.9174  0.0131  0.2012
 7473SOL    HW223636   2.011   5.427   5.262  0.5113  0.0261 -0.3896
 7474SOL     OW23637   3.625   4.539   6.532 -0.3781  0.1481  0.0807
 7474SOL    HW123638   3.610   4.626   6.495 -1.7805 -0.5090 -0.9787
 7474SOL    HW223639   3.710   4.513   6.498  0.4029  1.3792  1.0053
 7475SOL     OW23640   3.680   5.155   6.084 -0.8664 -0.4137  0.3136
 7475SOL    HW123641   3.771   5.152   6.114 -0.7115  2.4096  0.3604
 7475SOL    HW223642   3.680   5.105   6.002  0.6323 -0.7739  0.5120
 7476SOL     OW23643   2.515   4.446   6.723  0.2008  0.2582  0.3305
 7476SOL    HW123644   2.593   4.422   6.773  0.1751 -1.6474 -0.4467
 7476SOL    HW223645   2.538   4.528   6.680  2.6364 -1.2794 -1.5542
 7477SOL     OW23646   2.576   5.016   6.688 -0.1934  0.6190 -0.0543
 7477SOL    HW123647   2.626   5.023   6.607 -0.4431 -0.6595 -0.3415
 7477SOL    HW223648   2.639   4.982   6.752 -0.7457 -1.4047 -0.5224
 7478SOL     OW23649   3.044   4.799   7.265  0.2289  0.0881  0.0643
 7478SOL    HW123650   3.106   4.739   7.222  2.0470  0.8981  1.4206
 7478SOL    HW223651   3.027   4.866   7.199  0.3193 -0.4515 -0.5242
 7479SOL     OW23652   2.641   3.769   6.280  0.2339  0.2031  0.2303
 7479SOL    HW123653   2.628   3.793   6.188 -1.1632  0.7405  0.5459
 7479SOL    HW223654   2.576   3.820   6.328 -0.1529 -1.2678  1.3557
 7480SOL     OW23655   2.075   4.279   7.002  0.2940  0.3474 -0.0603
 7480SOL    HW123656   2.050   4.199   6.955  0.1954  1.0477 -1.2276
 7480SOL    HW223657   2.146   4.251   7.060 -1.9241 -1.3089  2.0643
 7481SOL     OW23658   3.552   4.672   5.967  0.5961 -0.1444  0.5441
 7481SOL    HW123659   3.614   4.648   5.898  0.1675 -0.5898  0.3122
 7481SOL    HW223660   3.605   4.670   6.047  1.3575  1.4422  0.1165
 7482SOL     OW23661   2.708   5.362   7.734  0.1332  0.3444  0.0185
 7482SOL    HW123662   2.704   5.356   7.829  2.9099  1.2977  0.2823
 7482SOL    HW223663   2.772   5.296   7.708 -0.1688  0.4824 -1.1327
 7483SOL     OW23664   1.957   4.225   7.331 -0.7037 -0.3469 -0.5946
 7483SOL    HW123665   2.018   4.291   7.297 -0.3031  0.1559  0.9867
 7483SOL    HW223666   1.890   4.276   7.377 -1.3800 -0.9812 -0.8653
 7484SOL     OW23667   3.121   5.170   6.399 -0.5398 -0.1117 -0.1767
 7484SOL    HW123668   3.092   5.118   6.324 -1.8305  0.1678  0.1144
 7484SOL    HW223669   3.047   5.170   6.459 -0.3287  1.4943  0.1347
 7485SOL     OW23670   2.880   5.110   5.874  0.7108  0.4625  0.1693
 7485SOL    HW123671   2.876   5.206   5.882  1.4335  0.5378 -0.3190
 7485SOL    HW223672   2.970   5.088   5.897  0.7995 -0.0165 -0.6103
 7486SOL     OW23673   2.769   4.458   5.435 -0.6741  0.0081  0.0135
 7486SOL    HW123674   2.785   4.552   5.432  0.0065 -0.1253 -0.7455
 7486SOL    HW223675   2.819   4.427   5.510  1.2777 -0.1280 -1.2671
 7487SOL     OW23676   3.270   4.354   6.611  0.1488 -0.6176  0.4076
 7487SOL    HW123677   3.333   4.420   6.639 -1.0968  0.7784  0.0311
 7487SOL    HW223678   3.315   4.307   6.541  0.4632  0.9603 -0.4994
 7488SOL     OW23679   3.631   5.327   5.785 -0.2562 -0.6795  0.0115
 7488SOL    HW123680   3.717   5.312   5.824 -1.0981  1.0152  2.7641
 7488SOL    HW223681   3.609   5.243   5.743  1.7352 -1.8779  1.2279
 7489SOL     OW23682   2.165   4.196   7.560  0.0393  0.4796 -0.0641
 7489SOL    HW123683   2.197   4.276   7.520 -1.3065  1.4345  0.6622
 7489SOL    HW223684   2.072   4.212   7.574 -0.4466 -1.5356 -0.6293
 7490SOL     OW23685   3.106   4.104   6.852 -0.3570 -0.1914  0.0063
 7490SOL    HW123686   3.060   4.146   6.924  0.4334  1.4811 -0.4273
 7490SOL    HW223687   3.199   4.122   6.868 -0.0907 -0.7186 -0.8484
 7491SOL     OW23688   2.575   4.085   7.555 -0.0746  0.4558  0.1532
 7491SOL    HW123689   2.584   4.050   7.644  0.1124 -1.6054 -0.6309
 7491SOL    HW223690   2.665   4.091   7.522 -0.1364  1.3179  0.1332
 7492SOL     OW23691   2.880   3.793   6.658  0.1304 -0.1613 -0.0096
 7492SOL    HW123692   2.881   3.750   6.573  1.1221 -1.3483  0.5770
 7492SOL    HW223693   2.889   3.886   6.638 -0.0468 -0.3913 -1.2093
 7493SOL     OW23694   3.209   4.463   6.188 -0.3933  0.4106  0.1135
 7493SOL    HW123695   3.239   4.481   6.099 -2.9055 -0.1383 -0.9428
 7493SOL    HW223696   3.256   4.525   6.243  1.8568  0.1994 -1.4643
 7494SOL     OW23697   1.835   4.437   6.363  0.0857  0.6834  0.0118
 7494SOL    HW123698   1.798   4.406   6.280  0.5592 -0.0426  0.0619
 7494SOL    HW223699   1.816   4.531   6.364 -0.5398  0.5744 -0.5936
 7495SOL     OW23700   1.653   5.706   6.972 -0.4214  0.0233  0.4658
 7495SOL    HW123701   1.702   5.776   7.015 -0.6566  0.7393 -0.3985
 7495SOL    HW223702   1.608   5.750   6.899  0.9596 -1.3325 -1.2924
 7496SOL     OW23703   2.331   4.076   5.663 -0.2156  0.5300  0.3358
 7496SOL    HW123704   2.328   3.985   5.632 -0.2703  1.4462 -2.6544
 7496SOL    HW223705   2.424   4.090   5.684  0.0537  0.1697 -0.5505
 7497SOL     OW23706   3.066   4.345   7.512  0.3327 -0.3025 -0.1519
 7497SOL    HW123707   2.971   4.353   7.519  0.0994 -0.5620 -2.2152
 7497SOL    HW223708   3.095   4.429   7.478  0.7360 -0.4681 -0.2265
 7498SOL     OW23709   3.427   5.168   6.185  0.1229  0.2232 -0.0854
 7498SOL    HW123710   3.511   5.166   6.139  0.2418  0.6722  0.1101
 7498SOL    HW223711   3.437   5.102   6.255  1.4196  2.2860  1.8151
 7499SOL     OW23712   2.066   3.784   6.936  0.3894 -0.2167  0.2873
 7499SOL    HW123713   2.092   3.745   7.019  0.4623  2.4587  1.6268
 7499SOL    HW223714   2.142   3.774   6.879  0.9445 -0.6457  1.0913
 7500SOL     OW23715   2.961   5.380   5.885  0.6928  0.6596 -0.0323
 7500SOL    HW123716   3.018   5.367   5.960 -1.1627  1.5213  1.6242
 7500SOL    HW223717   2.917   5.464   5.902 -1.3286 -0.1260 -1.0148
 7501SOL     OW23718   2.158   5.633   6.497  0.0333  0.3193  0.1186
 7501SOL    HW123719   2.185   5.547   6.530 -0.6965 -0.1934 -0.5774
 7501SOL    HW223720   2.205   5.642   6.414 -0.3986  0.3085 -0.1257
 7502SOL     OW23721   2.885   4.915   7.499 -0.1695 -0.8172 -0.1205
 7502SOL    HW123722   2.801   4.956   7.522  0.9230  1.2803  0.3581
 7502SOL    HW223723   2.883   4.830   7.543 -1.4797 -0.2295  1.0193
 7503SOL     OW23724   2.049   4.968   6.391 -0.3508 -0.2539 -0.3693
 7503SOL    HW123725   2.072   5.060   6.405  0.2127 -0.3200 -0.7971
 7503SOL    HW223726   2.133   4.925   6.371 -0.5504 -0.9356  0.1975
 7504SOL     OW23727   3.389   4.588   6.353 -0.1882  0.0068  0.1830
 7504SOL    HW123728   3.430   4.674   6.360 -1.3490  0.4419  2.4696
 7504SOL    HW223729   3.463   4.528   6.340  0.6669  1.2712 -1.0869
 7505SOL     OW23730   2.209   4.660   7.109  0.5855 -0.0736  0.5358
 7505SOL    HW123731   2.237   4.751   7.119  2.9412 -0.8590  1.7205
 7505SOL    HW223732   2.224   4.640   7.017  2.4604  0.0646  0.7692
 7506SOL     OW23733   3.414   5.748   5.744 -0.2524  0.3378  0.2130
 7506SOL    HW123734   3.450   5.694   5.815 -0.5644 -1.0419 -0.6513
 7506SOL    HW223735   3.397   5.686   5.673  0.1815  1.7221 -1.1265
 7507SOL     OW23736   1.377   3.681   7.243 -0.1196  0.0976 -0.8069
 7507SOL    HW123737   1.448   3.692   7.179 -0.3412  0.9114 -0.9226
 7507SOL    HW223738   1.301   3.720   7.200 -0.3087  0.5032 -0.1108
 7508SOL     OW23739   2.959   5.371   5.190 -0.3092  0.5306 -0.9755
 7508SOL    HW123740   3.047   5.335   5.179 -0.7861 -0.3720 -1.9853
 7508SOL    HW223741   2.916   5.311   5.251  0.1940  1.7717  0.6760
 7509SOL     OW23742   2.171   5.744   5.891 -0.2501 -0.6096  0.4261
 7509SOL    HW123743   2.080   5.755   5.862 -0.5003 -0.2355  1.3137
 7509SOL    HW223744   2.211   5.689   5.824 -0.9273 -0.1443 -0.3794
 7510SOL     OW23745   3.116   4.016   5.724  0.1120 -0.1859  0.0691
 7510SOL    HW123746   3.088   4.087   5.781 -1.2454 -1.7039  1.4230
 7510SOL    HW223747   3.176   3.965   5.777  0.6659 -0.3510 -0.6968
 7511SOL     OW23748   2.232   5.601   6.857 -0.5343 -0.0430  0.1136
 7511SOL    HW123749   2.275   5.684   6.833 -0.2420  0.2052  1.4132
 7511SOL    HW223750   2.286   5.566   6.928 -1.3024 -0.7829  0.3440
 7512SOL     OW23751   2.980   5.451   6.304  0.2657  0.6909 -0.0156
 7512SOL    HW123752   2.986   5.545   6.284  0.3832  0.6073 -0.3820
 7512SOL    HW223753   2.954   5.448   6.396  0.0759  1.0848 -0.0534
 7513SOL     OW23754   2.365   4.400   6.461  0.4368  0.3757  0.6075
 7513SOL    HW123755   2.288   4.446   6.495  0.8134  0.5277  1.2568
 7513SOL    HW223756   2.385   4.334   6.527  0.0446 -0.5934 -0.2035
 7514SOL     OW23757   3.008   3.758   7.107  0.4212 -0.0467 -0.0385
 7514SOL    HW123758   3.078   3.736   7.045  2.1066 -0.2483  1.8344
 7514SOL    HW223759   2.984   3.674   7.146 -0.6044  0.0875 -0.3422
 7515SOL     OW23760   2.358   4.113   6.048 -0.5771  0.5837 -0.1634
 7515SOL    HW123761   2.420   4.039   6.050 -0.5980  0.5658 -0.1740
 7515SOL    HW223762   2.403   4.183   6.096  0.0883  1.0799 -1.4582
 7516SOL     OW23763   2.197   3.935   7.488 -0.1636 -0.0450 -0.1416
 7516SOL    HW123764   2.183   4.025   7.518  2.1308 -0.0099  1.0428
 7516SOL    HW223765   2.112   3.892   7.501 -0.8415  1.5001  0.8845
 7517SOL     OW23766   2.563   5.309   6.967  0.4067 -0.3345 -0.1993
 7517SOL    HW123767   2.568   5.214   6.974 -1.5565 -0.4201  0.6800
 7517SOL    HW223768   2.496   5.334   7.031 -0.0730  1.4932 -1.3532
 7518SOL     OW23769   2.601   3.883   7.035  0.6008  0.7676  0.3703
 7518SOL    HW123770   2.598   3.873   7.130  0.7584  2.2291  0.5558
 7518SOL    HW223771   2.521   3.930   7.013 -0.5907 -1.5069 -0.5461
 7519SOL     OW23772   2.551   5.491   6.527  0.4952  0.4069 -0.1998
 7519SOL    HW123773   2.588   5.472   6.613 -0.2057  1.4649  0.3605
 7519SOL    HW223774   2.476   5.432   6.520  1.7749 -1.1866 -1.0081
 7520SOL     OW23775   3.160   4.698   6.458 -0.1697  0.0034 -0.0910
 7520SOL    HW123776   3.167   4.774   6.400 -0.4556 -0.0794 -0.2372
 7520SOL    HW223777   3.237   4.645   6.437  0.7026  0.8488  0.8940
 7521SOL     OW23778   2.781   4.269   6.200 -0.0673 -0.3297  0.4358
 7521SOL    HW123779   2.763   4.302   6.288  0.1216 -1.1996  0.8173
 7521SOL    HW223780   2.876   4.275   6.191 -0.1774  0.7530 -0.1285
 7522SOL     OW23781   3.099   4.905   5.924  0.7833 -0.5992 -0.4338
 7522SOL    HW123782   3.180   4.887   5.971  0.8212 -0.4261 -0.4306
 7522SOL    HW223783   3.107   4.858   5.841  1.2588  0.1167 -0.8004
 7523SOL     OW23784   1.986   3.938   5.825  0.1190  0.6406 -0.4929
 7523SOL    HW123785   2.023   4.023   5.849  0.3817  0.4599 -0.2401
 7523SOL    HW223786   2.024   3.877   5.889 -2.0313  0.7257  0.9515
 7524SOL     OW23787   2.597   4.418   5.681  0.7878  0.2527 -0.0901
 7524SOL    HW123788   2.574   4.422   5.774 -2.3192 -1.4952 -0.6299
 7524SOL    HW223789   2.580   4.506   5.648  1.3050  0.7203  0.8495
 7525SOL     OW23790   2.677   4.289   6.889 -0.0389 -0.0171 -0.2545
 7525SOL    HW123791   2.690   4.295   6.983  3.1425  0.8620 -0.6268
 7525SOL    HW223792   2.734   4.216   6.862  1.0183  1.2868 -1.7223
 7526SOL     OW23793   3.163   5.648   6.622 -0.1153  0.1494  0.0870
 7526SOL    HW123794   3.128   5.624   6.707  0.6284 -0.5058  0.2161
 7526SOL    HW223795   3.241   5.700   6.641  0.5045 -0.6609 -0.1762
 7527SOL     OW23796   2.199   4.560   6.601  0.0656 -0.0506 -0.0225
 7527SOL    HW123797   2.137   4.547   6.673  0.0599 -0.5857 -0.1167
 7527SOL    HW223798   2.252   4.635   6.627  0.6243 -0.7550  0.9407
 7528SOL     OW23799   2.874   5.657   5.931 -0.6174  0.3589 -0.2835
 7528SOL    HW123800   2.964   5.691   5.926 -0.4226 -0.2789 -3.3577
 7528SOL    HW223801   2.821   5.732   5.957  0.5060  1.4804 -1.0783
 7529SOL     OW23802   2.991   4.617   5.746 -0.1326 -0.8254  0.0759
 7529SOL    HW123803   3.086   4.616   5.729 -0.1179  1.5340 -0.2284
 7529SOL    HW223804   2.967   4.709   5.743 -2.0792 -1.1716  2.4000
 7530SOL     OW23805   2.245   4.129   7.172  0.3500  0.1963  0.6323
 7530SOL    HW123806   2.296   4.128   7.253 -0.2278 -2.0936  1.0520
 7530SOL    HW223807   2.173   4.069   7.188 -0.3816  0.4884 -1.2347
 7531SOL     OW23808   2.584   3.735   6.687 -0.2041 -0.2571 -0.0274
 7531SOL    HW123809   2.590   3.640   6.680 -0.5161 -0.1534 -2.9835
 7531SOL    HW223810   2.661   3.760   6.738 -0.5601 -2.1196  1.5334
 7532SOL     OW23811   3.037   4.235   6.226 -0.0050  0.0768  0.1670
 7532SOL    HW123812   3.106   4.299   6.211 -0.1648  0.3417  0.5497
 7532SOL    HW223813   3.079   4.166   6.279 -0.4923  1.1475  2.0457
 7533SOL     OW23814   2.927   4.234   5.881 -0.1949  0.3675  0.0664
 7533SOL    HW123815   2.852   4.219   5.939 -0.1543 -2.2910 -0.4467
 7533SOL    HW223816   3.003   4.228   5.938 -0.2813  1.0542  0.2594
 7534SOL     OW23817   3.196   4.982   6.764 -0.0091  0.0585 -0.4763
 7534SOL    HW123818   3.201   5.052   6.829 -0.2943 -1.9354  1.8429
 7534SOL    HW223819   3.260   5.006   6.697  0.5131  2.0704  0.6745
 7535SOL     OW23820   3.036   4.402   6.772  0.0740  0.0937  0.1028
 7535SOL    HW123821   3.097   4.373   6.705 -0.8421  0.2820 -0.8372
 7535SOL    HW223822   2.952   4.408   6.727 -0.4472  0.7774  1.1310
 7536SOL     OW23823   3.736   4.717   6.212 -0.0138 -0.4552  0.0326
 7536SOL    HW123824   3.671   4.762   6.265 -1.2173 -0.4789 -1.3494
 7536SOL    HW223825   3.818   4.724   6.262 -1.0241 -0.2518  1.7075
 7537SOL     OW23826   2.337   5.366   6.139 -0.4539  0.8348  0.0699
 7537SOL    HW123827   2.322   5.317   6.058  0.1142  1.3150 -0.3307
 7537SOL    HW223828   2.431   5.382   6.141 -0.5096  1.1270  0.6536
 7538SOL     OW23829   2.016   4.212   6.072 -0.2749 -0.0173 -0.3329
 7538SOL    HW123830   2.077   4.153   6.117 -1.0149 -0.3796  0.2023
 7538SOL    HW223831   2.049   4.215   5.982  1.9818  1.6929  0.4443
 7539SOL     OW23832   3.643   4.962   7.392  0.3992  0.0917  0.6138
 7539SOL    HW123833   3.644   4.900   7.465 -1.1035  1.5149  1.9086
 7539SOL    HW223834   3.646   5.048   7.433 -0.5130  0.9346 -0.9967
 7540SOL     OW23835   2.481   4.971   7.275  0.6263 -0.2468  0.1034
 7540SOL    HW123836   2.493   4.876   7.272 -1.1410 -0.5552  1.3724
 7540SOL    HW223837   2.426   4.991   7.199  1.7483 -0.0778 -0.6881
 7541SOL     OW23838   3.120   4.990   7.071 -0.1009 -0.2033  0.4288
 7541SOL    HW123839   3.178   5.060   7.042 -1.2385  0.3112 -0.6850
 7541SOL    HW223840   3.130   4.922   7.005 -0.6945 -0.1430  0.2723
 7542SOL     OW23841   2.889   5.394   6.946 -0.4294 -0.3645 -0.3568
 7542SOL    HW123842   2.930   5.310   6.930  1.0377  0.0564  0.9643
 7542SOL    HW223843   2.814   5.374   7.001 -0.5891 -0.8801 -0.7499
 7543SOL     OW23844   2.443   3.283   6.853  0.2631 -0.0010  0.0264
 7543SOL    HW123845   2.403   3.215   6.798 -0.8045  1.0649 -0.5635
 7543SOL    HW223846   2.484   3.343   6.790  1.1556 -0.0652  0.5371
 7544SOL     OW23847   2.904   4.519   7.304 -0.2188  0.3984 -0.9915
 7544SOL    HW123848   2.995   4.540   7.286 -0.0720  1.8120  1.0346
 7544SOL    HW223849   2.874   4.473   7.226  2.1455  0.0916 -1.7912
 7545SOL     OW23850   2.695   4.529   6.081 -0.3757  0.2066  0.2016
 7545SOL    HW123851   2.697   4.434   6.094  0.7632  0.0724 -0.7942
 7545SOL    HW223852   2.786   4.554   6.067 -0.8457  1.1149 -1.6745
 7546SOL     OW23853   2.294   4.848   6.622  0.7422  0.2383  0.3830
 7546SOL    HW123854   2.379   4.879   6.654  0.4436  0.9475  0.5110
 7546SOL    HW223855   2.300   4.856   6.527  1.1687 -0.6616  0.3191
 7547SOL     OW23856   2.771   4.079   6.761  0.7778  0.1616  0.2381
 7547SOL    HW123857   2.760   4.002   6.817 -0.2994  1.7480  2.3360
 7547SOL    HW223858   2.854   4.063   6.716  0.5733 -2.2248  0.5584
 7548SOL     OW23859   1.924   5.064   7.021 -0.4757 -0.2744 -0.2865
 7548SOL    HW123860   1.841   5.057   6.974 -0.6078 -1.6701  0.1028
 7548SOL    HW223861   1.990   5.070   6.952 -0.8573  0.4493 -0.6014
 7549SOL     OW23862   1.832   4.829   6.561  0.1489 -0.4161  0.3305
 7549SOL    HW123863   1.908   4.883   6.538 -1.2348  2.1583  1.3814
 7549SOL    HW223864   1.847   4.803   6.652  0.8586 -1.9802 -0.2034
 7550SOL     OW23865   2.323   3.784   6.828  0.2274 -0.3722 -0.0342
 7550SOL    HW123866   2.347   3.859   6.883  2.3284 -1.2075  0.2870
 7550SOL    HW223867   2.406   3.753   6.792 -0.6874 -2.0612 -0.8056
 7551SOL     OW23868   3.201   5.253   5.988 -1.1028 -0.9586 -0.1365
 7551SOL    HW123869   3.236   5.214   5.908  1.1699  1.9876 -0.7833
 7551SOL    HW223870   3.271   5.245   6.051 -1.2356  0.4621  0.2205
 7552SOL     OW23871   3.207   4.806   7.518 -0.5084 -0.1971 -0.6262
 7552SOL    HW123872   3.217   4.712   7.504 -0.6134 -0.2836 -0.1570
 7552SOL    HW223873   3.124   4.829   7.476 -0.5198 -0.3283 -0.6741
 7553SOL     OW23874   3.243   4.235   5.924  0.3508 -0.1398 -0.1073
 7553SOL    HW123875   3.260   4.328   5.911  0.3908 -0.3665 -2.0499
 7553SOL    HW223876   3.322   4.191   5.890 -0.1053 -0.9027 -0.2057
 7554SOL     OW23877   2.114   5.102   6.816 -0.6812 -0.7823  0.2610
 7554SOL    HW123878   2.111   5.196   6.800 -1.1710 -0.6196  1.2259
 7554SOL    HW223879   2.092   5.062   6.732 -0.6271 -0.0303 -0.1147
 7555SOL     OW23880   2.429   4.395   7.390 -0.4021  0.2486  0.0277
 7555SOL    HW123881   2.444   4.312   7.346  1.8495  0.0664  1.0226
 7555SOL    HW223882   2.464   4.461   7.330  0.9587  0.1554  0.6880
 7556SOL     OW23883   3.231   4.538   7.374 -0.4641 -0.3268 -0.8938
 7556SOL    HW123884   3.319   4.558   7.406 -0.5101  0.5926 -1.3301
 7556SOL    HW223885   3.245   4.472   7.306 -0.2718 -1.4458  0.1707
 7557SOL     OW23886   2.903   3.230   7.294  0.1669  0.2228 -0.4449
 7557SOL    HW123887   2.992   3.259   7.276 -0.1530  0.3639 -1.8627
 7557SOL    HW223888   2.908   3.135   7.293  0.4246  0.2207  0.1975
 7558SOL     OW23889   1.936   3.539   7.278  0.0135  1.0036 -0.9799
 7558SOL    HW123890   2.026   3.533   7.246 -0.1868  0.7077 -1.5152
 7558SOL    HW223891   1.900   3.452   7.261  0.8405 -0.3365  3.0695
 7559SOL     OW23892   2.590   4.140   6.557  0.6055  0.0802 -0.0400
 7559SOL    HW123893   2.636   4.098   6.630  0.8207 -1.8487 -1.2116
 7559SOL    HW223894   2.643   4.217   6.537  1.2024 -0.0227  1.0892
 7560SOL     OW23895   3.256   4.887   6.294 -0.4957  0.1031  0.0136
 7560SOL    HW123896   3.294   4.828   6.229  0.8197  0.1411  0.7027
 7560SOL    HW223897   3.331   4.934   6.331 -0.6322 -2.3577  4.0442
 7561SOL     OW23898   2.948   3.893   5.497 -0.5933 -0.0026 -0.8118
 7561SOL    HW123899   3.005   3.916   5.571  1.7374  3.3653 -3.2815
 7561SOL    HW223900   2.970   3.802   5.478 -0.3537 -0.5805  1.8111
 7562SOL     OW23901   2.472   4.117   7.311 -0.0071 -0.6228  0.7249
 7562SOL    HW123902   2.508   4.111   7.400  1.0231 -2.0297  0.2539
 7562SOL    HW223903   2.436   4.030   7.294 -0.5256 -0.2510 -0.1025
 7563SOL     OW23904   1.804   5.355   6.848  0.5190  0.0409  0.3165
 7563SOL    HW123905   1.801   5.390   6.937 -0.0368 -1.2666  0.8327
 7563SOL    HW223906   1.774   5.265   6.857  0.6181 -0.1571 -1.1796
 7564SOL     OW23907   2.421   4.039   6.347 -0.4285  0.1776 -0.0325
 7564SOL    HW123908   2.474   4.073   6.420  0.7685 -0.9903 -0.3324
 7564SOL    HW223909   2.423   4.109   6.282 -0.6806  0.8294  0.6374
 7565SOL     OW23910   3.260   4.052   7.192 -0.4699  0.1661  0.3687
 7565SOL    HW123911   3.280   4.036   7.100 -1.4583  0.5207  0.0807
 7565SOL    HW223912   3.300   3.979   7.239  1.5074  0.8465 -0.1573
 7566SOL     OW23913   2.112   4.208   6.678  0.1064 -0.3125 -0.4284
 7566SOL    HW123914   2.195   4.230   6.720 -0.7935  2.3607  0.1962
 7566SOL    HW223915   2.070   4.145   6.737  1.8542 -2.1409 -1.0430
 7567SOL     OW23916   2.922   4.689   6.969 -0.1397  0.2551  0.0038
 7567SOL    HW123917   2.964   4.726   6.892 -1.1671  0.0660 -0.6643
 7567SOL    HW223918   2.956   4.600   6.975 -1.4929 -0.3940 -1.3846
 7568SOL     OW23919   2.736   4.501   7.534  0.4711  0.0296  0.2668
 7568SOL    HW123920   2.760   4.538   7.449 -0.7989 -0.5107 -0.3553
 7568SOL    HW223921   2.652   4.542   7.555 -1.0330 -2.4458 -0.4821
 7569SOL     OW23922   3.422   5.194   7.818  0.3130  0.0778  0.1633
 7569SOL    HW123923   3.400   5.127   7.753 -0.6876 -1.2217  1.7749
 7569SOL    HW223924   3.338   5.218   7.857  0.9846  0.2387  1.5441
 7570SOL     OW23925   1.990   4.607   7.454  0.8445  0.0214 -0.5611
 7570SOL    HW123926   2.007   4.582   7.545  0.7940 -0.0373 -0.5674
 7570SOL    HW223927   2.049   4.552   7.402  0.8774  0.0592 -0.5628
 7571SOL     OW23928   3.151   4.849   5.665  0.0782  0.4851 -0.4839
 7571SOL    HW123929   3.105   4.850   5.581 -0.2431  0.6627 -0.3047
 7571SOL    HW223930   3.210   4.775   5.658  0.7458  1.0616 -1.2451
 7572SOL     OW23931   2.914   5.218   6.586  0.0658 -0.9074  0.4467
 7572SOL    HW123932   2.889   5.303   6.620  0.9047  0.2053 -1.5710
 7572SOL    HW223933   2.906   5.159   6.661 -0.2587  0.9708  1.9601
 7573SOL     OW23934   2.074   4.916   7.181  0.0348 -0.0104 -0.2307
 7573SOL    HW123935   2.022   4.986   7.143  0.7007  1.2217  1.0351
 7573SOL    HW223936   2.010   4.863   7.230 -0.5102 -0.4827 -1.4146
 7574SOL     OW23937   2.397   4.050   6.947  0.1876 -0.4866 -0.2182
 7574SOL    HW123938   2.338   4.078   7.017 -0.9717 -0.3209 -1.2421
 7574SOL    HW223939   2.409   4.128   6.893  1.4917 -0.4712  0.0645
 7575SOL     OW23940   3.182   3.571   6.852 -0.1280 -0.3785 -0.5646
 7575SOL    HW123941   3.148   3.655   6.819  0.0621 -0.4863 -1.0335
 7575SOL    HW223942   3.277   3.580   6.845 -0.0831 -0.3885 -0.0054
 7576SOL     OW23943   3.287   3.257   6.754  0.3548  0.2504 -0.4428
 7576SOL    HW123944   3.372   3.227   6.720  0.7290  0.4173  0.3267
 7576SOL    HW223945   3.309   3.326   6.817 -0.0670 -1.8378  2.1981
 7577SOL     OW23946   1.943   4.535   5.974 -0.3161 -0.4956  0.1530
 7577SOL    HW123947   1.935   4.587   6.054 -0.2975 -1.7601  1.0139
 7577SOL    HW223948   2.022   4.483   5.987 -0.4493 -0.8926 -0.5803
 7578SOL     OW23949   1.532   5.904   6.810  0.1639 -0.0359 -0.0241
 7578SOL    HW123950   1.478   5.881   6.734 -1.2650  0.9915  0.6231
 7578SOL    HW223951   1.484   5.976   6.852  1.3195 -0.0624  1.4162
 7579SOL     OW23952   2.080   5.224   6.464 -0.2191  0.1358  0.3784
 7579SOL    HW123953   2.091   5.287   6.393  0.5511 -0.4224 -0.0125
 7579SOL    HW223954   2.152   5.242   6.524 -0.2177 -0.1190  0.4556
 7580SOL     OW23955   2.714   4.669   6.606  0.0460 -0.5555 -0.0405
 7580SOL    HW123956   2.692   4.689   6.515  0.6525  0.8748  0.1010
 7580SOL    HW223957   2.809   4.669   6.609  0.0352  0.1795  0.7357
 7581SOL     OW23958   1.593   4.019   6.757 -0.3438 -0.6641  0.0180
 7581SOL    HW123959   1.626   4.089   6.701 -0.2898 -1.8562 -1.5090
 7581SOL    HW223960   1.660   4.009   6.825 -0.4349  0.8399  0.3693
 7582SOL     OW23961   1.724   4.283   7.480 -0.2044  0.1153 -0.7853
 7582SOL    HW123962   1.708   4.193   7.508  0.2729  0.4811  0.7486
 7582SOL    HW223963   1.665   4.296   7.405 -0.6116 -1.3183 -0.7309
 7583SOL     OW23964   3.243   4.679   7.092  0.0326 -0.7321  0.3391
 7583SOL    HW123965   3.189   4.612   7.051 -1.9374  1.1912 -0.3516
 7583SOL    HW223966   3.316   4.692   7.032 -1.6132  0.4152 -1.5085
 7584SOL     OW23967   2.454   4.298   6.224  0.0672 -0.4655 -0.3224
 7584SOL    HW123968   2.458   4.377   6.169  1.0023 -0.6759 -0.5693
 7584SOL    HW223969   2.423   4.330   6.309  0.0245  0.1046 -0.5455
 7585SOL     OW23970   2.067   5.193   7.494 -0.5994 -0.0071  0.1873
 7585SOL    HW123971   2.146   5.144   7.471  0.3037  1.7194 -0.5590
 7585SOL    HW223972   2.006   5.174   7.422  0.2623  1.0570 -0.8555
 7586SOL     OW23973   2.690   4.289   7.173 -0.4821  0.5609 -0.2493
 7586SOL    HW123974   2.777   4.287   7.212  0.1105  1.6446 -1.4456
 7586SOL    HW223975   2.644   4.214   7.212  0.4480  0.8947  1.5816
 7587SOL     OW23976   2.290   5.026   7.491 -0.0739 -0.1786  0.5342
 7587SOL    HW123977   2.270   4.943   7.534 -0.6133  0.1547  0.9468
 7587SOL    HW223978   2.308   5.002   7.400 -0.5621 -0.7099  0.5684
 7588SOL     OW23979   2.125   4.548   5.537 -0.1559  0.2428  0.7475
 7588SOL    HW123980   2.055   4.483   5.548 -0.8955  1.1023  1.3389
 7588SOL    HW223981   2.206   4.499   5.553 -0.7377 -0.3657  1.9507
 7589SOL     OW23982   1.947   4.527   7.076  0.2051  0.1846 -0.6675
 7589SOL    HW123983   2.003   4.556   7.148 -0.6790  0.4571 -0.0775
 7589SOL    HW223984   1.970   4.435   7.064  0.7280  0.2742 -0.3842
 7590SOL     OW23985   3.026   4.776   6.733 -0.1656  0.2285  0.3018
 7590SOL    HW123986   3.084   4.850   6.754 -0.1474 -0.0432  1.2659
 7590SOL    HW223987   3.037   4.763   6.639 -1.1629  2.3079 -0.1820
 7591SOL     OW23988   3.283   4.536   5.921  0.6120 -0.5786 -0.8932
 7591SOL    HW123989   3.357   4.588   5.952 -0.1000  0.8832 -1.5541
 7591SOL    HW223990   3.289   4.540   5.825 -1.0219  0.6729 -0.9857
 7592SOL     OW23991   3.433   5.349   6.799 -0.6009 -0.1876  0.1294
 7592SOL    HW123992   3.490   5.419   6.766 -0.2866  0.0630  1.1853
 7592SOL    HW223993   3.401   5.306   6.720  0.1874  0.3630 -0.5081
 7593SOL     OW23994   2.978   5.095   7.312  0.4299 -0.2047  0.5828
 7593SOL    HW123995   3.067   5.088   7.278 -0.2342  2.1776 -2.1205
 7593SOL    HW223996   2.971   5.026   7.378  4.4018 -0.1047  1.3211
 7594SOL     OW23997   1.997   5.698   6.743  0.0709 -0.5011 -0.3291
 7594SOL    HW123998   2.067   5.667   6.800  0.6440  1.1209 -0.1090
 7594SOL    HW223999   2.041   5.721   6.661 -0.0064  1.5273  0.1665
 7595SOL     OW24000   2.463   5.260   7.624  0.6794 -0.1196  0.2815
 7595SOL    HW124001   2.397   5.302   7.568  0.2633 -0.9958  0.1004
 7595SOL    HW224002   2.530   5.327   7.636  1.0754 -0.0836 -1.7627
 7596SOL     OW24003   3.140   5.370   5.637  0.2547  0.2147 -0.3231
 7596SOL    HW124004   3.057   5.356   5.682  0.8142 -2.6830 -0.0042
 7596SOL    HW224005   3.205   5.379   5.708  0.2981  2.2015 -0.5696
 7597SOL     OW24006   1.485   5.791   7.657  0.3652 -1.1517  0.0356
 7597SOL    HW124007   1.548   5.722   7.681  0.1248 -1.1203  0.7679
 7597SOL    HW224008   1.448   5.761   7.573  0.7753 -1.5624 -0.0056
 7598SOL     OW24009   2.551   4.939   6.332 -0.3831 -0.3851 -0.1195
 7598SOL    HW124010   2.597   4.857   6.319 -0.7275 -0.5433 -0.3661
 7598SOL    HW224011   2.615   4.997   6.372 -0.3618 -1.0072  0.7778
 7599SOL     OW24012   2.179   4.469   7.303  0.4169 -0.2382  0.6140
 7599SOL    HW124013   2.184   4.546   7.246 -0.6221  1.4246  2.6327
 7599SOL    HW224014   2.270   4.439   7.311  0.5847 -0.6776 -1.9992
 7600SOL     OW24015   2.517   5.825   5.633 -0.1824  0.0938  0.3821
 7600SOL    HW124016   2.611   5.844   5.622 -0.3587  0.4246 -0.6567
 7600SOL    HW224017   2.499   5.844   5.725  0.6224  0.6866  0.4274
 7601SOL     OW24018   3.387   5.473   7.062 -0.0086 -0.3884  0.2035
 7601SOL    HW124019   3.437   5.418   7.002  0.8361 -0.6055  1.0700
 7601SOL    HW224020   3.439   5.472   7.143  0.4056  2.2740  0.0367
 7602SOL     OW24021   3.705   3.932   6.471  0.0110 -0.0040  0.0915
 7602SOL    HW124022   3.751   3.926   6.387  1.4625  0.6846  0.8068
 7602SOL    HW224023   3.744   4.009   6.514 -0.6299 -0.4044  1.4399
 7603SOL     OW24024   1.448   4.741   6.448 -0.4743 -0.4221 -0.2084
 7603SOL    HW124025   1.483   4.721   6.361  1.5277 -2.8438  1.0093
 7603SOL    HW224026   1.384   4.672   6.464 -0.8165  0.0004  0.2673
 7604SOL     OW24027   3.298   5.108   5.795  0.5011 -0.3422  0.3397
 7604SOL    HW124028   3.284   5.015   5.774 -0.1332 -0.3406  0.7575
 7604SOL    HW224029   3.381   5.129   5.751  0.8568 -1.2076  0.5654
 7605SOL     OW24030   2.766   4.790   7.218 -0.6723  0.1095  0.1811
 7605SOL    HW124031   2.840   4.742   7.181 -0.8795  0.4911 -0.7575
 7605SOL    HW224032   2.802   4.831   7.297 -0.0190 -0.1236  0.0110
 7606SOL     OW24033   2.945   4.598   6.006 -0.5321  0.3056 -0.0085
 7606SOL    HW124034   3.017   4.550   6.046  0.7440  3.2973  1.5557
 7606SOL    HW224035   2.967   4.602   5.913  0.8896  0.4439  0.3232
 7607SOL     OW24036   3.485   5.392   5.406  0.6284  0.0926 -0.3025
 7607SOL    HW124037   3.544   5.423   5.475 -1.4389 -1.3152  2.2999
 7607SOL    HW224038   3.513   5.302   5.389 -0.3587 -0.4050  0.5710
 7608SOL     OW24039   2.293   5.049   7.083  0.5135  0.0080 -0.4666
 7608SOL    HW124040   2.260   5.112   7.019  1.9236  1.2545 -0.0360
 7608SOL    HW224041   2.215   5.004   7.115 -0.3426  0.1679 -2.2020
 7609SOL     OW24042   2.690   5.171   6.428  0.0600  0.4170 -0.0787
 7609SOL    HW124043   2.672   5.234   6.359 -0.5146 -0.2692 -0.5671
 7609SOL    HW224044   2.778   5.193   6.458  0.1246  1.0268 -0.6913
 7610SOL     OW24045   2.980   4.493   6.479 -0.9581  0.3921 -0.1896
 7610SOL    HW124046   3.029   4.473   6.400  3.2293 -1.9195  2.6202
 7610SOL    HW224047   3.008   4.581   6.504  0.0364 -0.0089  0.1638
 7611SOL     OW24048   2.632   5.359   6.081 -0.4945 -0.2202  0.1219
 7611SOL    HW124049   2.715   5.324   6.114  0.1763  0.1412 -1.1439
 7611SOL    HW224050   2.605   5.297   6.013 -0.7588  0.1993 -0.1563
 7612SOL     OW24051   3.629   4.214   7.028 -0.0500  0.2274 -0.2897
 7612SOL    HW124052   3.627   4.151   6.956  0.1465 -1.0164  0.7393
 7612SOL    HW224053   3.676   4.168   7.098 -0.2447  1.3888  0.6385
 7613SOL     OW24054   2.131   5.247   5.942 -0.2602  0.3581  0.0011
 7613SOL    HW124055   2.067   5.302   5.988  0.8159  0.9946  0.7723
 7613SOL    HW224056   2.134   5.284   5.854 -0.3134  0.8789  0.2101
 7614SOL     OW24057   2.023   3.996   7.212  0.0134  0.3453 -0.2829
 7614SOL    HW124058   1.970   4.063   7.255 -1.3745  0.2876 -1.8278
 7614SOL    HW224059   2.025   3.923   7.274 -1.5270  0.4386 -0.1029
 7615SOL     OW24060   2.559   3.254   7.091 -0.0321 -0.2657 -0.2500
 7615SOL    HW124061   2.506   3.288   7.020  0.8864 -0.0844 -0.8615
 7615SOL    HW224062   2.640   3.224   7.049 -0.0815 -1.5315  0.5147
 7616SOL     OW24063   1.724   4.675   5.761  0.2183  0.0834  0.5582
 7616SOL    HW124064   1.704   4.668   5.668 -1.9568  0.1556  0.9605
 7616SOL    HW224065   1.813   4.710   5.764  0.0602  0.8036 -1.4928
 7617SOL     OW24066   3.068   4.462   7.028  0.1951 -0.0619 -0.3977
 7617SOL    HW124067   3.056   4.373   7.060 -0.1186 -0.0240 -0.4074
 7617SOL    HW224068   3.068   4.454   6.933 -0.3706  0.0173 -0.4048
 7618SOL     OW24069   1.790   4.322   6.127 -0.1518  0.4650  0.1396
 7618SOL    HW124070   1.884   4.305   6.129 -0.2279  0.0560  1.4514
 7618SOL    HW224071   1.761   4.291   6.041  0.7926 -0.0834  0.0126
 7619SOL     OW24072   2.871   5.249   6.165 -0.0764  0.2228  0.2124
 7619SOL    HW124073   2.914   5.167   6.190  0.8105  0.7293  0.3983
 7619SOL    HW224074   2.911   5.314   6.222 -0.6704  0.8095 -0.0358
 7620SOL     OW24075   2.802   4.084   7.374  0.8572 -0.3745  0.3091
 7620SOL    HW124076   2.752   4.009   7.341 -1.2883  1.5595 -1.1464
 7620SOL    HW224077   2.893   4.060   7.360  0.2518 -2.7113 -0.0851
 7621SOL     OW24078   3.257   5.194   6.932 -0.0481  0.4261 -0.3271
 7621SOL    HW124079   3.220   5.261   6.991 -0.3028  1.4294 -1.5928
 7621SOL    HW224080   3.334   5.236   6.894 -0.5898  0.2676 -1.6494
 7622SOL     OW24081   2.796   4.176   7.867 -0.0065  0.0091  0.0817
 7622SOL    HW124082   2.719   4.226   7.897 -0.2348 -0.0206 -0.4474
 7622SOL    HW224083   2.806   4.201   7.776  1.5066  1.1347  0.5234
 7623SOL     OW24084   3.424   4.894   7.222  0.0302  0.2324  0.0117
 7623SOL    HW124085   3.379   4.828   7.169 -0.6644  0.3696  0.4252
 7623SOL    HW224086   3.495   4.847   7.264  0.3838  0.0483 -0.7744
 7624SOL     OW24087   1.851   5.644   7.269  0.1576 -0.3498 -0.0725
 7624SOL    HW124088   1.923   5.700   7.242  0.1290  0.2300  0.9669
 7624SOL    HW224089   1.773   5.699   7.259  0.2885  0.4894  2.5417
 7625SOL     OW24090   3.176   4.040   6.381  0.6751  0.3342 -0.3531
 7625SOL    HW124091   3.188   4.008   6.292 -0.2180  0.5014 -0.5419
 7625SOL    HW224092   3.243   3.995   6.432 -0.0958 -1.3142 -0.7306
 7626SOL     OW24093   2.064   4.032   6.438 -0.1637  0.1223  0.5796
 7626SOL    HW124094   2.134   3.999   6.383 -0.2657 -1.7086  1.4549
 7626SOL    HW224095   2.106   4.095   6.497  0.4433  0.1252  0.1411
 7627SOL     OW24096   2.975   3.834   7.393 -0.2239  0.4600  0.2294
 7627SOL    HW124097   3.002   3.758   7.343  0.4127  0.4041  0.6543
 7627SOL    HW224098   2.881   3.822   7.406 -0.2661  0.1284 -0.3415
 7628SOL     OW24099   3.579   4.491   7.189  0.1642  0.4727  0.1909
 7628SOL    HW124100   3.502   4.442   7.161  0.1076  0.8051 -0.2308
 7628SOL    HW224101   3.653   4.434   7.165  0.0495  0.0593  0.7844
 7629SOL     OW24102   2.763   4.806   6.116  0.4237 -0.6425  0.7329
 7629SOL    HW124103   2.813   4.746   6.062  0.5705  0.1291 -0.0044
 7629SOL    HW224104   2.828   4.865   6.154  0.1747 -0.2597  0.5694
 7630SOL     OW24105   2.688   5.376   6.734  0.8502 -0.8318 -0.3300
 7630SOL    HW124106   2.646   5.349   6.816 -1.3171 -0.4157 -1.2459
 7630SOL    HW224107   2.758   5.434   6.761  0.1291 -0.6446  1.2388
 7631SOL     OW24108   2.935   5.126   6.910  0.9138  0.3655  0.2185
 7631SOL    HW124109   2.962   5.101   6.998  0.0820 -0.8300  0.1505
 7631SOL    HW224110   2.874   5.058   6.883 -0.3737  1.7459 -0.5216
 7632SOL     OW24111   3.036   4.993   6.203  0.1568  0.2961 -0.7112
 7632SOL    HW124112   3.037   4.976   6.109  1.9822  0.6253 -0.7893
 7632SOL    HW224113   3.115   4.950   6.237  0.0840  1.0422  0.4888
 7633SOL     OW24114   1.685   5.427   7.662  0.4340  0.2729  0.2029
 7633SOL    HW124115   1.749   5.471   7.718 -1.1967  1.5360  1.2080
 7633SOL    HW224116   1.711   5.448   7.573  0.3626  2.4143  0.6393
 7634SOL     OW24117   1.731   5.007   6.834 -0.1506  0.4874 -0.3783
 7634SOL    HW124118   1.686   4.922   6.833  0.9016 -0.0988 -0.0656
 7634SOL    HW224119   1.763   5.018   6.745  0.7641 -0.0459 -0.1288
 7635SOL     OW24120   2.629   4.979   7.800  0.1385 -0.1190 -0.2056
 7635SOL    HW124121   2.613   5.000   7.707  0.6120  1.6437  0.0722
 7635SOL    HW224122   2.543   4.988   7.841  0.3131  1.3817 -0.1067
 7636SOL     OW24123   3.646   4.018   6.845  0.0846 -0.5501 -0.7191
 7636SOL    HW124124   3.663   4.046   6.755  0.8167  0.9807 -0.1451
 7636SOL    HW224125   3.710   3.948   6.860  0.1727 -0.6005 -1.2910
 7637SOL     OW24126   2.363   4.229   6.739 -0.4011 -0.0096 -0.8123
 7637SOL    HW124127   2.408   4.181   6.670 -0.6885 -2.3700  0.5339
 7637SOL    HW224128   2.416   4.307   6.753  3.0360 -2.3136  0.2379
 7638SOL     OW24129   2.501   4.522   7.098 -0.5555 -0.4406 -0.6305
 7638SOL    HW124130   2.449   4.561   7.028  0.0183 -1.8297 -1.9026
 7638SOL    HW224131   2.559   4.460   7.053  0.5776 -0.6193  0.9761
 7639SOL     OW24132   2.634   5.567   6.242 -0.2551 -0.1960 -0.1754
 7639SOL    HW124133   2.618   5.519   6.161 -2.2989 -0.1990  0.1623
 7639SOL    HW224134   2.594   5.513   6.310 -2.0567  1.5996  0.2873
 7640SOL     OW24135   3.341   4.264   6.893  0.0537  0.0168  0.1937
 7640SOL    HW124136   3.329   4.335   6.829  0.0834  0.9545  1.2067
 7640SOL    HW224137   3.424   4.284   6.936 -1.0156  0.6442  2.0515
 7641SOL     OW24138   3.185   3.821   6.739 -0.2584  0.4180  0.0576
 7641SOL    HW124139   3.098   3.855   6.718 -0.9896  0.0502  2.2004
 7641SOL    HW224140   3.219   3.883   6.803  0.9762  0.4100 -0.5659
 7642SOL     OW24141   2.415   5.192   6.570  0.0179  0.1840  0.1809
 7642SOL    HW124142   2.433   5.132   6.642 -0.6475  1.0859  1.1353
 7642SOL    HW224143   2.493   5.189   6.515  0.4668 -0.6496  0.8521
 7643SOL     OW24144   2.400   5.594   7.084  0.0399  0.3574  0.1141
 7643SOL    HW124145   2.386   5.547   7.166  0.4161  1.7200  0.9886
 7643SOL    HW224146   2.387   5.686   7.107  1.9390  0.9291 -0.9489
 7644SOL     OW24147   2.919   4.379   5.660  0.0437 -0.2922 -0.1555
 7644SOL    HW124148   2.947   4.469   5.677  0.7167 -0.1073 -2.0610
 7644SOL    HW224149   2.916   4.339   5.747 -1.4439  1.8648  0.8740
 7645SOL     OW24150   3.536   4.189   6.372  0.2914 -0.4000  0.3154
 7645SOL    HW124151   3.556   4.279   6.346 -2.3359 -0.1055 -0.9712
 7645SOL    HW224152   3.512   4.145   6.291 -0.5944 -1.6528  1.2143
 7646SOL     OW24153   3.509   4.007   6.167 -0.2891  0.1771  0.3034
 7646SOL    HW124154   3.509   4.024   6.072 -0.1199 -2.1256 -0.1604
 7646SOL    HW224155   3.598   3.980   6.187 -0.3138  0.6871  1.1471
 7647SOL     OW24156   2.375   4.611   6.255  0.4623 -0.2300  0.2064
 7647SOL    HW124157   2.375   4.598   6.160  1.0039  0.9191  0.0412
 7647SOL    HW224158   2.289   4.580   6.283  0.0052  0.1320 -0.7594
 7648SOL     OW24159   2.808   5.933   5.506  0.4081 -0.3387 -0.3994
 7648SOL    HW124160   2.834   5.906   5.594  1.2151 -0.3648 -0.6404
 7648SOL    HW224161   2.889   5.933   5.456 -0.1736 -1.2262 -1.3826
 7649SOL     OW24162   1.889   4.026   7.828  0.3312 -0.3655 -0.3211
 7649SOL    HW124163   1.967   4.044   7.880  0.0086  0.5888 -0.1294
 7649SOL    HW224164   1.835   3.970   7.884  0.0331  0.5707  0.3533
 7650SOL     OW24165   1.853   4.047   8.788  0.0309  0.0691 -0.6023
 7650SOL    HW124166   1.941   4.082   8.774  0.0083 -0.4045 -2.1609
 7650SOL    HW224167   1.795   4.114   8.752 -0.0934 -0.6946 -1.9108
 7651SOL     OW24168   2.041   4.024   8.215  0.4065 -0.3331  0.1481
 7651SOL    HW124169   1.968   4.066   8.260  1.9683  1.8636  0.7871
 7651SOL    HW224170   2.044   4.065   8.129  1.3370  0.1768  0.4061
 7652SOL     OW24171   2.124   4.786   8.203  0.3009 -0.5451  0.0088
 7652SOL    HW124172   2.182   4.746   8.268  0.7406 -0.0263 -0.0561
 7652SOL    HW224173   2.168   4.773   8.120  0.6588  0.4286  0.0317
 7653SOL     OW24174   3.068   5.723   8.579  0.4203  0.4663  0.3110
 7653SOL    HW124175   3.053   5.647   8.522 -2.4150  0.4909  0.8842
 7653SOL    HW224176   3.153   5.706   8.619 -0.3905 -2.8079  0.9483
 7654SOL     OW24177   2.511   4.055   8.539 -0.6495 -0.2667  0.6688
 7654SOL    HW124178   2.493   4.009   8.458 -0.9488 -0.4027  0.8100
 7654SOL    HW224179   2.449   4.018   8.602 -2.3040  1.6729  0.3083
 7655SOL     OW24180   3.556   4.064   7.630 -0.2704 -0.3444 -0.2066
 7655SOL    HW124181   3.602   3.996   7.582 -1.1519  0.4977 -2.3755
 7655SOL    HW224182   3.509   4.018   7.699  1.7935 -1.4887  0.5269
 7656SOL     OW24183   2.507   4.843   0.019 -0.2277  0.5929  0.5284
 7656SOL    HW124184   2.459   4.926   0.021  0.2490  0.9332 -1.0278
 7656SOL    HW224185   2.583   4.860  -0.036  0.6242 -0.5151  1.3134
 7657SOL     OW24186   2.475   4.767   8.399 -0.6693 -0.0978 -0.1995
 7657SOL    HW124187   2.518   4.710   8.462  0.3947 -0.8424 -1.5337
 7657SOL    HW224188   2.392   4.724   8.379 -0.6363 -0.2839  0.0682
 7658SOL     OW24189   2.160   5.275   8.703  0.1433 -0.2543 -0.4262
 7658SOL    HW124190   2.215   5.321   8.639 -1.8951 -1.4132 -3.2373
 7658SOL    HW224191   2.079   5.256   8.656 -0.7153 -3.0914  1.8599
 7659SOL     OW24192   2.583   4.223   0.260 -0.1648  0.4294  0.8218
 7659SOL    HW124193   2.515   4.289   0.271 -0.5837  0.8142 -2.7260
 7659SOL    HW224194   2.652   4.248   0.321 -2.0844  1.5356  2.6707
 7660SOL     OW24195   3.112   4.253   8.329  0.5966 -0.5569  0.0571
 7660SOL    HW124196   3.089   4.282   8.417 -0.7643 -2.2553  0.3214
 7660SOL    HW224197   3.179   4.186   8.342  0.9087 -0.3143 -0.2670
 7661SOL     OW24198   2.280   5.412   8.506  0.4863 -0.1160  0.3426
 7661SOL    HW124199   2.284   5.342   8.440  0.5844 -1.1358  1.3880
 7661SOL    HW224200   2.317   5.488   8.462  2.9642 -1.4192 -0.0090
 7662SOL     OW24201   2.373   4.966   7.919 -0.1288  0.3727  0.3805
 7662SOL    HW124202   2.409   4.913   7.990  0.6419 -0.8274 -0.8560
 7662SOL    HW224203   2.279   4.946   7.920 -0.0738  0.1118  0.8518
 7663SOL     OW24204   1.761   4.314   8.685  0.2612  0.0486 -0.2182
 7663SOL    HW124205   1.740   4.396   8.640  2.3778  1.0907  0.5779
 7663SOL    HW224206   1.773   4.338   8.776 -1.5045 -1.6173  0.5371
 7664SOL     OW24207   2.529   5.493   8.632 -0.3667 -0.5587  0.4251
 7664SOL    HW124208   2.492   5.576   8.661  1.8831 -0.1353  2.3971
 7664SOL    HW224209   2.453   5.441   8.604 -1.9050  1.7958 -0.0245
 7665SOL     OW24210   2.348   4.100   7.797 -0.2706 -0.4372  0.0560
 7665SOL    HW124211   2.331   4.112   7.704 -0.1895  1.1797  0.2221
 7665SOL    HW224212   2.379   4.185   7.827 -0.8965 -0.7447  1.6978
 7666SOL     OW24213   2.211   4.284   8.181  0.7432  0.2576  0.4119
 7666SOL    HW124214   2.125   4.327   8.191  0.5569 -0.3374  1.5718
 7666SOL    HW224215   2.271   4.340   8.231  0.5021 -0.7742  1.9176
 7667SOL     OW24216   3.763   5.381   7.649  0.4117  0.3071  0.3417
 7667SOL    HW124217   3.809   5.462   7.629  0.2965  0.1500 -0.6135
 7667SOL    HW224218   3.829   5.323   7.686  0.5862  0.6972  0.6318
 7668SOL     OW24219   1.609   5.037   7.680  0.4024 -0.4386  0.2598
 7668SOL    HW124220   1.583   5.129   7.685  2.5227  0.1465  2.4634
 7668SOL    HW224221   1.548   4.991   7.738 -0.7031 -0.4764 -0.8986
 7669SOL     OW24222   3.631   4.784   8.335 -0.5891 -0.1001 -0.6335
 7669SOL    HW124223   3.572   4.777   8.259 -0.5017 -0.7653 -0.6424
 7669SOL    HW224224   3.572   4.801   8.409 -0.5497  2.4916 -1.0901
 7670SOL     OW24225   3.708   4.727   7.928 -0.4178  0.1145  0.2513
 7670SOL    HW124226   3.781   4.667   7.943  0.4220  1.2791  1.0222
 7670SOL    HW224227   3.659   4.687   7.857  0.2019 -1.3868  0.6207
 7671SOL     OW24228   2.472   4.830   8.144  0.4397  0.1280  0.6297
 7671SOL    HW124229   2.556   4.799   8.111  1.0069 -1.3456  3.1970
 7671SOL    HW224230   2.467   4.796   8.233 -2.8828  0.1694  0.5861
 7672SOL     OW24231   2.923   3.576   7.921  0.2226  0.4998  1.0801
 7672SOL    HW124232   2.843   3.558   7.871  1.5024 -1.7231 -0.3377
 7672SOL    HW224233   2.985   3.607   7.855  0.6641  1.8564  2.0978
 7673SOL     OW24234   1.849   5.250   8.788  0.2054  0.6710  0.3427
 7673SOL    HW124235   1.901   5.203   8.853 -0.2328 -1.2569 -0.6175
 7673SOL    HW224236   1.896   5.237   8.706 -1.5592 -0.8506 -0.4912
 7674SOL     OW24237   3.571   4.299   7.488 -0.0639 -0.4580 -0.5045
 7674SOL    HW124238   3.638   4.269   7.426 -0.0052 -1.5745  0.0768
 7674SOL    HW224239   3.566   4.229   7.553 -1.2604 -0.0326 -0.1224
 7675SOL     OW24240   3.082   4.898   8.595 -0.1478 -0.5577  0.4996
 7675SOL    HW124241   3.063   4.832   8.662 -0.6668  0.1339  1.0524
 7675SOL    HW224242   3.098   4.848   8.516 -0.4777 -1.3528  0.9253
 7676SOL     OW24243   3.210   5.858   8.178  0.0899 -0.2770 -0.5846
 7676SOL    HW124244   3.273   5.787   8.195  0.7362  0.4639  0.2514
 7676SOL    HW224245   3.214   5.872   8.084  0.5889 -0.7842 -0.6454
 7677SOL     OW24246   2.664   3.607   8.514  0.1795 -0.3107 -0.7041
 7677SOL    HW124247   2.739   3.658   8.486  0.7401 -0.0755  1.0743
 7677SOL    HW224248   2.594   3.632   8.454  1.1399  0.5374 -1.5070
 7678SOL     OW24249   3.137   4.557   8.325 -0.1056  0.3512  0.0965
 7678SOL    HW124250   3.096   4.508   8.396 -0.6523  1.0947  0.3039
 7678SOL    HW224251   3.132   4.649   8.352  0.3639  0.5791 -0.5543
 7679SOL     OW24252   3.443   5.698   8.262 -0.4511 -0.0957 -0.8083
 7679SOL    HW124253   3.471   5.741   8.343 -0.5468 -0.1899 -0.7238
 7679SOL    HW224254   3.524   5.679   8.216 -0.2799 -1.5056  0.0178
 7680SOL     OW24255   2.384   4.404   0.270 -0.4674 -0.2184  0.0597
 7680SOL    HW124256   2.302   4.425   0.314 -0.2239 -1.3723  1.1274
 7680SOL    HW224257   2.429   4.488   0.263 -0.2205 -0.0419  2.7114
 7681SOL     OW24258   3.075   4.161   0.181  0.4548  0.0201  0.0910
 7681SOL    HW124259   3.155   4.127   0.142  1.7427  2.5424  0.2739
 7681SOL    HW224260   3.085   4.146   0.275 -0.0248 -1.0136 -0.0111
 7682SOL     OW24261   2.729   4.118   8.133 -0.3320  0.6376  0.4007
 7682SOL    HW124262   2.744   4.046   8.195  0.4200  0.4349 -0.0044
 7682SOL    HW224263   2.800   4.110   8.069 -0.9569  1.0005 -0.3484
 7683SOL     OW24264   1.965   4.459   8.160 -0.2325  0.2384 -0.1122
 7683SOL    HW124265   1.890   4.433   8.108  1.6658 -0.5696 -2.6391
 7683SOL    HW224266   2.005   4.531   8.111 -0.0387  1.5950  1.8775
 7684SOL     OW24267   1.922   5.945   0.477  0.2193  0.1277  0.2762
 7684SOL    HW124268   1.934   5.930   0.384  0.2371  1.2363  0.0867
 7684SOL    HW224269   1.832   5.978   0.485  0.0485 -0.4316  0.7089
 7685SOL     OW24270   2.659   3.597   7.088  0.1701 -0.0688 -0.1239
 7685SOL    HW124271   2.724   3.553   7.035 -2.1579 -0.2406 -3.0869
 7685SOL    HW224272   2.661   3.688   7.058  1.2783  0.7693  2.2017
 7686SOL     OW24273   3.335   5.046   8.344  0.0865  0.7921 -0.1980
 7686SOL    HW124274   3.400   5.106   8.307  0.8650 -0.7864 -1.5228
 7686SOL    HW224275   3.387   4.971   8.375 -0.8916  0.5863  1.0396
 7687SOL     OW24276   2.056   3.471   0.020  0.1222 -0.2317 -0.6451
 7687SOL    HW124277   2.015   3.498  -0.062 -1.2061  0.0652  0.0858
 7687SOL    HW224278   2.068   3.376   0.011 -1.3925 -0.4493 -0.6373
 7688SOL     OW24279   3.128   4.847   8.308  0.1709  0.0691 -0.3647
 7688SOL    HW124280   3.076   4.855   8.228 -0.7502  2.2573  0.3768
 7688SOL    HW224281   3.173   4.931   8.315  1.6882 -0.7705  0.4907
 7689SOL     OW24282   2.164   5.021   8.365  0.5550 -0.3111 -0.6779
 7689SOL    HW124283   2.173   4.984   8.277  1.4668 -1.7283 -0.0217
 7689SOL    HW224284   2.231   5.090   8.368 -0.7572  1.0670 -1.7078
 7690SOL     OW24285   3.498   5.198   8.203 -0.3618  0.0987  0.1454
 7690SOL    HW124286   3.523   5.165   8.117  2.0795 -0.8653  1.1397
 7690SOL    HW224287   3.474   5.289   8.188  1.7076  0.4684 -1.3662
 7691SOL     OW24288   2.120   4.107   7.976  0.3699  0.1112  0.1325
 7691SOL    HW124289   2.181   4.095   7.903  0.8834 -0.3698  0.6297
 7691SOL    HW224290   2.157   4.179   8.026  0.6009 -0.2587  0.5000
 7692SOL     OW24291   2.694   4.420   7.998 -0.1982  0.1618 -0.3864
 7692SOL    HW124292   2.730   4.463   8.075 -1.0523  1.1326 -0.4993
 7692SOL    HW224293   2.767   4.415   7.936 -0.1834  1.9860 -0.5757
 7693SOL     OW24294   2.924   4.833   8.092 -0.1487 -0.2987 -0.6560
 7693SOL    HW124295   2.876   4.915   8.090  1.4630  0.7865  1.1507
 7693SOL    HW224296   2.970   4.830   8.008 -1.1258  0.0548 -1.2152
 7694SOL     OW24297   3.058   4.869   7.825 -0.0309  0.0963 -0.0222
 7694SOL    HW124298   3.138   4.878   7.774  0.8278 -2.0686  0.8366
 7694SOL    HW224299   2.999   4.819   7.769  0.3101 -0.8312  0.4184
 7695SOL     OW24300   2.423   5.226   7.899  0.7354 -0.3721 -0.2868
 7695SOL    HW124301   2.395   5.135   7.909  0.0122 -0.2036 -0.6998
 7695SOL    HW224302   2.416   5.244   7.805 -3.1154  1.3124  0.1341
 7696SOL     OW24303   3.371   4.015   7.806  0.7667 -0.3117  0.3408
 7696SOL    HW124304   3.303   4.080   7.791  0.0237 -1.0428  0.5141
 7696SOL    HW224305   3.376   4.007   7.901 -0.1771 -1.5581  0.3100
 7697SOL     OW24306   2.141   5.571   0.041  0.1671  0.1471 -0.0899
 7697SOL    HW124307   2.047   5.559   0.028 -0.5866  1.4984  3.1329
 7697SOL    HW224308   2.170   5.489   0.082  0.1584  0.1593 -0.0597
 7698SOL     OW24309   3.182   5.268   8.333  0.4758 -0.4022 -0.3283
 7698SOL    HW124310   3.115   5.230   8.276 -0.5871  1.0730 -0.1258
 7698SOL    HW224311   3.233   5.193   8.363 -1.1074 -1.5866 -0.4604
 7699SOL     OW24312   2.745   3.797   8.125  0.1626  0.3618  0.6093
 7699SOL    HW124313   2.719   3.844   8.045  1.4326  1.9900  1.0935
 7699SOL    HW224314   2.664   3.758   8.157 -0.0448 -2.3198 -2.6297
 7700SOL     OW24315   2.397   3.858   7.336  0.5597  0.2580 -0.4176
 7700SOL    HW124316   2.320   3.871   7.392 -0.1138  0.3688 -1.3362
 7700SOL    HW224317   2.377   3.778   7.287  0.0995  1.3752 -2.1276
 7701SOL     OW24318   2.410   5.096   8.831 -0.7556 -0.3813  0.1330
 7701SOL    HW124319   2.476   5.163   8.849 -0.6545 -0.8432  1.6811
 7701SOL    HW224320   2.328   5.133   8.864 -0.7095 -0.9602  0.9454
 7702SOL     OW24321   2.717   4.943   8.549  0.6596 -0.4430 -0.3463
 7702SOL    HW124322   2.782   4.988   8.494 -0.2763 -0.0508 -1.1743
 7702SOL    HW224323   2.768   4.903   8.619  1.7193  0.4544 -0.5701
 7703SOL     OW24324   2.521   4.138   0.002 -0.1120 -0.4439  0.3434
 7703SOL    HW124325   2.587   4.079  -0.032  1.5193  1.1239  0.6082
 7703SOL    HW224326   2.555   4.167   0.087 -1.4882 -0.1447  0.8267
 7704SOL     OW24327   2.410   3.598   7.629  0.3140 -0.4048 -0.1856
 7704SOL    HW124328   2.472   3.668   7.610  0.4863 -0.6586 -0.5787
 7704SOL    HW224329   2.432   3.570   7.718  0.2168  0.0614 -0.0107
 7705SOL     OW24330   3.208   4.452   7.913  0.1295 -0.3128 -0.1458
 7705SOL    HW124331   3.269   4.484   7.979  1.1971 -3.2307  0.4371
 7705SOL    HW224332   3.262   4.432   7.836  0.0200 -2.7384  0.3042
 7706SOL     OW24333   2.010   3.254   7.572 -0.1554 -0.6475 -0.2243
 7706SOL    HW124334   2.100   3.281   7.586 -0.7184  3.2715 -2.5246
 7706SOL    HW224335   1.958   3.326   7.608 -2.1145 -0.4961 -3.0346
 7707SOL     OW24336   2.678   3.502   7.823 -0.0098  0.3696 -0.4194
 7707SOL    HW124337   2.640   3.420   7.793  2.7435 -0.7396 -1.1550
 7707SOL    HW224338   2.696   3.551   7.742 -0.2833  1.0850 -0.0575
 7708SOL     OW24339   2.983   5.813   8.322 -0.1272  0.1332 -0.0163
 7708SOL    HW124340   3.061   5.809   8.267 -0.9494  0.2190 -1.2534
 7708SOL    HW224341   3.013   5.791   8.410  1.2072 -0.2139 -0.5412
 7709SOL     OW24342   2.253   4.635   8.396  0.1191 -0.1708  0.4975
 7709SOL    HW124343   2.171   4.598   8.428 -0.4436 -0.3143 -1.0125
 7709SOL    HW224344   2.316   4.563   8.402 -1.1196 -1.7769 -3.0230
 7710SOL     OW24345   2.628   5.926   7.773 -0.1706 -0.2762  0.2336
 7710SOL    HW124346   2.704   5.947   7.826 -0.1019  1.3702 -0.4521
 7710SOL    HW224347   2.633   5.831   7.760  0.4067 -0.5608  2.1918
 7711SOL     OW24348   2.683   3.811   7.315  0.0670  0.2333  0.2795
 7711SOL    HW124349   2.678   3.737   7.255 -1.2787  0.7951 -0.3370
 7711SOL    HW224350   2.621   3.790   7.384  0.5580  0.2585  0.7414
 7712SOL     OW24351   2.308   3.978   0.045  0.4172  0.2527 -0.1774
 7712SOL    HW124352   2.371   4.048   0.029  2.0141 -0.6979  1.5111
 7712SOL    HW224353   2.310   3.925  -0.035  1.2108  0.6536 -0.4328
 7713SOL     OW24354   2.352   3.875   8.651  0.4236 -0.3042 -0.0344
 7713SOL    HW124355   2.367   3.785   8.623  0.4517 -1.1627  2.5110
 7713SOL    HW224356   2.298   3.913   8.582  0.2601 -2.3076 -1.0801
 7714SOL     OW24357   2.867   3.732   8.356  0.3499  0.1805  0.3311
 7714SOL    HW124358   2.843   3.753   8.265  0.5032  1.9433  0.6652
 7714SOL    HW224359   2.963   3.723   8.353  0.4945  1.4437  0.5077
 7715SOL     OW24360   3.071   5.483   8.449 -0.1002 -0.0625 -0.1120
 7715SOL    HW124361   2.991   5.445   8.485 -0.7497  1.2203 -0.1219
 7715SOL    HW224362   3.099   5.422   8.382 -2.2004  0.3940 -1.4991
 7716SOL     OW24363   2.858   4.581   8.171 -0.0063  0.5299 -0.1943
 7716SOL    HW124364   2.868   4.675   8.158  0.4274  0.2007 -2.7309
 7716SOL    HW224365   2.943   4.552   8.202  0.1825  0.8299 -0.4213
 7717SOL     OW24366   3.741   4.235   8.035 -0.0814  0.1100  0.3219
 7717SOL    HW124367   3.659   4.279   8.054  0.5440  1.7394 -0.5714
 7717SOL    HW224368   3.746   4.165   8.100 -2.1829 -0.0740  0.3399
 7718SOL     OW24369   2.098   4.935   7.925 -0.0043  0.1002  0.0166
 7718SOL    HW124370   2.047   4.979   7.857 -0.4264 -0.9315 -0.3432
 7718SOL    HW224371   2.053   4.852   7.940  0.5539 -0.0496  0.9742
 7719SOL     OW24372   3.830   5.191   8.124  0.8571 -0.4673 -0.3149
 7719SOL    HW124373   3.914   5.155   8.096  0.6788  0.9875 -3.1713
 7719SOL    HW224374   3.773   5.179   8.048 -0.3132  2.1097  0.0524
 7720SOL     OW24375   2.848   3.996   7.062  0.4404 -0.4631 -0.1272
 7720SOL    HW124376   2.764   3.957   7.040  0.1177 -0.3853  0.9311
 7720SOL    HW224377   2.902   3.922   7.089 -0.1758 -0.2317  1.8938
 7721SOL     OW24378   2.541   3.823   7.585 -0.4352 -0.2856  0.1378
 7721SOL    HW124379   2.538   3.851   7.677 -1.3149 -0.0539  0.0501
 7721SOL    HW224380   2.498   3.894   7.537 -3.0095 -1.8431 -0.0527
 7722SOL     OW24381   3.410   4.866   0.039 -0.4955  0.3698 -0.3669
 7722SOL    HW124382   3.486   4.862   0.097 -0.9596 -0.4016  0.2096
 7722SOL    HW224383   3.375   4.954   0.052 -0.3578  0.3417  0.2367
 7723SOL     OW24384   3.001   4.476   8.560  0.3000  0.1916  0.3412
 7723SOL    HW124385   2.922   4.493   8.612 -0.5149  1.4506 -1.2244
 7723SOL    HW224386   3.073   4.481   8.624 -0.8419 -0.7774  1.7602
 7724SOL     OW24387   3.524   4.905   8.559  0.5206  0.1439  0.5254
 7724SOL    HW124388   3.468   4.829   8.574  1.5709 -0.8771 -0.5135
 7724SOL    HW224389   3.473   4.979   8.593 -1.2126 -0.7956  0.1066
 7725SOL     OW24390   2.748   4.443   8.393 -0.4206  0.2240  0.0683
 7725SOL    HW124391   2.827   4.454   8.446  0.5163 -1.8819 -0.7670
 7725SOL    HW224392   2.774   4.472   8.305 -0.4217 -0.8427 -0.2982
 7726SOL     OW24393   1.744   4.804   8.425 -0.5872 -0.8064  0.2325
 7726SOL    HW124394   1.813   4.767   8.479 -0.8376 -1.3985  0.1482
 7726SOL    HW224395   1.713   4.880   8.474 -1.3282 -1.7694  1.2691
 7727SOL     OW24396   2.881   4.239   8.831 -0.2216  0.1780  0.0630
 7727SOL    HW124397   2.882   4.165   8.769 -1.1945  1.5790 -1.7441
 7727SOL    HW224398   2.941   4.213   8.900  0.6850 -1.6298 -1.3025
 7728SOL     OW24399   2.045   5.186   0.156  0.0356 -0.4491  0.6788
 7728SOL    HW124400   2.013   5.263   0.205  0.4276  0.7901 -0.9207
 7728SOL    HW224401   2.110   5.222   0.096  0.7025 -2.1649  0.3280
 7729SOL     OW24402   2.091   4.528   7.695  0.0889  0.1867  0.0794
 7729SOL    HW124403   2.182   4.498   7.705  1.0887  2.9044 -0.1454
 7729SOL    HW224404   2.039   4.447   7.698  2.3604 -1.3440  1.6830
 7730SOL     OW24405   2.187   3.960   8.448 -0.0800 -0.0821  0.2955
 7730SOL    HW124406   2.163   3.963   8.355  0.1180 -0.4226  0.2303
 7730SOL    HW224407   2.178   4.050   8.478  0.4900  0.1608 -0.2201
 7731SOL     OW24408   2.860   5.033   8.327  0.3802 -0.8044  1.1069
 7731SOL    HW124409   2.946   5.061   8.297  0.1213  0.9071  1.8175
 7731SOL    HW224410   2.799   5.092   8.283 -0.5249 -2.5285 -0.0284
 7732SOL     OW24411   3.100   4.692   8.775 -0.3900  0.1252 -0.5412
 7732SOL    HW124412   3.037   4.625   8.803  0.0410 -0.3206 -0.6271
 7732SOL    HW224413   3.178   4.642   8.750  1.1224  0.8202  2.4502
 7733SOL     OW24414   3.071   4.215   8.054  0.6305 -0.4752  0.2627
 7733SOL    HW124415   3.069   4.250   8.143 -3.1829 -1.3508  0.7055
 7733SOL    HW224416   3.113   4.284   8.003 -0.6897  1.9186  2.1421
 7734SOL     OW24417   2.273   5.338   0.126  0.2822 -0.5143 -0.1669
 7734SOL    HW124418   2.355   5.357   0.081  0.7526 -1.4525  0.2780
 7734SOL    HW224419   2.285   5.374   0.214  0.1896 -0.5780 -0.1281
 7735SOL     OW24420   2.565   4.612   0.145 -0.9081  0.2408 -0.1334
 7735SOL    HW124421   2.660   4.617   0.157 -0.6958 -1.7522 -0.6140
 7735SOL    HW224422   2.542   4.696   0.104  0.2925  1.6010  1.8324
 7736SOL     OW24423   3.320   5.061   8.663  0.0665  0.0755 -0.8596
 7736SOL    HW124424   3.269   5.093   8.738 -0.3475 -1.5122 -0.4255
 7736SOL    HW224425   3.255   5.022   8.605  0.5440  0.1195 -1.4331
 7737SOL     OW24426   3.074   4.004   7.602 -0.1393 -0.9449 -0.4024
 7737SOL    HW124427   3.166   4.027   7.587  0.9963 -2.9267  2.4956
 7737SOL    HW224428   3.051   3.950   7.526  1.3592 -1.0451 -0.8321
 7738SOL     OW24429   2.095   4.106   0.373  0.4285  0.2256  0.1792
 7738SOL    HW124430   2.123   4.188   0.415 -2.1514  2.0078 -1.3288
 7738SOL    HW224431   2.128   4.113   0.284  0.8636 -0.8086  0.2471
 7739SOL     OW24432   1.526   5.273   8.806 -0.4724 -0.0077  0.0923
 7739SOL    HW124433   1.620   5.254   8.800 -0.2218  0.7205  1.3929
 7739SOL    HW224434   1.521   5.355   8.854 -1.7031  1.2212 -2.0057
 7740SOL     OW24435   2.364   4.695   8.683  0.2571  0.2846 -0.4861
 7740SOL    HW124436   2.422   4.744   8.741  0.5308 -1.4404  0.7864
 7740SOL    HW224437   2.320   4.762   8.630  1.9140  1.7556 -0.0994
 7741SOL     OW24438   2.269   3.683   7.894  0.5831  0.1541 -0.1388
 7741SOL    HW124439   2.307   3.742   7.829  0.6091 -1.2302 -1.4315
 7741SOL    HW224440   2.326   3.606   7.894  1.2562  0.5611  2.3930
 7742SOL     OW24441   3.186   4.222   7.723 -0.9122 -0.3037  0.0970
 7742SOL    HW124442   3.183   4.289   7.654  2.0670  0.5552  0.6672
 7742SOL    HW224443   3.113   4.164   7.702 -1.1103  0.7954 -2.8443
 7743SOL     OW24444   2.537   4.400   8.777  0.0717 -0.4753  0.1245
 7743SOL    HW124445   2.493   4.448   8.847 -0.9532 -1.9504  0.5415
 7743SOL    HW224446   2.528   4.308   8.801  2.0975 -0.9214 -0.5605
 7744SOL     OW24447   3.030   3.837   7.792 -0.0987  0.1985  0.0002
 7744SOL    HW124448   3.034   3.907   7.726 -0.0336  1.2302  1.0720
 7744SOL    HW224449   3.100   3.776   7.766  1.1076  1.4821  0.0783
 7745SOL     OW24450   3.024   4.186   7.128 -0.6770 -0.0994 -0.1912
 7745SOL    HW124451   2.945   4.140   7.098  0.1249 -0.0007 -2.6930
 7745SOL    HW224452   3.075   4.119   7.173 -0.7253 -1.0237 -1.4516
 7746SOL     OW24453   2.785   5.329   8.599 -0.3633 -0.1690 -0.5705
 7746SOL    HW124454   2.761   5.326   8.507  0.0577  0.7147 -0.7176
 7746SOL    HW224455   2.733   5.401   8.635  1.6755  1.5213 -0.8071
 7747SOL     OW24456   1.631   4.558   8.553 -0.2298 -0.3932  0.0538
 7747SOL    HW124457   1.681   4.622   8.501  0.2908 -1.7322 -1.1535
 7747SOL    HW224458   1.547   4.550   8.507 -0.5980 -0.0418  0.6413
 7748SOL     OW24459   2.116   4.232   8.552 -0.1705 -0.1595 -0.4204
 7748SOL    HW124460   2.184   4.299   8.559  0.3127 -0.6800 -0.0941
 7748SOL    HW224461   2.114   4.191   8.638 -1.6873  0.5859 -0.0629
 7749SOL     OW24462   2.927   3.551   0.021 -0.7380  0.4462 -0.3947
 7749SOL    HW124463   3.006   3.551  -0.034 -1.2173 -0.3354 -1.1233
 7749SOL    HW224464   2.871   3.619  -0.017 -0.6508  0.6027 -0.2417
 7750SOL     OW24465   2.206   4.779   7.595  0.0162 -0.0632  0.3153
 7750SOL    HW124466   2.201   4.702   7.652 -1.3580 -0.1598  0.0867
 7750SOL    HW224467   2.130   4.772   7.538  1.9429 -0.6242 -2.3904
 7751SOL     OW24468   2.023   5.568   8.569 -0.1385  0.3560  0.9535
 7751SOL    HW124469   1.980   5.574   8.654  1.6196  0.6218  1.8781
 7751SOL    HW224470   2.087   5.497   8.579 -0.5553 -0.2592 -0.4663
 7752SOL     OW24471   2.505   5.052   8.431  0.2136 -0.6271  0.3839
 7752SOL    HW124472   2.578   5.020   8.485 -0.6173 -1.5135  0.9912
 7752SOL    HW224473   2.482   4.978   8.375  1.0700  0.2809 -1.2554
 7753SOL     OW24474   3.041   4.478   0.194 -0.1165  0.5128  0.2365
 7753SOL    HW124475   3.115   4.518   0.240  1.4449  0.1749 -1.8565
 7753SOL    HW224476   3.042   4.386   0.222  1.6353 -0.0001 -1.3335
 7754SOL     OW24477   2.115   4.612   8.826  0.7491 -0.4058 -0.6473
 7754SOL    HW124478   2.140   4.703   8.838  0.7896 -0.4470 -0.4214
 7754SOL    HW224479   2.173   4.580   8.757  1.1199 -0.4233 -0.3247
 7755SOL     OW24480   2.380   4.330   8.523 -0.0105  0.4442 -0.6089
 7755SOL    HW124481   2.444   4.373   8.581 -0.6797  1.7213 -0.7681
 7755SOL    HW224482   2.428   4.259   8.481  0.2804 -1.1618  2.1989
 7756SOL     OW24483   3.333   4.117   8.436 -0.2691 -0.1715 -0.1111
 7756SOL    HW124484   3.330   4.023   8.454 -1.4975 -0.3064 -0.8963
 7756SOL    HW224485   3.418   4.132   8.396  0.0602 -0.8853  0.3015
 7757SOL     OW24486   1.844   3.795   8.641  0.5025  0.5630 -0.6457
 7757SOL    HW124487   1.800   3.855   8.580  0.3375  0.2091 -0.8742
 7757SOL    HW224488   1.895   3.853   8.698 -1.9535  1.1991  1.0895
 7758SOL     OW24489   2.739   5.882   8.547  0.8588 -0.2449  0.1097
 7758SOL    HW124490   2.730   5.847   8.458 -0.6503  0.6059 -0.1155
 7758SOL    HW224491   2.655   5.861   8.589  0.1802  2.2924  0.2047
 7759SOL     OW24492   2.479   3.880   7.867  0.5669  0.8588  0.3916
 7759SOL    HW124493   2.428   3.958   7.846 -0.5970  0.0878  0.2379
 7759SOL    HW224494   2.566   3.913   7.889 -0.4349  2.4046  2.4164
 7760SOL     OW24495   1.778   4.955   0.179 -0.8834 -0.5035 -0.0520
 7760SOL    HW124496   1.741   5.032   0.220 -1.8795 -0.7295 -0.4988
 7760SOL    HW224497   1.848   4.928   0.238  1.0533  2.0459 -1.0063
 7761SOL     OW24498   3.360   4.239   8.681  0.7540  0.6071  0.0311
 7761SOL    HW124499   3.456   4.247   8.679  0.7455  0.6787 -0.1227
 7761SOL    HW224500   3.339   4.186   8.605  0.6585  0.7338 -0.0315
 7762SOL     OW24501   3.420   4.344   7.792 -0.7047  0.6117 -0.3224
 7762SOL    HW124502   3.475   4.274   7.755 -0.3751  0.5139  0.3352
 7762SOL    HW224503   3.334   4.303   7.803 -0.7322  0.5600 -0.7226
 7763SOL     OW24504   3.417   5.607   0.114  0.3903  0.0235 -0.0778
 7763SOL    HW124505   3.412   5.668   0.188 -0.1720  0.2931 -0.3362
 7763SOL    HW224506   3.466   5.532   0.149 -1.6539 -0.7783  1.2263
 7764SOL     OW24507   2.826   4.837   8.774 -0.3857  0.4806 -0.3989
 7764SOL    HW124508   2.914   4.862   8.799  0.4234 -1.0945 -1.4487
 7764SOL    HW224509   2.806   4.759   8.827 -0.7581  0.2734 -0.8288
 7765SOL     OW24510   1.960   5.195   8.537  0.2184  0.6750 -0.9291
 7765SOL    HW124511   2.014   5.147   8.475  1.4116  1.9590 -0.9098
 7765SOL    HW224512   1.887   5.229   8.484  0.4512  0.5509 -1.3309
 7766SOL     OW24513   3.527   3.880   8.224 -0.1139  0.7540 -0.1413
 7766SOL    HW124514   3.596   3.940   8.250  0.8452  0.4844 -1.8877
 7766SOL    HW224515   3.477   3.928   8.157 -0.1427  0.1051 -0.5994
 7767SOL     OW24516   3.033   5.136   8.152  0.1440  0.4303  0.2069
 7767SOL    HW124517   2.990   5.087   8.083  0.6255 -0.0422  0.2329
 7767SOL    HW224518   3.087   5.200   8.106  2.8201 -1.8037 -0.0386
 7768SOL     OW24519   2.417   4.336   7.962 -0.2220  0.0773  0.0724
 7768SOL    HW124520   2.361   4.306   8.033 -1.1413  4.0656  1.2959
 7768SOL    HW224521   2.502   4.353   8.003 -0.1256  0.4087 -0.2523
 7769SOL     OW24522   2.345   4.636   8.005  0.4376  0.2877  0.2229
 7769SOL    HW124523   2.404   4.589   7.946  1.7297  1.0013  0.8880
 7769SOL    HW224524   2.396   4.713   8.033 -0.5938  0.6062  1.2983
 7770SOL     OW24525   3.858   3.639   8.338  0.1455  0.3856 -0.1799
 7770SOL    HW124526   3.930   3.582   8.312  0.6768  0.8487  0.2427
 7770SOL    HW224527   3.799   3.638   8.262 -0.5993 -1.8458  0.3634
 7771SOL     OW24528   2.500   3.723   8.246  0.1326  0.5737  0.1709
 7771SOL    HW124529   2.435   3.676   8.298 -0.9954 -0.0520 -1.6951
 7771SOL    HW224530   2.453   3.802   8.216 -0.6236 -0.9046 -2.9445
 7772SOL     OW24531   2.523   4.700   7.294 -0.1301 -0.2136  0.3639
 7772SOL    HW124532   2.495   4.635   7.229 -1.3406  0.8830 -0.2335
 7772SOL    HW224533   2.606   4.733   7.260 -1.3013  1.1853 -1.2932
 7773SOL     OW24534   2.608   4.638   0.431 -0.0568 -0.6191  0.1567
 7773SOL    HW124535   2.696   4.622   0.465 -0.9254 -1.9358  1.9427
 7773SOL    HW224536   2.615   4.624   0.337  1.9288  0.7436  0.0496
 7774SOL     OW24537   2.817   4.246   7.621  0.2947  0.3263  0.0931
 7774SOL    HW124538   2.784   4.335   7.611 -3.8053 -0.7311  1.8008
 7774SOL    HW224539   2.831   4.216   7.531 -2.0019  1.5481 -0.7619
 7775SOL     OW24540   3.655   5.100   7.924 -0.6861 -0.6272 -0.3122
 7775SOL    HW124541   3.576   5.125   7.875 -0.3005  0.1185 -0.5725
 7775SOL    HW224542   3.716   5.072   7.856 -0.5139 -0.5964 -0.1684
 7776SOL     OW24543   3.445   4.682   8.697  0.4759 -0.1100  0.2035
 7776SOL    HW124544   3.532   4.655   8.726  0.6508 -0.0208 -0.2255
 7776SOL    HW224545   3.419   4.751   8.757  0.6396 -0.2385  0.4230
 7777SOL     OW24546   2.637   4.731   7.954 -0.2434 -0.7310  1.1153
 7777SOL    HW124547   2.653   4.812   7.906 -0.0387 -1.7138 -0.5693
 7777SOL    HW224548   2.699   4.669   7.916 -2.2653 -2.4073  0.3783
 7778SOL     OW24549   2.697   3.944   8.799 -0.5272 -0.3227 -0.0118
 7778SOL    HW124550   2.761   3.960   8.729 -0.4023  0.8544  0.3448
 7778SOL    HW224551   2.674   3.852   8.789  0.3554 -0.4779 -0.8784
 7779SOL     OW24552   2.814   5.061   7.990  0.8330  0.4048 -0.3712
 7779SOL    HW124553   2.811   5.155   8.005  1.0801  0.2301  0.8678
 7779SOL    HW224554   2.745   5.045   7.925 -1.6005  0.9961  1.9207
 7780SOL     OW24555   3.425   3.668   0.047 -0.5206  0.5606 -0.1985
 7780SOL    HW124556   3.416   3.621  -0.036 -0.3416 -0.6014  0.4197
 7780SOL    HW224557   3.484   3.741   0.027 -0.9547  0.6550 -1.2213
 7781SOL     OW24558   1.718   5.183   8.111 -0.3324  0.1874  0.5655
 7781SOL    HW124559   1.746   5.203   8.201 -2.4741  1.2682  1.0811
 7781SOL    HW224560   1.707   5.088   8.110 -0.2981  0.1609  1.4726
 7782SOL     OW24561   2.558   4.485   0.765 -0.4103 -0.0113 -0.3085
 7782SOL    HW124562   2.642   4.525   0.787 -0.2375  0.0291 -1.0158
 7782SOL    HW224563   2.529   4.532   0.687 -0.3576 -1.0330 -0.9652
 7783SOL     OW24564   1.698   3.769   7.738  0.5794  0.0009  0.2998
 7783SOL    HW124565   1.639   3.779   7.663  1.2093  1.4076 -0.0414
 7783SOL    HW224566   1.639   3.754   7.812 -0.0467 -1.5563 -0.4675
 7784SOL     OW24567   1.967   3.770   7.427  0.0262 -0.0366  0.4136
 7784SOL    HW124568   1.970   3.683   7.388  0.9499  0.4322 -0.6318
 7784SOL    HW224569   2.004   3.758   7.515  2.5597 -0.3179 -0.5932
 7785SOL     OW24570   2.948   4.472   7.807 -0.8207  0.0853  0.2908
 7785SOL    HW124571   2.991   4.401   7.760  0.3387  0.5826  0.5784
 7785SOL    HW224572   3.013   4.502   7.870 -2.0417  0.0030  1.6448
 7786SOL     OW24573   2.334   4.711   0.316 -0.0336  0.3860  0.3085
 7786SOL    HW124574   2.418   4.740   0.279 -0.3236  0.4844 -0.2927
 7786SOL    HW224575   2.273   4.780   0.291 -0.7744 -0.7810 -1.2925
 7787SOL     OW24576   2.877   5.202   0.345 -0.1456  0.2930 -0.0914
 7787SOL    HW124577   2.859   5.109   0.348  2.3139 -0.2426  0.3089
 7787SOL    HW224578   2.887   5.222   0.252 -2.9660  0.7285 -0.3755
 7788SOL     OW24579   2.374   5.701   8.803  0.5967  0.4969  0.2103
 7788SOL    HW124580   2.287   5.663   8.793  0.9242  0.2459 -2.4165
 7788SOL    HW224581   2.407   5.665   8.885 -1.4228 -0.0572  0.8451
 7789SOL     OW24582   3.715   4.473   8.312 -0.1946 -0.2187 -0.0170
 7789SOL    HW124583   3.800   4.467   8.267 -0.0612 -1.8728  0.3866
 7789SOL    HW224584   3.695   4.567   8.311  0.8351  0.0452 -1.5796
 7790SOL     OW24585   2.771   3.910   7.848 -0.4919 -0.3445  0.0903
 7790SOL    HW124586   2.786   4.003   7.867 -0.7239 -0.1043 -0.8497
 7790SOL    HW224587   2.859   3.876   7.829 -0.6109  0.1346 -1.4375
 7791SOL     OW24588   2.009   4.470   8.426  0.2291 -0.9051  0.7009
 7791SOL    HW124589   2.020   4.378   8.453 -1.2341 -1.3065  0.0265
 7791SOL    HW224590   1.974   4.464   8.337  1.1311  0.3390  0.2468
 7792SOL     OW24591   3.664   4.612   8.837  0.0650 -0.1288 -0.1445
 7792SOL    HW124592   3.759   4.597   8.843 -0.0741 -0.9795 -0.0404
 7792SOL    HW224593   3.642   4.657   8.919 -0.0153 -2.1082  0.9708
 7793SOL     OW24594   2.496   4.691   7.590  0.3836  0.0858 -0.2793
 7793SOL    HW124595   2.455   4.769   7.628  1.8149  0.8127 -0.1415
 7793SOL    HW224596   2.489   4.702   7.496 -0.2662 -0.0979 -0.2541
 7794SOL     OW24597   2.320   5.226   8.321 -0.2118 -0.0198  0.4571
 7794SOL    HW124598   2.351   5.273   8.243 -0.6646  2.3918  1.6370
 7794SOL    HW224599   2.397   5.182   8.354  0.1152 -0.6323 -1.0301
 7795SOL     OW24600   2.804   4.502   8.759 -0.2457  0.1497  0.0219
 7795SOL    HW124601   2.709   4.504   8.760 -0.2493  0.0353  1.1868
 7795SOL    HW224602   2.827   4.414   8.788  0.2054  0.5051  0.7848
 7796SOL     OW24603   2.922   4.678   7.631  0.1177  0.0079  0.7296
 7796SOL    HW124604   2.852   4.624   7.596  0.1814 -0.0263  0.6528
 7796SOL    HW224605   2.958   4.627   7.703 -0.1541  0.1738  0.9816
 7797SOL     OW24606   3.496   5.567   8.535 -0.1695 -0.0650  0.3839
 7797SOL    HW124607   3.436   5.610   8.595 -0.6625 -0.8306  0.4592
 7797SOL    HW224608   3.537   5.498   8.587  1.7037  1.2052  0.6751
 7798SOL     OW24609   1.560   4.664   8.270 -0.5091 -0.2134  0.2973
 7798SOL    HW124610   1.576   4.696   8.181 -0.3946  0.2462  0.4839
 7798SOL    HW224611   1.600   4.729   8.327 -0.3084 -0.6631  0.6840
 7799SOL     OW24612   3.413   3.553   8.657  0.1166  0.3002 -0.3074
 7799SOL    HW124613   3.507   3.569   8.653  0.2828 -0.7283 -0.9751
 7799SOL    HW224614   3.384   3.556   8.566 -0.4516  0.3160 -0.1327
 7800SOL     OW24615   2.375   3.427   7.843 -0.4364  0.2692 -0.9598
 7800SOL    HW124616   2.308   3.389   7.786 -1.2449 -0.4312  0.4248
 7800SOL    HW224617   2.402   3.355   7.900 -1.5414  1.5627  1.2919
 7801SOL     OW24618   3.146   5.485   8.767 -0.0135 -0.2956  0.6638
 7801SOL    HW124619   3.204   5.482   8.843 -0.7972 -0.6551  1.2638
 7801SOL    HW224620   3.202   5.460   8.693 -0.0002 -3.3738  1.6075
 7802SOL     OW24621   2.108   4.115   8.804 -0.6257 -0.0032  0.0027
 7802SOL    HW124622   2.127   4.197   8.849 -0.0561 -0.3363  0.3865
 7802SOL    HW224623   2.163   4.050   8.849 -1.5113 -0.7042  0.1043
 7803SOL     OW24624   2.855   5.261   0.091 -0.4509  0.1338  0.0198
 7803SOL    HW124625   2.875   5.190   0.030 -0.2204  1.2956 -1.3266
 7803SOL    HW224626   2.881   5.341   0.044 -2.0169  1.2246  0.8949
 7804SOL     OW24627   3.330   3.861   0.265 -0.1899 -0.3693  0.1626
 7804SOL    HW124628   3.280   3.845   0.345 -1.3626 -0.7030 -0.6019
 7804SOL    HW224629   3.324   3.778   0.216  0.8933 -0.3229 -0.0785
 7805SOL     OW24630   2.871   3.946   8.563 -0.0915  0.1194  0.2545
 7805SOL    HW124631   2.841   4.034   8.538  1.8534  0.3013 -1.7888
 7805SOL    HW224632   2.839   3.890   8.493  1.1966 -0.2526 -0.0692
 7806SOL     OW24633   2.076   4.651   7.951 -0.2729  0.6167  0.3958
 7806SOL    HW124634   2.164   4.613   7.955 -0.8761 -0.7579  1.2226
 7806SOL    HW224635   2.038   4.616   7.871  0.0991  1.6158 -0.2273
 7807SOL     OW24636   2.266   4.949   8.602 -0.2147 -0.0136  0.4436
 7807SOL    HW124637   2.342   5.007   8.611  0.9736 -1.4762  0.3182
 7807SOL    HW224638   2.230   4.969   8.516  0.5401  0.1376  0.1539
 7808SOL     OW24639   3.345   3.785   7.630 -0.1913  0.4382  0.0645
 7808SOL    HW124640   3.361   3.834   7.711 -0.3668  0.8221 -0.1304
 7808SOL    HW224641   3.282   3.717   7.655 -0.2581  0.5652  0.2487
 7809SOL     OW24642   2.745   4.169   8.494 -0.1579  0.4252 -0.0299
 7809SOL    HW124643   2.668   4.133   8.538  0.6587 -0.4491  0.7470
 7809SOL    HW224644   2.719   4.257   8.468 -1.2175  0.3734  0.7750
 7810SOL     OW24645   3.129   3.852   8.479  0.1179  0.0704  0.1853
 7810SOL    HW124646   3.186   3.877   8.551  0.2289  4.2260 -1.0438
 7810SOL    HW224647   3.043   3.884   8.505  0.1823  1.7245 -1.4012
 7811SOL     OW24648   1.929   4.300   7.680 -0.0600  0.0319 -0.1878
 7811SOL    HW124649   1.915   4.223   7.735 -1.0755 -0.2506 -0.8084
 7811SOL    HW224650   1.867   4.289   7.608 -2.2982  2.8035  1.1269
 7812SOL     OW24651   2.681   5.307   8.356  0.1348 -0.1814  0.3884
 7812SOL    HW124652   2.620   5.243   8.393 -0.1900 -0.0086  0.1596
 7812SOL    HW224653   2.630   5.353   8.289 -0.2963  1.7506  1.9382
 7813SOL     OW24654   1.773   6.369   8.711  0.0628 -0.4816  0.6551
 7813SOL    HW124655   1.864   6.387   8.736  0.4379 -1.0133 -0.2876
 7813SOL    HW224656   1.753   6.437   8.647  0.6095 -1.7851 -0.9430
 7814SOL     OW24657   1.942   5.916   1.118  0.5232  0.0271  0.2070
 7814SOL    HW124658   1.979   5.935   1.204  1.6278 -1.3942  0.1043
 7814SOL    HW224659   1.863   5.865   1.136  1.1384 -0.8922  0.4081
 7815SOL     OW24660   1.942   5.427   0.307  0.1221 -0.6166 -0.0357
 7815SOL    HW124661   2.006   5.494   0.330  1.5214 -1.2068 -1.9350
 7815SOL    HW224662   1.878   5.474   0.253  0.1512 -0.4692  0.0552
 7816SOL     OW24663   2.160   7.072   1.243 -0.1046  0.1771 -0.3761
 7816SOL    HW124664   2.161   7.166   1.264 -1.2430  0.4690 -1.4411
 7816SOL    HW224665   2.067   7.052   1.231 -0.2366 -1.8623  2.8699
 7817SOL     OW24666   3.636   7.005   1.036 -0.2909  0.3651  0.8414
 7817SOL    HW124667   3.681   6.933   1.080  2.0091  1.7168  0.8572
 7817SOL    HW224668   3.675   7.006   0.948 -1.4451  0.6331  0.3147
 7818SOL     OW24669   2.782   6.382   0.068 -1.0015  0.4292 -0.0208
 7818SOL    HW124670   2.760   6.461   0.118 -1.9421 -0.5108  1.1174
 7818SOL    HW224671   2.760   6.405  -0.023 -1.1002  1.5294  0.2633
 7819SOL     OW24672   3.870   6.368   8.713 -0.4559  0.9133  0.4923
 7819SOL    HW124673   3.893   6.395   8.625 -0.8244 -0.1678  0.0460
 7819SOL    HW224674   3.850   6.449   8.759  0.9400  1.5857 -0.0504
 7820SOL     OW24675   2.417   7.036   1.175 -0.3491 -0.1643 -0.3091
 7820SOL    HW124676   2.356   7.067   1.241 -1.0611 -2.6683  0.3230
 7820SOL    HW224677   2.363   6.989   1.111  0.4545  1.2261 -2.1113
 7821SOL     OW24678   2.831   6.432   2.093 -0.0991  1.0055  0.2450
 7821SOL    HW124679   2.805   6.381   2.169 -0.9485  1.0866  0.0131
 7821SOL    HW224680   2.923   6.408   2.079 -0.6996 -1.1279 -0.3578
 7822SOL     OW24681   2.337   6.605   0.626 -0.6763  0.2643 -0.6081
 7822SOL    HW124682   2.397   6.650   0.685 -3.4235  2.6664  0.6111
 7822SOL    HW224683   2.386   6.596   0.544  1.5601  1.3767  0.5366
 7823SOL     OW24684   2.778   7.231   1.732  0.7853  0.4366  0.0668
 7823SOL    HW124685   2.757   7.141   1.757  1.5025 -0.1240 -1.2411
 7823SOL    HW224686   2.710   7.284   1.775  0.1109 -0.7553  0.5362
 7824SOL     OW24687   1.669   7.131   1.222 -0.5269 -0.2021  0.0392
 7824SOL    HW124688   1.609   7.201   1.247  0.5409  0.3906  1.0649
 7824SOL    HW224689   1.617   7.072   1.168 -2.1362  0.0492  1.2675
 7825SOL     OW24690   3.392   7.112   1.499  0.4073 -0.5643  1.1001
 7825SOL    HW124691   3.354   7.194   1.528 -1.0095 -0.4279 -0.8975
 7825SOL    HW224692   3.317   7.057   1.478  1.3013 -1.4108 -0.0566
 7826SOL     OW24693   2.912   6.204   1.285 -0.0440  0.2718 -0.3026
 7826SOL    HW124694   3.006   6.217   1.292  0.2506 -0.9255 -1.6795
 7826SOL    HW224695   2.901   6.109   1.287 -1.3947  0.4073  1.5478
 7827SOL     OW24696   3.154   6.370   0.896  0.5480  0.1402  0.5663
 7827SOL    HW124697   3.222   6.402   0.955 -0.6653  2.6483  0.7172
 7827SOL    HW224698   3.074   6.413   0.926 -0.2922  0.8335 -2.3343
 7828SOL     OW24699   2.312   7.379   0.373 -0.5310 -0.1284  0.5774
 7828SOL    HW124700   2.325   7.312   0.441  0.2047  0.8215  1.4126
 7828SOL    HW224701   2.251   7.441   0.413  0.5695  0.8821  0.7189
 7829SOL     OW24702   2.874   7.128   1.457  0.3791  0.3015 -0.2721
 7829SOL    HW124703   2.827   7.068   1.400  0.4087  0.0326 -0.0111
 7829SOL    HW224704   2.813   7.147   1.528  0.0191  1.2972 -0.8140
 7830SOL     OW24705   2.140   6.529   0.806  0.2454  0.0432  0.3418
 7830SOL    HW124706   2.213   6.563   0.753  0.1026  0.1644  0.2235
 7830SOL    HW224707   2.091   6.473   0.746 -0.3557  0.7854  0.1313
 7831SOL     OW24708   1.744   6.525   1.026 -0.2932 -0.1458  0.1021
 7831SOL    HW124709   1.689   6.506   1.103 -0.8626  1.6293  0.1824
 7831SOL    HW224710   1.831   6.493   1.050 -1.0328 -2.1352  0.3597
 7832SOL     OW24711   2.548   7.692   1.155  0.3779 -0.4757  0.8954
 7832SOL    HW124712   2.556   7.779   1.193  0.9097  0.9550 -2.2068
 7832SOL    HW224713   2.638   7.661   1.148  0.2215 -1.1098  1.5729
 7833SOL     OW24714   2.438   6.460   8.666 -0.3370  0.0793  0.4155
 7833SOL    HW124715   2.429   6.367   8.644 -0.5771  0.3876 -0.8959
 7833SOL    HW224716   2.349   6.495   8.659  0.0810  0.8715 -1.4759
 7834SOL     OW24717   3.391   6.332   1.533  0.4844 -0.1443  0.5206
 7834SOL    HW124718   3.463   6.281   1.494 -1.1030 -1.6774 -0.5809
 7834SOL    HW224719   3.377   6.292   1.619 -0.2779 -1.1614 -0.0496
 7835SOL     OW24720   2.035   6.062   0.886  0.2258  0.2699  0.2889
 7835SOL    HW124721   2.009   6.005   0.813  0.5471 -0.3290  0.6314
 7835SOL    HW224722   1.963   6.055   0.949  0.1601  0.4247  0.2315
 7836SOL     OW24723   3.140   7.357   0.369 -0.0878  0.0264 -0.1430
 7836SOL    HW124724   3.165   7.392   0.454  1.2843  2.2306 -1.3743
 7836SOL    HW224725   3.171   7.266   0.370  1.5315  0.5630  1.0462
 7837SOL     OW24726   1.846   7.061   0.199 -0.2268  0.3215 -0.2019
 7837SOL    HW124727   1.830   6.987   0.140  0.3087  0.4077 -0.4559
 7837SOL    HW224728   1.917   7.031   0.257  0.4025  0.8520 -0.6936
 7838SOL     OW24729   3.859   6.464   0.272 -0.4341  0.3419 -0.2949
 7838SOL    HW124730   3.947   6.491   0.247 -1.1559  2.6495 -0.6233
 7838SOL    HW224731   3.865   6.447   0.366  0.5780 -0.6785 -0.5223
 7839SOL     OW24732   3.494   6.747   0.046 -0.4106  0.6817  0.1946
 7839SOL    HW124733   3.577   6.701   0.056 -0.9754 -0.3383  0.3025
 7839SOL    HW224734   3.437   6.710   0.113 -1.4597  0.1714 -0.9359
 7840SOL     OW24735   2.015   5.976   1.372 -0.1209  0.1322  0.3105
 7840SOL    HW124736   2.005   6.066   1.403 -1.0019  0.0642  0.2457
 7840SOL    HW224737   2.106   5.954   1.392 -0.7997 -0.1790  3.5734
 7841SOL     OW24738   2.276   6.843   1.031 -0.3763  0.4400 -0.6124
 7841SOL    HW124739   2.252   6.906   0.963 -1.1860  0.9470  0.1169
 7841SOL    HW224740   2.215   6.861   1.103 -0.1132 -0.6679 -0.0891
 7842SOL     OW24741   3.134   7.011   1.465 -0.1040 -0.5114  0.0078
 7842SOL    HW124742   3.122   6.921   1.434 -0.2962 -1.0408  1.5677
 7842SOL    HW224743   3.045   7.047   1.467 -0.2552 -0.9003  1.1194
 7843SOL     OW24744   2.615   5.821   0.751  0.0432 -0.2414  0.2636
 7843SOL    HW124745   2.707   5.814   0.724  0.2992 -0.4250  1.1474
 7843SOL    HW224746   2.598   5.915   0.754  0.3291 -0.1946  0.5053
 7844SOL     OW24747   1.766   6.317   1.243 -0.2722 -0.3427 -1.5116
 7844SOL    HW124748   1.842   6.336   1.298 -1.7534 -0.1086  0.5685
 7844SOL    HW224749   1.800   6.258   1.175  1.6824 -0.5255 -0.4467
 7845SOL     OW24750   3.410   6.629   0.528 -0.0991  0.6572 -0.0969
 7845SOL    HW124751   3.440   6.539   0.538  0.7069  0.9073 -0.1641
 7845SOL    HW224752   3.450   6.676   0.601  0.2058  1.1281 -0.5549
 7846SOL     OW24753   3.025   7.588   1.788  0.0997 -0.0728 -0.0328
 7846SOL    HW124754   3.030   7.644   1.866  0.3304 -0.1367  0.0007
 7846SOL    HW224755   3.055   7.644   1.716 -2.5550  0.8257 -0.5554
 7847SOL     OW24756   1.879   5.852   1.765  0.1486  0.1443 -0.2431
 7847SOL    HW124757   1.918   5.937   1.742  2.1561 -0.4852  0.6138
 7847SOL    HW224758   1.897   5.796   1.689 -2.8003  0.8790 -1.6210
 7848SOL     OW24759   2.934   6.703   0.705  0.4200 -0.1665  0.1320
 7848SOL    HW124760   2.979   6.629   0.663 -1.1924 -0.8623 -0.4925
 7848SOL    HW224761   2.956   6.695   0.797  0.1290 -1.5785  0.1087
 7849SOL     OW24762   3.796   6.993   0.801  0.5985  0.4005 -0.3485
 7849SOL    HW124763   3.799   6.909   0.756  0.0664  0.6534 -0.8812
 7849SOL    HW224764   3.745   7.050   0.742  1.7076  1.3524 -0.4298
 7850SOL     OW24765   2.295   6.100   0.356  0.5257 -0.4644  0.0976
 7850SOL    HW124766   2.328   6.039   0.422 -1.6282 -1.9490 -0.0952
 7850SOL    HW224767   2.288   6.047   0.276  2.9257  1.2507 -1.3746
 7851SOL     OW24768   2.851   6.160   0.823 -0.0348  0.1621 -0.5435
 7851SOL    HW124769   2.917   6.100   0.858  0.0368  1.1380  1.1108
 7851SOL    HW224770   2.771   6.106   0.816  0.4709 -0.5640 -0.8236
 7852SOL     OW24771   3.230   7.397   0.631  0.4483 -0.3977 -0.8062
 7852SOL    HW124772   3.310   7.449   0.642  0.0629  0.2268 -0.9309
 7852SOL    HW224773   3.173   7.424   0.703 -0.1773  0.1568 -1.4964
 7853SOL     OW24774   2.727   5.795   1.710  0.3554  0.2725 -0.0662
 7853SOL    HW124775   2.650   5.754   1.671  0.5472 -0.2710  0.0996
 7853SOL    HW224776   2.703   5.886   1.723  0.5499  0.6594 -2.1369
 7854SOL     OW24777   3.047   5.873   1.876  0.1405  0.1674  0.0086
 7854SOL    HW124778   2.989   5.800   1.897 -0.7185  0.6699 -0.5291
 7854SOL    HW224779   3.114   5.836   1.819  1.1511 -0.7087  1.6997
 7855SOL     OW24780   2.518   6.369   1.687  0.3100 -0.1739  0.2813
 7855SOL    HW124781   2.533   6.304   1.618  2.5751  1.0700 -0.4939
 7855SOL    HW224782   2.492   6.317   1.763  0.8489 -1.8829 -0.6428
 7856SOL     OW24783   3.066   6.311   1.563  0.4210 -0.2104  0.7195
 7856SOL    HW124784   3.015   6.238   1.529  0.1849  0.0532  0.4986
 7856SOL    HW224785   3.142   6.317   1.505  0.6149 -0.4854  0.9375
 7857SOL     OW24786   3.313   6.096   0.178 -0.3288 -0.5152  0.5771
 7857SOL    HW124787   3.285   6.182   0.147 -2.8057 -0.2944  2.9895
 7857SOL    HW224788   3.400   6.084   0.140 -0.8802  1.9588 -1.7930
 7858SOL     OW24789   1.813   6.151   1.058  0.0009 -0.6895 -0.2589
 7858SOL    HW124790   1.746   6.105   1.007 -0.8892  0.3259 -0.0353
 7858SOL    HW224791   1.859   6.081   1.106 -0.0191 -1.5187 -1.4188
 7859SOL     OW24792   1.976   7.176   1.583  0.6278  0.0449  0.4360
 7859SOL    HW124793   1.903   7.213   1.632 -0.4392 -2.5303  0.9552
 7859SOL    HW224794   1.941   7.096   1.545  2.8631 -0.6304 -0.3704
 7860SOL     OW24795   2.409   6.200   8.620  0.3213 -0.1730 -0.5693
 7860SOL    HW124796   2.469   6.186   8.693  0.9020 -0.0503 -1.0168
 7860SOL    HW224797   2.373   6.113   8.602 -0.3172 -0.0943  0.2723
 7861SOL     OW24798   3.668   6.256   1.554 -0.0632 -0.2122 -0.5095
 7861SOL    HW124799   3.687   6.208   1.634 -0.1748 -2.1176 -1.5699
 7861SOL    HW224800   3.662   6.348   1.582 -1.4834 -0.9528  1.8740
 7862SOL     OW24801   2.782   6.494   0.483  0.7138  0.4188 -0.5761
 7862SOL    HW124802   2.855   6.495   0.421  1.4269  0.0750  0.2524
 7862SOL    HW224803   2.823   6.497   0.569 -0.2766  2.0995 -0.0968
 7863SOL     OW24804   2.550   6.080   0.681  0.3267  0.7141  0.1202
 7863SOL    HW124805   2.576   6.160   0.636 -1.4253 -0.3695 -3.1593
 7863SOL    HW224806   2.460   6.096   0.710 -0.0478 -0.0306 -0.5795
 7864SOL     OW24807   2.069   6.940   0.326  0.8509  0.5557 -0.2496
 7864SOL    HW124808   2.085   6.860   0.376 -0.3005  1.1099  1.1065
 7864SOL    HW224809   2.152   6.960   0.283  1.3061 -1.0528 -0.1689
 7865SOL     OW24810   1.824   8.322   0.375  0.1928  0.5356  0.2995
 7865SOL    HW124811   1.794   8.383   0.308 -0.5314 -0.9232 -0.7500
 7865SOL    HW224812   1.908   8.358   0.404 -0.9224  2.9096  0.9162
 7866SOL     OW24813   4.012   6.499   1.089  0.4709 -0.0731  0.5133
 7866SOL    HW124814   4.025   6.408   1.116  0.6688 -0.3357 -0.4226
 7866SOL    HW224815   4.049   6.550   1.161  1.1081 -0.7454  0.6848
 7867SOL     OW24816   3.331   7.256   1.911  0.9827  0.4342  0.1899
 7867SOL    HW124817   3.320   7.324   1.977 -0.7925  1.6425 -1.2558
 7867SOL    HW224818   3.247   7.253   1.865  1.9787 -0.7025 -1.6860
 7868SOL     OW24819   1.698   6.091   0.205 -0.3396 -1.2260  0.1581
 7868SOL    HW124820   1.621   6.076   0.151 -1.1951  4.2038 -0.7307
 7868SOL    HW224821   1.667   6.078   0.295 -3.1227  2.4375 -0.0322
 7869SOL     OW24822   3.919   6.471   0.527  0.4130  0.3290  0.0862
 7869SOL    HW124823   3.960   6.557   0.538  2.0124 -0.3277 -0.3094
 7869SOL    HW224824   3.855   6.466   0.598 -0.4303  2.2172 -0.4843
 7870SOL     OW24825   2.518   7.079   1.979 -0.0707 -0.0821 -0.2239
 7870SOL    HW124826   2.442   7.035   2.019 -0.0712 -0.0198 -0.1553
 7870SOL    HW224827   2.552   7.016   1.915 -1.1065  0.4654 -1.3686
 7871SOL     OW24828   2.623   7.389   0.252 -0.3246  0.0950 -0.2653
 7871SOL    HW124829   2.558   7.449   0.215 -0.9552 -1.5172 -1.9320
 7871SOL    HW224830   2.703   7.406   0.202 -1.0612 -1.7798 -2.2774
 7872SOL     OW24831   1.410   5.771   1.700 -0.5200  0.0510 -0.5471
 7872SOL    HW124832   1.491   5.728   1.673 -0.0770  1.0236 -0.8015
 7872SOL    HW224833   1.377   5.717   1.771  0.5008 -0.2046 -0.2525
 7873SOL     OW24834   3.469   7.049   0.399  0.0700 -0.4677  0.0796
 7873SOL    HW124835   3.486   7.030   0.307  2.0372  1.2599 -0.0122
 7873SOL    HW224836   3.379   7.082   0.401 -0.5663 -2.0356 -0.9186
 7874SOL     OW24837   2.218   7.212   0.171  0.0023  0.5121  0.1613
 7874SOL    HW124838   2.276   7.255   0.234 -0.9044  0.4213  1.0809
 7874SOL    HW224839   2.156   7.280   0.146 -2.6264 -0.5583  3.0424
 7875SOL     OW24840   3.528   5.854   0.703  0.0567 -0.1561  0.4651
 7875SOL    HW124841   3.570   5.935   0.672  1.1208 -0.0747  1.9899
 7875SOL    HW224842   3.450   5.845   0.648  0.2723  1.5388 -0.1983
 7876SOL     OW24843   2.007   7.448   0.774 -0.6047  0.8119 -0.9032
 7876SOL    HW124844   1.998   7.411   0.686  0.2970  0.6675 -0.9443
 7876SOL    HW224845   2.075   7.395   0.816 -2.2006 -0.2301  0.4984
 7877SOL     OW24846   3.005   7.217   0.952  0.5701 -0.0816 -0.1395
 7877SOL    HW124847   3.032   7.182   0.868  0.3842  0.9578 -0.6474
 7877SOL    HW224848   3.049   7.161   1.017  0.4511 -1.0879 -0.9069
 7878SOL     OW24849   2.738   6.243   0.372  0.2556 -0.1569 -0.2447
 7878SOL    HW124850   2.789   6.322   0.388 -1.1143  0.5769  0.7523
 7878SOL    HW224851   2.800   6.181   0.336  1.5401  1.1271 -0.3282
 7879SOL     OW24852   3.237   5.700   1.705  0.1407  0.6048 -0.2761
 7879SOL    HW124853   3.159   5.719   1.654  0.5188  1.3125 -0.6061
 7879SOL    HW224854   3.229   5.608   1.728 -1.8576  1.1273  1.5039
 7880SOL     OW24855   2.200   5.793   2.557  0.1345 -0.2045 -0.1664
 7880SOL    HW124856   2.218   5.851   2.631  1.6418  1.0019 -1.3942
 7880SOL    HW224857   2.278   5.801   2.501 -0.1724 -2.4415 -1.0204
 7881SOL     OW24858   2.582   6.970   0.812 -0.0200 -0.0578  0.0656
 7881SOL    HW124859   2.623   7.055   0.827  0.0007 -0.1303  0.4166
 7881SOL    HW224860   2.595   6.922   0.894 -0.4037 -0.2484  0.0162
 7882SOL     OW24861   3.456   6.261   1.246 -0.5645 -0.3969 -0.3136
 7882SOL    HW124862   3.518   6.230   1.180  0.8369  0.2906  0.6493
 7882SOL    HW224863   3.487   6.348   1.270 -1.0559 -0.6042  1.2158
 7883SOL     OW24864   2.631   7.141   1.048  0.2978  0.0416  0.3669
 7883SOL    HW124865   2.554   7.094   1.080 -0.7145  0.0989 -1.8154
 7883SOL    HW224866   2.627   7.226   1.092 -1.0640  0.1444  0.0876
 7884SOL     OW24867   2.842   6.366   1.045 -0.2142  0.5530  0.7338
 7884SOL    HW124868   2.808   6.297   1.102  1.3734 -0.3998  0.5994
 7884SOL    HW224869   2.836   6.329   0.956  0.5265  0.6062  0.6483
 7885SOL     OW24870   2.093   5.876   8.838 -0.4318  0.0547  0.4921
 7885SOL    HW124871   2.114   5.783   8.848 -1.9969 -0.3857 -0.0250
 7885SOL    HW224872   2.149   5.920   8.902  0.3899 -1.2262  0.7028
 7886SOL     OW24873   3.553   6.160   8.666 -0.8273 -0.4353  0.7949
 7886SOL    HW124874   3.547   6.246   8.707  0.9916  1.0316 -1.7681
 7886SOL    HW224875   3.491   6.163   8.593  0.4043 -0.6538 -0.2959
 7887SOL     OW24876   2.296   6.011   0.102 -0.3997 -0.4975  0.2359
 7887SOL    HW124877   2.297   6.106   0.089 -0.5558 -0.5351 -0.0599
 7887SOL    HW224878   2.381   5.982   0.071 -0.4032 -0.4694  0.1992
 7888SOL     OW24879   3.437   6.076   1.898  0.8565  0.5176  0.0594
 7888SOL    HW124880   3.409   6.017   1.828 -0.8740 -1.9918  2.6403
 7888SOL    HW224881   3.532   6.082   1.888  0.7009  0.1421 -2.3316
 7889SOL     OW24882   2.558   7.019   0.485 -0.3390  0.8047  0.5594
 7889SOL    HW124883   2.573   6.925   0.492  0.9442  0.7868 -1.6343
 7889SOL    HW224884   2.626   7.059   0.539  0.3429  0.4713 -0.0286
 7890SOL     OW24885   2.185   6.536   1.281  0.3236 -0.5144  0.0796
 7890SOL    HW124886   2.206   6.444   1.268  1.2861 -0.4922  1.3052
 7890SOL    HW224887   2.255   6.569   1.337 -0.7472  0.6204  0.8134
 7891SOL     OW24888   3.011   7.109   0.691 -0.0028 -0.3523  0.3965
 7891SOL    HW124889   3.037   7.143   0.605  0.3174  1.3539  1.1262
 7891SOL    HW224890   2.916   7.122   0.694 -0.1894 -1.4632 -0.1114
 7892SOL     OW24891   2.814   5.945   0.116 -0.1699 -0.1732 -0.1957
 7892SOL    HW124892   2.871   5.897   0.056 -1.1070 -0.0938 -1.1855
 7892SOL    HW224893   2.870   6.014   0.153  0.8670 -1.2712  0.3394
 7893SOL     OW24894   1.796   5.827   1.466 -0.0815 -0.4349  0.0074
 7893SOL    HW124895   1.875   5.869   1.432  0.1240 -1.3277 -0.6548
 7893SOL    HW224896   1.749   5.796   1.387 -0.9497 -0.1625  0.4027
 7894SOL     OW24897   2.931   5.923   1.259 -0.0244 -0.0539 -0.6316
 7894SOL    HW124898   2.954   5.918   1.352 -0.4501  2.8351 -0.2921
 7894SOL    HW224899   3.008   5.888   1.214  1.6719  1.6952  0.7330
 7895SOL     OW24900   2.666   5.760   0.388  0.5847  0.1789  0.5574
 7895SOL    HW124901   2.656   5.674   0.430 -0.1671  0.3075  0.6537
 7895SOL    HW224902   2.759   5.766   0.368  0.4249 -1.2548 -0.7345
 7896SOL     OW24903   2.909   5.828   0.669  0.0149  0.3045 -0.2939
 7896SOL    HW124904   2.958   5.849   0.749 -0.1784 -1.7772  0.4519
 7896SOL    HW224905   2.962   5.865   0.598  0.7542  1.2744  0.7343
 7897SOL     OW24906   3.087   6.487   0.638  0.3718 -0.3223 -0.0022
 7897SOL    HW124907   3.105   6.429   0.564 -0.7962 -2.6018  1.3881
 7897SOL    HW224908   3.125   6.442   0.714  1.5281  1.9366  0.8447
 7898SOL     OW24909   3.712   6.210   1.063  0.0719 -0.5514 -0.0917
 7898SOL    HW124910   3.728   6.145   1.131  1.5020 -0.0605  0.0745
 7898SOL    HW224911   3.782   6.196   0.999 -0.9734 -0.6927 -1.2538
 7899SOL     OW24912   3.572   6.379   8.830 -0.2204 -0.4374  0.2059
 7899SOL    HW124913   3.483   6.402   8.802 -1.2447 -2.2282  1.7551
 7899SOL    HW224914   3.591   6.442   8.900  0.4966  1.0908 -1.3087
 7900SOL     OW24915   2.134   7.019   8.830  0.3296  0.8048 -0.5656
 7900SOL    HW124916   2.183   6.943   8.861  1.8125  1.5185 -1.0457
 7900SOL    HW224917   2.154   7.088   8.893  1.4539  1.6014 -1.7323
 7901SOL     OW24918   3.744   6.522   0.730  0.0391  0.0639  0.1494
 7901SOL    HW124919   3.769   6.530   0.823  0.9794  2.8852 -0.2369
 7901SOL    HW224920   3.672   6.460   0.730 -1.2737  1.3806  3.0606
 7902SOL     OW24921   3.805   6.137   8.591 -0.0770  0.5909  0.3231
 7902SOL    HW124922   3.712   6.139   8.615 -0.0871  0.0550  0.3460
 7902SOL    HW224923   3.838   6.224   8.613 -1.0437  1.5125 -1.5848
 7903SOL     OW24924   2.466   5.800   8.566  0.2574 -0.1953 -0.8153
 7903SOL    HW124925   2.394   5.859   8.542  0.5001  0.2355 -0.4948
 7903SOL    HW224926   2.439   5.761   8.649 -0.5676 -1.6650 -1.7297
 7904SOL     OW24927   3.139   7.055   1.758 -0.0498  0.4926  0.1523
 7904SOL    HW124928   3.123   7.150   1.754 -0.8528  0.3290 -1.6798
 7904SOL    HW224929   3.137   7.027   1.667  2.0584 -1.0199  0.5120
 7905SOL     OW24930   2.910   6.654   1.299  0.2794 -0.6818 -0.4034
 7905SOL    HW124931   2.864   6.570   1.306  0.8053 -0.9343  0.0614
 7905SOL    HW224932   2.851   6.717   1.339  0.9405 -1.2409  1.5813
 7906SOL     OW24933   3.329   7.365   1.580  0.2184 -0.1533 -0.2384
 7906SOL    HW124934   3.422   7.369   1.558 -0.2676  0.7644 -2.4081
 7906SOL    HW224935   3.296   7.453   1.559 -1.1561 -0.4788  0.4446
 7907SOL     OW24936   2.702   6.826   1.372  0.0114 -0.0336 -0.1672
 7907SOL    HW124937   2.615   6.824   1.411  0.0198  0.4897 -0.1180
 7907SOL    HW224938   2.707   6.911   1.328  1.1126  0.6795  1.2526
 7908SOL     OW24939   3.400   6.862   0.950 -0.4763  0.3053 -0.5971
 7908SOL    HW124940   3.331   6.913   0.908 -0.5655 -0.5652 -1.5486
 7908SOL    HW224941   3.467   6.926   0.973 -1.3466  1.0886 -0.1397
 7909SOL     OW24942   2.651   5.451   1.294 -0.9311  0.5540 -0.4567
 7909SOL    HW124943   2.663   5.541   1.324 -1.7893  0.8998 -1.0887
 7909SOL    HW224944   2.666   5.455   1.200  1.0530 -0.3826 -0.2150
 7910SOL     OW24945   2.931   6.653   1.848  0.1258 -0.0971  0.0704
 7910SOL    HW124946   2.964   6.720   1.908  0.3443  1.2611 -1.5190
 7910SOL    HW224947   2.974   6.671   1.765 -1.0452 -1.2084 -0.8190
 7911SOL     OW24948   2.688   6.702   0.338  0.0639 -0.4613 -0.1689
 7911SOL    HW124949   2.687   6.623   0.392  0.4755  1.3496  2.7352
 7911SOL    HW224950   2.698   6.773   0.401  1.4975  1.8197 -2.7647
 7912SOL     OW24951   1.999   6.304   1.392 -0.1262 -0.6031 -0.2428
 7912SOL    HW124952   2.095   6.302   1.394 -0.1553 -2.2473  0.4709
 7912SOL    HW224953   1.974   6.349   1.473  0.0186  1.7260 -1.3885
 7913SOL     OW24954   3.186   6.218   1.274 -0.1305 -0.1504 -0.2279
 7913SOL    HW124955   3.167   6.174   1.191 -0.1434 -1.2212  0.3319
 7913SOL    HW224956   3.281   6.227   1.276 -0.0122 -1.4549  0.3016
 7914SOL     OW24957   1.649   7.307   0.851  0.2533  0.1655 -0.3367
 7914SOL    HW124958   1.634   7.349   0.766 -0.3735  0.3405 -0.1501
 7914SOL    HW224959   1.561   7.285   0.882  0.2870  1.8836  1.1586
 7915SOL     OW24960   2.393   6.592   0.334  0.6033 -0.3489 -0.2511
 7915SOL    HW124961   2.441   6.509   0.332  1.6162  0.2193 -0.6584
 7915SOL    HW224962   2.407   6.629   0.247  0.4786  0.4226  0.0510
 7916SOL     OW24963   2.285   6.162   0.746 -0.2129 -0.0158  0.3788
 7916SOL    HW124964   2.200   6.134   0.781  0.3210 -1.0223  0.9331
 7916SOL    HW224965   2.296   6.251   0.777 -0.5429 -0.2882  1.3175
 7917SOL     OW24966   3.216   6.869   0.626  0.6153 -0.2695  0.1551
 7917SOL    HW124967   3.129   6.842   0.656 -0.0210  1.1183 -0.3552
 7917SOL    HW224968   3.263   6.787   0.611 -0.5180 -1.0361  0.6730
 7918SOL     OW24969   2.711   6.775   0.994  0.0656  0.0042 -1.0840
 7918SOL    HW124970   2.716   6.832   1.071 -0.1020 -2.6868  1.0743
 7918SOL    HW224971   2.779   6.710   1.009 -0.7102 -1.2284 -2.6821
 7919SOL     OW24972   3.716   5.944   0.357 -0.5313  0.1485 -0.4726
 7919SOL    HW124973   3.710   6.001   0.433 -1.8865 -1.2912  0.5818
 7919SOL    HW224974   3.801   5.964   0.318 -0.2927  1.7160  0.7553
 7920SOL     OW24975   1.808   7.591   0.862 -0.6334 -0.0360  0.0635
 7920SOL    HW124976   1.892   7.556   0.830  0.2700  1.3361  0.8393
 7920SOL    HW224977   1.757   7.513   0.883  1.2665 -0.9527  1.6406
 7921SOL     OW24978   1.963   6.121   1.678 -0.5782  0.1113  0.0972
 7921SOL    HW124979   1.944   6.191   1.740 -1.3896 -1.2980  1.5265
 7921SOL    HW224980   2.050   6.089   1.703 -1.4375 -1.3286  1.4738
 7922SOL     OW24981   3.707   6.485   1.707 -0.5413  0.0546 -0.2463
 7922SOL    HW124982   3.790   6.530   1.721  0.0730 -0.4906 -1.9162
 7922SOL    HW224983   3.655   6.505   1.785  0.8636  1.0397  0.4693
 7923SOL     OW24984   2.658   5.754   2.114  0.7741  0.2791  0.0231
 7923SOL    HW124985   2.751   5.735   2.125  0.3818 -1.4060  0.6723
 7923SOL    HW224986   2.613   5.684   2.161 -0.8477  0.0652 -1.7371
 7924SOL     OW24987   2.338   5.857   1.719  0.0140  0.5444 -0.4088
 7924SOL    HW124988   2.262   5.812   1.757  0.1808  0.4283 -0.2108
 7924SOL    HW224989   2.312   5.949   1.717  0.5629  0.7958  1.4198
 7925SOL     OW24990   2.529   6.088   1.543  0.4580 -0.2511  0.0390
 7925SOL    HW124991   2.580   6.086   1.624  0.7873 -0.9492 -0.1722
 7925SOL    HW224992   2.588   6.126   1.478  0.5978 -0.7244 -0.1210
 7926SOL     OW24993   3.474   6.302   0.658 -0.0831 -0.1904  0.1231
 7926SOL    HW124994   3.481   6.252   0.739 -0.8683 -0.3144  0.1207
 7926SOL    HW224995   3.397   6.357   0.670 -1.0015 -1.1683 -1.0313
 7927SOL     OW24996   3.024   6.088   0.273 -0.0574  0.5662 -0.0420
 7927SOL    HW124997   3.120   6.089   0.271  0.0311 -1.4444  0.4728
 7927SOL    HW224998   3.002   6.081   0.366 -0.6934  0.9512 -0.1595
 7928SOL     OW24999   2.326   5.681   0.959  0.1300 -0.1797 -0.1724
 7928SOL    HW125000   2.368   5.738   1.022 -1.3652 -0.4223  1.0960
 7928SOL    HW225001   2.235   5.675   0.988 -0.4892 -0.7234 -2.0477
 7929SOL     OW25002   1.379   6.888   1.004 -0.1723 -0.2920 -0.1479
 7929SOL    HW125003   1.463   6.852   0.977  0.1346  1.2072 -1.3402
 7929SOL    HW225004   1.388   6.902   1.098  2.7695  4.2022 -0.8081
 7930SOL     OW25005   2.236   6.153   1.081 -0.1131 -0.0679 -0.2019
 7930SOL    HW125006   2.155   6.129   1.036 -0.7694  1.0306  0.3707
 7930SOL    HW225007   2.278   6.217   1.023 -0.2243  0.2285  0.0438
 7931SOL     OW25008   3.278   6.581   2.169 -0.1630 -0.9096 -0.2700
 7931SOL    HW125009   3.222   6.622   2.234  0.8866 -0.4648  0.3728
 7931SOL    HW225010   3.217   6.534   2.111 -1.0760 -1.9504  1.4487
 7932SOL     OW25011   2.331   5.717   0.382  0.1785 -0.7472  0.3930
 7932SOL    HW125012   2.389   5.695   0.309 -0.3346 -2.3438  0.4244
 7932SOL    HW225013   2.381   5.778   0.435  1.2735 -0.9813 -0.3421
 7933SOL     OW25014   3.674   6.084   0.610  0.4494  0.0643 -0.3609
 7933SOL    HW125015   3.640   6.174   0.602  2.1061  0.7215 -0.4450
 7933SOL    HW225016   3.748   6.093   0.670 -1.1583 -1.7832  2.0938
 7934SOL     OW25017   3.244   6.514   1.119  0.1731 -0.0801 -0.5270
 7934SOL    HW125018   3.217   6.469   1.199 -1.9167  0.9147 -0.6315
 7934SOL    HW225019   3.329   6.552   1.141  0.5879 -1.5077  0.5253
 7935SOL     OW25020   3.137   7.388   2.101 -0.6289  0.6655 -0.1976
 7935SOL    HW125021   3.108   7.473   2.133  0.4974  0.6816  0.8464
 7935SOL    HW225022   3.099   7.381   2.013 -1.6872  1.7296  0.1523
 7936SOL     OW25023   3.707   6.651   1.458  0.0428 -0.0276  0.0973
 7936SOL    HW125024   3.720   6.611   1.544  0.1288  0.4632  0.3169
 7936SOL    HW225025   3.622   6.694   1.464  0.1551  0.2063  0.0157
 7937SOL     OW25026   1.951   6.618   1.425  0.2803  0.2130 -0.0114
 7937SOL    HW125027   2.030   6.606   1.372 -0.5465  0.0321 -1.2580
 7937SOL    HW225028   1.968   6.568   1.505  2.1377  1.6495  0.5552
 7938SOL     OW25029   3.654   5.846   8.679 -0.6349 -0.0977  0.1874
 7938SOL    HW125030   3.632   5.936   8.654 -0.1305  0.3863  1.4071
 7938SOL    HW225031   3.618   5.836   8.767  1.6029 -0.1663  1.1697
 7939SOL     OW25032   3.229   5.968   8.768  0.0123  0.0550 -0.3310
 7939SOL    HW125033   3.260   6.019   8.842  1.1991  0.1965 -0.9136
 7939SOL    HW225034   3.140   6.001   8.752 -1.5946 -2.1111  2.9645
 7940SOL     OW25035   2.455   6.642   0.889 -0.0694  0.5560  0.1193
 7940SOL    HW125036   2.540   6.667   0.926 -0.1602  0.0244  0.7191
 7940SOL    HW225037   2.392   6.700   0.932 -0.1391  0.1442  0.5882
 7941SOL     OW25038   2.279   6.291   1.302  0.1382 -0.5461  0.0532
 7941SOL    HW125039   2.266   6.246   1.218 -0.2034  1.2998 -0.9531
 7941SOL    HW225040   2.363   6.335   1.293  0.2886 -0.6546  0.8536
 7942SOL     OW25041   2.378   5.926   1.162  0.6508 -0.6290 -0.0061
 7942SOL    HW125042   2.370   5.964   1.250  1.1244  0.1788 -0.3016
 7942SOL    HW225043   2.331   5.987   1.105  0.2069 -1.2305 -0.3077
 7943SOL     OW25044   2.932   6.012   1.520 -0.7546 -0.1221 -0.8770
 7943SOL    HW125045   2.950   5.928   1.562  0.8268  0.4093 -0.4392
 7943SOL    HW225046   2.926   6.074   1.593 -0.5464  0.3772 -1.2811
 7944SOL     OW25047   3.593   5.829   1.403  0.1780  0.1677 -0.1720
 7944SOL    HW125048   3.660   5.838   1.471  0.4257 -1.2664 -0.1897
 7944SOL    HW225049   3.642   5.831   1.320 -0.0126  0.9320 -0.2706
 7945SOL     OW25050   1.891   7.196   0.863  0.1225 -0.0480 -0.0766
 7945SOL    HW125051   1.812   7.251   0.866  0.0364 -0.1939  2.0789
 7945SOL    HW225052   1.904   7.178   0.770 -1.7660  0.8638 -0.5734
 7946SOL     OW25053   1.979   7.021   0.597  0.0583  0.0528 -0.3240
 7946SOL    HW125054   1.922   6.945   0.611  0.6718 -0.4651 -0.5906
 7946SOL    HW225055   2.029   6.999   0.518  0.6132  0.5098 -0.1062
 7947SOL     OW25056   2.503   6.416   1.227 -0.5151 -0.2175  0.2130
 7947SOL    HW125057   2.554   6.372   1.295  1.0855  0.7877 -0.2832
 7947SOL    HW225058   2.493   6.506   1.259 -0.9746 -0.1074 -0.2336
 7948SOL     OW25059   1.586   5.941   1.089 -0.1306  0.3684 -0.2664
 7948SOL    HW125060   1.618   5.854   1.066 -0.3967  0.4085 -0.8221
 7948SOL    HW225061   1.578   5.940   1.184 -0.4496 -0.3304 -0.2952
 7949SOL     OW25062   1.721   6.221   1.574 -0.3320 -0.0017  0.2122
 7949SOL    HW125063   1.814   6.200   1.582 -0.4837 -1.3829 -1.0490
 7949SOL    HW225064   1.679   6.177   1.648 -0.0508  0.0087  0.3763
 7950SOL     OW25065   3.036   6.621   1.596  0.0491  0.4202 -0.1977
 7950SOL    HW125066   3.100   6.571   1.545 -0.9601 -1.5215  0.3246
 7950SOL    HW225067   2.960   6.628   1.538 -0.5680 -0.5139  0.4717
 7951SOL     OW25068   2.327   6.351   0.096  0.1069 -0.0335 -0.0499
 7951SOL    HW125069   2.397   6.335   0.032  1.3536  0.1683  1.2065
 7951SOL    HW225070   2.367   6.331   0.181 -1.6588 -0.7888  0.6465
 7952SOL     OW25071   3.801   5.697   1.201  0.2752 -0.6416  0.1454
 7952SOL    HW125072   3.796   5.758   1.127  0.3360 -0.4501  0.3006
 7952SOL    HW225073   3.744   5.624   1.175 -1.0572  0.1973  0.6364
 7953SOL     OW25074   2.515   7.109   1.560  0.4710 -0.3300 -0.8946
 7953SOL    HW125075   2.440   7.159   1.526  1.9846  2.9324  0.0812
 7953SOL    HW225076   2.484   7.076   1.644  0.4435  2.3501  0.2668
 7954SOL     OW25077   2.403   6.344   0.964 -0.3661 -0.4693 -0.8385
 7954SOL    HW125078   2.402   6.427   0.915  0.7568 -0.5141 -0.9584
 7954SOL    HW225079   2.472   6.356   1.029  1.3810 -2.1043 -2.2996
 7955SOL     OW25080   2.800   7.422   1.484  0.3230  0.7013  0.2452
 7955SOL    HW125081   2.842   7.362   1.545 -1.1411  0.5555  1.1621
 7955SOL    HW225082   2.793   7.504   1.532 -0.4379  0.7219  0.1063
 7956SOL     OW25083   2.089   6.441   8.849  0.1503 -0.0222  0.2022
 7956SOL    HW125084   2.022   6.405   8.907  0.6702  0.4087  1.0841
 7956SOL    HW225085   2.172   6.412   8.887  0.6501  2.7200  1.4086
 7957SOL     OW25086   1.570   6.505   1.499  0.4165 -0.0069 -0.2158
 7957SOL    HW125087   1.504   6.440   1.523 -0.1556  0.4819 -0.4161
 7957SOL    HW225088   1.649   6.454   1.481 -0.1473 -0.6940 -0.8344
 7958SOL     OW25089   2.717   6.540   1.485  0.0511 -0.0411 -0.5954
 7958SOL    HW125090   2.699   6.626   1.446  2.9822  1.5333  1.1875
 7958SOL    HW225091   2.677   6.545   1.572 -2.8182 -1.9598 -1.6368
 7959SOL     OW25092   3.223   6.333   0.462  0.0917  0.3051 -0.1166
 7959SOL    HW125093   3.233   6.315   0.369 -0.5884  0.6906 -0.2777
 7959SOL    HW225094   3.249   6.252   0.505  0.9290  0.3030 -0.6117
 7960SOL     OW25095   3.385   7.149   1.194 -0.0356  0.0943 -0.0269
 7960SOL    HW125096   3.378   7.184   1.283 -0.0798 -0.2876  0.1216
 7960SOL    HW225097   3.476   7.164   1.169  0.3719 -1.1028  0.6431
 7961SOL     OW25098   3.127   7.048   1.119 -0.0197 -0.8248 -0.6506
 7961SOL    HW125099   3.214   7.075   1.147  0.2748 -1.8969 -0.4812
 7961SOL    HW225100   3.112   6.964   1.163 -2.2158  0.5179  1.4355
 7962SOL     OW25101   1.728   6.314   0.543 -0.7833  0.4169  0.5876
 7962SOL    HW125102   1.665   6.242   0.546 -0.8469  0.4332 -0.2615
 7962SOL    HW225103   1.735   6.343   0.634 -1.0302 -0.4222  0.8836
 7963SOL     OW25104   2.522   7.719   1.526  0.4233 -0.0719 -0.6075
 7963SOL    HW125105   2.474   7.770   1.592  0.2357 -0.9211 -0.0710
 7963SOL    HW225106   2.552   7.784   1.463  1.1233  0.8405  0.6290
 7964SOL     OW25107   3.050   5.852   0.440 -0.2567  0.3970 -0.4112
 7964SOL    HW125108   3.064   5.888   0.352  0.5570 -0.1386 -0.5062
 7964SOL    HW225109   3.137   5.850   0.480 -0.7554  1.7052  0.8437
 7965SOL     OW25110   4.001   5.656   0.439  0.1371 -0.1154  0.6352
 7965SOL    HW125111   3.907   5.639   0.430 -0.1176  0.4250  2.0193
 7965SOL    HW225112   4.018   5.647   0.533  1.4455 -0.0589  0.4193
 7966SOL     OW25113   2.718   6.825   0.596 -0.4733 -0.5145  0.6922
 7966SOL    HW125114   2.661   6.853   0.668 -1.3806 -0.4230 -0.0512
 7966SOL    HW225115   2.797   6.793   0.640  0.7444  3.2505  1.6604
 7967SOL     OW25116   1.912   7.317   1.995  0.2103 -0.0274 -0.3052
 7967SOL    HW125117   1.919   7.222   2.001 -2.7216 -0.2336  2.2180
 7967SOL    HW225118   1.982   7.350   2.051 -0.1743 -0.8209  0.6736
 7968SOL     OW25119   3.192   6.172   0.731  0.1208 -0.3075 -0.3656
 7968SOL    HW125120   3.266   6.118   0.759  1.6521  1.0336 -1.6618
 7968SOL    HW225121   3.188   6.242   0.796 -0.2563 -0.5663 -0.1033
 7969SOL     OW25122   2.438   6.835   1.490 -0.0107 -0.1309  0.2308
 7969SOL    HW125123   2.394   6.848   1.574 -1.0580 -0.3186 -0.2629
 7969SOL    HW225124   2.459   6.924   1.460  0.0099 -0.0399  0.5164
 7970SOL     OW25125   2.428   7.103   8.768 -0.4450 -0.0731  0.1912
 7970SOL    HW125126   2.385   7.095   8.853  2.5257 -0.7662  1.7636
 7970SOL    HW225127   2.442   7.197   8.756  1.4758 -0.0740  1.8606
 7971SOL     OW25128   3.215   7.616   1.474 -0.1518 -0.1017  0.4577
 7971SOL    HW125129   3.206   7.707   1.445 -0.1007 -0.2166  0.0759
 7971SOL    HW225130   3.157   7.567   1.416 -0.5478 -0.2548  0.9746
 7972SOL     OW25131   3.863   6.183   0.788  0.1789 -0.3707  0.1715
 7972SOL    HW125132   3.900   6.115   0.844 -0.3324 -0.2806  0.6292
 7972SOL    HW225133   3.929   6.252   0.786  1.1601 -1.2924 -1.1300
 7973SOL     OW25134   2.062   6.207   0.414 -0.1208 -0.4325 -0.0503
 7973SOL    HW125135   2.154   6.187   0.398 -0.3705 -0.7837 -1.1753
 7973SOL    HW225136   2.032   6.137   0.472  0.2184 -0.5528 -0.0183
 7974SOL     OW25137   3.068   6.779   0.339  0.2724  0.5096  0.2221
 7974SOL    HW125138   3.026   6.793   0.424  0.8066 -0.2000  0.6097
 7974SOL    HW225139   3.007   6.818   0.275  0.1386  1.5564  0.9699
 7975SOL     OW25140   2.689   6.270   1.402 -0.2064 -0.2068  0.2051
 7975SOL    HW125141   2.720   6.349   1.447  0.2375 -1.6460  2.6167
 7975SOL    HW225142   2.767   6.235   1.359 -0.2578  0.2889 -0.3043
 7976SOL     OW25143   3.006   6.234   8.822  0.2977  0.4081  0.3580
 7976SOL    HW125144   2.923   6.282   8.828  0.0437 -0.0058  0.1982
 7976SOL    HW225145   3.018   6.195   8.908 -0.0082 -0.0776  0.1812
 7977SOL     OW25146   3.206   7.106   0.472 -0.1642  0.1371  0.0355
 7977SOL    HW125147   3.245   7.161   0.540  0.8613  0.2617 -0.6333
 7977SOL    HW225148   3.204   7.018   0.510  3.5102 -0.4893 -0.8983
 7978SOL     OW25149   1.992   6.795   1.156  0.1975 -0.6788 -0.1095
 7978SOL    HW125150   1.987   6.795   1.252 -0.1932  0.3164 -0.1201
 7978SOL    HW225151   1.998   6.702   1.132 -2.7404 -1.1914  0.7323
 7979SOL     OW25152   3.761   6.812   1.219  0.0930  0.2693  0.1892
 7979SOL    HW125153   3.817   6.741   1.250 -0.0444 -0.3297 -0.8962
 7979SOL    HW225154   3.776   6.883   1.281  0.8682 -0.4207  0.8092
 7980SOL     OW25155   2.995   6.605   0.995 -0.2125  0.0072  0.1848
 7980SOL    HW125156   3.066   6.622   1.057 -0.9065  3.3265  0.2648
 7980SOL    HW225157   2.951   6.528   1.030  1.9494 -0.7797  1.3870
 7981SOL     OW25158   2.597   5.775   1.102  0.4535  0.2873 -0.0729
 7981SOL    HW125159   2.520   5.832   1.110 -0.3583 -0.9356  1.2093
 7981SOL    HW225160   2.606   5.735   1.188  0.7478 -1.8036 -1.0184
 7982SOL     OW25161   1.948   6.889   0.918 -0.6037  0.0847 -0.1183
 7982SOL    HW125162   1.954   6.856   1.008 -0.9502 -0.5529 -0.3222
 7982SOL    HW225163   1.871   6.946   0.918 -0.1913  0.6523  0.1571
 7983SOL     OW25164   3.727   6.080   1.304  0.2466 -0.1858 -0.4104
 7983SOL    HW125165   3.689   6.141   1.367  1.7438 -0.9638  1.3183
 7983SOL    HW225166   3.805   6.045   1.347 -0.8696 -3.8327 -1.0195
 7984SOL     OW25167   1.720   6.734   0.434 -0.2274 -0.0711  0.1537
 7984SOL    HW125168   1.783   6.713   0.365 -1.6433 -1.4388 -0.7919
 7984SOL    HW225169   1.768   6.718   0.515  1.6485  2.0746 -0.3987
 7985SOL     OW25170   1.414   6.334   1.642 -0.0783 -0.2055 -0.2694
 7985SOL    HW125171   1.442   6.245   1.664 -0.6388  0.0361  1.5878
 7985SOL    HW225172   1.321   6.326   1.624 -0.2791  0.0991  0.5946
 7986SOL     OW25173   3.135   5.789   1.158  0.5276  0.2595  0.2448
 7986SOL    HW125174   3.124   5.726   1.087  0.5445 -1.8998  2.0586
 7986SOL    HW225175   3.229   5.808   1.159  0.3859  1.1475 -0.9376
 7987SOL     OW25176   1.928   5.912   0.205 -0.5533  0.0923 -0.2731
 7987SOL    HW125177   1.968   5.895   0.120 -0.5374 -0.0809 -0.2301
 7987SOL    HW225178   1.845   5.956   0.183 -1.2071 -1.1881 -0.4451
 7988SOL     OW25179   3.132   6.823   1.282 -0.1321  0.2179 -0.1012
 7988SOL    HW125180   3.218   6.783   1.277 -0.8024 -1.5333  1.2442
 7988SOL    HW225181   3.072   6.755   1.251 -1.1230  1.0067  0.0281
 7989SOL     OW25182   1.688   5.340   0.559  0.0997  0.3138  0.5181
 7989SOL    HW125183   1.729   5.398   0.622  0.1885  0.1391  0.6225
 7989SOL    HW225184   1.595   5.364   0.559  0.0363  0.0693  0.9791
 7990SOL     OW25185   3.234   6.395   0.156  0.3525  0.3229 -0.1679
 7990SOL    HW125186   3.271   6.477   0.187 -1.1559  1.3586 -0.9640
 7990SOL    HW225187   3.267   6.385   0.067  0.6907 -0.0432 -0.0035
 7991SOL     OW25188   2.668   6.055   1.794  0.2112 -0.2711 -0.1866
 7991SOL    HW125189   2.634   6.064   1.884  0.8700  1.9829 -0.0872
 7991SOL    HW225190   2.760   6.079   1.801  0.7954 -2.0455 -1.1798
 7992SOL     OW25191   3.546   7.278   0.798  0.1268 -0.3146 -0.7363
 7992SOL    HW125192   3.580   7.228   0.724  1.0994 -1.9180  0.7307
 7992SOL    HW225193   3.473   7.225   0.830  0.3942 -0.1785  0.1023
 7993SOL     OW25194   2.510   5.713   1.570  0.3535 -0.3020  0.6272
 7993SOL    HW125195   2.511   5.619   1.588  1.8621 -0.2090  1.1435
 7993SOL    HW225196   2.450   5.749   1.635 -1.4274 -1.0311 -0.5038
 7994SOL     OW25197   3.389   6.798   1.227  0.4768  0.1637  0.5679
 7994SOL    HW125198   3.431   6.865   1.282  0.0840 -0.8308  2.1668
 7994SOL    HW225199   3.389   6.835   1.139  0.4538  2.1756  1.3563
 7995SOL     OW25200   2.072   7.303   1.336  0.5392  0.1618 -0.2490
 7995SOL    HW125201   1.988   7.304   1.290  0.7248 -1.3513 -0.6768
 7995SOL    HW225202   2.050   7.270   1.424  0.4718  1.2498  0.1594
 7996SOL     OW25203   3.809   6.620   0.981  0.6172 -0.1570 -0.1865
 7996SOL    HW125204   3.785   6.690   1.042 -1.4808 -2.0822  1.4160
 7996SOL    HW225205   3.876   6.570   1.027  0.1518 -0.7142 -0.0914
 7997SOL     OW25206   3.014   6.156   0.543 -0.8356 -0.3560  0.1485
 7997SOL    HW125207   2.945   6.110   0.591  0.6711 -2.1573  0.7300
 7997SOL    HW225208   3.082   6.172   0.608 -0.5742  1.1572 -0.4590
 7998SOL     OW25209   2.552   6.186   0.014 -0.4317 -0.0130 -0.3204
 7998SOL    HW125210   2.636   6.221   0.043 -0.3520  0.0908 -0.6757
 7998SOL    HW225211   2.558   6.092   0.031  0.2169 -0.1919 -1.4331
 7999SOL     OW25212   4.191   5.865   1.126  0.4966 -0.2761 -0.0798
 7999SOL    HW125213   4.261   5.931   1.126 -0.4587  0.7614 -0.0044
 7999SOL    HW225214   4.176   5.847   1.219  1.2142 -1.1169 -0.1162
 8000SOL     OW25215   3.993   6.863   1.647 -0.1373 -0.3684 -0.2669
 8000SOL    HW125216   4.069   6.888   1.700 -0.8574  0.3404  0.4469
 8000SOL    HW225217   3.917   6.885   1.701 -0.8626 -2.0432 -0.5229
 8001SOL     OW25218   2.356   6.787   8.383 -0.3737  0.5573 -0.4175
 8001SOL    HW125219   2.268   6.771   8.350 -1.0759 -0.0021  1.6292
 8001SOL    HW225220   2.347   6.858   8.446  0.7254  0.7931 -0.5020
 8002SOL     OW25221   2.601   7.373   1.210 -0.5790  0.5117 -0.3562
 8002SOL    HW125222   2.564   7.381   1.299 -0.5220  0.4475 -0.3273
 8002SOL    HW225223   2.687   7.414   1.217  0.2499 -1.2061  0.1043
 8003SOL     OW25224   2.408   6.582   1.412  0.1151  0.5551 -0.0601
 8003SOL    HW125225   2.410   6.527   1.490  2.2016 -0.4550 -0.7531
 8003SOL    HW225226   2.438   6.668   1.442  0.8802  0.1768  0.2835
 8004SOL     OW25227   2.980   6.452   0.301  0.0722  0.1341 -0.0777
 8004SOL    HW125228   3.044   6.517   0.272  0.3473 -0.0069  0.2110
 8004SOL    HW225229   3.010   6.370   0.262 -0.4582  0.2331 -0.7146
 8005SOL     OW25230   3.777   6.787   0.613  0.3182  0.2797  0.0320
 8005SOL    HW125231   3.857   6.778   0.560  2.1181  2.4662  2.1184
 8005SOL    HW225232   3.775   6.709   0.668  1.9767  0.9202  1.0640
 8006SOL     OW25233   2.174   6.727   1.842 -0.5640 -0.0130 -0.3432
 8006SOL    HW125234   2.173   6.636   1.812 -3.9340 -0.3829  0.4703
 8006SOL    HW225235   2.110   6.729   1.914  1.7547  2.3547  1.8874
 8007SOL     OW25236   1.705   6.617   0.749  0.6616  0.1063 -0.3029
 8007SOL    HW125237   1.781   6.661   0.710 -0.2747  2.5316  0.4115
 8007SOL    HW225238   1.723   6.616   0.843  0.6726 -1.1345 -0.3006
 8008SOL     OW25239   2.502   7.453   1.475 -0.1843  0.1915  0.8633
 8008SOL    HW125240   2.553   7.409   1.543  0.6234 -0.2176  0.0111
 8008SOL    HW225241   2.519   7.546   1.488 -0.2688  0.1385  1.3917
 8009SOL     OW25242   3.912   5.907   1.414  0.1893 -0.3071  0.3655
 8009SOL    HW125243   3.952   5.847   1.351  0.4144 -1.1338  1.2604
 8009SOL    HW225244   3.883   5.850   1.485  0.7670  0.6762  1.4258
 8010SOL     OW25245   2.480   5.933   0.480 -0.1836 -0.1797  0.0351
 8010SOL    HW125246   2.513   5.991   0.549 -0.1628  0.2673 -0.3360
 8010SOL    HW225247   2.557   5.883   0.452 -0.0576  0.0733 -0.0755
 8011SOL     OW25248   3.724   7.243   1.200 -0.2254  0.4901 -0.1692
 8011SOL    HW125249   3.764   7.210   1.120 -0.0626 -1.4996  0.6961
 8011SOL    HW225250   3.724   7.169   1.261  1.3775  2.4049  2.3698
 8012SOL     OW25251   2.288   6.015   1.387 -1.2834  0.0523  0.2080
 8012SOL    HW125252   2.344   6.008   1.464 -1.1839 -1.9210  0.0177
 8012SOL    HW225253   2.287   6.108   1.365 -0.6609  0.5356  2.0952
 8013SOL     OW25254   2.357   6.921   0.272 -0.1533  0.3808  0.1499
 8013SOL    HW125255   2.412   6.867   0.328 -0.7825 -0.1163  0.2987
 8013SOL    HW225256   2.359   7.007   0.314 -0.1931  0.1465  0.6458
 8014SOL     OW25257   3.332   5.861   1.369  0.7490 -0.1731 -0.7384
 8014SOL    HW125258   3.425   5.849   1.387  0.8322  0.8563 -0.3995
 8014SOL    HW225259   3.300   5.913   1.443 -0.2502 -1.0928 -0.5022
 8015SOL     OW25260   3.118   6.131   1.025  0.3173  0.2194  0.2821
 8015SOL    HW125261   3.108   6.052   0.972 -2.3659  1.0049 -0.5617
 8015SOL    HW225262   3.111   6.203   0.962 -1.4503  1.1567  1.4676
 8016SOL     OW25263   2.699   7.113   0.240 -0.3780 -0.1209  0.1816
 8016SOL    HW125264   2.657   7.199   0.233 -0.2652 -0.1877 -2.4680
 8016SOL    HW225265   2.649   7.068   0.309 -1.8808  1.2873  0.0937
 8017SOL     OW25266   2.165   7.090   0.807 -0.2598 -0.2488  0.0114
 8017SOL    HW125267   2.122   7.061   0.887  1.1189  0.0688  0.9128
 8017SOL    HW225268   2.101   7.076   0.738 -2.0532  0.8783  1.3713
 8018SOL     OW25269   3.532   5.748   0.315  0.2216 -0.4196  0.2507
 8018SOL    HW125270   3.564   5.708   0.396  0.5191  0.7347  0.7256
 8018SOL    HW225271   3.589   5.824   0.302 -1.5619  1.0210  0.4779
 8019SOL     OW25272   3.445   6.599   0.860 -0.4074  0.3012  0.5141
 8019SOL    HW125273   3.423   6.688   0.889  1.2493  1.5282 -1.6607
 8019SOL    HW225274   3.512   6.570   0.922 -0.7003  0.6993  1.0302
 8020SOL     OW25275   3.983   5.519   1.177 -0.4001 -0.3473 -0.2081
 8020SOL    HW125276   3.925   5.595   1.183  0.1072  0.0806 -0.6280
 8020SOL    HW225277   4.061   5.545   1.226 -0.2081 -0.5814 -0.3910
 8021SOL     OW25278   2.473   6.332   0.339 -0.2476 -0.5761  0.0129
 8021SOL    HW125279   2.562   6.306   0.362 -0.6762 -0.4569  1.9484
 8021SOL    HW225280   2.420   6.254   0.357 -0.8019 -0.0264  0.7949
 8022SOL     OW25281   2.428   7.557   0.176  0.7400  0.2415 -0.0205
 8022SOL    HW125282   2.358   7.619   0.155  1.6016  0.7592 -1.5023
 8022SOL    HW225283   2.384   7.489   0.228 -0.3836  1.6547  0.9747
 8023SOL     OW25284   2.170   6.078   1.847  0.4870 -0.0111  0.2202
 8023SOL    HW125285   2.247   6.120   1.885 -1.6599  2.3300  2.3315
 8023SOL    HW225286   2.120   6.046   1.922 -1.0632 -0.6056 -0.9958
 8024SOL     OW25287   1.708   5.943   2.797  0.1060 -0.2437  0.4803
 8024SOL    HW125288   1.664   5.885   2.859  0.2544 -0.9604 -0.0758
 8024SOL    HW225289   1.726   6.022   2.847 -0.1859 -0.6412  1.2253
 8025SOL     OW25290   1.834   6.247   2.387  0.3129 -0.3695 -0.2193
 8025SOL    HW125291   1.755   6.204   2.352 -0.8677  1.6269 -0.1611
 8025SOL    HW225292   1.813   6.262   2.479  1.2404 -0.8010  0.0691
 8026SOL     OW25293   2.118   7.121   2.768 -0.2208 -0.7137 -0.2423
 8026SOL    HW125294   2.163   7.160   2.692  0.8007 -1.5322 -0.0794
 8026SOL    HW225295   2.188   7.105   2.831 -1.1497  0.6510  1.2039
 8027SOL     OW25296   3.919   6.951   2.880  0.6308  0.1742  0.2636
 8027SOL    HW125297   3.937   6.929   2.789 -0.3884 -1.8096  0.4812
 8027SOL    HW225298   3.986   6.905   2.930  1.2726  1.3682  0.5404
 8028SOL     OW25299   2.637   6.567   2.396 -0.0663  0.3948  0.4362
 8028SOL    HW125300   2.710   6.594   2.451  0.9596 -0.1741 -0.5938
 8028SOL    HW225301   2.654   6.609   2.311 -0.7046 -0.0863  0.0583
 8029SOL     OW25302   3.264   6.559   1.434  0.0018 -0.1645 -0.2550
 8029SOL    HW125303   3.303   6.474   1.455 -1.4442 -0.9365 -0.5730
 8029SOL    HW225304   3.330   6.602   1.379  0.5968 -1.2450 -0.4218
 8030SOL     OW25305   2.401   7.015   2.624 -0.4241 -0.0299 -0.1999
 8030SOL    HW125306   2.459   7.025   2.700 -1.3162  1.8109  0.2801
 8030SOL    HW225307   2.324   6.971   2.659 -1.1480  1.4789  0.1596
 8031SOL     OW25308   2.484   6.029   3.326 -0.1277  0.5816 -0.0279
 8031SOL    HW125309   2.488   5.957   3.263 -1.5859  0.5486 -0.1162
 8031SOL    HW225310   2.573   6.062   3.330  0.3814 -0.6467 -0.6726
 8032SOL     OW25311   2.453   6.678   2.571 -0.1691 -0.0811  0.0635
 8032SOL    HW125312   2.495   6.619   2.509 -0.6613 -0.8861  0.4902
 8032SOL    HW225313   2.524   6.704   2.630  0.2018  0.3322 -0.5479
 8033SOL     OW25314   2.433   6.716   3.554 -0.2313  0.2042 -0.2889
 8033SOL    HW125315   2.402   6.802   3.525 -1.9832  0.3111  1.6838
 8033SOL    HW225316   2.488   6.685   3.482 -0.8759  2.2625 -1.7547
 8034SOL     OW25317   1.642   7.291   2.584  0.4564  0.0596 -0.2433
 8034SOL    HW125318   1.664   7.296   2.491 -1.2429  2.7008 -0.6328
 8034SOL    HW225319   1.547   7.284   2.586  0.5270 -0.9580  1.3315
 8035SOL     OW25320   3.113   7.467   3.537 -0.1507 -0.2138 -0.3031
 8035SOL    HW125321   3.167   7.529   3.489 -0.1012 -1.1948 -1.5920
 8035SOL    HW225322   3.106   7.391   3.478 -1.4248 -0.8289  0.5878
 8036SOL     OW25323   2.130   5.961   3.423 -0.2389 -0.4132 -0.3075
 8036SOL    HW125324   2.134   5.876   3.379  0.2716  0.0114 -1.0954
 8036SOL    HW225325   2.205   6.010   3.389 -0.2659  0.2031  0.4704
 8037SOL     OW25326   3.397   5.781   2.604  0.0459 -0.1982  0.8013
 8037SOL    HW125327   3.360   5.722   2.538 -0.8560 -1.1536  2.1132
 8037SOL    HW225328   3.397   5.867   2.561  0.1060 -0.8953 -0.6660
 8038SOL     OW25329   2.226   7.268   2.064 -0.5296 -0.3913  0.5449
 8038SOL    HW125330   2.236   7.349   2.115 -0.1478 -0.5536  0.7318
 8038SOL    HW225331   2.212   7.200   2.129 -1.4831 -0.3927  0.3548
 8039SOL     OW25332   3.142   7.281   3.347 -0.1283 -0.0334 -0.3416
 8039SOL    HW125333   3.152   7.202   3.294 -0.7223 -0.0296 -0.4658
 8039SOL    HW225334   3.113   7.348   3.285  1.1692  0.5019 -0.3947
 8040SOL     OW25335   2.281   6.912   2.048  0.2148  0.6416 -0.4049
 8040SOL    HW125336   2.239   6.965   1.980 -0.8105  0.7438  0.2869
 8040SOL    HW225337   2.260   6.822   2.025  0.7822  0.6063 -0.8089
 8041SOL     OW25338   2.028   6.602   2.882  0.4508  0.4564  0.5464
 8041SOL    HW125339   2.061   6.646   2.804  1.2817  1.5593  1.4797
 8041SOL    HW225340   2.069   6.649   2.955  0.5890 -1.2486  1.6266
 8042SOL     OW25341   2.530   7.511   2.922 -0.1113 -0.4954 -0.0130
 8042SOL    HW125342   2.516   7.536   3.013  0.2907  0.5817 -0.2305
 8042SOL    HW225343   2.504   7.418   2.918 -0.8456 -0.3541  1.0174
 8043SOL     OW25344   2.416   6.250   1.934 -0.4716  0.3440  0.1832
 8043SOL    HW125345   2.501   6.209   1.949 -0.2094  0.7395 -0.2002
 8043SOL    HW225346   2.383   6.270   2.022 -1.8171 -3.0430  0.5953
 8044SOL     OW25347   3.163   5.417   3.268  1.3414 -0.0702  0.2485
 8044SOL    HW125348   3.254   5.446   3.265  1.3351 -0.1117 -0.6321
 8044SOL    HW225349   3.112   5.495   3.246  1.2338 -0.3328 -0.4516
 8045SOL     OW25350   2.211   6.428   2.499  0.0124 -0.5473 -0.1505
 8045SOL    HW125351   2.187   6.337   2.514 -0.2915 -0.5327 -0.5208
 8045SOL    HW225352   2.305   6.425   2.479 -0.1938 -0.9081 -1.1607
 8046SOL     OW25353   4.057   7.832   2.167  0.0984  0.3007  0.7813
 8046SOL    HW125354   4.116   7.788   2.106  0.1944  2.3252 -0.6679
 8046SOL    HW225355   4.108   7.841   2.248  1.0104  0.1307  0.2288
 8047SOL     OW25356   2.316   6.913   1.730  0.1215 -0.3066  0.3106
 8047SOL    HW125357   2.270   6.982   1.780 -1.1165  0.2007 -1.4407
 8047SOL    HW225358   2.266   6.833   1.749 -0.1381 -0.1809  0.1663
 8048SOL     OW25359   3.765   6.305   2.604  0.1611 -0.9714  0.2012
 8048SOL    HW125360   3.695   6.244   2.580  1.2201 -1.8292 -0.8406
 8048SOL    HW225361   3.844   6.252   2.606  1.1595  0.3733 -0.9294
 8049SOL     OW25362   3.734   6.566   2.522  0.0452  0.1207 -0.3345
 8049SOL    HW125363   3.722   6.472   2.532 -1.3125  0.2378 -0.6362
 8049SOL    HW225364   3.649   6.598   2.491 -0.0275  1.6536  1.2712
 8050SOL     OW25365   2.194   6.521   3.477  0.6057  0.8379  0.2154
 8050SOL    HW125366   2.280   6.546   3.510  1.0033 -1.0581  0.7167
 8050SOL    HW225367   2.151   6.478   3.551 -0.4637  1.0357 -0.2709
 8051SOL     OW25368   2.609   7.160   2.390  0.0911  0.2387 -0.3734
 8051SOL    HW125369   2.529   7.108   2.381  1.3158 -1.9015  0.2601
 8051SOL    HW225370   2.611   7.215   2.312 -1.7219  0.0065 -0.6413
 8052SOL     OW25371   3.136   6.374   2.810 -0.0767  0.1257  0.3663
 8052SOL    HW125372   3.153   6.289   2.770 -1.0487  0.4062 -0.6829
 8052SOL    HW225373   3.146   6.359   2.904 -1.0189 -1.3324  0.2514
 8053SOL     OW25374   2.483   6.332   2.496  0.1698 -0.0903 -0.4259
 8053SOL    HW125375   2.551   6.398   2.480  0.8015 -0.5107  0.3883
 8053SOL    HW225376   2.502   6.262   2.433  0.0400  0.1094 -0.6899
 8054SOL     OW25377   2.168   6.414   3.207 -0.0165  0.0208  0.4132
 8054SOL    HW125378   2.143   6.471   3.280 -1.0293 -1.4249  1.2462
 8054SOL    HW225379   2.262   6.399   3.220  0.1395  0.9771  0.5171
 8055SOL     OW25380   3.202   6.939   2.434 -0.4104  0.2436  1.0278
 8055SOL    HW125381   3.242   6.996   2.368  0.3948  1.8294  2.7929
 8055SOL    HW225382   3.276   6.905   2.484 -1.0000 -1.0800  1.0566
 8056SOL     OW25383   2.748   7.579   3.557 -0.0065  0.2781  0.6705
 8056SOL    HW125384   2.766   7.555   3.466 -0.6483  0.8168  0.3932
 8056SOL    HW225385   2.756   7.497   3.606 -3.3301 -0.8417 -0.3999
 8057SOL     OW25386   2.411   5.998   3.975 -0.5155  0.2123 -0.1707
 8057SOL    HW125387   2.317   5.998   3.992 -0.9096  1.3704 -2.0615
 8057SOL    HW225388   2.427   5.918   3.925 -0.6521  0.4429 -0.5847
 8058SOL     OW25389   3.317   6.864   2.800 -0.2840  0.2607 -0.1471
 8058SOL    HW125390   3.364   6.872   2.717  0.7679 -0.5774  0.3446
 8058SOL    HW225391   3.249   6.799   2.783  1.9474 -2.4092  0.4429
 8059SOL     OW25392   3.425   7.727   2.229 -0.4641  0.2361  0.1306
 8059SOL    HW125393   3.468   7.811   2.218 -1.3075  0.7079  0.3062
 8059SOL    HW225394   3.492   7.662   2.208 -0.1417  0.9654 -1.2427
 8060SOL     OW25395   2.638   6.141   2.047  0.0943  0.0428 -0.3935
 8060SOL    HW125396   2.604   6.059   2.084 -0.2172  0.7293  0.9083
 8060SOL    HW225397   2.731   6.140   2.067  0.0070  0.2084  0.0313
 8061SOL     OW25398   3.263   6.001   3.294 -0.2149 -0.1874  0.7175
 8061SOL    HW125399   3.343   5.948   3.295 -0.6436 -0.8875 -0.0631
 8061SOL    HW225400   3.233   5.997   3.203 -1.0108  0.2514  0.9520
 8062SOL     OW25401   3.408   7.522   1.815 -0.3436  0.0284 -0.3979
 8062SOL    HW125402   3.481   7.460   1.825  1.2498  1.5993 -1.5635
 8062SOL    HW225403   3.351   7.482   1.750 -1.0902 -1.6554  1.1902
 8063SOL     OW25404   2.751   5.626   3.648  0.5149 -0.5874  0.2697
 8063SOL    HW125405   2.759   5.719   3.627  0.2970 -0.7758 -0.7224
 8063SOL    HW225406   2.822   5.609   3.710  0.3484  0.3086  0.7246
 8064SOL     OW25407   2.727   6.132   3.425 -0.5540  0.4838 -0.0874
 8064SOL    HW125408   2.701   6.161   3.512  1.0908 -0.1835  0.6715
 8064SOL    HW225409   2.787   6.200   3.393  1.3661 -0.7574  0.6808
 8065SOL     OW25410   2.765   6.649   3.543 -1.0304 -0.3646  0.4324
 8065SOL    HW125411   2.684   6.606   3.517 -0.1089 -1.3343 -0.9535
 8065SOL    HW225412   2.834   6.585   3.524  0.1319  0.6740  0.9610
 8066SOL     OW25413   3.045   6.014   2.769  0.4345 -0.1570  0.1253
 8066SOL    HW125414   3.042   5.931   2.722  0.5094  0.1806 -0.4769
 8066SOL    HW225415   3.104   5.998   2.843 -0.1170 -0.8486  0.4218
 8067SOL     OW25416   3.080   5.952   2.401 -0.0700 -0.0125 -0.1146
 8067SOL    HW125417   3.092   5.866   2.361 -0.9322  0.5873 -1.7263
 8067SOL    HW225418   3.160   5.966   2.452  0.9314 -0.9391 -1.3829
 8068SOL     OW25419   1.791   6.533   2.690  0.2375 -0.1181  0.2242
 8068SOL    HW125420   1.863   6.563   2.746 -0.2147 -0.3759  0.9583
 8068SOL    HW225421   1.815   6.564   2.603  1.0032  0.2167  0.5370
 8069SOL     OW25422   1.647   7.506   3.124  0.3711 -0.3777 -0.3095
 8069SOL    HW125423   1.684   7.592   3.104  0.5662 -0.1087  1.0631
 8069SOL    HW225424   1.573   7.525   3.182  0.4656 -1.1298  0.0727
 8070SOL     OW25425   2.444   5.811   2.347  0.1914 -0.4711 -0.1648
 8070SOL    HW125426   2.519   5.790   2.402  0.5728 -1.5963 -1.0799
 8070SOL    HW225427   2.446   5.746   2.277 -1.3158 -0.1831 -0.5214
 8071SOL     OW25428   3.789   6.233   3.586 -0.1641 -0.1593 -0.1531
 8071SOL    HW125429   3.712   6.280   3.555 -0.3809  0.3341  1.0664
 8071SOL    HW225430   3.818   6.182   3.511 -0.7314  0.8805 -1.1065
 8072SOL     OW25431   3.347   6.386   2.415 -0.1071  0.2220 -0.0716
 8072SOL    HW125432   3.280   6.370   2.348 -1.3817  1.1734  0.9335
 8072SOL    HW225433   3.318   6.334   2.490  0.6496  0.1243  0.1603
 8073SOL     OW25434   2.406   5.912   2.692  0.0442  0.3457  0.0973
 8073SOL    HW125435   2.420   5.921   2.786  0.5885  0.3051  0.0243
 8073SOL    HW225436   2.491   5.933   2.653  0.3151 -1.3001 -0.2865
 8074SOL     OW25437   2.954   6.938   1.915  0.5731 -0.4293  0.0145
 8074SOL    HW125438   3.020   6.971   1.855  0.4667  0.3686  0.3297
 8074SOL    HW225439   2.964   6.990   1.995 -1.3189  0.6644 -0.3939
 8075SOL     OW25440   2.151   7.734   2.540 -0.0511 -0.0240  0.0237
 8075SOL    HW125441   2.219   7.791   2.576 -0.3123 -0.5000  1.3572
 8075SOL    HW225442   2.157   7.654   2.592 -1.9931  0.1371  0.5926
 8076SOL     OW25443   3.505   6.630   2.388 -0.1807  0.0226  0.4228
 8076SOL    HW125444   3.553   6.617   2.306 -1.3895  0.9332 -0.4546
 8076SOL    HW225445   3.421   6.588   2.374 -0.8128  1.1385  0.7814
 8077SOL     OW25446   2.494   7.209   3.244  0.0750 -0.1541 -0.1424
 8077SOL    HW125447   2.573   7.167   3.211  1.0315  2.1654 -1.0193
 8077SOL    HW225448   2.495   7.191   3.338  0.8162 -1.4173 -0.3676
 8078SOL     OW25449   1.999   6.436   1.650  0.7550 -0.8909 -1.1895
 8078SOL    HW125450   1.947   6.417   1.728  0.9054 -0.1134 -0.8891
 8078SOL    HW225451   2.089   6.441   1.682  0.8616 -0.9286 -1.4819
 8079SOL     OW25452   3.157   6.231   2.568 -0.2015 -0.0115 -0.1427
 8079SOL    HW125453   3.076   6.219   2.518 -0.4800 -0.7303  0.4656
 8079SOL    HW225454   3.180   6.143   2.597  0.4653  0.2768  0.2229
 8080SOL     OW25455   2.054   6.867   3.009 -0.5251 -0.6309  0.0076
 8080SOL    HW125456   2.019   6.869   2.919 -0.0010  0.7058 -0.1968
 8080SOL    HW225457   1.985   6.907   3.062 -0.1067  0.2367 -0.0925
 8081SOL     OW25458   3.125   7.171   2.249 -0.1160  0.2724 -0.0198
 8081SOL    HW125459   3.213   7.133   2.248 -0.1831  0.0872 -1.4300
 8081SOL    HW225460   3.132   7.247   2.191 -1.1159 -0.3454 -0.9936
 8082SOL     OW25461   2.126   5.678   3.344 -0.6835  0.5703  0.2765
 8082SOL    HW125462   2.145   5.591   3.309 -0.4057  1.2456 -1.3268
 8082SOL    HW225463   2.030   5.684   3.341 -0.7409  0.1240  0.9324
 8083SOL     OW25464   3.524   7.252   2.221 -0.1163  0.0615  0.1254
 8083SOL    HW125465   3.482   7.188   2.164 -0.7333  0.3719  0.2219
 8083SOL    HW225466   3.558   7.318   2.161  1.3721 -0.8247 -0.0450
 8084SOL     OW25467   2.376   7.484   1.775 -0.3860  0.7663  0.2957
 8084SOL    HW125468   2.349   7.516   1.861  0.8977 -0.7301  1.3065
 8084SOL    HW225469   2.296   7.488   1.722 -1.4919  0.6426  1.8841
 8085SOL     OW25470   3.352   5.643   2.075 -0.0585  0.1568 -0.0212
 8085SOL    HW125471   3.385   5.581   2.009  1.0007 -1.1638  1.6609
 8085SOL    HW225472   3.257   5.634   2.071  0.0379 -0.7800 -0.5687
 8086SOL     OW25473   1.689   7.116   2.786  0.0618  0.3118  0.0978
 8086SOL    HW125474   1.622   7.119   2.855  0.7774  0.6525  0.7931
 8086SOL    HW225475   1.691   7.205   2.751 -0.4214  0.0948 -0.4809
 8087SOL     OW25476   2.490   7.609   2.414  0.0632 -0.0256  0.1355
 8087SOL    HW125477   2.567   7.553   2.425 -0.6440 -0.9901  0.2439
 8087SOL    HW225478   2.450   7.612   2.501 -0.6771 -0.4964 -0.1808
 8088SOL     OW25479   2.679   6.633   1.745  0.2939  0.4091 -0.1142
 8088SOL    HW125480   2.770   6.606   1.749  0.0095 -1.0749 -2.0833
 8088SOL    HW225481   2.630   6.557   1.777 -0.3191  0.3371 -1.1579
 8089SOL     OW25482   3.238   5.647   3.542 -0.0907  0.0161 -0.1714
 8089SOL    HW125483   3.152   5.688   3.543 -0.5073 -0.8224 -0.4321
 8089SOL    HW225484   3.292   5.703   3.598 -0.3942  1.3943 -1.2103
 8090SOL     OW25485   2.631   5.998   2.590  0.1182 -0.0054 -0.0805
 8090SOL    HW125486   2.715   5.959   2.567  0.2972  0.1346  0.3383
 8090SOL    HW225487   2.611   6.056   2.517  0.7774  0.5820  0.1891
 8091SOL     OW25488   2.790   5.665   3.227 -0.0691 -0.0101  0.3340
 8091SOL    HW125489   2.787   5.582   3.275  0.4444  0.1099  0.5797
 8091SOL    HW225490   2.793   5.732   3.294  0.3713  0.1698  0.1390
 8092SOL     OW25491   2.134   7.472   2.625  0.5026 -0.2103 -0.4240
 8092SOL    HW125492   2.206   7.414   2.602  1.1989  0.6141 -0.3595
 8092SOL    HW225493   2.110   7.448   2.714  0.2683 -0.9133 -0.6722
 8093SOL     OW25494   3.191   6.379   3.299 -0.3134 -0.3066  0.5012
 8093SOL    HW125495   3.209   6.473   3.290 -0.7075 -0.4058 -2.7057
 8093SOL    HW225496   3.267   6.345   3.347  1.9777  1.1389 -1.7850
 8094SOL     OW25497   2.292   7.255   2.532  0.2268  0.2060  0.1452
 8094SOL    HW125498   2.370   7.206   2.557  0.2311 -0.3536 -0.9207
 8094SOL    HW225499   2.278   7.234   2.439 -2.8093 -1.9413  0.9455
 8095SOL     OW25500   3.140   5.753   2.688  0.1194  0.0808 -0.7537
 8095SOL    HW125501   3.233   5.747   2.666  0.1974  1.9679 -1.1283
 8095SOL    HW225502   3.124   5.679   2.747  1.9436 -0.0501 -0.3699
 8096SOL     OW25503   2.269   5.991   2.274  0.1819 -0.1361  0.2015
 8096SOL    HW125504   2.193   5.935   2.291 -0.2416  0.9911  2.2939
 8096SOL    HW225505   2.344   5.938   2.302  0.1649 -1.0361 -1.3434
 8097SOL     OW25506   3.334   6.909   1.951 -0.2500  0.2440  0.2609
 8097SOL    HW125507   3.335   6.815   1.932 -0.7968  0.0816  0.9784
 8097SOL    HW225508   3.282   6.947   1.880 -1.1730 -0.1838  0.6868
 8098SOL     OW25509   1.945   5.689   2.463 -0.0371  0.2852  0.1654
 8098SOL    HW125510   1.941   5.595   2.444  0.5492  0.5268 -1.3416
 8098SOL    HW225511   2.025   5.699   2.515  0.8747  0.1301 -1.1390
 8099SOL     OW25512   3.242   5.676   2.388  0.0588 -0.7127  0.1467
 8099SOL    HW125513   3.197   5.592   2.402 -0.1871 -0.5506  0.3357
 8099SOL    HW225514   3.221   5.699   2.297 -3.0306  0.9696  1.1166
 8100SOL     OW25515   3.219   6.240   3.054  0.1834  0.3430  0.1392
 8100SOL    HW125516   3.215   6.145   3.043  1.7129  0.1081  1.2823
 8100SOL    HW225517   3.195   6.254   3.145  2.1939  0.7995  0.6470
 8101SOL     OW25518   2.986   7.006   2.615 -0.0778  0.1650 -0.2961
 8101SOL    HW125519   3.052   6.978   2.551 -0.3048 -0.4077 -0.2824
 8101SOL    HW225520   2.902   6.987   2.573 -0.2532  1.6488 -0.6517
 8102SOL     OW25521   2.342   7.019   2.302 -0.4113  0.0639  0.1806
 8102SOL    HW125522   2.265   6.992   2.353 -1.5824 -0.2730 -1.6560
 8102SOL    HW225523   2.353   6.949   2.238  1.1706  0.3433  0.1261
 8103SOL     OW25524   3.286   7.452   2.507 -0.8757 -0.3885 -0.0589
 8103SOL    HW125525   3.232   7.373   2.516 -0.5670 -0.6262 -0.2452
 8103SOL    HW225526   3.224   7.521   2.483 -1.1185 -0.6226 -0.1097
 8104SOL     OW25527   2.959   5.745   1.607  0.0401 -0.1073  0.2296
 8104SOL    HW125528   2.874   5.746   1.651 -0.1538 -0.7947 -0.1082
 8104SOL    HW225529   2.955   5.668   1.550  0.3084  0.7343 -0.9603
 8105SOL     OW25530   1.879   6.101   3.413 -0.7238  0.3909  0.2333
 8105SOL    HW125531   1.831   6.037   3.464 -1.8598 -1.4194 -2.8118
 8105SOL    HW225532   1.971   6.072   3.418 -1.2024 -1.5715 -1.0149
 8106SOL     OW25533   2.105   6.133   3.046 -0.1534 -0.5600  0.0311
 8106SOL    HW125534   2.041   6.193   3.085  1.1446  0.3576  0.8078
 8106SOL    HW225535   2.102   6.152   2.952  2.4922  3.1269  0.4879
 8107SOL     OW25536   2.415   6.187   2.760  0.0849 -0.3250  0.3019
 8107SOL    HW125537   2.408   6.236   2.678 -0.1221 -0.8965 -0.0258
 8107SOL    HW225538   2.427   6.096   2.733  0.4467 -0.4606  0.9062
 8108SOL     OW25539   2.889   5.805   2.585  0.3268  0.0079  0.3144
 8108SOL    HW125540   2.926   5.829   2.499  1.5922  1.3950  1.1849
 8108SOL    HW225541   2.963   5.767   2.633 -0.2171 -0.2134  0.9893
 8109SOL     OW25542   3.424   6.876   2.548 -0.5325 -0.0933 -0.0808
 8109SOL    HW125543   3.492   6.942   2.548  0.3843 -1.0120  0.3401
 8109SOL    HW225544   3.463   6.801   2.503 -1.0012 -0.8757  0.7767
 8110SOL     OW25545   2.861   6.156   2.564  0.1009 -0.5540 -0.0673
 8110SOL    HW125546   2.799   6.187   2.630 -2.0612 -0.0930 -2.1942
 8110SOL    HW225547   2.907   6.084   2.607 -1.8553 -0.8758  1.6529
 8111SOL     OW25548   3.774   5.885   2.404 -0.1311 -0.4984  0.3776
 8111SOL    HW125549   3.688   5.873   2.363 -0.3914 -1.2402  1.1181
 8111SOL    HW225550   3.826   5.810   2.375  1.3547  1.4898 -2.6338
 8112SOL     OW25551   2.147   7.492   1.637 -0.5413 -0.1324  0.1862
 8112SOL    HW125552   2.136   7.398   1.622 -0.1065 -0.0385 -0.8041
 8112SOL    HW225553   2.132   7.532   1.551 -0.5267  0.6834  0.5552
 8113SOL     OW25554   4.029   6.936   2.452 -0.4588 -0.0730 -0.1640
 8113SOL    HW125555   4.064   6.970   2.369  0.4607 -1.6679 -0.4741
 8113SOL    HW225556   4.090   6.968   2.519  0.5203 -1.2182 -0.4751
 8114SOL     OW25557   3.119   6.330   2.093  0.6671  0.3403  0.3762
 8114SOL    HW125558   3.142   6.351   2.002  2.6528  0.9636  0.9622
 8114SOL    HW225559   3.151   6.241   2.106 -0.6889 -0.1950  0.1444
 8115SOL     OW25560   2.119   5.725   1.833 -0.1644  0.4182 -0.0921
 8115SOL    HW125561   2.045   5.785   1.829 -1.0894 -0.5678  1.3203
 8115SOL    HW225562   2.081   5.639   1.814 -0.0342 -0.5446  3.3345
 8116SOL     OW25563   3.125   6.812   3.616 -0.1598 -0.5541  0.4768
 8116SOL    HW125564   3.086   6.899   3.614 -0.9587 -0.9020  0.7344
 8116SOL    HW225565   3.206   6.823   3.666 -0.7576 -0.1625  1.3847
 8117SOL     OW25566   2.308   7.080   2.947  0.0960 -0.3195  0.2769
 8117SOL    HW125567   2.256   7.113   3.020  0.5280  1.5005 -0.1880
 8117SOL    HW225568   2.379   7.144   2.937  0.5243 -0.9761 -1.2053
 8118SOL     OW25569   3.116   7.048   3.174 -0.1419  0.4530 -0.8519
 8118SOL    HW125570   3.053   6.992   3.218  0.1873  1.2125  0.6655
 8118SOL    HW225571   3.192   6.992   3.160  0.4561  0.6250  1.2976
 8119SOL     OW25572   2.948   7.209   3.042 -0.1136  0.1216  0.2997
 8119SOL    HW125573   2.984   7.201   2.953  1.4239  0.1935  0.8926
 8119SOL    HW225574   3.000   7.148   3.094  0.5856  1.7782  1.6065
 8120SOL     OW25575   2.864   6.468   2.820 -0.3806 -0.7832 -0.0392
 8120SOL    HW125576   2.792   6.413   2.790 -0.8435  0.9108 -2.3600
 8120SOL    HW225577   2.943   6.428   2.783 -0.8542  0.7347 -3.0155
 8121SOL     OW25578   3.226   5.629   2.942  0.4453 -0.3602 -0.0393
 8121SOL    HW125579   3.145   5.594   2.980  0.5584 -1.0762 -0.4572
 8121SOL    HW225580   3.271   5.553   2.905  0.0419  0.3669 -2.1830
 8122SOL     OW25581   2.342   6.362   3.820  0.4780  0.1675  0.3181
 8122SOL    HW125582   2.263   6.356   3.766  0.2054 -0.6220  0.7789
 8122SOL    HW225583   2.408   6.313   3.771  0.6220  0.6339  0.0420
 8123SOL     OW25584   2.746   6.682   2.633  0.1332 -0.1030  0.2057
 8123SOL    HW125585   2.774   6.770   2.659  1.3996 -0.3298 -0.3148
 8123SOL    HW225586   2.784   6.624   2.699 -0.5888 -0.2840  0.4732
 8124SOL     OW25587   1.945   6.413   3.054 -0.6581  1.2271  0.4161
 8124SOL    HW125588   2.026   6.414   3.103  0.0760 -2.2810 -0.4721
 8124SOL    HW225589   1.958   6.477   2.984  0.3713  2.3891  1.6395
 8125SOL     OW25590   3.043   5.913   3.459  0.5790  0.8633 -0.0603
 8125SOL    HW125591   3.047   5.940   3.551  2.7182 -0.5483  0.3277
 8125SOL    HW225592   3.127   5.940   3.422  0.0138  0.8050 -1.4363
 8126SOL     OW25593   2.083   7.210   3.198  0.3500 -0.6443 -0.7093
 8126SOL    HW125594   2.015   7.175   3.141 -1.0679  0.5402  0.1860
 8126SOL    HW225595   2.096   7.143   3.265  0.9788 -1.4023 -1.5626
 8127SOL     OW25596   2.227   6.464   1.789  0.0593  0.7605 -0.3175
 8127SOL    HW125597   2.295   6.405   1.756 -0.5704 -0.6863  0.8645
 8127SOL    HW225598   2.256   6.487   1.877 -0.6491  0.6589 -0.0510
 8128SOL     OW25599   2.034   6.134   2.738 -0.3893 -0.1056 -0.3188
 8128SOL    HW125600   2.082   6.140   2.655  0.5696 -0.3469  0.1923
 8128SOL    HW225601   2.004   6.043   2.742 -1.6708  0.2791 -1.0499
 8129SOL     OW25602   3.591   6.960   2.230 -0.4458 -0.0260 -0.7418
 8129SOL    HW125603   3.597   7.055   2.225  0.8410 -0.1416 -2.1971
 8129SOL    HW225604   3.607   6.939   2.322  2.8630  1.0102 -0.9477
 8130SOL     OW25605   3.183   7.362   2.905 -0.0449 -0.6171  0.2816
 8130SOL    HW125606   3.271   7.361   2.944 -0.0681 -2.0945  0.3349
 8130SOL    HW225607   3.173   7.276   2.865 -0.5249  0.3888 -1.9199
 8131SOL     OW25608   3.569   6.256   2.302  0.6262 -0.1644  0.3518
 8131SOL    HW125609   3.493   6.310   2.322  0.6991  0.2756 -0.5386
 8131SOL    HW225610   3.533   6.179   2.258  0.7290  0.2623 -0.4925
 8132SOL     OW25611   1.926   7.184   2.967 -0.2468  0.5646 -0.0473
 8132SOL    HW125612   1.846   7.148   2.928 -0.9164 -0.0610  1.7969
 8132SOL    HW225613   1.995   7.160   2.905 -1.3718  0.4227 -1.2923
 8133SOL     OW25614   2.414   6.293   3.301 -0.5095 -0.0643 -0.2798
 8133SOL    HW125615   2.460   6.266   3.221  0.0368 -0.1050  0.0463
 8133SOL    HW225616   2.411   6.215   3.355  0.1287  0.2417  0.2139
 8134SOL     OW25617   3.349   6.198   3.476 -0.0608 -0.4336 -0.4763
 8134SOL    HW125618   3.341   6.134   3.547  0.3957 -0.6452 -0.6126
 8134SOL    HW225619   3.331   6.147   3.396 -0.8869 -0.1311 -0.4951
 8135SOL     OW25620   2.949   5.244   3.243  0.8642 -0.1533  0.1475
 8135SOL    HW125621   2.961   5.152   3.265  0.1009 -0.7116 -1.5871
 8135SOL    HW225622   3.027   5.287   3.276  1.7265 -1.5975  0.0714
 8136SOL     OW25623   2.532   5.812   3.820 -0.1002 -0.7192  0.0020
 8136SOL    HW125624   2.519   5.854   3.734  2.6264 -1.5689 -0.9248
 8136SOL    HW225625   2.627   5.812   3.832 -0.2223 -3.4141  1.6075
 8137SOL     OW25626   2.524   6.663   3.066 -0.2280  0.5261 -0.8780
 8137SOL    HW125627   2.452   6.718   3.038  0.7174  2.6844  0.7017
 8137SOL    HW225628   2.577   6.651   2.987  0.0876  2.8011 -1.0765
 8138SOL     OW25629   2.888   6.537   3.121  0.2721  0.1131 -0.2460
 8138SOL    HW125630   2.906   6.498   3.036 -3.9743 -0.2374 -1.2155
 8138SOL    HW225631   2.841   6.469   3.169 -0.5016  1.4568  0.9916
 8139SOL     OW25632   3.199   6.075   2.004  0.0039  0.3966 -0.0752
 8139SOL    HW125633   3.156   6.006   1.954 -0.6633 -0.6552  1.8203
 8139SOL    HW225634   3.290   6.075   1.975  0.2745 -2.0318  0.5987
 8140SOL     OW25635   1.633   5.920   3.209  0.2583  0.3719  0.1249
 8140SOL    HW125636   1.675   6.006   3.204  0.0401  0.4241 -0.9734
 8140SOL    HW225637   1.697   5.860   3.171 -0.0063  0.2089 -0.0646
 8141SOL     OW25638   1.465   7.304   2.884 -0.3107 -0.1886  0.6715
 8141SOL    HW125639   1.374   7.291   2.909 -0.7902 -0.3553 -1.0274
 8141SOL    HW225640   1.479   7.398   2.891 -0.6970 -0.1298  0.6511
 8142SOL     OW25641   1.719   6.172   2.970 -0.2925 -0.4203  0.9297
 8142SOL    HW125642   1.814   6.173   2.986 -0.1793 -2.4228  0.5552
 8142SOL    HW225643   1.682   6.206   3.051  0.7662  2.6358  0.2769
 8143SOL     OW25644   3.435   6.614   4.049 -0.1220 -0.0170 -0.0301
 8143SOL    HW125645   3.425   6.526   4.087  0.2892 -0.2607 -0.4842
 8143SOL    HW225646   3.487   6.600   3.970  1.0441  0.8014  0.5791
 8144SOL     OW25647   1.676   5.732   2.969 -0.7398 -0.5550 -0.2817
 8144SOL    HW125648   1.746   5.671   2.947 -0.8141 -0.7813  0.1084
 8144SOL    HW225649   1.596   5.679   2.966 -0.7936 -0.4988  0.1527
 8145SOL     OW25650   3.575   6.555   1.943  0.6816  0.2507  0.0744
 8145SOL    HW125651   3.484   6.547   1.973  0.4385  0.6042 -0.5308
 8145SOL    HW225652   3.600   6.644   1.970  0.8321  0.1702  0.1977
 8146SOL     OW25653   2.734   7.062   2.977  1.1099 -0.8596  0.0417
 8146SOL    HW125654   2.783   6.980   2.987  1.3832 -0.6997  0.0434
 8146SOL    HW225655   2.798   7.130   2.998  0.9876 -0.6307 -0.3112
 8147SOL     OW25656   2.862   6.944   3.371  0.8599 -0.3315  0.3982
 8147SOL    HW125657   2.779   6.915   3.334  0.6270  0.4831  0.2500
 8147SOL    HW225658   2.924   6.874   3.350  1.1988  0.8285 -3.1981
 8148SOL     OW25659   3.414   7.070   3.392 -0.0332 -0.5640  0.4226
 8148SOL    HW125660   3.414   6.990   3.444 -0.9740  0.0751  1.4382
 8148SOL    HW225661   3.447   7.043   3.306  3.1040 -1.3559  1.7360
 8149SOL     OW25662   2.283   6.743   3.780 -0.5544  0.5820 -0.0368
 8149SOL    HW125663   2.334   6.704   3.708 -0.4912 -1.5251  1.0502
 8149SOL    HW225664   2.346   6.799   3.826  0.5699 -1.1472  0.6512
 8150SOL     OW25665   3.115   5.438   1.708  0.0769 -0.0434 -0.7386
 8150SOL    HW125666   3.109   5.357   1.658  1.4030 -0.1280 -0.7913
 8150SOL    HW225667   3.031   5.445   1.753 -0.5256 -0.7908 -1.7219
 8151SOL     OW25668   3.263   6.697   1.797 -0.1585 -0.2032 -0.3425
 8151SOL    HW125669   3.255   6.611   1.756  0.8576 -1.3887  1.7980
 8151SOL    HW225670   3.224   6.757   1.733 -1.2653 -2.2646 -1.7342
 8152SOL     OW25671   2.534   7.225   2.878  0.1661 -0.1080 -0.1540
 8152SOL    HW125672   2.586   7.153   2.913  1.6586  0.5945 -0.8390
 8152SOL    HW225673   2.585   7.258   2.805  0.3125  2.6413  1.0637
 8153SOL     OW25674   2.175   6.653   2.637  0.6343  0.1023  0.4792
 8153SOL    HW125675   2.167   6.559   2.627  0.6793  0.0001  1.3354
 8153SOL    HW225676   2.261   6.675   2.602  0.0808  0.0330 -1.0056
 8154SOL     OW25677   2.133   6.160   2.454 -0.1473  0.8358  0.5553
 8154SOL    HW125678   2.171   6.093   2.397  1.8430  3.2772 -1.1772
 8154SOL    HW225679   2.041   6.164   2.428  0.3976  0.8701 -1.5399
 8155SOL     OW25680   2.781   5.843   3.432  0.5958  0.4935  0.5672
 8155SOL    HW125681   2.745   5.932   3.430  2.1749  1.1517 -0.6973
 8155SOL    HW225682   2.874   5.856   3.447  1.1148 -0.8332 -1.2394
 8156SOL     OW25683   3.223   5.944   3.002  0.1490 -0.6756 -0.1865
 8156SOL    HW125684   3.260   5.861   2.971  2.0193  0.6198 -1.6105
 8156SOL    HW225685   3.150   5.917   3.058  1.2460 -3.3079  0.1641
 8157SOL     OW25686   1.397   6.676   2.097  0.2594  0.4992 -0.2257
 8157SOL    HW125687   1.387   6.691   2.003  0.1487 -0.5615 -0.3924
 8157SOL    HW225688   1.373   6.585   2.110  2.7496 -0.1351  0.4443
 8158SOL     OW25689   1.851   7.629   2.568 -0.2996 -0.3191  0.1192
 8158SOL    HW125690   1.944   7.619   2.546  0.4086  1.2072  2.0775
 8158SOL    HW225691   1.846   7.604   2.660 -1.6483  0.5025  0.2890
 8159SOL     OW25692   1.950   7.321   2.455 -0.6080  0.3805 -0.3787
 8159SOL    HW125693   2.001   7.360   2.525 -1.3649  0.4681  0.1288
 8159SOL    HW225694   1.964   7.378   2.380  1.1986 -0.3835 -0.6765
 8160SOL     OW25695   2.852   6.241   3.074  0.5408 -0.1092 -0.2425
 8160SOL    HW125696   2.868   6.270   2.984 -1.0087  0.1140 -0.4684
 8160SOL    HW225697   2.785   6.173   3.066 -1.2246  1.4000  0.8594
 8161SOL     OW25698   1.797   6.261   2.650  0.3322  0.2496  0.1638
 8161SOL    HW125699   1.793   6.355   2.667  2.0021  0.3828 -0.0293
 8161SOL    HW225700   1.864   6.229   2.710 -1.8370 -1.2563  1.9077
 8162SOL     OW25701   2.164   5.833   3.695  0.3374  0.1482 -0.4316
 8162SOL    HW125702   2.169   5.872   3.608  1.2709 -0.9264 -0.8772
 8162SOL    HW225703   2.093   5.769   3.689 -0.6065  1.1265  0.0471
 8163SOL     OW25704   3.375   7.076   3.887 -0.0202  0.4400  0.1323
 8163SOL    HW125705   3.461   7.062   3.927  0.7574  0.6401 -1.3995
 8163SOL    HW225706   3.394   7.107   3.799 -1.6606 -0.6312 -0.6568
 8164SOL     OW25707   2.528   6.123   2.327 -0.0018  0.1605  0.6573
 8164SOL    HW125708   2.598   6.162   2.275 -0.0372  2.3166  2.1018
 8164SOL    HW225709   2.456   6.111   2.265  0.7917  0.2841 -0.3065
 8165SOL     OW25710   3.701   6.311   3.012  0.2067 -0.5559  0.2477
 8165SOL    HW125711   3.745   6.309   3.097  2.8631 -1.5378 -1.0395
 8165SOL    HW225712   3.716   6.224   2.974 -0.2698  0.0707 -1.5153
 8166SOL     OW25713   1.911   7.382   3.476  0.5766 -0.4652  0.5861
 8166SOL    HW125714   1.977   7.439   3.514  0.0665  0.2558  0.4011
 8166SOL    HW225715   1.903   7.310   3.539  2.1239 -1.0136  0.2192
 8167SOL     OW25716   2.395   6.180   3.018 -0.2041 -0.0465 -0.5430
 8167SOL    HW125717   2.304   6.165   3.040 -0.1409 -1.2866 -1.0319
 8167SOL    HW225718   2.395   6.198   2.924 -0.1637  2.2685 -0.1565
 8168SOL     OW25719   2.706   7.303   3.534 -0.4951 -0.6791  0.1201
 8168SOL    HW125720   2.750   7.272   3.454 -0.1284 -0.3283  0.1765
 8168SOL    HW225721   2.713   7.230   3.595 -1.1006 -1.0855 -0.2870
 8169SOL     OW25722   2.470   5.920   1.995  0.5374  0.2985  0.2340
 8169SOL    HW125723   2.436   5.899   1.908 -0.2230  0.0531  0.5795
 8169SOL    HW225724   2.523   5.844   2.019  0.9914  0.4957 -0.1333
 8170SOL     OW25725   2.019   6.705   3.349 -0.1547  0.9969 -0.3268
 8170SOL    HW125726   1.991   6.686   3.438 -0.3378  2.6964  0.0155
 8170SOL    HW225727   2.114   6.707   3.353 -0.1130 -0.1555 -0.4607
 8171SOL     OW25728   3.018   6.743   3.259  0.3085  0.1017 -0.0400
 8171SOL    HW125729   3.107   6.708   3.264  0.2938  0.0252 -0.2865
 8171SOL    HW225730   2.966   6.671   3.224  0.2294  0.2803 -0.2929
 8172SOL     OW25731   2.830   6.193   2.282  0.0956  0.4872 -0.1349
 8172SOL    HW125732   2.877   6.117   2.246  2.0853  1.0340  1.1473
 8172SOL    HW225733   2.844   6.187   2.376 -2.4631  0.7335  0.3391
 8173SOL     OW25734   3.561   7.666   2.490  0.5877  0.0833 -0.3853
 8173SOL    HW125735   3.493   7.687   2.425 -1.1275 -0.7783  1.0528
 8173SOL    HW225736   3.581   7.573   2.474  1.3670  0.2991 -0.7160
 8174SOL     OW25737   3.132   7.235   2.508 -0.4231 -0.4827 -0.1130
 8174SOL    HW125738   3.108   7.163   2.566  2.2880 -1.5282 -0.1210
 8174SOL    HW225739   3.114   7.202   2.420 -1.3525 -0.2185 -0.0305
 8175SOL     OW25740   1.894   6.914   2.773  0.1354  0.5605 -0.2320
 8175SOL    HW125741   1.950   6.976   2.727  0.2381  0.7762  0.1847
 8175SOL    HW225742   1.805   6.941   2.752  0.1720  1.2257  0.4451
 8176SOL     OW25743   2.446   7.192   3.533  0.6666 -0.0804 -0.7195
 8176SOL    HW125744   2.388   7.264   3.557  1.6327 -0.8113  5.8926
 8176SOL    HW225745   2.531   7.233   3.521  0.5523  0.2022 -0.5867
 8177SOL     OW25746   3.777   5.597   2.316 -0.1763  0.3116 -0.3429
 8177SOL    HW125747   3.869   5.594   2.288 -0.5065  0.5466 -1.4753
 8177SOL    HW225748   3.727   5.565   2.242 -1.0650  0.7719  0.0332
 8178SOL     OW25749   3.546   7.418   2.410  0.0321  0.0437 -0.1745
 8178SOL    HW125750   3.533   7.348   2.345  1.7716 -0.6599  0.1864
 8178SOL    HW225751   3.459   7.432   2.447 -0.5368 -1.2557 -0.9387
 8179SOL     OW25752   1.684   7.809   3.632  0.8184 -0.2596 -0.8006
 8179SOL    HW125753   1.690   7.734   3.574 -1.9179  0.7624 -2.6045
 8179SOL    HW225754   1.614   7.786   3.694  0.4714  0.4975 -0.9026
 8180SOL     OW25755   3.119   6.673   2.774 -0.2780  0.2024 -0.6522
 8180SOL    HW125756   3.129   6.586   2.812  1.4521 -0.0716 -1.6236
 8180SOL    HW225757   3.078   6.658   2.688 -1.6649  0.5584 -0.0887
 8181SOL     OW25758   2.590   6.843   3.263 -0.2232 -0.0055  0.0966
 8181SOL    HW125759   2.525   6.911   3.249  0.0563  0.2847  0.1933
 8181SOL    HW225760   2.572   6.778   3.196 -2.2824 -1.2047  1.6765
 8182SOL     OW25761   2.738   7.621   1.646  0.2044  0.5246  0.1565
 8182SOL    HW125762   2.652   7.617   1.603  0.0992 -1.2436  0.4615
 8182SOL    HW225763   2.756   7.715   1.654 -0.5645  0.9355 -2.1196
 8183SOL     OW25764   3.739   7.139   2.940  0.1086 -0.1771 -0.3767
 8183SOL    HW125765   3.781   7.223   2.918  0.4339  0.1233  1.2516
 8183SOL    HW225766   3.796   7.073   2.900 -0.8778  0.3614 -2.8376
 8184SOL     OW25767   3.900   5.944   3.113 -0.1962  0.4599 -0.5397
 8184SOL    HW125768   3.980   5.894   3.128 -0.1451  0.5036 -0.6615
 8184SOL    HW225769   3.830   5.886   3.140 -0.0438  1.0694  1.2968
 8185SOL     OW25770   1.951   5.948   2.344 -0.0790  0.0818 -0.2262
 8185SOL    HW125771   1.955   5.865   2.391 -1.7010 -0.4777 -0.9802
 8185SOL    HW225772   1.863   5.981   2.363 -0.2984  0.4634 -1.7894
 8186SOL     OW25773   3.338   7.018   2.207  0.3110 -0.6690 -0.3850
 8186SOL    HW125774   3.334   6.994   2.114 -0.6679 -1.4344 -0.1622
 8186SOL    HW225775   3.410   6.967   2.242  0.7771 -0.2726 -0.7428
 8187SOL     OW25776   2.795   7.205   3.290  0.3139  0.2020 -0.2149
 8187SOL    HW125777   2.856   7.232   3.220  0.3853  1.3376  0.2754
 8187SOL    HW225778   2.838   7.130   3.331  1.1633  0.6826 -0.2022
 8188SOL     OW25779   2.737   6.672   2.052 -0.1186 -0.0245  0.0655
 8188SOL    HW125780   2.761   6.581   2.068  0.4621  0.2652  0.8632
 8188SOL    HW225781   2.725   6.677   1.957  1.7161 -0.4888 -0.2209
 8189SOL     OW25782   3.544   7.134   1.793  0.6366  0.6005  0.5818
 8189SOL    HW125783   3.505   7.104   1.711  0.9164 -1.3100  1.1114
 8189SOL    HW225784   3.470   7.155   1.849  0.4178  0.2054  0.4412
 8190SOL     OW25785   2.319   6.826   3.013  0.4235  0.4504  0.2083
 8190SOL    HW125786   2.236   6.782   3.035  0.0383  1.0545 -0.0062
 8190SOL    HW225787   2.293   6.915   2.988  1.0732  0.4637 -0.4590
 8191SOL     OW25788   3.554   6.568   3.226  0.3086  0.0723  0.3656
 8191SOL    HW125789   3.527   6.479   3.205 -1.2792  0.7407 -0.6800
 8191SOL    HW225790   3.569   6.609   3.141  0.9979  0.8014  0.8304
 8192SOL     OW25791   2.756   6.964   2.495 -0.3318 -0.8694 -0.3001
 8192SOL    HW125792   2.704   7.029   2.448 -2.4017 -2.5213 -0.4611
 8192SOL    HW225793   2.789   6.906   2.427  0.7631 -0.5038 -0.0917
 8193SOL     OW25794   2.700   6.035   2.977  0.0829  0.6140 -0.5190
 8193SOL    HW125795   2.616   5.989   2.972  1.1545 -1.7108  1.1959
 8193SOL    HW225796   2.763   5.976   2.936  1.4022  0.8478  1.0755
 8194SOL     OW25797   2.644   7.302   2.117 -0.0086  0.5542  0.0536
 8194SOL    HW125798   2.632   7.371   2.052  0.3238  0.4486 -0.1193
 8194SOL    HW225799   2.630   7.221   2.069  0.2155  0.4764  0.1201
 8195SOL     OW25800   3.469   6.068   2.906 -0.6181 -0.4757 -0.5853
 8195SOL    HW125801   3.374   6.065   2.914 -0.6392 -1.3840 -0.9968
 8195SOL    HW225802   3.496   5.976   2.908  0.4757 -0.1952  1.9071
 8196SOL     OW25803   2.012   6.696   2.069  0.2421  0.2192 -0.3524
 8196SOL    HW125804   1.919   6.689   2.087  0.2261  1.6115  0.2771
 8196SOL    HW225805   2.054   6.645   2.139 -0.0358 -0.7571 -0.8769
 8197SOL     OW25806   2.094   6.882   3.615 -0.4269  0.0708 -0.3506
 8197SOL    HW125807   2.004   6.851   3.623 -0.5071 -0.0491 -1.4613
 8197SOL    HW225808   2.146   6.820   3.667 -0.7154 -1.3157 -1.6243
 8198SOL     OW25809   2.498   5.936   3.575  1.0008 -0.2393 -0.6122
 8198SOL    HW125810   2.514   5.983   3.493 -0.9248  0.9365 -0.3574
 8198SOL    HW225811   2.453   5.856   3.548  0.9099 -0.1438 -0.7406
 8199SOL     OW25812   1.617   6.158   2.270 -0.3309 -0.4260 -0.2426
 8199SOL    HW125813   1.660   6.080   2.234  0.9973 -0.0493  0.4458
 8199SOL    HW225814   1.525   6.133   2.279 -0.2774 -1.2851 -1.7245
 8200SOL     OW25815   3.272   6.665   3.289  0.2116 -0.5713 -0.5094
 8200SOL    HW125816   3.316   6.663   3.204  0.2312  0.8033 -0.5604
 8200SOL    HW225817   3.329   6.718   3.344 -0.4732 -0.3113 -0.0401
 8201SOL     OW25818   1.976   6.057   2.075  0.5330  0.6837  0.2599
 8201SOL    HW125819   1.973   5.997   2.150  0.1454 -0.3020 -0.5203
 8201SOL    HW225820   1.960   6.143   2.113  1.9607  0.4395  1.5404
 8202SOL     OW25821   2.831   6.840   2.244  0.0128 -0.1758  0.2203
 8202SOL    HW125822   2.827   6.931   2.216  1.4856 -0.4317 -0.9997
 8202SOL    HW225823   2.786   6.792   2.174  0.6088 -0.5172  0.0688
 8203SOL     OW25824   2.547   6.526   3.375  0.3335  0.0248 -0.0856
 8203SOL    HW125825   2.499   6.456   3.331 -0.4045  0.0881  0.5937
 8203SOL    HW225826   2.565   6.591   3.307  1.0554 -0.8289 -0.7304
 8204SOL     OW25827   3.143   7.099   2.815  0.6962  0.1902 -0.3636
 8204SOL    HW125828   3.084   7.068   2.746 -0.0178 -0.0593  0.3442
 8204SOL    HW225829   3.185   7.019   2.848  0.5388  0.2308 -0.0628
 8205SOL     OW25830   2.491   6.155   3.747 -0.0631  0.5369  0.1779
 8205SOL    HW125831   2.462   6.105   3.823 -0.8716  0.2717 -0.2850
 8205SOL    HW225832   2.491   6.092   3.675 -2.6492  1.4586 -0.7701
 8206SOL     OW25833   3.052   6.565   3.569  0.2088 -0.3186  0.0580
 8206SOL    HW125834   3.088   6.537   3.485  1.7542 -0.2803  0.6858
 8206SOL    HW225835   3.091   6.651   3.584  1.3949 -1.0894  1.6474
 8207SOL     OW25836   1.944   7.522   3.215 -0.3764  0.2130 -0.1127
 8207SOL    HW125837   1.960   7.464   3.289 -1.7755 -1.0223 -0.7219
 8207SOL    HW225838   1.867   7.485   3.172  0.2499  1.0211 -2.0547
 8208SOL     OW25839   3.469   6.321   3.133 -0.2774  0.8064  0.3368
 8208SOL    HW125840   3.387   6.290   3.094  0.2954 -1.1873  0.6089
 8208SOL    HW225841   3.535   6.306   3.066  0.1417  0.6402  0.7754
 8209SOL     OW25842   3.552   5.829   2.143  0.3576 -0.3236 -0.7025
 8209SOL    HW125843   3.484   5.762   2.145  0.4048 -0.3572  0.4285
 8209SOL    HW225844   3.581   5.831   2.052 -1.8488  0.4244 -1.4506
 8210SOL     OW25845   2.302   6.566   2.053  0.3038  0.5089  0.2825
 8210SOL    HW125846   2.329   6.625   2.124  0.2859  0.6885  0.1405
 8210SOL    HW225847   2.338   6.481   2.078 -2.6606 -0.2867  2.3190
 8211SOL     OW25848   3.475   5.834   3.353 -0.5144 -0.6319 -0.1405
 8211SOL    HW125849   3.568   5.811   3.361 -0.0169  0.8068 -1.2836
 8211SOL    HW225850   3.429   5.762   3.396  1.1575 -0.9292  1.2954
 8212SOL     OW25851   3.388   6.779   3.767  0.5182  0.0286  0.5913
 8212SOL    HW125852   3.364   6.694   3.803  0.9594 -0.1051  0.5719
 8212SOL    HW225853   3.437   6.822   3.837 -1.0517  0.9098  1.1925
 8213SOL     OW25854   2.708   6.931   1.793  0.0787  0.5734  0.6843
 8213SOL    HW125855   2.694   6.853   1.740  0.1367 -0.0017  1.5019
 8213SOL    HW225856   2.795   6.919   1.832  0.1995  1.1707  0.6198
 8214SOL     OW25857   2.330   7.884   2.667  0.2980  0.1484 -0.2543
 8214SOL    HW125858   2.283   7.906   2.747 -0.2993  1.0609 -0.8227
 8214SOL    HW225859   2.404   7.946   2.665  1.3860 -1.0725  0.4784
 8215SOL     OW25860   2.702   7.215   2.642  0.0839  0.6269  0.2321
 8215SOL    HW125861   2.685   7.209   2.548  0.2736 -0.5492  0.2488
 8215SOL    HW225862   2.722   7.125   2.668  0.2884  0.9785  1.3523
 8216SOL     OW25863   3.042   6.388   1.814  0.2464 -0.5723  0.7791
 8216SOL    HW125864   2.992   6.468   1.825 -1.9185 -1.8438  0.6678
 8216SOL    HW225865   3.034   6.366   1.721 -0.8567 -1.8996  1.1442
 8217SOL     OW25866   3.833   7.242   2.611 -0.6761 -0.0995 -0.8707
 8217SOL    HW125867   3.895   7.178   2.645 -2.2008 -1.8724 -1.2487
 8217SOL    HW225868   3.841   7.317   2.671 -0.1119 -1.3429  0.6898
 8218SOL     OW25869   2.107   7.075   3.423 -0.5338 -0.1960  0.5022
 8218SOL    HW125870   2.098   7.026   3.505 -1.3802  0.3320  0.7404
 8218SOL    HW225871   2.046   7.149   3.432 -0.3450  0.0940 -0.4397
 8219SOL     OW25872   2.076   6.551   2.306  0.3183 -0.2995 -0.2341
 8219SOL    HW125873   2.105   6.514   2.389 -0.1899  1.1140  0.6049
 8219SOL    HW225874   2.156   6.560   2.255  0.9149  0.4745  0.7982
 8220SOL     OW25875   2.358   6.952   3.455 -0.2858 -0.6761  0.4105
 8220SOL    HW125876   2.402   7.032   3.484 -0.9609 -0.2951  0.3972
 8220SOL    HW225877   2.268   6.979   3.435  0.0998 -0.9022 -2.0155
 8221SOL     OW25878   3.690   5.597   2.877  0.0671 -0.4638 -0.9352
 8221SOL    HW125879   3.746   5.528   2.912  0.7504  0.3801 -0.3166
 8221SOL    HW225880   3.688   5.581   2.783  0.5750 -1.0700 -0.8475
 8222SOL     OW25881   2.294   6.280   2.187 -0.5173  0.4374  0.1790
 8222SOL    HW125882   2.221   6.218   2.181 -3.0447  3.0869  1.1892
 8222SOL    HW225883   2.304   6.295   2.281  1.2837  0.2306  0.0415
 8223SOL     OW25884   3.685   7.352   3.248  0.1647 -0.0331 -0.3128
 8223SOL    HW125885   3.680   7.256   3.246 -0.9981  0.0049  0.1856
 8223SOL    HW225886   3.594   7.381   3.250  0.4948  1.1005 -0.8371
 8224SOL     OW25887   2.889   6.337   3.332 -0.2952  0.4196 -0.8268
 8224SOL    HW125888   2.873   6.289   3.251  0.3460  0.0576 -0.7455
 8224SOL    HW225889   2.973   6.380   3.319 -0.8282  1.4904 -0.8696
 8225SOL     OW25890   2.875   7.100   2.151 -0.5610  0.1525  0.0004
 8225SOL    HW125891   2.835   7.187   2.146 -0.5567  0.1052 -1.0642
 8225SOL    HW225892   2.963   7.116   2.184 -0.3541  0.6176 -0.7717
 8226SOL     OW25893   3.029   6.017   3.718 -0.3490 -0.0943  0.1714
 8226SOL    HW125894   3.120   6.047   3.715  0.5951 -2.7480 -0.5998
 8226SOL    HW225895   2.977   6.097   3.709  1.8558  1.5994  1.4340
 8227SOL     OW25896   2.705   5.559   2.891 -0.3934 -0.3225  0.3853
 8227SOL    HW125897   2.744   5.472   2.879 -0.4361 -0.1461 -1.1801
 8227SOL    HW225898   2.610   5.543   2.885 -0.4452 -0.2811  0.9936
 8228SOL     OW25899   2.330   6.720   2.295 -0.3380 -0.8283 -0.2446
 8228SOL    HW125900   2.252   6.772   2.312 -1.3442 -1.8201 -1.5728
 8228SOL    HW225901   2.393   6.749   2.360 -1.6528  0.3370  0.5670
 8229SOL     OW25902   2.074   7.428   2.873  0.7776  0.3178 -0.0040
 8229SOL    HW125903   2.120   7.441   2.957 -2.7343  1.8242  1.8914
 8229SOL    HW225904   1.996   7.377   2.896 -0.7910  1.5787 -2.1717
 8230SOL     OW25905   3.076   5.613   2.108  0.0042 -0.0033  0.4499
 8230SOL    HW125906   3.058   5.614   2.014  0.5321  1.1490  0.3478
 8230SOL    HW225907   3.059   5.523   2.134 -1.5044 -0.0334 -0.4807
 8231SOL     OW25908   3.346   6.026   2.476  0.8103  0.1232  0.4242
 8231SOL    HW125909   3.368   6.045   2.385  2.2418  0.4657  0.8105
 8231SOL    HW225910   3.418   6.065   2.526 -0.5834  1.0617  1.7864
 8232SOL     OW25911   3.743   5.894   2.683 -0.2355  0.4502  0.1922
 8232SOL    HW125912   3.708   5.811   2.716 -0.4639  0.3365 -0.3284
 8232SOL    HW225913   3.763   5.877   2.591  0.3712  0.7733  0.2617
 8233SOL     OW25914   1.566   6.350   1.903  0.0801 -0.0798 -0.1246
 8233SOL    HW125915   1.497   6.284   1.916 -0.7351  0.6028 -0.8070
 8233SOL    HW225916   1.548   6.385   1.815 -0.0059  1.6010  0.5286
 8234SOL     OW25917   3.045   7.309   1.836  0.1358 -0.2268 -0.1772
 8234SOL    HW125918   3.037   7.403   1.817  2.0623 -0.0159 -0.1179
 8234SOL    HW225919   2.961   7.272   1.808 -0.3055  1.3593 -1.0946
 8235SOL     OW25920   1.622   6.507   3.809  0.0239  0.1073 -0.0017
 8235SOL    HW125921   1.530   6.482   3.800 -0.8502  3.1248 -0.5291
 8235SOL    HW225922   1.652   6.521   3.720  1.0603 -0.9169  0.1663
 8236SOL     OW25923   1.501   5.501   5.167  0.1186  0.1715  0.2107
 8236SOL    HW125924   1.423   5.454   5.198 -0.3022  1.1719  0.7229
 8236SOL    HW225925   1.477   5.593   5.175  0.2986  0.5067 -2.3449
 8237SOL     OW25926   1.766   5.929   4.048 -0.3047 -0.2128  0.0414
 8237SOL    HW125927   1.818   5.851   4.029  1.7326  1.0736  0.0410
 8237SOL    HW225928   1.708   5.903   4.120  0.3412 -1.7019  0.0536
 8238SOL     OW25929   2.143   6.326   5.071  0.2126 -1.2110 -0.1245
 8238SOL    HW125930   2.084   6.324   4.996  0.0599 -0.1233 -0.0392
 8238SOL    HW225931   2.169   6.417   5.079  0.9620 -1.4777  0.5819
 8239SOL     OW25932   3.242   6.740   4.872  0.1436  0.0731  0.2995
 8239SOL    HW125933   3.237   6.653   4.913  3.0025 -0.2302  0.2120
 8239SOL    HW225934   3.195   6.730   4.789  0.3204 -1.3576  0.3414
 8240SOL     OW25935   2.746   6.367   4.308  0.4899  0.6330  0.3381
 8240SOL    HW125936   2.726   6.417   4.229 -1.4618  0.4272  0.6599
 8240SOL    HW225937   2.836   6.390   4.329  0.4066  2.1839 -0.8579
 8241SOL     OW25938   3.603   5.606   3.760 -0.0831 -1.0943  0.0803
 8241SOL    HW125939   3.661   5.591   3.835 -0.0795  2.1977  0.8917
 8241SOL    HW225940   3.517   5.576   3.790  0.3129 -1.7580  0.5873
 8242SOL     OW25941   2.291   6.749   4.976  0.0627 -0.4612  0.4317
 8242SOL    HW125942   2.376   6.792   4.964 -0.1912 -0.1418 -0.2766
 8242SOL    HW225943   2.238   6.780   4.902 -0.5422 -0.9682  0.6476
 8243SOL     OW25944   3.038   6.185   5.486 -0.3498 -0.3628  0.2073
 8243SOL    HW125945   3.065   6.093   5.489  0.2963 -0.1772  0.4479
 8243SOL    HW225946   3.025   6.203   5.393  0.4904 -0.4409  0.0598
 8244SOL     OW25947   2.185   6.500   4.361  0.2582  0.3858 -0.0076
 8244SOL    HW125948   2.233   6.420   4.338 -1.0615 -0.5663  0.4069
 8244SOL    HW225949   2.150   6.482   4.449  1.2836  2.0797  0.7835
 8245SOL     OW25950   2.581   6.420   5.841  0.7585  0.4990  0.0560
 8245SOL    HW125951   2.577   6.480   5.767  0.0630  0.0035 -0.3165
 8245SOL    HW225952   2.510   6.358   5.826  1.2402 -0.2071  0.6198
 8246SOL     OW25953   2.197   6.778   4.717 -0.2954 -0.3202  0.0300
 8246SOL    HW125954   2.187   6.809   4.627  2.2889  0.1456 -0.1613
 8246SOL    HW225955   2.171   6.686   4.714  0.7614 -0.6011 -1.4618
 8247SOL     OW25956   3.125   6.699   5.259 -0.7925  0.3032  0.1992
 8247SOL    HW125957   3.165   6.774   5.302  0.4497 -0.0579 -0.2643
 8247SOL    HW225958   3.116   6.634   5.329 -2.1725  0.9683  0.6727
 8248SOL     OW25959   2.413   6.299   5.222  0.1828  0.1305  0.1620
 8248SOL    HW125960   2.420   6.278   5.129 -1.7728  0.3025 -0.0801
 8248SOL    HW225961   2.453   6.224   5.267 -1.3229 -1.3467 -0.7991
 8249SOL     OW25962   3.366   5.883   4.116  0.1926  0.0022 -0.3464
 8249SOL    HW125963   3.454   5.871   4.082  0.8069  2.2330  0.2991
 8249SOL    HW225964   3.376   5.886   4.211 -0.2406  2.1958 -0.3233
 8250SOL     OW25965   1.809   6.974   3.922  0.4382  0.0997  0.1960
 8250SOL    HW125966   1.800   7.024   4.003 -1.1416  0.6803 -0.3120
 8250SOL    HW225967   1.856   6.894   3.949 -1.2390 -0.3567  1.9695
 8251SOL     OW25968   2.869   6.653   5.508 -0.0493 -0.1787  0.0674
 8251SOL    HW125969   2.901   6.600   5.581 -0.9845 -0.9572 -0.0617
 8251SOL    HW225970   2.887   6.600   5.430 -0.3014  0.0323 -0.1367
 8252SOL     OW25971   2.091   7.079   4.185  0.0226  0.4588 -0.0526
 8252SOL    HW125972   2.146   7.031   4.123 -0.6889 -1.0282  0.4240
 8252SOL    HW225973   2.005   7.081   4.143 -0.4082 -0.3632  0.7698
 8253SOL     OW25974   2.132   6.487   4.689 -0.1661 -0.2620 -0.1105
 8253SOL    HW125975   2.093   6.400   4.677  0.0875 -0.7397  2.1212
 8253SOL    HW225976   2.218   6.470   4.728  0.1981  0.9635 -0.3262
 8254SOL     OW25977   2.497   7.106   5.644 -0.2404  0.3174 -0.2161
 8254SOL    HW125978   2.449   7.128   5.724 -0.6659 -0.7011 -0.1733
 8254SOL    HW225979   2.534   7.019   5.662 -0.4112  0.0482 -1.1510
 8255SOL     OW25980   2.707   6.802   3.958 -0.1687  0.2762 -0.1302
 8255SOL    HW125981   2.631   6.839   3.913 -1.5648 -2.5576 -0.3452
 8255SOL    HW225982   2.771   6.786   3.889 -0.7781 -0.4583 -0.5531
 8256SOL     OW25983   3.280   5.609   4.818  0.6980  0.4799  0.1841
 8256SOL    HW125984   3.249   5.526   4.855 -0.8464  0.4853 -0.9432
 8256SOL    HW225985   3.356   5.632   4.870  0.8947 -1.4186  0.8282
 8257SOL     OW25986   1.782   6.075   4.464  0.6383 -0.7123  0.0737
 8257SOL    HW125987   1.764   5.981   4.470  1.2176 -0.9967 -1.9477
 8257SOL    HW225988   1.855   6.088   4.525  0.3903 -1.5015  0.5723
 8258SOL     OW25989   3.618   7.395   3.656  0.6364  0.8238  0.4031
 8258SOL    HW125990   3.693   7.394   3.596 -0.9448  0.7278 -1.6674
 8258SOL    HW225991   3.573   7.477   3.638 -1.0318 -0.1535 -0.0943
 8259SOL     OW25992   1.556   7.271   3.725 -0.0717  0.1819 -0.5282
 8259SOL    HW125993   1.603   7.240   3.803 -0.9849 -0.7052 -0.3073
 8259SOL    HW225994   1.503   7.196   3.698  1.1504  0.0240 -2.7771
 8260SOL     OW25995   3.345   6.146   3.961 -0.5479 -0.5978 -0.2900
 8260SOL    HW125996   3.279   6.085   3.993 -1.8113  1.1891  0.6961
 8260SOL    HW225997   3.428   6.103   3.980 -1.3818 -1.9103  0.5547
 8261SOL     OW25998   3.740   6.762   4.138  0.1076  0.3458 -0.0399
 8261SOL    HW125999   3.747   6.672   4.106 -1.3500  0.1734  0.0325
 8261SOL    HW226000   3.812   6.771   4.200  1.3116 -0.1953 -1.3098
 8262SOL     OW26001   1.557   5.992   5.175  0.1061 -0.2108  0.6540
 8262SOL    HW126002   1.535   5.986   5.083 -2.9479  0.6792  1.2181
 8262SOL    HW226003   1.648   6.023   5.177  0.6446 -1.3796 -1.9746
 8263SOL     OW26004   2.387   6.956   4.375 -0.4393  0.1025  0.1978
 8263SOL    HW126005   2.381   6.872   4.421  0.5770 -0.1455 -0.1049
 8263SOL    HW226006   2.304   7.001   4.396 -1.2535 -1.2064 -0.1305
 8264SOL     OW26007   3.270   6.528   5.103 -0.0603  0.8001  0.1991
 8264SOL    HW126008   3.206   6.511   5.034 -0.3283  1.2227  0.3418
 8264SOL    HW226009   3.222   6.576   5.170 -0.0672 -0.5173  1.1785
 8265SOL     OW26010   2.143   5.317   4.306 -0.1356  0.4228  0.3933
 8265SOL    HW126011   2.124   5.407   4.280  2.0236  0.9568  0.4278
 8265SOL    HW226012   2.230   5.322   4.346 -0.0521 -1.6509  0.5654
 8266SOL     OW26013   1.997   6.073   4.828  0.2093 -0.2798  0.5359
 8266SOL    HW126014   2.072   6.074   4.887  0.6295 -3.0226  0.1936
 8266SOL    HW226015   1.923   6.102   4.882  0.8824 -1.1184  1.9626
 8267SOL     OW26016   3.301   6.863   4.110 -0.0157 -0.2950 -0.2917
 8267SOL    HW126017   3.343   6.784   4.076 -0.3772 -0.1876 -1.0157
 8267SOL    HW226018   3.320   6.930   4.044  0.6345  0.3386  0.5101
 8268SOL     OW26019   2.880   7.057   5.715  0.2503 -0.1927 -0.1511
 8268SOL    HW126020   2.825   7.019   5.646 -1.2446 -0.6147  1.2002
 8268SOL    HW226021   2.921   7.133   5.674 -1.9262  0.5795 -1.0562
 8269SOL     OW26022   1.968   5.870   5.735 -0.1892  0.0227 -0.0921
 8269SOL    HW126023   1.906   5.938   5.760  1.1804  1.3849 -0.2610
 8269SOL    HW226024   2.045   5.918   5.703  1.7484 -1.5262  1.9460
 8270SOL     OW26025   2.659   7.108   4.963  0.0222 -0.0633  0.1646
 8270SOL    HW126026   2.738   7.139   4.918  1.1721 -0.7043  1.6283
 8270SOL    HW226027   2.587   7.153   4.919  1.0150 -0.8650 -2.4416
 8271SOL     OW26028   3.378   6.996   4.930 -0.8176 -0.2827  0.3652
 8271SOL    HW126029   3.309   7.043   4.882 -1.1863 -0.1223  1.0354
 8271SOL    HW226030   3.343   6.907   4.940 -0.3715 -0.5502 -0.3984
 8272SOL     OW26031   2.089   6.497   3.930 -0.4488  0.3302 -0.1281
 8272SOL    HW126032   2.177   6.522   3.960 -0.6041  1.2416 -0.4220
 8272SOL    HW226033   2.063   6.426   3.989  0.1130  0.6714  0.5392
 8273SOL     OW26034   3.096   5.872   4.460  0.2713  0.0455  0.5324
 8273SOL    HW126035   3.070   5.924   4.536  1.3992  0.7116  0.4864
 8273SOL    HW226036   3.140   5.796   4.498 -2.1325 -1.3724  0.6303
 8274SOL     OW26037   3.117   7.078   3.627 -0.0612  0.1133  0.1408
 8274SOL    HW126038   3.117   7.143   3.557  0.1968  0.2121  0.2303
 8274SOL    HW226039   3.189   7.105   3.684 -0.2141 -0.0161  0.3965
 8275SOL     OW26040   2.575   6.168   5.012  0.0601 -0.4341  0.2249
 8275SOL    HW126041   2.650   6.114   5.037  1.0313  0.4911 -0.5675
 8275SOL    HW226042   2.516   6.108   4.966  0.7157 -1.0032  0.1187
 8276SOL     OW26043   3.600   6.025   5.398  0.4013  0.1494  0.1619
 8276SOL    HW126044   3.536   5.977   5.450  1.2558 -1.1635  0.0720
 8276SOL    HW226045   3.607   5.974   5.317  1.2179  0.5219 -0.0095
 8277SOL     OW26046   2.719   6.035   4.773 -0.2353 -0.2482  0.4878
 8277SOL    HW126047   2.746   5.946   4.796 -1.2861 -1.2847 -1.9609
 8277SOL    HW226048   2.629   6.025   4.744 -0.5339  1.7417  0.6157
 8278SOL     OW26049   2.347   5.746   5.165  0.1287  0.1016 -0.7631
 8278SOL    HW126050   2.340   5.800   5.244 -0.0412  0.9011 -1.3155
 8278SOL    HW226051   2.379   5.662   5.197  0.5474  0.5712  0.0977
 8279SOL     OW26052   2.784   6.529   4.034 -0.0565  0.3666 -0.2928
 8279SOL    HW126053   2.866   6.544   4.081 -1.1354 -0.3593  2.0136
 8279SOL    HW226054   2.758   6.616   4.002  1.5050  0.6188 -0.9384
 8280SOL     OW26055   1.745   6.326   4.343  0.2983  0.2354  0.1724
 8280SOL    HW126056   1.756   6.237   4.376  0.0506 -0.1639 -0.7963
 8280SOL    HW226057   1.730   6.379   4.421  1.0186 -0.4789  0.8066
 8281SOL     OW26058   1.709   6.774   4.669 -0.4533 -0.9195 -0.1904
 8281SOL    HW126059   1.709   6.807   4.579 -0.6107  0.3222  0.2414
 8281SOL    HW226060   1.649   6.832   4.715  1.2713 -0.1493  1.1894
 8282SOL     OW26061   2.706   5.985   4.066  0.3356  0.0035 -0.1319
 8282SOL    HW126062   2.613   5.998   4.048  0.3898  0.1070 -0.3485
 8282SOL    HW226063   2.750   6.058   4.021  0.3548  1.3692  1.9805
 8283SOL     OW26064   3.734   5.833   5.657 -0.0289 -0.3423  0.0223
 8283SOL    HW126065   3.792   5.797   5.590 -0.5118 -2.3842  0.6231
 8283SOL    HW226066   3.668   5.765   5.670  0.3809 -0.3004  2.9853
 8284SOL     OW26067   3.253   6.538   4.472  0.2376  0.2700  0.6351
 8284SOL    HW126068   3.309   6.584   4.410 -0.6896  1.0906  0.3833
 8284SOL    HW226069   3.257   6.446   4.443 -2.4680  0.9606 -2.5812
 8285SOL     OW26070   2.351   5.422   4.516  0.2975  0.0348  0.0909
 8285SOL    HW126071   2.393   5.450   4.435 -1.0531 -1.1183 -1.0742
 8285SOL    HW226072   2.356   5.326   4.513  0.1164 -0.0290  1.3258
 8286SOL     OW26073   2.927   6.812   4.453 -0.1479  0.2118 -0.4370
 8286SOL    HW126074   2.860   6.745   4.462  0.8397 -1.1716 -2.4694
 8286SOL    HW226075   2.894   6.870   4.384  0.9809 -0.9033 -1.9828
 8287SOL     OW26076   2.098   6.929   4.412  0.2246 -0.2992  0.2430
 8287SOL    HW126077   2.086   6.995   4.344 -1.2127 -1.3689 -0.5988
 8287SOL    HW226078   2.043   6.856   4.385  1.1896 -1.5725  1.5212
 8288SOL     OW26079   3.713   6.819   4.411 -0.3036  0.0178  0.2328
 8288SOL    HW126080   3.717   6.727   4.438 -1.7855 -0.9357 -2.4303
 8288SOL    HW226081   3.620   6.836   4.399  0.0716  1.3180 -1.0533
 8289SOL     OW26082   2.773   6.911   5.205 -0.0803  0.6071 -0.5303
 8289SOL    HW126083   2.800   6.970   5.135  0.8300 -0.3689 -1.0418
 8289SOL    HW226084   2.847   6.912   5.266 -0.7472  1.2336  0.2878
 8290SOL     OW26085   1.906   6.720   3.916  0.0589 -0.3374 -0.1357
 8290SOL    HW126086   1.863   6.667   3.850 -0.6121 -1.8229  1.4166
 8290SOL    HW226087   1.977   6.665   3.949  1.0804  0.7978 -0.3531
 8291SOL     OW26088   3.035   6.110   4.300 -0.5322  0.0018 -0.2037
 8291SOL    HW126089   3.068   6.035   4.348  1.7030  0.2352 -1.2376
 8291SOL    HW226090   3.010   6.173   4.367  1.7070 -0.0013  0.6970
 8292SOL     OW26091   1.846   6.511   5.674  0.3847 -0.2703  0.3549
 8292SOL    HW126092   1.806   6.427   5.649  0.8039 -0.8578  1.6027
 8292SOL    HW226093   1.815   6.526   5.763 -2.0104  2.3382 -0.7398
 8293SOL     OW26094   3.036   7.392   3.775  0.1571  0.0823  0.1021
 8293SOL    HW126095   3.061   7.392   3.683  1.5857  1.5416  0.4411
 8293SOL    HW226096   3.104   7.443   3.818 -0.5997 -0.3806  1.9455
 8294SOL     OW26097   1.937   5.617   5.172  0.1850 -0.2091  0.1250
 8294SOL    HW126098   1.964   5.695   5.125 -0.2908 -1.2143 -1.9356
 8294SOL    HW226099   1.863   5.645   5.226 -0.2486  0.6674 -0.9016
 8295SOL     OW26100   3.669   7.221   3.900 -0.0939  0.1158  0.9433
 8295SOL    HW126101   3.647   7.298   3.848  0.2664 -0.3963  0.0003
 8295SOL    HW226102   3.751   7.189   3.862 -1.4277 -2.1186 -0.3253
 8296SOL     OW26103   2.548   6.902   3.753 -0.5016 -0.4559  0.1266
 8296SOL    HW126104   2.511   6.866   3.673  0.7334 -1.2520 -0.1176
 8296SOL    HW226105   2.616   6.962   3.723 -0.2348 -0.5262  0.5799
 8297SOL     OW26106   3.387   5.517   3.856 -0.2971 -0.3148 -0.2026
 8297SOL    HW126107   3.366   5.492   3.945 -0.7563  1.1080  0.1103
 8297SOL    HW226108   3.321   5.474   3.802 -0.5148 -0.5145  0.2208
 8298SOL     OW26109   1.899   7.232   4.554  0.4268 -0.6949  0.5145
 8298SOL    HW126110   1.980   7.269   4.518 -0.1661 -0.3172 -0.4699
 8298SOL    HW226111   1.909   7.240   4.649  0.0207  2.7950  0.4105
 8299SOL     OW26112   2.171   7.080   5.032 -0.9297  0.6283  0.0072
 8299SOL    HW126113   2.195   7.160   5.077  0.4899  0.0772  0.2971
 8299SOL    HW226114   2.163   7.014   5.101 -0.3229  0.1356 -0.3790
 8300SOL     OW26115   1.844   6.293   3.866  0.0060  0.2706 -0.1212
 8300SOL    HW126116   1.782   6.365   3.881  0.7728  1.0852 -0.7327
 8300SOL    HW226117   1.898   6.292   3.945  0.0245  0.4125 -0.1304
 8301SOL     OW26118   3.657   5.502   5.571 -0.8194 -0.4323  0.0084
 8301SOL    HW126119   3.655   5.425   5.629  1.3033 -0.4401  0.1702
 8301SOL    HW226120   3.742   5.496   5.528  0.3827  2.9020  1.5904
 8302SOL     OW26121   2.638   6.345   3.621  0.2983 -0.1687 -0.2330
 8302SOL    HW126122   2.607   6.283   3.687  0.7232  0.4089  0.5313
 8302SOL    HW226123   2.562   6.360   3.564 -0.2061 -0.3458  0.3827
 8303SOL     OW26124   2.568   6.085   5.380  0.1448 -0.1188 -0.0479
 8303SOL    HW126125   2.548   6.129   5.462 -2.6561 -0.4095 -0.4839
 8303SOL    HW226126   2.659   6.058   5.389  0.6020  1.8159  2.0225
 8304SOL     OW26127   2.556   6.828   4.978 -0.1009 -0.0377  0.4742
 8304SOL    HW126128   2.588   6.911   5.013  0.6032  0.2943 -0.9224
 8304SOL    HW226129   2.608   6.761   5.023  2.1826  0.4647 -1.2766
 8305SOL     OW26130   2.972   6.482   4.393  0.4580 -0.3573 -0.0431
 8305SOL    HW126131   3.051   6.506   4.440 -0.5182  0.2673  1.3677
 8305SOL    HW226132   2.903   6.533   4.436 -0.6840 -0.7838 -1.3125
 8306SOL     OW26133   2.955   6.765   5.050  0.0023 -0.0101 -0.2129
 8306SOL    HW126134   3.035   6.779   4.999  0.1122  3.4346  0.6693
 8306SOL    HW226135   2.986   6.740   5.137  0.3195  2.4911  0.4803
 8307SOL     OW26136   2.442   5.860   4.725 -0.3271 -0.6308 -0.2194
 8307SOL    HW126137   2.368   5.804   4.701 -1.7068  1.7645 -1.9907
 8307SOL    HW226138   2.502   5.854   4.651  0.0929 -0.6723  0.1211
 8308SOL     OW26139   2.502   5.438   4.263 -0.3281 -0.5000 -0.2651
 8308SOL    HW126140   2.471   5.467   4.177 -1.2157  0.5069  0.3816
 8308SOL    HW226141   2.517   5.344   4.252  0.3947 -0.2435 -1.7469
 8309SOL     OW26142   3.201   7.246   3.987 -0.3573 -0.0319  0.2433
 8309SOL    HW126143   3.266   7.185   3.953 -1.0109 -0.8109  0.3647
 8309SOL    HW226144   3.143   7.192   4.041 -0.4624  0.8363  1.0359
 8310SOL     OW26145   2.376   5.427   4.021 -0.1062 -0.6808 -0.5791
 8310SOL    HW126146   2.337   5.500   3.973  1.3289 -0.2886 -1.1955
 8310SOL    HW226147   2.304   5.365   4.033 -2.3247  2.1602  2.9071
 8311SOL     OW26148   2.866   5.724   4.061 -0.1377  0.1669 -0.0135
 8311SOL    HW126149   2.848   5.814   4.090 -0.9463  0.0921 -0.2556
 8311SOL    HW226150   2.952   5.729   4.020 -0.3588  0.9234 -0.4011
 8312SOL     OW26151   3.117   6.490   4.874  0.4564  0.1097  0.3908
 8312SOL    HW126152   3.149   6.458   4.790 -0.1844  1.3290 -0.3413
 8312SOL    HW226153   3.039   6.437   4.892 -0.1274  0.6820 -0.4071
 8313SOL     OW26154   3.135   6.715   4.631 -0.3200 -0.3095 -0.3675
 8313SOL    HW126155   3.186   6.645   4.590 -0.2189 -0.6973  0.3833
 8313SOL    HW226156   3.062   6.730   4.571  0.0068 -0.6140 -0.8488
 8314SOL     OW26157   1.832   6.617   4.292 -0.7369  0.2774  0.2089
 8314SOL    HW126158   1.882   6.555   4.346  0.4557  1.9784  1.1311
 8314SOL    HW226159   1.807   6.565   4.216  1.0924 -1.1071  0.4499
 8315SOL     OW26160   2.812   7.527   4.728 -0.3323 -0.6276 -0.2150
 8315SOL    HW126161   2.800   7.460   4.661  0.5205  0.0618 -1.0756
 8315SOL    HW226162   2.783   7.608   4.687 -1.0504 -0.3979  0.7083
 8316SOL     OW26163   2.800   5.866   3.815  0.0859  0.4066  0.1527
 8316SOL    HW126164   2.876   5.919   3.790  0.7627 -0.5965  0.0498
 8316SOL    HW226165   2.801   5.866   3.910  2.5528 -2.7753  0.2775
 8317SOL     OW26166   1.750   5.825   4.882  0.8214  0.1529 -0.5448
 8317SOL    HW126167   1.836   5.785   4.873  0.1364 -2.3225  2.3599
 8317SOL    HW226168   1.757   5.879   4.961 -0.2100  0.1613 -0.4509
 8318SOL     OW26169   2.428   5.480   5.620  0.3041  0.4561  0.5589
 8318SOL    HW126170   2.465   5.563   5.651 -0.0882  1.3510 -1.2360
 8318SOL    HW226171   2.504   5.423   5.608  0.7026  0.9835  0.5641
 8319SOL     OW26172   2.614   5.883   4.489 -0.1370  0.3390  0.0610
 8319SOL    HW126173   2.646   5.953   4.431 -0.6317  0.8924  0.4469
 8319SOL    HW226174   2.642   5.802   4.445  0.1837  0.7637 -0.5474
 8320SOL     OW26175   2.699   5.679   4.314  0.4610  0.0660 -0.1649
 8320SOL    HW126176   2.703   5.713   4.224 -0.5433  0.4642 -0.0781
 8320SOL    HW226177   2.657   5.593   4.305 -1.1612  0.7914  0.0609
 8321SOL     OW26178   2.977   6.659   4.156 -0.6080  0.3693  0.1560
 8321SOL    HW126179   2.979   6.754   4.153  2.4519  0.3831 -1.6255
 8321SOL    HW226180   3.044   6.636   4.221  0.3118 -0.5346 -1.0780
 8322SOL     OW26181   2.921   6.109   4.556 -0.4663  0.5172 -0.6816
 8322SOL    HW126182   2.857   6.085   4.489  0.4835 -2.4541 -0.6856
 8322SOL    HW226183   2.881   6.083   4.638 -0.0240  0.4021 -0.5003
 8323SOL     OW26184   3.855   6.114   3.367  0.1783  0.1630 -0.0743
 8323SOL    HW126185   3.880   6.035   3.413 -0.0520  0.2036  0.1214
 8323SOL    HW226186   3.871   6.094   3.274 -2.8537 -1.2918 -0.4116
 8324SOL     OW26187   1.913   7.296   3.964 -0.6869 -0.1391  0.1387
 8324SOL    HW126188   1.867   7.349   4.030 -0.5964 -0.0663  0.1437
 8324SOL    HW226189   1.999   7.337   3.957 -0.6026 -0.3117  0.1708
 8325SOL     OW26190   3.592   7.213   4.154 -0.3952  0.3545 -0.6062
 8325SOL    HW126191   3.610   7.204   4.061  0.9258  1.1206 -0.4379
 8325SOL    HW226192   3.654   7.155   4.197  0.6255  1.7589 -0.1015
 8326SOL     OW26193   3.434   6.364   4.141  0.1739 -0.1753 -0.0033
 8326SOL    HW126194   3.389   6.307   4.078  0.9848 -0.1659 -0.6135
 8326SOL    HW226195   3.509   6.312   4.171  0.3285  0.1772  0.2305
 8327SOL     OW26196   2.286   5.701   3.931  0.1732  0.1513  0.6435
 8327SOL    HW126197   2.371   5.715   3.889 -0.4722 -0.0530 -0.7845
 8327SOL    HW226198   2.222   5.723   3.863 -0.9250 -3.2013  0.4364
 8328SOL     OW26199   3.679   6.334   5.007 -0.3177 -0.1882 -0.6772
 8328SOL    HW126200   3.661   6.377   4.923 -0.3409 -0.0170 -0.5835
 8328SOL    HW226201   3.720   6.251   4.982  2.0558  0.9450 -0.8239
 8329SOL     OW26202   2.692   6.650   5.142  0.1779 -0.0574  0.1849
 8329SOL    HW126203   2.691   6.608   5.228  0.9344  0.0048  0.2337
 8329SOL    HW226204   2.740   6.732   5.156 -0.0157  0.1308 -0.2214
 8330SOL     OW26205   3.566   6.787   5.058 -0.0949 -0.2753 -0.0755
 8330SOL    HW126206   3.529   6.781   4.970 -2.1044 -1.3396  0.7702
 8330SOL    HW226207   3.646   6.734   5.054 -1.1625 -1.9335 -0.8216
 8331SOL     OW26208   2.983   6.986   4.672  0.1766  0.4408 -0.1398
 8331SOL    HW126209   2.955   6.926   4.741  0.0835  0.5231 -0.1056
 8331SOL    HW226210   2.993   6.931   4.594  0.6140  0.2824  0.0203
 8332SOL     OW26211   3.366   6.965   4.563 -0.0333  0.0024  0.3266
 8332SOL    HW126212   3.358   6.995   4.473 -0.1744 -0.0583  0.3181
 8332SOL    HW226213   3.289   6.909   4.576  0.7248 -1.1509  0.0247
 8333SOL     OW26214   3.087   5.912   5.396  0.5020 -0.4590  0.1557
 8333SOL    HW126215   3.086   5.862   5.478  0.6862  0.2608  0.6113
 8333SOL    HW226216   3.127   5.853   5.332 -0.7963 -1.4878  0.2688
 8334SOL     OW26217   2.490   6.546   5.339  0.3364  0.6239  0.0731
 8334SOL    HW126218   2.416   6.607   5.332  0.9939  1.5453  0.8155
 8334SOL    HW226219   2.464   6.470   5.287 -1.6107  0.4518  1.1919
 8335SOL     OW26220   2.270   6.256   4.249  0.0768 -0.6406  0.0588
 8335SOL    HW126221   2.305   6.181   4.202  0.7886 -0.3669  0.1373
 8335SOL    HW226222   2.300   6.332   4.198 -1.6152 -0.4348 -0.6924
 8336SOL     OW26223   1.896   6.474   5.195  0.7460  0.4431  0.2679
 8336SOL    HW126224   1.966   6.539   5.182  1.6592 -0.6781 -0.6299
 8336SOL    HW226225   1.889   6.429   5.110  1.4723 -1.9205  1.3853
 8337SOL     OW26226   3.170   6.148   4.842 -0.2999 -0.3998  0.9534
 8337SOL    HW126227   3.235   6.204   4.887 -1.2109  0.9594  0.6374
 8337SOL    HW226228   3.219   6.069   4.819  1.1157  0.3758  1.1724
 8338SOL     OW26229   2.136   7.227   5.355 -0.0724  0.2055 -0.0703
 8338SOL    HW126230   2.231   7.237   5.364  0.2614 -2.2506 -0.2626
 8338SOL    HW226231   2.115   7.147   5.403 -2.1735  1.0442  0.5193
 8339SOL     OW26232   2.158   6.903   3.983 -0.0729 -0.5546  0.0346
 8339SOL    HW126233   2.164   6.835   4.051  3.4634 -2.3551 -1.7700
 8339SOL    HW226234   2.137   6.855   3.903 -2.9512  1.3555 -0.5114
 8340SOL     OW26235   2.034   5.888   4.595 -0.5368 -0.2867 -0.0315
 8340SOL    HW126236   2.109   5.922   4.547 -1.0735  0.0700 -0.6418
 8340SOL    HW226237   2.065   5.879   4.685  1.2484 -3.2583 -0.7947
 8341SOL     OW26238   3.060   7.090   4.165 -0.3400  0.7371  0.5919
 8341SOL    HW126239   3.086   7.058   4.251  3.0527  0.2483 -0.4506
 8341SOL    HW226240   3.003   7.022   4.129  0.7970 -0.6090  1.2686
 8342SOL     OW26241   2.784   6.751   4.803  0.2415 -0.7151 -0.0376
 8342SOL    HW126242   2.693   6.735   4.828  0.3378 -2.6232 -0.7799
 8342SOL    HW226243   2.834   6.734   4.883  0.1284 -1.9653 -0.2180
 8343SOL     OW26244   3.491   6.648   4.322  0.5347  0.0355  0.1894
 8343SOL    HW126245   3.484   6.673   4.230  0.3782 -1.8437 -0.3603
 8343SOL    HW226246   3.561   6.582   4.323  1.0571  0.5823  1.5483
 8344SOL     OW26247   2.393   6.521   4.835  0.4238 -0.1877 -0.7095
 8344SOL    HW126248   2.372   6.594   4.894 -1.3526 -0.2783 -1.1545
 8344SOL    HW226249   2.472   6.482   4.872 -1.0394 -0.7624  2.1738
 8345SOL     OW26250   2.080   6.304   5.343  0.0596 -0.2854  0.2710
 8345SOL    HW126251   2.129   6.311   5.261 -1.1846  0.4480 -0.4359
 8345SOL    HW226252   2.006   6.364   5.332  0.2890  0.4385  2.2384
 8346SOL     OW26253   3.769   6.213   5.502 -0.7744  0.1910 -0.4535
 8346SOL    HW126254   3.832   6.219   5.430 -1.8312  0.0065 -1.4294
 8346SOL    HW226255   3.698   6.158   5.467 -2.5756  2.2539 -0.2552
 8347SOL     OW26256   3.319   5.925   4.799  0.3755 -0.1814  0.4319
 8347SOL    HW126257   3.232   5.893   4.775  1.2020  0.0425 -3.7410
 8347SOL    HW226258   3.364   5.848   4.833 -0.2931 -1.3933 -1.2527
 8348SOL     OW26259   2.050   5.883   5.411  0.1547 -0.0911  0.4217
 8348SOL    HW126260   2.037   5.868   5.317 -0.6041 -0.4452  0.5753
 8348SOL    HW226261   2.113   5.816   5.437 -1.5075 -1.6546  0.6422
 8349SOL     OW26262   2.200   6.047   5.042 -0.0589 -0.2089 -0.1693
 8349SOL    HW126263   2.205   6.143   5.046  0.0769 -0.2604  2.8225
 8349SOL    HW226264   2.290   6.020   5.022  0.2130  0.2823  0.3397
 8350SOL     OW26265   3.092   6.292   4.638  0.3825 -0.0107  0.1515
 8350SOL    HW126266   3.036   6.239   4.581  0.4663  0.5996 -0.5066
 8350SOL    HW226267   3.122   6.230   4.705  0.1182 -0.6906 -0.3431
 8351SOL     OW26268   2.812   6.273   3.967 -0.3606  0.7214  0.7134
 8351SOL    HW126269   2.851   6.299   3.883  0.1694  0.8662  0.9984
 8351SOL    HW226270   2.764   6.350   3.996  0.9950  1.3448  1.4319
 8352SOL     OW26271   2.165   5.597   5.032  0.1967  0.0796  0.3939
 8352SOL    HW126272   2.107   5.601   5.109  1.1837 -1.0791  1.2426
 8352SOL    HW226273   2.245   5.640   5.060 -0.6034  2.8161 -1.1932
 8353SOL     OW26274   1.959   7.109   4.888 -0.3631 -0.2327  0.2769
 8353SOL    HW126275   2.044   7.093   4.930  0.2548 -0.5603 -1.0479
 8353SOL    HW226276   1.961   7.201   4.865 -0.4561 -0.1917  0.4310
 8354SOL     OW26277   2.221   5.914   4.372  0.2889 -0.3214 -0.4615
 8354SOL    HW126278   2.211   6.008   4.361  0.0653 -0.3497 -0.4866
 8354SOL    HW226279   2.207   5.877   4.285  1.8729 -0.2521 -0.7752
 8355SOL     OW26280   3.761   6.460   5.650  0.3508 -0.1119  0.0678
 8355SOL    HW126281   3.774   6.384   5.593  1.8486 -0.2859  0.6081
 8355SOL    HW226282   3.681   6.439   5.698  0.4692 -1.1379 -0.1450
 8356SOL     OW26283   2.280   5.679   4.608  0.0028  0.1426 -0.0760
 8356SOL    HW126284   2.274   5.585   4.593 -0.6830  0.1528  0.1447
 8356SOL    HW226285   2.204   5.716   4.563 -0.6841  0.4267  1.2670
 8357SOL     OW26286   3.573   6.000   3.966 -0.4288 -0.2411 -0.2196
 8357SOL    HW126287   3.615   6.046   3.894 -0.3548 -1.5363 -1.0250
 8357SOL    HW226288   3.645   5.957   4.012 -0.3990  1.0676  1.0255
 8358SOL     OW26289   2.268   6.142   4.528 -0.1106 -0.0002 -0.0325
 8358SOL    HW126290   2.328   6.215   4.545 -0.7643  0.3192  0.9616
 8358SOL    HW226291   2.320   6.064   4.541  0.1282  0.2760  0.6875
 8359SOL     OW26292   2.949   6.908   5.423 -0.2861  0.3107 -0.0962
 8359SOL    HW126293   3.044   6.903   5.418 -0.3842 -0.9568 -1.0898
 8359SOL    HW226294   2.923   6.833   5.476 -0.8525 -0.8510 -1.9255
 8360SOL     OW26295   3.358   7.201   5.133 -0.4850  0.2024  0.0424
 8360SOL    HW126296   3.389   7.282   5.092 -0.8182  1.0269  1.3936
 8360SOL    HW226297   3.355   7.138   5.060  0.4894  1.1768 -0.8895
 8361SOL     OW26298   2.008   6.903   5.226 -0.2992 -0.2400  0.3691
 8361SOL    HW126299   1.930   6.870   5.271 -0.9917 -0.6965 -1.1223
 8361SOL    HW226300   1.993   6.883   5.134  1.5531 -0.2465  0.0385
 8362SOL     OW26301   3.306   6.069   3.701  0.1223  0.1454  0.7618
 8362SOL    HW126302   3.319   6.130   3.774  0.5164  1.0066 -0.0109
 8362SOL    HW226303   3.353   5.990   3.728  2.5338  1.3451  0.3457
 8363SOL     OW26304   2.895   6.307   3.683  0.9675 -0.1667 -0.0714
 8363SOL    HW126305   2.802   6.323   3.665  0.5736  0.0096  1.9395
 8363SOL    HW226306   2.940   6.383   3.645  0.2683 -0.0525 -0.6935
 8364SOL     OW26307   2.842   6.901   4.187 -0.2108 -0.9902 -0.0753
 8364SOL    HW126308   2.797   6.853   4.118 -0.9168 -0.7296  0.2009
 8364SOL    HW226309   2.779   6.905   4.259  0.0468 -0.1500  0.1119
 8365SOL     OW26310   2.021   6.245   4.619 -0.4617 -0.5489 -0.1862
 8365SOL    HW126311   2.001   6.180   4.687 -0.1061 -0.6271 -0.1544
 8365SOL    HW226312   2.103   6.215   4.581 -0.6245 -0.4676 -0.6087
 8366SOL     OW26313   1.981   5.691   4.846 -0.0842 -0.6328  0.3606
 8366SOL    HW126314   2.050   5.668   4.907  0.5829 -0.0720 -0.1667
 8366SOL    HW226315   1.998   5.638   4.768  0.9187  0.8891 -0.5050
 8367SOL     OW26316   2.905   6.210   4.904 -0.4067 -0.0361 -0.0380
 8367SOL    HW126317   2.853   6.144   4.857  0.0250 -1.5346  1.5148
 8367SOL    HW226318   2.996   6.188   4.884 -0.2675  1.4101 -1.1824
 8368SOL     OW26319   2.974   5.469   4.711  0.2127  0.1158  0.0853
 8368SOL    HW126320   2.965   5.545   4.654 -0.4885 -0.6242 -0.8349
 8368SOL    HW226321   2.964   5.504   4.800 -1.7582  0.8987 -0.3882
 8369SOL     OW26322   1.224   6.754   4.050 -0.4311 -0.1825 -0.3066
 8369SOL    HW126323   1.160   6.700   4.096 -1.3784  1.9688  1.0575
 8369SOL    HW226324   1.296   6.765   4.112 -0.4435  0.4367 -0.3873
 8370SOL     OW26325   1.807   7.027   4.172 -0.2332 -0.0707  0.2674
 8370SOL    HW126326   1.788   6.961   4.239  0.6780 -0.1536  0.4669
 8370SOL    HW226327   1.795   7.111   4.215  1.7131 -0.1067  1.0071
 8371SOL     OW26328   2.125   7.392   4.494 -0.0053 -0.2045 -0.4204
 8371SOL    HW126329   2.205   7.361   4.535  1.3047  4.0209  0.7593
 8371SOL    HW226330   2.144   7.393   4.401  2.3159  2.5365 -0.0835
 8372SOL     OW26331   2.408   6.380   4.585  0.3758  0.4062  0.7987
 8372SOL    HW126332   2.395   6.420   4.671  0.4716 -1.2036  1.5904
 8372SOL    HW226333   2.503   6.384   4.571  0.2544  1.8433  0.1384
 8373SOL     OW26334   1.841   6.345   4.943  0.2614  0.3623 -0.3763
 8373SOL    HW126335   1.839   6.432   4.902 -0.8182  0.9698  0.8967
 8373SOL    HW226336   1.749   6.316   4.942  0.6096 -0.8186 -0.8372
 8374SOL     OW26337   1.421   6.126   5.371  0.0213  0.0150  0.2222
 8374SOL    HW126338   1.468   6.081   5.301 -0.4534  0.5091 -0.4305
 8374SOL    HW226339   1.374   6.196   5.326 -3.0874 -1.7201  0.4707
 8375SOL     OW26340   3.372   6.253   5.344 -0.3239  0.3283  0.3787
 8375SOL    HW126341   3.395   6.198   5.268  1.7650  0.7525  0.6534
 8375SOL    HW226342   3.391   6.197   5.420 -1.6723  0.1800  0.6239
 8376SOL     OW26343   2.729   6.097   4.352  0.5225 -0.0345  0.4324
 8376SOL    HW126344   2.728   6.057   4.265  0.3002 -1.7036  1.1609
 8376SOL    HW226345   2.719   6.191   4.336  0.8989 -0.2701 -1.3521
 8377SOL     OW26346   3.361   6.315   4.959  0.1333  0.3883 -0.0612
 8377SOL    HW126347   3.432   6.270   5.004 -1.4986 -0.5239  1.7439
 8377SOL    HW226348   3.341   6.391   5.014  1.1169  1.9247 -1.7188
 8378SOL     OW26349   1.781   6.700   5.356 -0.3453  0.6943 -0.1576
 8378SOL    HW126350   1.793   6.633   5.288  0.1956  0.0849  0.5190
 8378SOL    HW226351   1.688   6.696   5.378 -0.2023 -0.2907  0.3170
 8379SOL     OW26352   2.446   5.930   4.986  0.1531 -0.5326  0.8970
 8379SOL    HW126353   2.446   5.849   5.037  0.1335 -0.9247  0.2873
 8379SOL    HW226354   2.415   5.903   4.900 -0.7997  0.3079  0.9656
 8380SOL     OW26355   2.323   7.694   5.894 -0.4263 -0.0541  0.9262
 8380SOL    HW126356   2.229   7.678   5.896 -0.0550 -2.4152  1.6411
 8380SOL    HW226357   2.361   7.613   5.861  1.2918  1.4096 -0.9476
 8381SOL     OW26358   2.129   6.033   3.925  0.0208 -0.5908  0.5231
 8381SOL    HW126359   2.076   5.988   3.859  0.3541  0.0669 -0.2063
 8381SOL    HW226360   2.117   6.126   3.906  1.0458 -0.4192  0.6592
 8382SOL     OW26361   1.673   6.822   4.401  0.3340 -0.1573 -0.2070
 8382SOL    HW126362   1.733   6.750   4.383 -1.3217 -1.4548 -0.8103
 8382SOL    HW226363   1.588   6.791   4.368 -1.4148  0.2272  3.3968
 8383SOL     OW26364   2.629   6.862   4.342  0.2143  0.4476  0.5181
 8383SOL    HW126365   2.545   6.904   4.357 -0.2273  0.0517 -0.7081
 8383SOL    HW226366   2.635   6.794   4.409 -2.3433 -2.2461 -1.7416
 8384SOL     OW26367   3.767   5.701   3.539  0.5094 -0.0812  0.7822
 8384SOL    HW126368   3.701   5.690   3.609  0.5972 -1.8164  0.6500
 8384SOL    HW226369   3.729   5.654   3.464 -0.0865  2.6671 -0.7549
 8385SOL     OW26370   3.677   7.112   4.852 -0.0820 -0.3297 -0.3026
 8385SOL    HW126371   3.689   7.054   4.776 -0.3634 -0.8455  0.0422
 8385SOL    HW226372   3.600   7.077   4.896 -0.6100  0.6743 -0.4207
 8386SOL     OW26373   3.152   7.181   4.518  0.0047  0.1946 -0.5639
 8386SOL    HW126374   3.222   7.219   4.571 -0.4956  0.4151 -0.0521
 8386SOL    HW226375   3.108   7.119   4.576 -1.6822  1.7395 -0.0906
 8387SOL     OW26376   1.316   6.941   4.432  0.0618 -0.0558 -0.1929
 8387SOL    HW126377   1.223   6.959   4.417 -0.4955 -2.4024 -0.0770
 8387SOL    HW226378   1.325   6.847   4.414  1.9829 -0.3350  1.7560
 8388SOL     OW26379   1.881   7.171   5.230 -0.1790  0.1218  0.2971
 8388SOL    HW126380   1.896   7.076   5.231  1.3094  0.3262  1.8755
 8388SOL    HW226381   1.968   7.209   5.244 -0.6786  1.7556 -0.8112
 8389SOL     OW26382   3.780   5.865   4.048 -0.1155 -0.3715  0.0495
 8389SOL    HW126383   3.819   5.812   3.978  0.0249  1.4419 -1.3306
 8389SOL    HW226384   3.851   5.878   4.111 -0.2601 -2.0772  0.6316
 8390SOL     OW26385   3.413   7.020   4.303 -0.0227 -0.2989 -0.8109
 8390SOL    HW126386   3.369   6.965   4.238 -3.6658  2.1193 -0.7165
 8390SOL    HW226387   3.450   7.092   4.252  1.0332 -0.6614 -0.5687
 8391SOL     OW26388   1.756   7.217   5.853 -0.1559 -0.1608  0.1899
 8391SOL    HW126389   1.826   7.236   5.791  0.2415 -1.9149  0.0507
 8391SOL    HW226390   1.677   7.247   5.810  0.3070  0.1900 -0.4337
 8392SOL     OW26391   3.283   6.292   4.344  0.1142  0.1913  0.0732
 8392SOL    HW126392   3.216   6.231   4.312 -0.6160  0.9838  0.0474
 8392SOL    HW226393   3.330   6.320   4.266 -0.9143  1.2383 -0.2049
 8393SOL     OW26394   2.481   7.024   5.361 -0.1172 -0.6727  0.5645
 8393SOL    HW126395   2.564   7.020   5.409  0.2439 -1.2961 -0.0838
 8393SOL    HW226396   2.496   7.089   5.292 -0.6580  0.2748  1.3217
 8394SOL     OW26397   2.769   7.059   3.668  0.2098 -0.0750  0.3006
 8394SOL    HW126398   2.785   6.999   3.594  0.0248 -0.6241  0.6989
 8394SOL    HW226399   2.837   7.036   3.732  1.4130  1.5166 -0.3472
 8395SOL     OW26400   3.479   6.564   5.303 -0.2608 -0.2432  0.1295
 8395SOL    HW126401   3.513   6.480   5.334 -1.4680 -1.3161 -1.2715
 8395SOL    HW226402   3.398   6.541   5.256 -0.1626  1.6060 -1.0563
 8396SOL     OW26403   3.731   5.842   4.706 -0.1377  0.0254  0.6588
 8396SOL    HW126404   3.703   5.894   4.782 -1.1825 -1.0983  1.0939
 8396SOL    HW226405   3.707   5.752   4.729 -2.2553 -0.1575 -1.7288
 8397SOL     OW26406   2.027   5.591   4.348  0.4000  0.3199 -0.1495
 8397SOL    HW126407   1.946   5.551   4.317  0.1992 -0.3925  1.2285
 8397SOL    HW226408   2.043   5.663   4.287  0.6492 -1.6416 -2.6026
 8398SOL     OW26409   2.954   7.065   3.859  0.0086 -0.2956  0.1231
 8398SOL    HW126410   3.018   6.996   3.870 -0.2940 -0.4072  1.4437
 8398SOL    HW226411   2.992   7.124   3.794  0.0057 -1.9780 -1.4905
 8399SOL     OW26412   2.612   6.418   4.930  0.5313  0.0250 -0.2058
 8399SOL    HW126413   2.589   6.329   4.958 -1.1927  0.7550  0.8416
 8399SOL    HW226414   2.661   6.454   5.004  1.6706 -0.1886 -0.8307
 8400SOL     OW26415   2.502   6.676   4.148 -0.2673 -0.4301 -0.2107
 8400SOL    HW126416   2.534   6.699   4.235 -0.1870 -0.5023 -0.2215
 8400SOL    HW226417   2.553   6.731   4.088 -0.4789 -0.2179 -0.1976
 8401SOL     OW26418   2.775   7.559   4.274 -0.3157 -0.0209 -0.4471
 8401SOL    HW126419   2.684   7.532   4.259  0.0270 -1.5021 -0.0600
 8401SOL    HW226420   2.825   7.510   4.209  0.3235 -0.1605  0.1399
 8402SOL     OW26421   1.947   6.835   4.991 -0.4113  0.0914 -0.1252
 8402SOL    HW126422   1.946   6.903   4.924 -0.5074 -0.5234 -0.7628
 8402SOL    HW226423   1.895   6.763   4.953  0.7441 -0.8340 -0.0262
 8403SOL     OW26424   3.513   6.724   4.798 -0.2400 -0.1338  0.3965
 8403SOL    HW126425   3.517   6.799   4.739  2.5678 -0.4458  0.0582
 8403SOL    HW226426   3.419   6.710   4.814 -1.0163  0.9756 -2.6514
 8404SOL     OW26427   2.171   6.720   4.180 -0.1438  0.4060 -0.2992
 8404SOL    HW126428   2.146   6.641   4.229  0.5519 -0.8596 -1.8706
 8404SOL    HW226429   2.266   6.722   4.185 -0.0534  0.2000 -1.6269
 8405SOL     OW26430   2.801   5.784   4.867 -0.1069 -0.0437 -0.2315
 8405SOL    HW126431   2.751   5.723   4.813 -1.9966  0.8622  0.4179
 8405SOL    HW226432   2.805   5.741   4.953  0.4712 -0.2172 -0.3382
 8406SOL     OW26433   2.709   7.207   3.994  0.4770  0.7256  0.1062
 8406SOL    HW126434   2.757   7.128   3.967 -0.9368  0.7912 -3.1080
 8406SOL    HW226435   2.676   7.187   4.081 -1.9004 -3.3846 -1.4510
 8407SOL     OW26436   3.370   5.888   5.207  0.1884  0.7425 -0.2939
 8407SOL    HW126437   3.294   5.838   5.179  1.4491 -0.6314 -1.3660
 8407SOL    HW226438   3.362   5.891   5.303 -1.6984  1.4881 -0.4232
 8408SOL     OW26439   2.062   7.595   3.676 -0.2225  0.5773 -0.2635
 8408SOL    HW126440   2.070   7.678   3.628 -4.5898  1.6074  0.3471
 8408SOL    HW226441   2.075   7.619   3.768 -0.1733  0.3078 -0.1991
 8409SOL     OW26442   1.822   6.602   4.848  0.2609  0.2120  0.0412
 8409SOL    HW126443   1.744   6.633   4.894 -1.3263 -0.4877 -2.0085
 8409SOL    HW226444   1.828   6.658   4.771  1.4077 -0.1621 -0.1522
 8410SOL     OW26445   2.913   5.616   5.368 -0.5309  0.6095  0.0153
 8410SOL    HW126446   2.861   5.599   5.447 -2.2780  0.5953 -1.0952
 8410SOL    HW226447   2.918   5.532   5.323  1.0922  0.4465  0.4258
 8411SOL     OW26448   1.913   5.704   3.974 -0.3288 -0.4806 -0.2828
 8411SOL    HW126449   1.856   5.626   3.971  1.3606 -1.7663 -0.2787
 8411SOL    HW226450   1.973   5.692   3.900 -0.7250  1.4201 -0.9728
 8412SOL     OW26451   2.695   6.376   4.672  0.0686 -0.0437  0.0831
 8412SOL    HW126452   2.694   6.379   4.768  0.4472 -0.9016  0.1268
 8412SOL    HW226453   2.728   6.288   4.651  0.7748  0.4209 -0.8373
 8413SOL     OW26454   1.949   5.644   3.687 -0.1019 -0.5887  0.1277
 8413SOL    HW126455   1.979   5.583   3.620 -1.8510 -0.6181 -0.7038
 8413SOL    HW226456   1.858   5.617   3.705 -0.3956  0.7960  0.8842
 8414SOL     OW26457   3.237   6.544   3.840 -0.3026 -0.1157 -0.3361
 8414SOL    HW126458   3.232   6.570   3.932 -0.3599  1.1196 -0.6734
 8414SOL    HW226459   3.148   6.556   3.807 -0.5046 -1.4531 -0.3429
 8415SOL     OW26460   2.211   6.985   5.462  0.1985 -0.3272  0.0194
 8415SOL    HW126461   2.176   6.944   5.383 -0.0372 -0.2461  0.0818
 8415SOL    HW226462   2.306   6.970   5.457  0.0898 -1.0734  0.1550
 8416SOL     OW26463   2.856   7.215   4.810  0.4518 -0.6556 -0.0697
 8416SOL    HW126464   2.922   7.280   4.831 -0.5084  0.6812 -1.0536
 8416SOL    HW226465   2.897   7.159   4.743  0.3543  0.6502 -1.2712
 8417SOL     OW26466   2.790   5.982   5.161  0.7036 -0.1342 -0.0273
 8417SOL    HW126467   2.706   5.948   5.192 -0.0096 -0.2666 -1.9531
 8417SOL    HW226468   2.843   5.904   5.145  1.0575 -0.0664  0.7322
 8418SOL     OW26469   2.926   6.226   5.189  0.3805  0.3374 -0.2164
 8418SOL    HW126470   2.893   6.136   5.192  0.4533  0.3238  0.3544
 8418SOL    HW226471   2.910   6.254   5.099 -1.6717  0.5144  0.1519
 8419SOL     OW26472   1.677   7.253   5.408 -0.7774  0.3927 -0.0789
 8419SOL    HW126473   1.596   7.215   5.442 -0.4471 -0.0991  0.1777
 8419SOL    HW226474   1.706   7.191   5.340 -0.2379  0.1814  0.3347
 8420SOL     OW26475   3.433   6.340   4.686  0.1612 -0.0768  0.4400
 8420SOL    HW126476   3.404   6.327   4.777  0.8725 -1.0394  0.5535
 8420SOL    HW226477   3.352   6.354   4.637 -0.3095 -0.4222  1.0930
 8421SOL     OW26478   3.112   5.827   3.903  0.1173 -0.4179 -0.2773
 8421SOL    HW126479   3.186   5.866   3.948  0.4766 -1.0189 -0.3438
 8421SOL    HW226480   3.065   5.901   3.866  0.5706 -0.0209 -0.0633
 8422SOL     OW26481   1.950   6.272   4.130  0.4834  0.3576 -0.0982
 8422SOL    HW126482   1.876   6.268   4.191  1.4549  0.7648  1.1544
 8422SOL    HW226483   2.009   6.203   4.160 -0.1299 -1.1696 -2.1757
 8423SOL     OW26484   3.833   5.630   5.242 -0.0659 -0.0047  0.1098
 8423SOL    HW126485   3.899   5.636   5.312  1.8881 -0.4127 -1.5870
 8423SOL    HW226486   3.795   5.543   5.252  1.1580 -0.5923 -0.0870
 8424SOL     OW26487   3.671   6.485   4.779  0.2591 -0.7220 -0.8047
 8424SOL    HW126488   3.643   6.575   4.799 -0.0039 -1.3246  1.9245
 8424SOL    HW226489   3.598   6.448   4.729 -1.2276 -0.4094  1.0111
 8425SOL     OW26490   2.358   6.435   4.078 -0.2974 -0.1510  0.1357
 8425SOL    HW126491   2.350   6.410   3.986 -1.5734  1.0078 -0.1085
 8425SOL    HW226492   2.408   6.517   4.076  0.3347 -0.5145  0.5621
 8426SOL     OW26493   2.395   7.139   4.831  0.0756  0.2294 -0.1214
 8426SOL    HW126494   2.365   7.229   4.845 -1.0967  0.1115 -1.6777
 8426SOL    HW226495   2.325   7.084   4.867 -0.2227 -0.0523 -1.1097
 8427SOL     OW26496   2.387   6.699   4.466 -0.2613  0.0695  0.0588
 8427SOL    HW126497   2.362   6.643   4.393 -0.9446  1.3169 -0.6986
 8427SOL    HW226498   2.374   6.644   4.543 -0.9054 -0.8256 -0.6555
 8428SOL     OW26499   2.879   6.772   3.759  0.1304 -0.1069  0.3425
 8428SOL    HW126500   2.830   6.755   3.679  1.1291 -0.2296 -0.2630
 8428SOL    HW226501   2.971   6.767   3.733  0.5273  2.5492  0.9119
 8429SOL     OW26502   3.893   7.237   4.461  0.0902  0.3944  0.2865
 8429SOL    HW126503   3.829   7.264   4.396  1.5080  2.6266 -0.2772
 8429SOL    HW226504   3.965   7.200   4.410 -0.4930 -1.6732  0.8860
 8430SOL     OW26505   1.815   6.091   5.168 -0.0849 -0.0875 -0.4839
 8430SOL    HW126506   1.853   6.177   5.151 -2.3756  1.6154  2.1292
 8430SOL    HW226507   1.827   6.078   5.262 -1.4957 -1.7445 -0.4882
 8431SOL     OW26508   1.670   6.426   4.104  0.1110 -0.2404 -0.5402
 8431SOL    HW126509   1.629   6.355   4.055 -0.5493  0.4306 -0.9763
 8431SOL    HW226510   1.687   6.389   4.190  1.3652 -1.4711 -1.2732
 8432SOL     OW26511   2.311   6.864   5.936 -0.3206 -0.6184  0.4800
 8432SOL    HW126512   2.337   6.772   5.949  1.1843 -0.1261  1.0792
 8432SOL    HW226513   2.251   6.860   5.861 -1.2596 -2.2345  1.2457
 8433SOL     OW26514   3.359   5.505   5.208 -0.4310 -0.1559  0.0028
 8433SOL    HW126515   3.413   5.461   5.273 -0.0108  1.9312  1.1507
 8433SOL    HW226516   3.384   5.466   5.124  3.0776  0.8698  0.4358
 8434SOL     OW26517   2.147   5.812   4.139 -0.4923  0.0150  0.0915
 8434SOL    HW126518   2.197   5.756   4.081 -0.5162 -1.3141  1.2912
 8434SOL    HW226519   2.075   5.845   4.085 -0.5166 -1.1808 -0.6410
 8435SOL     OW26520   2.775   6.620   4.546 -0.3409 -0.0584 -0.3249
 8435SOL    HW126521   2.772   6.675   4.624 -0.7551  0.4670 -0.7018
 8435SOL    HW226522   2.734   6.538   4.573  0.4421 -0.2655  0.2940
 8436SOL     OW26523   2.139   6.598   5.165  0.4376  0.4285 -0.1262
 8436SOL    HW126524   2.175   6.633   5.084  1.4856 -0.6207 -0.1370
 8436SOL    HW226525   2.200   6.625   5.233 -1.4912  3.0912  0.7093
 8437SOL     OW26526   2.193   7.344   4.238 -0.3217  0.1636  0.9149
 8437SOL    HW126527   2.171   7.253   4.258 -0.1050  0.1969  1.3236
 8437SOL    HW226528   2.245   7.339   4.158 -0.9270 -0.0019  0.5239
 8438SOL     OW26529   2.799   5.319   4.554  0.1122 -0.0252 -1.0142
 8438SOL    HW126530   2.864   5.354   4.615  0.1796  0.5361 -1.3994
 8438SOL    HW226531   2.832   5.344   4.468  0.1539 -1.0339 -1.3115
 8439SOL     OW26532   2.931   5.643   4.523  0.8726  0.5057 -0.1278
 8439SOL    HW126533   2.977   5.724   4.503  0.3836  0.8018 -0.0777
 8439SOL    HW226534   2.840   5.661   4.498  0.7839 -0.0634 -0.2151
 8440SOL     OW26535   2.905   6.854   2.993 -0.8790 -1.0825 -0.9019
 8440SOL    HW126536   3.001   6.851   2.996 -0.7894 -0.0671 -2.0322
 8440SOL    HW226537   2.878   6.762   2.994  0.2017 -1.4540 -2.3699
 8441SOL     OW26538   2.323   6.761   5.273  0.2687  0.0601 -0.3644
 8441SOL    HW126539   2.384   6.832   5.294  0.6473 -0.6107  0.8692
 8441SOL    HW226540   2.294   6.781   5.184  1.0171  1.2956 -0.3606
 8442SOL     OW26541   3.433   5.821   3.767  0.2037  1.0034 -0.0911
 8442SOL    HW126542   3.479   5.743   3.734  3.3824  3.0637 -0.9508
 8442SOL    HW226543   3.483   5.847   3.844  0.1024  3.0237 -0.6713
 8443SOL     OW26544   3.032   6.076   4.036  0.5244  0.1151 -0.2795
 8443SOL    HW126545   3.041   6.079   4.131 -2.4839 -0.6769  0.1252
 8443SOL    HW226546   2.962   6.139   4.016  0.0558 -0.8320 -1.7839
 8444SOL     OW26547   3.448   5.512   4.424  0.2002  0.6302 -0.2597
 8444SOL    HW126548   3.434   5.452   4.351  3.2506 -0.3097 -0.2236
 8444SOL    HW226549   3.508   5.577   4.389 -0.6930  1.9423  0.5939
 8445SOL     OW26550   1.606   6.703   4.018  0.5424  0.0378 -0.0619
 8445SOL    HW126551   1.689   6.749   4.025  1.3273 -1.3100 -0.0257
 8445SOL    HW226552   1.630   6.616   3.985 -0.7291 -0.6984  0.8406
 8446SOL     OW26553   2.766   7.091   4.494 -0.9375 -0.1332  0.1773
 8446SOL    HW126554   2.687   7.056   4.536 -0.6964 -0.8579  0.0481
 8446SOL    HW226555   2.833   7.090   4.563 -1.0216  0.4376  0.2744
 8447SOL     OW26556   1.931   6.276   5.938  0.0839  0.2937  0.5853
 8447SOL    HW126557   2.009   6.227   5.963  0.2154  1.4689  2.7433
 8447SOL    HW226558   1.933   6.355   5.993 -3.4428 -0.3909  1.9753
 8448SOL     OW26559   1.814   5.970   6.259 -0.4159  1.0810  0.0683
 8448SOL    HW126560   1.805   5.910   6.332  1.8568  1.5055  0.7791
 8448SOL    HW226561   1.790   5.919   6.182 -0.7944  0.0003  0.8923
 8449SOL     OW26562   1.951   5.591   6.161  0.2954 -0.1852 -0.3335
 8449SOL    HW126563   1.933   5.602   6.254  1.4521 -0.9931  0.0001
 8449SOL    HW226564   1.875   5.631   6.117 -1.2852 -1.6012  0.9650
 8450SOL     OW26565   2.268   6.864   6.986  0.4757 -0.3297  0.2567
 8450SOL    HW126566   2.336   6.816   6.938 -0.4282 -1.2277 -0.1458
 8450SOL    HW226567   2.308   6.882   7.071  1.1986 -0.9153  0.0544
 8451SOL     OW26568   3.128   7.469   6.881 -0.1886  0.4290 -0.0584
 8451SOL    HW126569   3.111   7.423   6.963  1.7633 -0.6495 -0.1916
 8451SOL    HW226570   3.085   7.416   6.814  0.6301 -0.3363 -0.0129
 8452SOL     OW26571   3.251   6.294   6.324 -0.2117 -0.4566 -0.7190
 8452SOL    HW126572   3.288   6.226   6.267  0.3719 -0.1701 -0.6891
 8452SOL    HW226573   3.301   6.373   6.303  2.9446 -1.1510  3.0421
 8453SOL     OW26574   3.878   5.825   5.881 -0.4976 -0.0304  0.3762
 8453SOL    HW126575   3.868   5.729   5.884  0.4221 -0.2365 -1.6197
 8453SOL    HW226576   3.822   5.853   5.808  0.7865  0.6803 -0.3742
 8454SOL     OW26577   2.218   6.591   6.524 -0.2797 -0.2123  0.3153
 8454SOL    HW126578   2.274   6.615   6.451  0.0025  0.7303  0.8314
 8454SOL    HW226579   2.148   6.538   6.485  1.5490 -2.3964 -0.1775
 8455SOL     OW26580   2.369   6.008   7.672  0.5263  0.8164  0.0752
 8455SOL    HW126581   2.342   5.920   7.646 -1.4474  1.2898  0.3739
 8455SOL    HW226582   2.454   5.995   7.713  0.1477 -1.0015  0.4023
 8456SOL     OW26583   2.929   6.401   5.773  0.2777  0.0545  0.0419
 8456SOL    HW126584   2.923   6.414   5.867  0.3416  3.2482 -0.2847
 8456SOL    HW226585   2.877   6.322   5.756  0.8226 -0.9920  2.7647
 8457SOL     OW26586   2.621   6.705   7.259  0.0316  0.3118  0.6939
 8457SOL    HW126587   2.631   6.648   7.182 -1.4525 -0.1368  0.8017
 8457SOL    HW226588   2.710   6.714   7.294  0.1995 -3.0683  1.4710
 8458SOL     OW26589   2.292   7.142   6.586 -0.1603 -0.2471  0.7555
 8458SOL    HW126590   2.294   7.115   6.678 -1.6713 -0.6265  0.6942
 8458SOL    HW226591   2.320   7.063   6.539  0.2071 -0.1790  0.8513
 8459SOL     OW26592   2.824   7.335   6.863 -0.1591 -0.3664  0.8740
 8459SOL    HW126593   2.816   7.241   6.848  0.7322 -0.6770  2.2857
 8459SOL    HW226594   2.810   7.347   6.957 -0.1600  0.9095  0.7370
 8460SOL     OW26595   2.303   5.837   6.704 -0.3631  1.1604 -0.0254
 8460SOL    HW126596   2.277   5.904   6.640  1.3628  0.6129 -1.3715
 8460SOL    HW226597   2.383   5.799   6.668 -0.8963 -1.1562  1.0610
 8461SOL     OW26598   3.160   5.892   6.230 -0.4052 -0.2742 -0.0659
 8461SOL    HW126599   3.110   5.942   6.294  1.2982  0.9617  0.3516
 8461SOL    HW226600   3.170   5.805   6.270 -3.1498 -0.9823 -0.6848
 8462SOL     OW26601   1.690   7.227   6.134 -0.3688 -0.1424  0.1402
 8462SOL    HW126602   1.734   7.221   6.049 -0.1263  0.9582  0.1749
 8462SOL    HW226603   1.640   7.309   6.130 -1.8484 -0.9830  0.3827
 8463SOL     OW26604   3.015   7.068   7.658  0.1548 -0.0097 -0.6063
 8463SOL    HW126605   2.975   7.058   7.744  1.1846  0.7785 -0.0143
 8463SOL    HW226606   3.078   7.139   7.669 -1.6903  2.1572 -2.6928
 8464SOL     OW26607   1.862   6.788   6.031  0.1732 -0.3171  0.1215
 8464SOL    HW126608   1.827   6.842   5.960  2.5697  0.4867 -0.5654
 8464SOL    HW226609   1.813   6.706   6.026 -1.0416  0.4449 -1.2108
 8465SOL     OW26610   1.948   6.742   6.675 -0.8240  0.1230 -0.1775
 8465SOL    HW126611   1.862   6.700   6.683 -0.4712 -0.5011  0.5246
 8465SOL    HW226612   1.990   6.724   6.759 -0.0250  0.4550 -0.5053
 8466SOL     OW26613   2.299   7.229   7.110 -0.2536  0.0890  0.4016
 8466SOL    HW126614   2.382   7.181   7.114  0.5863  1.4889  0.3642
 8466SOL    HW226615   2.261   7.217   7.197  0.1401 -0.3012  0.5272
 8467SOL     OW26616   2.435   6.734   5.642  0.0366  0.1312  0.1521
 8467SOL    HW126617   2.423   6.659   5.700 -1.8859  0.4836  0.2764
 8467SOL    HW226618   2.350   6.777   5.640  0.8929  1.9078 -0.5006
 8468SOL     OW26619   3.029   5.633   6.878  0.4348  0.4640 -0.3107
 8468SOL    HW126620   3.007   5.570   6.947  1.5711 -2.2862 -2.2521
 8468SOL    HW226621   2.952   5.633   6.820  0.8000  0.0907 -0.8080
 8469SOL     OW26622   1.892   6.471   6.114  0.2343 -0.6049 -0.0531
 8469SOL    HW126623   1.857   6.424   6.190  1.6551 -0.2260  0.8691
 8469SOL    HW226624   1.961   6.527   6.150  2.1747 -1.7077 -1.8437
 8470SOL     OW26625   3.897   7.338   5.941  0.2292 -0.1873 -0.5256
 8470SOL    HW126626   3.907   7.254   5.897 -1.0952 -1.1636  0.9432
 8470SOL    HW226627   3.844   7.390   5.880  2.5715  0.3021 -2.2674
 8471SOL     OW26628   1.713   6.954   5.832  0.4312  0.0810  0.1974
 8471SOL    HW126629   1.720   6.953   5.737 -2.4961  0.1731 -0.0909
 8471SOL    HW226630   1.726   7.045   5.857  0.8210  0.1176 -0.1331
 8472SOL     OW26631   3.491   5.766   6.394  0.2342  0.4476  0.7822
 8472SOL    HW126632   3.406   5.783   6.353  1.0365  2.5803 -0.1261
 8472SOL    HW226633   3.513   5.677   6.366 -1.3839  0.1115  0.4807
 8473SOL     OW26634   3.402   6.815   6.280  1.2274 -0.3553  0.2438
 8473SOL    HW126635   3.446   6.841   6.362  1.6149  1.7989 -0.5606
 8473SOL    HW226636   3.457   6.853   6.211  0.1747 -0.9675 -0.9694
 8474SOL     OW26637   1.941   6.362   7.216  0.0900 -0.1384  0.2522
 8474SOL    HW126638   1.900   6.341   7.300  3.3829 -2.6545  1.4368
 8474SOL    HW226639   2.009   6.426   7.239  1.4110 -1.2916 -0.3032
 8475SOL     OW26640   2.393   6.954   6.399  0.0833  1.0189  0.3704
 8475SOL    HW126641   2.426   6.865   6.416 -0.9867  0.9681  2.4548
 8475SOL    HW226642   2.363   6.951   6.308  0.6533 -0.5662  0.2001
 8476SOL     OW26643   2.814   6.701   7.537 -0.3127  0.0384  0.1812
 8476SOL    HW126644   2.802   6.792   7.509  0.4858  0.0383 -0.2030
 8476SOL    HW226645   2.890   6.671   7.487 -1.5481 -1.3613 -0.9335
 8477SOL     OW26646   2.761   5.887   6.014  0.0201  0.1835  0.3574
 8477SOL    HW126647   2.723   5.947   5.950  3.5188  0.8513 -1.3786
 8477SOL    HW226648   2.822   5.941   6.064 -0.7219 -0.8971  2.5315
 8478SOL     OW26649   2.208   6.384   6.775  0.3550 -0.2493  0.0613
 8478SOL    HW126650   2.200   6.477   6.757  2.0239 -0.3319 -1.3215
 8478SOL    HW226651   2.273   6.378   6.845 -2.2891 -0.2608  2.7552
 8479SOL     OW26652   3.514   6.501   5.762 -0.0362 -0.2339 -0.3779
 8479SOL    HW126653   3.470   6.567   5.815 -0.0117 -1.0542  0.7114
 8479SOL    HW226654   3.444   6.442   5.735  0.3171 -1.5907  1.4320
 8480SOL     OW26655   2.700   7.807   7.220  0.9018 -0.1214 -0.4997
 8480SOL    HW126656   2.741   7.869   7.281  0.0322  0.5850 -0.6202
 8480SOL    HW226657   2.627   7.770   7.269  0.0578  0.6222 -1.1838
 8481SOL     OW26658   2.142   5.607   7.435 -0.0395  0.3059 -0.6744
 8481SOL    HW126659   2.215   5.566   7.388  1.4315  1.5543  0.4593
 8481SOL    HW226660   2.125   5.688   7.386 -0.6965  0.0171 -0.9381
 8482SOL     OW26661   3.220   7.450   7.198  0.1052  0.2571 -0.3827
 8482SOL    HW126662   3.283   7.508   7.156  2.1451 -1.9784 -0.6328
 8482SOL    HW226663   3.178   7.404   7.126  0.0647 -0.1197 -0.1223
 8483SOL     OW26664   3.260   7.253   6.477 -0.2107 -0.3963 -0.4270
 8483SOL    HW126665   3.346   7.219   6.501 -1.0668 -1.1245  1.9095
 8483SOL    HW226666   3.250   7.233   6.384  1.7302 -1.1629 -0.4936
 8484SOL     OW26667   2.654   6.895   5.596  0.5237  0.4379  0.1150
 8484SOL    HW126668   2.725   6.839   5.564 -0.8969 -0.8275 -0.9814
 8484SOL    HW226669   2.577   6.838   5.595 -0.7839  2.1530 -0.0297
 8485SOL     OW26670   2.774   5.702   6.736 -0.2065  0.1807 -0.2704
 8485SOL    HW126671   2.692   5.728   6.694 -0.6559  0.7713  0.9381
 8485SOL    HW226672   2.763   5.726   6.828  1.3740  0.3713 -0.1069
 8486SOL     OW26673   3.610   7.218   6.082 -0.4551  0.3634 -0.1896
 8486SOL    HW126674   3.624   7.272   6.159 -0.5448 -0.3545  0.3450
 8486SOL    HW226675   3.595   7.280   6.011 -0.6932  1.0302  0.4309
 8487SOL     OW26676   2.014   6.260   6.639  0.0280 -0.1646 -0.0738
 8487SOL    HW126677   2.080   6.297   6.698  0.9116 -0.5313 -0.8124
 8487SOL    HW226678   1.966   6.337   6.606 -0.2196  0.0698  0.8013
 8488SOL     OW26679   3.136   6.321   7.386  0.3966 -0.1301  0.1376
 8488SOL    HW126680   3.078   6.272   7.444  0.7009 -1.1204 -0.3764
 8488SOL    HW226681   3.191   6.255   7.345  0.1153  0.5296 -1.3758
 8489SOL     OW26682   2.509   6.419   7.800 -0.0084  0.4860 -0.3322
 8489SOL    HW126683   2.451   6.489   7.829  0.2302  0.3040  0.6269
 8489SOL    HW226684   2.543   6.449   7.716 -0.9399  0.9086 -0.5728
 8490SOL     OW26685   3.117   6.117   6.995  0.1099 -0.2258  0.1538
 8490SOL    HW126686   3.175   6.165   6.937 -0.1262 -0.6540 -0.4537
 8490SOL    HW226687   3.054   6.074   6.936 -0.2774 -0.4807  0.7377
 8491SOL     OW26688   2.958   6.097   5.761  0.0516 -0.0180 -0.1626
 8491SOL    HW126689   2.988   6.121   5.673  0.7006  0.0630  0.0776
 8491SOL    HW226690   3.028   6.042   5.796 -0.2642 -0.1582  0.2561
 8492SOL     OW26691   1.556   6.665   6.904  0.1019  0.9232 -0.6175
 8492SOL    HW126692   1.473   6.687   6.861 -0.5585  0.0544  0.1509
 8492SOL    HW226693   1.529   6.633   6.991  1.0442 -1.5191 -1.1313
 8493SOL     OW26694   2.184   7.764   7.424 -0.1498  0.3825  0.0144
 8493SOL    HW126695   2.102   7.737   7.464  0.3539  1.2052  1.6864
 8493SOL    HW226696   2.160   7.837   7.366 -0.5809  0.7637  0.6609
 8494SOL     OW26697   3.431   5.824   5.474 -0.0063  0.4223  0.0788
 8494SOL    HW126698   3.391   5.836   5.560  0.3701  0.4059  0.2587
 8494SOL    HW226699   3.435   5.729   5.463 -1.5483  0.4119 -0.6671
 8495SOL     OW26700   3.831   6.429   7.389  0.6755  0.1675 -0.0020
 8495SOL    HW126701   3.755   6.372   7.398  0.3867  0.6737  0.9015
 8495SOL    HW226702   3.865   6.411   7.301  1.0568 -1.9604  0.5258
 8496SOL     OW26703   3.387   6.528   6.211 -0.1227 -0.5362 -0.1229
 8496SOL    HW126704   3.467   6.538   6.262  0.4231 -0.3176 -1.0010
 8496SOL    HW226705   3.340   6.611   6.222 -0.3086 -0.7271  0.5237
 8497SOL     OW26706   2.552   5.767   6.577 -0.1350  0.5281 -0.1294
 8497SOL    HW126707   2.567   5.672   6.572  1.7511  0.7112  0.8655
 8497SOL    HW226708   2.511   5.789   6.493  0.9834 -0.9414 -1.1370
 8498SOL     OW26709   3.030   6.871   5.811  0.1360  0.1529 -0.3170
 8498SOL    HW126710   2.966   6.940   5.794  0.6804  0.9104  0.5862
 8498SOL    HW226711   3.110   6.903   5.768  0.3122 -0.0616 -0.1450
 8499SOL     OW26712   2.258   7.279   6.363  0.4742  0.4308 -0.2493
 8499SOL    HW126713   2.263   7.210   6.429  0.0799  0.5159 -0.1308
 8499SOL    HW226714   2.348   7.309   6.353  0.7361 -0.4462 -0.6645
 8500SOL     OW26715   3.336   6.743   6.620 -0.4979 -0.3320  0.3901
 8500SOL    HW126716   3.375   6.803   6.556 -0.4782  0.6492  1.2919
 8500SOL    HW226717   3.407   6.725   6.682 -0.7741 -0.5300  0.6540
 8501SOL     OW26718   2.983   6.991   7.405 -0.0317 -0.2970 -0.4340
 8501SOL    HW126719   2.990   7.023   7.495  0.0265  0.1491 -0.5905
 8501SOL    HW226720   3.069   7.009   7.367 -0.3225  0.3099 -0.8262
 8502SOL     OW26721   2.321   6.286   5.811 -0.3151 -0.0655  0.5612
 8502SOL    HW126722   2.272   6.287   5.893 -0.5786  1.4508  0.4275
 8502SOL    HW226723   2.256   6.265   5.744 -0.6622  1.1815  0.4754
 8503SOL     OW26724   3.682   5.970   6.837 -0.5963 -0.1159 -0.5154
 8503SOL    HW126725   3.722   5.884   6.849  1.3964  0.9586  1.1500
 8503SOL    HW226726   3.589   5.955   6.853  0.0778 -1.4774  3.1949
 8504SOL     OW26727   1.955   7.087   7.273  0.1172  0.2502 -0.3639
 8504SOL    HW126728   1.936   7.093   7.367 -0.9110  0.9820 -0.5986
 8504SOL    HW226729   1.975   7.177   7.247  0.3385  0.0585 -0.8687
 8505SOL     OW26730   3.472   6.827   5.322 -0.2068  0.1116 -0.2590
 8505SOL    HW126731   3.491   6.842   5.229  3.4192 -2.2365 -0.1001
 8505SOL    HW226732   3.478   6.732   5.332 -0.8551  0.2699  2.3482
 8506SOL     OW26733   1.966   5.420   7.317 -0.2203  1.1380  0.1673
 8506SOL    HW126734   1.946   5.511   7.337 -1.1308  0.7131  1.2934
 8506SOL    HW226735   2.036   5.396   7.378  0.5457  1.2780 -0.6311
 8507SOL     OW26736   3.756   6.558   5.160 -0.0858  0.2744 -0.4433
 8507SOL    HW126737   3.762   6.470   5.124  0.0504 -0.4766  1.3568
 8507SOL    HW226738   3.666   6.565   5.191  0.2875  0.2586  0.6655
 8508SOL     OW26739   2.207   6.542   5.717 -0.3565 -0.0419  0.1395
 8508SOL    HW126740   2.128   6.556   5.664  0.2641  0.4865 -0.6809
 8508SOL    HW226741   2.249   6.465   5.678 -0.3525 -0.1854  0.4282
 8509SOL     OW26742   3.272   5.394   6.286 -0.4372 -0.3967  0.0378
 8509SOL    HW126743   3.191   5.343   6.293 -0.4497 -1.2942 -4.1969
 8509SOL    HW226744   3.338   5.330   6.261  1.0019  0.7665  0.7469
 8510SOL     OW26745   2.014   7.436   6.740  0.2625  0.0212 -0.2686
 8510SOL    HW126746   2.081   7.446   6.808 -0.7828  1.7617  0.5923
 8510SOL    HW226747   1.965   7.358   6.765  0.0288  0.5200  0.8720
 8511SOL     OW26748   2.781   6.919   6.359  0.0182  0.0254  0.6427
 8511SOL    HW126749   2.851   6.904   6.422  1.7982 -0.3118 -1.3282
 8511SOL    HW226750   2.768   6.834   6.316 -1.0253  0.2934  0.3957
 8512SOL     OW26751   2.170   6.224   6.064  0.8191 -0.0843  0.2284
 8512SOL    HW126752   2.164   6.255   6.154 -0.9631 -1.1799  0.5453
 8512SOL    HW226753   2.218   6.141   6.071  0.8103 -0.0955  0.1599
 8513SOL     OW26754   3.002   5.501   7.320 -0.2918  0.2770  0.0349
 8513SOL    HW126755   2.917   5.457   7.316 -0.0953 -0.0215 -1.4791
 8513SOL    HW226756   2.981   5.592   7.340 -0.8794  0.0054  0.7146
 8514SOL     OW26757   3.132   5.709   5.242  0.0243 -0.5457 -0.3736
 8514SOL    HW126758   3.202   5.645   5.257  0.0619 -0.2109  0.9832
 8514SOL    HW226759   3.055   5.672   5.285 -0.8094 -1.1311 -2.2505
 8515SOL     OW26760   2.621   5.028   7.522 -0.4337  0.0038 -0.2212
 8515SOL    HW126761   2.565   5.015   7.446  0.1388  1.5357 -0.9481
 8515SOL    HW226762   2.569   5.081   7.582 -0.7945 -0.9967  0.3659
 8516SOL     OW26763   2.988   6.645   6.641 -0.1488  0.2708 -0.3926
 8516SOL    HW126764   2.930   6.640   6.566 -1.5679  0.9791  0.5996
 8516SOL    HW226765   3.055   6.578   6.626 -0.6670  0.0998 -2.0334
 8517SOL     OW26766   2.906   6.361   7.582 -0.3229 -0.0799  0.0590
 8517SOL    HW126767   2.880   6.377   7.491  0.7731 -1.2775 -0.5012
 8517SOL    HW226768   2.870   6.275   7.603 -2.1662  0.9603  1.4254
 8518SOL     OW26769   2.803   6.601   6.391 -0.1637  0.0347  0.3708
 8518SOL    HW126770   2.776   6.519   6.433 -5.4353  0.5054 -1.3814
 8518SOL    HW226771   2.860   6.573   6.319  0.1347 -1.8235  1.2823
 8519SOL     OW26772   2.927   6.058   6.121 -0.0074 -0.2955  0.0681
 8519SOL    HW126773   2.953   6.150   6.109 -2.6302  0.6518  0.9461
 8519SOL    HW226774   2.992   6.023   6.182  4.1977 -0.7198 -4.0271
 8520SOL     OW26775   2.431   5.862   6.336 -0.0247  0.8190 -0.6626
 8520SOL    HW126776   2.512   5.888   6.293  1.2855 -2.0838 -0.2286
 8520SOL    HW226777   2.377   5.825   6.266  1.3721 -2.2517 -0.2656
 8521SOL     OW26778   3.193   6.459   5.385 -0.0529 -1.0413  0.0408
 8521SOL    HW126779   3.254   6.394   5.350  1.3603  0.1209  0.2522
 8521SOL    HW226780   3.223   6.475   5.474  1.0541  1.4891 -0.6944
 8522SOL     OW26781   1.909   5.568   5.599 -0.2070  0.3405 -0.4432
 8522SOL    HW126782   1.994   5.577   5.554  0.1701 -1.1589 -0.0728
 8522SOL    HW226783   1.899   5.650   5.647  1.5503  0.1437  0.3442
 8523SOL     OW26784   3.051   5.757   5.637  0.2420 -0.0890  0.0470
 8523SOL    HW126785   3.097   5.738   5.718  0.8435 -1.4685 -0.5880
 8523SOL    HW226786   2.992   5.683   5.624 -1.0583  0.9065  0.0510
 8524SOL     OW26787   2.399   5.875   6.946  0.1099  0.0617 -0.2870
 8524SOL    HW126788   2.357   5.940   7.003  0.5285  0.8882 -0.9126
 8524SOL    HW226789   2.370   5.898   6.858  2.2483  0.9771 -0.8063
 8525SOL     OW26790   3.143   6.698   6.360  0.3076 -0.0688  0.6360
 8525SOL    HW126791   3.082   6.730   6.427 -0.3339  0.0248  0.0130
 8525SOL    HW226792   3.226   6.741   6.382  0.4491 -1.0424  2.1377
 8526SOL     OW26793   2.510   6.678   6.401 -0.0305  0.4131  0.1981
 8526SOL    HW126794   2.485   6.616   6.334 -1.9732  1.0143  0.3130
 8526SOL    HW226795   2.600   6.653   6.424  0.4156 -0.2690 -2.0398
 8527SOL     OW26796   3.195   7.177   6.213  0.0335  0.0318  0.0752
 8527SOL    HW126797   3.213   7.091   6.174  0.3034 -0.5700  1.4885
 8527SOL    HW226798   3.100   7.178   6.225  0.0148 -0.0181 -0.0660
 8528SOL     OW26799   2.924   6.455   5.355 -0.2483  0.1303 -0.0587
 8528SOL    HW126800   3.019   6.451   5.353 -0.1962  0.7783  0.6821
 8528SOL    HW226801   2.895   6.383   5.300  0.6725 -0.0149 -0.3549
 8529SOL     OW26802   1.853   6.168   7.059  0.3046  0.0847  0.6677
 8529SOL    HW126803   1.876   6.187   6.968 -1.5386  1.9603  0.5408
 8529SOL    HW226804   1.884   6.244   7.109  0.6796 -0.6117  1.5413
 8530SOL     OW26805   2.628   5.750   6.983 -0.1360  0.6338  0.3446
 8530SOL    HW126806   2.563   5.810   6.948 -1.1579 -1.5512 -1.8895
 8530SOL    HW226807   2.579   5.670   7.001  1.5249 -0.2961  0.9166
 8531SOL     OW26808   2.681   6.114   5.813 -0.2297  0.0811 -0.5841
 8531SOL    HW126809   2.636   6.147   5.736 -0.6160 -0.9407 -0.8145
 8531SOL    HW226810   2.773   6.117   5.791 -0.3431 -0.2755 -1.1294
 8532SOL     OW26811   2.877   5.712   6.251 -0.2058  0.1562 -0.5770
 8532SOL    HW126812   2.853   5.754   6.169 -0.2407 -0.6989 -1.0231
 8532SOL    HW226813   2.806   5.650   6.268 -0.1249  0.2227  0.0247
 8533SOL     OW26814   3.264   6.788   6.871  0.3252  0.0353 -0.1091
 8533SOL    HW126815   3.181   6.744   6.889 -0.2593  1.0356 -0.2672
 8533SOL    HW226816   3.284   6.765   6.780  0.8416 -1.1598  0.2858
 8534SOL     OW26817   3.418   6.171   6.845  0.4323 -0.0016 -0.1333
 8534SOL    HW126818   3.423   6.110   6.918 -0.0977 -0.4369 -0.4555
 8534SOL    HW226819   3.466   6.248   6.875 -0.1398 -0.0061  0.8458
 8535SOL     OW26820   3.794   6.053   6.051  0.0223 -0.2781 -0.1044
 8535SOL    HW126821   3.816   5.967   6.015 -0.3308 -0.6402  0.5247
 8535SOL    HW226822   3.788   6.038   6.145  0.1347  0.4798  0.0280
 8536SOL     OW26823   2.358   7.025   6.138 -0.3046  0.3515 -0.1071
 8536SOL    HW126824   2.335   6.964   6.068  0.2435 -0.8499  0.7200
 8536SOL    HW226825   2.366   7.110   6.095 -0.1730 -0.3225 -1.4550
 8537SOL     OW26826   3.156   6.940   6.103 -0.0478 -0.7281 -0.0431
 8537SOL    HW126827   3.167   6.870   6.167 -1.3060  1.1617  2.3896
 8537SOL    HW226828   3.078   6.916   6.054 -0.9487 -0.6757  1.3187
 8538SOL     OW26829   3.559   6.349   6.060  0.2594  0.3606 -0.4794
 8538SOL    HW126830   3.633   6.332   6.002  0.4902  1.5011 -0.5553
 8538SOL    HW226831   3.483   6.312   6.015  0.6158  0.1703 -0.9344
 8539SOL     OW26832   2.256   5.984   5.978  0.3201 -0.1354  0.5765
 8539SOL    HW126833   2.235   6.031   5.896  0.6308 -0.5355  0.2677
 8539SOL    HW226834   2.188   5.917   5.984  0.6782 -0.5282  0.3032
 8540SOL     OW26835   3.225   6.403   6.871  0.0182 -0.6849  0.6769
 8540SOL    HW126836   3.193   6.412   6.781  0.3785  1.4013  0.7283
 8540SOL    HW226837   3.307   6.452   6.873  1.0975 -2.4006  1.6565
 8541SOL     OW26838   2.981   7.012   6.911  0.3637 -0.2405  0.1669
 8541SOL    HW126839   2.901   6.995   6.961 -0.5636 -0.4224 -1.3184
 8541SOL    HW226840   3.029   6.930   6.912 -1.5783 -1.5336 -2.5538
 8542SOL     OW26841   3.228   7.203   7.782 -0.2899 -0.0062 -0.5333
 8542SOL    HW126842   3.192   7.127   7.827 -3.2611  0.3214 -2.1043
 8542SOL    HW226843   3.312   7.172   7.747  2.5755 -0.1190  5.2776
 8543SOL     OW26844   2.456   6.332   6.622 -0.4385  0.0483 -0.2225
 8543SOL    HW126845   2.371   6.373   6.630 -0.2701  0.3450  0.0376
 8543SOL    HW226846   2.445   6.267   6.552 -0.1535  1.9747 -2.1543
 8544SOL     OW26847   3.599   6.395   6.911 -0.7970  0.4094  0.2973
 8544SOL    HW126848   3.556   6.458   6.969  1.5966  0.9279  1.6423
 8544SOL    HW226849   3.625   6.447   6.834 -2.7265  0.0289 -0.6587
 8545SOL     OW26850   3.319   5.110   7.369 -0.0909  0.4725  0.5794
 8545SOL    HW126851   3.347   5.044   7.306  2.0919  0.6846  1.2688
 8545SOL    HW226852   3.359   5.084   7.452 -0.6477  1.7052  1.2652
 8546SOL     OW26853   2.877   6.505   7.860 -0.2805  0.2607  0.9247
 8546SOL    HW126854   2.922   6.469   7.784 -0.9839  0.6078  0.3369
 8546SOL    HW226855   2.824   6.432   7.893 -0.7266  0.3874  0.4942
 8547SOL     OW26856   3.115   6.550   5.656 -0.1789  0.6064 -0.1780
 8547SOL    HW126857   3.129   6.616   5.724  1.6076 -0.7500  0.8838
 8547SOL    HW226858   3.050   6.491   5.693 -1.5451  1.5331 -1.0009
 8548SOL     OW26859   2.340   6.531   7.075 -0.3612  0.5602 -0.6991
 8548SOL    HW126860   2.398   6.460   7.104 -0.2311  0.3426 -1.4594
 8548SOL    HW226861   2.382   6.565   6.996 -0.3484  1.5919 -0.2650
 8549SOL     OW26862   2.871   5.712   7.504  0.2068  0.0906  0.1163
 8549SOL    HW126863   2.917   5.785   7.462 -0.8268  0.5413 -0.2700
 8549SOL    HW226864   2.778   5.737   7.500  0.0111 -0.1110  2.1771
 8550SOL     OW26865   1.932   7.199   6.796  0.2850 -0.7391 -0.3460
 8550SOL    HW126866   2.005   7.151   6.837 -0.0149 -0.3789  0.6364
 8550SOL    HW226867   1.917   7.153   6.713  0.1571 -2.2213  0.4619
 8551SOL     OW26868   2.709   6.611   6.021 -0.8091  0.2493 -0.1990
 8551SOL    HW126869   2.691   6.571   5.936 -0.5282  0.6152 -0.4333
 8551SOL    HW226870   2.663   6.695   6.019  2.2159  2.0226 -1.4989
 8552SOL     OW26871   2.782   6.092   6.529 -0.5642 -0.7641  0.2858
 8552SOL    HW126872   2.714   6.033   6.563 -1.8206 -0.2593 -1.2327
 8552SOL    HW226873   2.757   6.108   6.438  1.1309  0.1491 -0.0631
 8553SOL     OW26874   3.516   6.978   6.054 -0.7325  0.1387  0.3343
 8553SOL    HW126875   3.502   6.968   5.960  0.9286 -0.3132  0.0875
 8553SOL    HW226876   3.524   7.072   6.068 -2.8259  0.3583  0.3671
 8554SOL     OW26877   3.139   7.225   7.032 -0.1879 -0.0020  0.1484
 8554SOL    HW126878   3.094   7.150   6.994 -0.6131  0.6220 -0.6115
 8554SOL    HW226879   3.215   7.240   6.976  0.8429 -0.8746  1.2633
 8555SOL     OW26880   3.313   6.118   6.151 -0.3494  0.0539 -0.1231
 8555SOL    HW126881   3.254   6.044   6.167 -0.0962 -0.4670 -1.5229
 8555SOL    HW226882   3.314   6.128   6.056  0.4551  1.1912 -0.0137
 8556SOL     OW26883   2.179   7.107   6.891 -0.8605 -0.2494  1.0265
 8556SOL    HW126884   2.183   7.013   6.911 -0.5049 -0.8084 -1.3409
 8556SOL    HW226885   2.224   7.149   6.963  1.5978 -2.1837  0.7405
 8557SOL     OW26886   2.493   6.475   7.370 -0.2462  0.4337  0.1433
 8557SOL    HW126887   2.502   6.565   7.338  0.4483 -0.2629 -1.7759
 8557SOL    HW226888   2.560   6.467   7.439  0.0875  1.2129 -0.0777
 8558SOL     OW26889   3.014   6.638   7.340  0.1789  0.4841 -0.0290
 8558SOL    HW126890   3.060   6.568   7.292  1.1337 -0.3514  1.9888
 8558SOL    HW226891   2.994   6.703   7.273  1.3078 -0.6859 -1.5919
 8559SOL     OW26892   3.019   5.490   7.929 -0.1881  0.4317  0.1134
 8559SOL    HW126893   3.018   5.585   7.938  1.7606  0.7545 -2.0870
 8559SOL    HW226894   3.059   5.474   7.843 -2.5270 -2.3391 -0.6298
 8560SOL     OW26895   2.159   5.434   7.663 -0.6315 -0.1893  0.2051
 8560SOL    HW126896   2.143   5.345   7.633 -0.3625 -0.4703  0.8535
 8560SOL    HW226897   2.139   5.490   7.588 -1.3923 -0.7516 -0.0136
 8561SOL     OW26898   2.275   6.337   6.298  0.5780  0.1492 -0.6503
 8561SOL    HW126899   2.343   6.385   6.251  0.5911 -1.0649 -1.9586
 8561SOL    HW226900   2.316   6.253   6.320 -0.0216 -0.0019 -0.0924
 8562SOL     OW26901   3.065   6.441   7.119  0.2527  0.1313 -0.4185
 8562SOL    HW126902   3.082   6.375   7.186 -0.0798  0.8552  0.3991
 8562SOL    HW226903   3.125   6.419   7.047  1.7062  0.2139  0.7139
 8563SOL     OW26904   3.276   6.327   5.655  0.1273 -0.3950  0.9358
 8563SOL    HW126905   3.212   6.294   5.593 -1.3757  1.5716  1.3370
 8563SOL    HW226906   3.243   6.413   5.680  2.9029  0.7142  1.1922
 8564SOL     OW26907   2.172   6.024   6.539 -0.3128 -0.4398 -0.3134
 8564SOL    HW126908   2.107   6.086   6.574 -0.0490 -0.5199  0.3389
 8564SOL    HW226909   2.128   5.982   6.465 -0.6183  0.2833 -0.5571
 8565SOL     OW26910   1.758   6.938   7.124  0.3223 -0.1342 -0.2033
 8565SOL    HW126911   1.741   6.869   7.188 -0.9018  0.4762  0.1586
 8565SOL    HW226912   1.829   6.990   7.162  3.8369 -3.0699 -2.0009
 8566SOL     OW26913   2.686   6.049   6.283  0.2826 -0.1888  0.0574
 8566SOL    HW126914   2.755   6.016   6.225  0.0429  0.3719 -0.5541
 8566SOL    HW226915   2.640   6.115   6.231 -0.2538 -0.0327  0.7155
 8567SOL     OW26916   3.562   6.596   7.796 -0.6231  0.1016 -0.1434
 8567SOL    HW126917   3.599   6.674   7.837 -0.3436 -0.5821  0.9432
 8567SOL    HW226918   3.467   6.610   7.799 -0.7041 -0.6086  2.2089
 8568SOL     OW26919   1.826   5.906   6.774 -0.1013  0.2751 -0.2947
 8568SOL    HW126920   1.759   5.848   6.811  2.0451 -0.7436  2.3794
 8568SOL    HW226921   1.904   5.852   6.769  0.4899  1.1945 -4.0550
 8569SOL     OW26922   3.214   5.661   6.307  0.5207  0.4295  0.2619
 8569SOL    HW126923   3.234   5.656   6.401  2.3935  1.5884 -0.0247
 8569SOL    HW226924   3.224   5.571   6.276 -0.6256 -0.0710  1.2283
 8570SOL     OW26925   3.280   6.196   6.619  0.2145 -0.2027  0.3794
 8570SOL    HW126926   3.334   6.236   6.551  0.4163 -0.1431  0.5757
 8570SOL    HW226927   3.336   6.192   6.696  1.2913 -3.6670 -0.3921
 8571SOL     OW26928   2.944   7.652   7.443  0.0711 -0.0451 -0.1316
 8571SOL    HW126929   3.010   7.606   7.494 -0.2403  0.4292  0.7175
 8571SOL    HW226930   2.867   7.595   7.446  0.0787 -0.0553 -0.1322
 8572SOL     OW26931   3.550   7.341   7.357  0.0900  0.6825  0.4654
 8572SOL    HW126932   3.567   7.247   7.357  0.1250  0.6896  0.1512
 8572SOL    HW226933   3.479   7.353   7.421 -0.1195  0.4095  0.2817
 8573SOL     OW26934   2.340   6.894   7.469  0.1145  0.3162 -0.5670
 8573SOL    HW126935   2.339   6.987   7.448 -1.0762  0.4306 -0.0775
 8573SOL    HW226936   2.360   6.890   7.562 -0.4356  0.1248 -0.4514
 8574SOL     OW26937   3.359   6.189   5.879  0.1167  0.0581 -0.0854
 8574SOL    HW126938   3.334   6.244   5.805  0.1322 -0.4424 -0.4706
 8574SOL    HW226939   3.426   6.130   5.843  1.6220  1.1373  0.8233
 8575SOL     OW26940   3.569   6.202   6.286  0.0387  0.1074 -0.5870
 8575SOL    HW126941   3.598   6.263   6.218  0.5498  0.0770 -0.4019
 8575SOL    HW226942   3.481   6.175   6.258  0.4760 -0.3670 -1.5426
 8576SOL     OW26943   2.729   6.362   6.498  0.0228  0.1716 -0.2005
 8576SOL    HW126944   2.658   6.333   6.555 -2.2721 -0.4374 -3.1354
 8576SOL    HW226945   2.783   6.284   6.484 -1.3133 -0.5925 -1.3829
 8577SOL     OW26946   1.846   6.453   6.532  0.2146  0.5389 -0.2663
 8577SOL    HW126947   1.782   6.495   6.589 -0.4205  0.0200 -0.5860
 8577SOL    HW226948   1.866   6.518   6.465  1.8807  1.6108  1.1900
 8578SOL     OW26949   1.769   6.300   6.306  0.1029  0.8447  0.2782
 8578SOL    HW126950   1.791   6.208   6.294 -0.0842  0.5083  2.1136
 8578SOL    HW226951   1.800   6.320   6.395 -1.1050  2.1713  0.4369
 8579SOL     OW26952   2.954   5.892   7.313 -0.1947  0.2680  0.8981
 8579SOL    HW126953   2.920   5.894   7.224 -1.1773 -1.3366  1.2022
 8579SOL    HW226954   3.027   5.955   7.312  0.3729 -0.3328 -1.2647
 8580SOL     OW26955   3.167   5.332   7.500  0.1590  0.1946  0.0460
 8580SOL    HW126956   3.112   5.383   7.441  1.3627  0.7353 -0.6421
 8580SOL    HW226957   3.224   5.281   7.443  0.5661 -0.1439  0.7410
 8581SOL     OW26958   1.477   6.628   5.219 -0.8389 -0.8039 -0.4881
 8581SOL    HW126959   1.501   6.649   5.309  0.3623 -0.6620 -0.8220
 8581SOL    HW226960   1.392   6.671   5.205  0.0557  1.1541 -0.1450
 8582SOL     OW26961   1.959   6.952   6.280 -0.1662  0.3834 -0.1615
 8582SOL    HW126962   2.023   7.014   6.246 -1.0240  0.9280 -0.8077
 8582SOL    HW226963   1.906   6.927   6.204 -0.0416 -0.9024  0.1470
 8583SOL     OW26964   2.504   6.772   6.862  0.2752 -0.0124  0.4072
 8583SOL    HW126965   2.444   6.770   6.789 -1.6222  0.3226  1.8827
 8583SOL    HW226966   2.533   6.863   6.868 -0.2431  0.1431  0.5811
 8584SOL     OW26967   2.839   5.931   7.064 -0.0842 -0.1140 -0.3847
 8584SOL    HW126968   2.753   5.890   7.050  0.7151 -1.6028 -1.3194
 8584SOL    HW226969   2.857   5.976   6.982 -0.0792  0.4035 -0.0996
 8585SOL     OW26970   1.769   6.156   6.704  0.2180 -0.0585  0.0216
 8585SOL    HW126971   1.784   6.064   6.722  0.2658  0.1575  1.1998
 8585SOL    HW226972   1.841   6.182   6.646 -0.0351 -0.8430 -0.6562
 8586SOL     OW26973   2.313   6.069   7.140 -0.1274 -0.1144 -0.0145
 8586SOL    HW126974   2.278   6.121   7.212  1.0877  0.5668  0.1263
 8586SOL    HW226975   2.359   6.132   7.086 -3.0270 -0.1699 -2.7982
 8587SOL     OW26976   2.551   6.205   7.514  0.1993 -0.0182  0.1146
 8587SOL    HW126977   2.521   6.232   7.427  1.5060 -3.0650 -1.4208
 8587SOL    HW226978   2.476   6.160   7.552  0.2066 -0.3140 -0.2198
 8588SOL     OW26979   2.544   6.228   5.607  0.1983 -0.0846 -0.8017
 8588SOL    HW126980   2.565   6.322   5.610 -0.5761  0.1402 -1.7335
 8588SOL    HW226981   2.466   6.220   5.662 -0.9221  0.2059 -2.2473
 8589SOL     OW26982   3.098   5.988   6.704 -0.5684 -0.3343 -0.3070
 8589SOL    HW126983   3.107   5.903   6.661  1.5908 -0.3155 -0.0270
 8589SOL    HW226984   3.164   6.043   6.661  0.9120 -0.0116  2.1740
 8590SOL     OW26985   2.351   7.316   7.412  0.8487  0.2748  0.2288
 8590SOL    HW126986   2.418   7.247   7.408 -1.1452 -1.7304 -0.0441
 8590SOL    HW226987   2.333   7.327   7.505 -0.5371 -1.3682  0.1939
 8591SOL     OW26988   2.857   6.071   6.802  0.6204  0.6860 -0.4011
 8591SOL    HW126989   2.941   6.043   6.768 -0.0245 -1.3379 -0.5030
 8591SOL    HW226990   2.799   6.072   6.726  0.3057  0.9584 -0.1594
 8592SOL     OW26991   2.918   7.402   7.260  0.3506  0.0307 -0.5171
 8592SOL    HW126992   2.984   7.468   7.279  0.2287  0.1248 -0.4239
 8592SOL    HW226993   2.855   7.408   7.331  1.1897 -1.3059  0.3878
 8593SOL     OW26994   2.188   6.005   5.654 -0.7854 -0.2509 -0.2429
 8593SOL    HW126995   2.221   5.952   5.582  2.5609 -0.3816  1.2262
 8593SOL    HW226996   2.187   6.095   5.619 -0.6949 -0.4966 -0.8910
 8594SOL     OW26997   1.994   6.911   7.509 -0.0179  0.0871 -0.8040
 8594SOL    HW126998   2.072   6.872   7.548 -0.6911  0.3332  0.8828
 8594SOL    HW226999   1.979   6.991   7.560 -0.3609  1.0019 -2.2760
 8595SOL     OW27000   2.529   6.384   6.897  0.1540 -0.2877 -0.2498
 8595SOL    HW127001   2.582   6.308   6.919  0.6509  0.5095  1.4073
 8595SOL    HW227002   2.490   6.362   6.812  1.5138 -1.7241 -0.5384
 8596SOL     OW27003   3.616   6.725   5.975  0.3633 -0.3261  1.0263
 8596SOL    HW127004   3.530   6.683   5.983  0.9081 -1.5173  0.8141
 8596SOL    HW227005   3.606   6.809   6.021 -0.7793 -0.6414  1.3884
 8597SOL     OW27006   3.365   7.297   6.913  0.0503  0.5488  0.9807
 8597SOL    HW127007   3.377   7.332   6.825 -2.1709  0.6901  0.6884
 8597SOL    HW227008   3.444   7.324   6.961  0.6711  1.6146 -0.5820
 8598SOL     OW27009   2.998   6.908   6.536 -0.7335  0.0059  0.1878
 8598SOL    HW127010   2.964   6.987   6.580  0.9341  0.2163  1.1945
 8598SOL    HW227011   3.002   6.843   6.606  1.0544  0.0577  0.1662
 8599SOL     OW27012   2.284   6.842   6.675  0.4500  0.0143 -0.1416
 8599SOL    HW127013   2.218   6.801   6.731  0.3879  0.2129 -0.0711
 8599SOL    HW227014   2.267   6.806   6.588  0.3925 -0.1076 -0.0806
 8600SOL     OW27015   2.512   7.103   7.311  0.1800 -0.3528  0.2983
 8600SOL    HW127016   2.589   7.135   7.264  0.0390  0.2482  0.4808
 8600SOL    HW227017   2.488   7.022   7.264  1.5279 -1.1232  0.8724
 8601SOL     OW27018   3.552   5.576   5.919  0.5663 -0.0732  0.4450
 8601SOL    HW127019   3.594   5.562   6.004  0.2842 -1.8200  0.3326
 8601SOL    HW227020   3.571   5.497   5.869  1.5932  1.3441 -1.5211
 8602SOL     OW27021   3.070   7.349   6.625  0.2793 -0.0607 -0.2335
 8602SOL    HW127022   3.142   7.319   6.568 -0.5614  0.7486 -1.7702
 8602SOL    HW227023   2.996   7.361   6.566 -0.8232  0.1978  1.1560
 8603SOL     OW27024   1.813   7.622   6.922  0.2302 -0.3765  0.1176
 8603SOL    HW127025   1.758   7.592   6.994 -0.1874 -2.1404 -0.8551
 8603SOL    HW227026   1.860   7.543   6.894 -0.2594  0.0505 -2.0669
 8604SOL     OW27027   3.530   6.344   6.531  0.4831  0.0983  0.0972
 8604SOL    HW127028   3.524   6.437   6.507 -0.6274  0.2974  1.0542
 8604SOL    HW227029   3.574   6.303   6.457  0.7681  1.3439 -0.4573
 8605SOL     OW27030   2.644   6.571   7.034 -0.3363 -0.1738  0.1319
 8605SOL    HW127031   2.651   6.648   6.977 -0.0447 -0.3380 -0.0561
 8605SOL    HW227032   2.604   6.504   6.979  0.3851 -0.4781 -0.0271
 8606SOL     OW27033   2.799   7.499   6.141 -0.3443  0.0375 -0.1759
 8606SOL    HW127034   2.756   7.424   6.101  0.9438 -0.5977 -0.4096
 8606SOL    HW227035   2.793   7.568   6.075  0.6362 -0.6207 -0.9803
 8607SOL     OW27036   3.767   7.544   6.750  0.2611  0.2770 -0.3247
 8607SOL    HW127037   3.861   7.538   6.736  0.3894 -1.2054  0.9678
 8607SOL    HW227038   3.729   7.503   6.672  0.7833 -1.4731  0.2837
 8608SOL     OW27039   3.833   5.430   6.788 -0.0147 -0.5018  0.0579
 8608SOL    HW127040   3.872   5.358   6.838 -1.1361  0.1839  2.0769
 8608SOL    HW227041   3.903   5.459   6.729  2.0076 -0.3831  2.3229
 8609SOL     OW27042   2.218   5.738   6.178  0.5959  0.3903 -0.4177
 8609SOL    HW127043   2.124   5.746   6.196  0.7393  0.0310  0.5154
 8609SOL    HW227044   2.222   5.715   6.085 -0.1714  1.8859 -0.8706
 8610SOL     OW27045   3.093   6.644   5.940 -0.2514 -0.3260 -0.0332
 8610SOL    HW127046   3.018   6.590   5.967 -0.7172  0.6692  0.7472
 8610SOL    HW227047   3.055   6.716   5.890  0.4791 -1.3239 -2.1111
 8611SOL     OW27048   2.726   6.226   7.001  0.1693 -0.2010 -0.0296
 8611SOL    HW127049   2.730   6.163   7.073  1.0498  0.5767  0.6283
 8611SOL    HW227050   2.795   6.198   6.941  0.5227  0.1007  0.2345
 8612SOL     OW27051   3.013   6.445   6.269 -0.0277  0.0595 -0.2494
 8612SOL    HW127052   3.081   6.381   6.291 -0.7883 -0.3688  0.9389
 8612SOL    HW227053   3.052   6.530   6.291  0.5899 -0.0692 -0.8181
 8613SOL     OW27054   3.704   6.963   5.528  0.5571  0.3639 -0.5437
 8613SOL    HW127055   3.655   6.939   5.449  1.1864 -1.2592 -0.4861
 8613SOL    HW227056   3.733   6.879   5.564 -0.3186  1.0065  1.8146
 8614SOL     OW27057   2.044   6.714   6.920  0.0393 -0.3399  0.1147
 8614SOL    HW127058   2.127   6.757   6.942 -0.1433  0.7634 -1.2001
 8614SOL    HW227059   2.045   6.633   6.970  1.1240  0.4572  1.4844
 8615SOL     OW27060   2.917   6.832   7.191 -0.3430 -0.0808  0.0832
 8615SOL    HW127061   2.870   6.865   7.114  0.7604 -0.2326 -0.6854
 8615SOL    HW227062   2.909   6.901   7.256 -2.2238 -0.4057  0.2482
 8616SOL     OW27063   3.200   6.463   6.593 -0.4497 -0.5167  0.1820
 8616SOL    HW127064   3.244   6.386   6.558 -0.0596  0.1168 -0.7407
 8616SOL    HW227065   3.257   6.537   6.572 -0.9461  0.0717  0.8072
 8617SOL     OW27066   2.769   5.332   7.347 -0.2863 -0.3396  0.1216
 8617SOL    HW127067   2.735   5.283   7.272  1.9030 -1.2924 -0.3317
 8617SOL    HW227068   2.834   5.274   7.387  1.5585  1.6605  0.2809
 8618SOL     OW27069   2.902   7.210   5.929  0.5755 -0.0748  0.6272
 8618SOL    HW127070   2.899   7.164   5.846 -0.8430 -1.5617  1.4584
 8618SOL    HW227071   2.993   7.240   5.936  1.1256 -1.3295 -0.7039
 8619SOL     OW27072   3.341   5.849   7.270  0.0010 -0.5402 -0.2280
 8619SOL    HW127073   3.343   5.754   7.256 -0.2611 -0.8040  1.3426
 8619SOL    HW227074   3.332   5.859   7.365 -0.6947  1.0582 -0.4365
 8620SOL     OW27075   1.961   6.724   5.552  0.9526 -0.1681  0.4681
 8620SOL    HW127076   1.904   6.707   5.477 -0.2401  1.7060  0.8834
 8620SOL    HW227077   1.932   6.663   5.620 -0.3039  0.4609  0.5236
 8621SOL     OW27078   1.799   6.431   7.807  0.0835  0.3434 -0.0273
 8621SOL    HW127079   1.854   6.476   7.872  0.2595 -0.5673  0.4781
 8621SOL    HW227080   1.811   6.481   7.727 -0.6056  1.8559  0.7684
 8622SOL     OW27081   2.622   5.495   7.485 -0.4149  0.3210  0.2728
 8622SOL    HW127082   2.675   5.530   7.557  0.3779  1.0398 -0.6361
 8622SOL    HW227083   2.684   5.445   7.432 -0.8415  0.3852 -0.2957
 8623SOL     OW27084   2.017   5.874   5.129 -0.2489 -0.3892 -0.1712
 8623SOL    HW127085   2.091   5.923   5.093 -0.1750 -1.3908 -1.4542
 8623SOL    HW227086   1.957   5.942   5.160  0.5951  0.4639 -0.3451
 8624SOL     OW27087   2.801   6.391   7.338  0.3144 -0.4283  0.6861
 8624SOL    HW127088   2.868   6.420   7.276  0.0682  0.3956  0.7817
 8624SOL    HW227089   2.743   6.335   7.286  0.6143 -0.4661  0.3910
 8625SOL     OW27090   1.568   6.289   6.074  0.4966  0.1188 -0.1213
 8625SOL    HW127091   1.551   6.196   6.084  2.5386 -0.4546 -1.3670
 8625SOL    HW227092   1.629   6.310   6.146 -1.2953  0.9532  1.2290
 8626SOL     OW27093   3.349   6.628   5.939  0.3221 -0.1292  0.2232
 8626SOL    HW127094   3.365   6.551   5.994  0.2076  1.9516  3.4115
 8626SOL    HW227095   3.261   6.657   5.964  0.4509  1.1746 -0.7660
 8627SOL     OW27096   2.476   6.283   7.152 -0.0316 -0.3612 -0.1324
 8627SOL    HW127097   2.494   6.342   7.225 -1.1759  1.0609 -0.9458
 8627SOL    HW227098   2.562   6.267   7.113  0.5533 -0.8999  1.3173
 8628SOL     OW27099   3.591   7.616   6.949  0.1619 -0.3244  0.0682
 8628SOL    HW127100   3.600   7.533   6.997 -0.1056  0.3611  1.3443
 8628SOL    HW227101   3.633   7.599   6.865 -0.9954 -2.1643 -0.2010
 8629SOL     OW27102   2.471   5.857   7.224 -0.2156 -0.3986  0.6171
 8629SOL    HW127103   2.506   5.831   7.139  1.2257 -0.6156  1.2475
 8629SOL    HW227104   2.414   5.932   7.205  1.4459  0.6771 -0.3632
 8630SOL     OW27105   3.168   6.518   7.631  0.0200  0.1942  0.2897
 8630SOL    HW127106   3.096   6.547   7.574  0.9835  1.4698 -0.3128
 8630SOL    HW227107   3.226   6.594   7.638  1.7767 -1.0630  0.0258
 8631SOL     OW27108   2.088   7.365   7.352  0.4478  0.2206 -0.0013
 8631SOL    HW127109   2.045   7.404   7.429 -0.3188 -0.0211 -0.3032
 8631SOL    HW227110   2.179   7.353   7.380  0.4097  1.0558  0.5299
 8632SOL     OW27111   3.991   6.679   7.173  0.1368  0.2509  0.0465
 8632SOL    HW127112   3.973   6.593   7.134 -1.1305  0.2767  0.5331
 8632SOL    HW227113   4.042   6.725   7.107  3.3218 -1.8009  0.8115
 8633SOL     OW27114   3.140   5.737   5.962 -0.0272  0.6947  0.1296
 8633SOL    HW127115   3.152   5.785   6.043 -1.0003  0.5802  0.3576
 8633SOL    HW227116   3.213   5.675   5.960  1.1116  1.9997 -0.0620
 8634SOL     OW27117   2.504   6.444   6.158  0.2684  0.1440 -0.1039
 8634SOL    HW127118   2.591   6.483   6.170 -0.0495  0.7523  0.2727
 8634SOL    HW227119   2.521   6.352   6.138  0.9768  0.1174  0.6011
 8635SOL     OW27120   3.170   6.095   7.252 -0.4540  0.0368 -0.1889
 8635SOL    HW127121   3.148   6.111   7.160 -0.5581 -1.7853 -0.5123
 8635SOL    HW227122   3.238   6.028   7.249 -1.5334 -1.1750  1.0914
 8636SOL     OW27123   3.438   6.558   7.069 -0.2950 -0.4630 -0.9417
 8636SOL    HW127124   3.385   6.559   7.149 -0.3527 -1.9665 -0.9341
 8636SOL    HW227125   3.485   6.641   7.071  0.3413 -0.8023  1.0969
 8637SOL     OW27126   2.458   7.330   6.052  0.0683 -0.1117  0.8968
 8637SOL    HW127127   2.479   7.373   6.135  1.9090 -1.5329  1.2494
 8637SOL    HW227128   2.530   7.355   5.994 -0.9657  0.4976 -0.1728
 8638SOL     OW27129   2.995   6.738   6.914 -0.0728  0.0243  0.0828
 8638SOL    HW127130   2.990   6.671   6.982 -0.6067  0.9132  0.9489
 8638SOL    HW227131   2.950   6.699   6.839 -0.7331 -0.4280  0.7036
 8639SOL     OW27132   2.885   6.415   6.036 -0.5201 -0.0462  0.2511
 8639SOL    HW127133   2.809   6.472   6.048 -0.4548  0.4444 -1.4597
 8639SOL    HW227134   2.935   6.425   6.117 -0.9750  1.6139  0.3661
 8640SOL     OW27135   2.629   6.483   5.584 -0.0301  0.1250  0.1953
 8640SOL    HW127136   2.580   6.521   5.511  0.8333  2.0235  0.5534
 8640SOL    HW227137   2.720   6.486   5.556  0.5921  2.9222  2.1001
 8641SOL     OW27138   3.560   6.659   6.805 -0.0398  0.6285 -0.1013
 8641SOL    HW127139   3.574   6.724   6.874  0.0554  0.3277  0.1663
 8641SOL    HW227140   3.639   6.663   6.752  1.1509 -1.0696  1.4068
 8642SOL     OW27141   2.410   6.876   7.196  0.4020  0.8737  0.2602
 8642SOL    HW127142   2.488   6.825   7.175  0.4983  0.6448  1.1334
 8642SOL    HW227143   2.374   6.835   7.275 -2.0156 -0.6155 -1.4583
 8643SOL     OW27144   2.385   6.602   5.947  0.1087 -0.4335 -0.2209
 8643SOL    HW127145   2.312   6.550   5.913  1.9335 -1.9407 -2.1207
 8643SOL    HW227146   2.419   6.551   6.021  0.7521 -1.0382 -0.9187
 8644SOL     OW27147   2.688   6.980   7.516  0.1207 -0.2599 -0.4740
 8644SOL    HW127148   2.634   7.042   7.468 -0.9840 -1.2107 -0.4961
 8644SOL    HW227149   2.778   7.001   7.489 -0.2612  0.9886 -0.8466
 8645SOL     OW27150   3.720   5.641   7.027 -0.0264  0.2031 -0.0170
 8645SOL    HW127151   3.704   5.608   6.938 -1.6200 -0.9150  0.6440
 8645SOL    HW227152   3.708   5.565   7.083  0.6273  0.9741  1.2037
 8646SOL     OW27153   2.524   6.186   6.100  0.5849 -0.0145 -0.0911
 8646SOL    HW127154   2.494   6.096   6.087  1.5680 -0.2482 -0.8523
 8646SOL    HW227155   2.554   6.214   6.013  0.2838  1.0485  0.1401
 8647SOL     OW27156   3.273   7.355   7.457 -0.4495  0.4031  0.3945
 8647SOL    HW127157   3.236   7.269   7.439  0.0543  0.3928 -0.6971
 8647SOL    HW227158   3.245   7.409   7.383 -0.3643  1.0506  0.8274
 8648SOL     OW27159   2.390   6.119   6.409  0.1633 -0.1186  0.5390
 8648SOL    HW127160   2.312   6.085   6.452 -0.9066  1.2907 -0.2008
 8648SOL    HW227161   2.440   6.041   6.385 -0.6146 -1.0201  1.7396
 8649SOL     OW27162   2.618   7.134   6.285  0.0006 -0.5826 -0.4857
 8649SOL    HW127163   2.673   7.069   6.330 -1.0962 -0.4575  1.1403
 8649SOL    HW227164   2.556   7.083   6.234 -1.3003 -0.9041  1.3255
 8650SOL     OW27165   2.919   5.522   6.567 -0.3265  0.2331  0.2654
 8650SOL    HW127166   3.008   5.556   6.573 -0.2120  0.6061 -2.2452
 8650SOL    HW227167   2.863   5.600   6.563 -0.6047  0.0330  0.1529
 8651SOL     OW27168   2.716   5.139   7.162  0.4806 -0.1112  0.2022
 8651SOL    HW127169   2.680   5.051   7.168  0.8393 -0.2508  0.3285
 8651SOL    HW227170   2.809   5.128   7.181  0.3216  0.4586  1.3691
 8652SOL     OW27171   2.657   6.887   6.001 -0.0752  0.2698  0.0282
 8652SOL    HW127172   2.724   6.897   5.934 -0.7795 -1.3492 -0.9679
 8652SOL    HW227173   2.580   6.931   5.964 -0.1496  0.3249  0.2494
 8653SOL     OW27174   2.750   6.984   7.034  0.2761  0.0270 -0.1392
 8653SOL    HW127175   2.674   7.008   6.981  0.2459 -1.4468 -0.8187
 8653SOL    HW227176   2.775   7.065   7.078 -1.5638  0.5782 -0.0403
 8654SOL     OW27177   3.528   6.009   5.785  0.2446 -0.7647 -0.2007
 8654SOL    HW127178   3.469   5.934   5.777 -0.6222 -0.2147  0.8041
 8654SOL    HW227179   3.610   5.980   5.745 -0.3008 -1.9911 -0.4548
 8655SOL     OW27180   3.064   6.084   6.410  0.0097  0.1038 -0.1220
 8655SOL    HW127181   2.989   6.107   6.465  0.5625 -0.4016  0.8773
 8655SOL    HW227182   3.139   6.123   6.455  0.1616  2.4794 -2.2404
 8656SOL     OW27183   3.516   5.499   6.339 -0.1766 -0.6868 -0.2957
 8656SOL    HW127184   3.547   5.460   6.258 -0.6492 -3.3133  0.6935
 8656SOL    HW227185   3.423   5.475   6.344 -0.2219 -0.3513  0.8836
 8657SOL     OW27186   1.704   6.553   5.930  0.5900 -0.0868  0.9388
 8657SOL    HW127187   1.628   6.538   5.985  0.2251 -0.3625  0.3671
 8657SOL    HW227188   1.777   6.515   5.979  0.1004 -1.3329  0.7451
 8658SOL     OW27189   2.923   7.142   6.238  0.1141  0.0873  0.1033
 8658SOL    HW127190   2.885   7.127   6.152  4.5848  1.1360 -2.4123
 8658SOL    HW227191   2.883   7.077   6.295 -0.7406 -2.9248 -3.5771
 8659SOL     OW27192   2.026   6.122   7.419 -0.0653  0.2017  0.1487
 8659SOL    HW127193   1.993   6.072   7.494  0.6462 -0.5983 -0.0591
 8659SOL    HW227194   1.960   6.190   7.406 -0.1215  0.4655  1.6000
 8660SOL     OW27195   2.105   5.915   8.283  0.4057 -0.1120 -0.0060
 8660SOL    HW127196   2.193   5.949   8.269  0.7552 -0.8499  0.3516
 8660SOL    HW227197   2.077   5.952   8.367  0.3218  0.2162 -0.1758
 8661SOL     OW27198   1.794   5.525   8.013 -1.0554  0.1230  0.8396
 8661SOL    HW127199   1.834   5.537   7.926  0.4145  2.5622  1.7391
 8661SOL    HW227200   1.791   5.430   8.025 -0.4097 -0.2553 -1.4895
 8662SOL     OW27201   2.302   6.816   0.026 -0.4506  0.1598 -0.0425
 8662SOL    HW127202   2.333   6.854   0.108 -2.2420 -1.6602  1.5734
 8662SOL    HW227203   2.344   6.730   0.022 -1.5024 -0.3573 -0.2624
 8663SOL     OW27204   3.491   7.444   8.198  0.0043  0.1074 -0.3489
 8663SOL    HW127205   3.446   7.503   8.258 -1.3225 -2.6894  1.6716
 8663SOL    HW227206   3.423   7.416   8.137 -0.4597 -2.1524  1.0999
 8664SOL     OW27207   2.825   6.247   8.007  0.2805  0.2863  0.4744
 8664SOL    HW127208   2.866   6.286   8.084 -0.9640  2.0870  0.2682
 8664SOL    HW227209   2.733   6.236   8.030 -0.2471  1.4597 -0.9562
 8665SOL     OW27210   3.554   6.241   7.691 -0.2094  0.1174  0.2813
 8665SOL    HW127211   3.561   6.149   7.716 -0.3933  0.0262 -0.0024
 8665SOL    HW227212   3.464   6.251   7.660  0.2940 -0.0170 -1.2898
 8666SOL     OW27213   2.673   6.965   8.645 -0.4651 -0.4442 -0.1688
 8666SOL    HW127214   2.684   6.871   8.655  1.7126 -0.0715  1.6538
 8666SOL    HW227215   2.588   6.984   8.686 -0.2769 -1.4485  0.7019
 8667SOL     OW27216   2.797   6.781   8.155  0.0729  0.4712  0.1653
 8667SOL    HW127217   2.808   6.738   8.240  1.1051  0.6613  0.1465
 8667SOL    HW227218   2.724   6.841   8.167  0.1733  0.4550  0.9067
 8668SOL     OW27219   2.309   7.289   8.237  0.4614 -0.3388  0.5175
 8668SOL    HW127220   2.351   7.215   8.192  0.9643 -0.5156  1.2561
 8668SOL    HW227221   2.373   7.316   8.303  0.4604  1.0376 -0.0129
 8669SOL     OW27222   2.373   6.003   8.309 -0.1233 -0.2753  0.1744
 8669SOL    HW127223   2.438   6.065   8.341 -1.6906  0.5986  1.8955
 8669SOL    HW227224   2.411   5.966   8.230  1.3833  2.0419 -0.2781
 8670SOL     OW27225   2.919   6.053   7.837 -0.2067 -0.2877  0.4758
 8670SOL    HW127226   2.900   6.127   7.895 -1.2255  0.1900 -0.4448
 8670SOL    HW227227   3.013   6.059   7.821 -0.3041  0.9163  0.2735
 8671SOL     OW27228   2.364   7.614   7.740 -0.3808  0.2774 -0.3684
 8671SOL    HW127229   2.347   7.589   7.831 -1.2107 -2.0894 -1.0947
 8671SOL    HW227230   2.302   7.562   7.689  1.3151  0.1207 -2.4087
 8672SOL     OW27231   1.939   7.009   7.968  0.2556  0.6304 -0.4704
 8672SOL    HW127232   1.850   6.976   7.963  0.2229  0.6452  0.0138
 8672SOL    HW227233   1.985   6.949   8.026  0.6157  0.5083 -0.8712
 8673SOL     OW27234   1.822   6.970   8.342  0.0987 -0.2019  0.0948
 8673SOL    HW127235   1.867   6.980   8.426 -0.4320  0.1267  0.3525
 8673SOL    HW227236   1.891   6.975   8.276  0.3762  0.8831  0.4445
 8674SOL     OW27237   2.716   8.009   0.171 -0.2366 -0.2330  0.1557
 8674SOL    HW127238   2.781   7.952   0.214 -1.2725 -1.3109  0.3519
 8674SOL    HW227239   2.718   7.983   0.079  0.8410  0.9659 -0.1868
 8675SOL     OW27240   2.487   6.692   7.928  0.0154  0.1763  0.1942
 8675SOL    HW127241   2.563   6.720   7.877  1.2551 -0.6126  1.5564
 8675SOL    HW227242   2.521   6.628   7.990 -1.5473  0.6444  1.6269
 8676SOL     OW27243   1.523   6.090   7.926 -0.3544  0.7522  0.2775
 8676SOL    HW127244   1.528   6.183   7.948  0.2300  0.8809 -0.3651
 8676SOL    HW227245   1.598   6.050   7.969 -0.1721  0.7135 -0.0724
 8677SOL     OW27246   3.437   7.955   8.046 -0.3986  0.6596 -0.0519
 8677SOL    HW127247   3.369   7.914   7.991 -0.6891  0.8299  0.1797
 8677SOL    HW227248   3.519   7.923   8.009 -0.5264  1.8018 -1.4457
 8678SOL     OW27249   2.111   7.211   7.962 -0.2868  0.5966 -0.5978
 8678SOL    HW127250   2.045   7.150   7.995  0.9862 -0.6091 -0.1729
 8678SOL    HW227251   2.083   7.297   7.994 -3.3725  0.6948 -3.0549
 8679SOL     OW27252   4.047   6.653   8.432  0.0251  0.1385  0.7192
 8679SOL    HW127253   4.039   6.721   8.364 -2.0671  1.3279  2.0390
 8679SOL    HW227254   4.067   6.702   8.512  1.2808 -1.1150  1.2031
 8680SOL     OW27255   3.805   6.374   7.733  0.4514 -0.2161 -0.4416
 8680SOL    HW127256   3.838   6.295   7.775 -0.0784  0.3513  1.1282
 8680SOL    HW227257   3.716   6.352   7.708  0.2196 -0.0545  0.2190
 8681SOL     OW27258   2.677   7.105   8.359  0.0905 -0.1695 -0.0757
 8681SOL    HW127259   2.629   7.045   8.302  0.2893  0.8267 -1.3321
 8681SOL    HW227260   2.691   7.056   8.440 -0.9974 -1.2938 -0.5498
 8682SOL     OW27261   2.453   5.948   8.038  0.3162  0.1957 -0.1058
 8682SOL    HW127262   2.365   5.967   8.005 -0.3278  1.0712  1.9001
 8682SOL    HW227263   2.501   6.030   8.028  0.6058  0.0027 -0.3137
 8683SOL     OW27264   1.918   6.629   0.266  0.2614  0.4061  0.3137
 8683SOL    HW127265   1.975   6.638   0.342  1.9831 -0.6873 -0.7929
 8683SOL    HW227266   1.911   6.535   0.252 -0.3022  0.5851 -0.7073
 8684SOL     OW27267   3.603   6.365   7.987 -0.4276  0.1310 -0.1847
 8684SOL    HW127268   3.594   6.443   7.932 -0.0078 -0.6654 -1.4151
 8684SOL    HW227269   3.693   6.337   7.975 -0.6710 -0.7498 -0.0371
 8685SOL     OW27270   3.190   6.736   8.281 -0.1037 -0.0864 -1.3721
 8685SOL    HW127271   3.099   6.765   8.279 -0.1572 -0.0886  0.2091
 8685SOL    HW227272   3.193   6.663   8.219 -1.3515 -0.5575 -0.8991
 8686SOL     OW27273   3.537   7.865   8.751 -0.0008  0.4813 -0.0862
 8686SOL    HW127274   3.502   7.788   8.708  0.1006  0.5076 -0.2159
 8686SOL    HW227275   3.537   7.933   8.683 -1.3018  0.9590  0.3615
 8687SOL     OW27276   2.304   6.147   7.412 -0.5418  0.2752  0.1987
 8687SOL    HW127277   2.309   6.062   7.456 -1.4565  0.2716  0.3313
 8687SOL    HW227278   2.230   6.191   7.455 -1.4209  0.3092 -1.2755
 8688SOL     OW27279   3.279   6.301   8.215 -0.2793  0.6302  0.2485
 8688SOL    HW127280   3.239   6.368   8.161 -2.0078 -0.0670  0.6202
 8688SOL    HW227281   3.348   6.264   8.160  1.0116  2.9107  0.1771
 8689SOL     OW27282   3.588   7.690   7.766 -0.3491 -0.2799  0.6853
 8689SOL    HW127283   3.496   7.717   7.760  0.6171  3.2620 -0.9732
 8689SOL    HW227284   3.630   7.761   7.815  1.8798 -0.5893 -0.6288
 8690SOL     OW27285   2.552   5.910   0.030 -0.1796 -0.0286  0.0880
 8690SOL    HW127286   2.643   5.911   0.060 -0.3219 -0.6161  0.5457
 8690SOL    HW227287   2.535   5.819   0.005 -1.3482 -0.4700  2.2217
 8691SOL     OW27288   3.008   6.055   8.569 -0.3115 -0.4570  0.3552
 8691SOL    HW127289   2.951   5.979   8.560 -1.9065  0.6393  0.7668
 8691SOL    HW227290   3.064   6.053   8.491 -0.9303 -1.5538 -0.0784
 8692SOL     OW27291   3.098   6.069   7.574  0.1563 -0.0124 -0.1868
 8692SOL    HW127292   3.089   5.978   7.603 -0.4272  0.2188  0.3837
 8692SOL    HW227293   3.008   6.100   7.563  0.2535 -0.5436 -3.8244
 8693SOL     OW27294   2.191   6.356   8.206 -0.1825 -0.2866  0.1121
 8693SOL    HW127295   2.174   6.289   8.140  0.2143 -0.7958  0.5164
 8693SOL    HW227296   2.285   6.373   8.200 -0.5228  1.4614 -1.1230
 8694SOL     OW27297   2.050   7.402   0.051  0.2228 -0.1905 -0.2627
 8694SOL    HW127298   1.976   7.424  -0.005 -1.0273 -2.5905  0.2939
 8694SOL    HW227299   2.102   7.482   0.056 -2.4189  1.6538 -0.5255
 8695SOL     OW27300   2.596   5.709   8.062  0.3978  0.0325  0.2942
 8695SOL    HW127301   2.543   5.788   8.062 -0.0310 -0.2491 -0.3367
 8695SOL    HW227302   2.603   5.685   7.969  1.1299 -0.2626  0.4178
 8696SOL     OW27303   3.580   6.835   8.146 -0.5837 -0.2927 -0.5106
 8696SOL    HW127304   3.568   6.859   8.054 -1.7572 -0.1542 -0.3381
 8696SOL    HW227305   3.673   6.813   8.153 -0.5468 -0.6553 -1.8097
 8697SOL     OW27306   2.403   5.621   8.344  0.4429 -0.0582  0.0306
 8697SOL    HW127307   2.439   5.652   8.261 -0.6872 -1.5069 -1.0603
 8697SOL    HW227308   2.450   5.671   8.410  3.5647 -0.9080 -1.3154
 8698SOL     OW27309   3.049   7.035   7.961 -0.2717  0.1563 -0.2312
 8698SOL    HW127310   3.102   6.956   7.974  1.4733  1.2528 -0.3705
 8698SOL    HW227311   2.986   7.033   8.033 -1.7576 -2.4678 -1.4546
 8699SOL     OW27312   2.358   7.076   8.056 -0.1476 -0.7218  0.1626
 8699SOL    HW127313   2.312   6.993   8.040  0.9248 -0.8713 -2.7459
 8699SOL    HW227314   2.309   7.141   8.005  0.3286  0.0034  0.6080
 8700SOL     OW27315   3.478   6.966   8.406 -0.5386 -0.5037  0.2886
 8700SOL    HW127316   3.504   6.907   8.478  0.1883 -1.1982 -0.5207
 8700SOL    HW227317   3.505   6.919   8.327  1.7654  1.6941 -0.3605
 8701SOL     OW27318   2.163   6.496   7.878 -0.3745 -0.2714  0.6877
 8701SOL    HW127319   2.105   6.490   7.954 -0.2618 -1.7910  0.6810
 8701SOL    HW227320   2.170   6.406   7.847 -0.8738  0.3767 -1.4689
 8702SOL     OW27321   3.767   6.670   8.529  0.4092 -0.7101  0.3746
 8702SOL    HW127322   3.833   6.633   8.471  1.7948 -1.0834  2.0910
 8702SOL    HW227323   3.684   6.656   8.484  1.5585  2.0545 -3.1127
 8703SOL     OW27324   2.953   7.324   7.972  0.3482 -0.2545 -0.1764
 8703SOL    HW127325   2.998   7.243   7.949  0.4387 -1.0852  2.6032
 8703SOL    HW227326   2.915   7.307   8.058  1.3365  2.9787  1.0496
 8704SOL     OW27327   3.723   6.948   7.697 -0.0310 -0.4937 -0.0931
 8704SOL    HW127328   3.724   6.893   7.775 -0.7566 -1.7638 -0.9537
 8704SOL    HW227329   3.700   6.889   7.625  0.3776  0.6878 -1.2455
 8705SOL     OW27330   2.592   7.624   7.552  0.3456  0.4346  0.4965
 8705SOL    HW127331   2.533   7.589   7.619 -0.8082 -0.1534 -0.7859
 8705SOL    HW227332   2.539   7.686   7.502  1.2150  0.9366  0.1654
 8706SOL     OW27333   3.352   5.446   8.189 -0.7287  0.6841 -0.0587
 8706SOL    HW127334   3.292   5.406   8.252  0.1141  0.1906  0.4495
 8706SOL    HW227335   3.377   5.529   8.230 -0.4098  0.5008  0.1142
 8707SOL     OW27336   2.015   7.271   8.618 -0.4814  0.2430 -0.1756
 8707SOL    HW127337   2.092   7.252   8.672  0.0958  1.1790 -0.6308
 8707SOL    HW227338   2.035   7.356   8.578 -1.7692  0.5010 -0.2933
 8708SOL     OW27339   3.277   6.854   8.009  0.3430  0.2914 -0.2855
 8708SOL    HW127340   3.277   6.820   8.099 -0.6113 -2.4882 -1.2420
 8708SOL    HW227341   3.369   6.868   7.989  0.7210 -0.9060  0.5109
 8709SOL     OW27342   2.282   6.236   7.793  0.2216 -0.0291  0.3798
 8709SOL    HW127343   2.311   6.163   7.738  0.3756  0.0004  0.4203
 8709SOL    HW227344   2.353   6.300   7.787 -0.0925  0.2905  0.0254
 8710SOL     OW27345   2.342   5.559   7.834 -0.1007  0.0559  0.4479
 8710SOL    HW127346   2.308   5.577   7.921 -0.5235 -0.8916  0.4828
 8710SOL    HW227347   2.273   5.510   7.790  1.2040 -1.9748  0.5484
 8711SOL     OW27348   2.897   6.937   0.174  0.2049  0.5805 -0.3116
 8711SOL    HW127349   2.820   6.991   0.190  0.4559  1.1026 -0.8001
 8711SOL    HW227350   2.961   6.998   0.136  1.5742  0.6122  1.9000
 8712SOL     OW27351   2.974   7.441   8.580  0.1342 -0.3430 -0.1601
 8712SOL    HW127352   2.920   7.374   8.623  0.0848  0.0914  0.4619
 8712SOL    HW227353   3.052   7.394   8.551 -0.0869 -0.7549 -0.0967
 8713SOL     OW27354   2.578   6.167   8.366  0.2772 -0.6283  0.0656
 8713SOL    HW127355   2.609   6.176   8.456 -0.5699  0.0210  0.3062
 8713SOL    HW227356   2.658   6.167   8.313  0.7196  0.8310  0.6829
 8714SOL     OW27357   2.558   5.423   8.097  0.3783  0.8373  0.0368
 8714SOL    HW127358   2.566   5.518   8.088  1.5396  0.6220 -1.5013
 8714SOL    HW227359   2.483   5.401   8.042 -1.6489  1.0970  2.4873
 8715SOL     OW27360   3.488   7.174   7.641 -0.3424 -0.0478  0.1619
 8715SOL    HW127361   3.449   7.103   7.590 -0.4356 -1.2207  1.7910
 8715SOL    HW227362   3.576   7.142   7.663  0.8385  1.6798 -1.6848
 8716SOL     OW27363   2.267   5.351   8.090  0.1272 -0.0450 -0.8349
 8716SOL    HW127364   2.189   5.296   8.095 -1.6309  2.2472 -1.3859
 8716SOL    HW227365   2.305   5.330   8.004 -1.8526  1.1352 -2.0982
 8717SOL     OW27366   2.970   5.772   7.943 -0.1046  0.3644 -0.0149
 8717SOL    HW127367   2.983   5.794   7.851  0.8020 -1.1987 -0.3001
 8717SOL    HW227368   2.971   5.856   7.989 -2.2117  1.3428 -1.5779
 8718SOL     OW27369   3.472   7.246   0.012 -0.6391 -0.2104  0.0114
 8718SOL    HW127370   3.460   7.238  -0.083 -0.5813  0.7649 -0.0870
 8718SOL    HW227371   3.468   7.156   0.044 -3.2069 -0.3833 -0.6016
 8719SOL     OW27372   2.556   6.940   8.197 -0.2913 -0.3843 -0.0637
 8719SOL    HW127373   2.516   6.875   8.255 -0.6729 -0.6276 -0.5931
 8719SOL    HW227374   2.486   6.963   8.136 -0.0781  0.3238 -0.0494
 8720SOL     OW27375   3.379   7.635   8.331 -0.5555  0.4025  0.3511
 8720SOL    HW127376   3.422   7.720   8.330 -0.4112  0.3253  0.0412
 8720SOL    HW227377   3.288   7.654   8.355 -0.9600  0.8387 -1.3883
 8721SOL     OW27378   2.766   6.119   7.285 -0.1593 -0.6532  0.4630
 8721SOL    HW127379   2.754   6.142   7.377 -1.6298 -0.3638  0.2241
 8721SOL    HW227380   2.769   6.023   7.285  1.2054 -0.6319  0.9393
 8722SOL     OW27381   2.251   5.971   8.612  0.1386  0.2029  0.2223
 8722SOL    HW127382   2.190   6.027   8.565  1.8546  1.9740  0.0115
 8722SOL    HW227383   2.197   5.925   8.677 -1.4892  1.2357 -0.3616
 8723SOL     OW27384   2.549   6.187   8.004 -0.3763 -0.1346 -0.0682
 8723SOL    HW127385   2.511   6.258   8.056 -2.4120  0.0971 -1.7378
 8723SOL    HW227386   2.551   6.220   7.915  1.3580 -1.1666 -0.4491
 8724SOL     OW27387   2.724   5.737   8.305 -0.0571  0.2485  0.4061
 8724SOL    HW127388   2.702   5.725   8.212 -1.5278  1.5543  0.5443
 8724SOL    HW227389   2.813   5.770   8.304  0.6084 -1.4591 -0.4213
 8725SOL     OW27390   3.582   6.619   8.345  0.2877 -0.4220 -0.1742
 8725SOL    HW127391   3.548   6.530   8.358  1.7070 -0.8985  0.5190
 8725SOL    HW227392   3.554   6.642   8.257 -1.0027 -1.1342  0.0179
 8726SOL     OW27393   3.361   6.230   8.491 -0.1799 -0.1691  0.0778
 8726SOL    HW127394   3.344   6.140   8.462 -0.7669 -0.1177  0.2526
 8726SOL    HW227395   3.352   6.282   8.411  1.0450 -0.3555 -0.2101
 8727SOL     OW27396   3.746   6.672   7.520 -0.3416  0.0559 -0.0378
 8727SOL    HW127397   3.776   6.588   7.485  4.2372  1.3869  0.0119
 8727SOL    HW227398   3.724   6.653   7.611  0.8045 -1.1074  0.0360
 8728SOL     OW27399   2.308   7.279   7.670  0.6892 -0.7345  0.5214
 8728SOL    HW127400   2.309   7.189   7.702  0.4070 -1.0200 -0.2381
 8728SOL    HW227401   2.240   7.322   7.722 -0.2821 -1.3831 -0.1783
 8729SOL     OW27402   4.064   7.164   8.188  0.1827  0.1899  0.0580
 8729SOL    HW127403   4.141   7.182   8.134 -0.2082  0.5898 -0.3765
 8729SOL    HW227404   4.044   7.072   8.171  1.2358 -0.2478  1.0540
 8730SOL     OW27405   3.354   6.488   7.332  0.4506  0.4948  0.4588
 8730SOL    HW127406   3.439   6.445   7.325 -0.9057 -2.1849 -1.1858
 8730SOL    HW227407   3.304   6.432   7.392 -0.6758  1.0363  0.0457
 8731SOL     OW27408   2.606   5.629   7.776 -0.7944 -0.1294 -0.1466
 8731SOL    HW127409   2.661   5.553   7.756 -1.0525 -1.5696  3.5835
 8731SOL    HW227410   2.516   5.596   7.768 -0.9451  0.2435 -0.0146
 8732SOL     OW27411   3.405   6.996   0.116  0.3654 -0.2757 -0.0664
 8732SOL    HW127412   3.312   6.976   0.102  0.1209  0.8995 -0.3038
 8732SOL    HW227413   3.451   6.915   0.098 -0.4208 -0.2935 -2.2611
 8733SOL     OW27414   3.242   7.056   8.494 -0.3548  0.1389  0.8785
 8733SOL    HW127415   3.179   7.001   8.446 -0.4529  0.1998  0.9387
 8733SOL    HW227416   3.326   7.012   8.480 -0.4836 -0.2232  1.2143
 8734SOL     OW27417   3.524   6.834   8.631 -0.4532  0.6257  0.2087
 8734SOL    HW127418   3.512   6.818   8.725  1.6707 -0.0376  0.4112
 8734SOL    HW227419   3.619   6.838   8.619 -0.6464 -0.4642 -2.1098
 8735SOL     OW27420   2.749   6.741   7.896  0.0718  0.2596 -0.1033
 8735SOL    HW127421   2.774   6.753   7.988 -2.4800 -1.8760  0.9815
 8735SOL    HW227422   2.789   6.657   7.872 -0.2099  0.2654 -0.5892
 8736SOL     OW27423   2.188   6.594   8.662 -0.2460  0.4390 -0.3292
 8736SOL    HW127424   2.142   6.547   8.732 -0.1934  0.6524 -0.1497
 8736SOL    HW227425   2.189   6.685   8.691 -1.6794  0.8224 -1.3782
 8737SOL     OW27426   2.883   5.776   8.752 -0.3161 -0.0530 -0.1961
 8737SOL    HW127427   2.963   5.765   8.701 -0.4390 -0.9410 -0.2002
 8737SOL    HW227428   2.830   5.838   8.701  1.3965  2.6145  1.0293
 8738SOL     OW27429   2.062   7.103   8.261 -0.6450 -0.0127 -0.2646
 8738SOL    HW127430   2.146   7.150   8.260 -0.1509 -0.8809 -1.0174
 8738SOL    HW227431   2.079   7.023   8.212 -2.2084  0.2798 -1.3667
 8739SOL     OW27432   2.250   6.841   7.969  0.4950 -0.1603 -0.0200
 8739SOL    HW127433   2.204   6.818   7.889  2.3055 -0.7151 -0.9487
 8739SOL    HW227434   2.317   6.773   7.979  0.3175 -0.1243  1.9897
 8740SOL     OW27435   2.137   6.141   8.040  0.3640 -0.6413  0.2120
 8740SOL    HW127436   2.130   6.046   8.030 -0.9605 -0.5904  0.5858
 8740SOL    HW227437   2.160   6.172   7.953 -0.9744 -1.1546 -0.3506
 8741SOL     OW27438   3.502   6.933   7.887 -0.9391  0.1649 -0.4336
 8741SOL    HW127439   3.555   7.012   7.892 -1.8351  0.6915  1.7183
 8741SOL    HW227440   3.469   6.933   7.797  1.3812  0.6397 -1.3588
 8742SOL     OW27441   3.221   7.334   8.520 -0.4271  0.0743  0.0715
 8742SOL    HW127442   3.267   7.383   8.588 -0.4507  0.5960 -0.2827
 8742SOL    HW227443   3.244   7.242   8.536  1.1472  0.3639 -0.3884
 8743SOL     OW27444   3.573   6.297   7.371 -0.5732 -0.5119 -0.0317
 8743SOL    HW127445   3.538   6.216   7.335 -1.1843 -0.6766  0.8761
 8743SOL    HW227446   3.566   6.286   7.466 -2.3015  1.2640  0.1176
 8744SOL     OW27447   2.319   7.020   8.544 -0.1414 -0.2958 -0.3043
 8744SOL    HW127448   2.370   7.037   8.623 -0.3698  0.1995 -0.2624
 8744SOL    HW227449   2.242   7.076   8.552 -0.1110 -0.1572 -0.9272
 8745SOL     OW27450   2.104   6.661   0.462  0.3240  0.2205 -0.3329
 8745SOL    HW127451   2.109   6.567   0.481 -1.3051  0.2390  0.3532
 8745SOL    HW227452   2.195   6.688   0.452  0.8374 -1.4139 -0.4790
 8746SOL     OW27453   3.276   6.324   8.738  0.8462 -0.3917  0.0227
 8746SOL    HW127454   3.192   6.283   8.758  1.0734 -0.5491  0.6562
 8746SOL    HW227455   3.297   6.292   8.650  0.6478 -1.0152  0.1962
 8747SOL     OW27456   2.819   6.090   7.574 -0.6126 -0.5516 -0.5045
 8747SOL    HW127457   2.841   6.043   7.655  1.6590 -1.0668 -1.3389
 8747SOL    HW227458   2.724   6.083   7.567 -0.6700 -2.1626  1.1168
 8748SOL     OW27459   1.850   5.871   8.674 -0.3865  0.6154  0.0834
 8748SOL    HW127460   1.793   5.800   8.707 -1.2130  0.3559 -1.7959
 8748SOL    HW227461   1.913   5.885   8.745 -0.6982 -1.4435  0.8516
 8749SOL     OW27462   1.417   6.733   8.681  0.1812 -0.3862  0.5225
 8749SOL    HW127463   1.379   6.794   8.618 -0.5420 -0.0762  1.2392
 8749SOL    HW227464   1.402   6.646   8.643 -0.0541 -0.1896  0.1623
 8750SOL     OW27465   2.474   6.392   8.182  0.2455  0.6027 -0.2268
 8750SOL    HW127466   2.489   6.321   8.245  0.7770 -0.6250 -1.6902
 8750SOL    HW227467   2.553   6.445   8.187 -0.2849  1.3240  1.1065
 8751SOL     OW27468   1.991   5.675   8.310 -0.6605  0.4715  0.4025
 8751SOL    HW127469   2.009   5.768   8.298  0.3261  0.2569  0.1760
 8751SOL    HW227470   1.983   5.665   8.405  0.2230  0.6130  0.4962
 8752SOL     OW27471   3.450   6.146   8.085 -0.6150 -0.1370  0.1862
 8752SOL    HW127472   3.519   6.209   8.064 -1.4590  0.1298 -2.0451
 8752SOL    HW227473   3.488   6.092   8.154  1.9843 -0.1948 -1.1315
 8753SOL     OW27474   2.801   6.719   8.621  0.3094 -0.0114 -0.4249
 8753SOL    HW127475   2.877   6.746   8.672  0.2557 -0.6797  0.0201
 8753SOL    HW227476   2.751   6.663   8.680 -0.1824 -0.1277 -0.9371
 8754SOL     OW27477   3.212   5.450   7.731  0.2872  0.3305 -0.0268
 8754SOL    HW127478   3.287   5.500   7.699  0.8409 -0.2070  0.3927
 8754SOL    HW227479   3.188   5.394   7.657 -1.1344  2.0503 -0.9438
 8755SOL     OW27480   3.247   6.772   7.415 -0.1645  0.2812  0.2178
 8755SOL    HW127481   3.285   6.695   7.375 -0.3063 -0.6309  1.7499
 8755SOL    HW227482   3.155   6.771   7.389  0.1910  0.8940 -1.1330
 8756SOL     OW27483   3.097   6.547   8.102 -0.2318  0.0210 -0.0424
 8756SOL    HW127484   3.136   6.522   8.018 -1.4940  2.3145 -1.4253
 8756SOL    HW227485   3.013   6.587   8.078 -1.1078 -0.1970  2.4240
 8757SOL     OW27486   2.056   6.841   8.155 -0.1648  0.0487  0.0597
 8757SOL    HW127487   2.036   6.792   8.235 -0.0674  0.7711  0.5420
 8757SOL    HW227488   2.123   6.789   8.111 -1.3305 -1.1620 -0.3493
 8758SOL     OW27489   2.115   6.196   8.474  0.4900  0.0488  0.3618
 8758SOL    HW127490   2.143   6.220   8.386 -1.0795  0.0741 -0.1451
 8758SOL    HW227491   2.173   6.246   8.532  1.3350  0.2577 -0.6433
 8759SOL     OW27492   3.350   5.945   0.420 -0.1007 -0.4305  0.5505
 8759SOL    HW127493   3.395   5.869   0.382 -0.0626 -0.2975  0.3241
 8759SOL    HW227494   3.320   5.995   0.343 -0.0390 -0.1654  0.7002
 8760SOL     OW27495   1.542   6.542   7.914 -0.2096 -0.2262 -0.5019
 8760SOL    HW127496   1.531   6.466   7.971  2.9571 -0.7449 -0.4161
 8760SOL    HW227497   1.624   6.526   7.868  0.5697  3.1044 -0.5264
 8761SOL     OW27498   2.067   7.465   8.088 -0.0704  0.4618 -0.0439
 8761SOL    HW127499   1.974   7.446   8.073 -0.4698  1.8550  0.5273
 8761SOL    HW227500   2.077   7.461   8.183  0.3007  1.0031 -0.0574
 8762SOL     OW27501   2.547   7.332   8.413  0.4190 -0.4772  0.0323
 8762SOL    HW127502   2.594   7.396   8.359  1.9702 -1.6040  0.0050
 8762SOL    HW227503   2.594   7.250   8.400  0.3176 -0.9826  2.4272
 8763SOL     OW27504   2.819   6.259   8.531 -0.0058  0.4721 -0.4293
 8763SOL    HW127505   2.814   6.233   8.439 -0.4509 -1.5105  0.0968
 8763SOL    HW227506   2.876   6.194   8.571 -1.6730 -0.1167  1.1172
 8764SOL     OW27507   2.066   6.669   8.413  0.2469 -0.4541  0.0986
 8764SOL    HW127508   2.031   6.693   8.499  1.1020  0.9282  0.1005
 8764SOL    HW227509   2.156   6.640   8.431  1.2004  1.9008 -0.4883
 8765SOL     OW27510   2.625   5.816   7.452 -0.3387  0.4216 -0.0944
 8765SOL    HW127511   2.587   5.840   7.368 -3.2562  0.2394  1.0732
 8765SOL    HW227512   2.564   5.752   7.489  1.1766  0.0305  1.9264
 8766SOL     OW27513   3.795   6.239   0.108 -0.2583 -0.2109 -0.1474
 8766SOL    HW127514   3.806   6.263   0.016  0.4561 -2.1549 -0.6148
 8766SOL    HW227515   3.810   6.320   0.156  1.5198  0.3943 -1.6320
 8767SOL     OW27516   2.850   6.086   8.287 -0.0667  0.4076  0.2052
 8767SOL    HW127517   2.945   6.102   8.283  0.2777 -0.6911  2.5508
 8767SOL    HW227518   2.839   5.996   8.257 -0.6375  1.0845 -1.7783
 8768SOL     OW27519   2.788   6.666   0.082 -0.5909 -0.1625  0.3082
 8768SOL    HW127520   2.864   6.720   0.063 -0.1393 -1.4579 -1.9009
 8768SOL    HW227521   2.754   6.700   0.165 -0.1202  3.2100 -0.7392
 8769SOL     OW27522   2.373   5.453   7.378  0.7291  0.6764 -0.0066
 8769SOL    HW127523   2.461   5.465   7.413  0.9013 -4.0140  1.9544
 8769SOL    HW227524   2.381   5.379   7.319 -1.8364  0.3778 -0.0735
 8770SOL     OW27525   1.929   6.754   0.674  0.3115  0.1504  0.2834
 8770SOL    HW127526   1.956   6.781   0.762  1.0184  1.6880 -0.3710
 8770SOL    HW227527   2.011   6.729   0.631  0.0423  0.0030 -0.1493
 8771SOL     OW27528   3.065   6.712   8.767 -0.4010 -0.2205  0.0565
 8771SOL    HW127529   3.047   6.635   8.821 -1.6971  0.0255  0.0166
 8771SOL    HW227530   3.128   6.682   8.702 -0.4189 -1.0769  0.4250
 8772SOL     OW27531   2.988   6.359   8.257  0.0921  0.0789 -0.4187
 8772SOL    HW127532   3.058   6.405   8.211 -0.4280  2.9856  1.4398
 8772SOL    HW227533   3.001   6.381   8.349 -2.6839 -0.0938  0.0912
 8773SOL     OW27534   3.634   7.754   0.141 -0.3612  0.1335  0.2893
 8773SOL    HW127535   3.608   7.762   0.050 -1.7678 -0.3023  0.6232
 8773SOL    HW227536   3.726   7.781   0.143 -0.7009  1.4982 -1.0098
 8774SOL     OW27537   3.505   7.247   8.594 -0.1254  0.1208  0.6403
 8774SOL    HW127538   3.596   7.269   8.574 -0.3438  0.9805  0.5298
 8774SOL    HW227539   3.491   7.162   8.552 -0.0453  1.0470 -1.3703
 8775SOL     OW27540   1.691   7.221   8.841  0.0802  0.3422 -0.3082
 8775SOL    HW127541   1.729   7.189   8.923 -2.0804  0.5697  0.8652
 8775SOL    HW227542   1.714   7.314   8.839  0.7147  0.1899 -0.3232
 8776SOL     OW27543   3.424   5.989   7.780 -0.1241 -0.3939 -0.7587
 8776SOL    HW127544   3.372   6.064   7.809 -1.5194 -1.3704 -0.6125
 8776SOL    HW227545   3.460   5.953   7.861 -0.5223 -0.6276 -0.6814
 8777SOL     OW27546   3.631   7.165   7.934 -0.4301  1.1688  0.0473
 8777SOL    HW127547   3.635   7.258   7.911  1.8644  1.0771 -0.1007
 8777SOL    HW227548   3.621   7.165   8.029 -1.5947  1.5318 -0.0541
 8778SOL     OW27549   3.173   6.157   7.937  0.0104 -0.8018  0.4532
 8778SOL    HW127550   3.211   6.168   8.024 -0.9720  0.9866  0.7057
 8778SOL    HW227551   3.200   6.235   7.888 -0.3340 -1.2614 -0.4989
 8779SOL     OW27552   2.747   7.415   7.455 -0.4732 -0.0473  0.1034
 8779SOL    HW127553   2.698   7.494   7.476  0.8150  0.9190 -0.4456
 8779SOL    HW227554   2.724   7.354   7.525  0.6514  1.7593  2.1891
 8780SOL     OW27555   3.773   5.921   8.402  0.1085 -0.2460 -0.1176
 8780SOL    HW127556   3.779   5.943   8.495  1.2221 -0.7015 -0.0670
 8780SOL    HW227557   3.773   5.826   8.400 -1.1302 -0.2558 -0.5325
 8781SOL     OW27558   2.219   5.628   8.085  0.2694 -0.3855  0.5937
 8781SOL    HW127559   2.219   5.533   8.073  1.6786 -0.4786  1.1367
 8781SOL    HW227560   2.156   5.643   8.156 -2.4309 -0.5448 -1.6029
 8782SOL     OW27561   3.246   7.496   7.678 -0.1054  0.8842 -0.0633
 8782SOL    HW127562   3.152   7.487   7.664  0.2018  0.1863 -2.1060
 8782SOL    HW227563   3.286   7.442   7.609  1.7951  0.3842  1.3537
 8783SOL     OW27564   2.506   6.626   0.069  0.1306 -0.2316 -0.4398
 8783SOL    HW127565   2.588   6.675   0.066  0.8542 -1.3363  0.1403
 8783SOL    HW227566   2.514   6.561  -0.001 -0.5635  0.1022 -0.8369
 8784SOL     OW27567   3.254   6.260   7.670  0.2409 -0.0975  0.3147
 8784SOL    HW127568   3.212   6.345   7.662  0.5154  0.1196  1.0889
 8784SOL    HW227569   3.196   6.200   7.624 -0.2941  0.3953  0.3335
 8785SOL     OW27570   3.643   7.420   7.869 -0.0081 -0.2621 -0.1254
 8785SOL    HW127571   3.617   7.513   7.871  3.0167  0.7798 -1.9700
 8785SOL    HW227572   3.650   7.400   7.775  2.4999 -1.3155  0.2121
 8786SOL     OW27573   3.196   6.967   8.769 -1.0685  0.2649  0.4440
 8786SOL    HW127574   3.234   6.979   8.682  0.7546 -1.2823  0.9564
 8786SOL    HW227575   3.140   6.890   8.760 -1.1615  0.3158  0.5758
 8787SOL     OW27576   3.015   6.451   8.496 -0.0484 -0.5910 -0.0605
 8787SOL    HW127577   2.961   6.378   8.527 -0.8350  0.3221  0.8106
 8787SOL    HW227578   3.095   6.446   8.548 -0.6537 -0.0761  0.9530
 8788SOL     OW27579   3.384   5.925   8.526  0.4476  0.4058  0.2936
 8788SOL    HW127580   3.305   5.942   8.577  0.8712 -1.4266  1.7069
 8788SOL    HW227581   3.429   5.856   8.575  0.4071 -2.2797 -3.0670
 8789SOL     OW27582   3.338   6.414   7.950 -0.9591  0.8577 -0.3863
 8789SOL    HW127583   3.357   6.395   7.859 -1.5974 -1.5407 -0.0835
 8789SOL    HW227584   3.418   6.388   7.997 -1.2232  0.5415 -0.1099
 8790SOL     OW27585   3.552   6.012   0.044 -0.0337 -0.0700 -0.1331
 8790SOL    HW127586   3.623   6.021   0.108 -0.8961 -1.4645  1.1138
 8790SOL    HW227587   3.566   6.083  -0.018  0.6421  1.6056  1.8288
 8791SOL     OW27588   2.122   6.720   7.751  0.0674 -0.1238 -0.3531
 8791SOL    HW127589   2.056   6.681   7.693  0.4721 -1.4370  0.0266
 8791SOL    HW227590   2.149   6.648   7.808  2.1935  0.2550 -0.8181
 8792SOL     OW27591   2.706   6.461   8.680  0.4926 -0.5938  0.4580
 8792SOL    HW127592   2.758   6.406   8.622  1.1380  1.4264 -0.9995
 8792SOL    HW227593   2.615   6.442   8.655  0.7439 -0.0812 -0.9494
 8793SOL     OW27594   2.138   5.833   7.268  0.3039 -0.6941 -0.1578
 8793SOL    HW127595   2.097   5.905   7.317 -0.0711 -1.6237  0.9302
 8793SOL    HW227596   2.191   5.877   7.202 -0.1256  0.5849  0.3084
 8794SOL     OW27597   2.294   5.748   7.642  0.2113 -0.5396  0.2646
 8794SOL    HW127598   2.256   5.698   7.570  0.8500 -1.0241  0.2539
 8794SOL    HW227599   2.312   5.683   7.710 -0.7705 -0.0290  1.0418
 8795SOL     OW27600   3.364   6.914   7.601  0.3115 -0.1314 -0.0352
 8795SOL    HW127601   3.309   6.887   7.528 -1.1521  2.7084 -0.1532
 8795SOL    HW227602   3.346   6.850   7.670 -2.0940 -0.1383 -0.5806
 8796SOL     OW27603   1.948   6.994   8.619  0.7385  0.3521 -0.2011
 8796SOL    HW127604   1.957   7.087   8.598 -0.7710  0.7506  0.7287
 8796SOL    HW227605   1.994   6.984   8.703  1.7071  0.0197 -0.7424
 8797SOL     OW27606   3.016   7.683   8.679 -0.5612 -0.0655  0.5726
 8797SOL    HW127607   3.048   7.720   8.597 -0.0027  2.7995  1.9639
 8797SOL    HW227608   3.009   7.589   8.662  3.2558 -0.1580 -1.5493
 8798SOL     OW27609   2.200   7.596   0.476 -0.3800 -0.2951 -0.1855
 8798SOL    HW127610   2.254   7.667   0.440  0.6365 -1.4560 -1.0128
 8798SOL    HW227611   2.111   7.621   0.454 -0.1429  1.2590  0.4862
 8799SOL     OW27612   4.416   6.321   8.354 -0.5273  0.5252  0.1126
 8799SOL    HW127613   4.365   6.248   8.319 -0.0048  1.5616 -3.1191
 8799SOL    HW227614   4.490   6.278   8.398 -0.4034 -0.9593 -1.4246
 8800SOL     OW27615   3.330   5.652   7.946 -0.2806 -0.4441 -0.1202
 8800SOL    HW127616   3.382   5.594   8.001 -0.3013  0.0433  0.4367
 8800SOL    HW227617   3.287   5.595   7.884 -1.5189 -1.2253  1.3873
 8801SOL     OW27618   2.715   6.517   8.108 -0.2408  0.1742  0.4331
 8801SOL    HW127619   2.770   6.550   8.037 -1.7838 -1.8302 -1.8533
 8801SOL    HW227620   2.773   6.515   8.184  1.4718  2.4835 -0.7071
 8802SOL     OW27621   3.274   6.682   8.570  0.1364 -0.2786 -0.1292
 8802SOL    HW127622   3.282   6.684   8.475 -1.2780 -1.7889 -0.3264
 8802SOL    HW227623   3.362   6.701   8.602  0.6148  0.3333 -1.7254
 8803SOL     OW27624   2.378   7.009   7.707 -0.1109  0.4085  0.0830
 8803SOL    HW127625   2.466   7.004   7.743  0.4647  0.7163 -1.2231
 8803SOL    HW227626   2.321   6.973   7.775  1.0162  0.2368  0.9457
 8804SOL     OW27627   2.586   7.433   8.159  0.3890 -0.0242 -0.3745
 8804SOL    HW127628   2.647   7.368   8.125  1.0161 -0.6755  1.8335
 8804SOL    HW227629   2.510   7.427   8.102  1.2943 -1.1564 -1.5179
 8805SOL     OW27630   2.880   6.636   8.370  0.1083  0.0203  0.4573
 8805SOL    HW127631   2.939   6.573   8.412  0.0753 -0.1959  0.1799
 8805SOL    HW227632   2.835   6.678   8.443 -0.2356 -0.6338  0.6317
 8806SOL     OW27633   2.661   6.508   7.601  0.9057  0.2011 -0.4312
 8806SOL    HW127634   2.723   6.437   7.583  0.7597 -0.5065  1.5844
 8806SOL    HW227635   2.713   6.587   7.591  2.1251 -0.3680  1.0060
 8807SOL     OW27636   3.758   7.597   8.732 -0.6744  0.6476  0.1464
 8807SOL    HW127637   3.671   7.607   8.691 -0.2686 -0.1390 -0.9557
 8807SOL    HW227638   3.802   7.532   8.678 -0.7031 -1.8093  2.8397
 8808SOL     OW27639   1.919   6.574   8.011 -0.4456  0.1652  0.1329
 8808SOL    HW127640   1.916   6.538   8.100 -0.1360  1.0651  0.5139
 8808SOL    HW227641   1.859   6.648   8.013 -0.3672  0.2481 -0.3864
 8809SOL     OW27642   3.891   5.843   0.018 -0.2895 -0.1030  0.0916
 8809SOL    HW127643   3.900   5.749   0.035 -3.2724 -0.3161  1.0924
 8809SOL    HW227644   3.830   5.847  -0.056 -0.1881  1.0613  0.0666
 8810SOL     OW27645   2.207   5.859   7.929  0.2638  0.2029 -0.4286
 8810SOL    HW127646   2.249   5.842   7.845 -0.9148 -0.0315 -0.9878
 8810SOL    HW227647   2.230   5.783   7.983  0.0661 -0.2227 -0.9277
 8811SOL     OW27648   3.241   7.369   0.094 -0.0996  0.4217 -0.2229
 8811SOL    HW127649   3.229   7.400   0.184 -0.1861 -0.9271  0.2659
 8811SOL    HW227650   3.328   7.330   0.094  0.2397  1.1607 -0.9717
 8812SOL     OW27651   1.821   6.202   8.500  0.5495  0.0617  0.1479
 8812SOL    HW127652   1.796   6.258   8.574  0.4564 -1.7230  1.5378
 8812SOL    HW227653   1.917   6.203   8.500  0.5875  2.1621 -1.4323
 8813SOL     OW27654   3.295   6.710   7.784 -0.3565  0.3909 -0.5391
 8813SOL    HW127655   3.296   6.761   7.864 -1.4207 -1.5085  0.7529
 8813SOL    HW227656   3.207   6.723   7.748 -1.0780 -1.3990  0.4560
 8814SOL     OW27657   2.912   5.536   0.029  0.1971  0.5975  0.3150
 8814SOL    HW127658   3.000   5.525  -0.007  0.6179  0.7467  1.2503
 8814SOL    HW227659   2.872   5.603  -0.025  1.1597  1.5148  0.7043
 8815SOL     OW27660   2.921   5.125   8.723  0.1523 -0.2386  0.1177
 8815SOL    HW127661   2.967   5.069   8.660  0.0744  1.7134 -1.8265
 8815SOL    HW227662   2.869   5.185   8.668 -1.8537  0.0214  2.1378
 8816SOL     OW27663   2.622   6.971   7.801 -0.1505  0.1286  0.4448
 8816SOL    HW127664   2.675   6.896   7.830 -1.5318 -0.4118  1.7438
 8816SOL    HW227665   2.657   6.994   7.715  0.1353 -2.2153 -0.1444
 8817SOL     OW27666   2.800   7.221   8.716 -0.2899 -0.4963  0.1661
 8817SOL    HW127667   2.858   7.188   8.785  0.2978  0.4129  0.1240
 8817SOL    HW227668   2.764   7.143   8.675 -0.8864 -1.0658  1.6976
 8818SOL     OW27669   2.786   5.322   7.992 -0.1992  0.3735 -0.5572
 8818SOL    HW127670   2.707   5.343   8.041 -0.2176 -0.1627 -0.3485
 8818SOL    HW227671   2.841   5.400   7.999  0.4041 -0.1742  1.5242
 8819SOL     OW27672   3.136   6.089   8.318  0.0480  0.2541  0.2687
 8819SOL    HW127673   3.189   6.015   8.288  0.6299  0.7746 -0.0248
 8819SOL    HW227674   3.180   6.166   8.281 -1.1278  0.6857 -0.2737
 8820SOL     OW27675   3.325   5.722   8.738  0.0503  0.2019  0.3970
 8820SOL    HW127676   3.295   5.802   8.782 -0.1327  0.0793  0.4955
 8820SOL    HW227677   3.348   5.663   8.810 -2.0567 -0.7165  0.3940
 8821SOL     OW27678   1.847   6.177   7.829 -0.5363 -0.4910 -0.0434
 8821SOL    HW127679   1.819   6.268   7.828  1.4148  0.1524 -0.2132
 8821SOL    HW227680   1.804   6.139   7.905  1.3393  1.5185  2.1572
 8822SOL     OW27681   3.061   6.787   7.669  0.2554 -0.0709  0.1667
 8822SOL    HW127682   3.041   6.877   7.642  1.4065 -0.1288 -0.9905
 8822SOL    HW227683   2.977   6.742   7.669 -0.1501  0.6645 -0.6464
 8823SOL     OW27684   1.858   8.031   0.154  0.7157 -0.1779  0.1535
 8823SOL    HW127685   1.814   8.095   0.098  1.1724  0.3808  0.4256
 8823SOL    HW227686   1.806   8.029   0.234  0.7574 -0.0665  0.1840
 8824SOL     OW27687   1.365   7.192   1.072 -0.1120 -0.6394  0.0867
 8824SOL    HW127688   1.315   7.118   1.107 -0.2573 -0.6291 -0.0974
 8824SOL    HW227689   1.413   7.226   1.147  1.7530 -2.3333 -0.2359
 8825SOL     OW27690   1.715   8.076   0.376  0.1104  0.0410  0.1591
 8825SOL    HW127691   1.752   8.164   0.384 -0.9022  0.6695 -1.4263
 8825SOL    HW227692   1.644   8.074   0.440  0.0766  0.4199  0.1370
 8826SOL     OW27693   2.352   8.717   0.738 -0.5285  0.5247  0.6090
 8826SOL    HW127694   2.267   8.684   0.709 -0.4670 -0.4256  1.4411
 8826SOL    HW227695   2.346   8.716   0.834  0.3571  0.5863  0.6699
 8827SOL     OW27696   3.859   8.447   0.587 -0.0482 -0.1873 -0.0098
 8827SOL    HW127697   3.879   8.408   0.502  1.4512 -2.0790  1.1268
 8827SOL    HW227698   3.937   8.431   0.640 -0.8101  1.2173  1.6559
 8828SOL     OW27699   2.639   8.359   0.442  0.0617 -0.3130 -0.4260
 8828SOL    HW127700   2.553   8.378   0.479  0.4375  1.0773 -0.1787
 8828SOL    HW227701   2.692   8.328   0.516 -0.0521 -0.5562 -0.4472
 8829SOL     OW27702   4.078   7.930   0.388  0.3605  0.0415  0.6502
 8829SOL    HW127703   4.065   7.876   0.466  0.6427 -0.3791  0.4109
 8829SOL    HW227704   4.166   7.908   0.358  0.3874  0.4655  0.4166
 8830SOL     OW27705   2.192   8.323   0.963 -0.4273  0.0524 -0.3399
 8830SOL    HW127706   2.110   8.334   1.011 -0.7556 -1.5453 -0.4622
 8830SOL    HW227707   2.258   8.310   1.031 -0.7617 -1.4216 -0.2616
 8831SOL     OW27708   2.430   8.422   1.821  0.3441  0.6821 -0.0385
 8831SOL    HW127709   2.507   8.443   1.875  0.4694  1.0310 -0.3504
 8831SOL    HW227710   2.458   8.440   1.731  1.2954 -3.0298 -0.6916
 8832SOL     OW27711   2.887   8.569   0.354  0.5933  0.0238  0.5228
 8832SOL    HW127712   2.842   8.490   0.384 -3.5887  2.3337  1.0979
 8832SOL    HW227713   2.949   8.589   0.425 -1.4836 -0.4005  2.5728
 8833SOL     OW27714   2.717   8.539   1.908 -0.3544  0.3881 -0.3377
 8833SOL    HW127715   2.743   8.456   1.868  0.2859  0.8055 -0.7863
 8833SOL    HW227716   2.764   8.606   1.859  0.0678  0.9413  0.7808
 8834SOL     OW27717   1.757   8.708   0.710 -0.3333 -0.0771 -0.4242
 8834SOL    HW127718   1.670   8.735   0.741  0.3721  0.2065  1.4140
 8834SOL    HW227719   1.792   8.654   0.781  1.7478  1.3572 -0.2703
 8835SOL     OW27720   2.266   7.624   0.967 -0.2408 -0.1101 -0.0193
 8835SOL    HW127721   2.313   7.601   0.887 -2.5812 -1.1917 -1.1887
 8835SOL    HW227722   2.204   7.692   0.939 -1.1910 -0.6146  0.8070
 8836SOL     OW27723   3.119   7.505   0.858  0.0702  0.0140 -0.4348
 8836SOL    HW127724   3.124   7.598   0.837  1.3243 -0.0284 -0.3722
 8836SOL    HW227725   3.185   7.492   0.927 -0.0434 -0.9328 -0.4901
 8837SOL     OW27726   2.947   8.300   1.402  0.4163 -0.4908 -0.8004
 8837SOL    HW127727   2.992   8.286   1.319  0.3147  0.3194 -0.9957
 8837SOL    HW227728   3.009   8.348   1.456 -0.0033  0.1519 -0.8785
 8838SOL     OW27729   2.324   8.399   0.730 -0.0089  0.0965 -0.5798
 8838SOL    HW127730   2.279   8.399   0.815 -1.0647  0.4624 -1.1158
 8838SOL    HW227731   2.278   8.332   0.679  2.0454 -1.7117 -0.1640
 8839SOL     OW27732   2.274   8.528   0.248  0.3293 -0.4092 -0.4530
 8839SOL    HW127733   2.341   8.544   0.181  1.0264 -3.3398 -0.6110
 8839SOL    HW227734   2.320   8.536   0.331  0.1241  0.5428 -0.4249
 8840SOL     OW27735   3.146   7.863   1.696 -0.6824  0.1269 -0.3075
 8840SOL    HW127736   3.192   7.935   1.738 -1.0719 -0.0413  0.4339
 8840SOL    HW227737   3.201   7.838   1.622 -0.0807  0.5669 -0.0096
 8841SOL     OW27738   2.072   8.423   0.422 -0.1192 -0.0054  0.3094
 8841SOL    HW127739   2.141   8.452   0.482  0.0744 -1.6368  0.9235
 8841SOL    HW227740   2.081   8.480   0.346  1.1129  0.6139  0.8880
 8842SOL     OW27741   3.599   8.562   0.591 -0.3858 -0.0441  0.4164
 8842SOL    HW127742   3.695   8.555   0.586 -0.3864  0.1903  0.0036
 8842SOL    HW227743   3.578   8.634   0.531 -0.9763 -1.3336 -0.9837
 8843SOL     OW27744   4.210   8.611   0.486  0.1494 -0.0308  0.6000
 8843SOL    HW127745   4.168   8.541   0.436  0.6173 -1.0597  1.6292
 8843SOL    HW227746   4.173   8.692   0.448 -2.1414 -0.8530  0.8953
 8844SOL     OW27747   1.973   8.372   1.167 -0.2860 -0.0111  0.7940
 8844SOL    HW127748   2.021   8.452   1.187  0.3247 -0.1829  0.0889
 8844SOL    HW227749   1.883   8.389   1.195 -0.6739  1.7440 -1.2453
 8845SOL     OW27750   2.689   8.672   0.648  0.4591  0.2434 -0.0283
 8845SOL    HW127751   2.747   8.599   0.624  1.2551  0.8455  0.0275
 8845SOL    HW227752   2.639   8.639   0.722  0.9570 -0.1817  0.1296
 8846SOL     OW27753   3.162   8.442   1.496  0.5451  0.0052  0.7176
 8846SOL    HW127754   3.247   8.418   1.458  1.5667  0.7245  2.4339
 8846SOL    HW227755   3.166   8.537   1.506 -1.0544  0.2244 -0.4693
 8847SOL     OW27756   2.670   7.951   0.530 -0.0040 -0.0116  0.2638
 8847SOL    HW127757   2.734   8.022   0.539  0.4204 -0.3476 -0.0438
 8847SOL    HW227758   2.595   7.991   0.486  0.3806  0.1564 -0.2405
 8848SOL     OW27759   1.606   7.759   0.772  0.1729 -0.5042 -0.4480
 8848SOL    HW127760   1.634   7.728   0.686 -2.1030 -0.8331 -1.1355
 8848SOL    HW227761   1.680   7.740   0.830  0.7954 -2.6401 -1.8245
 8849SOL     OW27762   3.444   8.674   0.200 -0.4709 -0.2288 -0.3795
 8849SOL    HW127763   3.461   8.707   0.112 -2.2446  2.7067  0.2248
 8849SOL    HW227764   3.511   8.717   0.254 -0.2838 -0.8753 -0.0946
 8850SOL     OW27765   1.864   7.585   1.308  0.2289  0.5832 -0.0092
 8850SOL    HW127766   1.833   7.497   1.329 -1.0792  0.9384 -0.3606
 8850SOL    HW227767   1.919   7.572   1.231  1.2162 -0.0988  0.7863
 8851SOL     OW27768   3.587   8.413   0.994  0.6626 -0.2047 -0.8478
 8851SOL    HW127769   3.660   8.395   1.054 -0.7432 -1.6683  0.5080
 8851SOL    HW227770   3.623   8.395   0.907  2.2085  0.1561 -0.3280
 8852SOL     OW27771   2.318   8.214   0.191  0.3600  0.1729  0.0699
 8852SOL    HW127772   2.295   8.283   0.253  0.5163 -0.0591  0.3841
 8852SOL    HW227773   2.316   8.258   0.106 -0.5936  0.3133  0.1585
 8853SOL     OW27774   3.292   7.405   1.081  0.1434  0.9220 -0.3628
 8853SOL    HW127775   3.274   7.311   1.090 -1.6244  1.1792 -0.8055
 8853SOL    HW227776   3.383   7.415   1.109  0.2925 -0.8845 -0.0845
 8854SOL     OW27777   2.069   8.174   1.542  0.0648 -0.6126  0.2772
 8854SOL    HW127778   2.102   8.235   1.608 -1.8907 -0.4824  1.2085
 8854SOL    HW227779   2.102   8.089   1.569  0.2960 -0.3880  0.7211
 8855SOL     OW27780   3.333   8.101   1.447 -0.6148 -0.1620 -0.3330
 8855SOL    HW127781   3.313   8.097   1.540 -2.2004  1.5006 -0.5541
 8855SOL    HW227782   3.276   8.036   1.407 -1.2108  0.3438 -0.3138
 8856SOL     OW27783   2.632   8.339   1.281 -0.4143 -0.0935  0.6194
 8856SOL    HW127784   2.612   8.432   1.291 -1.3415 -0.0307 -1.4548
 8856SOL    HW227785   2.632   8.324   1.187  2.2105 -1.6999  0.7947
 8857SOL     OW27786   2.805   7.536   1.234 -0.1598 -0.0683 -0.2797
 8857SOL    HW127787   2.892   7.555   1.200  0.2247 -1.1639  0.0637
 8857SOL    HW227788   2.819   7.511   1.325 -0.8211 -0.3076 -0.2360
 8858SOL     OW27789   2.811   8.268   0.250  0.1641  0.3724  1.0616
 8858SOL    HW127790   2.785   8.180   0.225  1.5574  0.0714  0.5838
 8858SOL    HW227791   2.737   8.302   0.300 -1.6607  0.0498 -1.2695
 8859SOL     OW27792   1.578   8.205   0.936 -0.1936  0.0012 -0.2293
 8859SOL    HW127793   1.593   8.121   0.893 -2.5480 -0.5687 -0.1099
 8859SOL    HW227794   1.562   8.266   0.864 -0.5818 -0.1596 -0.2871
 8860SOL     OW27795   3.496   7.963   0.412 -0.1940 -0.4499 -0.2560
 8860SOL    HW127796   3.527   8.023   0.345 -0.2387 -0.0187  0.1074
 8860SOL    HW227797   3.562   7.893   0.414  1.2346  0.8583  1.0705
 8861SOL     OW27798   3.692   7.825   1.553  0.0341 -0.5152 -0.0202
 8861SOL    HW127799   3.745   7.787   1.484  1.6765  0.2242  0.7883
 8861SOL    HW227800   3.707   7.769   1.629 -1.9241 -1.4522 -0.2545
 8862SOL     OW27801   3.232   8.717   0.708 -0.1917 -0.1155  0.0794
 8862SOL    HW127802   3.273   8.804   0.714 -0.9499  0.2060  0.8150
 8862SOL    HW227803   3.283   8.662   0.767  0.1452 -0.1193 -0.2105
 8863SOL     OW27804   2.378   7.480   0.696 -0.3188 -0.6751 -0.5180
 8863SOL    HW127805   2.462   7.476   0.650  0.0809  2.0970 -0.1914
 8863SOL    HW227806   2.320   7.527   0.636 -0.8508 -0.2415  0.3113
 8864SOL     OW27807   3.809   8.234   1.231  0.0273  0.6257  0.1988
 8864SOL    HW127808   3.765   8.153   1.203 -0.7904  1.6692 -1.7176
 8864SOL    HW227809   3.781   8.246   1.322 -0.7329 -0.6575  0.1570
 8865SOL     OW27810   2.077   8.728   0.387  0.2555 -0.2409  0.1559
 8865SOL    HW127811   2.101   8.678   0.309  1.3096  0.7359 -0.1766
 8865SOL    HW227812   2.152   8.785   0.403 -1.3277  2.0965 -0.1810
 8866SOL     OW27813   2.941   7.633   0.579 -0.5251 -1.2340 -0.3424
 8866SOL    HW127814   2.876   7.688   0.623 -1.1570  0.2408 -2.9327
 8866SOL    HW227815   2.892   7.555   0.553 -0.5744 -1.3280  0.0216
 8867SOL     OW27816   2.822   8.779   1.880  0.2202  0.2152  0.7343
 8867SOL    HW127817   2.828   8.869   1.913  1.4567  0.4013  0.0490
 8867SOL    HW227818   2.912   8.748   1.878 -0.0677 -0.6115 -0.2263
 8868SOL     OW27819   1.584   7.668   1.690  0.4137  0.4704 -0.2262
 8868SOL    HW127820   1.639   7.744   1.669  3.5855 -2.1150 -2.1325
 8868SOL    HW227821   1.644   7.604   1.726 -1.7217 -1.9077 -0.6351
 8869SOL     OW27822   3.497   8.797   8.773 -0.4367  0.0853  0.7916
 8869SOL    HW127823   3.591   8.803   8.756 -0.1083 -1.0604  2.1010
 8869SOL    HW227824   3.469   8.888   8.783  0.3121  0.5013 -0.5612
 8870SOL     OW27825   2.940   7.486   0.172  0.0735  0.2293  0.4813
 8870SOL    HW127826   3.003   7.479   0.101  1.2092  2.1015  1.2529
 8870SOL    HW227827   2.981   7.440   0.245 -0.3393 -0.2163  0.4409
 8871SOL     OW27828   2.096   8.621   0.662  0.7848 -0.0959 -0.1082
 8871SOL    HW127829   2.055   8.669   0.590  0.9891 -0.5469 -0.5323
 8871SOL    HW227830   2.034   8.552   0.683  0.9378 -0.2512 -0.1691
 8872SOL     OW27831   3.771   7.615   1.702  0.1478  0.0286 -1.1505
 8872SOL    HW127832   3.864   7.599   1.716  0.0585 -0.3353 -0.9522
 8872SOL    HW227833   3.729   7.585   1.783 -0.1900 -0.2933 -1.4361
 8873SOL     OW27834   2.308   8.069   1.338 -0.4208  0.5605 -0.2592
 8873SOL    HW127835   2.284   8.001   1.275  0.9213  1.3859 -1.7457
 8873SOL    HW227836   2.270   8.040   1.421  0.6589 -2.3110 -0.6694
 8874SOL     OW27837   2.918   8.027   1.403  0.3878 -0.1020 -0.1294
 8874SOL    HW127838   2.889   8.027   1.494  1.0059  0.7718  0.0809
 8874SOL    HW227839   2.934   8.119   1.383  3.5857 -0.5171 -0.0067
 8875SOL     OW27840   2.585   7.702   0.426  0.2621 -0.2528 -0.2286
 8875SOL    HW127841   2.631   7.690   0.344  0.3935 -0.0114 -0.1929
 8875SOL    HW227842   2.624   7.781   0.464 -0.6124  0.3309 -0.5045
 8876SOL     OW27843   2.140   8.012   0.280  0.3021 -0.0928 -0.0551
 8876SOL    HW127844   2.200   8.079   0.246  0.9468 -1.3359 -1.4733
 8876SOL    HW227845   2.060   8.024   0.228 -0.2287  0.6910  0.9103
 8877SOL     OW27846   3.087   8.781   8.600  0.0889  0.2752 -0.7287
 8877SOL    HW127847   3.170   8.751   8.637  0.2166  0.8629 -0.5232
 8877SOL    HW227848   3.027   8.707   8.613  0.4502  0.0287 -0.4354
 8878SOL     OW27849   2.358   7.800   0.369  0.3247  0.2069 -0.4454
 8878SOL    HW127850   2.443   7.756   0.360 -0.9630 -2.1038 -2.9667
 8878SOL    HW227851   2.373   7.887   0.332  1.4695 -0.4140 -1.5491
 8879SOL     OW27852   2.727   7.978   0.952  0.7214  0.0511  0.1746
 8879SOL    HW127853   2.649   7.996   1.003  1.0490 -0.9107  1.0554
 8879SOL    HW227854   2.800   7.988   1.014  1.1495 -0.8479 -0.1544
 8880SOL     OW27855   2.915   8.680   0.838 -0.7670 -0.2947  0.1565
 8880SOL    HW127856   2.941   8.772   0.826  0.5660 -0.5477  0.9847
 8880SOL    HW227857   2.928   8.640   0.752 -0.0336 -0.0189  0.1358
 8881SOL     OW27858   2.388   8.524   0.500 -0.6503 -0.0459 -0.3099
 8881SOL    HW127859   2.357   8.478   0.578  0.2973 -1.6170 -0.8131
 8881SOL    HW227860   2.432   8.602   0.534  1.9084 -1.9131  0.9711
 8882SOL     OW27861   3.074   8.316   0.159  0.3038  0.0875  0.0241
 8882SOL    HW127862   2.996   8.294   0.209  0.3401 -1.9608 -0.7424
 8882SOL    HW227863   3.049   8.303   0.068  0.5394  2.8172 -0.5217
 8883SOL     OW27864   1.698   7.757   1.432  0.2579  0.5738  0.1332
 8883SOL    HW127865   1.766   7.694   1.408  0.6806  1.0277  0.1214
 8883SOL    HW227866   1.731   7.798   1.512 -0.8562 -0.4927  1.1630
 8884SOL     OW27867   2.326   7.412   1.257  0.6015 -0.6176 -0.8138
 8884SOL    HW127868   2.382   7.422   1.334 -0.4563 -1.2573  0.0719
 8884SOL    HW227869   2.246   7.371   1.291  0.1021 -0.8842 -2.2534
 8885SOL     OW27870   2.194   8.208   0.563 -0.1268 -0.4818  0.5941
 8885SOL    HW127871   2.140   8.254   0.499  1.3704  0.7754  0.1741
 8885SOL    HW227872   2.205   8.120   0.526 -0.4633 -0.2186 -0.1571
 8886SOL     OW27873   2.283   6.997   0.562 -0.1713  0.2977  0.1027
 8886SOL    HW127874   2.277   6.932   0.632  0.5530 -0.0164 -0.1106
 8886SOL    HW227875   2.376   7.018   0.557 -0.4256  1.5307  0.3199
 8887SOL     OW27876   3.658   8.321   0.764 -0.2557  0.0232  0.1517
 8887SOL    HW127877   3.698   8.335   0.678 -0.0259  1.7977  0.5081
 8887SOL    HW227878   3.659   8.226   0.776  0.7315 -0.1828 -1.3161
 8888SOL     OW27879   2.861   7.407   0.829  0.0913 -0.2469 -0.0635
 8888SOL    HW127880   2.873   7.337   0.894 -0.7398  1.4715  2.1006
 8888SOL    HW227881   2.944   7.453   0.828  0.4915 -0.9616 -1.1525
 8889SOL     OW27882   3.729   8.118   0.582 -0.0969  0.1395  0.6882
 8889SOL    HW127883   3.689   8.129   0.496 -0.3375  0.9986  0.9014
 8889SOL    HW227884   3.790   8.044   0.571 -0.5092 -0.0970 -0.0709
 8890SOL     OW27885   3.899   8.250   0.383  0.1753 -0.1212  0.1828
 8890SOL    HW127886   3.833   8.182   0.394 -0.2232 -0.4247 -3.0950
 8890SOL    HW227887   3.972   8.206   0.341  0.5782  1.1468 -0.4815
 8891SOL     OW27888   3.262   7.811   0.374  0.1549 -0.3855  0.5148
 8891SOL    HW127889   3.332   7.874   0.392  1.1771 -1.2719 -0.2568
 8891SOL    HW227890   3.307   7.727   0.362 -1.1224 -1.1495  0.8600
 8892SOL     OW27891   2.492   8.046   0.340  0.0504 -0.3754  0.4373
 8892SOL    HW127892   2.566   8.043   0.279 -0.4484  1.1347 -0.2877
 8892SOL    HW227893   2.437   8.118   0.308 -0.8087 -0.2847  2.0118
 8893SOL     OW27894   3.547   8.737   1.354 -0.4685 -0.4606 -0.0952
 8893SOL    HW127895   3.595   8.676   1.298 -1.5225 -0.0729 -1.4782
 8893SOL    HW227896   3.462   8.695   1.368 -0.7552  0.1333 -0.0395
 8894SOL     OW27897   2.557   8.500   0.821  0.8954 -0.2131 -0.1682
 8894SOL    HW127898   2.584   8.430   0.880 -0.4933  0.2456  1.1136
 8894SOL    HW227899   2.477   8.467   0.780 -0.4109  0.9634  1.2882
 8895SOL     OW27900   3.153   8.028   0.775  0.5976  0.4689  0.2152
 8895SOL    HW127901   3.233   8.056   0.731 -0.6315  0.6831 -2.0503
 8895SOL    HW227902   3.110   7.969   0.713 -0.4520 -0.6050  1.8590
 8896SOL     OW27903   3.333   8.400   1.123  0.2296 -0.3087 -0.5930
 8896SOL    HW127904   3.413   8.373   1.077  1.2059  1.2911  0.0597
 8896SOL    HW227905   3.354   8.386   1.215 -0.3259 -0.0609 -0.4298
 8897SOL     OW27906   2.616   7.429   0.895  0.2510  0.3050 -0.2030
 8897SOL    HW127907   2.709   7.449   0.892  0.0158  1.3688 -1.2357
 8897SOL    HW227908   2.602   7.369   0.821  0.1313  0.0620  0.0138
 8898SOL     OW27909   3.381   8.621   1.871  1.2763  0.4334 -0.1348
 8898SOL    HW127910   3.318   8.557   1.839 -1.6744  2.3753  1.2929
 8898SOL    HW227911   3.395   8.681   1.798  0.6983  0.4898 -0.2070
 8899SOL     OW27912   2.707   8.697   0.220 -0.0011 -0.1856 -0.2368
 8899SOL    HW127913   2.761   8.643   0.278  1.6039  2.0042  0.4279
 8899SOL    HW227914   2.761   8.710   0.142  0.1091  1.3371  0.0761
 8900SOL     OW27915   2.123   7.619   1.391  0.1801  0.1700  0.5094
 8900SOL    HW127916   2.057   7.651   1.330  0.5111  0.8388  0.4913
 8900SOL    HW227917   2.190   7.579   1.336  0.4762  0.7680  0.4235
 8901SOL     OW27918   3.136   7.815   1.132 -0.2675  0.0378  1.0881
 8901SOL    HW127919   3.078   7.891   1.122 -1.9002 -1.1129  1.5326
 8901SOL    HW227920   3.164   7.795   1.042 -0.8776  0.3781  0.8156
 8902SOL     OW27921   2.300   0.051   0.431 -0.7461  0.3923 -0.0193
 8902SOL    HW127922   2.287   0.049   0.336 -1.3367  0.4300  0.0570
 8902SOL    HW227923   2.393   0.030   0.443 -0.9475 -0.9103 -0.5492
 8903SOL     OW27924   1.998   8.077   0.742 -0.5786  0.8239 -0.2478
 8903SOL    HW127925   2.070   8.139   0.733 -1.0273  1.2891 -0.6898
 8903SOL    HW227926   1.937   8.119   0.802 -1.0205  0.9482 -0.7728
 8904SOL     OW27927   3.370   8.435   0.669  0.0472  0.1706  0.2619
 8904SOL    HW127928   3.445   8.485   0.638  0.0453  0.3740  0.5837
 8904SOL    HW227929   3.388   8.417   0.761 -0.3568  0.3373  0.3776
 8905SOL     OW27930   3.410   8.069   0.635  0.2958  0.2391 -0.4766
 8905SOL    HW127931   3.479   8.039   0.695  0.2416 -1.4853 -1.2465
 8905SOL    HW227932   3.430   8.028   0.552 -2.0202 -0.8646 -0.5720
 8906SOL     OW27933   2.178   8.815   1.805  0.5285 -0.7336 -0.0011
 8906SOL    HW127934   2.158   8.888   1.864  0.0966  1.0024 -2.1571
 8906SOL    HW227935   2.249   8.847   1.750  1.5861 -2.6651  0.1499
 8907SOL     OW27936   3.796   8.346   1.547  0.4114  0.3443  0.4018
 8907SOL    HW127937   3.729   8.382   1.605 -0.9594  0.2418 -1.0468
 8907SOL    HW227938   3.771   8.255   1.534  0.1454  0.5841 -1.0222
 8908SOL     OW27939   2.485   8.086   1.035 -0.3670  0.0918 -0.4269
 8908SOL    HW127940   2.436   8.044   1.105 -1.1635  0.5051 -0.7213
 8908SOL    HW227941   2.429   8.077   0.958 -0.2944  1.1753 -0.6225
 8909SOL     OW27942   2.248   7.205   1.602 -0.3524 -0.2053 -0.0285
 8909SOL    HW127943   2.285   7.193   1.690  0.1644  1.9115  0.0994
 8909SOL    HW227944   2.164   7.160   1.605  0.3905 -1.6169  0.9853
 8910SOL     OW27945   2.125   7.821   0.848  0.4760  0.2630  0.1080
 8910SOL    HW127946   2.161   7.871   0.774 -0.1671 -0.7697 -0.9451
 8910SOL    HW227947   2.031   7.839   0.846  0.2789 -0.7058 -0.0935
 8911SOL     OW27948   2.748   7.764   0.732  0.0768 -0.5163 -0.4675
 8911SOL    HW127949   2.724   7.792   0.821  0.8006  0.5442 -0.5910
 8911SOL    HW227950   2.734   7.841   0.678 -1.0529 -1.3613 -1.4320
 8912SOL     OW27951   3.089   7.875   0.565  0.0643  0.6915  0.5069
 8912SOL    HW127952   3.144   7.864   0.487  0.4892  1.2317  0.7287
 8912SOL    HW227953   3.037   7.795   0.568  0.5725  0.3330  0.0827
 8913SOL     OW27954   1.936   7.292   0.552  0.8489 -0.2516  0.1004
 8913SOL    HW127955   1.959   7.200   0.567  1.1236 -0.2298 -0.1691
 8913SOL    HW227956   1.852   7.289   0.507  1.1249 -0.3930 -0.4140
 8914SOL     OW27957   1.849   8.700   1.198  0.1632  0.1564 -0.4802
 8914SOL    HW127958   1.766   8.658   1.177  0.1859  0.3706 -1.0152
 8914SOL    HW227959   1.909   8.669   1.129  0.0765  1.3780 -1.1345
 8915SOL     OW27960   2.306   8.090   0.845 -0.1717  0.4378  0.1041
 8915SOL    HW127961   2.299   8.044   0.762 -0.1764 -0.8963  0.8207
 8915SOL    HW227962   2.236   8.155   0.843 -0.0967  0.5068 -0.9655
 8916SOL     OW27963   3.771   8.433   1.866 -0.3599  0.5173  0.6585
 8916SOL    HW127964   3.751   8.341   1.849 -0.7620  0.7979 -0.5383
 8916SOL    HW227965   3.865   8.434   1.883 -0.5876 -0.2840  2.0942
 8917SOL     OW27966   2.027   7.764   0.346 -0.0429  0.0386 -0.1790
 8917SOL    HW127967   2.080   7.835   0.311 -1.1575 -0.3737 -2.9716
 8917SOL    HW227968   1.974   7.806   0.415 -1.1312  2.1658 -2.1534
 8918SOL     OW27969   3.209   7.775   0.893  0.2186  0.4817  0.2356
 8918SOL    HW127970   3.286   7.732   0.857 -0.5354  0.3628 -1.2852
 8918SOL    HW227971   3.216   7.866   0.864 -0.8199  0.2005 -0.9780
 8919SOL     OW27972   2.642   8.291   0.992  0.0365  0.4354  0.7757
 8919SOL    HW127973   2.593   8.209   0.999  0.8309 -0.0654  0.5466
 8919SOL    HW227974   2.730   8.264   0.967 -0.3139  1.5053 -1.9492
 8920SOL     OW27975   3.701   0.205   1.567 -0.0249  0.1893  0.3506
 8920SOL    HW127976   3.737   0.124   1.532 -1.2162 -0.8682  1.4392
 8920SOL    HW227977   3.701   0.192   1.662 -0.9376  1.1403  0.5060
 8921SOL     OW27978   1.914   8.410   1.994  0.2129 -0.0906 -0.3367
 8921SOL    HW127979   1.905   8.505   2.003  0.2393 -0.1268  0.1310
 8921SOL    HW227980   1.849   8.385   1.928  0.0441  0.2226 -0.2893
 8922SOL     OW27981   3.396   7.602   0.304 -0.4665  0.4060  0.3949
 8922SOL    HW127982   3.463   7.547   0.343 -0.6132  1.1165  1.6976
 8922SOL    HW227983   3.441   7.651   0.236 -0.4641 -1.7529 -1.2822
 8923SOL     OW27984   3.289   8.264   0.492  0.6954 -0.1144 -0.7705
 8923SOL    HW127985   3.308   8.333   0.556  0.1590 -0.1321 -0.5903
 8923SOL    HW227986   3.346   8.192   0.519  2.2799  0.7035 -1.7685
 8924SOL     OW27987   1.884   8.507   0.862 -0.6426 -0.4019 -0.0653
 8924SOL    HW127988   1.872   8.423   0.907  1.0591 -0.2663  0.6976
 8924SOL    HW227989   1.947   8.555   0.916 -1.4359  1.3176 -0.5854
 8925SOL     OW27990   1.871   7.919   0.538  0.0411  0.1467 -0.2430
 8925SOL    HW127991   1.819   7.977   0.482  0.6565  0.1221 -0.8500
 8925SOL    HW227992   1.908   7.976   0.605 -1.1047  0.0976  0.4659
 8926SOL     OW27993   2.675   7.910   1.301  0.1770 -0.6956 -0.3395
 8926SOL    HW127994   2.626   7.983   1.338  0.5978  0.0123 -1.1373
 8926SOL    HW227995   2.767   7.928   1.322  0.1820 -1.7034  0.6260
 8927SOL     OW27996   3.176   7.889   1.396  0.4521 -0.2922  0.1731
 8927SOL    HW127997   3.091   7.932   1.409  0.3024 -1.1835  2.5549
 8927SOL    HW227998   3.181   7.875   1.301 -1.7212  0.4510 -0.1142
 8928SOL     OW27999   2.308   8.323   1.203  0.3098  0.1058 -0.7742
 8928SOL    HW128000   2.341   8.393   1.259  0.4110  0.6436 -1.4829
 8928SOL    HW228001   2.289   8.251   1.262  0.0441  0.7955 -0.0072
 8929SOL     OW28002   1.890   7.917   1.100 -0.2613 -0.2558 -0.2424
 8929SOL    HW128003   1.936   7.977   1.159 -1.7141  3.2582 -2.3535
 8929SOL    HW228004   1.938   7.834   1.108 -0.2751 -0.0785  5.5677
 8930SOL     OW28005   1.784   7.857   1.664  0.7685 -1.0138 -0.1095
 8930SOL    HW128006   1.783   7.947   1.630  0.0915 -1.0431 -0.1785
 8930SOL    HW228007   1.852   7.858   1.731 -0.3983  0.0251  1.1177
 8931SOL     OW28008   3.496   8.475   2.245  0.3344  0.2760  0.0958
 8931SOL    HW128009   3.474   8.556   2.199 -0.9141 -0.7253 -1.1641
 8931SOL    HW228010   3.454   8.484   2.331 -0.9123  0.4509 -0.5095
 8932SOL     OW28011   2.755   7.685   0.205  0.1090  0.0115  0.1472
 8932SOL    HW128012   2.784   7.751   0.142 -0.8444 -1.3643 -1.8274
 8932SOL    HW228013   2.822   7.617   0.201 -1.0242 -1.0954 -1.1017
 8933SOL     OW28014   3.450   7.798   0.760 -0.0218 -0.1481 -0.3238
 8933SOL    HW128015   3.463   7.792   0.665 -2.2111 -1.0523 -0.6221
 8933SOL    HW228016   3.483   7.715   0.794  0.2876 -0.0395 -0.3575
 8934SOL     OW28017   2.306   7.898   0.626 -0.8222 -0.5478  0.5110
 8934SOL    HW128018   2.381   7.850   0.660 -0.6355 -0.0201  0.8495
 8934SOL    HW228019   2.301   7.872   0.534  0.4863  0.2779  0.1789
 8935SOL     OW28020   2.062   7.898   8.786  0.0046 -0.2014  0.0640
 8935SOL    HW128021   2.098   7.979   8.748 -1.7016  0.1472 -0.9332
 8935SOL    HW228022   1.994   7.928   8.846 -1.2059 -0.8667 -0.9155
 8936SOL     OW28023   2.014   8.117   1.286  0.2128 -0.7754  0.1000
 8936SOL    HW128024   2.038   8.149   1.373  1.0555 -0.5816 -0.1926
 8936SOL    HW228025   2.036   8.190   1.227  0.6918 -1.3060 -0.3904
 8937SOL     OW28026   3.085   8.287   1.164  0.6000  0.0279  0.1687
 8937SOL    HW128027   3.164   8.334   1.137  0.9651  0.0596  1.2426
 8937SOL    HW228028   3.014   8.327   1.113  1.2770 -0.0428 -0.8530
 8938SOL     OW28029   3.046   8.340   0.468 -0.3150  0.4818 -0.0628
 8938SOL    HW128030   3.058   8.402   0.396  1.4697 -0.5997 -0.7901
 8938SOL    HW228031   3.135   8.312   0.490 -1.0576 -3.2205 -1.0767
 8939SOL     OW28032   1.709   8.479   1.136  0.0049  0.3493  0.1434
 8939SOL    HW128033   1.659   8.404   1.104 -1.5471  1.5658 -0.4500
 8939SOL    HW228034   1.679   8.491   1.226  0.0816  0.3677  0.1662
 8940SOL     OW28035   2.905   7.859   0.003 -0.1120 -0.3918  0.4430
 8940SOL    HW128036   2.988   7.885   0.044  0.1554 -0.5992  0.0408
 8940SOL    HW228037   2.931   7.808  -0.073 -0.5861  0.8852 -0.6025
 8941SOL     OW28038   3.632   7.488   0.437 -0.2651  0.1759  0.1465
 8941SOL    HW128039   3.658   7.442   0.356  1.1992  0.9427  0.1604
 8941SOL    HW228040   3.692   7.455   0.504 -1.1745 -0.1098  0.8455
 8942SOL     OW28041   2.895   8.105   0.528  0.1586  0.7292  0.3218
 8942SOL    HW128042   2.967   8.043   0.520  0.4084  1.0607 -0.1136
 8942SOL    HW228043   2.928   8.185   0.487 -1.0844  0.3462 -1.6179
 8943SOL     OW28044   2.393   0.021   1.388  0.2812 -0.1990 -0.6367
 8943SOL    HW128045   2.341   0.079   1.332  0.8566  0.0653 -0.9086
 8943SOL    HW228046   2.365   0.042   1.477 -1.3318 -1.2934 -0.8413
 8944SOL     OW28047   3.882   7.460   1.256 -0.3775 -0.0262 -0.4931
 8944SOL    HW128048   3.826   7.390   1.223  0.4403  0.0261 -2.1039
 8944SOL    HW228049   3.959   7.415   1.291  0.0378  0.0459 -1.3027
 8945SOL     OW28050   1.852   8.223   0.982 -0.4299  0.2148  0.0099
 8945SOL    HW128051   1.759   8.200   0.985 -0.3226 -0.2604 -0.2762
 8945SOL    HW228052   1.874   8.244   1.073 -0.0859 -2.5623  0.6333
 8946SOL     OW28053   2.397   8.577   1.302  0.4599  0.2398  0.1530
 8946SOL    HW128054   2.423   8.590   1.211  2.0104  1.5974  0.7321
 8946SOL    HW228055   2.372   8.665   1.332  1.0950  0.0295  1.3465
 8947SOL     OW28056   3.285   0.014   0.375 -0.2129  0.4572 -0.1087
 8947SOL    HW128057   3.371   0.024   0.417  0.1118  0.9771 -0.8902
 8947SOL    HW228058   3.291  -0.069   0.327 -0.2629  0.3373  0.0886
 8948SOL     OW28059   2.027   8.691   0.981 -0.4034  0.1838 -0.1557
 8948SOL    HW128060   2.087   8.657   1.047 -0.7509 -0.7623 -0.3114
 8948SOL    HW228061   2.069   8.770   0.948  0.3291  0.0152  0.3588
 8949SOL     OW28062   3.473   0.158   1.367  0.0287 -0.8628 -0.2262
 8949SOL    HW128063   3.492   0.065   1.380 -1.2583 -0.9973  0.8207
 8949SOL    HW228064   3.490   0.198   1.452 -0.5774 -0.3442 -0.3423
 8950SOL     OW28065   3.091   8.660   0.502 -0.1969 -0.0085  0.5856
 8950SOL    HW128066   3.107   8.737   0.448 -0.2046 -0.5309 -0.1701
 8950SOL    HW228067   3.134   8.680   0.585 -0.1889  0.8001  0.3920
 8951SOL     OW28068   2.306   7.345   0.919  0.4573 -0.4187 -0.5284
 8951SOL    HW128069   2.308   7.392   0.835 -2.3216 -0.9114 -0.9876
 8951SOL    HW228070   2.278   7.256   0.895  1.1776 -1.0218  0.7899
 8952SOL     OW28071   3.470   7.700   1.032 -0.1386  0.0236  0.3526
 8952SOL    HW128072   3.467   7.722   1.125  0.9843 -2.1397  0.9806
 8952SOL    HW228073   3.409   7.627   1.022  0.0422 -0.0259 -0.5223
 8953SOL     OW28074   1.785   8.246   1.789  0.2857  0.0110  0.5460
 8953SOL    HW128075   1.769   8.185   1.717  0.8794 -0.2497  0.6299
 8953SOL    HW228076   1.759   8.331   1.754 -1.0906 -0.3503  0.6163
 8954SOL     OW28077   1.771   7.501   8.786 -0.5640  0.2692  0.4306
 8954SOL    HW128078   1.732   7.578   8.745  1.0355  0.7313 -0.3064
 8954SOL    HW228079   1.807   7.534   8.869 -1.0353  0.0197  0.7375
 8955SOL     OW28080   3.394   8.360   1.394 -0.4123 -0.1666 -0.4423
 8955SOL    HW128081   3.465   8.378   1.455  1.4615  0.0032 -2.5388
 8955SOL    HW228082   3.389   8.264   1.391 -0.1248 -0.1826 -0.4389
 8956SOL     OW28083   1.808   7.601   0.239 -0.1710  0.0425  0.8976
 8956SOL    HW128084   1.799   7.510   0.270  1.0520 -0.4354 -0.0307
 8956SOL    HW228085   1.893   7.629   0.274 -0.1408  0.5128  0.4561
 8957SOL     OW28086   2.517   8.566   1.575  0.6015 -0.3623  1.2648
 8957SOL    HW128087   2.494   8.627   1.504 -0.2625 -0.1215  1.7328
 8957SOL    HW228088   2.612   8.568   1.579  0.6273  0.1985  0.6091
 8958SOL     OW28089   2.566   8.123   1.457 -0.1260  0.1783  0.1850
 8958SOL    HW128090   2.472   8.119   1.440 -0.0842 -1.3485  0.2343
 8958SOL    HW228091   2.596   8.198   1.405 -1.4424  1.0735  0.6411
 8959SOL     OW28092   3.788   8.805   1.455  0.1647 -0.3715  0.2052
 8959SOL    HW128093   3.845   8.732   1.477 -0.4377 -1.3131 -1.1872
 8959SOL    HW228094   3.702   8.764   1.439 -0.0563  0.5421 -1.1472
 8960SOL     OW28095   3.011   8.054   1.061  0.1323 -0.2064 -0.2272
 8960SOL    HW128096   3.039   8.065   0.970  1.9261  0.2336  0.3251
 8960SOL    HW228097   3.038   8.136   1.104 -0.5581 -0.4664  0.7328
 8961SOL     OW28098   2.590   7.435   0.529 -0.2880  0.0260  0.2677
 8961SOL    HW128099   2.554   7.390   0.452  0.1916 -2.6287  1.4855
 8961SOL    HW228100   2.587   7.528   0.506  0.4856 -0.6567 -3.2509
 8962SOL     OW28101   2.697   0.179   0.154 -0.3734  0.3335  0.4272
 8962SOL    HW128102   2.721   0.087   0.165  0.8611  0.8041  2.0366
 8962SOL    HW228103   2.737   0.204   0.070 -3.2305 -1.2840 -1.5873
 8963SOL     OW28104   3.509   7.827   1.294 -0.3182  0.5527  0.0585
 8963SOL    HW128105   3.433   7.885   1.292 -0.4607  0.3722  0.1775
 8963SOL    HW228106   3.510   7.792   1.383 -0.9171 -0.5256 -0.3386
 8964SOL     OW28107   3.535   8.074   1.151 -0.3369 -0.2885 -0.7088
 8964SOL    HW128108   3.542   8.076   1.056 -1.9679  0.5086 -0.8542
 8964SOL    HW228109   3.553   7.983   1.175 -1.5395 -0.8906 -1.9650
 8965SOL     OW28110   2.948   8.216   0.794 -0.1051 -0.6478  0.5153
 8965SOL    HW128111   2.906   8.183   0.715  0.6657  1.0286 -0.6329
 8965SOL    HW228112   3.025   8.160   0.806  2.2751  1.6888 -2.4923
 8966SOL     OW28113   3.151   8.660   0.171 -0.0903  0.8594 -0.1798
 8966SOL    HW128114   3.239   8.636   0.144 -0.3004 -0.3369  0.1552
 8966SOL    HW228115   3.113   8.580   0.206 -1.2784  1.3786 -0.2092
 8967SOL     OW28116   2.127   8.583   1.217  0.1811 -0.3407 -0.0105
 8967SOL    HW128117   2.221   8.577   1.231  0.2987 -1.1267 -0.9783
 8967SOL    HW228118   2.097   8.648   1.280  1.4331  0.2339  0.0270
 8968SOL     OW28119   1.695   0.209   0.554  0.0157 -0.9940  0.4554
 8968SOL    HW128120   1.778   0.190   0.509  0.3750  0.3194  0.5213
 8968SOL    HW228121   1.628   0.187   0.489  0.4942 -0.0826 -0.3843
 8969SOL     OW28122   2.706   0.074   1.477  0.1613 -0.0250 -0.2232
 8969SOL    HW128123   2.741   0.160   1.500  0.6326 -0.4767  0.8618
 8969SOL    HW228124   2.692   0.031   1.562 -0.1018 -1.0013 -0.7467
 8970SOL     OW28125   3.510   7.415   1.270  0.4767  0.0670  0.0830
 8970SOL    HW128126   3.580   7.352   1.253 -1.1407 -1.5306 -1.0641
 8970SOL    HW228127   3.542   7.467   1.344  2.5107 -1.1171  0.1116
 8971SOL     OW28128   1.605   7.805   0.243  0.4469 -0.4075 -0.0729
 8971SOL    HW128129   1.655   7.728   0.217  0.0974 -0.5744 -0.2586
 8971SOL    HW228130   1.665   7.878   0.232 -0.4925 -0.0167 -4.3644
 8972SOL     OW28131   3.739   8.598   1.210  0.3763 -0.7337  0.9234
 8972SOL    HW128132   3.804   8.532   1.185  0.6232  0.0518 -0.5991
 8972SOL    HW228133   3.742   8.663   1.140 -1.5167 -0.2776  1.2107
 8973SOL     OW28134   2.013   7.599   1.075 -0.3755 -1.0805  0.3480
 8973SOL    HW128135   1.954   7.587   1.000 -1.2707 -1.3438  1.0880
 8973SOL    HW228136   2.101   7.595   1.036 -0.8257  0.3867 -0.9350
 8974SOL     OW28137   3.075   7.562   1.209  0.2483  0.0981 -0.2820
 8974SOL    HW128138   3.153   7.514   1.181  0.0082 -0.8566  0.6159
 8974SOL    HW228139   3.086   7.649   1.172  2.1880  0.2480  0.5217
 8975SOL     OW28140   2.808   7.025   1.172 -0.8417 -0.0068 -0.2689
 8975SOL    HW128141   2.734   7.075   1.138  0.0532  1.4509 -0.1726
 8975SOL    HW228142   2.885   7.071   1.138  0.0483 -0.1476  1.4336
 8976SOL     OW28143   2.616   0.322   0.377 -0.6121  0.4935  0.0160
 8976SOL    HW128144   2.586   0.254   0.438  1.7065  0.4309  1.1905
 8976SOL    HW228145   2.622   0.277   0.293 -0.8781 -0.2742  0.3892
 8977SOL     OW28146   3.045   7.170   0.050  0.5284  0.3056  0.2207
 8977SOL    HW128147   3.082   7.104  -0.009 -0.2636 -0.1157  0.1857
 8977SOL    HW228148   3.120   7.222   0.078  1.2704 -1.0262  0.7825
 8978SOL     OW28149   2.756   7.231   0.634 -0.4101  0.2042  0.3492
 8978SOL    HW128150   2.690   7.287   0.592  0.3551  0.7081 -0.2126
 8978SOL    HW228151   2.825   7.291   0.659  0.2252 -0.4349  0.1536
 8979SOL     OW28152   3.467   7.509   0.680 -0.2761  0.1609  0.2894
 8979SOL    HW128153   3.509   7.481   0.599 -1.3580 -0.8469  0.0508
 8979SOL    HW228154   3.477   7.435   0.740 -0.0449  0.6492  0.8694
 8980SOL     OW28155   1.768   8.757   0.013  1.0105  0.5994 -0.0113
 8980SOL    HW128156   1.749   8.828   0.073  1.0728  2.4085 -2.0144
 8980SOL    HW228157   1.729   8.785  -0.070  2.3339 -1.0243 -1.2436
 8981SOL     OW28158   2.134   8.353   2.133 -0.1657 -0.1492 -0.1394
 8981SOL    HW128159   2.043   8.344   2.102 -0.9626  1.0533  1.6610
 8981SOL    HW228160   2.161   8.439   2.102 -0.3640  0.3335  0.9987
 8982SOL     OW28161   1.642   8.011   2.926 -0.5743  0.7814 -0.2524
 8982SOL    HW128162   1.670   7.926   2.959  1.3075  1.9818  1.4508
 8982SOL    HW228163   1.688   8.020   2.843 -1.6819 -0.3074 -1.0161
 8983SOL     OW28164   1.918   7.898   2.226 -0.1070  0.5045 -0.4876
 8983SOL    HW128165   1.841   7.888   2.283 -2.3557  0.3601 -3.3349
 8983SOL    HW228166   1.926   7.992   2.213 -1.0818  0.4475 -1.7073
 8984SOL     OW28167   2.685   8.603   3.093  0.5071 -0.7016  0.8326
 8984SOL    HW128168   2.603   8.611   3.142 -0.7158 -1.4942 -0.9536
 8984SOL    HW228169   2.663   8.546   3.020  1.9045  1.3281 -1.3119
 8985SOL     OW28170   3.128   0.147   2.447 -0.4666  0.1928 -0.1785
 8985SOL    HW128171   3.213   0.179   2.416  1.2613 -1.9982  1.8057
 8985SOL    HW228172   3.130   0.053   2.428 -2.4650  0.0804 -0.0375
 8986SOL     OW28173   2.882   8.287   1.970  0.5975  0.3627 -0.1267
 8986SOL    HW128174   2.805   8.301   2.024  0.1043 -2.2391 -0.0048
 8986SOL    HW228175   2.955   8.319   2.023 -0.2486  1.8305  0.2200
 8987SOL     OW28176   3.793   8.126   2.275  0.0221  0.5690 -0.3257
 8987SOL    HW128177   3.864   8.062   2.276  0.4391  1.0156 -0.6794
 8987SOL    HW228178   3.824   8.195   2.216 -0.3906  1.1273  0.1041
 8988SOL     OW28179   2.383   8.529   2.815  0.1054 -0.0581  0.8227
 8988SOL    HW128180   2.409   8.621   2.821 -1.3459  0.4429 -0.0071
 8988SOL    HW228181   2.364   8.516   2.722 -1.7490 -0.5812  1.2358
 8989SOL     OW28182   2.796   8.013   3.495 -0.1097  0.4462 -0.2090
 8989SOL    HW128183   2.784   8.077   3.425 -2.7073 -0.8291 -1.0481
 8989SOL    HW228184   2.711   7.971   3.505  1.0582 -1.7670  1.4270
 8990SOL     OW28185   2.543   8.440   2.402  0.5663 -0.0714  0.7388
 8990SOL    HW128186   2.545   8.500   2.327 -2.0325 -1.9319 -0.9921
 8990SOL    HW228187   2.469   8.471   2.455 -0.3208 -1.2238  0.2218
 8991SOL     OW28188   2.448   8.247   3.446  0.1169  0.0045 -1.1743
 8991SOL    HW128189   2.381   8.196   3.491  0.5622  0.0242 -0.4827
 8991SOL    HW228190   2.415   8.337   3.448 -0.4885 -0.1843 -2.0625
 8992SOL     OW28191   2.163   0.013   2.789  0.0647  0.3219  0.2259
 8992SOL    HW128192   2.121  -0.068   2.760 -0.4761 -0.6709  3.3399
 8992SOL    HW228193   2.251   0.009   2.752 -0.0278 -1.6044  0.1158
 8993SOL     OW28194   2.284   7.641   3.240  0.4279 -0.3217  0.3819
 8993SOL    HW128195   2.333   7.560   3.223 -0.6058 -0.7513 -0.7723
 8993SOL    HW228196   2.233   7.655   3.160  0.0775  1.1175  0.8257
 8994SOL     OW28197   3.174   7.828   2.295  0.7933 -0.0806 -0.0768
 8994SOL    HW128198   3.228   7.904   2.315  2.7031 -1.4186  0.1841
 8994SOL    HW228199   3.237   7.758   2.277 -0.8230 -1.9557  1.0676
 8995SOL     OW28200   3.024   0.149   3.622 -0.4621  0.1862  0.3791
 8995SOL    HW128201   3.064   0.197   3.550 -1.0494 -0.4329 -0.3787
 8995SOL    HW228202   2.967   0.085   3.580 -1.5414  0.4242  1.4132
 8996SOL     OW28203   2.394   8.320   3.023 -0.3515  0.4543  0.8331
 8996SOL    HW128204   2.489   8.306   3.019 -0.4518 -0.1541 -1.9373
 8996SOL    HW228205   2.378   8.388   2.957 -1.8640  0.3832  1.1099
 8997SOL     OW28206   2.184   8.590   1.972  0.4117  0.0430 -0.1443
 8997SOL    HW128207   2.183   8.666   1.914  0.8271 -1.2001 -1.8493
 8997SOL    HW228208   2.262   8.603   2.027 -0.5109  1.7033  0.8707
 8998SOL     OW28209   3.270   7.720   3.432 -0.0229  0.4532 -0.2701
 8998SOL    HW128210   3.290   7.799   3.483  0.8802  0.5438 -0.7462
 8998SOL    HW228211   3.325   7.728   3.353  1.6673 -1.6502  0.6087
 8999SOL     OW28212   2.198   8.259   2.650 -0.2269 -0.3179  0.0548
 8999SOL    HW128213   2.267   8.216   2.600 -0.4099  0.7545 -1.1968
 8999SOL    HW228214   2.117   8.220   2.616 -0.2898 -0.9408  0.8892
 9000SOL     OW28215   3.330   8.091   3.028 -0.2181 -0.3078  0.2541
 9000SOL    HW128216   3.316   8.026   2.959  0.9747  0.2712 -0.5723
 9000SOL    HW228217   3.262   8.157   3.013  0.0190 -0.1987 -0.3588
 9001SOL     OW28218   3.556   8.196   2.949 -0.3882 -0.0673 -0.3199
 9001SOL    HW128219   3.611   8.140   2.894 -2.2881 -0.4054 -1.9661
 9001SOL    HW228220   3.489   8.137   2.983 -0.7571  0.6730  0.2604
 9002SOL     OW28221   1.996   8.198   3.543 -0.7743 -0.4069  0.0469
 9002SOL    HW128222   1.924   8.142   3.512 -3.7456  1.7617  2.4457
 9002SOL    HW228223   2.007   8.263   3.474 -0.9575 -0.8935 -0.4489
 9003SOL     OW28224   2.602   8.827   2.473 -0.7114 -0.0822  0.0797
 9003SOL    HW128225   2.567   8.817   2.384 -1.4607  0.0681  0.3558
 9003SOL    HW228226   2.640   8.915   2.474  0.0309 -0.3874 -0.3348
 9004SOL     OW28227   3.064   8.650   3.456  0.1838  0.4661  0.3150
 9004SOL    HW128228   3.056   8.556   3.441  1.2759  0.5426 -0.9177
 9004SOL    HW228229   3.037   8.662   3.547  0.0691 -1.0442  0.5082
 9005SOL     OW28230   2.633   7.428   1.873 -0.1419 -0.1878  0.0161
 9005SOL    HW128231   2.670   7.510   1.839 -1.1795 -0.3622 -1.6081
 9005SOL    HW228232   2.540   7.432   1.851 -0.8525 -0.4692  2.6242
 9006SOL     OW28233   2.117   8.490   2.802  0.1273 -0.1621 -0.4937
 9006SOL    HW128234   2.124   8.400   2.770  0.7327  0.4464 -2.1475
 9006SOL    HW228235   2.208   8.517   2.816 -0.0861 -0.2554  1.4466
 9007SOL     OW28236   3.595   7.951   2.342  0.0394 -0.4595  0.2015
 9007SOL    HW128237   3.650   7.880   2.376  1.0270 -0.9353 -2.1738
 9007SOL    HW228238   3.658   8.018   2.313 -0.7544  0.1632 -0.1200
 9008SOL     OW28239   2.354   7.695   3.500  0.4645  0.3481 -0.0098
 9008SOL    HW128240   2.286   7.760   3.520  0.1487 -0.0090  0.0827
 9008SOL    HW228241   2.338   7.672   3.408  0.9304  0.8188 -0.2121
 9009SOL     OW28242   3.187   8.602   3.036  0.0810  0.0877 -0.1842
 9009SOL    HW128243   3.155   8.634   2.952  0.1669 -0.4830 -0.4347
 9009SOL    HW228244   3.115   8.620   3.097  0.1478  0.8024 -0.3053
 9010SOL     OW28245   2.318   8.503   2.551  0.3465 -0.5010 -0.4125
 9010SOL    HW128246   2.284   8.585   2.514 -0.4144 -0.4076  0.4615
 9010SOL    HW228247   2.260   8.435   2.517 -0.2981 -0.4252  0.5033
 9011SOL     OW28248   2.784   7.918   2.742  0.1870 -0.3066  0.7157
 9011SOL    HW128249   2.788   7.845   2.803  1.8689 -2.2698 -1.5612
 9011SOL    HW228250   2.738   7.884   2.665  0.0691  1.3664 -0.0170
 9012SOL     OW28251   2.542   7.783   3.272 -0.7471  0.4126  0.2285
 9012SOL    HW128252   2.550   7.730   3.352 -1.1455  2.1607  1.5009
 9012SOL    HW228253   2.451   7.770   3.244 -0.3517 -0.9206 -0.4981
 9013SOL     OW28254   3.421   7.599   3.613 -0.3384  0.5269 -0.0804
 9013SOL    HW128255   3.355   7.546   3.658  0.0921 -1.0532 -1.1996
 9013SOL    HW228256   3.371   7.655   3.554 -0.7357 -0.3245 -0.5790
 9014SOL     OW28257   3.069   8.160   3.334  0.2415 -0.2066 -0.2306
 9014SOL    HW128258   3.095   8.167   3.242 -1.8987 -0.9669 -0.9631
 9014SOL    HW228259   3.068   8.066   3.351  0.8203 -0.0563  0.6426
 9015SOL     OW28260   2.781   7.680   2.908 -0.9780  0.1292 -0.5190
 9015SOL    HW128261   2.853   7.618   2.898 -0.4488  0.9464 -2.0769
 9015SOL    HW228262   2.703   7.629   2.890 -0.5091 -0.0210 -2.2907
 9016SOL     OW28263   2.938   8.609   1.671 -0.0782  0.2335 -0.1193
 9016SOL    HW128264   2.892   8.526   1.684  0.2130  0.0913  0.0182
 9016SOL    HW228265   2.930   8.628   1.578 -2.3379  1.3333  0.2229
 9017SOL     OW28266   1.396   8.728   2.461 -0.1064  0.5652 -0.2140
 9017SOL    HW128267   1.359   8.792   2.400 -2.9208 -1.4393 -0.7978
 9017SOL    HW228268   1.342   8.650   2.449  2.6859 -1.7172  0.9976
 9018SOL     OW28269   2.604   8.071   1.712  0.1068  0.6207 -0.0191
 9018SOL    HW128270   2.584   8.114   1.629 -0.7124  0.1288 -0.0924
 9018SOL    HW228271   2.555   7.989   1.708  0.9811  0.0681  0.4702
 9019SOL     OW28272   3.671   7.670   3.421  0.2261 -0.0218  0.3200
 9019SOL    HW128273   3.638   7.732   3.356 -1.4862 -0.0002  1.1629
 9019SOL    HW228274   3.596   7.616   3.444  0.7106  0.0748  2.3704
 9020SOL     OW28275   3.008   8.257   2.247  0.3383  0.1692  0.3833
 9020SOL    HW128276   2.916   8.284   2.256  0.2702 -0.1359  0.6027
 9020SOL    HW228277   3.019   8.188   2.311  1.0058  0.8915  1.0579
 9021SOL     OW28278   2.506   7.699   2.149 -0.0781 -0.3377 -0.5723
 9021SOL    HW128279   2.593   7.676   2.117 -0.3217 -1.1699 -0.6516
 9021SOL    HW228280   2.507   7.673   2.241  0.3827  1.4065 -0.0433
 9022SOL     OW28281   3.739   8.480   3.216  0.2697 -0.6058  0.3326
 9022SOL    HW128282   3.732   8.439   3.302  1.1721 -0.9241  0.2653
 9022SOL    HW228283   3.784   8.563   3.233  1.0571 -0.9759  0.0873
 9023SOL     OW28284   2.076   8.588   2.307 -0.1430 -0.5711  0.3029
 9023SOL    HW128285   1.994   8.588   2.356 -1.3837 -1.3037 -1.6909
 9023SOL    HW228286   2.075   8.506   2.258  1.3176 -0.1353 -0.5283
 9024SOL     OW28287   3.510   8.234   2.653 -0.2109  0.2146  0.4275
 9024SOL    HW128288   3.425   8.194   2.634 -0.1049 -0.0664  0.5266
 9024SOL    HW228289   3.503   8.262   2.744 -0.8557  1.9153 -0.1142
 9025SOL     OW28290   2.473   8.623   3.245 -0.1690 -0.2391 -0.0107
 9025SOL    HW128291   2.396   8.656   3.199  0.6137  0.6607 -0.7092
 9025SOL    HW228292   2.440   8.595   3.330 -0.9733  2.0122  0.4909
 9026SOL     OW28293   2.016   7.685   2.988  0.2043  0.0426  0.6013
 9026SOL    HW128294   2.026   7.611   2.927  1.1598  0.4922  0.1915
 9026SOL    HW228295   2.008   7.644   3.074 -0.8597 -0.5913  0.2201
 9027SOL     OW28296   3.665   0.110   1.847 -0.0028 -0.3021  0.6363
 9027SOL    HW128297   3.704   0.133   1.931  1.7329  0.1905 -0.2325
 9027SOL    HW228298   3.683   0.017   1.836  1.9349  0.0993 -0.1669
 9028SOL     OW28299   3.100   7.642   2.456  0.2578 -0.3183 -0.1300
 9028SOL    HW128300   3.112   7.710   2.391  0.1028 -1.1405 -1.0394
 9028SOL    HW228301   3.005   7.630   2.463  0.2793 -0.3653  0.1067
 9029SOL     OW28302   2.218   8.192   2.335 -0.3484 -0.2368  0.1049
 9029SOL    HW128303   2.260   8.116   2.295 -1.1326 -0.7314  0.2023
 9029SOL    HW228304   2.198   8.250   2.262  0.6658  0.0890  0.0781
 9030SOL     OW28305   3.265   7.491   3.911 -0.2991 -0.1418  0.3929
 9030SOL    HW128306   3.237   7.402   3.935 -0.2110 -0.6481 -1.2520
 9030SOL    HW228307   3.349   7.502   3.954  0.5283 -1.5641 -0.7413
 9031SOL     OW28308   2.300   7.878   1.139  0.2768  0.1669 -0.7095
 9031SOL    HW128309   2.345   7.796   1.120 -0.2981 -0.1462 -0.7657
 9031SOL    HW228310   2.216   7.870   1.093 -0.8301 -0.2687  1.2661
 9032SOL     OW28311   2.598   7.835   3.593  0.2407 -0.1862  0.4512
 9032SOL    HW128312   2.642   7.752   3.574  1.2935  0.9042 -2.3778
 9032SOL    HW228313   2.506   7.816   3.578  0.5429 -0.6881 -0.9404
 9033SOL     OW28314   3.585   7.881   3.241  0.7105 -0.2910  0.1503
 9033SOL    HW128315   3.581   7.886   3.145 -0.1873  2.6073  0.2563
 9033SOL    HW228316   3.505   7.925   3.270  1.9318  0.6689  2.2334
 9034SOL     OW28317   2.833   7.660   2.456 -0.0717 -0.6064 -0.3889
 9034SOL    HW128318   2.754   7.714   2.456 -0.2627 -0.8720  0.2371
 9034SOL    HW228319   2.816   7.594   2.523  0.7684 -0.5451 -0.1085
 9035SOL     OW28320   2.261   7.657   2.024 -0.3320  0.3307  0.0655
 9035SOL    HW128321   2.340   7.668   2.077 -0.0165  0.4731 -0.4270
 9035SOL    HW228322   2.198   7.616   2.083  0.5719 -1.1515  0.0437
 9036SOL     OW28323   3.267   8.416   1.755  0.4810  0.4335  0.1353
 9036SOL    HW128324   3.233   8.340   1.801  0.6707 -0.3611 -0.9912
 9036SOL    HW228325   3.207   8.429   1.682  2.0863 -0.5672 -1.4744
 9037SOL     OW28326   1.905   7.604   1.837  0.0533 -0.3061  0.3873
 9037SOL    HW128327   1.967   7.669   1.804 -0.2309 -0.7736 -1.1816
 9037SOL    HW228328   1.949   7.520   1.823 -0.9694 -0.6608 -0.9549
 9038SOL     OW28329   2.810   7.872   1.761  0.3819 -0.0105  0.3107
 9038SOL    HW128330   2.745   7.943   1.766  1.2580  0.7577  1.3083
 9038SOL    HW228331   2.893   7.915   1.781  1.1109 -1.1077 -0.2713
 9039SOL     OW28332   2.837   7.525   3.308 -0.3842 -0.3612  0.3274
 9039SOL    HW128333   2.861   7.616   3.321  1.2011 -0.9606  2.2074
 9039SOL    HW228334   2.913   7.487   3.263  0.0822 -1.2395  1.7917
 9040SOL     OW28335   3.123   8.735   2.374  0.2974 -0.2725  0.0093
 9040SOL    HW128336   3.038   8.727   2.331  1.1040 -0.7581 -1.5811
 9040SOL    HW228337   3.144   8.645   2.401  0.9537 -0.4395 -0.9779
 9041SOL     OW28338   2.221   8.805   2.212 -0.7282  0.4724 -0.0823
 9041SOL    HW128339   2.178   8.728   2.249  1.6860 -2.0778 -2.0895
 9041SOL    HW228340   2.230   8.865   2.286 -3.0958 -0.9496  1.4984
 9042SOL     OW28341   2.268   8.042   1.876 -0.2772  0.0131 -0.1648
 9042SOL    HW128342   2.280   8.136   1.887  0.4791 -0.0255 -0.5789
 9042SOL    HW228343   2.175   8.032   1.854 -0.1985  0.7495 -0.9031
 9043SOL     OW28344   1.704   8.112   3.190 -0.0371 -0.4910 -0.2000
 9043SOL    HW128345   1.651   8.100   3.111  0.5998 -0.8385 -0.5837
 9043SOL    HW228346   1.700   8.206   3.207 -1.7099 -0.6451  0.4487
 9044SOL     OW28347   2.396   7.588   2.689 -0.1742  0.6278 -0.1905
 9044SOL    HW128348   2.386   7.683   2.695  4.5677  1.2499  1.6621
 9044SOL    HW228349   2.425   7.561   2.776  1.3354 -2.0211 -1.3977
 9045SOL     OW28350   2.593   8.103   2.020  0.1070  0.0649  0.4110
 9045SOL    HW128351   2.679   8.070   2.045  0.7636  2.2204  1.1635
 9045SOL    HW228352   2.601   8.123   1.927 -0.2337 -1.5698 -0.0038
 9046SOL     OW28353   2.779   7.708   1.982  0.2951  0.4885  0.0917
 9046SOL    HW128354   2.858   7.665   2.014  1.3277  0.7962 -1.8661
 9046SOL    HW228355   2.808   7.757   1.905 -1.7482  0.8859 -0.4889
 9047SOL     OW28356   3.058   8.748   2.830  0.1880 -0.4639 -0.3098
 9047SOL    HW128357   3.013   8.677   2.784 -2.1863  1.2793 -0.8389
 9047SOL    HW228358   3.117   8.785   2.763  0.6478 -1.2203 -0.3395
 9048SOL     OW28359   3.260   8.130   2.578  0.3865 -0.6637 -0.0830
 9048SOL    HW128360   3.228   8.213   2.612  1.4519  0.3892 -1.5452
 9048SOL    HW228361   3.194   8.066   2.604 -1.4611  0.9629 -0.6196
 9049SOL     OW28362   3.742   8.196   2.545 -0.1828  0.2162  0.1578
 9049SOL    HW128363   3.651   8.210   2.574 -0.0495 -0.6205  1.0498
 9049SOL    HW228364   3.735   8.180   2.451 -0.9499  0.2926  0.1908
 9050SOL     OW28365   3.463   0.105   2.083 -0.1151 -0.1103  0.0506
 9050SOL    HW128366   3.418   0.177   2.038 -0.3899  0.3885  1.0955
 9050SOL    HW228367   3.523   0.149   2.144  0.5301 -0.7728 -0.0953
 9051SOL     OW28368   3.287   8.078   1.787 -0.1156 -0.2636  0.4381
 9051SOL    HW128369   3.380   8.090   1.809 -0.2177 -1.7428  1.8170
 9051SOL    HW228370   3.242   8.081   1.871 -1.0289 -1.9383  0.0375
 9052SOL     OW28371   2.435   7.851   1.744 -0.1166 -0.1032 -0.5716
 9052SOL    HW128372   2.382   7.892   1.812  0.9880  0.2107  0.1349
 9052SOL    HW228373   2.478   7.777   1.787  0.4434 -0.0185 -0.9651
 9053SOL     OW28374   3.515   0.017   3.508  0.0277  0.5306 -0.0603
 9053SOL    HW128375   3.493   0.033   3.416 -0.3199  0.7485  0.0589
 9053SOL    HW228376   3.597   0.064   3.522  0.6383 -0.3683 -0.5377
 9054SOL     OW28377   3.079   8.849   3.292  0.2024  0.1579  0.0395
 9054SOL    HW128378   3.081   8.786   3.365 -1.1618  1.5631  1.3623
 9054SOL    HW228379   3.025   8.806   3.226 -0.1553 -0.3580  0.6460
 9055SOL     OW28380   2.929   8.520   2.748 -0.8173 -0.3450 -0.1693
 9055SOL    HW128381   2.848   8.481   2.780  0.3344 -3.2615 -0.4808
 9055SOL    HW228382   2.906   8.560   2.665 -1.7893 -1.9701 -0.7130
 9056SOL     OW28383   3.408   8.283   3.248  0.1066 -0.0304  0.3582
 9056SOL    HW128384   3.329   8.249   3.207 -0.2800  0.2539  0.8439
 9056SOL    HW228385   3.478   8.267   3.185 -0.4247  0.1763 -0.2963
 9057SOL     OW28386   2.534   7.464   3.200  0.1291 -0.0222  0.2940
 9057SOL    HW128387   2.630   7.454   3.199  0.0855 -0.5089 -1.2102
 9057SOL    HW228388   2.503   7.385   3.243  0.3769 -0.1168  0.3047
 9058SOL     OW28389   2.841   8.789   3.563  0.8466  0.3006 -0.5194
 9058SOL    HW128390   2.848   8.694   3.568 -0.2289  0.1381 -1.6510
 9058SOL    HW228391   2.803   8.815   3.647 -0.2359 -0.4402 -0.7598
 9059SOL     OW28392   3.092   8.623   2.044  0.5055  0.3771 -0.5827
 9059SOL    HW128393   3.154   8.674   1.992 -0.1215 -0.0899 -1.8189
 9059SOL    HW228394   3.122   8.532   2.035  0.6908  0.3371  0.3103
 9060SOL     OW28395   1.620   8.383   3.133 -0.0435  0.0289 -0.3338
 9060SOL    HW128396   1.565   8.462   3.130 -0.0114  0.1121  0.9527
 9060SOL    HW228397   1.693   8.403   3.073 -0.5402  0.5755 -0.7741
 9061SOL     OW28398   3.438   7.340   3.002  0.1267 -0.1849  0.3159
 9061SOL    HW128399   3.512   7.283   2.980  0.4104 -0.4702  1.9276
 9061SOL    HW228400   3.425   7.328   3.096 -1.4439  0.5019  0.2170
 9062SOL     OW28401   1.751   8.276   2.467  0.2711  0.3533  0.4481
 9062SOL    HW128402   1.754   8.233   2.552 -0.2482  1.0004  0.7989
 9062SOL    HW228403   1.659   8.299   2.454 -0.0442 -1.5071 -1.1993
 9063SOL     OW28404   2.637   7.852   2.523  0.9290 -0.4135 -0.6899
 9063SOL    HW128405   2.576   7.825   2.454 -0.7723  1.1141  0.1543
 9063SOL    HW228406   2.596   7.928   2.564  2.6261 -0.3445  1.0286
 9064SOL     OW28407   3.170   0.051   2.138 -0.1647 -0.3760  0.3953
 9064SOL    HW128408   3.164  -0.011   2.211 -0.9415  0.8656  1.4370
 9064SOL    HW228409   3.263   0.073   2.132 -0.1346 -0.2294  1.2638
 9065SOL     OW28410   3.350   8.063   2.345 -0.3523  0.0319  0.3676
 9065SOL    HW128411   3.437   8.025   2.353 -0.7421 -0.7517  0.9727
 9065SOL    HW228412   3.332   8.102   2.430  0.1578  1.8948 -0.3200
 9066SOL     OW28413   2.110   7.920   3.307 -0.4079 -0.3045 -0.4805
 9066SOL    HW128414   2.134   7.964   3.225 -1.0784  0.6949 -0.1678
 9066SOL    HW228415   2.019   7.892   3.293 -0.1496 -1.1436 -0.4871
 9067SOL     OW28416   3.566   8.009   3.657  0.2186 -0.0507  0.1225
 9067SOL    HW128417   3.603   8.060   3.585  1.6909 -0.6838  0.3892
 9067SOL    HW228418   3.481   7.980   3.625 -0.0884  1.4446 -0.5288
 9068SOL     OW28419   2.766   7.435   3.849 -0.3092 -0.3081 -0.0972
 9068SOL    HW128420   2.738   7.358   3.899  1.2813  0.8211  2.7554
 9068SOL    HW228421   2.855   7.414   3.819 -0.1215  0.1611  0.1219
 9069SOL     OW28422   2.321   7.431   3.595 -0.2829  0.2224 -1.0574
 9069SOL    HW128423   2.230   7.423   3.624  0.3888  1.4358  1.7355
 9069SOL    HW228424   2.324   7.517   3.552 -0.5387  0.0008 -1.5214
 9070SOL     OW28425   2.632   8.245   3.246  0.4708 -0.5624  0.1145
 9070SOL    HW128426   2.697   8.309   3.278 -0.1265  0.6874 -1.0306
 9070SOL    HW228427   2.574   8.230   3.321  1.2793 -0.6338  0.7424
 9071SOL     OW28428   2.887   8.266   3.059 -0.2586 -0.2910  0.0324
 9071SOL    HW128429   2.949   8.204   3.020  0.1692  0.2485 -0.1525
 9071SOL    HW228430   2.806   8.254   3.009  0.4488  0.7897 -1.4052
 9072SOL     OW28431   2.943   8.137   1.751 -0.1179 -0.2598 -0.0570
 9072SOL    HW128432   3.023   8.088   1.770 -0.6550 -0.7545  1.0156
 9072SOL    HW228433   2.932   8.195   1.826  0.6662  1.7684 -1.4425
 9073SOL     OW28434   1.710   7.765   2.998 -0.9076  0.4827  0.4303
 9073SOL    HW128435   1.671   7.741   2.914  0.4340 -0.8628  0.1572
 9073SOL    HW228436   1.804   7.763   2.983 -0.6130  3.5600  1.0975
 9074SOL     OW28437   1.568   8.688   3.129 -0.4039  0.6710 -0.0680
 9074SOL    HW128438   1.624   8.679   3.206 -1.6518  1.9129  1.0260
 9074SOL    HW228439   1.563   8.782   3.113  2.0370  0.4314 -3.4171
 9075SOL     OW28440   2.268   8.070   3.052  0.2329  0.1664 -0.2945
 9075SOL    HW128441   2.362   8.059   3.070  0.3605 -1.6095 -1.7023
 9075SOL    HW228442   2.256   8.165   3.048  1.8761  0.4480  0.3703
 9076SOL     OW28443   4.054   8.187   3.559 -0.2938 -0.2479 -0.6468
 9076SOL    HW128444   4.110   8.132   3.504 -0.1522  0.4234 -1.1911
 9076SOL    HW228445   4.080   8.277   3.537  0.0987  0.0452  0.8601
 9077SOL     OW28446   2.295   7.468   2.259 -0.0281 -0.2018 -1.0607
 9077SOL    HW128447   2.375   7.478   2.311 -1.8604 -1.6173  2.3566
 9077SOL    HW228448   2.241   7.544   2.283 -0.7327 -0.6222 -1.2683
 9078SOL     OW28449   3.671   7.761   2.013 -0.1281 -0.2017  0.4771
 9078SOL    HW128450   3.601   7.819   1.981  0.0904 -0.2168 -0.0246
 9078SOL    HW228451   3.752   7.810   1.998  0.1359 -0.9845 -0.7601
 9079SOL     OW28452   2.679   8.164   2.876 -0.2467 -0.2216  0.3375
 9079SOL    HW128453   2.736   8.098   2.837  0.7022  0.9201 -0.2926
 9079SOL    HW228454   2.609   8.114   2.918 -0.4988 -1.5705 -1.5495
 9080SOL     OW28455   3.821   0.227   3.505 -0.6364 -0.1250  0.1387
 9080SOL    HW128456   3.894   0.289   3.507  0.3989 -1.2811 -0.6233
 9080SOL    HW228457   3.743   0.281   3.520  0.0677  1.5829 -1.9009
 9081SOL     OW28458   2.061   8.410   3.375  0.1399 -0.2158  0.6590
 9081SOL    HW128459   2.062   8.375   3.286  1.3374 -2.2679  1.4134
 9081SOL    HW228460   2.061   8.505   3.364  1.1699 -0.4210 -1.5230
 9082SOL     OW28461   3.290   7.718   1.967  0.3049  0.2586  0.1262
 9082SOL    HW128462   3.293   7.661   1.890 -0.1688  0.1063  0.2158
 9082SOL    HW228463   3.351   7.678   2.029 -0.6330 -0.6453  0.5124
 9083SOL     OW28464   3.652   8.113   1.421 -0.2195  0.4669 -0.8046
 9083SOL    HW128465   3.587   8.109   1.351  2.4315 -0.8759 -3.4502
 9083SOL    HW228466   3.651   8.025   1.459 -0.5001  0.6882 -0.2999
 9084SOL     OW28467   2.511   8.072   2.631 -0.2852 -0.1012 -0.6307
 9084SOL    HW128468   2.535   8.113   2.548  0.6601 -1.3390 -0.9963
 9084SOL    HW228469   2.523   8.141   2.696 -0.0925  0.6020 -1.3916
 9085SOL     OW28470   1.703   8.268   2.821  0.3900  0.0695  0.1564
 9085SOL    HW128471   1.636   8.208   2.854  1.8380 -2.4103 -1.0984
 9085SOL    HW228472   1.781   8.213   2.811  2.0605  2.3875 -0.3038
 9086SOL     OW28473   3.316   7.962   3.547 -0.4130 -0.1245  0.0532
 9086SOL    HW128474   3.228   7.958   3.585 -0.1785  1.8148  0.9153
 9086SOL    HW228475   3.335   8.055   3.539  1.0866 -0.4942 -1.3222
 9087SOL     OW28476   3.062   7.450   3.161  0.1305  0.1398  0.1301
 9087SOL    HW128477   3.067   7.391   3.087  1.3645 -0.6190  0.7746
 9087SOL    HW228478   3.085   7.536   3.125 -1.3857  0.2067 -0.7521
 9088SOL     OW28479   2.006   8.827   2.025  0.3101  0.0667 -0.3179
 9088SOL    HW128480   1.955   8.768   2.081 -0.2345  0.5874 -0.2638
 9088SOL    HW228481   2.094   8.825   2.063 -0.2768  1.1834  1.2054
 9089SOL     OW28482   3.055   8.088   2.942  0.6425 -0.0732  0.5016
 9089SOL    HW128483   3.054   8.066   2.849 -1.1622 -0.2890  0.5356
 9089SOL    HW228484   3.015   8.013   2.985 -0.2196  0.7781  1.2371
 9090SOL     OW28485   1.502   8.470   2.743  0.0824  0.5951  0.0904
 9090SOL    HW128486   1.427   8.419   2.771  0.3487  0.8998  1.4661
 9090SOL    HW228487   1.578   8.414   2.760  0.3052  1.0674  0.7129
 9091SOL     OW28488   1.836   7.996   3.491 -0.4238  0.3201 -0.1529
 9091SOL    HW128489   1.799   7.935   3.555 -1.7378  0.1609 -1.0136
 9091SOL    HW228490   1.863   7.941   3.418 -1.2624  0.6935 -0.7735
 9092SOL     OW28491   3.187   8.343   3.007 -0.1681  0.1273  0.1760
 9092SOL    HW128492   3.195   8.437   3.022 -0.8498  0.3996 -0.9843
 9092SOL    HW228493   3.092   8.329   2.997 -0.0907 -0.7266  0.5943
 9093SOL     OW28494   2.472   8.830   2.100 -0.5207 -0.1655  0.6214
 9093SOL    HW128495   2.514   8.914   2.079 -0.0554 -0.4732  0.2875
 9093SOL    HW228496   2.379   8.846   2.086 -0.4070  0.2145  0.2702
 9094SOL     OW28497   2.893   7.895   3.066 -0.0446  0.2137  0.0531
 9094SOL    HW128498   2.846   7.819   3.031 -0.3001  0.1040  0.6281
 9094SOL    HW228499   2.897   7.879   3.160  0.7721  0.4316  0.0607
 9095SOL     OW28500   2.990   7.534   2.831  0.2961  0.2736  0.0381
 9095SOL    HW128501   3.025   7.615   2.794 -0.6865  0.0093 -1.5546
 9095SOL    HW228502   3.067   7.488   2.865  0.7996  2.1520  1.6582
 9096SOL     OW28503   2.153   8.350   1.786 -0.5887 -0.2984 -0.3954
 9096SOL    HW128504   2.111   8.431   1.816 -1.0245 -0.9932  0.9850
 9096SOL    HW228505   2.235   8.347   1.836 -0.3583 -0.4690 -0.7859
 9097SOL     OW28506   2.361   8.510   3.453 -0.3070 -0.6824 -0.3310
 9097SOL    HW128507   2.266   8.511   3.444 -0.3762  0.8019  0.2385
 9097SOL    HW228508   2.378   8.542   3.542  0.7162 -1.5999 -0.1653
 9098SOL     OW28509   3.150   8.350   2.716 -0.0233 -0.5216  0.0551
 9098SOL    HW128510   3.185   8.343   2.805  1.3815 -0.9288 -0.4964
 9098SOL    HW228511   3.070   8.401   2.725 -1.4103 -2.8179  1.9146
 9099SOL     OW28512   3.173   8.364   2.070 -0.7350 -0.3482  0.1154
 9099SOL    HW128513   3.240   8.300   2.093 -1.3544 -1.1110 -0.1739
 9099SOL    HW228514   3.098   8.342   2.124 -0.8479  0.3497  0.2569
 9100SOL     OW28515   1.678   0.173   2.876  0.1769 -0.1841  0.8737
 9100SOL    HW128516   1.694   0.092   2.828 -1.2197  0.0335 -0.0283
 9100SOL    HW228517   1.756   0.226   2.862  0.0156 -0.3322 -0.7577
 9101SOL     OW28518   3.544   7.955   1.869 -0.3206  0.3820 -0.1424
 9101SOL    HW128519   3.577   8.043   1.890 -1.5710  0.8989 -0.2191
 9101SOL    HW228520   3.555   7.948   1.774  0.0324  0.3533 -0.0985
 9102SOL     OW28521   2.772   8.390   2.230 -0.0182 -0.2748 -0.0123
 9102SOL    HW128522   2.739   8.477   2.250 -1.3356 -0.3549 -1.6914
 9102SOL    HW228523   2.701   8.331   2.255 -0.1803 -0.6494 -1.2875
 9103SOL     OW28524   2.941   8.527   3.147 -0.4227 -0.7085 -0.1147
 9103SOL    HW128525   2.928   8.433   3.161  1.4385 -1.0790 -0.6257
 9103SOL    HW228526   2.855   8.559   3.120 -1.2702 -2.1215  0.7721
 9104SOL     OW28527   3.680   7.638   2.736  0.2674 -0.4927 -0.2773
 9104SOL    HW128528   3.616   7.649   2.667  1.2993  1.0811 -1.0446
 9104SOL    HW228529   3.763   7.623   2.690  1.0448  1.0129  0.5740
 9105SOL     OW28530   2.105   7.712   2.279 -0.0960 -0.0787 -0.3911
 9105SOL    HW128531   2.135   7.733   2.367 -0.7973 -1.6476  0.2495
 9105SOL    HW228532   2.064   7.793   2.248  0.1695  0.4972  0.7111
 9106SOL     OW28533   2.990   8.405   3.399 -0.3739  0.2296 -0.3845
 9106SOL    HW128534   3.007   8.450   3.316  3.2996  2.5172  1.3539
 9106SOL    HW228535   3.010   8.313   3.380 -1.9379  0.2378 -2.5039
 9107SOL     OW28536   2.640   8.630   2.158 -0.3210  0.5444 -0.2899
 9107SOL    HW128537   2.578   8.696   2.128  1.7983  2.1835 -1.3171
 9107SOL    HW228538   2.680   8.596   2.077  0.6421  0.0798  0.3642
 9108SOL     OW28539   2.238   8.772   3.099  0.2767  0.3880  0.0234
 9108SOL    HW128540   2.288   8.794   3.020 -0.5891  0.4303 -0.5266
 9108SOL    HW228541   2.192   8.853   3.121 -1.8140 -0.3989 -1.1782
 9109SOL     OW28542   3.468   8.556   3.265 -0.0238 -0.0723  0.2062
 9109SOL    HW128543   3.541   8.553   3.204  1.0346 -0.4020  1.4694
 9109SOL    HW228544   3.449   8.465   3.285  0.3976  0.0669  1.2610
 9110SOL     OW28545   2.827   8.643   2.510  0.1869 -0.3049 -0.1976
 9110SOL    HW128546   2.846   8.641   2.416  0.2765 -0.5562 -0.1725
 9110SOL    HW228547   2.743   8.689   2.516  0.1501 -0.3445 -0.4046
 9111SOL     OW28548   2.787   7.942   2.133  0.5263 -0.1452 -0.2439
 9111SOL    HW128549   2.755   7.864   2.088 -0.3928  0.4170 -0.5833
 9111SOL    HW228550   2.869   7.964   2.087 -0.6593  0.7274 -2.0492
 9112SOL     OW28551   3.608   7.772   2.970  0.0536  0.3237 -0.2171
 9112SOL    HW128552   3.647   7.746   2.886 -0.4867  1.2579 -0.7836
 9112SOL    HW228553   3.662   7.729   3.036 -0.1036 -1.2431 -1.0571
 9113SOL     OW28554   2.186   8.099   3.717 -0.2047 -0.5014 -0.6805
 9113SOL    HW128555   2.242   8.173   3.738 -0.9069 -0.0119 -0.5144
 9113SOL    HW228556   2.105   8.138   3.686 -2.0148 -1.0584  2.8099
 9114SOL     OW28557   2.283   7.366   3.103 -0.3362  0.5030 -0.4838
 9114SOL    HW128558   2.345   7.294   3.111 -1.1078 -0.3285 -1.7400
 9114SOL    HW228559   2.206   7.338   3.153 -0.0733  1.1444  0.3129
 9115SOL     OW28560   1.513   7.819   1.936 -0.3747  0.3166  0.1724
 9115SOL    HW128561   1.519   7.914   1.932  0.9890  0.2159 -2.3217
 9115SOL    HW228562   1.523   7.790   1.845  1.7961 -2.2892  1.0799
 9116SOL     OW28563   3.356   8.813   3.039  0.5232 -0.1218  0.0391
 9116SOL    HW128564   3.332   8.721   3.054  0.5884 -0.1512 -0.0404
 9116SOL    HW228565   3.377   8.846   3.126 -1.8319  0.4902  0.4570
 9117SOL     OW28566   1.736   7.638   2.071 -0.1839 -0.4579  0.1422
 9117SOL    HW128567   1.690   7.722   2.065 -0.9250 -0.8503  0.1969
 9117SOL    HW228568   1.792   7.637   1.994 -1.8520 -0.8724 -1.1317
 9118SOL     OW28569   2.550   8.038   3.098 -0.5193 -0.0883  0.3556
 9118SOL    HW128570   2.589   8.105   3.155  0.9208 -1.2455  0.7778
 9118SOL    HW228571   2.544   7.960   3.152 -0.9559 -0.6768 -0.5094
 9119SOL     OW28572   3.060   7.920   3.582  0.0541 -0.9098  0.0319
 9119SOL    HW128573   3.027   7.836   3.614  2.4178 -1.6441  0.7572
 9119SOL    HW228574   2.989   7.982   3.599 -1.3044 -2.5342  0.5326
 9120SOL     OW28575   3.830   8.297   3.729  0.0054 -0.0681 -0.6953
 9120SOL    HW128576   3.871   8.247   3.659 -2.2202 -0.6199 -1.7111
 9120SOL    HW228577   3.884   8.375   3.738  0.7984 -0.3695 -2.4796
 9121SOL     OW28578   3.387   8.233   3.508  0.0640 -0.0727 -0.1598
 9121SOL    HW128579   3.481   8.215   3.514 -0.2609 -1.7825  0.5345
 9121SOL    HW228580   3.376   8.274   3.423  1.2376 -1.4894 -1.0491
 9122SOL     OW28581   3.042   7.938   2.005  0.4386  0.6832  0.1214
 9122SOL    HW128582   3.094   7.861   1.982  0.2117  0.3267  0.7836
 9122SOL    HW228583   3.106   8.001   2.040  0.2203 -0.5396  2.9598
 9123SOL     OW28584   2.595   8.181   2.406 -0.5380 -0.4516 -0.2012
 9123SOL    HW128585   2.585   8.275   2.400  1.6443 -0.0508  1.2373
 9123SOL    HW228586   2.527   8.145   2.348 -1.8213  1.9412 -0.2920
 9124SOL     OW28587   3.832   7.382   3.491 -0.2874  0.2171 -0.0962
 9124SOL    HW128588   3.910   7.430   3.462  0.3265 -0.3860  0.5108
 9124SOL    HW228589   3.782   7.367   3.411  0.1823  0.6800 -0.4861
 9125SOL     OW28590   3.676   8.157   3.436 -0.6388 -0.0490  0.3806
 9125SOL    HW128591   3.694   8.131   3.346 -0.0233  0.7012  0.2815
 9125SOL    HW228592   3.710   8.246   3.443  0.3296 -0.4877  1.6634
 9126SOL     OW28593   2.491   0.331   1.997 -0.8753 -0.2432  0.0890
 9126SOL    HW128594   2.496   0.359   2.088 -1.5728  1.5510 -0.3717
 9126SOL    HW228595   2.581   0.309   1.974 -0.5314  0.2400  0.9384
 9127SOL     OW28596   2.645   8.451   2.858  0.1324  0.2114 -0.1347
 9127SOL    HW128597   2.554   8.459   2.831 -0.0179  1.0102  0.5736
 9127SOL    HW228598   2.661   8.356   2.862 -0.5083  0.0696 -0.7362
 9128SOL     OW28599   3.283   8.073   2.081 -0.7689 -0.5850  0.4017
 9128SOL    HW128600   3.328   8.001   2.037  0.6981  0.0248  0.8297
 9128SOL    HW228601   3.299   8.058   2.174 -0.6967  0.1302  0.5121
 9129SOL     OW28602   2.206   8.394   3.778 -0.1793  0.0057  0.1545
 9129SOL    HW128603   2.206   8.490   3.771 -1.2004  0.1482  1.5470
 9129SOL    HW228604   2.160   8.377   3.861 -0.6151 -1.7158 -0.4081
 9130SOL     OW28605   2.045   8.678   2.633 -0.0586  0.1077 -0.2809
 9130SOL    HW128606   2.042   8.614   2.704  1.8477 -0.4186 -0.6066
 9130SOL    HW228607   1.981   8.647   2.570 -0.8595 -0.1345  0.6356
 9131SOL     OW28608   2.827   8.503   3.598 -0.0364 -0.2231  0.3368
 9131SOL    HW128609   2.883   8.469   3.528  1.6898  0.3689  1.3571
 9131SOL    HW228610   2.792   8.425   3.641 -0.2933 -0.6043 -0.5473
 9132SOL     OW28611   3.232   7.651   3.001 -0.0590  0.3177  0.3451
 9132SOL    HW128612   3.228   7.649   2.906  1.4130 -1.5207  0.2577
 9132SOL    HW228613   3.290   7.578   3.024 -0.8647  0.3266  2.6785
 9133SOL     OW28614   2.439   7.980   2.240  0.1561  0.0437  0.1794
 9133SOL    HW128615   2.407   7.908   2.185  2.2773 -3.0326  2.6631
 9133SOL    HW228616   2.503   8.025   2.185 -1.3936  0.3144 -1.5175
 9134SOL     OW28617   3.156   0.149   3.054 -0.0670 -0.3335  0.1839
 9134SOL    HW128618   3.095   0.108   3.116 -0.6173 -0.0626 -0.1671
 9134SOL    HW228619   3.221   0.081   3.036 -1.1237 -1.1829 -0.6047
 9135SOL     OW28620   2.093   7.936   2.891 -0.2027 -0.2615  0.0321
 9135SOL    HW128621   2.144   7.990   2.951  0.3639 -0.1691 -0.5288
 9135SOL    HW228622   2.078   7.855   2.940  1.7988 -0.9073 -0.3417
 9136SOL     OW28623   3.142   7.722   2.698  0.3214  0.0861  0.8397
 9136SOL    HW128624   3.127   7.693   2.608  2.1475  1.3519  0.0677
 9136SOL    HW228625   3.214   7.667   2.729 -0.2695 -0.3157  1.5394
 9137SOL     OW28626   2.783   7.479   2.640 -0.5396 -0.4996 -0.4439
 9137SOL    HW128627   2.737   7.396   2.656  1.6248 -1.8230 -0.7689
 9137SOL    HW228628   2.855   7.479   2.702  0.1625  0.6146 -1.2282
 9138SOL     OW28629   2.899   8.699   2.232 -0.4773  0.2755 -0.5103
 9138SOL    HW128630   2.814   8.702   2.188 -0.3722  0.8524 -0.6817
 9138SOL    HW228631   2.955   8.653   2.170 -1.3756 -2.8878  0.8658
 9139SOL     OW28632   2.987   7.612   2.170 -0.0672 -0.0706  0.4092
 9139SOL    HW128633   3.036   7.683   2.211  1.0327 -1.0396  0.8567
 9139SOL    HW228634   2.909   7.601   2.224  0.3515  0.0216  1.0411
 9140SOL     OW28635   2.839   8.077   2.396 -0.1227  0.2204  0.4573
 9140SOL    HW128636   2.829   7.993   2.351 -1.7803  0.9869 -0.6926
 9140SOL    HW228637   2.752   8.098   2.428  0.8405  0.0724  3.5277
 9141SOL     OW28638   3.049   7.982   2.683 -0.6779 -0.2840 -0.4383
 9141SOL    HW128639   3.078   7.895   2.710 -1.4461 -0.4003  0.0494
 9141SOL    HW228640   2.954   7.973   2.673 -1.4148  1.3704  3.3052
 9142SOL     OW28641   1.859   8.536   2.470  0.1840  0.0823 -0.2592
 9142SOL    HW128642   1.765   8.552   2.460  0.0919 -0.1853  0.1443
 9142SOL    HW228643   1.869   8.443   2.454  0.5313  0.2965 -1.3138
 9143SOL     OW28644   2.146   7.856   3.560 -0.1388 -0.2609  0.3670
 9143SOL    HW128645   2.132   7.931   3.618  1.2177 -0.0917  0.5100
 9143SOL    HW228646   2.135   7.892   3.472  1.0422  0.2723  0.4087
 9144SOL     OW28647   1.769   7.521   5.009  0.3466 -0.4288  0.2966
 9144SOL    HW128648   1.700   7.581   5.038 -1.3698 -2.1352 -0.0130
 9144SOL    HW228649   1.728   7.435   5.012  1.9139 -1.3254 -1.6368
 9145SOL     OW28650   1.761   7.424   4.132 -0.3314  0.1368 -0.1197
 9145SOL    HW128651   1.730   7.354   4.190 -1.8626  1.8586  1.2575
 9145SOL    HW228652   1.762   7.502   4.187 -1.4229  1.7768 -2.2584
 9146SOL     OW28653   2.483   8.124   5.056 -0.5046 -0.1140  0.7708
 9146SOL    HW128654   2.397   8.163   5.041 -0.8373 -1.2329 -0.4101
 9146SOL    HW228655   2.468   8.060   5.126 -0.4976  0.1052  0.9746
 9147SOL     OW28656   3.747   8.599   4.409  0.2445 -0.3240  0.5168
 9147SOL    HW128657   3.771   8.514   4.447 -0.6449 -0.5046  0.7038
 9147SOL    HW228658   3.655   8.589   4.384  0.9369 -0.4266 -2.3018
 9148SOL     OW28659   2.534   7.761   4.452  0.3408  0.4449 -0.0551
 9148SOL    HW128660   2.568   7.725   4.370  0.7871  1.0651 -0.1456
 9148SOL    HW228661   2.439   7.757   4.443  0.3640 -0.9180  0.0282
 9149SOL     OW28662   3.385   7.802   4.094  0.1003 -0.1274 -0.3463
 9149SOL    HW128663   3.472   7.837   4.111  0.0831 -0.1694 -0.1779
 9149SOL    HW228664   3.399   7.711   4.071  0.1289 -0.0557 -0.6215
 9150SOL     OW28665   2.224   8.249   5.055  0.0717 -0.3598 -0.0770
 9150SOL    HW128666   2.147   8.206   5.093 -0.5649 -0.5701 -1.5277
 9150SOL    HW228667   2.221   8.225   4.963  1.6875 -0.0594 -0.2356
 9151SOL     OW28668   2.533   8.062   5.694 -0.1434 -0.1512  0.2015
 9151SOL    HW128669   2.476   8.109   5.634 -0.4699 -0.7357  0.0454
 9151SOL    HW228670   2.475   8.031   5.763  0.0519 -0.3944  0.2581
 9152SOL     OW28671   2.732   8.011   4.212 -0.5121  0.1508  0.3169
 9152SOL    HW128672   2.735   8.033   4.305 -0.6062 -0.5054  0.4792
 9152SOL    HW228673   2.666   7.943   4.206  0.2762 -0.6009 -0.0610
 9153SOL     OW28674   2.512   8.536   5.528  0.4365  0.0001  0.0637
 9153SOL    HW128675   2.485   8.571   5.443  1.6329  0.3119 -0.2040
 9153SOL    HW228676   2.555   8.453   5.507  0.1559 -0.2506  0.4427
 9154SOL     OW28677   2.144   8.545   4.609  0.9029 -0.4717  0.0194
 9154SOL    HW128678   2.184   8.626   4.577 -0.4665 -0.4075 -1.7072
 9154SOL    HW228679   2.050   8.561   4.602  0.6143 -2.1770 -0.2756
 9155SOL     OW28680   2.301   7.764   5.478  0.4837  0.5126 -0.1673
 9155SOL    HW128681   2.261   7.681   5.452  0.0588  0.5353  0.4090
 9155SOL    HW228682   2.362   7.740   5.548  0.6528  0.6377 -0.2705
 9156SOL     OW28683   3.032   8.056   4.492 -0.7588 -0.3227 -0.1224
 9156SOL    HW128684   3.093   8.084   4.560 -0.6923  2.3730 -1.1638
 9156SOL    HW228685   3.087   8.030   4.418 -0.8540 -2.1147  0.3933
 9157SOL     OW28686   2.806   8.731   5.356  0.2309  0.1162  0.1629
 9157SOL    HW128687   2.801   8.645   5.314  1.2855  0.2848 -0.3447
 9157SOL    HW228688   2.837   8.712   5.444  0.5478 -0.0251  0.0236
 9158SOL     OW28689   2.574   7.777   4.141 -0.3064  0.5227 -0.3633
 9158SOL    HW128690   2.496   7.786   4.195 -1.2239 -0.4886 -1.4730
 9158SOL    HW228691   2.543   7.788   4.051  0.9848  0.9714 -0.7783
 9159SOL     OW28692   2.085   7.726   3.923  0.6077  0.1119 -0.1864
 9159SOL    HW128693   2.073   7.667   3.997  1.6199 -1.0229 -0.8958
 9159SOL    HW228694   2.127   7.804   3.962  2.5395 -1.0767  0.2449
 9160SOL     OW28695   2.859   7.294   5.186 -0.5860 -0.0554 -0.2837
 9160SOL    HW128696   2.811   7.275   5.105  1.4588 -0.5645 -1.4337
 9160SOL    HW228697   2.849   7.388   5.198 -2.1595 -0.1888 -0.2562
 9161SOL     OW28698   2.023   7.561   4.140 -0.3369  0.3763 -0.2213
 9161SOL    HW128699   1.947   7.574   4.197 -0.0923  1.8011 -0.1698
 9161SOL    HW228700   2.079   7.500   4.188 -1.6249 -1.0306 -0.4540
 9162SOL     OW28701   3.242   8.552   4.352 -0.3389  0.2130 -0.3377
 9162SOL    HW128702   3.219   8.461   4.334  0.6197 -0.0981 -0.0771
 9162SOL    HW228703   3.324   8.566   4.304  0.8658  0.1503  1.5784
 9163SOL     OW28704   3.523   8.512   4.171  0.0585  0.3445 -0.6548
 9163SOL    HW128705   3.455   8.502   4.105 -0.0350 -1.5388 -0.3414
 9163SOL    HW228706   3.600   8.543   4.123 -0.4866  0.6871 -1.3189
 9164SOL     OW28707   2.093   7.882   5.616  0.0832  0.2573 -0.0695
 9164SOL    HW128708   2.024   7.822   5.589  0.1122  0.4390 -0.5419
 9164SOL    HW228709   2.173   7.844   5.580  0.0491  0.8005 -0.7270
 9165SOL     OW28710   2.516   8.362   4.322  0.0757  0.4634 -0.2753
 9165SOL    HW128711   2.609   8.383   4.325  0.0240  0.5847  0.7052
 9165SOL    HW228712   2.483   8.383   4.410 -1.0348  1.1343 -0.8241
 9166SOL     OW28713   3.324   8.804   5.479 -0.0442 -0.5436  0.4891
 9166SOL    HW128714   3.379   8.813   5.556 -1.8797 -0.2374  1.8521
 9166SOL    HW228715   3.281   8.719   5.491 -1.8741  0.3850  0.9348
 9167SOL     OW28716   2.548   7.447   4.207 -0.1778  0.3993 -0.0165
 9167SOL    HW128717   2.467   7.452   4.158 -0.2868  0.7937  0.2029
 9167SOL    HW228718   2.585   7.361   4.184 -0.5115  0.3401 -0.3330
 9168SOL     OW28719   1.922   8.069   4.914 -0.1916 -0.0824 -0.4704
 9168SOL    HW128720   1.981   8.043   4.985 -0.9612 -1.4747 -0.2924
 9168SOL    HW228721   1.928   7.998   4.850 -1.1145  0.0967 -0.7820
 9169SOL     OW28722   3.670   8.119   3.877 -0.1451 -0.6834 -0.0912
 9169SOL    HW128723   3.707   8.197   3.837 -0.7729 -1.1720 -1.7064
 9169SOL    HW228724   3.625   8.074   3.806  0.0287 -2.4239  0.8252
 9170SOL     OW28725   2.063   7.657   5.881 -0.3278  0.2331  0.1171
 9170SOL    HW128726   1.995   7.608   5.927  0.5499 -0.8509  0.3068
 9170SOL    HW228727   2.088   7.601   5.807  0.6440  0.4045  0.2945
 9171SOL     OW28728   3.565   8.827   4.743  0.2787  0.0381  0.4622
 9171SOL    HW128729   3.556   8.879   4.823 -1.6474  1.8429 -0.8468
 9171SOL    HW228730   3.505   8.753   4.756 -1.1018  1.0700  0.1680
 9172SOL     OW28731   2.702   7.971   3.815 -1.1104 -0.5904 -0.3552
 9172SOL    HW128732   2.708   7.968   3.720 -0.2368 -1.9041 -0.2773
 9172SOL    HW228733   2.660   7.889   3.840 -2.9765  0.5154  0.3123
 9173SOL     OW28734   2.814   7.875   4.763  0.1906 -0.3501  0.1860
 9173SOL    HW128735   2.739   7.823   4.735 -0.7907  1.4935 -0.8290
 9173SOL    HW228736   2.779   7.934   4.830  1.3234 -1.0940  1.4892
 9174SOL     OW28737   2.341   7.779   5.146 -0.2364 -0.2374  0.0898
 9174SOL    HW128738   2.257   7.754   5.186 -0.5219  0.4028 -0.0907
 9174SOL    HW228739   2.407   7.744   5.206 -0.6532  0.2782  0.8683
 9175SOL     OW28740   3.137   7.154   5.308 -0.0817 -0.2393  0.0970
 9175SOL    HW128741   3.053   7.191   5.279  0.4723  0.7629 -0.2431
 9175SOL    HW228742   3.201   7.185   5.244  0.6555 -0.5093  0.6860
 9176SOL     OW28743   2.630   8.324   5.437  0.3987 -0.2428  0.1359
 9176SOL    HW128744   2.693   8.278   5.494  1.8451 -0.0794 -1.2394
 9176SOL    HW228745   2.596   8.255   5.380 -0.7721 -0.3425  0.9277
 9177SOL     OW28746   2.770   7.568   5.060 -0.1551  0.3448 -0.0968
 9177SOL    HW128747   2.757   7.627   5.134 -0.8926 -0.2198  0.2328
 9177SOL    HW228748   2.864   7.576   5.039 -0.0904  1.0415  0.4324
 9178SOL     OW28749   2.935   7.717   3.712  1.0923 -0.7698  0.3009
 9178SOL    HW128750   2.881   7.745   3.786 -1.4636  0.6243 -1.9077
 9178SOL    HW228751   2.875   7.669   3.655  2.4243 -0.0453 -1.8199
 9179SOL     OW28752   1.951   7.609   4.503  0.1372 -0.4494 -0.0255
 9179SOL    HW128753   2.014   7.536   4.503  1.1042  0.2852  2.1278
 9179SOL    HW228754   1.898   7.593   4.581  0.2155  1.0239  0.3434
 9180SOL     OW28755   2.489   7.450   3.802 -0.5052  0.4145 -0.6276
 9180SOL    HW128756   2.468   7.446   3.708 -0.6593  1.1118 -0.6239
 9180SOL    HW228757   2.583   7.430   3.805 -0.7020 -0.5922 -0.8357
 9181SOL     OW28758   3.389   8.026   5.749  0.0200 -0.4239 -0.1229
 9181SOL    HW128759   3.473   8.051   5.712  0.4925  1.2631  1.8700
 9181SOL    HW228760   3.410   7.976   5.828 -0.8090  0.2838  0.5760
 9182SOL     OW28761   3.061   8.727   4.155 -0.3338  0.1917 -0.0533
 9182SOL    HW128762   3.080   8.641   4.191 -2.7962 -0.5247 -0.2720
 9182SOL    HW228763   3.107   8.788   4.213 -2.0588 -1.0714  2.8879
 9183SOL     OW28764   2.027   7.355   4.799 -0.5332  0.1996  0.1305
 9183SOL    HW128765   2.118   7.361   4.830 -0.1028  0.7097 -1.1681
 9183SOL    HW228766   2.013   7.438   4.753 -1.5236 -0.0675 -0.0609
 9184SOL     OW28767   3.529   8.375   4.399  0.2137  0.2242  0.2765
 9184SOL    HW128768   3.507   8.422   4.319 -1.1364 -0.4413  0.2348
 9184SOL    HW228769   3.527   8.283   4.375 -1.6705 -0.0783  1.3704
 9185SOL     OW28770   2.412   8.137   4.229  0.1262  0.2495  0.1708
 9185SOL    HW128771   2.463   8.110   4.153  1.2269 -0.8430  1.2563
 9185SOL    HW228772   2.454   8.217   4.259  0.8754 -0.3270  0.7076
 9186SOL     OW28773   3.514   8.413   4.653  0.2531  0.2244  0.1754
 9186SOL    HW128774   3.505   8.423   4.559 -1.7213 -1.4433  0.1252
 9186SOL    HW228775   3.517   8.319   4.668  0.8857  0.4527  1.7614
 9187SOL     OW28776   2.111   8.581   5.229  0.4584 -0.0151  0.6275
 9187SOL    HW128777   2.070   8.632   5.299 -0.6282 -0.1147  0.0877
 9187SOL    HW228778   2.160   8.513   5.274 -1.0161 -0.6769  1.3114
 9188SOL     OW28779   1.687   7.255   5.075 -0.4993  0.7274  0.0108
 9188SOL    HW128780   1.766   7.231   5.124 -0.9399 -1.1232 -0.1018
 9188SOL    HW228781   1.664   7.175   5.026 -1.9460  1.4984 -0.6356
 9189SOL     OW28782   3.413   8.828   3.963  0.1802  0.5369 -0.6582
 9189SOL    HW128783   3.340   8.860   3.910  0.5111 -1.1228 -2.2387
 9189SOL    HW228784   3.490   8.872   3.927  0.1666  0.9643 -0.1678
 9190SOL     OW28785   3.395   7.252   4.638 -0.1176  0.2682 -0.0609
 9190SOL    HW128786   3.418   7.172   4.592  0.6004 -0.2898  1.2219
 9190SOL    HW228787   3.479   7.288   4.666 -0.4345  1.4279 -0.5301
 9191SOL     OW28788   2.153   8.214   4.168  0.9313 -0.4708 -0.4527
 9191SOL    HW128789   2.139   8.134   4.117 -0.6167 -0.1985 -0.5318
 9191SOL    HW228790   2.247   8.220   4.180  1.1162 -1.9557 -1.0102
 9192SOL     OW28791   3.731   7.357   5.059  0.5747  0.7575  0.2419
 9192SOL    HW128792   3.720   7.340   4.966  0.3020 -0.6731  0.5198
 9192SOL    HW228793   3.646   7.336   5.098  0.5496  1.7701  0.7711
 9193SOL     OW28794   2.633   7.195   4.248 -0.6158  0.0288 -0.0172
 9193SOL    HW128795   2.668   7.139   4.317 -0.1641 -0.5706 -0.7204
 9193SOL    HW228796   2.553   7.151   4.219  0.2897 -0.8511 -1.2957
 9194SOL     OW28797   2.494   7.597   5.605  0.2011 -0.8308 -0.0031
 9194SOL    HW128798   2.414   7.547   5.620  0.9556 -1.3645  2.9113
 9194SOL    HW228799   2.562   7.531   5.592  0.7741 -0.5352  1.3323
 9195SOL     OW28800   3.201   7.833   5.262 -0.0686  0.0883  0.1965
 9195SOL    HW128801   3.129   7.886   5.294  0.3829  0.4459  0.6276
 9195SOL    HW228802   3.260   7.895   5.218  1.2381  0.2256  2.0439
 9196SOL     OW28803   2.332   7.426   4.816 -0.6763  0.3507 -0.0101
 9196SOL    HW128804   2.421   7.437   4.850 -1.0824  3.9232  0.2917
 9196SOL    HW228805   2.344   7.402   4.724  0.6308  1.2557 -0.1006
 9197SOL     OW28806   2.330   7.875   4.271  0.0962  0.2418 -0.8334
 9197SOL    HW128807   2.309   7.965   4.296 -0.9296 -0.4232  0.8537
 9197SOL    HW228808   2.257   7.823   4.302  1.0632 -1.3089 -1.0116
 9198SOL     OW28809   3.335   8.545   3.967 -0.0289  0.1204 -0.1018
 9198SOL    HW128810   3.335   8.639   3.949 -2.1731  0.0686 -0.6109
 9198SOL    HW228811   3.356   8.504   3.883  1.1391  0.1096  0.1709
 9199SOL     OW28812   2.336   7.110   3.891 -0.1673 -0.6823 -0.0621
 9199SOL    HW128813   2.406   7.060   3.850  0.9510  1.2273 -0.5941
 9199SOL    HW228814   2.256   7.068   3.860  0.7063 -1.3281 -1.5494
 9200SOL     OW28815   2.941   7.369   4.091  0.0926 -0.0575  0.3918
 9200SOL    HW128816   2.990   7.371   4.009 -1.0577  0.7242 -0.2957
 9200SOL    HW228817   2.942   7.277   4.117  0.6305 -0.2825 -0.3964
 9201SOL     OW28818   2.795   7.747   5.297 -0.4264  0.1586 -0.0169
 9201SOL    HW128819   2.874   7.799   5.314  0.5510 -0.8382 -1.2068
 9201SOL    HW228820   2.736   7.768   5.369  1.1358  0.5612  1.2238
 9202SOL     OW28821   2.937   8.516   4.715 -0.4438 -0.5218 -0.0577
 9202SOL    HW128822   3.000   8.458   4.757  0.5364 -0.0581 -0.8262
 9202SOL    HW228823   2.975   8.535   4.629 -0.4603  1.6335  0.3392
 9203SOL     OW28824   2.706   8.270   3.722 -0.0695 -0.3493  0.2447
 9203SOL    HW128825   2.619   8.297   3.750 -0.8084  0.4548 -2.5534
 9203SOL    HW228826   2.706   8.175   3.732 -0.5446 -0.1954  2.0370
 9204SOL     OW28827   2.940   7.798   3.318  0.5331 -0.1359 -0.4616
 9204SOL    HW128828   3.026   7.788   3.358  0.6485 -1.1976 -0.9361
 9204SOL    HW228829   2.894   7.860   3.374  2.2360  1.9600 -1.2308
 9205SOL     OW28830   2.065   7.758   5.233  0.1603  0.5059  0.0167
 9205SOL    HW128831   2.111   7.720   5.308  0.7363  0.3441 -0.4140
 9205SOL    HW228832   1.994   7.696   5.215  0.1040  0.4744  0.3350
 9206SOL     OW28833   2.147   7.555   5.434  0.2813 -0.7730  0.3769
 9206SOL    HW128834   2.071   7.550   5.493 -0.8410  0.0929 -0.9352
 9206SOL    HW228835   2.173   7.463   5.421  0.0385 -1.0227  1.5573
 9207SOL     OW28836   2.728   7.388   4.517 -0.2529  0.0977 -0.3900
 9207SOL    HW128837   2.731   7.298   4.483 -1.2745  0.1582 -0.6568
 9207SOL    HW228838   2.764   7.442   4.447  0.3203 -0.0867 -0.2468
 9208SOL     OW28839   2.576   6.983   4.662  0.2843  0.5305 -0.3708
 9208SOL    HW128840   2.614   6.992   4.750  1.9531 -1.1233 -0.8556
 9208SOL    HW228841   2.485   6.959   4.677  1.0022 -1.6276  1.0024
 9209SOL     OW28842   2.841   8.149   5.322 -0.8317  0.4778  0.2378
 9209SOL    HW128843   2.852   8.187   5.235 -0.5426  1.0520  0.5201
 9209SOL    HW228844   2.754   8.109   5.320 -0.6220  0.0419 -0.4761
 9210SOL     OW28845   3.086   7.842   4.711  0.3482 -0.0995 -0.0762
 9210SOL    HW128846   2.991   7.841   4.695  0.4015 -1.9099 -0.5812
 9210SOL    HW228847   3.101   7.766   4.768  1.1729  1.8389  2.4782
 9211SOL     OW28848   3.795   7.788   4.238  0.1248 -0.2671  0.4259
 9211SOL    HW128849   3.854   7.841   4.292 -0.5411  0.2703  0.6553
 9211SOL    HW228850   3.851   7.723   4.197  0.6981 -0.5228  1.5638
 9212SOL     OW28851   4.011   8.573   4.369  0.2418  0.1643  0.3597
 9212SOL    HW128852   4.035   8.564   4.462  0.5771  0.2161  0.2806
 9212SOL    HW228853   3.919   8.548   4.366  0.5677 -1.1631  0.4940
 9213SOL     OW28854   2.321   7.352   4.011 -0.1582 -0.4001  0.2040
 9213SOL    HW128855   2.345   7.265   3.981 -2.5101 -0.7143 -1.0062
 9213SOL    HW228856   2.342   7.410   3.937  2.9727  0.4680  1.5779
 9214SOL     OW28857   3.874   8.241   5.414  0.0374 -0.0557  0.1972
 9214SOL    HW128858   3.784   8.250   5.384  0.1947  0.5618 -0.1032
 9214SOL    HW228859   3.867   8.220   5.507 -0.4042  0.4480  0.2765
 9215SOL     OW28860   2.451   8.629   5.260 -0.2478 -0.1102 -0.2047
 9215SOL    HW128861   2.494   8.642   5.176 -2.1333  0.0406 -1.2051
 9215SOL    HW228862   2.378   8.692   5.260 -1.7630 -1.7844  0.4572
 9216SOL     OW28863   2.756   8.446   4.923  0.3584 -0.3618  0.2869
 9216SOL    HW128864   2.691   8.389   4.883 -2.1879  2.1139  0.6193
 9216SOL    HW228865   2.816   8.467   4.852  1.1340 -2.9780  0.0584
 9217SOL     OW28866   3.332   8.431   5.039 -0.1557  0.6125 -1.1305
 9217SOL    HW128867   3.311   8.461   5.127 -0.5697 -0.9144 -0.6860
 9217SOL    HW228868   3.248   8.405   5.001  0.4881 -5.7973  0.7504
 9218SOL     OW28869   2.728   7.403   5.602 -0.4973 -0.0986  0.2261
 9218SOL    HW128870   2.789   7.449   5.544  0.8333 -1.5754  0.3843
 9218SOL    HW228871   2.732   7.312   5.572 -2.9041 -0.1900  0.0370
 9219SOL     OW28872   2.937   8.505   5.590  0.4461  0.2791  0.5887
 9219SOL    HW128873   2.921   8.474   5.501  0.1744  0.9476  0.4014
 9219SOL    HW228874   2.992   8.437   5.630  2.1812  0.8485 -0.6903
 9220SOL     OW28875   2.506   8.087   3.982  0.2387  0.1877 -0.1805
 9220SOL    HW128876   2.511   8.170   3.933 -0.6340  0.2234 -0.2288
 9220SOL    HW228877   2.574   8.032   3.943  0.4704  0.6980 -0.5108
 9221SOL     OW28878   1.922   8.186   5.309 -0.8343 -0.4926 -0.0991
 9221SOL    HW128879   1.955   8.183   5.399 -0.2056  0.2363 -0.3019
 9221SOL    HW228880   1.876   8.270   5.304  0.2498  0.0723 -0.8378
 9222SOL     OW28881   2.882   7.522   5.414 -0.0962  0.3235  0.1576
 9222SOL    HW128882   2.975   7.542   5.424 -0.0937  0.4066 -0.0274
 9222SOL    HW228883   2.847   7.597   5.366 -0.7502  1.5051  2.3196
 9223SOL     OW28884   2.259   7.712   4.510  0.3272 -0.6185 -0.1920
 9223SOL    HW128885   2.176   7.664   4.509 -0.2822  0.3974 -1.7046
 9223SOL    HW228886   2.281   7.720   4.603 -0.7583 -1.7602  0.1859
 9224SOL     OW28887   2.114   7.643   4.809 -0.0630  0.0367  0.1597
 9224SOL    HW128888   2.208   7.624   4.817  0.3649  0.7309 -2.4354
 9224SOL    HW228889   2.079   7.625   4.896  2.1661 -1.9282  0.7611
 9225SOL     OW28890   2.814   8.287   4.164  0.0864 -0.5375  0.1828
 9225SOL    HW128891   2.799   8.193   4.159  0.1813 -0.5272 -0.2967
 9225SOL    HW228892   2.840   8.313   4.076  1.6554 -0.3415  0.6592
 9226SOL     OW28893   3.292   8.114   4.268  0.2036  0.3984 -0.2419
 9226SOL    HW128894   3.235   8.171   4.216 -0.5069  1.0981  1.2210
 9226SOL    HW228895   3.380   8.136   4.240 -0.0396  2.4201  0.4094
 9227SOL     OW28896   2.556   8.047   5.358  0.4672 -0.1181 -0.5935
 9227SOL    HW128897   2.588   7.976   5.414  0.2527  0.6148  0.4890
 9227SOL    HW228898   2.460   8.042   5.365  0.4529  0.3386 -0.4184
 9228SOL     OW28899   3.589   8.201   5.342 -0.4328 -0.5335 -0.8167
 9228SOL    HW128900   3.558   8.211   5.252 -0.4676  0.9774 -0.6608
 9228SOL    HW228901   3.540   8.126   5.376 -2.1026  0.2423 -1.3707
 9229SOL     OW28902   2.854   7.174   5.434 -0.7555 -0.3529 -0.4433
 9229SOL    HW128903   2.862   7.079   5.432  0.2552 -0.2818 -0.3134
 9229SOL    HW228904   2.846   7.200   5.342  0.2251 -0.4781 -0.5736
 9230SOL     OW28905   1.860   7.807   5.527  0.0148  0.2190  0.2431
 9230SOL    HW128906   1.802   7.739   5.492 -0.4079  0.0682  1.1972
 9230SOL    HW228907   1.804   7.885   5.530  0.2037  0.3599  0.0944
 9231SOL     OW28908   2.711   8.089   4.904  0.2258 -0.6830 -0.5231
 9231SOL    HW128909   2.642   8.082   4.969  0.7579  0.4656  0.1976
 9231SOL    HW228910   2.679   8.156   4.843  1.1629  0.7130  0.4595
 9232SOL     OW28911   2.569   8.281   4.766  0.3921 -0.2516  0.5146
 9232SOL    HW128912   2.483   8.244   4.785  0.9583 -1.9090  0.0765
 9232SOL    HW228913   2.552   8.354   4.707 -0.7084 -0.7159  0.2403
 9233SOL     OW28914   2.939   7.842   4.139  0.0964 -0.9087 -0.9164
 9233SOL    HW128915   2.872   7.909   4.149  1.4687  0.4551 -0.4076
 9233SOL    HW228916   2.891   7.763   4.117 -1.6098  0.1630 -1.2262
 9234SOL     OW28917   1.851   7.480   5.348  0.1344  0.0556 -0.1373
 9234SOL    HW128918   1.779   7.540   5.373  0.2865  0.8296 -1.4830
 9234SOL    HW228919   1.810   7.394   5.347 -0.8554  0.5083 -1.0974
 9235SOL     OW28920   1.934   8.421   5.002  0.1338  0.1560  0.1615
 9235SOL    HW128921   1.941   8.517   5.000 -1.4020  0.3005  0.4043
 9235SOL    HW228922   1.917   8.400   5.093 -3.3058  0.0393 -0.3773
 9236SOL     OW28923   2.179   8.163   4.487 -0.2645 -0.3161 -0.4257
 9236SOL    HW128924   2.186   8.215   4.407  0.4338 -0.3530 -0.3954
 9236SOL    HW228925   2.244   8.094   4.477 -0.4876 -0.5917 -0.0258
 9237SOL     OW28926   4.082   8.472   5.820 -0.1808  0.1195  0.4320
 9237SOL    HW128927   4.121   8.488   5.734 -0.9160  0.3764  0.1468
 9237SOL    HW228928   4.002   8.525   5.821 -1.9306 -2.3395 -0.0039
 9238SOL     OW28929   1.784   7.625   4.290  0.2042 -0.4522  0.1662
 9238SOL    HW128930   1.795   7.623   4.385  0.6083  0.3536  0.1423
 9238SOL    HW228931   1.756   7.714   4.271 -0.8652 -0.8842 -0.3810
 9239SOL     OW28932   3.204   7.825   4.338  0.1252 -0.2916 -0.5576
 9239SOL    HW128933   3.231   7.745   4.383  0.6388 -0.0382 -0.4033
 9239SOL    HW228934   3.243   7.896   4.389 -0.1596  0.0487 -0.8038
 9240SOL     OW28935   3.027   8.068   4.900 -0.0860  0.2059  0.3108
 9240SOL    HW128936   2.934   8.073   4.880  0.0382  0.8655 -0.1403
 9240SOL    HW228937   3.060   7.996   4.844 -0.0689  0.8926 -0.5881
 9241SOL     OW28938   3.942   8.544   5.473  0.2855  0.4561  0.0241
 9241SOL    HW128939   4.033   8.521   5.488  0.7433  2.2987  0.2672
 9241SOL    HW228940   3.898   8.460   5.460  1.9841 -0.4672 -0.0140
 9242SOL     OW28941   2.318   8.384   5.302  0.0654  0.0003  0.2066
 9242SOL    HW128942   2.285   8.342   5.223 -0.7039 -0.5848  0.8188
 9242SOL    HW228943   2.377   8.452   5.270  0.1576 -0.5496 -0.8505
 9243SOL     OW28944   3.150   7.739   3.908  0.1329 -0.8344 -0.1768
 9243SOL    HW128945   3.096   7.713   3.834 -1.2679 -1.7955  1.1008
 9243SOL    HW228946   3.197   7.659   3.932  2.2784 -0.0008 -1.3085
 9244SOL     OW28947   3.339   8.438   3.705 -0.9466 -0.4272 -0.4325
 9244SOL    HW128948   3.323   8.366   3.644  1.9193  0.1168 -2.0037
 9244SOL    HW228949   3.357   8.513   3.649  0.8325  0.3260  1.0393
 9245SOL     OW28950   2.366   7.791   4.859  0.0741  0.3079  0.3672
 9245SOL    HW128951   2.384   7.799   4.953  0.4607 -3.3840  0.7626
 9245SOL    HW228952   2.452   7.789   4.818 -0.0920  3.1125 -0.3538
 9246SOL     OW28953   1.779   7.565   4.703 -1.0858  0.1096  0.0081
 9246SOL    HW128954   1.765   7.561   4.797 -0.6451 -0.5157  0.0504
 9246SOL    HW228955   1.726   7.493   4.668 -0.1410 -0.5549 -0.0819
 9247SOL     OW28956   3.388   7.155   5.423 -0.4261  0.4800  0.3334
 9247SOL    HW128957   3.299   7.189   5.419 -2.1915 -3.5515  1.1115
 9247SOL    HW228958   3.395   7.096   5.348  0.9863 -0.5595  1.2250
 9248SOL     OW28959   3.222   6.863   5.428  0.1794 -0.0744  0.4289
 9248SOL    HW128960   3.228   6.905   5.514 -0.3100  2.4622 -0.6756
 9248SOL    HW228961   3.312   6.851   5.400  0.3611 -1.5750  1.5373
 9249SOL     OW28962   1.768   8.595   3.666 -0.1286 -0.3375  0.1304
 9249SOL    HW128963   1.755   8.623   3.757 -0.8767 -0.1821 -0.0145
 9249SOL    HW228964   1.788   8.502   3.672 -0.6056 -0.4261  0.4373
 9250SOL     OW28965   3.178   8.014   5.576  0.0325 -0.0658 -0.1512
 9250SOL    HW128966   3.251   7.995   5.517 -0.3022  0.0731 -0.6150
 9250SOL    HW228967   3.219   8.026   5.662  0.4591 -0.8590 -0.2390
 9251SOL     OW28968   2.047   7.413   5.114  0.5640 -0.0180 -0.0940
 9251SOL    HW128969   2.001   7.430   5.197  0.9151 -0.5586  0.2148
 9251SOL    HW228970   1.986   7.445   5.047  1.0956  2.3273  0.4340
 9252SOL     OW28971   1.564   7.832   5.456  0.1768  0.0448 -0.0747
 9252SOL    HW128972   1.520   7.895   5.513 -1.9702  0.4319 -1.9598
 9252SOL    HW228973   1.606   7.886   5.388  1.1120 -0.4554  0.0924
 9253SOL     OW28974   3.453   7.934   5.433 -0.1613 -0.1363 -0.1467
 9253SOL    HW128975   3.533   7.949   5.484  0.1371  1.6712 -1.0571
 9253SOL    HW228976   3.466   7.849   5.392  0.8353 -0.3306  0.5243
 9254SOL     OW28977   2.471   7.744   3.872 -0.0049  0.0516 -0.2670
 9254SOL    HW128978   2.467   7.790   3.789  0.2698  0.6698  0.0638
 9254SOL    HW228979   2.470   7.651   3.848  1.7264  0.1980 -1.0476
 9255SOL     OW28980   3.348   7.844   4.616 -0.2181  0.0668  0.1551
 9255SOL    HW128981   3.258   7.860   4.645 -0.4783 -0.5751 -0.2737
 9255SOL    HW228982   3.345   7.758   4.574  0.1609  0.8898 -1.6839
 9256SOL     OW28983   2.307   7.344   5.088 -0.6373  0.1530  0.0168
 9256SOL    HW128984   2.313   7.372   4.996 -0.5719 -2.9531 -1.0579
 9256SOL    HW228985   2.221   7.375   5.116 -0.9054  0.6983 -1.2958
 9257SOL     OW28986   2.236   8.015   3.984  0.3921 -0.2395  0.5198
 9257SOL    HW128987   2.330   8.016   4.002  0.2428  0.5700  1.3186
 9257SOL    HW228988   2.229   8.036   3.891  0.8971  3.8982  1.2152
 9258SOL     OW28989   1.672   8.715   5.158  0.2080  0.0952 -0.5845
 9258SOL    HW128990   1.607   8.664   5.207 -0.0475 -0.4864 -1.4890
 9258SOL    HW228991   1.660   8.805   5.188  0.6562 -0.3592  1.0354
 9259SOL     OW28992   3.262   8.481   5.290 -0.5354  0.0870  0.8637
 9259SOL    HW128993   3.195   8.473   5.357  1.1040  0.3811  2.6471
 9259SOL    HW228994   3.341   8.507   5.338  0.7417  0.2592 -1.1842
 9260SOL     OW28995   3.223   8.029   3.950  0.2114  0.4551 -0.4644
 9260SOL    HW128996   3.216   8.124   3.948 -0.4594  0.4105 -0.4096
 9260SOL    HW228997   3.308   8.010   3.910  0.5016  1.0919 -0.1634
 9261SOL     OW28998   3.201   7.354   4.825  0.3768  0.2953  0.9973
 9261SOL    HW128999   3.247   7.356   4.740  1.2072  1.1557  1.4349
 9261SOL    HW229000   3.270   7.375   4.889 -0.1675 -0.6890  1.9252
 9262SOL     OW29001   2.759   8.033   4.502 -0.0971  0.0463  0.4663
 9262SOL    HW129002   2.853   8.042   4.520 -0.2434  0.8569  0.8917
 9262SOL    HW229003   2.749   7.943   4.473  1.0268  0.3064 -0.8708
 9263SOL     OW29004   2.873   8.438   5.315 -0.0245 -0.1899  0.6746
 9263SOL    HW129005   2.785   8.410   5.341 -0.7270  0.7498 -0.5941
 9263SOL    HW229006   2.894   8.383   5.239  0.2877 -0.0950  0.6938
 9264SOL     OW29007   3.315   7.677   5.035  0.2035 -0.0251  0.3094
 9264SOL    HW129008   3.231   7.675   4.988  1.2230 -0.5006 -1.5710
 9264SOL    HW229009   3.292   7.711   5.122 -1.8401  0.3902 -0.3286
 9265SOL     OW29010   2.603   7.724   4.720  0.2487 -0.2370 -0.6135
 9265SOL    HW129011   2.589   7.629   4.725  1.0740 -0.3830 -0.8421
 9265SOL    HW229012   2.620   7.741   4.628  1.8272 -0.1426 -0.3297
 9266SOL     OW29013   3.337   8.419   5.587 -0.5481  0.1832 -0.2998
 9266SOL    HW129014   3.255   8.373   5.566 -0.7452  1.0791 -1.6571
 9266SOL    HW229015   3.309   8.507   5.613 -0.0959 -0.0049  0.8630
 9267SOL     OW29016   2.932   8.087   3.931 -0.0323 -0.5347 -0.2298
 9267SOL    HW129017   2.864   8.019   3.925 -0.2084 -0.4384  0.5932
 9267SOL    HW229018   3.014   8.039   3.918 -0.0096 -1.2569  2.1175
 9268SOL     OW29019   1.898   8.694   4.991 -0.1934  0.1453  0.2010
 9268SOL    HW129020   1.981   8.732   5.019  0.6069 -0.3524 -1.3747
 9268SOL    HW229021   1.846   8.688   5.071  0.0963  3.3200  0.7429
 9269SOL     OW29022   3.499   8.610   5.360 -0.6536 -0.4421 -0.2596
 9269SOL    HW129023   3.510   8.685   5.418  1.6394 -0.3156 -0.7317
 9269SOL    HW229024   3.512   8.645   5.272 -0.6818 -1.1957 -0.5772
 9270SOL     OW29025   3.108   8.305   4.729 -0.0280 -0.1897  0.0379
 9270SOL    HW129026   3.089   8.225   4.777 -1.1356 -0.4151 -0.7403
 9270SOL    HW229027   3.181   8.282   4.672 -0.2847 -0.6295 -0.1186
 9271SOL     OW29028   2.587   7.436   4.907  0.0994 -0.2468 -0.3620
 9271SOL    HW129029   2.636   7.494   4.965  0.0811 -0.7269  0.1453
 9271SOL    HW229030   2.651   7.409   4.841  0.3824 -0.4537 -0.0070
 9272SOL     OW29031   3.466   7.824   4.878  0.4965  0.1219 -0.1818
 9272SOL    HW129032   3.422   7.820   4.793 -2.0672  1.3804  0.9834
 9272SOL    HW229033   3.413   7.768   4.935  1.4428  0.2780  0.8877
 9273SOL     OW29034   1.835   8.442   5.740  0.0600 -0.0212  0.4137
 9273SOL    HW129035   1.901   8.450   5.809 -0.9984  1.3656  1.2967
 9273SOL    HW229036   1.803   8.352   5.749  1.5869 -0.6315  0.1494
 9274SOL     OW29037   2.409   7.314   5.427  0.3281 -0.3524 -0.0555
 9274SOL    HW129038   2.477   7.311   5.359  0.6142  0.0203  0.2125
 9274SOL    HW229039   2.439   7.254   5.495  0.3256 -0.2845  0.0056
 9275SOL     OW29040   1.858   7.799   3.288 -0.2350  0.1837 -0.0326
 9275SOL    HW129041   1.827   7.785   3.198  0.1279  1.2006 -0.3323
 9275SOL    HW229042   1.831   7.720   3.335  0.4219 -0.8115 -1.2536
 9276SOL     OW29043   3.208   8.169   5.126  0.1672  0.2132 -0.3343
 9276SOL    HW129044   3.152   8.237   5.163  0.3846  0.1544  0.1001
 9276SOL    HW229045   3.153   8.127   5.060  0.4282  1.5945 -1.4776
 9277SOL     OW29046   1.888   7.905   3.850  0.6435  0.5246  0.3826
 9277SOL    HW129047   1.950   7.844   3.890  0.4450 -0.5188 -0.8447
 9277SOL    HW229048   1.817   7.850   3.817 -0.7518  1.6454  1.3470
 9278SOL     OW29049   2.970   7.920   5.407 -0.3350  0.1670 -0.1109
 9278SOL    HW129050   2.929   8.003   5.383 -1.3558 -0.3395 -0.1974
 9278SOL    HW229051   3.034   7.943   5.475 -1.5712  0.8531  0.8605
 9279SOL     OW29052   2.277   7.481   5.714 -0.2391 -0.0386  0.2727
 9279SOL    HW129053   2.208   7.489   5.649  1.6568  1.0313 -1.7301
 9279SOL    HW229054   2.247   7.411   5.772 -1.7730 -1.4554 -2.0558
 9280SOL     OW29055   3.633   8.425   5.527 -0.5154  0.2379 -0.1039
 9280SOL    HW129056   3.623   8.344   5.478 -1.5518  1.1552 -1.4697
 9280SOL    HW229057   3.595   8.493   5.471  1.2156  1.8509  0.5370
 9281SOL     OW29058   3.305   8.104   4.625  0.1417 -0.0277  0.1108
 9281SOL    HW129059   3.321   8.010   4.624  0.8876  0.0930  0.3373
 9281SOL    HW229060   3.374   8.140   4.681  0.9823  0.8365 -1.4062
 9282SOL     OW29061   3.150   7.430   4.356 -0.7980 -0.6018 -0.1268
 9282SOL    HW129062   3.146   7.342   4.394 -0.2976 -1.4384 -1.8988
 9282SOL    HW229063   3.109   7.420   4.270  0.4682  0.5951 -0.8944
 9283SOL     OW29064   2.468   8.028   4.510 -0.2140 -0.5095  0.1555
 9283SOL    HW129065   2.548   8.072   4.480 -0.7851  1.0385  0.8126
 9283SOL    HW229066   2.492   7.935   4.512  1.4467 -0.1261 -0.0296
 9284SOL     OW29067   3.636   8.001   4.979 -0.3186 -1.0960 -0.0044
 9284SOL    HW129068   3.573   7.932   4.960 -0.9672 -0.2603 -0.9927
 9284SOL    HW229069   3.585   8.068   5.025 -0.1213 -0.4747 -0.6764
 9285SOL     OW29070   3.497   8.216   5.089  0.1102 -0.4167  0.5817
 9285SOL    HW129071   3.418   8.171   5.121  1.0099 -1.3272  1.5811
 9285SOL    HW229072   3.467   8.304   5.069 -0.9638 -0.4473  1.9055
 9286SOL     OW29073   2.462   8.319   3.852 -0.1223  0.4864  0.3732
 9286SOL    HW129074   2.486   8.366   3.932  0.4565  0.5266  0.1831
 9286SOL    HW229075   2.375   8.351   3.830 -1.2344 -1.0883  2.1720
 9287SOL     OW29076   2.324   8.096   4.749  0.2806  0.1696 -0.1390
 9287SOL    HW129077   2.336   8.094   4.654  1.3931 -2.3528 -0.0556
 9287SOL    HW229078   2.278   8.014   4.769 -2.1370  1.7472  1.3433
 9288SOL     OW29079   3.166   8.307   3.982  0.1040  0.2482 -0.6612
 9288SOL    HW129080   3.198   8.398   3.986  0.8965 -0.0716  1.0310
 9288SOL    HW229081   3.071   8.316   3.973  0.2475  1.2401 -1.3281
 9289SOL     OW29082   1.759   8.410   5.276  0.1044  0.3474 -0.7543
 9289SOL    HW129083   1.664   8.425   5.275 -0.4802 -1.2122  3.8932
 9289SOL    HW229084   1.797   8.498   5.267 -2.0223  1.5466  0.8389
 9290SOL     OW29085   2.133   8.310   4.792  0.6074  0.1210  0.0850
 9290SOL    HW129086   2.152   8.384   4.734 -0.9712 -0.6390 -1.4884
 9290SOL    HW229087   2.199   8.244   4.770 -0.5706 -0.5396 -1.6180
 9291SOL     OW29088   2.631   8.687   5.068  0.1216 -0.5178 -0.1790
 9291SOL    HW129089   2.676   8.603   5.056  0.5995 -0.1678 -0.8869
 9291SOL    HW229090   2.697   8.753   5.047 -0.0183  0.0668  1.1214
 9292SOL     OW29091   3.378   7.506   5.343 -0.2976 -0.1322  0.7118
 9292SOL    HW129092   3.402   7.414   5.341 -0.3221 -0.1556  1.3605
 9292SOL    HW229093   3.457   7.553   5.317  0.1841 -0.2621  1.8734
 9293SOL     OW29094   2.404   7.351   4.538 -0.6422 -0.8251  0.3943
 9293SOL    HW129095   2.421   7.412   4.466 -1.8058 -1.3063 -0.3244
 9293SOL    HW229096   2.481   7.294   4.540 -0.0318 -0.0217  0.3698
 9294SOL     OW29097   3.094   8.730   4.921 -0.0316 -0.1159  0.3100
 9294SOL    HW129098   3.163   8.793   4.900  0.1614  0.0062  1.2830
 9294SOL    HW229099   3.061   8.702   4.835  1.0592 -0.0031 -0.1667
 9295SOL     OW29100   2.059   8.020   5.151  0.0251  0.3799 -0.8636
 9295SOL    HW129101   2.045   7.931   5.183 -0.7882  0.2507 -1.5485
 9295SOL    HW229102   2.016   8.076   5.217  0.4011  0.2608 -0.5138
 9296SOL     OW29103   3.053   7.568   4.846 -0.2000  0.0659 -0.3024
 9296SOL    HW129104   2.966   7.564   4.805 -1.3392  0.1373  1.8959
 9296SOL    HW229105   3.085   7.478   4.842 -0.8393 -0.1721 -0.2837
 9297SOL     OW29106   2.556   7.229   5.176 -0.6566 -0.5057  0.3674
 9297SOL    HW129107   2.484   7.279   5.139 -1.5059 -1.2482  0.9571
 9297SOL    HW229108   2.608   7.201   5.101 -0.2302  1.1242  0.0204
 9298SOL     OW29109   2.893   8.363   3.907  0.0834  0.7471 -0.2048
 9298SOL    HW129110   2.910   8.270   3.893  0.1011  0.6814  0.2402
 9298SOL    HW229111   2.806   8.378   3.868  0.0719  0.5413 -0.2592
 9299SOL     OW29112   2.743   7.701   3.943  0.1014  0.2619 -0.3699
 9299SOL    HW129113   2.723   7.609   3.925 -2.2933  0.5784  0.4206
 9299SOL    HW229114   2.701   7.719   4.027  1.7256  1.7407  0.1916
 9300SOL     OW29115   2.882   7.731   4.463 -0.0655 -0.0580 -0.0270
 9300SOL    HW129116   2.975   7.723   4.443  0.0390 -2.4362  1.0622
 9300SOL    HW229117   2.838   7.686   4.391 -0.4027  1.2834 -0.6701
 9301SOL     OW29118   3.293   7.622   4.493  0.3034  0.1728 -0.0818
 9301SOL    HW129119   3.242   7.540   4.495  0.3238  0.1389 -0.8222
 9301SOL    HW229120   3.384   7.593   4.498  0.2867  0.1840  0.2975
 9302SOL     OW29121   1.485   8.436   4.210 -0.0936  0.0493 -0.8267
 9302SOL    HW129122   1.515   8.404   4.124 -1.1892 -2.2741 -0.4335
 9302SOL    HW229123   1.558   8.420   4.269 -0.1463 -0.5123 -0.9069
 9303SOL     OW29124   2.023   8.149   5.555 -0.4443  0.0162 -0.0293
 9303SOL    HW129125   2.069   8.214   5.609 -2.2709  0.9211  0.5143
 9303SOL    HW229126   2.070   8.067   5.571 -0.2343  0.4916  2.0753
 9304SOL     OW29127   2.015   7.369   6.463  0.5606 -0.0469 -0.2892
 9304SOL    HW129128   2.001   7.385   6.556 -1.8392  1.1922 -0.7833
 9304SOL    HW229129   2.106   7.340   6.457  0.8403  0.0296  2.3924
 9305SOL     OW29130   1.830   7.949   6.678 -0.2831 -0.6750  0.2325
 9305SOL    HW129131   1.905   7.915   6.630 -0.2688 -1.8663  1.0608
 9305SOL    HW229132   1.756   7.941   6.618 -0.1129 -1.3837  0.1153
 9306SOL     OW29133   2.639   8.305   6.181  0.0985 -0.6261 -0.2794
 9306SOL    HW129134   2.629   8.211   6.197 -0.1681 -0.4562  0.6011
 9306SOL    HW229135   2.601   8.347   6.258 -0.7224  0.2398 -1.1161
 9307SOL     OW29136   3.496   8.847   6.311 -0.5509 -0.0580 -0.3784
 9307SOL    HW129137   3.481   8.799   6.392 -1.8290  1.6153  0.4393
 9307SOL    HW229138   3.424   8.821   6.254 -2.3353  2.1059  0.7210
 9308SOL     OW29139   2.947   7.875   6.125 -0.0987  0.3084  0.2849
 9308SOL    HW129140   2.994   7.792   6.133  1.8309  1.3594  0.6279
 9308SOL    HW229141   2.887   7.876   6.199  0.8422 -0.2263  1.0845
 9309SOL     OW29142   3.978   8.014   5.319 -0.1800  0.5624 -0.3782
 9309SOL    HW129143   3.897   7.974   5.286 -0.5346  1.9212 -1.2274
 9309SOL    HW229144   3.956   8.106   5.333  0.7919  0.6227  0.9229
 9310SOL     OW29145   2.884   8.764   6.443 -0.1408 -0.0386 -0.5587
 9310SOL    HW129146   2.877   8.685   6.390  1.0257 -1.9072  1.8354
 9310SOL    HW229147   2.974   8.762   6.476 -0.8125  0.9151  1.5074
 9311SOL     OW29148   3.023   8.082   7.510  0.2668 -0.2770 -0.4778
 9311SOL    HW129149   3.037   8.107   7.601 -1.4910  0.7029 -0.4380
 9311SOL    HW229150   3.096   8.123   7.463  1.1148 -0.6785  0.4456
 9312SOL     OW29151   2.741   7.899   5.940 -0.4813  0.2718 -0.0966
 9312SOL    HW129152   2.747   7.808   5.913 -0.6753  0.7584 -1.9354
 9312SOL    HW229153   2.817   7.912   5.997 -1.7146 -1.5956  2.1158
 9313SOL     OW29154   2.343   8.578   7.480  0.3660  0.5221 -0.2283
 9313SOL    HW129155   2.255   8.543   7.470  0.1940  0.5321  1.0300
 9313SOL    HW229156   2.401   8.506   7.455  0.0386 -1.2161  3.3330
 9314SOL     OW29157   2.574   8.126   6.587  0.4667 -0.4127 -0.4195
 9314SOL    HW129158   2.543   8.056   6.530  0.1511 -1.2499  0.7360
 9314SOL    HW229159   2.596   8.082   6.669 -0.9078  0.9702  0.7666
 9315SOL     OW29160   3.061   7.627   6.170 -0.3353  0.3177 -0.2694
 9315SOL    HW129161   3.104   7.553   6.126 -0.5620  0.0737 -0.0849
 9315SOL    HW229162   2.982   7.589   6.209  0.2304  0.3785  0.9709
 9316SOL     OW29163   2.981   8.381   7.242  0.3174  0.5889 -0.6296
 9316SOL    HW129164   2.895   8.342   7.257  0.9801 -0.5855  0.2553
 9316SOL    HW229165   3.009   8.411   7.328  0.8599  0.8660 -0.8986
 9317SOL     OW29166   2.326   8.227   6.245 -0.7337  0.0131 -0.2251
 9317SOL    HW129167   2.309   8.216   6.339 -0.2979  1.2983  0.0238
 9317SOL    HW229168   2.359   8.141   6.217  0.0507 -0.1182  1.0095
 9318SOL     OW29169   2.337   8.187   5.537 -0.3343 -0.1402  0.0750
 9318SOL    HW129170   2.306   8.120   5.475  0.1396  0.7689 -1.1872
 9318SOL    HW229171   2.368   8.258   5.481 -0.7845  1.1225  1.3907
 9319SOL     OW29172   3.328   7.656   7.018 -0.0516  0.2552 -0.2367
 9319SOL    HW129173   3.325   7.636   6.925 -0.5338  1.4543 -0.4939
 9319SOL    HW229174   3.421   7.671   7.036  0.0331  0.0819 -0.5292
 9320SOL     OW29175   1.991   8.203   6.818 -0.3351  0.0378 -0.2236
 9320SOL    HW129176   1.966   8.116   6.785  0.0661  0.1508 -0.8285
 9320SOL    HW229177   1.993   8.259   6.741 -0.2022  0.5020  0.1107
 9321SOL     OW29178   2.941   8.063   5.830 -0.0103  0.3091  0.0484
 9321SOL    HW129179   2.861   8.030   5.872  1.0982 -1.3965  0.9167
 9321SOL    HW229180   2.991   7.984   5.809  1.7421  1.3563  0.1207
 9322SOL     OW29181   3.505   8.366   5.813  0.5190  0.1467 -0.0576
 9322SOL    HW129182   3.590   8.349   5.772  0.6297 -0.4725  0.4145
 9322SOL    HW229183   3.445   8.379   5.740  1.2467  1.8112 -0.4008
 9323SOL     OW29184   1.962   7.805   7.129  0.0078 -0.0610 -0.3866
 9323SOL    HW129185   1.889   7.830   7.073  0.4538 -1.2166 -1.5101
 9323SOL    HW229186   2.029   7.772   7.069  0.6137 -1.0583  0.7985
 9324SOL     OW29187   2.470   8.633   6.011 -0.0706  0.2438 -0.0914
 9324SOL    HW129188   2.530   8.558   6.008 -0.3817 -0.0247  0.3873
 9324SOL    HW229189   2.512   8.698   5.955 -0.2668 -0.6247 -1.2990
 9325SOL     OW29190   3.054   8.266   6.886  0.0235 -0.1474 -0.3356
 9325SOL    HW129191   2.977   8.220   6.853  1.0896 -1.7621 -0.6409
 9325SOL    HW229192   3.112   8.197   6.918  1.7393  0.9568 -0.9269
 9326SOL     OW29193   2.884   7.370   6.403  0.7427 -0.1798 -0.5507
 9326SOL    HW129194   2.821   7.383   6.333 -0.0663 -1.0486 -0.0147
 9326SOL    HW229195   2.928   7.288   6.381  0.2208 -0.6559  0.1313
 9327SOL     OW29196   2.384   8.531   6.753  0.0234 -0.0997  0.4550
 9327SOL    HW129197   2.475   8.562   6.753 -0.1876  0.6040 -0.8974
 9327SOL    HW229198   2.384   8.454   6.697 -0.4245  0.6624 -0.6319
 9328SOL     OW29199   3.319   7.740   5.763  0.2634 -0.3307 -0.2658
 9328SOL    HW129200   3.382   7.691   5.815  1.2114 -0.8730 -1.8428
 9328SOL    HW229201   3.373   7.795   5.706 -0.7195  0.0189 -0.8836
 9329SOL     OW29202   2.673   7.730   6.956  0.3213 -0.5676  0.4507
 9329SOL    HW129203   2.677   7.722   7.051 -1.0142 -0.9030  0.4997
 9329SOL    HW229204   2.764   7.736   6.928  0.7001  0.3748  1.8160
 9330SOL     OW29205   3.165   0.005   6.356  0.5093  0.5064 -0.0416
 9330SOL    HW129206   3.181  -0.058   6.426 -0.2432  1.1688  0.7513
 9330SOL    HW229207   3.139  -0.049   6.281  0.5434 -0.1662  0.4217
 9331SOL     OW29208   2.289   8.016   5.348  0.2758  0.4326  0.2626
 9331SOL    HW129209   2.233   8.013   5.270  2.6789 -1.1120 -1.5586
 9331SOL    HW229210   2.278   7.930   5.389  0.5136  0.5081  0.4872
 9332SOL     OW29211   2.963   7.942   6.493  0.7746  0.1415  0.5876
 9332SOL    HW129212   2.916   7.868   6.530  0.5756  0.7988  1.6844
 9332SOL    HW229213   3.041   7.951   6.548  2.0467 -0.7151 -0.9864
 9333SOL     OW29214   2.656   7.930   6.766  0.4881  0.4116  0.1755
 9333SOL    HW129215   2.653   7.862   6.699 -1.2730  0.4459  0.1804
 9333SOL    HW229216   2.614   7.891   6.842  0.0814  1.2656  0.4024
 9334SOL     OW29217   3.106   7.799   6.978 -0.1690 -0.0116 -0.1471
 9334SOL    HW129218   3.085   7.821   7.069  0.9651  1.2594 -0.1611
 9334SOL    HW229219   3.184   7.746   6.983  0.5106  0.9324 -0.4067
 9335SOL     OW29220   2.830   8.165   6.769  0.0123 -0.3346 -0.7152
 9335SOL    HW129221   2.815   8.072   6.787 -0.8097  0.0960  1.1268
 9335SOL    HW229222   2.799   8.178   6.679  0.2545 -1.8552 -1.0388
 9336SOL     OW29223   2.195   7.962   6.942 -1.0416 -0.2499 -0.2743
 9336SOL    HW129224   2.148   8.044   6.954 -0.5098  0.1094 -0.6075
 9336SOL    HW229225   2.280   7.976   6.985 -1.5913 -1.2520  1.2493
 9337SOL     OW29226   3.136   8.250   5.924 -0.0505 -0.1874  0.3596
 9337SOL    HW129227   3.053   8.213   5.953  0.1231 -0.6013  0.3321
 9337SOL    HW229228   3.197   8.176   5.924  0.6786  0.3846  1.7258
 9338SOL     OW29229   1.479   8.127   6.797  0.0096  0.0639 -0.2161
 9338SOL    HW129230   1.492   8.033   6.786 -0.3682  0.0956 -0.9681
 9338SOL    HW229231   1.437   8.155   6.716  1.8790  1.2079 -0.8468
 9339SOL     OW29232   2.659   7.831   5.512 -0.3495 -0.0455  0.0342
 9339SOL    HW129233   2.607   7.758   5.545  0.3137 -0.2112  0.7205
 9339SOL    HW229234   2.670   7.889   5.587  1.0680 -0.3707  0.0990
 9340SOL     OW29235   3.682   8.387   7.404  0.4031 -0.1528 -0.3990
 9340SOL    HW129236   3.714   8.393   7.314 -0.5256  1.5365 -0.6542
 9340SOL    HW229237   3.700   8.297   7.430  2.1716 -0.2317 -1.7097
 9341SOL     OW29238   3.090   8.668   6.160  0.1003  0.4598  0.8112
 9341SOL    HW129239   3.166   8.620   6.127 -0.3694  0.5042 -0.3783
 9341SOL    HW229240   3.016   8.609   6.143 -0.2340  0.7768  1.1668
 9342SOL     OW29241   2.515   7.381   6.349 -0.1596 -0.1569 -0.3202
 9342SOL    HW129242   2.545   7.402   6.438  1.4228  1.4525 -1.1802
 9342SOL    HW229243   2.560   7.300   6.327 -0.3372 -0.4114  0.2175
 9343SOL     OW29244   3.597   8.079   6.604  0.3231 -0.1424 -0.0440
 9343SOL    HW129245   3.548   8.108   6.526 -1.4031 -0.0052  1.0392
 9343SOL    HW229246   3.675   8.134   6.604  0.5017 -0.3269 -1.8274
 9344SOL     OW29247   2.072   8.505   5.577  0.0455  0.2049  0.2954
 9344SOL    HW129248   2.003   8.447   5.609  0.4859 -0.6647 -0.2961
 9344SOL    HW229249   2.033   8.547   5.500 -0.1291  0.3717  0.4752
 9345SOL     OW29250   3.033   8.088   6.262  0.2485 -0.0991  0.4811
 9345SOL    HW129251   3.018   8.057   6.351  1.2796 -0.7002  0.4618
 9345SOL    HW229252   2.992   8.021   6.206 -1.5852  0.9464  0.4881
 9346SOL     OW29253   2.164   8.580   6.928  0.0651 -0.5848  0.1770
 9346SOL    HW129254   2.204   8.655   6.971 -1.3172 -0.0672  0.6001
 9346SOL    HW229255   2.230   8.551   6.865  1.5769 -0.5140  1.6528
 9347SOL     OW29256   2.295   7.720   7.118 -0.1188  0.5359 -0.2835
 9347SOL    HW129257   2.319   7.812   7.108 -0.2054  0.7212  0.9859
 9347SOL    HW229258   2.208   7.722   7.158  0.2065 -0.0848  0.4840
 9348SOL     OW29259   3.820   8.731   5.880 -0.0028 -0.8389  0.2732
 9348SOL    HW129260   3.861   8.792   5.818 -1.1748 -0.0881  0.2107
 9348SOL    HW229261   3.758   8.785   5.930  0.2187 -1.6286  1.4482
 9349SOL     OW29262   3.056   7.281   5.624 -0.1878  0.2481  0.7347
 9349SOL    HW129263   3.123   7.348   5.640 -1.2467  1.9378 -1.4420
 9349SOL    HW229264   3.033   7.291   5.532 -1.3979 -2.2399  0.6799
 9350SOL     OW29265   1.578   7.917   6.560  0.3725  0.1795 -0.5465
 9350SOL    HW129266   1.564   7.907   6.466  3.6132 -2.9569 -0.8905
 9350SOL    HW229267   1.501   7.876   6.600  0.0299 -0.4908 -1.8500
 9351SOL     OW29268   3.286   7.411   7.998 -0.4248  0.3817 -0.2456
 9351SOL    HW129269   3.224   7.465   7.948  0.9854  1.1907 -1.2024
 9351SOL    HW229270   3.319   7.348   7.934  0.4908  0.6301 -0.0374
 9352SOL     OW29271   2.170   6.845   5.700 -0.0521 -0.3655 -0.5375
 9352SOL    HW129272   2.184   6.902   5.625  0.4676 -0.7128 -0.7061
 9352SOL    HW229273   2.099   6.787   5.673 -1.0214  0.5918 -0.1350
 9353SOL     OW29274   2.865   7.155   7.198  0.8200  0.2428 -0.3691
 9353SOL    HW129275   2.860   7.250   7.205  0.3261  0.1840  0.2110
 9353SOL    HW229276   2.934   7.130   7.260 -0.1221  0.1147  0.6698
 9354SOL     OW29277   3.138   7.613   6.578  0.4186  0.3435 -0.0660
 9354SOL    HW129278   3.051   7.609   6.538  0.9044 -0.4868 -1.0925
 9354SOL    HW229279   3.137   7.542   6.643  0.6757 -0.3800 -0.8343
 9355SOL     OW29280   2.598   7.744   6.547 -1.0636 -0.0811 -0.7793
 9355SOL    HW129281   2.549   7.799   6.486 -0.8683 -0.4468 -1.2696
 9355SOL    HW229282   2.558   7.658   6.540  0.1850 -0.6070 -1.8337
 9356SOL     OW29283   2.529   7.625   6.168  0.1622  0.4755  0.4909
 9356SOL    HW129284   2.434   7.619   6.155  0.2431 -0.7047  0.3929
 9356SOL    HW229285   2.550   7.554   6.228  0.6636  2.2189  2.5212
 9357SOL     OW29286   3.190   8.342   6.436 -0.5275  0.8675  0.0864
 9357SOL    HW129287   3.108   8.342   6.486 -0.6295 -1.5858  0.0238
 9357SOL    HW229288   3.257   8.317   6.500  0.5138  4.0518  0.4507
 9358SOL     OW29289   1.887   7.220   5.616  0.0701 -0.3215 -0.2518
 9358SOL    HW129290   1.908   7.126   5.621 -0.1814 -0.3605  0.0780
 9358SOL    HW229291   1.823   7.226   5.545 -0.5496 -0.5150  0.2840
 9359SOL     OW29292   2.983   7.496   5.808  0.5312  0.7260 -0.5773
 9359SOL    HW129293   2.949   7.410   5.782 -0.2422  1.1236 -0.9477
 9359SOL    HW229294   3.038   7.479   5.884 -0.2205 -0.0026 -0.1823
 9360SOL     OW29295   2.852   7.900   7.424 -0.0192 -0.2849  0.2108
 9360SOL    HW129296   2.926   7.948   7.462  0.4755 -1.4228  0.7425
 9360SOL    HW229297   2.878   7.808   7.431 -1.7604 -0.7479  0.9826
 9361SOL     OW29298   2.963   0.254   6.181 -0.3802 -0.0436 -0.1244
 9361SOL    HW129299   3.047   0.235   6.140 -0.5089 -1.5148  0.2038
 9361SOL    HW229300   2.923   0.321   6.126  1.7685  2.0822  0.7833
 9362SOL     OW29301   2.200   8.012   5.829  0.3387  0.3074 -0.0058
 9362SOL    HW129302   2.261   7.949   5.867 -0.6540 -0.2134  0.7787
 9362SOL    HW229303   2.146   7.960   5.768 -1.0560  0.1680  1.2860
 9363SOL     OW29304   3.133   7.609   5.437 -0.4066  0.0603  0.2591
 9363SOL    HW129305   3.219   7.579   5.408 -0.8065  0.2114 -1.1548
 9363SOL    HW229306   3.133   7.703   5.419 -0.2137  0.4242  1.9862
 9364SOL     OW29307   1.963   8.211   6.519 -0.1347 -0.0109 -0.2609
 9364SOL    HW129308   1.950   8.128   6.473  0.0592 -0.0761 -0.2017
 9364SOL    HW229309   1.956   8.277   6.450  2.4061 -0.2421 -0.8454
 9365SOL     OW29310   2.557   7.094   6.890  0.0235 -0.2411 -0.0080
 9365SOL    HW129311   2.554   7.119   6.798  2.5289  1.5294  0.2667
 9365SOL    HW229312   2.537   7.175   6.937 -1.3815 -1.1540  1.0409
 9366SOL     OW29313   2.750   7.648   5.865 -0.7103 -0.1246 -0.3265
 9366SOL    HW129314   2.679   7.610   5.813 -0.4525 -0.5382 -0.3783
 9366SOL    HW229315   2.829   7.606   5.833 -0.6080 -0.9008  0.8477
 9367SOL     OW29316   2.585   7.081   6.631  0.1724  0.0734 -0.0148
 9367SOL    HW129317   2.561   7.065   6.540 -1.5039  1.2535  0.1723
 9367SOL    HW229318   2.678   7.056   6.636 -0.0643 -1.3738 -1.6661
 9368SOL     OW29319   3.441   8.705   6.565 -0.3758 -0.5234  0.4508
 9368SOL    HW129320   3.469   8.641   6.629  0.8885 -0.5299 -0.0766
 9368SOL    HW229321   3.416   8.782   6.616 -0.0316 -0.7656  0.9865
 9369SOL     OW29322   3.290   7.997   6.268 -0.1488  0.5187 -0.1909
 9369SOL    HW129323   3.208   8.045   6.255 -0.1558  1.8849  3.6445
 9369SOL    HW229324   3.265   7.905   6.257 -1.3593  1.0224 -2.3505
 9370SOL     OW29325   3.425   8.253   6.069  0.7107  0.4801 -0.3111
 9370SOL    HW129326   3.481   8.318   6.110  0.6749  0.1901  0.2049
 9370SOL    HW229327   3.427   8.275   5.975  1.3493  0.7190 -0.2447
 9371SOL     OW29328   3.644   0.062   5.997  0.1968 -0.1117 -0.6943
 9371SOL    HW129329   3.583   0.136   5.999 -0.4979 -0.6339 -1.8100
 9371SOL    HW229330   3.635   0.022   6.084 -1.7458 -0.6992 -1.1006
 9372SOL     OW29331   3.271   7.435   5.717 -0.5924  0.5635 -0.6849
 9372SOL    HW129332   3.355   7.422   5.674 -0.2608 -0.7182  0.2911
 9372SOL    HW229333   3.250   7.527   5.701  0.7371  0.7686 -1.3806
 9373SOL     OW29334   2.090   7.324   5.920  0.8570 -0.4566 -0.4250
 9373SOL    HW129335   2.010   7.376   5.910 -0.4911 -2.4168 -0.4116
 9373SOL    HW229336   2.107   7.325   6.015 -0.4901 -1.8717 -0.1379
 9374SOL     OW29337   3.834   8.416   7.188  0.2182 -0.2586  0.6869
 9374SOL    HW129338   3.928   8.421   7.206  0.2050  1.2521  0.4600
 9374SOL    HW229339   3.818   8.485   7.124 -0.9472 -0.9178  0.2277
 9375SOL     OW29340   3.055   0.186   6.681 -0.2406  0.1288  0.1409
 9375SOL    HW129341   3.028   0.125   6.750  1.3382 -1.0129 -0.1784
 9375SOL    HW229342   2.977   0.198   6.627 -0.4081 -2.4482 -0.3458
 9376SOL     OW29343   3.105   8.698   6.615 -0.3096  0.0219  0.0684
 9376SOL    HW129344   3.176   8.734   6.667 -1.1133  1.6429  0.1114
 9376SOL    HW229345   3.091   8.610   6.650 -0.0855  0.6481  1.8284
 9377SOL     OW29346   3.457   8.527   6.773 -0.0713 -0.0560  0.1054
 9377SOL    HW129347   3.411   8.557   6.852 -1.2872 -0.6913 -0.3363
 9377SOL    HW229348   3.403   8.456   6.740 -0.5138  1.2670 -2.2299
 9378SOL     OW29349   2.518   7.539   6.857 -0.0597 -0.2958  0.7493
 9378SOL    HW129350   2.438   7.586   6.835  0.1897 -0.3884 -0.4615
 9378SOL    HW229351   2.577   7.606   6.891 -0.2825 -0.0301  0.6128
 9379SOL     OW29352   2.664   8.367   6.952  0.5300 -0.5572 -0.0489
 9379SOL    HW129353   2.718   8.330   6.881 -0.2238 -1.9969  0.1006
 9379SOL    HW229354   2.691   8.319   7.030 -1.2693 -1.6511 -0.0502
 9380SOL     OW29355   2.423   8.409   5.777 -0.3253  0.4228 -0.3443
 9380SOL    HW129356   2.498   8.353   5.795 -0.6375  0.6984  2.2076
 9380SOL    HW229357   2.448   8.459   5.699  2.2043  0.5854  0.4863
 9381SOL     OW29358   2.502   8.353   6.464 -0.4383 -0.1947 -0.2653
 9381SOL    HW129359   2.531   8.278   6.515  0.0290 -0.4146 -0.8317
 9381SOL    HW229360   2.428   8.321   6.413 -0.8437 -0.0035  0.2056
 9382SOL     OW29361   2.885   7.604   6.776 -0.1913  0.1172  0.3282
 9382SOL    HW129362   2.954   7.613   6.842 -1.8149 -0.2485  2.1707
 9382SOL    HW229363   2.855   7.513   6.785 -0.0162 -0.1658 -1.4345
 9383SOL     OW29364   2.145   8.278   5.791 -0.3681 -0.7469  0.0902
 9383SOL    HW129365   2.232   8.311   5.772 -1.0018  0.1087 -1.5015
 9383SOL    HW229366   2.159   8.186   5.815  0.8926 -0.8781 -1.0195
 9384SOL     OW29367   1.970   7.704   6.281  0.6841  0.1939  0.1144
 9384SOL    HW129368   1.906   7.645   6.321  0.4056  1.5893  1.8219
 9384SOL    HW229369   1.926   7.740   6.205 -0.0012 -0.0116  0.4087
 9385SOL     OW29370   3.175   0.162   6.015  0.6332 -0.3466 -0.0408
 9385SOL    HW129371   3.183   0.076   6.056 -0.1801 -1.0186 -1.2156
 9385SOL    HW229372   3.265   0.188   5.995  0.8151 -1.8643 -1.4588
 9386SOL     OW29373   3.519   7.942   6.011  0.5090  0.3763  0.1129
 9386SOL    HW129374   3.468   8.006   6.061  0.0596  0.2257 -0.1427
 9386SOL    HW229375   3.609   7.954   6.040  0.2944  0.5003  0.7349
 9387SOL     OW29376   2.458   8.392   7.304  0.0343 -0.2614  0.7120
 9387SOL    HW129377   2.543   8.427   7.331 -0.3009  0.4487  0.8434
 9387SOL    HW229378   2.459   8.302   7.336  1.3447 -0.7637 -0.5711
 9388SOL     OW29379   3.940   7.978   7.186 -0.0954 -0.7768  0.3778
 9388SOL    HW129380   3.910   8.052   7.132 -0.5596 -1.6781 -0.6319
 9388SOL    HW229381   3.894   7.902   7.150  1.1916 -1.7404  0.7050
 9389SOL     OW29382   3.317   7.772   7.750 -0.7568 -0.1852 -0.3723
 9389SOL    HW129383   3.258   7.786   7.824 -0.9280 -2.4680 -0.0052
 9389SOL    HW229384   3.288   7.689   7.712  1.0006 -0.3696 -1.3966
 9390SOL     OW29385   2.242   7.481   6.961  0.4415  0.0662 -0.2185
 9390SOL    HW129386   2.292   7.552   7.001 -0.8818 -0.2538  2.1738
 9390SOL    HW229387   2.275   7.402   7.004  1.0473 -0.6872 -1.9755
 9391SOL     OW29388   2.790   8.390   6.602 -0.8152  0.3746  0.3083
 9391SOL    HW129389   2.744   8.368   6.521 -0.7068 -0.4782  0.4734
 9391SOL    HW229390   2.744   8.468   6.634 -1.7952 -0.1190  0.1655
 9392SOL     OW29391   3.046   8.419   6.664  0.6628  1.1319  0.2066
 9392SOL    HW129392   3.066   8.367   6.742  1.6651  0.7336 -0.3069
 9392SOL    HW229393   2.954   8.400   6.646  0.4666  1.0838  1.1777
 9393SOL     OW29394   2.768   8.191   5.623 -0.2153  0.0457 -0.3624
 9393SOL    HW129395   2.845   8.170   5.676 -0.6064  1.0867  0.6657
 9393SOL    HW229396   2.702   8.128   5.651 -0.3076  0.3588  0.1340
 9394SOL     OW29397   2.160   7.647   6.628 -0.1615  0.4615 -0.1374
 9394SOL    HW129398   2.208   7.678   6.704 -1.0396  1.8193 -0.0900
 9394SOL    HW229399   2.121   7.564   6.655 -0.1132  0.7245  0.7515
 9395SOL     OW29400   1.911   8.659   6.915  0.3920 -0.0761 -0.5457
 9395SOL    HW129401   1.995   8.614   6.919  0.2425 -0.6376 -2.4673
 9395SOL    HW229402   1.846   8.588   6.917 -0.0126  0.3140  0.3079
 9396SOL     OW29403   2.522   7.997   6.200 -0.1349 -0.0410  0.2579
 9396SOL    HW129404   2.501   7.974   6.109 -2.0745  1.1963  0.3326
 9396SOL    HW229405   2.590   7.935   6.225  0.0121 -0.8182 -1.8369
 9397SOL     OW29406   3.451   8.789   7.181  0.3851  0.6887  0.7760
 9397SOL    HW129407   3.542   8.765   7.164  0.3978  1.9250 -1.1487
 9397SOL    HW229408   3.428   8.849   7.110 -2.0243  0.1954  1.0681
 9398SOL     OW29409   2.066   7.334   6.179 -0.2618  0.2197 -0.3918
 9398SOL    HW129410   2.145   7.312   6.229 -1.0790 -2.5355 -0.1719
 9398SOL    HW229411   1.999   7.349   6.246 -0.3428  0.8247 -0.6071
 9399SOL     OW29412   3.572   7.401   5.891 -0.7962  0.0409  0.1524
 9399SOL    HW129413   3.630   7.418   5.817  0.6178  0.3114  1.2753
 9399SOL    HW229414   3.529   7.485   5.908  0.1960  0.4502  0.7113
 9400SOL     OW29415   2.255   7.584   6.278 -0.0621  0.1722 -0.9941
 9400SOL    HW129416   2.280   7.521   6.346  0.1633 -0.5092 -1.6885
 9400SOL    HW229417   2.163   7.603   6.296  0.4476  1.3771  0.5597
 9401SOL     OW29418   3.003   8.517   7.009  0.0527 -0.6371  0.3552
 9401SOL    HW129419   3.011   8.475   7.095  3.9466  0.2192  0.5642
 9401SOL    HW229420   3.019   8.447   6.946 -1.0911 -0.9038  0.3263
 9402SOL     OW29421   2.362   8.641   7.152  0.3850  0.1471 -0.0073
 9402SOL    HW129422   2.431   8.678   7.097  0.1278 -2.4798 -2.2690
 9402SOL    HW229423   2.404   8.571   7.201 -0.3004 -0.3942 -0.1715
 9403SOL     OW29424   3.265   7.007   5.678 -0.5579 -0.0994 -0.1133
 9403SOL    HW129425   3.260   7.093   5.636  0.5481 -1.0540 -2.3707
 9403SOL    HW229426   3.353   7.003   5.717 -0.3987 -0.3979 -0.4943
 9404SOL     OW29427   3.095   8.299   5.651  0.1085  0.4502 -0.1248
 9404SOL    HW129428   3.076   8.279   5.743 -1.8097  1.0410 -0.3403
 9404SOL    HW229429   3.113   8.214   5.612  2.4375  0.3319  1.0602
 9405SOL     OW29430   2.260   7.996   6.547  0.0808 -0.3149  0.0643
 9405SOL    HW129431   2.169   7.968   6.554 -0.3498  1.2375  1.4302
 9405SOL    HW229432   2.303   7.927   6.496 -2.1376 -0.4039 -1.8525
 9406SOL     OW29433   2.323   7.777   6.807 -0.3583  0.5858 -0.0042
 9406SOL    HW129434   2.339   7.843   6.738 -0.6037  0.2398 -0.3974
 9406SOL    HW229435   2.261   7.819   6.866 -1.3786  0.3079 -0.8541
 9407SOL     OW29436   3.101   7.800   7.246  0.7912  0.2547 -0.3539
 9407SOL    HW129437   3.173   7.752   7.287  0.7248 -0.3334 -0.8936
 9407SOL    HW229438   3.042   7.822   7.318  2.1555  1.9402  0.2955
 9408SOL     OW29439   2.575   7.336   7.026 -0.0252 -0.4585  0.3308
 9408SOL    HW129440   2.553   7.400   6.958 -3.3238 -1.4511  0.2720
 9408SOL    HW229441   2.542   7.376   7.107  0.1458 -1.0354  0.6888
 9409SOL     OW29442   1.979   8.424   5.976  0.3531 -0.0334  0.4378
 9409SOL    HW129443   2.049   8.445   5.914  0.6070  1.4703  1.1907
 9409SOL    HW229444   2.021   8.370   6.043  0.0440 -1.7932 -0.7232
 9410SOL     OW29445   3.087   7.854   6.693  0.4138  0.2007 -0.0079
 9410SOL    HW129446   3.106   7.771   6.649  1.3903  0.2977  0.2228
 9410SOL    HW229447   3.080   7.832   6.786  0.4047  0.3306  0.0233
 9411SOL     OW29448   2.405   8.207   7.026 -0.7220 -0.6506  0.4516
 9411SOL    HW129449   2.457   8.280   6.991  0.0161  0.1342  2.9391
 9411SOL    HW229450   2.331   8.249   7.070  0.1664 -1.2616  2.6525
 9412SOL     OW29451   2.301   7.876   7.843 -0.3156  0.0224  0.0881
 9412SOL    HW129452   2.328   7.806   7.784 -0.3237  0.5412 -0.5360
 9412SOL    HW229453   2.206   7.869   7.847 -0.3211  0.0441 -0.0220
 9413SOL     OW29454   3.539   8.131   6.880  0.4771  0.2866 -0.0214
 9413SOL    HW129455   3.549   8.118   6.786 -0.9128  0.2214 -0.1835
 9413SOL    HW229456   3.446   8.151   6.892  0.4184 -0.6839  1.4330
 9414SOL     OW29457   2.661   7.356   5.881  0.0786  0.2172  0.0385
 9414SOL    HW129458   2.744   7.308   5.888 -0.2441 -0.3836 -0.1361
 9414SOL    HW229459   2.660   7.389   5.792 -0.7158 -1.4110 -0.6027
 9415SOL     OW29460   4.050   7.458   6.761 -0.1138 -0.1851  0.0424
 9415SOL    HW129461   4.032   7.510   6.683 -1.3062 -1.2070 -0.4066
 9415SOL    HW229462   4.109   7.388   6.731 -1.3585 -1.1631 -0.2116
 9416SOL     OW29463   2.361   7.811   6.367 -0.6822 -0.0504 -0.9498
 9416SOL    HW129464   2.399   7.842   6.285 -0.0479  1.7843 -0.0149
 9416SOL    HW229465   2.316   7.730   6.343  0.6874 -0.3296 -2.8175
 9417SOL     OW29466   2.324   7.170   5.846 -0.5152  0.6419 -0.4433
 9417SOL    HW129467   2.228   7.171   5.855 -0.6043  1.0898 -1.3617
 9417SOL    HW229468   2.355   7.229   5.915 -0.8519 -0.0467  0.3103
 9418SOL     OW29469   2.172   8.268   7.283  0.3237 -0.0883  0.2943
 9418SOL    HW129470   2.155   8.246   7.192 -0.6628 -1.0956  0.6925
 9418SOL    HW229471   2.248   8.326   7.281  2.1804 -2.4288 -0.9709
 9419SOL     OW29472   3.246   8.043   6.881  0.4627 -0.1918 -0.3289
 9419SOL    HW129473   3.213   7.961   6.918 -0.0942  0.1910  0.0361
 9419SOL    HW229474   3.227   8.035   6.787  2.5213 -1.4649 -0.6913
 9420SOL     OW29475   3.055   7.803   5.776  0.1885  0.0086  0.0857
 9420SOL    HW129476   3.146   7.775   5.786  0.2191  0.3065  0.7069
 9420SOL    HW229477   3.008   7.723   5.753  0.3967 -0.4048  1.0563
 9421SOL     OW29478   2.235   8.254   6.511 -0.2098  0.2971 -0.5368
 9421SOL    HW129479   2.238   8.162   6.539  0.7302 -0.0876 -1.7964
 9421SOL    HW229480   2.146   8.283   6.531 -0.9364 -1.2845 -1.2941
 9422SOL     OW29481   3.551   7.687   5.908 -0.2286 -0.5245  0.4013
 9422SOL    HW129482   3.631   7.682   5.857 -0.3035 -1.8919  0.3947
 9422SOL    HW229483   3.565   7.761   5.967 -0.2158  1.2001 -1.6648
 9423SOL     OW29484   3.012   8.351   6.214  0.1614 -0.3302  0.1663
 9423SOL    HW129485   3.076   8.380   6.279 -0.0463 -1.6347  0.9863
 9423SOL    HW229486   3.006   8.257   6.227 -1.7712 -0.2689 -0.0524
 9424SOL     OW29487   2.707   0.012   6.708  0.4288 -0.2978 -0.5889
 9424SOL    HW129488   2.779  -0.024   6.759  0.2804 -0.1449 -0.2714
 9424SOL    HW229489   2.730  -0.008   6.617  0.7711 -0.4255 -0.4753
 9425SOL     OW29490   3.790   7.572   6.340 -0.2097  0.0558  0.7683
 9425SOL    HW129491   3.880   7.567   6.373  1.0546 -0.0659 -2.3484
 9425SOL    HW229492   3.767   7.665   6.347  1.1476  0.5427 -0.6055
 9426SOL     OW29493   2.018   7.845   6.523  0.1556 -0.1345 -0.1371
 9426SOL    HW129494   2.059   7.766   6.557 -0.2549  0.0387  0.7765
 9426SOL    HW229495   1.992   7.822   6.434 -0.7558 -1.3141  0.4187
 9427SOL     OW29496   2.650   8.561   6.757  0.8226 -0.2774  0.0053
 9427SOL    HW129497   2.718   8.626   6.774  0.8100  0.0467 -1.0944
 9427SOL    HW229498   2.645   8.509   6.837  1.4496  0.5224  0.5719
 9428SOL     OW29499   3.276   8.532   5.880  0.5492 -0.4829 -0.2266
 9428SOL    HW129500   3.226   8.460   5.921 -1.5329  0.9294 -0.1493
 9428SOL    HW229501   3.358   8.490   5.852 -1.0131 -3.1553 -1.1956
 9429SOL     OW29502   2.176   0.039   6.925  0.2070  0.0389 -0.1007
 9429SOL    HW129503   2.262   0.053   6.884 -0.5089  1.8418 -1.1250
 9429SOL    HW229504   2.114   0.047   6.852 -0.8906 -0.2922  0.7782
 9430SOL     OW29505   3.320   8.309   6.746 -0.2017 -0.5070  0.4997
 9430SOL    HW129506   3.298   8.292   6.837  2.7407 -2.7198  0.9499
 9430SOL    HW229507   3.285   8.234   6.698 -1.0802  0.2733 -0.1158
 9431SOL     OW29508   2.650   8.259   5.901 -0.3814  0.4078  0.3061
 9431SOL    HW129509   2.619   8.169   5.896  0.9429 -0.0811  0.4994
 9431SOL    HW229510   2.651   8.278   5.995 -1.5314  0.9622  0.2254
 9432SOL     OW29511   2.576   7.435   6.606 -0.4875  0.4996 -0.0513
 9432SOL    HW129512   2.587   7.499   6.676 -0.2419 -0.4813  0.8341
 9432SOL    HW229513   2.488   7.400   6.619 -0.1814 -0.1956  0.2253
 9433SOL     OW29514   3.827   7.765   7.060  0.4093 -0.3804 -0.1168
 9433SOL    HW129515   3.744   7.721   7.041 -0.7800  1.7056 -0.0458
 9433SOL    HW229516   3.881   7.698   7.102 -1.3019 -1.7510 -0.0123
 9434SOL     OW29517   1.909   8.489   7.309 -1.0630  0.3976  0.0444
 9434SOL    HW129518   1.988   8.530   7.273  0.7877 -1.6684  1.4711
 9434SOL    HW229519   1.862   8.561   7.351  1.3343  1.3687  1.2592
 9435SOL     OW29520   2.534   8.124   7.372  0.1362  0.0500 -0.0499
 9435SOL    HW129521   2.614   8.167   7.400 -0.5342  0.5761  1.1026
 9435SOL    HW229522   2.531   8.043   7.422  0.0258 -0.0448 -0.2072
 9436SOL     OW29523   1.622   7.578   5.470 -0.3790 -0.0835 -0.5352
 9436SOL    HW129524   1.562   7.652   5.459  0.4081  0.5565 -0.6642
 9436SOL    HW229525   1.593   7.514   5.405 -0.4278  0.5476 -1.1487
 9437SOL     OW29526   3.293   8.112   6.572 -0.0982 -0.2544 -0.2620
 9437SOL    HW129527   3.381   8.089   6.541  0.0621 -0.9845  0.6773
 9437SOL    HW229528   3.235   8.090   6.499  0.3721 -0.9918 -0.4296
 9438SOL     OW29529   1.997   7.480   5.645 -0.6467 -0.4762 -0.0276
 9438SOL    HW129530   1.920   7.535   5.664 -0.1783 -0.2691  1.3808
 9438SOL    HW229531   1.963   7.391   5.645 -0.7956 -0.4497  1.3393
 9439SOL     OW29532   2.460   7.954   7.135 -0.3156 -0.2613 -0.5927
 9439SOL    HW129533   2.454   8.048   7.117 -0.0570 -0.0590  0.3320
 9439SOL    HW229534   2.554   7.935   7.131 -0.2270 -0.1701  0.6789
 9440SOL     OW29535   2.789   7.672   7.753 -0.4033 -0.4417 -0.0102
 9440SOL    HW129536   2.809   7.766   7.748 -1.5403 -0.1488  0.7413
 9440SOL    HW229537   2.706   7.662   7.705 -0.4115 -1.0313  0.1158
 9441SOL     OW29538   3.379   0.134   6.994  0.9163 -0.1100 -0.3874
 9441SOL    HW129539   3.346   0.102   6.910  0.8847 -0.7176 -0.1435
 9441SOL    HW229540   3.334   0.218   7.007  0.1442 -0.5008 -0.4905
 9442SOL     OW29541   3.668   7.797   6.608  0.3415 -0.1077 -0.5204
 9442SOL    HW129542   3.637   7.882   6.640 -1.6836 -0.9666  0.0063
 9442SOL    HW229543   3.721   7.762   6.680 -0.8680 -0.3141  0.2989
 9443SOL     OW29544   3.145   7.412   5.999  0.0824 -0.2952 -0.2838
 9443SOL    HW129545   3.221   7.411   5.941  0.2075 -0.2609 -0.1218
 9443SOL    HW229546   3.177   7.374   6.081 -0.3197 -1.1577 -0.5166
 9444SOL     OW29547   2.465   7.913   5.948 -0.2747 -0.0976 -0.5155
 9444SOL    HW129548   2.434   7.824   5.929  0.1402 -0.3655  0.0171
 9444SOL    HW229549   2.561   7.905   5.950 -0.1540  0.6655 -1.9017
 9445SOL     OW29550   3.497   7.628   7.269 -0.2851 -0.0702 -0.6457
 9445SOL    HW129551   3.508   7.533   7.265 -1.2286 -0.2743  1.0198
 9445SOL    HW229552   3.566   7.658   7.328  0.4044  0.3727 -1.6547
 9446SOL     OW29553   3.777   8.170   7.046 -0.1151 -0.0586 -0.2489
 9446SOL    HW129554   3.694   8.181   6.999 -0.3507 -0.2153  0.1168
 9446SOL    HW229555   3.784   8.248   7.101 -0.2718 -0.2741  0.0855
 9447SOL     OW29556   2.599   8.767   5.785  0.0114  0.0528 -0.2881
 9447SOL    HW129557   2.610   8.680   5.747  0.0166 -0.0717  0.0028
 9447SOL    HW229558   2.681   8.812   5.764  0.6686 -0.5275  0.9396
 9448SOL     OW29559   2.723   7.859   6.317 -0.3896 -0.2284  0.1945
 9448SOL    HW129560   2.748   7.931   6.376 -0.7516 -0.2934  0.4298
 9448SOL    HW229561   2.737   7.780   6.369  0.2146 -0.3439 -0.1375
 9449SOL     OW29562   3.169   8.632   5.653  0.4197 -0.6145 -0.0031
 9449SOL    HW129563   3.078   8.614   5.633 -0.8611  2.7445  1.9203
 9449SOL    HW229564   3.191   8.571   5.724 -0.1628 -1.6287 -0.6650
 9450SOL     OW29565   2.118   8.637   7.222  0.6117  0.4544  0.2953
 9450SOL    HW129566   2.091   8.729   7.226  0.1158  0.4147 -1.4134
 9450SOL    HW229567   2.209   8.640   7.192 -0.2891  0.3718 -2.7624
 9451SOL     OW29568   2.190   8.544   5.841 -0.2192 -0.3093  0.0983
 9451SOL    HW129569   2.271   8.499   5.817 -0.3019 -0.8458  0.7933
 9451SOL    HW229570   2.153   8.574   5.758  2.7334  3.6716 -0.0975
 9452SOL     OW29571   2.561   8.813   6.995 -0.6971 -0.5350  0.1370
 9452SOL    HW129572   2.532   8.849   6.911 -0.8646  1.2338  0.9074
 9452SOL    HW229573   2.651   8.783   6.978 -0.0885  1.3716 -0.2927
 9453SOL     OW29574   3.569   7.341   7.096 -0.1120  0.1253 -0.2997
 9453SOL    HW129575   3.588   7.326   7.189  0.4686  0.7921 -0.3017
 9453SOL    HW229576   3.637   7.291   7.050 -1.4210 -1.6504 -0.4327
 9454SOL     OW29577   1.871   7.472   5.955 -0.1328  0.7105 -0.4135
 9454SOL    HW129578   1.797   7.419   5.925  0.9450 -0.6301 -0.7979
 9454SOL    HW229579   1.865   7.470   6.051 -0.2127  0.0131 -0.4241
 9455SOL     OW29580   3.210   0.274   6.399  0.4362 -0.3281 -0.3062
 9455SOL    HW129581   3.189   0.203   6.339  3.0340 -0.5660 -1.0184
 9455SOL    HW229582   3.145   0.266   6.469 -0.2916 -2.3862 -1.1494
 9456SOL     OW29583   2.139   8.307   7.037 -0.3222  0.0502 -0.2563
 9456SOL    HW129584   2.144   8.402   7.025  0.5896 -0.0062 -0.3913
 9456SOL    HW229585   2.087   8.276   6.963  1.8330  0.1374 -1.8770
 9457SOL     OW29586   3.489   7.589   6.526  0.0281 -0.0353  0.1366
 9457SOL    HW129587   3.400   7.586   6.560  0.2574 -1.9804  0.6985
 9457SOL    HW229588   3.532   7.659   6.575 -0.2186 -1.4589  2.4994
 9458SOL     OW29589   2.862   7.127   6.633  0.6391 -0.3099  0.3414
 9458SOL    HW129590   2.828   7.208   6.595  0.6033 -0.1537  0.7056
 9458SOL    HW229591   2.920   7.156   6.703 -0.4999 -0.6275  1.4329
 9459SOL     OW29592   2.708   8.503   5.807  0.1029 -0.0394 -0.0825
 9459SOL    HW129593   2.769   8.505   5.733 -0.4069 -1.5285 -0.6000
 9459SOL    HW229594   2.704   8.410   5.832  0.8521  0.5159  2.3469
 9460SOL     OW29595   3.528   7.018   5.762  0.4172 -0.1870 -0.0304
 9460SOL    HW129596   3.592   6.970   5.708  0.6808 -0.3104  0.3898
 9460SOL    HW229597   3.550   7.110   5.750 -1.0079 -0.0415 -2.0219
 9461SOL     OW29598   2.853   7.633   6.458 -0.5481 -0.3185  0.0590
 9461SOL    HW129599   2.820   7.629   6.548  1.1079 -0.1855  0.7077
 9461SOL    HW229600   2.858   7.541   6.430  1.9490 -0.6313  1.3033
 9462SOL     OW29601   3.654   7.800   6.322  0.4227  0.4745  0.1063
 9462SOL    HW129602   3.663   7.860   6.396 -0.3069  1.6537 -0.7421
 9462SOL    HW229603   3.593   7.733   6.352 -0.6583  1.4991  0.2517
 9463SOL     OW29604   1.931   8.062   6.193  0.2324 -0.8482 -0.2712
 9463SOL    HW129605   1.904   8.113   6.116  0.0311  2.1874  1.6399
 9463SOL    HW229606   1.901   7.973   6.175 -2.3738  0.3313 -2.4572
 9464SOL     OW29607   2.317   8.312   7.729 -0.2797  0.4935  0.3899
 9464SOL    HW129608   2.262   8.351   7.662  1.0324 -0.9588 -1.6618
 9464SOL    HW229609   2.333   8.223   7.698 -0.5459 -0.6516  3.2600
 9465SOL     OW29610   2.414   7.623   8.290  0.3258  0.1790  0.5002
 9465SOL    HW129611   2.479   7.607   8.222  1.9801 -0.8546  2.2416
 9465SOL    HW229612   2.385   7.536   8.317 -1.2524  0.6015  0.3159
 9466SOL     OW29613   2.415   8.187   8.371  0.0136  0.1169 -0.1999
 9466SOL    HW129614   2.496   8.235   8.356  0.2624 -0.4231 -0.6295
 9466SOL    HW229615   2.422   8.110   8.316 -1.3930  0.7250 -1.2952
 9467SOL     OW29616   2.782   8.824   8.639  0.2348  0.1281  0.4577
 9467SOL    HW129617   2.768   8.843   8.546  3.5367 -0.1426 -0.1912
 9467SOL    HW229618   2.769   8.909   8.682  0.7659  0.7339 -0.5421
 9468SOL     OW29619   3.637   0.271   8.581  0.1403  0.7260  0.1453
 9468SOL    HW129620   3.722   0.251   8.621  0.3322  0.9202 -0.1591
 9468SOL    HW229621   3.627   0.203   8.514 -0.4733  0.0203  0.9410
 9469SOL     OW29622   3.173   8.402   7.736  0.1464  0.0377  0.2498
 9469SOL    HW129623   3.206   8.449   7.813 -0.4431 -0.3945  0.7730
 9469SOL    HW229624   3.250   8.359   7.700  0.7060  1.3932 -0.2438
 9470SOL     OW29625   3.455   8.281   7.784 -0.1452 -0.3893 -0.4183
 9470SOL    HW129626   3.483   8.325   7.703  0.6898  0.4427  0.2883
 9470SOL    HW229627   3.492   8.193   7.778  0.5919 -0.0761 -0.6032
 9471SOL     OW29628   2.765   8.572   8.748  0.1783 -0.1297 -0.2105
 9471SOL    HW129629   2.760   8.664   8.722 -0.7368  0.6717  2.4948
 9471SOL    HW229630   2.683   8.534   8.717 -0.0568  0.3062 -0.1309
 9472SOL     OW29631   2.574   0.005   7.475 -0.4504  0.0390  0.1783
 9472SOL    HW129632   2.546  -0.082   7.503 -1.1976  0.0214 -0.5969
 9472SOL    HW229633   2.549   0.063   7.547 -2.4330  0.0099 -0.4231
 9473SOL     OW29634   2.714   0.034   8.393  0.1495 -0.2263 -0.5165
 9473SOL    HW129635   2.634   0.085   8.398  0.2152 -0.1973  0.3723
 9473SOL    HW229636   2.748   0.050   8.305 -0.5278  0.1923 -0.7026
 9474SOL     OW29637   2.182   7.688   0.094 -0.2458  0.2517  0.4722
 9474SOL    HW129638   2.151   7.746   0.164  0.5616 -0.1422  1.1724
 9474SOL    HW229639   2.153   7.731   0.013 -1.9355  0.2807  1.0516
 9475SOL     OW29640   3.247   8.085   8.748  0.2323  0.2968 -0.8897
 9475SOL    HW129641   3.250   8.052   8.838 -0.3516  2.8140  0.1386
 9475SOL    HW229642   3.339   8.095   8.723  0.4101 -1.4120 -1.0022
 9476SOL     OW29643   2.568   8.449   7.703  0.4135  0.0790 -0.0939
 9476SOL    HW129644   2.545   8.499   7.781  1.0268 -0.6819  0.5892
 9476SOL    HW229645   2.499   8.383   7.695  0.7011 -0.2542  0.1782
 9477SOL     OW29646   2.787   8.184   7.147  0.6170  0.3770  0.2674
 9477SOL    HW129647   2.870   8.136   7.146  0.1661 -0.4669  1.7202
 9477SOL    HW229648   2.731   8.136   7.208 -0.9702  0.9145 -0.6918
 9478SOL     OW29649   2.228   8.297   8.195 -0.2979  0.2071 -0.0475
 9478SOL    HW129650   2.140   8.264   8.177 -0.1073  0.2220 -1.0168
 9478SOL    HW229651   2.254   8.250   8.275 -0.9259 -0.2813 -0.1186
 9479SOL     OW29652   3.974   8.603   8.531  0.2124 -0.0437 -0.4550
 9479SOL    HW129653   3.885   8.595   8.567  0.1125 -1.2328 -0.9168
 9479SOL    HW229654   3.999   8.514   8.508  1.9414  0.1327  0.5815
 9480SOL     OW29655   3.545   8.617   8.386 -0.5182 -0.2564  0.4355
 9480SOL    HW129656   3.546   8.632   8.292 -2.1232 -4.7729 -0.5579
 9480SOL    HW229657   3.637   8.606   8.410 -0.1178  0.6546 -0.5999
 9481SOL     OW29658   2.836   0.186   7.859  0.8659  0.0172  0.0070
 9481SOL    HW129659   2.890   0.208   7.783  0.0898 -0.7661 -0.7892
 9481SOL    HW229660   2.896   0.139   7.918  0.9314 -1.4278 -1.1495
 9482SOL     OW29661   2.666   7.199   7.999 -0.7902  0.0388 -0.0430
 9482SOL    HW129662   2.636   7.127   7.943  0.9400 -1.9383  1.4359
 9482SOL    HW229663   2.686   7.270   7.937  1.9517 -2.3355 -2.2109
 9483SOL     OW29664   2.261   8.447   8.503  0.3260 -0.1568 -0.7282
 9483SOL    HW129665   2.338   8.393   8.485  1.3451  0.8150  0.5114
 9483SOL    HW229666   2.199   8.387   8.545  1.5407 -0.3441  0.8721
 9484SOL     OW29667   3.356   8.718   7.460  0.0963  0.2949  0.4461
 9484SOL    HW129668   3.363   8.766   7.378  2.5116  1.3003  1.1795
 9484SOL    HW229669   3.320   8.633   7.434 -0.3595  1.0124 -1.4522
 9485SOL     OW29670   3.271   0.072   8.393  0.1953 -0.2682 -0.0190
 9485SOL    HW129671   3.277   0.013   8.318  1.2720  0.7981 -0.8223
 9485SOL    HW229672   3.178   0.091   8.401 -0.0617 -1.3489 -0.3184
 9486SOL     OW29673   2.416   8.258   7.978  0.4414  0.2083  0.5581
 9486SOL    HW129674   2.384   8.264   7.888  2.1245 -0.2633 -0.1204
 9486SOL    HW229675   2.341   8.279   8.033 -1.0312 -1.0598 -0.9020
 9487SOL     OW29676   2.716   7.926   8.420  0.7163  0.8114 -0.2058
 9487SOL    HW129677   2.622   7.934   8.402  0.4508  0.4505  0.9423
 9487SOL    HW229678   2.723   7.849   8.476  1.7109  0.8342 -0.2805
 9488SOL     OW29679   2.501   8.414   8.766 -0.4580  0.3397 -0.3222
 9488SOL    HW129680   2.411   8.390   8.790 -0.6263  0.7608 -0.5212
 9488SOL    HW229681   2.538   8.333   8.731 -0.0749 -0.3986  1.6657
 9489SOL     OW29682   2.742   7.735   8.622 -0.6543 -0.0434  0.4028
 9489SOL    HW129683   2.694   7.696   8.695 -0.5876 -0.6234  0.1441
 9489SOL    HW229684   2.834   7.712   8.638 -0.5495  0.4476  0.5173
 9490SOL     OW29685   3.184   7.833   7.965  0.6061 -0.2196  0.1876
 9490SOL    HW129686   3.115   7.896   7.985 -0.1854 -1.0664  0.1481
 9490SOL    HW229687   3.164   7.756   8.018  1.5207 -0.4820  0.1817
 9491SOL     OW29688   1.915   8.432   8.395 -0.1349  0.5000  0.0051
 9491SOL    HW129689   1.824   8.461   8.401 -0.6412 -0.6251 -1.5588
 9491SOL    HW229690   1.963   8.509   8.367 -0.6286  1.0511  0.6432
 9492SOL     OW29691   3.071   8.136   7.750  0.7616 -0.1009  0.2599
 9492SOL    HW129692   3.086   8.231   7.750  1.1090 -0.1458  1.1272
 9492SOL    HW229693   3.046   8.116   7.840 -0.6960 -0.6341 -0.2299
 9493SOL     OW29694   3.245   0.100   7.859 -0.3877 -0.2609  0.0822
 9493SOL    HW129695   3.335   0.103   7.825  0.0257 -1.1519  1.0597
 9493SOL    HW229696   3.206   0.023   7.817 -0.0925 -0.9664  1.0929
 9494SOL     OW29697   2.609   7.756   8.018  0.3765 -0.7023 -0.3261
 9494SOL    HW129698   2.537   7.814   8.039 -1.9836 -2.5382 -2.6496
 9494SOL    HW229699   2.655   7.799   7.946  1.7193  0.4664  1.1542
 9495SOL     OW29700   4.271   8.635   8.501 -0.3047  0.2983  0.2899
 9495SOL    HW129701   4.282   8.638   8.596 -0.7576 -0.0773  0.3594
 9495SOL    HW229702   4.176   8.642   8.488 -0.6082 -2.8345  0.0352
 9496SOL     OW29703   2.124   8.398   7.535 -0.5634  0.1119  0.0165
 9496SOL    HW129704   2.034   8.387   7.565 -0.3700 -0.7793  0.2912
 9496SOL    HW229705   2.133   8.337   7.462 -0.6114  1.2604 -0.9800
 9497SOL     OW29706   3.619   8.674   8.116  0.0288  0.3000  0.1466
 9497SOL    HW129707   3.593   8.758   8.078  0.0023 -0.6089 -1.9762
 9497SOL    HW229708   3.673   8.633   8.049 -0.3341 -1.5727  0.9455
 9498SOL     OW29709   3.622   0.209   7.227 -0.2173  0.2864  0.3179
 9498SOL    HW129710   3.589   0.298   7.211 -1.5543 -0.4264 -1.1237
 9498SOL    HW229711   3.620   0.167   7.141  3.6591 -0.1580  0.2380
 9499SOL     OW29712   3.646   7.925   8.289  0.1614  0.4416 -0.5367
 9499SOL    HW129713   3.571   7.951   8.342  1.6006  0.7385  1.4607
 9499SOL    HW229714   3.666   8.003   8.236 -0.3147  0.6953 -0.3512
 9500SOL     OW29715   2.377   8.053   7.635  0.2177 -0.2343 -0.4978
 9500SOL    HW129716   2.460   8.017   7.603  0.2486 -0.9140  0.3263
 9500SOL    HW229717   2.360   8.008   7.717 -1.7863 -1.3081 -1.4143
 9501SOL     OW29718   2.860   7.095   8.158 -0.0591 -0.3404  0.2185
 9501SOL    HW129719   2.795   7.150   8.114 -0.0169  0.2679  0.8992
 9501SOL    HW229720   2.821   7.076   8.244 -0.1090 -1.4457 -0.0318
 9502SOL     OW29721   3.162   7.921   0.116  0.3110 -0.4146 -0.3443
 9502SOL    HW129722   3.177   7.848   0.175  2.0662  0.2153  0.0457
 9502SOL    HW229723   3.219   7.991   0.149 -0.1135  0.5918 -1.6515
 9503SOL     OW29724   2.581   7.300   7.638  0.5198  0.1260 -0.4450
 9503SOL    HW129725   2.613   7.359   7.707  1.3200 -0.7540 -0.0434
 9503SOL    HW229726   2.491   7.281   7.663  1.7750 -3.1201  2.5506
 9504SOL     OW29727   2.966   0.097   6.940 -0.4918  0.1316 -0.3017
 9504SOL    HW129728   3.019   0.069   7.015 -0.3704  0.8338 -0.1183
 9504SOL    HW229729   2.892   0.144   6.979 -0.3829  0.5763 -0.6312
 9505SOL     OW29730   2.462   7.481   7.220 -0.1935 -0.4914  0.1308
 9505SOL    HW129731   2.427   7.422   7.286  2.8570 -0.2414  2.1313
 9505SOL    HW229732   2.412   7.562   7.231 -1.7938 -1.4181 -0.0397
 9506SOL     OW29733   3.114   7.642   8.142 -0.0650 -0.2650  1.3324
 9506SOL    HW129734   3.019   7.631   8.140 -0.1221  0.1855  1.6409
 9506SOL    HW229735   3.147   7.558   8.175 -0.2009 -1.2817 -0.8655
 9507SOL     OW29736   3.622   0.091   8.328 -0.1108  0.1208  0.2209
 9507SOL    HW129737   3.539   0.068   8.286 -0.3203 -0.2258  0.8046
 9507SOL    HW229738   3.683   0.022   8.299  0.6092  1.5909 -2.0186
 9508SOL     OW29739   2.570   0.068   7.765 -0.2383 -0.1797 -0.2479
 9508SOL    HW129740   2.658   0.084   7.798 -0.3877 -1.6603  0.9575
 9508SOL    HW229741   2.518   0.142   7.797  0.0331 -0.6269  1.2866
 9509SOL     OW29742   2.813   7.950   7.811 -0.0445  0.3265  0.0238
 9509SOL    HW129743   2.811   8.039   7.846 -0.5885  0.1530  0.4346
 9509SOL    HW229744   2.903   7.921   7.826  0.0415  0.6821  0.2052
 9510SOL     OW29745   2.555   7.632   8.772 -0.4637  0.1852  0.1796
 9510SOL    HW129746   2.544   7.608   8.864 -0.1462  0.1592  0.2111
 9510SOL    HW229747   2.549   7.549   8.725  1.9835 -0.1915  0.4033
 9511SOL     OW29748   2.868   7.914   8.186  0.8896  0.6735 -0.5285
 9511SOL    HW129749   2.830   7.931   8.272  0.0554  0.5602 -0.8710
 9511SOL    HW229750   2.852   7.821   8.171  2.4834  0.2986 -0.1131
 9512SOL     OW29751   2.842   7.635   8.167 -0.8824 -0.0119 -0.5100
 9512SOL    HW129752   2.833   7.562   8.228 -0.5636 -0.6659 -1.2316
 9512SOL    HW229753   2.763   7.630   8.113 -1.2949  0.7285  0.0149
 9513SOL     OW29754   3.845   8.706   8.294  0.1203  0.6483 -0.6474
 9513SOL    HW129755   3.918   8.744   8.343  1.4285 -1.4165 -0.8707
 9513SOL    HW229756   3.849   8.747   8.208  1.6690 -0.0941 -0.9711
 9514SOL     OW29757   3.273   8.401   8.699  0.1057  0.1485 -0.2950
 9514SOL    HW129758   3.178   8.390   8.700  0.0701 -0.1605 -2.3027
 9514SOL    HW229759   3.286   8.496   8.696 -0.2167  0.1760 -1.3963
 9515SOL     OW29760   3.450   8.422   7.535 -0.5980 -1.0855  0.5154
 9515SOL    HW129761   3.398   8.457   7.463  1.5423  1.9940  0.2450
 9515SOL    HW229762   3.537   8.409   7.497  0.6371  0.7844  2.4381
 9516SOL     OW29763   4.067   8.556   7.863  0.6595 -0.5639 -0.0751
 9516SOL    HW129764   4.121   8.478   7.850  1.3179  0.1435 -1.8685
 9516SOL    HW229765   4.124   8.629   7.838 -0.0880  0.4832  1.1454
 9517SOL     OW29766   3.268   7.689   7.433 -0.2957 -0.2114 -0.5605
 9517SOL    HW129767   3.278   7.637   7.513  1.0702 -0.4345 -0.8442
 9517SOL    HW229768   3.346   7.667   7.382 -0.6365  0.7277 -1.4910
 9518SOL     OW29769   2.664   7.436   7.882  0.9685  0.0321  0.2475
 9518SOL    HW129770   2.597   7.495   7.918 -0.5060 -1.8938  0.7821
 9518SOL    HW229771   2.739   7.494   7.865 -0.3005  2.0137  0.9773
 9519SOL     OW29772   3.341   8.672   8.621 -0.2241  0.0880  0.0431
 9519SOL    HW129773   3.396   8.720   8.683  0.3845 -0.8884  0.2835
 9519SOL    HW229774   3.396   8.660   8.544 -0.7414  0.6898 -0.4315
 9520SOL     OW29775   2.816   0.240   8.734  0.0145 -0.5599  0.2397
 9520SOL    HW129776   2.813   0.333   8.709  0.3351 -0.9647 -1.4134
 9520SOL    HW229777   2.908   0.223   8.752 -0.2153 -0.2628  1.8901
 9521SOL     OW29778   2.806   8.614   8.424 -0.2697 -0.0469  0.1815
 9521SOL    HW129779   2.790   8.679   8.492 -1.4659  1.8324 -1.7544
 9521SOL    HW229780   2.767   8.652   8.345 -0.2949 -2.7884 -1.2444
 9522SOL     OW29781   3.386   0.252   8.695 -0.4736  0.6455 -0.0487
 9522SOL    HW129782   3.466   0.296   8.667 -1.0396  2.2853  0.8558
 9522SOL    HW229783   3.340   0.232   8.613  0.1369  1.0574 -0.4957
 9523SOL     OW29784   2.780   8.541   7.572  0.7744 -0.0604  0.8084
 9523SOL    HW129785   2.727   8.488   7.632 -0.7486 -0.6699 -1.0065
 9523SOL    HW229786   2.755   8.631   7.593 -0.7825 -0.3210  0.2307
 9524SOL     OW29787   2.495   8.599   0.109  0.6090  0.1590  0.1304
 9524SOL    HW129788   2.513   8.532   0.044 -0.2999  0.7332 -0.7268
 9524SOL    HW229789   2.582   8.625   0.141  1.0625 -0.1545 -0.8209
 9525SOL     OW29790   3.449   8.266   0.015 -0.1981 -0.1643 -0.3867
 9525SOL    HW129791   3.410   8.253   0.101 -2.4619 -0.8556 -1.4579
 9525SOL    HW229792   3.382   8.310  -0.036  0.8146 -0.4580 -2.0409
 9526SOL     OW29793   2.131   8.550   7.928 -0.0711 -0.2738 -0.5921
 9526SOL    HW129794   2.166   8.567   8.015 -2.7349  1.1072  0.3400
 9526SOL    HW229795   2.204   8.512   7.879  1.8884  0.1203  1.8327
 9527SOL     OW29796   2.903   8.171   8.389  0.1537  0.6511  0.3916
 9527SOL    HW129797   2.831   8.153   8.328  1.0380 -0.0953 -0.4709
 9527SOL    HW229798   2.982   8.148   8.340  0.8553 -0.9943  2.1793
 9528SOL     OW29799   3.216   8.717   7.709 -0.1390 -0.1074  0.0225
 9528SOL    HW129800   3.269   8.699   7.631 -0.2664 -0.1118 -0.0627
 9528SOL    HW229801   3.258   8.666   7.778 -1.6183 -2.2750 -0.5941
 9529SOL     OW29802   3.020   8.050   7.997 -0.3049 -0.3179 -0.4273
 9529SOL    HW129803   2.963   8.023   8.069  0.0846  0.3458  0.1375
 9529SOL    HW229804   3.059   8.133   8.026  1.8151 -1.2977 -0.3217
 9530SOL     OW29805   2.449   8.700   8.351  0.0240 -0.2502  0.4785
 9530SOL    HW129806   2.448   8.791   8.322 -3.4868 -0.1134  0.6704
 9530SOL    HW229807   2.495   8.703   8.436 -1.7596  1.7461  1.4554
 9531SOL     OW29808   3.112   8.232   8.214  0.3607  0.1529 -0.4510
 9531SOL    HW129809   3.200   8.204   8.189  0.9425  2.1177 -0.7256
 9531SOL    HW229810   3.126   8.305   8.275 -1.0828 -0.1604  0.3008
 9532SOL     OW29811   3.395   8.089   7.257 -0.2530 -0.0416  0.4251
 9532SOL    HW129812   3.468   8.034   7.229  0.3686  1.0970 -0.2780
 9532SOL    HW229813   3.433   8.145   7.325 -0.7816 -0.2323  0.8797
 9533SOL     OW29814   2.356   7.649   8.556  0.0837 -0.2928  0.6301
 9533SOL    HW129815   2.417   7.649   8.482 -0.4717  0.9372  0.1487
 9533SOL    HW229816   2.410   7.667   8.633  0.5052 -0.5068  0.3833
 9534SOL     OW29817   2.022   0.330   0.262  0.1845  0.4270 -0.2380
 9534SOL    HW129818   2.075   0.320   0.183  1.1190  0.2377  0.4006
 9534SOL    HW229819   2.081   0.368   0.327 -0.7236  1.1123  0.2146
 9535SOL     OW29820   2.584   8.185   8.611  0.5649  0.0960 -0.6740
 9535SOL    HW129821   2.585   8.103   8.659 -1.0113 -0.1644 -1.0302
 9535SOL    HW229822   2.643   8.170   8.537  0.4471 -0.6472 -0.6254
 9536SOL     OW29823   2.354   7.559   8.033  0.1915 -0.4657  0.2790
 9536SOL    HW129824   2.270   7.518   8.053 -0.3234  0.4581  0.0464
 9536SOL    HW229825   2.359   7.634   8.092  1.4472 -1.2202  1.2032
 9537SOL     OW29826   3.373   7.937   8.317  0.3272 -0.3728 -0.0401
 9537SOL    HW129827   3.282   7.906   8.322 -0.1961  0.9624 -0.7890
 9537SOL    HW229828   3.379   7.981   8.232  1.7519 -0.6202 -0.0976
 9538SOL     OW29829   3.440   8.279   8.488  0.2734  0.0033  0.0046
 9538SOL    HW129830   3.407   8.325   8.411 -1.6721  0.2427  0.9161
 9538SOL    HW229831   3.387   8.313   8.560 -0.0054 -2.3627  0.9902
 9539SOL     OW29832   3.737   7.551   8.385  0.0231  0.4691  0.1670
 9539SOL    HW129833   3.794   7.509   8.322  0.4980  1.7415 -0.2833
 9539SOL    HW229834   3.648   7.537   8.351  0.1517 -0.3021  0.1296
 9540SOL     OW29835   3.269   8.291   7.118 -0.3658  0.1065 -0.4224
 9540SOL    HW129836   3.182   8.267   7.152 -0.2677 -0.1582 -0.3526
 9540SOL    HW229837   3.323   8.213   7.134 -0.8836 -1.0030 -3.3122
 9541SOL     OW29838   2.247   8.576   8.204 -0.1077 -0.3417 -0.1606
 9541SOL    HW129839   2.315   8.608   8.263 -0.6973  0.3094  0.1741
 9541SOL    HW229840   2.259   8.481   8.204  2.4237 -0.1437 -2.0912
 9542SOL     OW29841   2.662   8.199   7.916  0.0896  0.3137  0.1293
 9542SOL    HW129842   2.715   8.272   7.949 -0.2592  1.0788 -0.9295
 9542SOL    HW229843   2.575   8.213   7.954  0.6289 -0.9956  1.9449
 9543SOL     OW29844   3.109   7.747   8.422 -0.3493  0.0132 -0.6806
 9543SOL    HW129845   3.100   7.842   8.432  1.4386  0.2644 -1.2279
 9543SOL    HW229846   3.087   7.731   8.330  1.6850  0.2716 -1.2702
 9544SOL     OW29847   1.900   8.295   7.713 -0.0653  0.3347 -0.0274
 9544SOL    HW129848   1.879   8.291   7.806  0.3637 -1.4937  0.0269
 9544SOL    HW229849   1.935   8.208   7.692  0.3521  0.8789 -1.7762
 9545SOL     OW29850   2.933   8.346   8.781 -0.1077 -0.5620  0.3904
 9545SOL    HW129851   2.857   8.393   8.816 -0.5622  0.0920 -1.3514
 9545SOL    HW229852   2.939   8.375   8.690  2.5204 -0.2415  0.5851
 9546SOL     OW29853   2.101   7.952   8.495 -0.0491  0.0248 -0.3687
 9546SOL    HW129854   2.093   7.866   8.538 -0.9852  1.4399  2.5775
 9546SOL    HW229855   2.171   7.995   8.543  0.8055  0.7504 -2.2011
 9547SOL     OW29856   2.840   8.401   8.044 -0.0778 -0.1944  0.4512
 9547SOL    HW129857   2.840   8.494   8.018 -0.7382  0.2779  2.0423
 9547SOL    HW229858   2.925   8.389   8.087  0.2689 -0.5079 -0.3033
 9548SOL     OW29859   3.459   8.411   0.259 -0.5085  0.3082 -0.5108
 9548SOL    HW129860   3.393   8.398   0.327  0.5791 -1.6819  0.2183
 9548SOL    HW229861   3.451   8.504   0.236 -0.0911  1.4113  3.1808
 9549SOL     OW29862   2.561   7.926   8.710  0.3850 -0.1160 -0.4048
 9549SOL    HW129863   2.641   7.874   8.700 -0.6134 -1.4120 -2.0413
 9549SOL    HW229864   2.499   7.868   8.753  0.3965  1.0506  1.3219
 9550SOL     OW29865   2.768   8.230   7.439  0.0824 -0.5599 -0.1564
 9550SOL    HW129866   2.832   8.165   7.468  0.7344 -0.5377 -1.4842
 9550SOL    HW229867   2.750   8.281   7.518  0.8951 -1.2334  0.4957
 9551SOL     OW29868   2.257   8.313   8.799  0.8441 -0.0172  0.3058
 9551SOL    HW129869   2.175   8.357   8.777  1.6851  0.3050 -2.6312
 9551SOL    HW229870   2.253   8.230   8.752  2.7471  0.6129 -1.0872
 9552SOL     OW29871   2.961   8.434   8.524 -0.5386  0.5269 -0.1891
 9552SOL    HW129872   2.908   8.506   8.491 -0.0679  0.2769 -1.5561
 9552SOL    HW229873   2.926   8.356   8.482  0.3031  0.2432 -0.3930
 9553SOL     OW29874   3.635   8.114   7.482 -0.2322 -0.5038  0.4755
 9553SOL    HW129875   3.595   8.077   7.560 -1.0691 -1.9923 -0.6086
 9553SOL    HW229876   3.710   8.056   7.464 -0.4587 -0.5978 -0.2003
 9554SOL     OW29877   2.044   8.318   8.615 -0.2785 -0.6698  0.0770
 9554SOL    HW129878   2.005   8.362   8.540  2.8879  1.2987 -0.5784
 9554SOL    HW229879   1.991   8.347   8.690  0.8810  3.4431 -0.4925
 9555SOL     OW29880   3.321   8.209   8.020  0.2338  0.1482 -0.2900
 9555SOL    HW129881   3.375   8.254   7.956 -0.2415  1.1387 -0.0053
 9555SOL    HW229882   3.358   8.121   8.024  1.6311  0.7090 -0.3372
 9556SOL     OW29883   3.299   8.647   8.070  0.2550  0.3602 -0.1567
 9556SOL    HW129884   3.330   8.609   7.988  0.6989  2.8067 -1.2113
 9556SOL    HW229885   3.373   8.698   8.102 -0.4500  0.7513  0.9096
 9557SOL     OW29886   3.006   0.424   0.262  0.5784 -0.1603 -0.2780
 9557SOL    HW129887   2.977   0.445   0.173  0.4027 -0.3756 -0.2723
 9557SOL    HW229888   3.057   0.344   0.252  0.1749 -0.4397 -0.1233
 9558SOL     OW29889   3.857   8.087   8.427 -0.0108  0.2404 -0.4036
 9558SOL    HW129890   3.787   8.089   8.361 -0.2628 -2.9326 -0.3469
 9558SOL    HW229891   3.857   7.998   8.460  3.0739  0.5415  0.7330
 9559SOL     OW29892   2.464   7.902   8.324  0.6096 -0.4932  0.2924
 9559SOL    HW129893   2.446   7.908   8.230  2.3681 -0.1722 -0.0616
 9559SOL    HW229894   2.445   7.811   8.346  2.0322 -1.0940 -0.8230
 9560SOL     OW29895   2.941   8.839   0.107  0.1025 -0.2724 -0.9697
 9560SOL    HW129896   2.980   8.907   0.051 -1.1657  0.0740 -1.4551
 9560SOL    HW229897   3.013   8.778   0.122  1.4350  1.4017 -0.1205
 9561SOL     OW29898   3.057   8.484   7.489  0.1395  0.3105  0.2119
 9561SOL    HW129899   3.095   8.488   7.577 -1.5389  0.8945  0.9428
 9561SOL    HW229900   2.964   8.499   7.502 -0.5416 -2.0039 -1.4326
 9562SOL     OW29901   2.427   0.242   0.107 -0.2369  0.0893 -0.2647
 9562SOL    HW129902   2.417   0.159   0.061  0.6015 -0.1391 -0.0487
 9562SOL    HW229903   2.519   0.243   0.135 -0.5737  0.4783  0.8849
 9563SOL     OW29904   3.723   8.357   0.109  0.3803  0.7025 -0.7155
 9563SOL    HW129905   3.635   8.393   0.116  0.6558  1.4877 -1.2213
 9563SOL    HW229906   3.722   8.306   0.028 -0.0940 -0.7317  0.1393
 9564SOL     OW29907   3.408   8.537   7.846 -0.5788 -0.4379  0.4139
 9564SOL    HW129908   3.425   8.444   7.829  0.4526 -0.3293  0.7703
 9564SOL    HW229909   3.480   8.582   7.802 -0.8442  0.1713  0.5994
 9565SOL     OW29910   2.549   7.349   8.689  0.2715 -0.1680 -0.0297
 9565SOL    HW129911   2.640   7.321   8.701  0.6655  1.3685  0.8714
 9565SOL    HW229912   2.531   7.336   8.596  0.7687 -2.2706  0.1204
 9566SOL     OW29913   3.668   7.766   0.473 -0.0356 -0.3049  0.0072
 9566SOL    HW129914   3.728   7.785   0.545  2.9350 -0.5458 -2.2183
 9566SOL    HW229915   3.682   7.674   0.453 -0.6998 -0.2147 -0.9447
 9567SOL     OW29916   3.260   8.150   0.234  0.0980  0.1903 -0.1885
 9567SOL    HW129917   3.272   8.177   0.325 -1.4786 -0.6317  0.3044
 9567SOL    HW229918   3.200   8.215   0.198  2.3319  1.7613 -1.3374
 9568SOL     OW29919   1.891   7.880   7.663 -0.9886  0.0226  0.2869
 9568SOL    HW129920   1.801   7.893   7.636 -1.4932 -0.6575  1.5483
 9568SOL    HW229921   1.939   7.955   7.627 -1.8062 -0.2483 -1.4368
 9569SOL     OW29922   2.378   7.970   8.067  0.6890 -0.2881  0.0131
 9569SOL    HW129923   2.436   8.037   8.030 -0.2235  0.8784  0.6437
 9569SOL    HW229924   2.331   7.934   7.991 -1.9846  2.8513 -0.0360
 9570SOL     OW29925   2.603   8.831   0.442 -0.9063  0.1014  0.0828
 9570SOL    HW129926   2.651   8.802   0.364  0.4215  1.1442  0.4781
 9570SOL    HW229927   2.627   8.768   0.510  1.2664  1.5168  0.7077
 9571SOL     OW29928   3.954   8.324   8.559 -0.0855 -0.7368 -0.1182
 9571SOL    HW129929   3.914   8.276   8.486  2.2836 -1.8550 -0.7904
 9571SOL    HW229930   3.933   8.271   8.636 -0.2760 -1.0546 -0.3820
 9572SOL     OW29931   3.102   7.387   8.284 -0.4561  0.1581 -0.2389
 9572SOL    HW129932   3.147   7.378   8.367  0.6680 -0.7855 -0.9142
 9572SOL    HW229933   3.163   7.352   8.219 -1.7093 -0.0943 -1.3415
 9573SOL     OW29934   2.638   8.354   8.235  0.7661  0.3301 -0.2633
 9573SOL    HW129935   2.642   8.449   8.225  1.6581  0.2658 -0.6350
 9573SOL    HW229936   2.708   8.321   8.180  0.4489 -0.5532 -0.1586
 9574SOL     OW29937   3.924   8.600   0.119 -0.2803  0.2525  0.2921
 9574SOL    HW129938   3.909   8.634   0.207 -2.3355  1.2252 -0.3633
 9574SOL    HW229939   3.852   8.538   0.105  0.1763 -0.0907 -0.6262
 9575SOL     OW29940   2.872   0.180   7.510  0.1166  0.3796  0.3563
 9575SOL    HW129941   2.796   0.230   7.538  0.4274  0.6428  0.7439
 9575SOL    HW229942   2.945   0.217   7.560  0.6062  0.5404 -0.4535
 9576SOL     OW29943   2.657   8.636   8.176  0.3347  0.2620  0.3302
 9576SOL    HW129944   2.577   8.681   8.203 -0.6706 -1.3822  0.2470
 9576SOL    HW229945   2.662   8.649   8.081  0.7658  1.2679  0.4842
 9577SOL     OW29946   3.284   8.475   7.334  0.1072 -0.1379  0.2915
 9577SOL    HW129947   3.193   8.474   7.361 -0.1393  0.9562 -0.4352
 9577SOL    HW229948   3.284   8.437   7.247  0.3262 -0.0162  0.2367
 9578SOL     OW29949   2.437   8.659   7.846 -0.2766 -0.0730  0.0747
 9578SOL    HW129950   2.472   8.723   7.784  0.0408 -1.5827 -1.3698
 9578SOL    HW229951   2.379   8.710   7.903  0.1539  1.5290 -0.8662
 9579SOL     OW29952   3.615   8.189   0.313 -0.5380 -0.8909  0.6518
 9579SOL    HW129953   3.649   8.200   0.224  0.5733  0.6753  1.2325
 9579SOL    HW229954   3.558   8.264   0.326  0.1338 -0.5298  1.6207
 9580SOL     OW29955   2.630   7.957   7.561  0.2569 -0.1356  0.4439
 9580SOL    HW129956   2.693   7.900   7.517  0.6505  0.8627 -0.2953
 9580SOL    HW229957   2.681   7.998   7.632 -0.0627 -0.7809  1.0667
 9581SOL     OW29958   2.988   0.168   8.442 -0.0145  0.8280 -0.1868
 9581SOL    HW129959   2.986   0.094   8.502 -2.5283  1.1570  0.2713
 9581SOL    HW229960   2.996   0.245   8.498 -0.2104  1.0248 -0.4201
 9582SOL     OW29961   2.318   8.084   8.620  0.5758  0.1025 -0.1466
 9582SOL    HW129962   2.401   8.056   8.659  1.1608  2.2097  0.2940
 9582SOL    HW229963   2.345   8.129   8.539 -0.2402 -0.1041 -0.5420
 9583SOL     OW29964   3.493   7.614   8.618  0.1099 -0.0192 -0.0351
 9583SOL    HW129965   3.475   7.553   8.547 -0.2364 -1.0721  0.9234
 9583SOL    HW229966   3.422   7.600   8.681  1.5148 -0.6424  1.4868
 9584SOL     OW29967   2.844   7.419   8.336  0.0837 -0.1126 -0.0739
 9584SOL    HW129968   2.869   7.435   8.428  1.1397  0.7720 -0.4868
 9584SOL    HW229969   2.926   7.400   8.292 -0.4314 -0.6262 -0.8302
 9585SOL     OW29970   2.938   8.770   7.715 -0.2263 -0.5763 -0.0316
 9585SOL    HW129971   2.928   8.827   7.638 -0.7310  0.4036  0.7287
 9585SOL    HW229972   3.032   8.753   7.720  0.1974  1.6717  0.7160
 9586SOL     OW29973   2.959   7.452   7.715 -0.2685 -0.0322 -0.0578
 9586SOL    HW129974   2.920   7.530   7.753 -1.5453 -0.0106 -1.3186
 9586SOL    HW229975   2.975   7.394   7.789  2.4921  2.1029  1.1707
 9587SOL     OW29976   3.096   7.999   8.514 -0.2755 -0.3137  0.4982
 9587SOL    HW129977   3.134   8.023   8.599  1.5268 -0.3905 -0.2405
 9587SOL    HW229978   3.020   8.057   8.505 -0.3952 -0.1718  2.0608
 9588SOL     OW29979   3.499   8.000   8.549 -0.3583  0.2693  0.4027
 9588SOL    HW129980   3.441   7.970   8.480  0.5328 -2.1396  0.6329
 9588SOL    HW229981   3.510   8.094   8.531 -1.9058  0.1770 -1.3653
 9589SOL     OW29982   1.945   8.568   7.740 -0.0981 -0.2830  0.1244
 9589SOL    HW129983   1.925   8.477   7.718  0.5487 -0.4500  0.2145
 9589SOL    HW229984   1.989   8.564   7.824 -1.2683  0.2375  0.8009
 9590SOL     OW29985   4.101   0.636   0.097  0.0841 -0.0488  0.0537
 9590SOL    HW129986   4.017   0.670   0.067  0.6383  1.3134 -0.0087
 9590SOL    HW229987   4.079   0.578   0.170 -1.0751 -1.4895 -1.3423
 9591SOL     OW29988   3.912   0.157   1.336 -0.2046  0.0533  0.0837
 9591SOL    HW129989   3.827   0.184   1.301  0.2719 -0.8365 -1.8782
 9591SOL    HW229990   3.895   0.072   1.377 -0.5655  0.6536  1.2377
 9592SOL     OW29991   3.744   8.846   0.659 -0.2477  0.6321 -0.5204
 9592SOL    HW129992   3.746   8.791   0.737  1.2131 -0.3905 -1.2266
 9592SOL    HW229993   3.756   8.935   0.692  0.9677  0.1513  0.4014
 9593SOL     OW29994   4.172   1.233   1.170  0.0821  0.3697  0.1908
 9593SOL    HW129995   4.211   1.289   1.237  0.4528 -0.0366  0.3152
 9593SOL    HW229996   4.104   1.287   1.130  0.3528  0.8650  0.3971
 9594SOL     OW29997   5.169   1.687   0.509  0.3724  0.0460 -0.7807
 9594SOL    HW129998   5.252   1.666   0.550 -0.6986  0.2197  1.6120
 9594SOL    HW229999   5.193   1.717   0.421  2.8297  0.3863 -0.0699
 9595SOL     OW30000   4.799   0.642   0.451  0.3689  0.2491  0.5612
 9595SOL    HW130001   4.807   0.550   0.476 -2.7167 -0.0316  0.9454
 9595SOL    HW230002   4.757   0.683   0.526  0.6567  1.7250 -0.0558
 9596SOL     OW30003   5.519   0.366   8.769  0.1187 -0.2761 -0.2508
 9596SOL    HW130004   5.582   0.305   8.809  2.0265  0.1996 -2.3396
 9596SOL    HW230005   5.446   0.310   8.742 -0.0145 -0.9802  1.4430
 9597SOL     OW30006   4.389   1.534   1.190  0.0498  0.0411  0.3923
 9597SOL    HW130007   4.334   1.471   1.236 -0.9196 -0.1581 -0.9940
 9597SOL    HW230008   4.368   1.522   1.098  1.9527  0.4198 -0.1410
 9598SOL     OW30009   4.685   1.034   2.045 -0.4468 -0.0626 -0.0436
 9598SOL    HW130010   4.599   1.021   2.085 -0.1426 -1.4605  0.2134
 9598SOL    HW230011   4.675   1.114   1.993 -2.9528 -1.8879 -2.7113
 9599SOL     OW30012   4.432   1.170   0.986  0.0855 -0.5757 -0.3580
 9599SOL    HW130013   4.388   1.238   1.038 -3.1283 -1.6206 -1.4517
 9599SOL    HW230014   4.434   1.094   1.043 -0.3647 -0.7742 -0.6006
 9600SOL     OW30015   3.945   0.884   1.519  0.7218  0.5027 -0.5901
 9600SOL    HW130016   3.893   0.963   1.530  1.1535  0.9728 -1.7249
 9600SOL    HW230017   3.955   0.875   1.424 -1.4666 -2.3468 -0.6907
 9601SOL     OW30018   3.773   1.100   1.568  0.8454  0.5065  0.2193
 9601SOL    HW130019   3.789   1.182   1.521 -0.1707  0.4930 -0.1787
 9601SOL    HW230020   3.742   1.127   1.654  1.5398  0.5326  0.4655
 9602SOL     OW30021   5.367   1.708   1.579 -0.4488  0.8896  0.1115
 9602SOL    HW130022   5.434   1.773   1.603  1.5261 -1.3912  1.2736
 9602SOL    HW230023   5.399   1.670   1.497  0.4460 -1.0347  1.2670
 9603SOL     OW30024   4.229   0.847   1.465 -0.2486  0.3411 -0.0914
 9603SOL    HW130025   4.156   0.907   1.453  0.2922  0.7780 -1.3099
 9603SOL    HW230026   4.206   0.770   1.412  0.6505  0.9303 -1.3872
 9604SOL     OW30027   5.117   0.872   0.629  0.5120  0.1399 -0.1854
 9604SOL    HW130028   5.040   0.857   0.683  1.2987 -1.7658  0.4722
 9604SOL    HW230029   5.152   0.956   0.661 -0.9780  0.7709 -0.1554
 9605SOL     OW30030   4.145   1.191   0.116 -0.3619  0.0388 -0.1735
 9605SOL    HW130031   4.177   1.157   0.199 -0.9078  1.5136  0.6604
 9605SOL    HW230032   4.172   1.283   0.115 -0.4157  0.0688 -1.6029
 9606SOL     OW30033   4.759   1.529   1.580  0.3478 -0.0504 -0.9318
 9606SOL    HW130034   4.845   1.515   1.619 -0.4939  0.9969  1.4394
 9606SOL    HW230035   4.722   1.441   1.571  0.8758 -0.3704 -0.0841
 9607SOL     OW30036   4.064   1.415   0.450  0.2295  0.8618 -0.3297
 9607SOL    HW130037   4.009   1.337   0.458 -0.0958  1.0010 -1.1847
 9607SOL    HW230038   4.025   1.465   0.379  2.0256  0.4861 -1.6361
 9608SOL     OW30039   4.298   0.767   0.653  0.9638  0.0989 -0.0301
 9608SOL    HW130040   4.203   0.778   0.663  0.8926  0.0022 -0.5217
 9608SOL    HW230041   4.307   0.722   0.569  1.4696  0.4952 -0.1934
 9609SOL     OW30042   4.353   2.347   1.637 -0.8678 -0.3084 -0.2372
 9609SOL    HW130043   4.322   2.381   1.721  1.9767  0.0113  0.7687
 9609SOL    HW230044   4.411   2.275   1.660 -0.7590 -0.8241 -1.9955
 9610SOL     OW30045   4.707   0.845   8.833  0.7421  0.1573 -0.3132
 9610SOL    HW130046   4.735   0.786   8.902  1.5320  0.2110 -0.5727
 9610SOL    HW230047   4.724   0.933   8.867  0.2064  0.2188 -0.1931
 9611SOL     OW30048   5.256   0.526   1.406 -0.6072  0.3854 -0.1306
 9611SOL    HW130049   5.172   0.525   1.359  0.3837  2.1202 -2.1087
 9611SOL    HW230050   5.321   0.506   1.340  0.5798 -1.6152  1.5128
 9612SOL     OW30051   3.850   0.698   0.518  0.7617  0.2803 -0.3218
 9612SOL    HW130052   3.840   0.679   0.425  0.9999 -0.0511 -0.2789
 9612SOL    HW230053   3.777   0.757   0.538  0.5948  0.1960 -0.6730
 9613SOL     OW30054   5.362   1.800   0.322  0.5309 -0.1118 -0.1611
 9613SOL    HW130055   5.307   1.827   0.248 -0.4129 -0.1082  0.5240
 9613SOL    HW230056   5.362   1.876   0.381 -0.1431 -0.7087  0.6367
 9614SOL     OW30057   3.588   0.811   0.201  0.2077  0.5379  0.3843
 9614SOL    HW130058   3.559   0.902   0.210 -1.3109 -0.0369  1.9340
 9614SOL    HW230059   3.682   0.814   0.218  0.0147  1.6998  1.4016
 9615SOL     OW30060   5.513   1.192   0.333  0.2355 -0.5717 -0.0289
 9615SOL    HW130061   5.477   1.217   0.418 -1.7263  1.5166 -1.3606
 9615SOL    HW230062   5.581   1.257   0.315 -1.8281  1.3522 -1.5293
 9616SOL     OW30063   5.417   1.383   0.539  0.1863 -0.8116  0.3629
 9616SOL    HW130064   5.436   1.424   0.454  0.1953 -1.5924 -0.0160
 9616SOL    HW230065   5.390   1.456   0.594  0.4393 -0.2523 -0.2340
 9617SOL     OW30066   3.634   0.539   1.657  0.0444 -0.3432  0.6736
 9617SOL    HW130067   3.726   0.564   1.651 -0.0437 -0.3228 -1.2690
 9617SOL    HW230068   3.633   0.446   1.635 -0.3381 -0.5082  1.3644
 9618SOL     OW30069   4.243   1.457   0.666  0.0688 -0.3076 -0.1268
 9618SOL    HW130070   4.230   1.376   0.715 -0.5889 -0.0721  0.0999
 9618SOL    HW230071   4.174   1.455   0.599  0.3113 -0.1300 -0.3832
 9619SOL     OW30072   5.181   1.228   1.694 -0.1015  0.0512 -0.2222
 9619SOL    HW130073   5.097   1.240   1.650 -1.3028 -0.4368  1.7812
 9619SOL    HW230074   5.177   1.139   1.729  0.1437  0.8436  2.0006
 9620SOL     OW30075   4.904   0.537   0.850  0.3709 -0.6275  0.2165
 9620SOL    HW130076   4.952   0.468   0.804 -0.6453 -0.6236 -0.9217
 9620SOL    HW230077   4.819   0.498   0.870  0.4166 -0.2612  1.1528
 9621SOL     OW30078   3.262   0.821   1.303  0.2084  0.5618 -0.1997
 9621SOL    HW130079   3.186   0.765   1.321 -0.0778  0.7052 -0.9597
 9621SOL    HW230080   3.313   0.772   1.239  0.8487  0.3988  0.4154
 9622SOL     OW30081   5.429   0.942   8.777  0.0105 -0.3707  0.0709
 9622SOL    HW130082   5.408   0.937   8.870  2.1256  0.0620  0.6139
 9622SOL    HW230083   5.515   0.900   8.769 -0.0764 -0.3065 -1.6809
 9623SOL     OW30084   5.186   1.825   1.932  0.0214 -0.1202  0.3913
 9623SOL    HW130085   5.251   1.858   1.871 -0.6588 -0.4919 -0.5550
 9623SOL    HW230086   5.235   1.764   1.988  0.8020  0.7824  0.7113
 9624SOL     OW30087   4.142   0.572   2.077 -0.8032  0.2468 -0.2191
 9624SOL    HW130088   4.140   0.604   2.167  0.9739  0.7127 -0.2990
 9624SOL    HW230089   4.230   0.595   2.046 -1.1079 -0.6093 -1.8126
 9625SOL     OW30090   4.920   1.843   0.923 -0.0964 -0.1721  0.9673
 9625SOL    HW130091   4.925   1.934   0.951 -0.2033  0.2890 -0.4296
 9625SOL    HW230092   4.989   1.834   0.857 -1.4107 -0.5200 -0.4040
 9626SOL     OW30093   5.293   1.343   0.859 -0.1199  0.0898  0.3264
 9626SOL    HW130094   5.292   1.248   0.864  0.4499  0.1324  1.3977
 9626SOL    HW230095   5.295   1.373   0.950  0.6631  1.1091 -0.0020
 9627SOL     OW30096   4.616   0.987   0.291  0.2724 -0.1008 -0.3739
 9627SOL    HW130097   4.704   0.953   0.310  1.1199  2.0901 -0.1375
 9627SOL    HW230098   4.595   1.042   0.367 -2.1958 -2.0547  0.5478
 9628SOL     OW30099   4.943   0.825   0.836 -0.2324  0.3944 -0.5604
 9628SOL    HW130100   4.988   0.852   0.917  0.6031  0.1104 -0.9193
 9628SOL    HW230101   4.939   0.730   0.842  0.8916  0.2704 -1.3774
 9629SOL     OW30102   5.088   1.151   0.082  0.3937  0.2633 -0.4594
 9629SOL    HW130103   5.020   1.106   0.132  1.0529  0.1319  0.3280
 9629SOL    HW230104   5.124   1.083   0.025 -0.4102  0.4322 -1.1978
 9630SOL     OW30105   4.646   0.929   1.540 -0.4347  0.2799  0.2052
 9630SOL    HW130106   4.643   1.004   1.480  0.6761 -0.2527 -0.5496
 9630SOL    HW230107   4.561   0.930   1.584  0.1236  2.9876  1.4686
 9631SOL     OW30108   5.415   0.982   1.656 -0.5999 -0.5093  0.1311
 9631SOL    HW130109   5.358   0.919   1.701  0.7050 -2.1176 -0.3473
 9631SOL    HW230110   5.483   1.002   1.719 -0.1260 -0.8467 -0.2660
 9632SOL     OW30111   4.618   1.150   1.390 -0.1780  0.5331 -0.4249
 9632SOL    HW130112   4.580   1.108   1.313  1.5711 -0.7109 -0.6867
 9632SOL    HW230113   4.630   1.241   1.364 -2.3258  0.8393 -0.5209
 9633SOL     OW30114   5.074   0.523   1.220  0.2439  0.3621 -0.1818
 9633SOL    HW130115   5.072   0.430   1.196 -1.4988  0.4370 -0.4716
 9633SOL    HW230116   5.111   0.567   1.143  0.8920 -0.0508 -0.1174
 9634SOL     OW30117   4.891   1.011   0.460 -0.2393 -0.1417 -0.1493
 9634SOL    HW130118   4.954   0.953   0.502  0.9773  0.6580 -0.7996
 9634SOL    HW230119   4.884   1.086   0.519  0.6701  0.5000 -0.8186
 9635SOL     OW30120   3.604   0.902   1.419  0.4113 -0.0951 -0.3099
 9635SOL    HW130121   3.678   0.919   1.476 -0.5259  1.3175  0.5534
 9635SOL    HW230122   3.555   0.985   1.417 -1.5666 -1.1835 -0.1954
 9636SOL     OW30123   3.810   1.893   1.785  0.1051 -0.1194 -0.7484
 9636SOL    HW130124   3.733   1.942   1.754  1.1571  0.3313 -2.8192
 9636SOL    HW230125   3.774   1.811   1.818 -1.3584  0.5417 -0.5998
 9637SOL     OW30126   4.585   0.005   8.703 -0.4540 -0.5982 -0.0643
 9637SOL    HW130127   4.604  -0.022   8.613 -0.3704 -0.3866 -0.1097
 9637SOL    HW230128   4.517  -0.057   8.732  0.9336 -1.9605  0.4145
 9638SOL     OW30129   5.712   0.667   2.578 -0.8091 -0.6415  0.2436
 9638SOL    HW130130   5.743   0.577   2.573 -0.1380 -0.3949 -0.0732
 9638SOL    HW230131   5.645   0.673   2.510 -1.8397 -1.2716  1.1658
 9639SOL     OW30132   5.235   1.546   1.057  0.8675 -0.2476  0.0864
 9639SOL    HW130133   5.200   1.634   1.041  1.1551  0.3599  2.4023
 9639SOL    HW230134   5.158   1.492   1.074  0.7514 -0.1151 -0.0152
 9640SOL     OW30135   4.198   0.230   1.010  0.2575 -0.4854  0.2760
 9640SOL    HW130136   4.193   0.239   1.105 -1.0859 -1.5401  0.3405
 9640SOL    HW230137   4.147   0.151   0.991 -0.5003  0.3635 -1.4260
 9641SOL     OW30138   4.730   1.616   0.619  0.2267  0.4863 -0.1901
 9641SOL    HW130139   4.640   1.591   0.598  0.4869 -2.0395  1.1922
 9641SOL    HW230140   4.723   1.700   0.663 -1.7779 -0.6216  1.7915
 9642SOL     OW30141   3.875   1.581   0.247 -0.2613  0.2137 -0.0896
 9642SOL    HW130142   3.787   1.608   0.274 -0.5453 -1.3592  0.6263
 9642SOL    HW230143   3.911   1.659   0.203 -2.1514  0.7579 -0.7715
 9643SOL     OW30144   5.602   0.759   0.655  0.3616  0.0029  0.0245
 9643SOL    HW130145   5.535   0.727   0.594 -0.0045 -1.0964  0.9690
 9643SOL    HW230146   5.600   0.696   0.728  1.2687  0.8918  0.8423
 9644SOL     OW30147   4.813   1.722   1.382 -0.0447 -0.1327 -0.1203
 9644SOL    HW130148   4.804   1.669   1.460  0.3769 -0.4713 -0.2986
 9644SOL    HW230149   4.757   1.798   1.398  1.2982  0.6303  1.2148
 9645SOL     OW30150   4.279   0.872   8.749  0.4532 -0.0108 -0.0190
 9645SOL    HW130151   4.193   0.832   8.760  0.0228  0.6420 -0.9370
 9645SOL    HW230152   4.302   0.855   8.658  0.8289  0.7251 -0.0667
 9646SOL     OW30153   5.634   1.282   0.673 -0.4800 -0.0902 -0.4864
 9646SOL    HW130154   5.638   1.186   0.674  0.3563 -0.1225  2.0356
 9646SOL    HW230155   5.549   1.302   0.634 -1.5427 -1.9609  0.6685
 9647SOL     OW30156   3.987   1.194   1.840 -0.2497  0.1191 -0.3755
 9647SOL    HW130157   3.950   1.266   1.891  1.5639 -0.1584  1.4617
 9647SOL    HW230158   3.934   1.118   1.862 -0.9498  0.4813 -0.7890
 9648SOL     OW30159   4.950   2.304   8.712  0.2233  0.2618 -0.9928
 9648SOL    HW130160   4.880   2.270   8.656  0.9557  1.2007 -2.5528
 9648SOL    HW230161   4.931   2.398   8.719 -0.8457 -0.0564  1.8878
 9649SOL     OW30162   4.422   0.076   1.612 -0.5754  0.0629  0.0544
 9649SOL    HW130163   4.339   0.030   1.597 -1.5699  1.5211  0.8789
 9649SOL    HW230164   4.489   0.015   1.580 -2.0536 -0.1555 -3.0300
 9650SOL     OW30165   5.191   1.421   0.113 -0.4830  0.3129  0.2181
 9650SOL    HW130166   5.154   1.337   0.088  0.6637  0.0560 -0.6926
 9650SOL    HW230167   5.257   1.400   0.179  1.4860  0.1948 -1.7133
 9651SOL     OW30168   4.210   1.860   0.003  0.1542 -0.5214 -0.3000
 9651SOL    HW130169   4.274   1.789   0.009  0.5531 -0.0498  1.7858
 9651SOL    HW230170   4.262   1.939  -0.008 -0.2027 -0.3598 -0.8788
 9652SOL     OW30171   5.923   0.046   0.401 -0.1484  0.0225  0.1659
 9652SOL    HW130172   5.895   0.116   0.460 -0.2081  0.7147 -0.6714
 9652SOL    HW230173   5.975   0.090   0.334  0.7333 -0.8894  0.2296
 9653SOL     OW30174   4.002   1.539   0.824 -0.1745  0.5567 -0.2652
 9653SOL    HW130175   3.991   1.621   0.776 -1.9902  1.7645  1.9856
 9653SOL    HW230176   4.097   1.527   0.829  0.1262  2.3247 -0.9765
 9654SOL     OW30177   4.502   1.755   0.886 -0.3094 -0.5423 -0.1184
 9654SOL    HW130178   4.503   1.769   0.981 -0.0017  1.0166 -0.3243
 9654SOL    HW230179   4.587   1.786   0.856 -0.0403 -1.9047 -0.8081
 9655SOL     OW30180   4.066   0.577   0.410 -0.3062 -0.0529 -0.3977
 9655SOL    HW130181   4.120   0.518   0.462 -0.2404 -0.1737 -0.5984
 9655SOL    HW230182   3.997   0.606   0.469 -0.4906 -0.5365 -0.3701
 9656SOL     OW30183   4.939   0.803   1.993 -0.0269 -0.2062 -0.3598
 9656SOL    HW130184   4.893   0.743   1.934 -2.1764 -1.2161  2.1400
 9656SOL    HW230185   4.954   0.752   2.073  1.8762  1.3686  0.3807
 9657SOL     OW30186   4.398   8.783   0.774  0.2514 -0.3672 -0.1376
 9657SOL    HW130187   4.324   8.739   0.733  0.3709 -0.0912 -0.6560
 9657SOL    HW230188   4.447   8.713   0.817 -0.3423 -0.5428  0.2654
 9658SOL     OW30189   4.850   0.638   1.781  0.3804 -0.4920 -0.1035
 9658SOL    HW130190   4.772   0.683   1.814 -0.6141 -1.2535 -1.3512
 9658SOL    HW230191   4.884   0.698   1.714  0.5194 -0.4495  0.0042
 9659SOL     OW30192   4.461   1.787   1.161 -0.5444 -0.1104 -0.0342
 9659SOL    HW130193   4.384   1.844   1.168 -1.2939 -1.1725  0.8057
 9659SOL    HW230194   4.429   1.701   1.190  0.1615 -1.3325 -2.5978
 9660SOL     OW30195   5.061   0.793   1.341  0.2704  0.0878  0.0755
 9660SOL    HW130196   5.069   0.699   1.325 -3.4991 -0.4238  0.2593
 9660SOL    HW230197   5.134   0.832   1.293  2.9261 -2.9416  1.2669
 9661SOL     OW30198   4.432   1.500   0.911 -0.1267  0.5270 -0.4735
 9661SOL    HW130199   4.464   1.591   0.910 -1.0389  0.8709 -1.7751
 9661SOL    HW230200   4.377   1.494   0.833 -1.0252 -0.8273  0.2336
 9662SOL     OW30201   4.616   0.671   0.660 -0.3375  0.2402  0.0798
 9662SOL    HW130202   4.558   0.607   0.700  0.9413  0.8835  3.2349
 9662SOL    HW230203   4.596   0.753   0.705  1.2167  1.0396 -0.6021
 9663SOL     OW30204   4.712   0.052   0.721 -0.1105 -0.5536  0.1251
 9663SOL    HW130205   4.638   0.113   0.722  1.4317  1.5100 -1.7289
 9663SOL    HW230206   4.748   0.060   0.632  2.8228 -0.8144  1.1961
 9664SOL     OW30207   5.189   1.150   0.341  0.7537  0.3790  0.0750
 9664SOL    HW130208   5.257   1.094   0.379  0.6383  0.2239  0.0533
 9664SOL    HW230209   5.186   1.125   0.248  1.8489  1.5630 -0.3194
 9665SOL     OW30210   4.076   0.128   0.506  0.0312 -0.1164 -0.1458
 9665SOL    HW130211   4.142   0.188   0.542 -0.2511 -0.2749  0.6625
 9665SOL    HW230212   4.107   0.108   0.418  1.3010 -0.5328  0.3725
 9666SOL     OW30213   4.841   0.378   0.574  0.0476 -0.1474 -0.4053
 9666SOL    HW130214   4.884   0.322   0.509  2.1654  0.6940  0.1916
 9666SOL    HW230215   4.903   0.384   0.646 -1.7204 -0.0320  1.1774
 9667SOL     OW30216   4.651   0.675   1.439  0.1808 -0.3920 -0.1259
 9667SOL    HW130217   4.661   0.768   1.460  0.4025 -0.2734 -0.7590
 9667SOL    HW230218   4.620   0.636   1.521  0.4395  0.1745  0.2490
 9668SOL     OW30219   4.715   1.880   0.724  0.3919  0.0747 -0.0443
 9668SOL    HW130220   4.683   1.968   0.740  1.2105  0.3542  0.1001
 9668SOL    HW230221   4.798   1.875   0.772 -0.0951 -1.0923  0.7546
 9669SOL     OW30222   4.333   1.045   0.622 -0.1128  0.2832 -0.7163
 9669SOL    HW130223   4.297   0.964   0.660 -1.6234  0.8274 -0.9139
 9669SOL    HW230224   4.424   1.046   0.651 -0.5629 -0.5347  0.8885
 9670SOL     OW30225   4.878   1.776   0.397 -0.3622  0.3996 -0.1991
 9670SOL    HW130226   4.922   1.814   0.473  1.1284  0.5127 -1.0939
 9670SOL    HW230227   4.810   1.720   0.434 -0.9312  1.9110  1.1934
 9671SOL     OW30228   4.401   0.830   0.182  0.0789  0.1706 -0.0527
 9671SOL    HW130229   4.349   0.877   0.116 -0.2204  0.8907  0.6860
 9671SOL    HW230230   4.470   0.892   0.207 -0.3485  0.2434  0.9716
 9672SOL     OW30231   4.028   0.296   1.666  0.5088 -0.0265  0.0865
 9672SOL    HW130232   4.000   0.334   1.749  1.3958  2.0452 -0.4888
 9672SOL    HW230233   3.997   0.358   1.600  0.7546 -1.0804 -1.0486
 9673SOL     OW30234   4.641   0.347   1.210  0.5669 -0.0510 -0.4668
 9673SOL    HW130235   4.599   0.296   1.279 -2.8527  0.3135 -2.0183
 9673SOL    HW230236   4.735   0.334   1.222 -0.0035 -2.3688  2.3657
 9674SOL     OW30237   4.810   0.040   0.467 -0.2631 -0.3185  0.7079
 9674SOL    HW130238   4.836  -0.044   0.428  0.4646  0.3246 -0.2550
 9674SOL    HW230239   4.867   0.105   0.424 -0.1084  0.5570  2.1569
 9675SOL     OW30240   5.084   0.245   0.755  0.1995  0.7248  0.8278
 9675SOL    HW130241   5.118   0.293   0.831  0.3995 -0.4302  1.4802
 9675SOL    HW230242   5.082   0.154   0.782  0.7695  0.2128 -0.7430
 9676SOL     OW30243   5.447   1.379   1.190 -0.7791  0.3549  0.4399
 9676SOL    HW130244   5.377   1.425   1.143  0.5227  1.7751 -0.1885
 9676SOL    HW230245   5.408   1.358   1.275 -2.3178  0.0847 -0.2786
 9677SOL     OW30246   5.286   0.844   1.189  0.0354 -0.2569 -0.0041
 9677SOL    HW130247   5.351   0.911   1.166  0.2654 -0.9178 -1.3663
 9677SOL    HW230248   5.284   0.785   1.113 -0.9134 -1.2158  0.7362
 9678SOL     OW30249   5.469   0.667   0.443 -0.6011 -0.5211 -0.2031
 9678SOL    HW130250   5.444   0.738   0.384 -1.6635  0.0459  0.8758
 9678SOL    HW230251   5.558   0.643   0.416 -1.8413 -1.9532 -3.5746
 9679SOL     OW30252   4.406   1.157   8.792 -0.7429 -0.0500  0.3536
 9679SOL    HW130253   4.362   1.236   8.760 -0.2513  0.6064  1.2445
 9679SOL    HW230254   4.335   1.095   8.810 -1.0969 -0.0295 -0.9091
 9680SOL     OW30255   5.973   1.513   0.459 -0.5720 -0.2237  0.4546
 9680SOL    HW130256   5.879   1.525   0.449 -0.6095 -0.7351  0.1918
 9680SOL    HW230257   5.986   1.498   0.552 -0.6939  0.3148  0.5633
 9681SOL     OW30258   5.273   0.248   8.784 -0.3227 -0.0425  0.8174
 9681SOL    HW130259   5.238   0.233   8.872 -3.2110 -1.2496 -0.4039
 9681SOL    HW230260   5.298   0.161   8.753 -2.4865 -0.2057 -0.6843
 9682SOL     OW30261   4.590   0.337   0.597 -0.5261 -0.1156  0.2285
 9682SOL    HW130262   4.578   0.321   0.691  0.4250  2.1781  0.8181
 9682SOL    HW230263   4.685   0.347   0.587 -0.6669  0.2476 -0.8681
 9683SOL     OW30264   5.684   1.275   1.152  0.0860 -0.1623  0.1356
 9683SOL    HW130265   5.602   1.320   1.173 -0.3218 -0.7013 -0.2621
 9683SOL    HW230266   5.672   1.186   1.186  0.6584 -0.1402  0.4110
 9684SOL     OW30267   4.612   1.410   1.327  0.2167  0.0032  0.1157
 9684SOL    HW130268   4.525   1.439   1.300  0.5762  1.0997  0.0672
 9684SOL    HW230269   4.651   1.487   1.368  1.0747 -0.5436  0.3485
 9685SOL     OW30270   5.357   1.607   1.824  0.6105  0.3798  0.4211
 9685SOL    HW130271   5.339   1.644   1.738 -1.0408  0.8357  0.9315
 9685SOL    HW230272   5.286   1.545   1.839  2.0885 -1.3714  0.5436
 9686SOL     OW30273   4.738   1.473   1.075 -0.1904  0.2055  0.1367
 9686SOL    HW130274   4.676   1.454   1.145  0.0158 -0.1889  0.2123
 9686SOL    HW230275   4.804   1.529   1.116 -0.0612 -0.0385  0.2621
 9687SOL     OW30276   5.604   1.026   0.595 -0.1245  0.3473 -0.2868
 9687SOL    HW130277   5.602   0.942   0.639  0.1596  1.1089  1.2335
 9687SOL    HW230278   5.645   1.008   0.510  1.5406 -0.7483  0.6995
 9688SOL     OW30279   4.828   0.440   1.418  0.7976 -0.1221  0.3102
 9688SOL    HW130280   4.770   0.516   1.420  3.1221  1.7723  0.3570
 9688SOL    HW230281   4.915   0.476   1.434  2.4593 -2.3398 -2.6725
 9689SOL     OW30282   4.677   1.262   1.631 -0.4872  0.0581 -0.0985
 9689SOL    HW130283   4.600   1.233   1.679 -0.3075 -2.1914 -1.0278
 9689SOL    HW230284   4.676   1.210   1.550  3.3382 -2.0821  0.9852
 9690SOL     OW30285   4.922   0.973   0.198 -0.2781 -0.1145 -0.2891
 9690SOL    HW130286   4.930   0.878   0.204  1.5118  0.0564  0.7194
 9690SOL    HW230287   4.930   1.003   0.289  2.1133  1.1438 -0.8347
 9691SOL     OW30288   3.988   0.596   0.864  0.2773 -0.3179  0.4840
 9691SOL    HW130289   3.918   0.534   0.843 -0.1671  0.6482 -1.1100
 9691SOL    HW230290   4.066   0.542   0.873 -0.6416 -1.4160  2.2766
 9692SOL     OW30291   4.688   0.697   1.167 -0.7603 -0.0885  0.2576
 9692SOL    HW130292   4.674   0.703   1.262  0.6038  0.3580  0.4585
 9692SOL    HW230293   4.687   0.603   1.148 -0.9393 -0.1848  0.7383
 9693SOL     OW30294   4.003   1.851   1.574  0.0701 -0.1877  0.3870
 9693SOL    HW130295   3.987   1.765   1.614  0.1853 -1.4511 -2.1234
 9693SOL    HW230296   3.950   1.911   1.626 -1.8883 -2.1399  0.8128
 9694SOL     OW30297   4.586   1.102   0.749 -0.4567  0.4412 -0.0893
 9694SOL    HW130298   4.523   1.149   0.803 -0.4046 -0.1772  0.5187
 9694SOL    HW230299   4.651   1.068   0.811  0.7437  1.4579 -0.7517
 9695SOL     OW30300   4.443   0.197   0.825 -0.1999 -0.4154 -0.0355
 9695SOL    HW130301   4.442   0.112   0.781 -0.0268 -0.5968  0.3120
 9695SOL    HW230302   4.379   0.189   0.895  1.6431 -1.1637  1.6723
 9696SOL     OW30303   4.797   1.428   0.426  0.1287  0.3795 -0.5386
 9696SOL    HW130304   4.890   1.405   0.424  0.3794  1.1990  0.6055
 9696SOL    HW230305   4.785   1.472   0.510 -1.7493 -1.5510  0.2930
 9697SOL     OW30306   5.256   1.820   1.316 -0.4122 -0.3365 -0.0487
 9697SOL    HW130307   5.237   1.866   1.234 -1.5669 -1.1696 -0.2718
 9697SOL    HW230308   5.171   1.794   1.350  0.1401 -1.2942  0.6588
 9698SOL     OW30309   5.555   0.601   0.113  0.1260 -0.1628 -0.8752
 9698SOL    HW130310   5.469   0.610   0.155 -0.4638 -0.2471 -2.0073
 9698SOL    HW230311   5.547   0.520   0.062  0.9245 -0.2325 -0.8911
 9699SOL     OW30312   4.130   1.685   1.418 -0.4455 -0.0683 -0.4009
 9699SOL    HW130313   4.068   1.752   1.447  2.6907  2.3296  1.3890
 9699SOL    HW230314   4.162   1.717   1.334  1.8264  1.4655  0.9273
 9700SOL     OW30315   4.417   0.874   1.675  0.2485  0.1572  0.1301
 9700SOL    HW130316   4.380   0.942   1.730  0.2094  0.0165  0.2796
 9700SOL    HW230317   4.353   0.861   1.605 -0.5949 -0.9476  1.0596
 9701SOL     OW30318   5.688   0.794   1.834  0.4931 -0.3237  0.2940
 9701SOL    HW130319   5.622   0.859   1.861  1.0577 -0.4721  2.0871
 9701SOL    HW230320   5.677   0.789   1.739 -0.6684  1.1974  0.2998
 9702SOL     OW30321   5.183   0.505   1.956 -0.0491  0.7762 -0.4872
 9702SOL    HW130322   5.235   0.495   1.876  0.1479 -0.9814 -0.1779
 9702SOL    HW230323   5.228   0.452   2.021 -0.5302  1.7284  0.6399
 9703SOL     OW30324   3.952   0.068   1.757 -0.2130 -0.5920  0.2573
 9703SOL    HW130325   3.874   0.080   1.812  0.3839  0.1156  0.9629
 9703SOL    HW230326   3.975   0.156   1.728  2.1831 -0.2739  2.6890
 9704SOL     OW30327   3.911   0.791   1.034  0.4389  0.1797 -0.4811
 9704SOL    HW130328   3.831   0.834   1.005  0.2673 -0.1093 -0.4432
 9704SOL    HW230329   3.924   0.720   0.972  0.4164 -0.0528 -0.2225
 9705SOL     OW30330   5.271   0.640   0.926 -0.2997  0.0038  0.0039
 9705SOL    HW130331   5.358   0.599   0.917  0.5788  2.0066 -1.3692
 9705SOL    HW230332   5.244   0.658   0.836 -1.4306  0.8221  0.4882
 9706SOL     OW30333   4.765   0.650   0.181  0.4120 -0.2125  0.2987
 9706SOL    HW130334   4.693   0.591   0.160  0.8326 -1.0936  1.2447
 9706SOL    HW230335   4.768   0.652   0.277  0.0117  1.8517  0.3264
 9707SOL     OW30336   4.276   0.356   1.272  0.2624  0.0201  0.3954
 9707SOL    HW130337   4.339   0.381   1.204 -0.1422  2.5446  0.8600
 9707SOL    HW230338   4.331   0.318   1.341  0.8829 -0.8207 -0.5269
 9708SOL     OW30339   4.221   1.403   1.376  0.4157 -0.8556  0.2454
 9708SOL    HW130340   4.212   1.495   1.400 -0.3645 -0.9734  0.4369
 9708SOL    HW230341   4.191   1.355   1.453  2.3472 -1.3151  0.7693
 9709SOL     OW30342   4.346   0.788   1.144 -0.1319 -0.0513  0.3299
 9709SOL    HW130343   4.259   0.829   1.146  0.3064  0.8461  1.5539
 9709SOL    HW230344   4.343   0.723   1.214 -0.0768 -0.5990 -0.1680
 9710SOL     OW30345   5.472   0.940   2.188 -0.0280  0.3025 -0.3498
 9710SOL    HW130346   5.402   0.974   2.133  1.5169  1.4766 -1.6907
 9710SOL    HW230347   5.433   0.865   2.233 -1.7103  0.0097 -2.1535
 9711SOL     OW30348   4.086   8.649   1.300  0.0563  0.4416 -0.1641
 9711SOL    HW130349   4.094   8.566   1.347  0.6360  0.2507 -0.5909
 9711SOL    HW230350   4.008   8.638   1.245  0.2798  0.0816 -0.4097
 9712SOL     OW30351   5.299   0.631   0.141 -0.0248 -0.3386 -0.5892
 9712SOL    HW130352   5.287   0.638   0.046 -0.8417  0.0811 -0.4638
 9712SOL    HW230353   5.231   0.571   0.170 -1.2382  1.2594  0.0012
 9713SOL     OW30354   4.527   1.013   1.181 -0.7709 -0.5710 -0.3126
 9713SOL    HW130355   4.470   0.936   1.189  1.4154 -2.2860 -0.1941
 9713SOL    HW230356   4.582   0.994   1.105 -0.0329  0.7918 -0.1479
 9714SOL     OW30357   4.661   1.861   1.852  0.4046  0.4793  0.5669
 9714SOL    HW130358   4.717   1.938   1.850 -0.4743  1.3533  3.6077
 9714SOL    HW230359   4.641   1.849   1.945 -0.5300 -2.6795  0.0734
 9715SOL     OW30360   5.730   1.609   1.589 -0.0825 -0.0231 -0.1901
 9715SOL    HW130361   5.670   1.625   1.516  0.9022  1.1470 -0.7730
 9715SOL    HW230362   5.672   1.596   1.665 -1.0823  0.8475 -0.7769
 9716SOL     OW30363   3.670   0.666   1.280  0.4285 -0.1265  0.1700
 9716SOL    HW130364   3.679   0.701   1.191  0.9611 -0.3818  0.1203
 9716SOL    HW230365   3.658   0.744   1.334  1.9225  0.1864  0.0998
 9717SOL     OW30366   5.586   0.011   0.293 -0.7884 -0.2513 -0.1269
 9717SOL    HW130367   5.592   0.103   0.317 -0.8216  0.2203 -1.7792
 9717SOL    HW230368   5.649   0.001   0.221 -0.6749 -1.5562  0.1346
 9718SOL     OW30369   5.258   0.858   0.389  0.1315  0.2007  0.1616
 9718SOL    HW130370   5.196   0.870   0.461  0.0218  1.2547 -0.0911
 9718SOL    HW230371   5.206   0.816   0.320 -1.0128  3.1432 -0.9192
 9719SOL     OW30372   4.779   1.425   0.813  0.1331  0.1938 -0.2673
 9719SOL    HW130373   4.752   1.431   0.905 -1.8017  2.3737 -0.8666
 9719SOL    HW230374   4.758   1.510   0.776  0.1407 -0.8442 -2.9292
 9720SOL     OW30375   3.739   0.531   0.307 -0.0990 -0.0692 -0.7966
 9720SOL    HW130376   3.771   0.457   0.359 -1.6808  1.6167  2.9468
 9720SOL    HW230377   3.645   0.514   0.297 -0.7494  1.9551  1.2804
 9721SOL     OW30378   4.212   0.453   0.869  0.4950 -0.3127 -0.4248
 9721SOL    HW130379   4.209   0.384   0.935  0.1298  0.7128  0.6821
 9721SOL    HW230380   4.292   0.502   0.889 -1.3091  2.0927  1.5529
 9722SOL     OW30381   4.927   0.826   1.585 -0.0981  0.5357  0.0618
 9722SOL    HW130382   4.852   0.871   1.547  0.3342  0.4576 -0.8907
 9722SOL    HW230383   4.981   0.800   1.511 -0.0412 -1.0359  0.6095
 9723SOL     OW30384   5.127   0.570   1.648  0.9102 -0.0252  0.0444
 9723SOL    HW130385   5.109   0.644   1.706  0.3120  1.2372 -1.6640
 9723SOL    HW230386   5.174   0.609   1.574 -0.1389 -1.2059 -1.2789
 9724SOL     OW30387   3.936   1.956   0.883  0.0520 -0.0016  0.2632
 9724SOL    HW130388   3.923   2.037   0.932  2.0750  2.3850 -2.7611
 9724SOL    HW230389   4.026   1.961   0.851 -0.8324 -1.6161 -3.0326
 9725SOL     OW30390   3.960   1.206   0.939  0.2831 -0.1551 -0.4981
 9725SOL    HW130391   4.039   1.179   0.892 -0.7491 -0.8755 -1.9277
 9725SOL    HW230392   3.902   1.240   0.870  0.2171  2.5987  0.8256
 9726SOL     OW30393   4.127   0.953   1.120 -0.1647  0.5187 -0.1854
 9726SOL    HW130394   4.058   0.934   1.056  0.0184 -0.7975 -0.0333
 9726SOL    HW230395   4.146   1.046   1.108 -1.4299  0.7318 -0.7536
 9727SOL     OW30396   4.427   0.631   0.928 -0.4656 -0.0809 -0.0660
 9727SOL    HW130397   4.402   0.665   1.014  1.5187  0.2006  0.4536
 9727SOL    HW230398   4.409   0.703   0.867  4.1459  2.4842  1.0762
 9728SOL     OW30399   3.904   0.559   1.557 -0.0496 -0.6623 -0.0822
 9728SOL    HW130400   3.952   0.529   1.481  0.7679 -2.1681  0.9871
 9728SOL    HW230401   3.876   0.648   1.534 -1.0146 -1.5638 -2.6386
 9729SOL     OW30402   4.945   1.013   1.826  0.1084 -0.3017  0.2315
 9729SOL    HW130403   4.960   0.969   1.743  0.2184 -0.3571  0.2795
 9729SOL    HW230404   4.944   0.942   1.891 -2.3789 -0.5470  0.0240
 9730SOL     OW30405   4.501   0.458   0.381  0.2038  0.4496 -0.2577
 9730SOL    HW130406   4.452   0.535   0.411  1.0111  0.7280  0.3797
 9730SOL    HW230407   4.522   0.410   0.461 -0.9640 -0.8728 -0.7052
 9731SOL     OW30408   5.382   1.025   0.772 -0.1361 -0.0822 -0.4623
 9731SOL    HW130409   5.304   1.053   0.724  0.5403  1.8655 -0.5208
 9731SOL    HW230410   5.452   1.026   0.707  0.0761 -1.2875 -0.2860
 9732SOL     OW30411   4.159   1.308   1.639  0.9280  0.2569  0.4301
 9732SOL    HW130412   4.114   1.287   1.721  0.8804 -1.7009 -0.0445
 9732SOL    HW230413   4.205   1.390   1.657  0.1997  0.3336  2.1193
 9733SOL     OW30414   4.348   0.615   1.362  0.4871  0.1441  0.2376
 9733SOL    HW130415   4.405   0.596   1.436 -0.5477 -0.3200  0.9451
 9733SOL    HW230416   4.302   0.532   1.345 -0.7997  0.7936  0.4285
 9734SOL     OW30417   4.924   1.669   1.141 -0.5829 -0.4586 -0.5104
 9734SOL    HW130418   4.915   1.733   1.070  0.7703 -0.0856 -0.3853
 9734SOL    HW230419   4.864   1.700   1.209  0.7518  1.3194 -0.0460
 9735SOL     OW30420   4.013   0.988   0.431 -0.0468  0.2516  0.4117
 9735SOL    HW130421   4.090   1.038   0.405  0.6330 -0.6638  0.6288
 9735SOL    HW230422   4.046   0.922   0.492 -1.0904  0.2029  0.9529
 9736SOL     OW30423   3.414   0.702   1.552  0.2243  0.0304 -0.3371
 9736SOL    HW130424   3.502   0.670   1.573 -0.2701 -1.9580 -1.0015
 9736SOL    HW230425   3.427   0.764   1.481  0.9985 -1.6394 -1.7228
 9737SOL     OW30426   5.028   1.420   1.294 -0.4042 -0.1529 -0.3480
 9737SOL    HW130427   5.014   1.352   1.228  0.5186  1.5551 -2.4475
 9737SOL    HW230428   5.001   1.501   1.251  1.7844  1.2618  0.7411
 9738SOL     OW30429   5.206   0.520   8.724 -0.1609 -0.2430 -0.1795
 9738SOL    HW130430   5.225   0.446   8.781  1.6249  0.6467  0.4560
 9738SOL    HW230431   5.112   0.535   8.734 -0.1533 -1.0448  1.3687
 9739SOL     OW30432   5.221   1.922   1.066 -0.3718 -0.3667  0.1316
 9739SOL    HW130433   5.314   1.942   1.070 -0.7631  2.1230 -0.7557
 9739SOL    HW230434   5.207   1.892   0.976 -0.3259 -1.5086  0.4940
 9740SOL     OW30435   5.162   1.789   0.801 -0.0166 -0.1437 -0.3377
 9740SOL    HW130436   5.155   1.864   0.741  0.9071  0.3312  0.1424
 9740SOL    HW230437   5.139   1.713   0.746 -2.9412  0.6370 -0.3553
 9741SOL     OW30438   4.013   1.606   1.728  0.4780 -0.2348  0.1484
 9741SOL    HW130439   4.093   1.571   1.688  0.0029 -1.8946  0.5736
 9741SOL    HW230440   4.040   1.632   1.816  0.6073 -0.5758  0.2126
 9742SOL     OW30441   4.513   1.647   1.732 -0.0018 -0.2522 -0.0475
 9742SOL    HW130442   4.558   1.727   1.761  1.6205 -0.8433 -0.7991
 9742SOL    HW230443   4.573   1.607   1.670 -1.1307 -1.6737 -0.2823
 9743SOL     OW30444   5.008   8.568   0.431 -0.2921  0.7105 -0.3588
 9743SOL    HW130445   4.952   8.500   0.469 -1.2147  1.3934 -0.4654
 9743SOL    HW230446   5.009   8.548   0.337 -0.2510  0.6302 -0.3420
 9744SOL     OW30447   5.586   0.323   0.342  0.6025 -0.1728  0.0297
 9744SOL    HW130448   5.616   0.413   0.355 -0.9468  0.8232 -2.4289
 9744SOL    HW230449   5.491   0.327   0.358  0.2476 -0.9678 -1.6481
 9745SOL     OW30450   5.047   1.350   0.472  0.3411 -0.5511 -0.2867
 9745SOL    HW130451   5.122   1.302   0.437  1.4225  1.2898 -0.6268
 9745SOL    HW230452   5.081   1.437   0.491 -1.6569  0.2455 -0.1265
 9746SOL     OW30453   3.587   2.200   1.988 -0.4344 -0.0962  0.1270
 9746SOL    HW130454   3.553   2.126   2.039 -0.8010 -0.6379 -0.8831
 9746SOL    HW230455   3.514   2.262   1.984 -1.0788 -0.9207 -1.3875
 9747SOL     OW30456   5.154   1.143   0.676  0.5358 -0.1644  0.3006
 9747SOL    HW130457   5.191   1.231   0.683  1.4424 -0.3664 -1.3662
 9747SOL    HW230458   5.077   1.153   0.621  1.2289 -0.5352 -0.7728
 9748SOL     OW30459   4.489   1.728   1.444  0.2937  0.2129 -0.6741
 9748SOL    HW130460   4.530   1.790   1.505  0.0162  0.2903 -0.5631
 9748SOL    HW230461   4.429   1.782   1.393 -0.4301 -0.0718 -0.1344
 9749SOL     OW30462   4.319   1.388   8.644 -0.5797 -0.1044  0.8867
 9749SOL    HW130463   4.364   1.472   8.650 -2.2537  0.7870  1.3610
 9749SOL    HW230464   4.342   1.355   8.557 -0.4327  1.1603  0.4193
 9750SOL     OW30465   5.232   1.951   1.572 -0.1820 -0.5576  0.0628
 9750SOL    HW130466   5.235   1.857   1.592  3.6581 -0.4377  0.7730
 9750SOL    HW230467   5.319   1.971   1.537 -0.9970  2.6955 -0.4318
 9751SOL     OW30468   5.606   0.252   1.262 -0.9477 -0.1615  0.4444
 9751SOL    HW130469   5.666   0.181   1.286 -0.8447 -0.0372  0.5493
 9751SOL    HW230470   5.534   0.207   1.217  0.1948 -0.1124 -1.5698
 9752SOL     OW30471   4.239   0.361   0.607 -0.0946  0.2759  0.4366
 9752SOL    HW130472   4.212   0.364   0.699 -1.9538  3.5209 -0.0500
 9752SOL    HW230473   4.330   0.391   0.608 -0.3916  1.2057  1.1693
 9753SOL     OW30474   4.905   1.549   8.796  0.1630  0.0824  0.5846
 9753SOL    HW130475   4.980   1.580   8.744 -0.2160  0.6229  0.3516
 9753SOL    HW230476   4.908   1.603   8.875  0.6299 -0.6127  1.0504
 9754SOL     OW30477   4.958   1.281   1.081 -0.1260  0.7526 -0.5463
 9754SOL    HW130478   4.888   1.321   1.029 -1.6841 -0.6728  0.3406
 9754SOL    HW230479   4.924   1.194   1.103  2.0071 -0.0236 -0.1615
 9755SOL     OW30480   5.466   0.953   0.229  0.0720 -0.1077  0.6420
 9755SOL    HW130481   5.379   0.933   0.265 -0.0224 -1.9114 -0.4721
 9755SOL    HW230482   5.481   1.044   0.254 -2.0589  0.1986  1.0573
 9756SOL     OW30483   5.196   1.910   0.106  0.2119 -0.3391 -0.5859
 9756SOL    HW130484   5.142   1.939   0.179  0.8846 -0.9841  0.1957
 9756SOL    HW230485   5.195   1.983   0.045 -0.6330  0.0875 -0.0853
 9757SOL     OW30486   4.268   1.576   1.647 -0.3047  0.2922  0.0176
 9757SOL    HW130487   4.350   1.598   1.691  1.4045 -1.2242 -2.1430
 9757SOL    HW230488   4.262   1.638   1.575 -0.8422  0.1266 -0.0852
 9758SOL     OW30489   5.153   1.121   0.972 -0.0010  0.3785 -0.0128
 9758SOL    HW130490   5.130   1.100   0.882 -0.9300 -0.2065  0.3530
 9758SOL    HW230491   5.075   1.164   1.007  1.0456  2.4656 -0.0660
 9759SOL     OW30492   4.879   1.227   0.659 -0.2514  0.1433  0.2512
 9759SOL    HW130493   4.839   1.292   0.718  0.4491  0.1296  0.7519
 9759SOL    HW230494   4.921   1.280   0.591 -2.1655  0.1437 -1.0259
 9760SOL     OW30495   4.660   0.460   0.961  0.9032  0.2496  0.2933
 9760SOL    HW130496   4.572   0.482   0.929  1.4093 -1.1180 -2.3572
 9760SOL    HW230497   4.649   0.446   1.055 -0.7743  4.4912  0.9560
 9761SOL     OW30498   4.468   1.354   0.307 -0.2632 -0.1275 -0.2631
 9761SOL    HW130499   4.523   1.298   0.362 -0.6231 -0.2302 -0.0099
 9761SOL    HW230500   4.531   1.410   0.261  0.0369  0.0851  0.3841
 9762SOL     OW30501   5.455   0.793   1.446  0.5081  0.1038  0.2445
 9762SOL    HW130502   5.382   0.769   1.389  1.5444  1.5646 -1.8407
 9762SOL    HW230503   5.416   0.849   1.513 -0.7084 -1.5326  0.9782
 9763SOL     OW30504   4.033   1.368   8.619 -0.2343 -0.1190 -0.1395
 9763SOL    HW130505   4.116   1.376   8.665 -0.3699 -1.5154  0.3664
 9763SOL    HW230506   3.967   1.374   8.688 -0.5786  0.8855 -0.5282
 9764SOL     OW30507   3.574   0.983   1.784 -0.1476 -0.7311 -0.0629
 9764SOL    HW130508   3.665   0.964   1.809 -0.4477 -0.1027  1.6767
 9764SOL    HW230509   3.564   1.077   1.804 -1.1119 -0.7420 -0.4756
 9765SOL     OW30510   4.552   0.454   1.582 -0.0984  0.0441 -0.1687
 9765SOL    HW130511   4.480   0.424   1.638  1.4312  1.2149  2.6932
 9765SOL    HW230512   4.603   0.376   1.565 -0.0385 -0.2154  1.0571
 9766SOL     OW30513   4.113   0.005   0.089  0.1538 -0.1972 -0.1085
 9766SOL    HW130514   4.073  -0.080   0.070 -0.3392  0.3895 -1.9098
 9766SOL    HW230515   4.163  -0.010   0.170 -1.0613 -1.8060  0.4196
 9767SOL     OW30516   4.983   1.263   1.519 -0.3215 -0.1845 -0.4289
 9767SOL    HW130517   4.997   1.335   1.458 -0.9730  0.5427  0.2538
 9767SOL    HW230518   4.889   1.244   1.513 -0.4678  0.1484  0.5922
 9768SOL     OW30519   3.888   8.717   0.425 -0.0875  0.5297 -0.5090
 9768SOL    HW130520   3.881   8.808   0.456 -1.2212  0.5856 -0.8738
 9768SOL    HW230521   3.892   8.665   0.505 -0.4869  0.8376 -0.2817
 9769SOL     OW30522   5.263   1.033   8.576  0.0128 -0.0918 -0.3917
 9769SOL    HW130523   5.179   0.998   8.606 -0.2523  0.3395 -0.6172
 9769SOL    HW230524   5.329   0.989   8.630 -0.4332  0.4016  0.5729
 9770SOL     OW30525   4.041   0.747   1.292  0.2695  0.0543  0.1315
 9770SOL    HW130526   4.025   0.800   1.214 -0.6392 -1.7285 -0.9548
 9770SOL    HW230527   4.009   0.660   1.269 -1.1686 -0.2597  2.9306
 9771SOL     OW30528   4.833   2.195   0.305 -0.0998 -0.0453 -0.0552
 9771SOL    HW130529   4.871   2.279   0.329  2.1474 -0.9188 -0.3706
 9771SOL    HW230530   4.749   2.193   0.351  0.8278  1.4070  1.8228
 9772SOL     OW30531   4.086   0.818   1.726 -0.5873 -0.1528 -0.4327
 9772SOL    HW130532   4.043   0.866   1.655 -0.4949 -0.0300 -0.4060
 9772SOL    HW230533   4.155   0.769   1.682  1.8684  2.6635 -0.0472
 9773SOL     OW30534   5.300   1.377   1.460 -0.4586  0.0037 -0.0245
 9773SOL    HW130535   5.218   1.404   1.418 -0.7478  1.2482  1.2691
 9773SOL    HW230536   5.276   1.301   1.513 -0.1495 -1.3989 -1.7925
 9774SOL     OW30537   4.254   1.927   1.939 -0.5775  0.3470 -0.0927
 9774SOL    HW130538   4.269   1.900   1.849 -0.4823 -0.2821  0.1115
 9774SOL    HW230539   4.173   1.979   1.935 -2.1608 -1.9657 -0.1351
 9775SOL     OW30540   5.562   1.342   1.573  0.7837  0.4212  0.3529
 9775SOL    HW130541   5.476   1.314   1.540  0.7836 -0.6021  1.1743
 9775SOL    HW230542   5.565   1.436   1.555  0.4601  0.0701 -1.8092
 9776SOL     OW30543   5.173   0.207   0.207 -0.2262  0.3582 -0.4934
 9776SOL    HW130544   5.173   0.122   0.165  0.4166  0.3701 -0.5245
 9776SOL    HW230545   5.225   0.195   0.287 -2.9397 -0.1482  1.3163
 9777SOL     OW30546   4.316   0.683   0.375  0.6416  0.2341  0.1991
 9777SOL    HW130547   4.351   0.739   0.306 -0.1286  0.4423 -0.0311
 9777SOL    HW230548   4.229   0.658   0.344  0.5601 -0.2291  0.7821
 9778SOL     OW30549   5.323   0.763   1.815  0.1167 -0.0995 -0.5089
 9778SOL    HW130550   5.355   0.681   1.778  0.6115  0.1283 -0.5916
 9778SOL    HW230551   5.312   0.745   1.909 -0.3479 -0.4332 -0.6260
 9779SOL     OW30552   5.590   1.041   1.855  0.4517  0.3271  0.6408
 9779SOL    HW130553   5.532   1.113   1.879  0.7038  0.3475  1.2007
 9779SOL    HW230554   5.678   1.078   1.862  0.5218  0.7242 -1.5962
 9780SOL     OW30555   4.656   1.108   0.054 -0.6973 -0.4868 -0.6670
 9780SOL    HW130556   4.645   1.075   0.144  0.2549  0.4560 -0.1830
 9780SOL    HW230557   4.568   1.132   0.027 -0.7414  1.5027  0.9587
 9781SOL     OW30558   4.062   2.002   0.365  0.8747  0.0857 -0.3543
 9781SOL    HW130559   4.143   2.028   0.408  0.1726  0.0096  1.1056
 9781SOL    HW230560   3.993   2.032   0.425 -0.1121 -0.9846 -0.9096
 9782SOL     OW30561   4.916   1.009   1.195 -0.2749 -0.2869 -0.4136
 9782SOL    HW130562   4.949   0.947   1.261 -0.6326 -0.4825 -0.4202
 9782SOL    HW230563   4.828   0.979   1.175  0.0633 -0.6055 -1.4617
 9783SOL     OW30564   5.041   0.925   8.716  0.5019 -0.6279  0.3635
 9783SOL    HW130565   4.969   0.986   8.732  0.4362 -0.5328 -0.2361
 9783SOL    HW230566   5.036   0.861   8.787 -0.9636 -1.3576 -0.3555
 9784SOL     OW30567   5.451   1.612   0.681  0.8291 -0.0975  0.0348
 9784SOL    HW130568   5.490   1.599   0.767  1.8531  0.5370 -0.3147
 9784SOL    HW230569   5.458   1.706   0.665 -2.7636  0.4313  0.8252
 9785SOL     OW30570   3.783   1.512   2.205  0.2810  0.4184  0.2144
 9785SOL    HW130571   3.771   1.472   2.291  1.5877 -2.0708 -0.6732
 9785SOL    HW230572   3.719   1.583   2.203 -0.8120 -0.3865  2.6662
 9786SOL     OW30573   4.210   1.219   0.822  0.2610 -0.6395  0.4020
 9786SOL    HW130574   4.219   1.159   0.748  1.6583  1.5609 -1.3704
 9786SOL    HW230575   4.295   1.216   0.866 -0.2254 -1.1767  1.3264
 9787SOL     OW30576   4.436   1.219   1.720 -0.1682  0.2131  0.1222
 9787SOL    HW130577   4.383   1.153   1.764  0.2977 -0.7311 -0.7059
 9787SOL    HW230578   4.388   1.237   1.639  0.2991  0.0408 -0.1921
 9788SOL     OW30579   5.403   0.103   1.158 -0.2234 -0.0099  0.2667
 9788SOL    HW130580   5.365   0.024   1.197  0.3686 -0.2619  0.3482
 9788SOL    HW230581   5.388   0.093   1.064 -0.0918 -0.2629  0.2686
 9789SOL     OW30582   3.994   0.244   0.201  0.2769  0.4682 -0.1428
 9789SOL    HW130583   4.025   0.162   0.162  0.6220  1.1717 -1.3920
 9789SOL    HW230584   4.073   0.297   0.212 -0.1409  1.2796 -0.9351
 9790SOL     OW30585   5.548   1.591   0.941 -0.3005 -0.3468  0.3764
 9790SOL    HW130586   5.457   1.582   0.969  0.0888 -0.1504  1.8221
 9790SOL    HW230587   5.588   1.647   1.008  0.3524  1.4959 -1.4452
 9791SOL     OW30588   4.008   0.464   1.315 -0.1544  0.1544  0.2167
 9791SOL    HW130589   4.091   0.421   1.292  1.1129  1.5905  1.8426
 9791SOL    HW230590   3.941   0.404   1.282  1.5056 -1.7745  0.0988
 9792SOL     OW30591   4.482   1.525   0.561 -0.1663  0.0390  0.2058
 9792SOL    HW130592   4.482   1.462   0.489  0.3705 -1.8248  1.7692
 9792SOL    HW230593   4.396   1.516   0.601 -0.5755  1.2889 -0.3224
 9793SOL     OW30594   5.269   0.296   0.950 -0.1339 -0.2237 -0.2553
 9793SOL    HW130595   5.299   0.371   1.001 -1.5109  0.7563 -0.8480
 9793SOL    HW230596   5.222   0.241   1.014 -0.6110  0.2817 -0.1672
 9794SOL     OW30597   4.448   0.160   1.333  0.5345  0.5716 -0.2849
 9794SOL    HW130598   4.495   0.088   1.375  0.5647  1.8107  1.9114
 9794SOL    HW230599   4.387   0.117   1.273 -1.0373 -1.4348  2.5806
 9795SOL     OW30600   4.600   1.186   0.475  0.2213  0.4668  0.0380
 9795SOL    HW130601   4.579   1.155   0.563 -0.9826  0.9213 -0.0642
 9795SOL    HW230602   4.679   1.237   0.485  0.5724 -0.1884  0.7077
 9796SOL     OW30603   4.319   1.958   1.364 -0.4839 -0.2653 -0.2909
 9796SOL    HW130604   4.228   1.988   1.365 -0.5264 -0.2600 -1.6784
 9796SOL    HW230605   4.369   2.037   1.341 -0.3082 -0.6024 -1.1110
 9797SOL     OW30606   5.746   8.595   0.729 -0.7882  0.3629  0.4909
 9797SOL    HW130607   5.837   8.620   0.713 -0.1081 -2.3214 -0.3461
 9797SOL    HW230608   5.695   8.653   0.673  0.5129  1.0235 -0.0543
 9798SOL     OW30609   4.709   0.910   0.964 -0.2614  0.0308 -0.2459
 9798SOL    HW130610   4.772   0.877   0.900 -1.8969 -0.3398 -1.7446
 9798SOL    HW230611   4.678   0.832   1.010 -1.4033 -0.1487 -1.2447
 9799SOL     OW30612   5.359   0.386   0.693 -0.5412 -0.4396  0.2761
 9799SOL    HW130613   5.315   0.364   0.776 -0.1503  0.5529  0.7608
 9799SOL    HW230614   5.308   0.459   0.658 -0.0348 -0.1225  0.2004
 9800SOL     OW30615   4.044   0.812   0.698  0.2153 -0.1758  0.1591
 9800SOL    HW130616   3.965   0.842   0.653  1.7633  0.8011 -2.1002
 9800SOL    HW230617   4.017   0.731   0.741 -1.2882 -1.7402 -3.3176
 9801SOL     OW30618   4.587   1.767   0.116  0.2165 -1.1269 -0.4824
 9801SOL    HW130619   4.645   1.695   0.143 -0.7217 -0.4771  4.0171
 9801SOL    HW230620   4.638   1.846   0.131 -0.4735 -0.6949 -0.3739
 9802SOL     OW30621   4.461   1.000   2.196 -0.2642 -0.0930  0.4938
 9802SOL    HW130622   4.479   1.050   2.275 -0.6052 -0.8967  1.0855
 9802SOL    HW230623   4.366   1.001   2.188 -0.1835  1.2062 -0.7163
 9803SOL     OW30624   3.747   8.694   2.819  0.5796 -0.1944 -0.0671
 9803SOL    HW130625   3.781   8.648   2.896 -1.6637 -1.7125  0.1229
 9803SOL    HW230626   3.752   8.630   2.749  0.9471  0.5917 -0.7809
 9804SOL     OW30627   3.782   0.391   2.422  0.3384  0.1048  0.0169
 9804SOL    HW130628   3.824   0.309   2.395  0.2621 -0.1218  0.5657
 9804SOL    HW230629   3.767   0.438   2.340 -0.4136 -0.8082 -0.3909
 9805SOL     OW30630   3.808   0.955   2.769 -0.3880 -0.0442  0.0712
 9805SOL    HW130631   3.728   0.907   2.748 -1.1588  0.1916  2.2769
 9805SOL    HW230632   3.778   1.045   2.787  0.5760  0.4089 -0.5084
 9806SOL     OW30633   5.021   2.051   2.548 -0.6511  0.3890  0.0915
 9806SOL    HW130634   4.975   1.995   2.611 -0.7393 -0.3126 -0.5764
 9806SOL    HW230635   4.983   2.028   2.463  0.2037  0.5529 -0.3509
 9807SOL     OW30636   4.913   1.196   2.805  0.0137 -1.0090 -0.6899
 9807SOL    HW130637   4.943   1.195   2.895  1.3810 -0.8747 -1.1164
 9807SOL    HW230638   4.824   1.161   2.808  0.0687 -1.0563  0.6909
 9808SOL     OW30639   5.203   0.963   2.140 -0.3040 -0.2960  0.0082
 9808SOL    HW130640   5.113   0.986   2.161 -0.1006  0.3972  0.1561
 9808SOL    HW230641   5.207   0.868   2.152 -0.6949 -0.1776  1.2105
 9809SOL     OW30642   4.004   0.803   2.904 -0.2858 -0.2192 -0.4081
 9809SOL    HW130643   3.947   0.823   2.829  0.7065 -1.6118 -1.5897
 9809SOL    HW230644   4.044   0.887   2.926  0.1386  0.0566 -2.1043
 9810SOL     OW30645   4.871   0.290   3.762  0.0341 -0.4104 -0.4701
 9810SOL    HW130646   4.877   0.383   3.739  2.6288 -0.2799  0.4880
 9810SOL    HW230647   4.919   0.245   3.694  0.8907 -0.7827  0.3560
 9811SOL     OW30648   4.650   1.103   2.838 -0.2366  0.2012  0.0837
 9811SOL    HW130649   4.626   1.064   2.754  0.0492  1.0531 -0.4086
 9811SOL    HW230650   4.636   1.033   2.902 -1.8553 -0.0213 -0.4760
 9812SOL     OW30651   4.481   0.737   3.637  0.0540  0.3969 -0.3376
 9812SOL    HW130652   4.464   0.829   3.657 -0.2666  0.2573  0.0535
 9812SOL    HW230653   4.394   0.699   3.623  0.2733  0.5926 -2.5938
 9813SOL     OW30654   3.988   1.255   2.869 -0.4765  0.1136 -0.1369
 9813SOL    HW130655   4.020   1.303   2.792 -0.9298  0.7379  0.0508
 9813SOL    HW230656   3.893   1.248   2.854 -0.7231  1.1155  0.8260
 9814SOL     OW30657   4.836   1.437   3.194  0.4816  0.1183  0.0739
 9814SOL    HW130658   4.812   1.463   3.106  2.1680  1.1392 -0.1112
 9814SOL    HW230659   4.859   1.518   3.239  0.8480 -0.5048  1.0657
 9815SOL     OW30660   3.785   0.406   3.064  0.2305  0.6610  0.2696
 9815SOL    HW130661   3.752   0.338   3.123 -0.1302  1.1036  0.5805
 9815SOL    HW230662   3.865   0.437   3.105  1.0789 -0.4360 -0.5014
 9816SOL     OW30663   4.880   0.666   3.030 -0.1792  0.1034 -0.0615
 9816SOL    HW130664   4.969   0.644   3.056 -1.0926 -1.2684  2.2109
 9816SOL    HW230665   4.850   0.592   2.978  0.0865  0.6932 -1.0669
 9817SOL     OW30666   4.004   1.824   2.492 -0.1092  0.3935  0.0113
 9817SOL    HW130667   4.027   1.883   2.564  2.1058 -0.9263  0.4961
 9817SOL    HW230668   4.059   1.853   2.419 -1.0319  0.6082 -0.6132
 9818SOL     OW30669   4.641   1.763   3.789  0.4833  0.1166  0.1583
 9818SOL    HW130670   4.594   1.762   3.706  2.0508  0.8427 -0.7862
 9818SOL    HW230671   4.682   1.849   3.793  2.6297 -0.8400  0.3737
 9819SOL     OW30672   4.016   1.475   2.411 -0.3206 -0.4795  0.0043
 9819SOL    HW130673   3.966   1.496   2.489  0.3057 -0.8846  0.5297
 9819SOL    HW230674   4.066   1.554   2.392  2.2318 -1.4440  2.1276
 9820SOL     OW30675   3.584   0.731   3.075  0.4167  0.4873 -0.1362
 9820SOL    HW130676   3.595   0.668   3.004  1.3047 -1.4558  1.6448
 9820SOL    HW230677   3.657   0.715   3.134 -1.0581  1.0584  1.9515
 9821SOL     OW30678   4.343   1.628   3.143 -0.5048 -0.0347  0.6590
 9821SOL    HW130679   4.283   1.666   3.208 -1.0467 -1.1629  0.8479
 9821SOL    HW230680   4.429   1.629   3.185 -0.7039  0.0150  1.0668
 9822SOL     OW30681   4.753   1.328   2.428 -0.2127 -0.1208  0.4164
 9822SOL    HW130682   4.753   1.367   2.515 -1.4704  0.7408  0.0492
 9822SOL    HW230683   4.684   1.261   2.432 -0.1069 -0.2470  0.1503
 9823SOL     OW30684   5.307   8.694   3.138  0.3498  0.5078 -0.1255
 9823SOL    HW130685   5.253   8.756   3.090 -1.0222  0.1056  0.8260
 9823SOL    HW230686   5.306   8.726   3.228 -1.2954 -1.3951  0.6175
 9824SOL     OW30687   3.822   0.765   2.226 -0.3626  0.3899 -0.4377
 9824SOL    HW130688   3.783   0.850   2.203  0.1531  0.9647  0.7094
 9824SOL    HW230689   3.870   0.739   2.147 -2.1317  0.1862 -1.4924
 9825SOL     OW30690   5.341   1.706   2.147  0.2049 -0.1363 -0.3718
 9825SOL    HW130691   5.338   1.781   2.207 -1.4265 -0.3034 -0.2125
 9825SOL    HW230692   5.404   1.646   2.188 -0.4403  0.0068  0.8817
 9826SOL     OW30693   3.615   1.377   1.999 -0.1285  0.1572  0.0899
 9826SOL    HW130694   3.602   1.290   2.037 -0.8589 -0.4100 -1.3760
 9826SOL    HW230695   3.643   1.432   2.073 -0.9376 -1.0097  1.3019
 9827SOL     OW30696   5.654   1.242   2.606  0.4437  0.3630  0.3989
 9827SOL    HW130697   5.738   1.199   2.622 -0.5478 -1.0083  2.3364
 9827SOL    HW230698   5.629   1.214   2.518  2.6094  1.9447 -0.8216
 9828SOL     OW30699   4.983   1.275   2.294  0.3452  0.1575  0.4769
 9828SOL    HW130700   4.893   1.288   2.324  0.5462 -0.2747  1.3028
 9828SOL    HW230701   5.037   1.294   2.371  0.9730  0.5806 -0.0540
 9829SOL     OW30702   4.050   1.059   3.499 -0.0561  0.0070  0.1624
 9829SOL    HW130703   4.106   1.131   3.471 -1.4771  1.4879  0.9213
 9829SOL    HW230704   4.072   0.986   3.441  1.3169  1.1004 -0.7400
 9830SOL     OW30705   4.373   1.255   2.781  0.0915  0.0681 -0.1008
 9830SOL    HW130706   4.424   1.181   2.814  2.9555  0.5802 -2.9147
 9830SOL    HW230707   4.319   1.218   2.711 -0.7510  0.1540  0.4944
 9831SOL     OW30708   4.605   0.827   4.066 -0.4374  0.3682  0.6349
 9831SOL    HW130709   4.524   0.854   4.109 -0.1550  0.2690  1.2404
 9831SOL    HW230710   4.609   0.732   4.078 -0.9290  0.1687 -0.6233
 9832SOL     OW30711   4.892   0.439   1.958 -0.7602  0.2376 -0.1271
 9832SOL    HW130712   4.854   0.496   1.892 -0.8754  0.7551  0.3825
 9832SOL    HW230713   4.982   0.470   1.968 -0.3997 -0.5467 -0.8356
 9833SOL     OW30714   3.751   1.095   3.299 -0.0577 -0.3963  0.0813
 9833SOL    HW130715   3.740   1.011   3.344  0.4787 -1.1348 -1.0965
 9833SOL    HW230716   3.683   1.095   3.232  0.3731 -0.2142 -0.3653
 9834SOL     OW30717   5.202   1.237   2.041  0.0414  0.1783  0.2801
 9834SOL    HW130718   5.179   1.145   2.034  0.8356 -0.0845  0.9997
 9834SOL    HW230719   5.126   1.279   2.080 -1.2280  0.2511 -2.0647
 9835SOL     OW30720   5.015   1.870   3.500 -0.0966 -0.2198  0.0827
 9835SOL    HW130721   4.943   1.897   3.443 -0.1959  0.7656  0.6500
 9835SOL    HW230722   5.029   1.945   3.558  0.8130 -0.7330  0.5499
 9836SOL     OW30723   4.355   0.604   3.935  0.3787 -0.0098 -0.4811
 9836SOL    HW130724   4.444   0.617   3.901  0.4567  0.8856  0.0287
 9836SOL    HW230725   4.302   0.588   3.857  1.0192 -0.8381 -0.7718
 9837SOL     OW30726   4.830   1.884   2.674 -0.4151  0.4558 -0.3291
 9837SOL    HW130727   4.789   1.918   2.753 -1.7814 -0.6295 -0.5358
 9837SOL    HW230728   4.767   1.820   2.640  1.4483 -1.2792 -0.6751
 9838SOL     OW30729   5.631   2.664   2.609  0.7215 -0.0516  0.3504
 9838SOL    HW130730   5.673   2.696   2.689  0.8118  0.4212  0.1186
 9838SOL    HW230731   5.564   2.603   2.640 -0.0987  1.0749  0.8736
 9839SOL     OW30732   4.465   0.611   2.640  0.0930  0.1664  0.2946
 9839SOL    HW130733   4.378   0.646   2.622  0.6120  0.8467 -1.0819
 9839SOL    HW230734   4.493   0.572   2.556  0.7457 -0.8595  0.9632
 9840SOL     OW30735   4.822   0.881   2.881 -0.4401 -0.4242  0.7824
 9840SOL    HW130736   4.846   0.807   2.937  1.1731 -1.7407 -1.4883
 9840SOL    HW230737   4.780   0.841   2.805  0.5733  0.9380 -0.5654
 9841SOL     OW30738   5.117   1.553   2.121 -0.3603  0.1052  0.5525
 9841SOL    HW130739   5.196   1.606   2.130 -0.6491  0.9320 -1.2836
 9841SOL    HW230740   5.118   1.525   2.029 -1.9100 -0.3391  0.6487
 9842SOL     OW30741   4.346   0.512   3.244 -0.1292 -0.0597 -0.1179
 9842SOL    HW130742   4.436   0.480   3.232  0.6316  1.8012  0.3663
 9842SOL    HW230743   4.347   0.600   3.207 -1.3654  0.5462  1.2416
 9843SOL     OW30744   5.133   0.366   3.652  0.3476 -0.1541 -0.0526
 9843SOL    HW130745   5.119   0.346   3.744 -1.7398 -2.0120 -0.6830
 9843SOL    HW230746   5.109   0.458   3.644  0.8187  0.1083  1.2728
 9844SOL     OW30747   4.792   0.832   3.590 -0.3617 -0.5373 -0.0636
 9844SOL    HW130748   4.771   0.914   3.546 -0.0764  0.4256  1.5019
 9844SOL    HW230749   4.828   0.776   3.521 -1.7201  0.1806 -1.4183
 9845SOL     OW30750   5.042   0.082   3.641 -0.5540  0.1455 -0.0199
 9845SOL    HW130751   5.114   0.144   3.656  0.0623  0.2532 -2.8584
 9845SOL    HW230752   5.074  -0.001   3.677  0.7569  0.3453 -0.6693
 9846SOL     OW30753   4.829   0.959   2.486  0.9246 -0.0709 -0.7318
 9846SOL    HW130754   4.739   0.948   2.516  0.9347  0.2665 -0.5776
 9846SOL    HW230755   4.820   0.988   2.395  0.8077  2.5154  0.0380
 9847SOL     OW30756   3.833   0.563   2.630  0.0782  0.2916 -0.0075
 9847SOL    HW130757   3.919   0.603   2.624 -0.1711  0.8402  0.0298
 9847SOL    HW230758   3.828   0.506   2.553  0.4037  0.3911 -0.1031
 9848SOL     OW30759   3.778   1.856   3.404 -0.0492  0.0869  0.2126
 9848SOL    HW130760   3.712   1.888   3.466 -0.1298 -1.7372  1.1162
 9848SOL    HW230761   3.859   1.855   3.453  0.1369 -0.2122 -0.0971
 9849SOL     OW30762   4.338   0.650   1.910  0.2987 -0.6705  0.0132
 9849SOL    HW130763   4.335   0.574   1.851 -1.9682  0.2127 -1.1362
 9849SOL    HW230764   4.399   0.711   1.867 -0.1342 -0.6732 -0.6268
 9850SOL     OW30765   5.366   0.752   3.248 -0.1263  0.0521 -0.0765
 9850SOL    HW130766   5.374   0.847   3.262  0.8691  0.1615 -1.1638
 9850SOL    HW230767   5.361   0.715   3.336  0.1664  1.0685  0.3879
 9851SOL     OW30768   5.071   1.507   2.860 -0.2555 -0.3763  0.1514
 9851SOL    HW130769   5.082   1.429   2.914 -2.0758 -1.4557 -0.9221
 9851SOL    HW230770   4.983   1.539   2.882  0.9886  2.3461  1.6958
 9852SOL     OW30771   4.762   0.161   3.018  0.3339  0.2707 -0.1001
 9852SOL    HW130772   4.836   0.101   3.025  2.0322  1.9866 -2.0626
 9852SOL    HW230773   4.687   0.105   2.997  1.4208 -1.3322  0.1369
 9853SOL     OW30774   4.778   1.487   2.175 -0.4942 -0.1902  0.1395
 9853SOL    HW130775   4.687   1.456   2.179  0.3939 -2.9354  1.7529
 9853SOL    HW230776   4.807   1.487   2.267  1.2152  0.5080 -0.3609
 9854SOL     OW30777   3.579   1.520   2.949 -0.1291  0.2217 -0.0044
 9854SOL    HW130778   3.495   1.516   2.995 -1.0344 -0.3559 -1.6402
 9854SOL    HW230779   3.564   1.471   2.869  1.8215  0.0470 -0.2862
 9855SOL     OW30780   5.368   1.515   2.842  0.0056 -0.0896  0.2593
 9855SOL    HW130781   5.379   1.426   2.811 -0.2815  0.5562 -1.8828
 9855SOL    HW230782   5.282   1.541   2.809 -0.4796  0.5587  1.9734
 9856SOL     OW30783   4.997   1.159   3.962 -0.4444  0.3353 -0.0565
 9856SOL    HW130784   4.957   1.112   4.036 -0.1272  0.3655  0.1389
 9856SOL    HW230785   4.923   1.189   3.909 -0.6619 -0.2296 -0.0879
 9857SOL     OW30786   4.515   1.495   2.737  0.1593 -0.2482  0.3870
 9857SOL    HW130787   4.456   1.557   2.692  1.7082 -0.9008 -2.7919
 9857SOL    HW230788   4.459   1.420   2.758 -0.6002 -0.0212 -0.7331
 9858SOL     OW30789   5.377   1.259   2.755 -0.1297 -0.0464  0.2787
 9858SOL    HW130790   5.290   1.292   2.730  0.6466  0.6750 -1.6748
 9858SOL    HW230791   5.430   1.272   2.677  1.2990 -2.1292  0.8287
 9859SOL     OW30792   4.218   1.093   3.232  0.4593  0.4369  0.4162
 9859SOL    HW130793   4.183   1.004   3.238 -0.3934  0.5520 -1.8122
 9859SOL    HW230794   4.313   1.083   3.244  0.3582 -0.7358  0.3336
 9860SOL     OW30795   4.723   1.831   2.152  0.0363 -0.3332 -0.3612
 9860SOL    HW130796   4.807   1.785   2.155 -0.0817 -0.5446 -0.3256
 9860SOL    HW230797   4.726   1.889   2.229 -0.2622 -1.0547  0.1989
 9861SOL     OW30798   3.633   0.496   3.763  0.3482  0.1626  0.7046
 9861SOL    HW130799   3.579   0.571   3.739  1.2269  0.1659 -1.5229
 9861SOL    HW230800   3.656   0.455   3.680  2.4547 -0.7532  1.6480
 9862SOL     OW30801   5.439   1.665   2.463 -0.8481  0.3367 -0.6650
 9862SOL    HW130802   5.382   1.607   2.412 -0.3555 -1.3954  0.6481
 9862SOL    HW230803   5.518   1.613   2.478 -0.8400  0.8878  1.5428
 9863SOL     OW30804   4.192   1.686   2.325  0.0744 -0.0547 -0.7377
 9863SOL    HW130805   4.264   1.732   2.368  0.1857 -0.2098 -0.7573
 9863SOL    HW230806   4.217   1.684   2.232  0.0020 -0.0298 -0.7577
 9864SOL     OW30807   5.104   0.485   2.329  0.0355  0.2786 -0.2732
 9864SOL    HW130808   5.033   0.542   2.303 -1.3337 -0.4375  1.7038
 9864SOL    HW230809   5.107   0.491   2.424  2.5566  0.1700 -0.2758
 9865SOL     OW30810   3.955   1.600   2.911  0.2323  0.0986 -0.3010
 9865SOL    HW130811   4.003   1.578   2.831 -1.9443  0.0994 -1.6861
 9865SOL    HW230812   3.908   1.681   2.890 -2.3736 -1.2091  0.0114
 9866SOL     OW30813   4.539   2.230   2.970 -0.0758 -0.0852 -0.5578
 9866SOL    HW130814   4.544   2.221   3.065  0.0898  2.5927 -0.2272
 9866SOL    HW230815   4.483   2.157   2.942  0.5012 -1.3962  1.4636
 9867SOL     OW30816   4.085   0.433   2.556 -0.8437  0.1230  0.3437
 9867SOL    HW130817   4.115   0.457   2.644 -2.5537  0.7330  0.7830
 9867SOL    HW230818   4.003   0.386   2.570 -0.3100 -1.2568 -0.8474
 9868SOL     OW30819   4.895   8.653   3.821  0.2646  0.2359  0.5161
 9868SOL    HW130820   4.891   8.574   3.875 -0.5852 -0.0235  0.0937
 9868SOL    HW230821   4.923   8.722   3.881 -0.4273 -0.0984  1.2419
 9869SOL     OW30822   4.541   0.166   1.877 -0.0134  0.0926 -0.6537
 9869SOL    HW130823   4.467   0.164   1.816  0.4730  0.3227 -1.2640
 9869SOL    HW230824   4.561   0.259   1.888  0.6261  0.0057 -1.0430
 9870SOL     OW30825   4.295   0.084   3.478  0.3132 -0.2365 -0.3051
 9870SOL    HW130826   4.288   0.019   3.548 -0.5045 -0.2060 -0.3437
 9870SOL    HW230827   4.208   0.084   3.437  0.3232  0.8104 -0.3520
 9871SOL     OW30828   4.600   1.566   3.006 -0.0548 -0.1076  0.0145
 9871SOL    HW130829   4.574   1.475   3.015  0.8068 -0.5301 -1.4263
 9871SOL    HW230830   4.536   1.603   2.944  0.5947 -0.1893 -0.7113
 9872SOL     OW30831   5.244   0.916   3.099  0.3207  0.1999  0.2670
 9872SOL    HW130832   5.310   0.965   3.050  0.5523 -0.2150  0.1602
 9872SOL    HW230833   5.289   0.836   3.126  0.2102  0.4423  1.2037
 9873SOL     OW30834   4.572   1.917   3.062 -0.1313 -0.9556 -0.1067
 9873SOL    HW130835   4.539   1.876   2.982 -2.8275 -2.4773  1.6257
 9873SOL    HW230836   4.504   1.979   3.086  1.8331  1.3778 -0.2558
 9874SOL     OW30837   4.481   0.381   2.916 -0.2946 -0.4434  0.5744
 9874SOL    HW130838   4.571   0.402   2.892  0.1097 -1.3311  1.2465
 9874SOL    HW230839   4.443   0.465   2.945 -0.4017  0.3823 -1.7848
 9875SOL     OW30840   4.366   8.808   2.738 -0.2040 -0.3287  0.1112
 9875SOL    HW130841   4.447   8.811   2.687 -0.2887  0.7639  0.0212
 9875SOL    HW230842   4.335   8.898   2.740 -2.0912 -0.9102 -0.8925
 9876SOL     OW30843   5.127   1.455   1.846 -0.3935  0.1635  0.4294
 9876SOL    HW130844   5.156   1.382   1.791 -1.2350 -0.0359  0.2401
 9876SOL    HW230845   5.032   1.445   1.851 -0.3154  0.0500  2.1266
 9877SOL     OW30846   3.962   0.181   2.410 -0.2583  0.1276  0.6314
 9877SOL    HW130847   3.992   0.141   2.491  1.1436  0.4978  0.3097
 9877SOL    HW230848   3.958   0.108   2.347  0.4710  0.1654  0.5396
 9878SOL     OW30849   4.676   0.507   2.271 -0.3969  0.5147  0.7971
 9878SOL    HW130850   4.684   0.598   2.243  1.3199  0.3019  0.4778
 9878SOL    HW230851   4.676   0.456   2.190 -0.0585  0.1575  1.0170
 9879SOL     OW30852   4.912   0.553   3.673 -0.4260  0.1488  0.1519
 9879SOL    HW130853   4.883   0.644   3.677 -1.0100  0.0150 -0.6494
 9879SOL    HW230854   4.859   0.515   3.602 -1.5816 -1.3182  1.7209
 9880SOL     OW30855   4.465   1.485   2.203 -0.1557 -0.1326  0.6668
 9880SOL    HW130856   4.414   1.486   2.122 -0.2225 -2.8695  0.6088
 9880SOL    HW230857   4.493   1.576   2.214 -3.2195  1.0841 -0.4375
 9881SOL     OW30858   4.552   0.950   2.628 -0.1008 -0.2835 -0.1914
 9881SOL    HW130859   4.462   0.927   2.651  0.5097  0.5834  3.7944
 9881SOL    HW230860   4.604   0.872   2.652  0.5520  0.5762  1.3868
 9882SOL     OW30861   4.504   1.777   2.296 -0.4946 -0.8713 -0.2278
 9882SOL    HW130862   4.565   1.802   2.226 -1.3448 -0.0870 -0.7031
 9882SOL    HW230863   4.470   1.860   2.329 -2.6896 -1.3176 -1.2249
 9883SOL     OW30864   4.655   0.799   1.863  0.2504 -0.3532 -0.8076
 9883SOL    HW130865   4.591   0.825   1.797 -2.0381  0.6845  1.6407
 9883SOL    HW230866   4.676   0.880   1.909  2.0650 -0.9904 -0.4156
 9884SOL     OW30867   3.963   0.612   3.670 -0.3596  0.4449  0.1399
 9884SOL    HW130868   3.892   0.571   3.719 -0.5511  0.1851 -0.3557
 9884SOL    HW230869   3.951   0.706   3.685  0.2769  0.3167  1.5496
 9885SOL     OW30870   4.145   8.624   2.883 -0.1146  0.0130  0.3873
 9885SOL    HW130871   4.213   8.665   2.830 -0.7227 -1.8975 -2.0312
 9885SOL    HW230872   4.073   8.687   2.883 -0.0122  0.1551 -0.9002
 9886SOL     OW30873   4.378   0.441   2.242  0.2743  0.0806  0.1327
 9886SOL    HW130874   4.356   0.377   2.309 -0.2771  0.3189  0.1841
 9886SOL    HW230875   4.467   0.470   2.264  1.0370 -1.6029 -0.6317
 9887SOL     OW30876   4.788   0.232   2.151  0.0252  0.8068 -0.1297
 9887SOL    HW130877   4.789   0.292   2.076  0.6566  0.2186 -0.5909
 9887SOL    HW230878   4.848   0.162   2.128  1.2901  1.2860  1.4806
 9888SOL     OW30879   4.530   0.939   3.023  0.4475  0.2398 -0.1527
 9888SOL    HW130880   4.532   0.847   3.048 -0.0716  0.4301  0.6489
 9888SOL    HW230881   4.480   0.982   3.094  0.4575  1.0875 -0.6427
 9889SOL     OW30882   5.322   0.754   2.689  0.1532  0.5473 -1.1434
 9889SOL    HW130883   5.323   0.846   2.663  0.2402  1.5386  1.9872
 9889SOL    HW230884   5.403   0.741   2.738 -0.4448 -0.8244 -0.4414
 9890SOL     OW30885   5.615   1.091   2.347  0.0755  0.2053  0.3995
 9890SOL    HW130886   5.693   1.122   2.301  0.3240 -0.6087  0.2635
 9890SOL    HW230887   5.570   1.035   2.283 -1.1410  1.4229  0.1278
 9891SOL     OW30888   3.994   1.411   1.996 -0.0357 -0.4176  0.2907
 9891SOL    HW130889   3.938   1.397   2.073 -0.4466  0.3756  0.1492
 9891SOL    HW230890   4.014   1.504   1.998 -0.9440 -0.1568 -1.1587
 9892SOL     OW30891   5.184   1.424   2.626 -0.1940 -0.4756  0.2906
 9892SOL    HW130892   5.130   1.482   2.680 -1.2310 -0.6855 -0.4785
 9892SOL    HW230893   5.173   1.458   2.537  1.8132  0.1141  0.2221
 9893SOL     OW30894   5.327   0.758   2.329 -0.2135  0.2308  0.4083
 9893SOL    HW130895   5.242   0.756   2.373  0.3949 -1.6777  1.6073
 9893SOL    HW230896   5.379   0.691   2.374  2.2357  1.9311  0.3009
 9894SOL     OW30897   4.513   0.433   1.942  0.3236  0.7915 -1.0520
 9894SOL    HW130898   4.443   0.428   2.007  0.0153 -0.2232 -1.4488
 9894SOL    HW230899   4.539   0.525   1.943  0.0679  0.8696  0.2273
 9895SOL     OW30900   5.121   0.889   3.398 -0.0830 -0.0130 -0.3598
 9895SOL    HW130901   5.183   0.915   3.331 -0.2270 -0.1727 -0.5544
 9895SOL    HW230902   5.163   0.913   3.481  0.0326  0.3097 -0.5117
 9896SOL     OW30903   4.738   1.420   3.521  0.1665 -0.2782  0.0555
 9896SOL    HW130904   4.773   1.338   3.555 -0.4169 -0.5918 -0.0918
 9896SOL    HW230905   4.657   1.395   3.477 -0.2320  0.4334  0.3729
 9897SOL     OW30906   5.232   1.203   3.430 -0.0799  0.1610 -0.2359
 9897SOL    HW130907   5.139   1.214   3.410  0.3216  1.4470 -1.5869
 9897SOL    HW230908   5.236   1.198   3.526 -1.5574 -0.2543 -0.1757
 9898SOL     OW30909   4.477   1.046   3.303 -0.3457 -0.4810 -0.2087
 9898SOL    HW130910   4.568   1.052   3.272 -0.1099 -0.8970  0.3744
 9898SOL    HW230911   4.469   1.118   3.366 -0.6916  0.0952 -0.9047
 9899SOL     OW30912   5.079   1.300   3.046  0.4326  0.0817 -0.7757
 9899SOL    HW130913   5.036   1.347   3.118  0.2894  0.5677 -1.1752
 9899SOL    HW230914   5.038   1.213   3.047  3.0577 -1.3157  2.1575
 9900SOL     OW30915   4.917   8.793   3.156  0.0034  0.1023 -0.5335
 9900SOL    HW130916   4.991   8.840   3.118  1.3513 -0.2864  1.4506
 9900SOL    HW230917   4.933   8.701   3.134  0.1741  0.0075 -0.0303
 9901SOL     OW30918   4.774   0.778   3.849 -0.0737  0.1171 -0.4951
 9901SOL    HW130919   4.725   0.838   3.905  0.8912  1.4648 -1.0409
 9901SOL    HW230920   4.777   0.821   3.764  0.2844 -0.9129 -1.0269
 9902SOL     OW30921   4.322   1.361   2.372  0.2706  0.0021  0.0124
 9902SOL    HW130922   4.247   1.421   2.368 -0.7218 -1.0948  1.2418
 9902SOL    HW230923   4.392   1.407   2.325 -0.8959  1.4451 -0.3982
 9903SOL     OW30924   4.265   0.269   3.153 -0.5399 -0.0428  0.2824
 9903SOL    HW130925   4.298   0.352   3.188  1.6274 -0.7282  0.0404
 9903SOL    HW230926   4.283   0.273   3.059  1.4764 -1.5058  0.5318
 9904SOL     OW30927   4.959   0.372   3.298  0.5781  0.1189 -0.7994
 9904SOL    HW130928   5.013   0.325   3.234  2.8418  0.6284  0.6261
 9904SOL    HW230929   5.011   0.450   3.320 -0.7517  0.6304  0.6841
 9905SOL     OW30930   4.003   1.573   3.238 -0.1803  0.0479  0.2165
 9905SOL    HW130931   4.004   1.668   3.251  1.6380 -0.0779  1.4197
 9905SOL    HW230932   3.941   1.541   3.303 -0.0087  0.3608  0.5452
 9906SOL     OW30933   4.246   1.184   2.559  0.0085 -0.5099 -0.3865
 9906SOL    HW130934   4.199   1.112   2.516  2.1914 -1.6875 -0.9814
 9906SOL    HW230935   4.264   1.246   2.488 -1.5355  0.4862  0.0530
 9907SOL     OW30936   4.331   0.305   2.481  0.3911  0.1184  0.3236
 9907SOL    HW130937   4.369   0.309   2.568 -0.1075 -0.6303  0.5918
 9907SOL    HW230938   4.245   0.344   2.490  0.8848  1.3622 -0.1718
 9908SOL     OW30939   4.812   1.438   2.680 -0.0972 -0.1480 -0.1526
 9908SOL    HW130940   4.727   1.451   2.722  0.0194 -1.0789  0.3883
 9908SOL    HW230941   4.846   1.358   2.719  1.4840  0.7452  0.3827
 9909SOL     OW30942   4.712   1.129   3.604  0.0481  0.3649  0.3192
 9909SOL    HW130943   4.619   1.109   3.596 -0.6074  3.2615 -0.7201
 9909SOL    HW230944   4.724   1.156   3.695 -0.3050  0.5890  0.3023
 9910SOL     OW30945   5.104   0.856   2.488  0.2737  0.1753  0.1122
 9910SOL    HW130946   5.011   0.876   2.492  0.2242 -0.1890  1.6313
 9910SOL    HW230947   5.147   0.938   2.513  0.4445  0.7508 -1.9540
 9911SOL     OW30948   4.148   0.843   3.340 -0.5634 -0.0756  0.1988
 9911SOL    HW130949   4.234   0.800   3.343  0.3505  1.2944 -2.6498
 9911SOL    HW230950   4.090   0.777   3.303  0.0371 -0.0327 -0.8781
 9912SOL     OW30951   5.352   0.629   3.495  0.3698  0.2393  0.0580
 9912SOL    HW130952   5.435   0.602   3.533  0.6932  1.3839  0.2282
 9912SOL    HW230953   5.290   0.627   3.569  0.4646  0.2852  0.1383
 9913SOL     OW30954   4.722   0.000   3.349  0.1663  0.1017  0.6858
 9913SOL    HW130955   4.781  -0.018   3.275  0.7454 -0.4038  1.2651
 9913SOL    HW230956   4.770  -0.030   3.426 -0.7697 -0.1312  1.1906
 9914SOL     OW30957   4.282   8.759   3.678 -0.0149  0.3919 -0.1244
 9914SOL    HW130958   4.370   8.726   3.699 -0.1927 -0.4406 -0.6385
 9914SOL    HW230959   4.250   8.796   3.760  1.6200  2.6574 -0.3859
 9915SOL     OW30960   4.124   0.561   2.800 -0.7769 -0.0363 -0.2772
 9915SOL    HW130961   4.056   0.626   2.818 -0.0405  1.1890 -1.6925
 9915SOL    HW230962   4.204   0.597   2.839 -0.2253  0.2679 -1.6205
 9916SOL     OW30963   4.955   1.071   3.035  0.2362  0.0354 -0.4599
 9916SOL    HW130964   5.031   1.021   3.067 -0.5549 -0.8565  0.0727
 9916SOL    HW230965   4.920   1.018   2.964  0.6613  0.9182 -1.3462
 9917SOL     OW30966   4.694   0.804   2.231  0.1920 -0.0983 -0.4509
 9917SOL    HW130967   4.748   0.871   2.188  0.5997  0.2060  0.4932
 9917SOL    HW230968   4.606   0.840   2.231  0.5143  0.7725  0.6243
 9918SOL     OW30969   4.348   0.006   3.167  0.5792  0.1773  0.2041
 9918SOL    HW130970   4.420   0.013   3.105  0.1927  0.2997 -0.2361
 9918SOL    HW230971   4.316   0.096   3.176  1.0579  0.2705  1.0945
 9919SOL     OW30972   3.680   1.025   3.688 -0.3121  0.5432 -0.3628
 9919SOL    HW130973   3.619   1.098   3.689  0.2265  1.0002 -0.4584
 9919SOL    HW230974   3.698   1.008   3.781  1.0706  1.8264 -0.3557
 9920SOL     OW30975   4.100   0.286   2.850  0.2830  0.2543  0.7761
 9920SOL    HW130976   4.097   0.381   2.862 -1.3485  0.2800  0.3505
 9920SOL    HW230977   4.019   0.265   2.804  2.0825 -0.9461 -2.2043
 9921SOL     OW30978   5.304   0.967   4.197 -0.2832 -0.8141  0.5632
 9921SOL    HW130979   5.253   0.919   4.132 -2.9436 -1.8350  3.1534
 9921SOL    HW230980   5.272   0.935   4.281  2.0323  1.3293  2.4398
 9922SOL     OW30981   4.344   0.227   2.757  0.3409 -0.2646 -0.5189
 9922SOL    HW130982   4.262   0.259   2.794  1.0671 -0.1227  1.0484
 9922SOL    HW230983   4.411   0.286   2.791  1.3835 -1.7751  0.1897
 9923SOL     OW30984   5.485   0.581   2.432 -0.4256  0.2346  0.5856
 9923SOL    HW130985   5.497   0.520   2.359 -3.9352 -0.3341  0.2988
 9923SOL    HW230986   5.463   0.524   2.507 -0.7786  1.0014  1.0721
 9924SOL     OW30987   4.605   0.682   3.041 -0.0531  0.1065 -0.2796
 9924SOL    HW130988   4.696   0.696   3.015  0.2948 -2.5530 -0.7970
 9924SOL    HW230989   4.610   0.627   3.119 -1.2302  0.3438 -0.0123
 9925SOL     OW30990   4.552   1.399   4.279  0.4729  0.1131  0.2741
 9925SOL    HW130991   4.498   1.358   4.346  0.4607 -0.6376 -0.1933
 9925SOL    HW230992   4.500   1.473   4.248 -0.3075 -0.6278 -0.2008
 9926SOL     OW30993   5.080   1.592   3.498 -0.4987 -0.0031 -0.9856
 9926SOL    HW130994   5.035   1.677   3.502 -0.4700 -0.0310  0.3763
 9926SOL    HW230995   5.152   1.606   3.436  0.3008  1.3846  0.1825
 9927SOL     OW30996   4.373   0.973   3.665 -0.2952 -0.6650 -0.4690
 9927SOL    HW130997   4.300   0.960   3.726  0.0149 -0.5666 -0.0681
 9927SOL    HW230998   4.381   1.068   3.657 -0.8958 -0.6758 -1.3605
 9928SOL     OW30999   4.936   0.700   2.261 -0.2321  0.0917 -0.5757
 9928SOL    HW131000   4.960   0.770   2.321  0.5342 -0.6174 -0.0479
 9928SOL    HW231001   4.840   0.704   2.257 -0.1828  1.3021 -0.7241
 9929SOL     OW31002   4.937   1.022   2.205  0.0881 -0.0272  0.3113
 9929SOL    HW131003   4.945   1.116   2.225  0.3250 -0.2682  1.4071
 9929SOL    HW231004   4.878   1.019   2.131  1.2150  1.0896 -0.6929
 9930SOL     OW31005   4.659   1.703   2.525  0.4990 -0.0177  0.2397
 9930SOL    HW131006   4.602   1.705   2.448 -1.0504 -0.0741  1.3293
 9930SOL    HW231007   4.726   1.638   2.504 -0.3096 -0.5548 -0.7763
 9931SOL     OW31008   3.674   0.534   2.866 -0.6818 -0.3663 -0.1500
 9931SOL    HW131009   3.719   0.483   2.933 -1.7627 -0.4632  0.5338
 9931SOL    HW231010   3.712   0.504   2.783 -0.0960 -1.0338  0.3476
 9932SOL     OW31011   3.889   0.256   2.671  0.4535 -0.1625  0.5190
 9932SOL    HW131012   3.830   0.197   2.718  1.1499 -0.9330  0.4516
 9932SOL    HW231013   3.839   0.282   2.593  0.3138 -1.0788  0.2854
 9933SOL     OW31014   4.299   0.399   3.504 -0.1270 -0.2472 -0.5194
 9933SOL    HW131015   4.351   0.324   3.532 -0.9736  0.1850  2.6240
 9933SOL    HW231016   4.342   0.430   3.424  1.9417 -2.3130 -0.3165
 9934SOL     OW31017   5.077   0.033   3.371 -0.1837 -0.0423 -0.0080
 9934SOL    HW131018   5.004   0.044   3.311  0.0637  0.7728 -0.1775
 9934SOL    HW231019   5.044   0.065   3.455 -0.0943  0.1288 -0.0366
 9935SOL     OW31020   3.998   1.230   2.305 -0.5757  0.1498 -0.4498
 9935SOL    HW131021   3.963   1.168   2.368 -1.4751  1.1194  0.0286
 9935SOL    HW231022   3.974   1.316   2.339 -0.8161  0.7144 -1.9502
 9936SOL     OW31023   3.599   1.744   2.824  0.4569  0.2329 -0.0160
 9936SOL    HW131024   3.684   1.783   2.843  0.1478 -0.0397  2.1883
 9936SOL    HW231025   3.597   1.664   2.877 -1.1619  0.2582  0.0074
 9937SOL     OW31026   4.160   1.049   2.934  0.6312  0.2264 -0.1619
 9937SOL    HW131027   4.099   1.121   2.923  0.9393  0.5723  0.3320
 9937SOL    HW231028   4.197   1.062   3.022 -0.0364 -1.0920  0.3395
 9938SOL     OW31029   5.267   0.434   2.931 -0.1790 -0.2468  0.6332
 9938SOL    HW131030   5.292   0.439   3.023 -1.8375 -0.6972  1.1445
 9938SOL    HW231031   5.207   0.507   2.918 -1.8068 -1.5470  0.5611
 9939SOL     OW31032   3.460   0.285   3.055  0.1772  0.0775  0.0034
 9939SOL    HW131033   3.553   0.276   3.076  0.1689 -1.1780 -0.3820
 9939SOL    HW231034   3.420   0.315   3.137  0.6739 -1.1885  0.7502
 9940SOL     OW31035   3.468   0.697   3.715 -0.5954  0.3187 -0.1213
 9940SOL    HW131036   3.471   0.773   3.772 -0.1707  0.5880 -0.4936
 9940SOL    HW231037   3.442   0.731   3.629  2.3610  0.5778 -1.0493
 9941SOL     OW31038   5.148   0.880   3.986  0.6700  0.4810 -0.0119
 9941SOL    HW131039   5.077   0.939   3.959 -0.1335 -0.0802  0.8481
 9941SOL    HW231040   5.122   0.795   3.951  0.4657  0.0949  1.0701
 9942SOL     OW31041   4.706   0.722   2.726 -0.1798 -0.1645 -0.0433
 9942SOL    HW131042   4.748   0.668   2.659  1.4213 -1.0436  1.5851
 9942SOL    HW231043   4.618   0.685   2.734  0.0995 -0.9849 -0.6260
 9943SOL     OW31044   5.423   0.971   2.519 -0.0097 -0.1150 -0.0736
 9943SOL    HW131045   5.506   1.006   2.487  0.5486 -0.5851  0.7990
 9943SOL    HW231046   5.374   0.948   2.441  1.1344 -0.8411 -0.6037
 9944SOL     OW31047   4.026   1.423   3.782  0.1502  0.1517 -0.0066
 9944SOL    HW131048   4.105   1.409   3.730 -0.7518  1.3141 -1.7729
 9944SOL    HW231049   3.982   1.338   3.782  0.7887 -0.1923  0.0034
 9945SOL     OW31050   4.760   0.399   3.490  0.1591  0.1274  0.7567
 9945SOL    HW131051   4.714   0.317   3.511 -0.3071 -0.0619 -0.9082
 9945SOL    HW231052   4.820   0.375   3.420  0.6666  1.0377  0.8717
 9946SOL     OW31053   4.616   1.676   3.512 -0.0401 -0.1716 -0.2803
 9946SOL    HW131054   4.661   1.591   3.513  0.0583 -0.1438 -1.2453
 9946SOL    HW231055   4.628   1.708   3.422 -0.3986  0.6929 -0.0295
 9947SOL     OW31056   3.945   0.696   1.934 -0.5842  0.1741 -0.1992
 9947SOL    HW131057   3.965   0.729   1.846 -3.8067  0.4416 -0.9506
 9947SOL    HW231058   4.027   0.655   1.963  1.4215  2.5000 -2.1344
 9948SOL     OW31059   3.715   1.264   3.510  0.5270  0.0804  0.1969
 9948SOL    HW131060   3.633   1.261   3.560  0.2749  0.6521 -0.1786
 9948SOL    HW231061   3.703   1.202   3.439 -0.1651  1.2456 -0.7287
 9949SOL     OW31062   4.672   0.577   3.292  0.1456 -0.0430  0.5136
 9949SOL    HW131063   4.642   0.498   3.338 -1.1494  0.5804  0.8044
 9949SOL    HW231064   4.756   0.598   3.333 -0.6836  0.1413  2.2554
 9950SOL     OW31065   5.147   1.103   2.598  0.3153 -0.0636  0.6804
 9950SOL    HW131066   5.153   1.198   2.584 -0.1801 -0.2950 -1.4467
 9950SOL    HW231067   5.093   1.094   2.677  0.7784  1.4206  1.1960
 9951SOL     OW31068   5.094   2.320   2.528  0.1620 -0.0186  0.1316
 9951SOL    HW131069   5.087   2.226   2.513  3.3432 -0.7849  2.3426
 9951SOL    HW231070   5.128   2.356   2.446 -1.2737 -0.7083 -0.7954
 9952SOL     OW31071   4.858   1.652   2.925 -0.1448 -0.3091  0.8155
 9952SOL    HW131072   4.855   1.742   2.959 -0.1588 -0.4651  1.2359
 9952SOL    HW231073   4.769   1.619   2.936  0.0084 -0.5833  1.2386
 9953SOL     OW31074   3.773   0.672   3.341  0.1264  0.0713 -0.4842
 9953SOL    HW131075   3.847   0.695   3.285  1.1965 -0.8014  0.5189
 9953SOL    HW231076   3.761   0.749   3.397  1.6303 -0.5256  0.7198
 9954SOL     OW31077   4.132   1.795   3.796  0.2933  0.2804 -0.3542
 9954SOL    HW131078   4.111   1.887   3.781 -0.9110  0.0495 -0.1682
 9954SOL    HW231079   4.207   1.778   3.739  1.3009  1.6727  0.4938
 9955SOL     OW31080   5.539   0.234   2.566 -0.5379  0.3816  0.6912
 9955SOL    HW131081   5.534   0.188   2.483  0.2687  0.7883  0.3961
 9955SOL    HW231082   5.550   0.165   2.632 -0.5320  0.0920  0.3881
 9956SOL     OW31083   5.183   1.904   2.322 -0.4930  0.1558 -0.5423
 9956SOL    HW131084   5.087   1.903   2.324 -0.4876  0.2894 -0.1260
 9956SOL    HW231085   5.209   1.869   2.407 -0.1507 -2.0207 -1.4900
 9957SOL     OW31086   3.779   1.827   3.840  0.0189  0.2477  0.4406
 9957SOL    HW131087   3.720   1.796   3.908  0.8185 -2.3021  0.0703
 9957SOL    HW231088   3.867   1.807   3.873  0.4871  0.4027 -0.6549
 9958SOL     OW31089   4.539   1.268   3.053 -0.2361 -0.1674  0.1269
 9958SOL    HW131090   4.580   1.220   2.981  2.3376 -0.1014  1.4261
 9958SOL    HW231091   4.591   1.244   3.130 -0.5262  2.6015  1.2880
 9959SOL     OW31092   4.421   1.230   3.497  0.4119 -0.3778 -0.1943
 9959SOL    HW131093   4.418   1.253   3.590  0.1044  0.8147 -0.4847
 9959SOL    HW231094   4.331   1.242   3.466  0.3284 -1.6086 -0.4617
 9960SOL     OW31095   4.210   1.227   2.001 -0.0454 -0.0708 -0.0015
 9960SOL    HW131096   4.250   1.223   2.088  0.5401 -0.0654 -0.2636
 9960SOL    HW231097   4.136   1.286   2.011  0.8204  1.0238  0.1873
 9961SOL     OW31098   5.238   1.697   3.267 -0.3732  0.9584 -0.2189
 9961SOL    HW131099   5.322   1.676   3.308 -0.9099  0.4331  0.6338
 9961SOL    HW231100   5.229   1.792   3.278 -0.3685  0.8672  0.6156
 9962SOL     OW31101   5.825   8.517   2.574 -0.1585 -0.0971  0.1776
 9962SOL    HW131102   5.742   8.524   2.622 -0.0858  2.1320  0.0712
 9962SOL    HW231103   5.840   8.423   2.565 -1.6832 -0.5526  1.9096
 9963SOL     OW31104   3.822   8.424   2.707 -0.0781 -0.0841 -0.0614
 9963SOL    HW131105   3.806   8.349   2.650 -0.8688  1.5845 -2.1635
 9963SOL    HW231106   3.788   8.397   2.793  1.7136 -2.8974 -0.1040
 9964SOL     OW31107   5.521   1.920   1.642  0.0070  0.4985  0.8638
 9964SOL    HW131108   5.493   1.955   1.726  0.5738  0.9029  0.8868
 9964SOL    HW231109   5.600   1.969   1.620 -0.8745  1.3798 -0.5626
 9965SOL     OW31110   4.311   0.887   2.737  0.0901 -0.2134 -0.5406
 9965SOL    HW131111   4.246   0.864   2.670  0.4734 -0.8154 -0.7100
 9965SOL    HW231112   4.262   0.939   2.800  0.3691  3.1851 -2.8638
 9966SOL     OW31113   4.524   1.160   2.411  0.1833  0.1481 -0.3014
 9966SOL    HW131114   4.508   1.114   2.494  0.1088  0.0564 -0.3656
 9966SOL    HW231115   4.444   1.209   2.395 -0.0213 -0.2742 -0.6000
 9967SOL     OW31116   4.976   1.695   1.725  0.0803 -0.1870  0.1416
 9967SOL    HW131117   4.925   1.654   1.794 -0.9472 -0.2379 -0.6216
 9967SOL    HW231118   5.056   1.726   1.768 -0.5727 -0.1503  1.3523
 9968SOL     OW31119   3.975   1.231   3.223  0.4867 -0.0068 -0.1371
 9968SOL    HW131120   4.050   1.172   3.233  0.0430 -0.5356  0.1738
 9968SOL    HW231121   3.900   1.177   3.248  0.1793  1.0031  1.2462
 9969SOL     OW31122   4.727   1.075   3.222 -0.0717 -0.5087  0.3907
 9969SOL    HW131123   4.748   1.059   3.130 -0.0574  1.0444  0.1013
 9969SOL    HW231124   4.811   1.095   3.262  0.1655 -2.6946  1.1229
 9970SOL     OW31125   4.931   1.587   2.492  0.7218 -0.7531 -0.1212
 9970SOL    HW131126   4.892   1.520   2.548 -0.6376 -0.4700 -0.7014
 9970SOL    HW231127   4.988   1.636   2.551 -0.4926 -0.6122  0.9919
 9971SOL     OW31128   4.751   0.242   2.667  0.0066  0.4121 -0.1999
 9971SOL    HW131129   4.695   0.167   2.687  1.2339 -0.2419  0.9545
 9971SOL    HW231130   4.798   0.216   2.587  1.9009 -1.0018  1.2495
 9972SOL     OW31131   4.521   1.786   2.769 -0.0066 -0.4773  0.1643
 9972SOL    HW131132   4.561   1.762   2.685  1.0329  0.5125  0.3384
 9972SOL    HW231133   4.427   1.789   2.751  0.2903  1.3538 -1.4428
 9973SOL     OW31134   5.502   0.135   3.456  0.8904  0.0144  0.0961
 9973SOL    HW131135   5.452   0.185   3.520 -2.9503 -0.8603 -1.9187
 9973SOL    HW231136   5.526   0.199   3.388 -0.0601 -0.0214 -0.2915
 9974SOL     OW31137   4.175   1.425   2.727  0.3493  0.1401 -0.4196
 9974SOL    HW131138   4.180   1.362   2.655  2.5929 -0.7816  0.4450
 9974SOL    HW231139   4.212   1.378   2.802 -2.5517  0.8268  1.5782
 9975SOL     OW31140   3.751   1.015   3.952 -0.2239  0.4967 -0.0260
 9975SOL    HW131141   3.671   1.052   3.988 -1.2174 -1.5143  0.0031
 9975SOL    HW231142   3.781   0.954   4.019  1.7503  1.6950  0.2580
 9976SOL     OW31143   4.611   0.171   3.509 -0.1831 -0.0546 -0.1872
 9976SOL    HW131144   4.618   0.099   3.446  1.5934 -1.2660  1.2943
 9976SOL    HW231145   4.642   0.134   3.591 -0.0100  2.1879  0.8291
 9977SOL     OW31146   3.955   0.401   1.916  0.5183  0.5463 -0.1449
 9977SOL    HW131147   3.995   0.468   1.971 -0.0754  0.8388 -0.0600
 9977SOL    HW231148   3.896   0.353   1.975  1.1983 -0.2795 -0.1234
 9978SOL     OW31149   4.906   0.670   3.387 -0.0403 -0.7256  0.0385
 9978SOL    HW131150   4.994   0.688   3.417  0.3934 -1.1397 -0.9370
 9978SOL    HW231151   4.900   0.713   3.302 -1.3990  0.8467  0.8668
 9979SOL     OW31152   3.428   8.548   2.526 -0.4750 -0.0818  0.1328
 9979SOL    HW131153   3.453   8.548   2.618 -0.4051 -0.1385  0.1144
 9979SOL    HW231154   3.340   8.510   2.525 -1.7783  2.7160  0.5118
 9980SOL     OW31155   4.853   1.569   1.927 -0.2030 -0.0496 -0.3007
 9980SOL    HW131156   4.828   1.484   1.889  0.5498 -1.2989  1.8048
 9980SOL    HW231157   4.834   1.559   2.020  4.0044  0.3982  0.8147
 9981SOL     OW31158   4.434   0.754   3.342 -0.1803 -0.2686 -0.2743
 9981SOL    HW131159   4.462   0.824   3.400  0.9397 -1.4330  0.6384
 9981SOL    HW231160   4.475   0.675   3.377 -1.2301 -1.3611 -1.3926
 9982SOL     OW31161   4.638   2.053   2.364 -0.0119  0.3192  0.1038
 9982SOL    HW131162   4.578   2.052   2.439  0.8099 -2.5074  0.8378
 9982SOL    HW231163   4.702   2.120   2.386 -1.2034  1.3080  0.7039
 9983SOL     OW31164   4.245   0.603   3.693 -0.0012 -0.0067  0.1636
 9983SOL    HW131165   4.258   0.528   3.635 -2.1931  0.0584 -0.5033
 9983SOL    HW231166   4.150   0.615   3.696  0.0633  0.5254  3.1155
 9984SOL     OW31167   4.944   1.246   3.367 -0.4741  0.5373 -0.1331
 9984SOL    HW131168   4.894   1.321   3.334 -0.7703  1.0341  1.3672
 9984SOL    HW231169   4.884   1.202   3.427  0.2034 -0.0638  0.1161
 9985SOL     OW31170   4.177   1.396   3.485 -0.5073 -0.4330 -0.0636
 9985SOL    HW131171   4.224   1.479   3.484 -0.7428 -0.3060 -1.0007
 9985SOL    HW231172   4.085   1.421   3.485 -0.6568 -0.6555  2.8667
 9986SOL     OW31173   5.418   1.040   2.914 -0.2007 -0.8183  0.2192
 9986SOL    HW131174   5.498   1.028   2.864  1.1563  2.7241  1.2470
 9986SOL    HW231175   5.371   1.109   2.868 -1.4218 -1.0484  1.0702
 9987SOL     OW31176   4.731   0.530   2.550  0.0532 -0.0858  0.1552
 9987SOL    HW131177   4.714   0.514   2.457 -1.0395  0.2371  0.2760
 9987SOL    HW231178   4.743   0.443   2.588  1.0245 -0.1869 -0.3743
 9988SOL     OW31179   4.552   0.319   3.243  0.5186 -0.0511  0.6230
 9988SOL    HW131180   4.610   0.289   3.173  0.3880  0.7865  0.1471
 9988SOL    HW231181   4.555   0.249   3.308 -0.2016 -1.3325 -0.6902
 9989SOL     OW31182   5.402   0.300   3.630  0.0131  0.0299 -0.6192
 9989SOL    HW131183   5.466   0.371   3.638 -1.5952  1.4042  0.9020
 9989SOL    HW231184   5.317   0.345   3.625 -0.8524 -1.6421 -4.2260
 9990SOL     OW31185   5.248   1.181   3.839 -0.1548  0.2930 -0.5403
 9990SOL    HW131186   5.189   1.214   3.771 -1.1629 -0.5646 -0.1111
 9990SOL    HW231187   5.191   1.165   3.914  0.5510 -0.9243 -0.2318
 9991SOL     OW31188   4.229   1.043   1.796 -0.4328  0.4767  0.2230
 9991SOL    HW131189   4.193   1.113   1.850 -1.3293 -0.6288  1.1012
 9991SOL    HW231190   4.154   0.987   1.775  0.0226  0.4503 -1.5377
 9992SOL     OW31191   3.847   1.851   2.871 -0.2679  0.3952 -0.0689
 9992SOL    HW131192   3.906   1.888   2.805  0.5292 -0.5480  0.0815
 9992SOL    HW231193   3.810   1.927   2.915  0.0828  1.0278 -0.8227
 9993SOL     OW31194   4.359   0.688   2.922  0.4855 -0.7543 -0.7038
 9993SOL    HW131195   4.360   0.741   2.843  0.8240 -1.4548 -1.1875
 9993SOL    HW231196   4.437   0.714   2.970 -1.4094  2.0727  1.0865
 9994SOL     OW31197   4.884   1.303   1.790 -0.0906 -0.0730  0.0749
 9994SOL    HW131198   4.814   1.271   1.733 -0.3776 -1.5609  1.1953
 9994SOL    HW231199   4.922   1.224   1.828 -0.1699  0.8439  2.2267
 9995SOL     OW31200   5.669   2.132   2.555  0.0831  0.2177  0.1396
 9995SOL    HW131201   5.602   2.197   2.577  0.9398  0.9269  0.7313
 9995SOL    HW231202   5.725   2.129   2.633 -0.1938 -1.5776  0.3036
 9996SOL     OW31203   3.943   1.179   3.801 -0.3262  0.1344 -0.4895
 9996SOL    HW131204   3.899   1.108   3.849 -1.6310  0.7868 -0.6805
 9996SOL    HW231205   3.910   1.172   3.712 -0.4264  0.9304 -0.5260
 9997SOL     OW31206   3.941   0.981   2.522  0.2192  0.3327 -0.0741
 9997SOL    HW131207   3.895   0.977   2.606 -0.2981  0.2634 -0.3532
 9997SOL    HW231208   3.872   0.964   2.457  0.7319 -0.2666 -0.4737
 9998SOL     OW31209   4.726   1.265   3.827  0.9935  0.1358 -0.0799
 9998SOL    HW131210   4.696   1.356   3.823  0.4815 -0.0660 -1.3952
 9998SOL    HW231211   4.695   1.233   3.912  0.3122  0.9002 -0.0321
 9999SOL     OW31212   5.368   0.105   2.833 -0.2186 -0.4487 -0.1124
 9999SOL    HW131213   5.441   0.072   2.884 -0.1670 -0.3340 -0.1105
 9999SOL    HW231214   5.378   0.200   2.835 -0.3564 -0.4326 -0.1279
10000SOL     OW31215   4.177   0.579   2.358 -0.8558 -0.3406  0.1923
10000SOL    HW131216   4.251   0.533   2.317  0.1748  0.9009  0.5708
10000SOL    HW231217   4.138   0.514   2.416 -1.9441 -1.9544 -2.1701
10001SOL     OW31218   5.285   1.877   2.589 -0.2995  0.0663 -1.0098
10001SOL    HW131219   5.342   1.807   2.560 -0.4133 -0.1917 -0.6161
10001SOL    HW231220   5.212   1.833   2.632  1.6160  0.4138  3.0910
10002SOL     OW31221   4.015   0.696   3.152  0.5901  0.5960 -0.1396
10002SOL    HW131222   3.997   0.743   3.071 -1.1818  0.3051  0.0269
10002SOL    HW231223   4.016   0.604   3.127  0.2898  0.5221  0.1065
10003SOL     OW31224   4.052   1.966   2.735 -0.0653 -0.0681 -0.2005
10003SOL    HW131225   4.016   2.054   2.721  1.3637  0.3423 -1.6504
10003SOL    HW231226   4.126   1.980   2.794 -0.2050 -0.3961  0.0534
10004SOL     OW31227   5.061   0.235   2.782  0.0047 -0.2081  0.0623
10004SOL    HW131228   4.983   0.271   2.740  0.4857  0.2163 -0.4846
10004SOL    HW231229   5.115   0.311   2.803  0.4132 -0.5126  0.1403
10005SOL     OW31230   4.555   8.836   2.970 -0.0811  0.1247 -0.2365
10005SOL    HW131231   4.483   8.853   2.909 -1.0298  2.0405  1.3224
10005SOL    HW231232   4.561   8.740   2.974 -0.5791 -0.0720 -2.5743
10006SOL     OW31233   4.271   1.713   2.674  0.1857  0.0279 -0.2653
10006SOL    HW131234   4.204   1.772   2.639 -0.4409 -1.2360 -1.3302
10006SOL    HW231235   4.233   1.625   2.662  0.5371 -0.5749  2.4181
10007SOL     OW31236   4.225   1.400   3.042 -0.0246 -0.0821  0.3559
10007SOL    HW131237   4.256   1.315   3.073 -0.6380 -0.7931 -0.8816
10007SOL    HW231238   4.287   1.463   3.078  2.7784 -1.3823 -1.7856
10008SOL     OW31239   5.310   0.333   2.221 -0.2789  0.2806  0.5531
10008SOL    HW131240   5.250   0.373   2.285  1.1356 -0.3086  2.3534
10008SOL    HW231241   5.254   0.279   2.166 -1.6863  1.5574  0.6618
10009SOL     OW31242   5.159   0.670   2.887  0.6066 -0.2923  0.3604
10009SOL    HW131243   5.110   0.751   2.901 -1.4827 -0.9133 -2.5280
10009SOL    HW231244   5.212   0.686   2.809  0.1738 -1.6360 -0.2558
10010SOL     OW31245   5.133   0.051   2.986 -0.4498  0.3029  0.2527
10010SOL    HW131246   5.095   0.131   2.951  1.6385  1.3370  0.1644
10010SOL    HW231247   5.209   0.034   2.929 -0.3617 -1.2642  0.7892
10011SOL     OW31248   4.136   1.005   2.203  0.2654  0.0423 -0.1995
10011SOL    HW131249   4.071   0.991   2.135 -0.3950  0.5205  0.3134
10011SOL    HW231250   4.100   1.077   2.256  1.6759  0.9982 -0.4793
10012SOL     OW31251   4.401   1.459   1.923  0.0166 -0.4552 -0.5344
10012SOL    HW131252   4.429   1.470   1.832 -0.4746 -2.4034 -0.9523
10012SOL    HW231253   4.347   1.380   1.923 -0.9480  0.1393  1.2579
10013SOL     OW31254   3.794   0.605   3.982  0.0651 -0.2586 -0.0602
10013SOL    HW131255   3.787   0.523   4.030  1.0803 -1.1530 -1.3662
10013SOL    HW231256   3.735   0.595   3.908 -1.2778  1.0013  0.7729
10014SOL     OW31257   3.927   8.812   4.522  0.0116  0.0659 -0.0356
10014SOL    HW131258   3.979   8.758   4.463 -0.4340 -0.9285  0.4489
10014SOL    HW231259   3.838   8.778   4.515 -0.8436  2.3733 -1.5971
10015SOL     OW31260   3.293   0.263   4.576 -0.2926  0.1873 -0.1582
10015SOL    HW131261   3.283   0.353   4.545 -0.6898  0.2730  0.1958
10015SOL    HW231262   3.387   0.247   4.575 -0.1130  1.0292  0.8987
10016SOL     OW31263   3.776   0.830   5.093  0.3543 -0.7843  0.7905
10016SOL    HW131264   3.746   0.773   5.022  1.5494 -0.3863 -0.0712
10016SOL    HW231265   3.697   0.875   5.122 -0.0643 -0.3720 -0.8542
10017SOL     OW31266   5.257   1.727   3.971  0.6888 -0.5237 -0.2085
10017SOL    HW131267   5.186   1.740   3.908 -0.5397  2.1986  1.5185
10017SOL    HW231268   5.323   1.792   3.946 -0.2652  1.3432  1.7218
10018SOL     OW31269   4.311   0.101   4.637 -0.2164 -0.3703 -0.3770
10018SOL    HW131270   4.218   0.120   4.648 -0.0003  1.0972 -0.8106
10018SOL    HW231271   4.351   0.187   4.621  1.1212 -1.0472 -0.8118
10019SOL     OW31272   5.600   0.986   3.587 -0.1956 -0.4761  0.0222
10019SOL    HW131273   5.546   0.940   3.651  0.3538  0.9143  1.5884
10019SOL    HW231274   5.689   0.958   3.606 -0.0500 -0.2852 -0.3633
10020SOL     OW31275   4.495   0.927   5.103  0.2828 -0.3150 -0.5880
10020SOL    HW131276   4.436   0.981   5.051  2.1342  1.8189 -0.6617
10020SOL    HW231277   4.485   0.960   5.193 -0.0407 -1.2700 -0.2635
10021SOL     OW31278   4.794   0.713   5.287 -0.2966 -0.1886 -0.2939
10021SOL    HW131279   4.873   0.674   5.327  0.0246  1.0555  0.3156
10021SOL    HW231280   4.808   0.703   5.193  0.5987  0.0372 -0.1912
10022SOL     OW31281   4.541   0.790   4.582  0.0658 -0.3817 -0.5342
10022SOL    HW131282   4.580   0.872   4.552 -0.2777  0.2500  0.6764
10022SOL    HW231283   4.543   0.796   4.678 -2.3059 -0.6327 -0.4128
10023SOL     OW31284   4.135   1.400   5.742  0.3978  0.5171 -0.3442
10023SOL    HW131285   4.096   1.357   5.666 -0.8811  1.4480 -0.2457
10023SOL    HW231286   4.118   1.493   5.728  0.2234  0.7125  1.0281
10024SOL     OW31287   4.000   1.081   4.770 -0.0662  0.0066  0.1554
10024SOL    HW131288   4.018   1.040   4.685 -2.8984  0.3875 -0.7253
10024SOL    HW231289   4.020   1.174   4.756  0.4174 -0.0819  0.2344
10025SOL     OW31290   5.267   1.282   5.156  0.6186  0.6434 -0.2682
10025SOL    HW131291   5.207   1.347   5.191  0.5890  1.1124 -1.1553
10025SOL    HW231292   5.274   1.216   5.225 -1.0313  0.4875 -0.2205
10026SOL     OW31293   4.231   0.051   5.326 -0.1148  0.2569  0.1756
10026SOL    HW131294   4.323   0.026   5.330  0.0983  0.6126 -1.5866
10026SOL    HW231295   4.192   0.013   5.405  1.5674  0.2837  1.0622
10027SOL     OW31296   5.416   0.245   4.507  0.1281 -0.2096 -0.2293
10027SOL    HW131297   5.482   0.243   4.577  0.3858 -1.9750 -0.4644
10027SOL    HW231298   5.346   0.300   4.542  0.5391 -0.5123  1.1582
10028SOL     OW31299   4.234   1.154   4.001  0.3802  0.5778  0.1173
10028SOL    HW131300   4.160   1.125   3.946  0.7565  0.6292 -0.4306
10028SOL    HW231301   4.199   1.228   4.050 -0.0680  0.3153  0.2049
10029SOL     OW31302   4.831   1.167   5.333  0.1007  0.1307  0.0052
10029SOL    HW131303   4.779   1.247   5.340  1.2546  1.0284 -1.1523
10029SOL    HW231304   4.921   1.196   5.350  0.9950 -0.2525 -3.4844
10030SOL     OW31305   3.792   1.285   4.134  0.1115 -0.4419  0.4237
10030SOL    HW131306   3.884   1.260   4.125  0.3047  0.5019 -0.5658
10030SOL    HW231307   3.743   1.217   4.088  0.4507 -0.1890 -0.3311
10031SOL     OW31308   3.616   0.835   4.466 -0.4484  0.2905  0.2422
10031SOL    HW131309   3.691   0.865   4.415 -0.5190  3.7447  1.8415
10031SOL    HW231310   3.655   0.793   4.543 -0.1978  0.1917  0.0622
10032SOL     OW31311   3.986   1.660   4.985 -0.2384 -1.1051  0.0894
10032SOL    HW131312   3.978   1.571   5.019 -0.2171 -1.0353  0.2813
10032SOL    HW231313   4.055   1.655   4.920  1.0121 -0.8697  1.3436
10033SOL     OW31314   4.626   0.534   3.789 -0.0558  0.6197 -0.5649
10033SOL    HW131315   4.701   0.593   3.780  0.4871 -0.1976 -1.7254
10033SOL    HW231316   4.567   0.559   3.718 -0.3024  0.4400 -0.4239
10034SOL     OW31317   5.429   8.728   5.111  0.0126 -0.6033  0.3911
10034SOL    HW131318   5.524   8.742   5.112 -0.0259 -0.1737 -1.0627
10034SOL    HW231319   5.408   8.707   5.202  1.3316  0.4458  0.9770
10035SOL     OW31320   3.826   0.402   4.453  0.0987 -0.4327 -0.4388
10035SOL    HW131321   3.806   0.430   4.543 -0.9110 -0.4235 -0.6539
10035SOL    HW231322   3.916   0.431   4.439  0.2816 -0.4529  0.5794
10036SOL     OW31323   5.304   2.097   4.070 -0.4015 -0.3240 -0.3338
10036SOL    HW131324   5.279   2.071   4.158 -2.6895 -0.1417 -0.8613
10036SOL    HW231325   5.326   2.190   4.077 -0.8445 -0.2449 -0.0144
10037SOL     OW31326   3.561   1.412   3.995 -0.5372  0.3020  0.3766
10037SOL    HW131327   3.653   1.386   3.997 -1.0603 -2.0794 -1.5593
10037SOL    HW231328   3.552   1.474   4.067  2.6451  0.9217  0.3700
10038SOL     OW31329   5.240   0.952   4.492 -0.2822 -0.1667 -0.2341
10038SOL    HW131330   5.254   0.867   4.532  1.3225 -0.4370 -1.3067
10038SOL    HW231331   5.306   1.009   4.531 -0.1782  0.1317 -0.8282
10039SOL     OW31332   5.683   1.416   3.824 -0.1156 -0.2336  0.5604
10039SOL    HW131333   5.715   1.339   3.777  1.3810  0.3746  0.5356
10039SOL    HW231334   5.589   1.418   3.804  0.0343 -1.3583 -0.4177
10040SOL     OW31335   3.797   0.565   5.636  0.2765 -0.0046  0.0382
10040SOL    HW131336   3.871   0.617   5.666  0.8238 -0.4699 -0.4960
10040SOL    HW231337   3.824   0.529   5.552  0.0212 -1.3846  0.5161
10041SOL     OW31338   4.278   1.359   4.381  0.1648 -0.5723  0.0720
10041SOL    HW131339   4.238   1.429   4.329 -0.0157 -0.1991  0.7052
10041SOL    HW231340   4.339   1.404   4.439  0.1550 -0.9579  0.3837
10042SOL     OW31341   5.174   0.917   5.411  0.0863 -0.3633  0.3627
10042SOL    HW131342   5.188   0.853   5.341 -1.8198 -1.4175  0.8536
10042SOL    HW231343   5.231   0.887   5.482  0.1284 -0.8148  0.1458
10043SOL     OW31344   4.307   8.583   4.404  0.0110 -0.3516 -0.3153
10043SOL    HW131345   4.219   8.570   4.367 -0.6884 -0.5197  1.3301
10043SOL    HW231346   4.321   8.678   4.399 -1.0014 -0.1030  0.9295
10044SOL     OW31347   3.797   0.575   5.344 -0.3578 -0.2793 -0.5520
10044SOL    HW131348   3.787   0.511   5.274 -1.3397 -2.5025  1.4940
10044SOL    HW231349   3.863   0.636   5.312  1.6853 -3.1039 -2.0916
10045SOL     OW31350   5.371   1.237   4.132  0.2589 -0.4395 -0.1962
10045SOL    HW131351   5.277   1.222   4.142  0.4417 -0.8393  1.2665
10045SOL    HW231352   5.410   1.151   4.149  1.0976  0.5374  3.8952
10046SOL     OW31353   5.204   1.596   4.913  0.2306 -0.1486 -0.2249
10046SOL    HW131354   5.150   1.524   4.880  0.8319  0.5036 -2.8778
10046SOL    HW231355   5.147   1.643   4.974 -1.1417 -1.2368 -0.6090
10047SOL     OW31356   4.258   0.816   5.792  0.2817 -0.0046 -0.1201
10047SOL    HW131357   4.220   0.900   5.818  0.5699 -0.0366  0.4088
10047SOL    HW231358   4.302   0.784   5.871  0.0006 -0.7482 -0.2614
10048SOL     OW31359   4.842   1.519   4.629 -0.9395 -0.4487 -0.1785
10048SOL    HW131360   4.850   1.575   4.552  2.1775  2.7963  2.1331
10048SOL    HW231361   4.765   1.552   4.675  0.5578  1.8380  0.8815
10049SOL     OW31362   5.399   1.447   4.389 -0.5323  0.3302 -0.4928
10049SOL    HW131363   5.419   1.478   4.300 -0.2980 -1.6228 -1.1601
10049SOL    HW231364   5.335   1.511   4.422 -1.1758  0.7084 -2.3341
10050SOL     OW31365   3.921   0.889   3.683 -0.0333 -0.6518 -0.0609
10050SOL    HW131366   3.960   0.919   3.601  0.2901 -0.1509  0.2696
10050SOL    HW231367   3.831   0.922   3.681 -0.2109 -1.1430 -0.4723
10051SOL     OW31368   4.876   0.302   4.547 -0.7965 -0.2219 -0.0190
10051SOL    HW131369   4.920   0.243   4.608  0.3485 -0.4759 -1.0464
10051SOL    HW231370   4.803   0.252   4.513 -0.8493 -0.4313  0.4024
10052SOL     OW31371   5.227   1.745   4.267 -0.4185  0.3121  0.5459
10052SOL    HW131372   5.172   1.668   4.282 -0.6204  0.2605 -0.4188
10052SOL    HW231373   5.269   1.729   4.182 -1.1189  1.6324 -0.0883
10053SOL     OW31374   4.451   0.648   5.089 -0.6369 -0.2355  0.2091
10053SOL    HW131375   4.475   0.740   5.105  0.2079 -0.5151  0.6235
10053SOL    HW231376   4.423   0.616   5.174  0.4543 -0.7480  0.3948
10054SOL     OW31377   4.835   8.837   5.414 -0.7626  0.1370 -0.5059
10054SOL    HW131378   4.778   8.848   5.337 -0.5066 -0.3270 -0.7638
10054SOL    HW231379   4.866   8.925   5.434 -0.9410  0.2792 -0.8495
10055SOL     OW31380   4.476   1.021   5.336 -0.1589 -0.2860 -0.6477
10055SOL    HW131381   4.557   0.988   5.374 -0.5524 -1.0506 -0.4459
10055SOL    HW231382   4.482   1.116   5.343 -0.2229 -0.4015  1.3457
10056SOL     OW31383   4.476   0.146   5.003 -0.5442 -0.3388 -0.3619
10056SOL    HW131384   4.467   0.221   4.945  2.4893  0.4316 -0.0026
10056SOL    HW231385   4.501   0.184   5.088  1.8007 -1.6857 -0.3557
10057SOL     OW31386   4.775   0.581   4.311 -0.1027  0.3596 -0.1149
10057SOL    HW131387   4.716   0.560   4.383  1.8438 -1.3738  1.1230
10057SOL    HW231388   4.720   0.622   4.245 -2.4949 -0.4622  1.2517
10058SOL     OW31389   3.470   0.149   4.934 -0.1425 -0.1488  0.3998
10058SOL    HW131390   3.439   0.181   5.019  0.1448 -0.0410  0.4654
10058SOL    HW231391   3.499   0.228   4.888  0.1280 -0.2591  0.3786
10059SOL     OW31392   3.860   2.374   5.236 -0.2010 -0.7401 -0.8629
10059SOL    HW131393   3.863   2.429   5.158 -0.0431  1.1522  0.4201
10059SOL    HW231394   3.899   2.291   5.207  0.4421  0.1124 -2.6165
10060SOL     OW31395   4.652   0.538   4.066  0.8338 -0.5482  0.1846
10060SOL    HW131396   4.723   0.482   4.098  0.0589 -0.7148  1.7390
10060SOL    HW231397   4.647   0.519   3.972  2.2036 -1.2320  0.2192
10061SOL     OW31398   5.175   0.453   5.913 -0.5071  0.2474 -0.5555
10061SOL    HW131399   5.116   0.385   5.944  0.7407 -0.7607 -0.2974
10061SOL    HW231400   5.259   0.408   5.900 -0.2176  1.2373 -2.6128
10062SOL     OW31401   5.134   1.312   4.496  0.1403  0.3200 -0.3225
10062SOL    HW131402   5.229   1.325   4.490  0.0678  1.9557  1.0526
10062SOL    HW231403   5.110   1.268   4.414  2.1284 -0.5304 -0.5026
10063SOL     OW31404   4.436   0.548   4.247  0.2053  0.1955 -0.0488
10063SOL    HW131405   4.480   0.549   4.161 -0.4737 -1.5032 -0.4581
10063SOL    HW231406   4.443   0.457   4.276  1.3421  0.9417  2.2302
10064SOL     OW31407   4.814   1.439   4.259 -0.0818 -0.5951  0.0356
10064SOL    HW131408   4.844   1.358   4.301 -0.0319 -0.3392  0.4984
10064SOL    HW231409   4.721   1.443   4.279 -0.2069 -0.8217 -0.4680
10065SOL     OW31410   4.163   1.638   4.772  0.2546  0.4047 -0.2094
10065SOL    HW131411   4.252   1.670   4.762  0.5456 -0.7697 -1.6296
10065SOL    HW231412   4.170   1.543   4.766 -0.8685  0.1416  1.6688
10066SOL     OW31413   5.530   0.845   4.833 -0.0811  0.3262  0.4960
10066SOL    HW131414   5.573   0.833   4.748  0.7951  0.6070  0.8948
10066SOL    HW231415   5.480   0.926   4.823 -2.6534 -1.2755 -0.8181
10067SOL     OW31416   4.903   1.456   5.441 -0.4179  0.0669 -0.0292
10067SOL    HW131417   4.830   1.456   5.379  0.7040 -0.0669 -1.4063
10067SOL    HW231418   4.869   1.414   5.520 -1.4362 -1.2489 -1.1282
10068SOL     OW31419   3.908   0.799   4.132  0.2175 -0.5118  0.0673
10068SOL    HW131420   3.860   0.725   4.094 -0.6483 -1.3466  2.5576
10068SOL    HW231421   3.998   0.768   4.139  0.1259 -0.8213 -0.1005
10069SOL     OW31422   5.220   0.375   4.652  0.3528  0.2218  0.0262
10069SOL    HW131423   5.247   0.407   4.738 -0.6964  1.8931 -0.2127
10069SOL    HW231424   5.181   0.289   4.669  0.9869  0.1302  1.0811
10070SOL     OW31425   3.641   0.927   5.896  0.0927  0.0223  0.2148
10070SOL    HW131426   3.691   0.851   5.925  1.5505  0.5470 -0.7727
10070SOL    HW231427   3.605   0.965   5.976 -3.9253 -3.7420  0.5222
10071SOL     OW31428   4.878   1.630   3.703 -0.5795 -0.2587 -0.1135
10071SOL    HW131429   4.785   1.654   3.712 -0.8562 -1.5469  0.8133
10071SOL    HW231430   4.880   1.571   3.627 -0.9017 -1.8411  1.0487
10072SOL     OW31431   4.155   0.340   5.773 -0.1069 -0.1956  0.4871
10072SOL    HW131432   4.089   0.297   5.827  0.6508 -3.0993 -0.7264
10072SOL    HW231433   4.228   0.357   5.832 -0.0539 -1.5322  0.8294
10073SOL     OW31434   5.417   1.408   3.767  0.3359  0.2597  0.5053
10073SOL    HW131435   5.379   1.489   3.733 -0.5474 -0.4778 -0.3083
10073SOL    HW231436   5.342   1.354   3.792  0.8250 -1.0050 -0.6184
10074SOL     OW31437   3.877   1.749   4.223 -0.3419 -0.0734  0.4859
10074SOL    HW131438   3.897   1.731   4.131  1.0904 -0.5860  0.8765
10074SOL    HW231439   3.841   1.837   4.223  1.3420  0.6509 -0.3738
10075SOL     OW31440   4.556   0.015   4.085  0.0266  0.5598  0.4353
10075SOL    HW131441   4.519   0.082   4.028  1.2175  1.1522  0.3210
10075SOL    HW231442   4.521  -0.068   4.052  1.7862  0.7172 -2.1330
10076SOL     OW31443   3.855   1.488   4.654 -0.1521 -0.0357  0.1875
10076SOL    HW131444   3.884   1.574   4.624 -0.3230 -0.2581 -0.6508
10076SOL    HW231445   3.834   1.500   4.747  0.7681  0.5829  0.3297
10077SOL     OW31446   4.665   1.666   4.420  0.1366  0.0826  0.1663
10077SOL    HW131447   4.646   1.573   4.412 -0.3299  0.0114  1.7975
10077SOL    HW231448   4.616   1.707   4.348  0.0614 -0.8762 -0.3433
10078SOL     OW31449   4.088   0.507   4.336  0.5542  0.6205 -0.0913
10078SOL    HW131450   4.111   0.470   4.251  0.4267  1.0096 -0.2948
10078SOL    HW231451   4.090   0.602   4.323 -3.1414  0.7702 -0.6943
10079SOL     OW31452   4.961   8.567   5.201  0.3063 -0.4541 -0.2332
10079SOL    HW131453   5.002   8.566   5.287  4.1885 -0.5426 -1.9180
10079SOL    HW231454   4.984   8.652   5.164 -0.8613 -0.6115 -1.4121
10080SOL     OW31455   4.216   0.361   4.063 -0.0950  0.1367  0.0110
10080SOL    HW131456   4.284   0.316   4.013 -2.5125 -1.5988 -1.9987
10080SOL    HW231457   4.242   0.453   4.061  2.9975 -0.6156  0.8191
10081SOL     OW31458   4.685   0.398   5.212  0.7295 -0.0576 -0.1275
10081SOL    HW131459   4.777   0.417   5.231  0.3775 -0.0165  1.6511
10081SOL    HW231460   4.647   0.483   5.191  0.7206  0.1854  0.8456
10082SOL     OW31461   4.593   1.439   4.922  0.0420 -0.4633 -0.6903
10082SOL    HW131462   4.605   1.362   4.867 -0.7358 -2.0304  1.1798
10082SOL    HW231463   4.642   1.418   5.002 -1.0802  0.4854  0.2807
10083SOL     OW31464   4.708   0.495   4.787  0.3360  0.3694  0.0731
10083SOL    HW131465   4.663   0.423   4.831 -0.2601  1.2823  0.9988
10083SOL    HW231466   4.801   0.473   4.795  0.1733 -1.9508 -2.5529
10084SOL     OW31467   4.279   1.109   5.014 -0.2682 -0.6428 -0.2339
10084SOL    HW131468   4.313   1.142   4.931  1.4987 -0.3345  0.5491
10084SOL    HW231469   4.250   1.188   5.061 -0.5218 -0.7298 -0.2430
10085SOL     OW31470   4.471   8.742   4.910  0.2689  0.2380  0.1583
10085SOL    HW131471   4.470   8.820   4.966 -0.4642  0.3466  0.0052
10085SOL    HW231472   4.380   8.730   4.884  0.6489  0.4137 -1.3246
10086SOL     OW31473   4.210   0.113   4.191  0.4932 -0.1179 -0.3634
10086SOL    HW131474   4.200   0.205   4.167 -1.1377  0.1859  1.2900
10086SOL    HW231475   4.131   0.091   4.239  1.6313 -1.8844  0.8492
10087SOL     OW31476   4.830   0.998   4.143  0.2395 -0.2721  0.5266
10087SOL    HW131477   4.759   0.944   4.108  0.8269 -0.1356 -0.9848
10087SOL    HW231478   4.852   0.958   4.227 -0.0297 -1.7641 -0.0825
10088SOL     OW31479   3.909   0.245   3.933  0.0607  0.1008  0.2552
10088SOL    HW131480   3.995   0.242   3.975  0.6673  1.2281 -0.8484
10088SOL    HW231481   3.859   0.309   3.985 -0.7015 -1.6611  1.8437
10089SOL     OW31482   4.265   0.238   3.734  0.1442  0.1705  0.2273
10089SOL    HW131483   4.181   0.209   3.768 -0.1503  1.5947  0.7610
10089SOL    HW231484   4.274   0.193   3.650 -1.4405  0.4992 -0.1416
10090SOL     OW31485   4.573   0.737   4.836  0.0293 -0.0479 -0.4642
10090SOL    HW131486   4.495   0.732   4.891  0.3124  0.0358 -0.0470
10090SOL    HW231487   4.604   0.647   4.830 -0.9757 -0.3257 -1.9354
10091SOL     OW31488   4.765   1.258   4.598  0.6023  0.1081 -0.5534
10091SOL    HW131489   4.786   1.235   4.689  1.3660 -0.2107 -0.8031
10091SOL    HW231490   4.809   1.342   4.584  2.2114 -0.7924 -1.2280
10092SOL     OW31491   4.314   1.100   4.494 -0.1772  0.0471  0.1778
10092SOL    HW131492   4.309   1.156   4.416  1.3055  1.5079  1.0499
10092SOL    HW231493   4.383   1.037   4.473 -1.2083 -0.8933 -0.4539
10093SOL     OW31494   4.830   1.993   4.079  0.4652 -0.7199  0.1324
10093SOL    HW131495   4.858   1.920   4.135  0.5231 -1.1067 -0.3964
10093SOL    HW231496   4.812   2.064   4.140 -0.0144 -1.3071  0.6926
10094SOL     OW31497   4.708   0.075   3.791  0.1681  0.2572 -0.9709
10094SOL    HW131498   4.767   0.143   3.760 -0.3413  0.7829 -0.8109
10094SOL    HW231499   4.762   0.020   3.847  0.1023  1.8054  0.7060
10095SOL     OW31500   4.168   0.537   5.557 -0.2596 -0.7204  0.3197
10095SOL    HW131501   4.146   0.452   5.595  0.4193 -0.6420  0.9131
10095SOL    HW231502   4.254   0.559   5.594  0.1344 -0.3346 -0.7706
10096SOL     OW31503   4.052   0.058   4.906  0.8254 -0.0866 -0.2131
10096SOL    HW131504   4.111   0.030   4.976  0.5192  0.0892  0.1159
10096SOL    HW231505   3.972   0.084   4.951  0.8862  0.7251 -0.5685
10097SOL     OW31506   4.621   0.066   4.694  0.4989 -0.3266 -0.3718
10097SOL    HW131507   4.539   0.027   4.723  0.6293 -1.0185 -0.8991
10097SOL    HW231508   4.595   0.139   4.638  0.2488  0.1137  0.3204
10098SOL     OW31509   4.390   8.460   4.668 -0.4186 -0.2943 -0.4130
10098SOL    HW131510   4.480   8.426   4.663 -0.3964 -0.4311  0.8023
10098SOL    HW231511   4.365   8.471   4.576  0.8028 -0.3448 -0.7814
10099SOL     OW31512   5.134   0.911   4.853  0.3342  0.6211  0.0631
10099SOL    HW131513   5.119   1.002   4.880  0.5212  0.6180  0.1749
10099SOL    HW231514   5.049   0.869   4.865  0.4508  0.5838  0.7875
10100SOL     OW31515   5.198   0.463   4.915 -0.2776  0.4261  0.8357
10100SOL    HW131516   5.234   0.548   4.939  2.1022  0.3369 -1.8221
10100SOL    HW231517   5.243   0.401   4.972  0.5133  0.7012  0.5245
10101SOL     OW31518   5.772   0.503   4.127 -0.1039 -0.4430  0.3771
10101SOL    HW131519   5.757   0.424   4.180  0.3744 -0.0156  1.1709
10101SOL    HW231520   5.694   0.557   4.141 -0.0906 -0.4419  0.4489
10102SOL     OW31521   4.339   1.238   3.772  0.2420  0.2765 -0.1971
10102SOL    HW131522   4.357   1.322   3.815 -3.0847  1.1815 -0.2642
10102SOL    HW231523   4.296   1.185   3.840 -0.4086 -0.2062 -0.9642
10103SOL     OW31524   5.416   1.514   4.095  0.6541 -0.3060 -0.6076
10103SOL    HW131525   5.421   1.420   4.077  1.6192 -0.4098  0.0717
10103SOL    HW231526   5.355   1.549   4.030 -0.2394 -1.5074 -0.4301
10104SOL     OW31527   5.230   0.640   3.763 -0.2205  0.2461  0.0776
10104SOL    HW131528   5.153   0.620   3.817 -0.9038 -2.3487 -1.6300
10104SOL    HW231529   5.304   0.602   3.811 -0.7740 -1.7019 -0.4977
10105SOL     OW31530   3.790   0.392   4.136 -0.2645 -0.0467 -0.1244
10105SOL    HW131531   3.822   0.390   4.226  1.2527  0.2918 -0.6273
10105SOL    HW231532   3.695   0.394   4.144 -0.1470 -0.0208  1.4690
10106SOL     OW31533   5.271   0.714   5.246  0.0261  0.1518  0.2257
10106SOL    HW131534   5.362   0.684   5.258  0.3006  0.6139 -0.5846
10106SOL    HW231535   5.252   0.693   5.155 -0.8293 -0.3052  0.5059
10107SOL     OW31536   4.863   1.306   5.090  0.3153  0.4121  0.4452
10107SOL    HW131537   4.863   1.382   5.148  1.2734  0.6806  0.1114
10107SOL    HW231538   4.855   1.231   5.150 -1.1988  0.7715  0.7356
10108SOL     OW31539   5.578   1.250   5.251  0.0918  0.3439 -0.3491
10108SOL    HW131540   5.654   1.203   5.216 -0.9674 -0.7526 -1.2259
10108SOL    HW231541   5.606   1.342   5.253  2.0649 -0.2073  1.0196
10109SOL     OW31542   5.122   1.184   4.908 -0.3252 -0.2508  0.1860
10109SOL    HW131543   5.068   1.248   4.863  1.1737  0.1096 -1.1945
10109SOL    HW231544   5.144   1.226   4.991 -0.9525  0.1926  0.1360
10110SOL     OW31545   5.309   0.710   4.939 -0.5406 -0.2732 -0.2409
10110SOL    HW131546   5.399   0.730   4.913 -0.2514 -0.1605  0.7678
10110SOL    HW231547   5.255   0.776   4.896 -0.1677 -0.4708 -1.0269
10111SOL     OW31548   4.605   8.595   5.322  0.4062 -0.8680  0.2796
10111SOL    HW131549   4.678   8.611   5.382  1.3368 -2.8967 -0.2156
10111SOL    HW231550   4.639   8.618   5.236  0.1133 -0.8433  0.1697
10112SOL     OW31551   4.722   1.332   5.617  0.4621  0.0706  0.1775
10112SOL    HW131552   4.634   1.337   5.654  0.3579  1.2472 -0.1990
10112SOL    HW231553   4.758   1.251   5.653 -1.7499 -1.9420 -1.8123
10113SOL     OW31554   4.341   0.637   4.493  0.2852 -0.5082 -0.5298
10113SOL    HW131555   4.413   0.689   4.528  1.1373 -2.1440  0.3026
10113SOL    HW231556   4.360   0.627   4.400  0.2415  0.4246 -0.6440
10114SOL     OW31557   3.907   0.432   5.111  0.1424 -0.0106 -0.1855
10114SOL    HW131558   3.907   0.506   5.050  2.4299  0.2974  0.1141
10114SOL    HW231559   3.988   0.386   5.094 -1.6192 -3.0966 -1.0093
10115SOL     OW31560   4.775   8.835   4.926 -0.4801  0.1464  0.1756
10115SOL    HW131561   4.720   8.867   4.854 -2.0770  0.6033  1.5344
10115SOL    HW231562   4.733   8.752   4.952  0.5289 -0.3957  0.1043
10116SOL     OW31563   3.369   1.824   5.286  0.1395  0.2907  0.1726
10116SOL    HW131564   3.440   1.879   5.253  1.0508  0.1688  1.8360
10116SOL    HW231565   3.391   1.736   5.255  0.6318  0.2821  0.5379
10117SOL     OW31566   4.170   0.716   4.159  0.3523 -0.1738 -0.3008
10117SOL    HW131567   4.223   0.793   4.138  1.2926 -0.8382 -0.4115
10117SOL    HW231568   4.232   0.644   4.161  0.2193 -0.4132  3.4941
10118SOL     OW31569   3.984   0.422   4.743  0.2382 -0.3223  0.0461
10118SOL    HW131570   4.070   0.433   4.784 -0.2243 -0.9662  1.2439
10118SOL    HW231571   3.997   0.354   4.677  1.7745  2.9240 -3.3926
10119SOL     OW31572   4.957   1.757   4.488  0.5769  0.1630  0.3069
10119SOL    HW131573   5.019   1.825   4.513 -0.4986  1.6237 -0.7731
10119SOL    HW231574   4.871   1.794   4.511  0.0616 -1.8967  2.0154
10120SOL     OW31575   4.845   1.803   4.836 -0.2843 -0.1069 -0.1680
10120SOL    HW131576   4.857   1.880   4.891 -0.4316 -0.0586 -0.2047
10120SOL    HW231577   4.866   1.833   4.747  2.6958 -0.8162  0.1636
10121SOL     OW31578   5.195   0.305   3.941  0.3260 -0.3088  0.4587
10121SOL    HW131579   5.280   0.339   3.971  0.6461 -1.0442  0.3962
10121SOL    HW231580   5.168   0.244   4.010 -0.2440  0.0515  0.5669
10122SOL     OW31581   3.778   1.198   4.876 -0.0573 -0.1773 -0.2660
10122SOL    HW131582   3.837   1.132   4.838 -0.0054  0.4769 -1.3538
10122SOL    HW231583   3.835   1.253   4.929 -0.2494 -1.5532  1.4414
10123SOL     OW31584   4.002   0.724   5.714  0.5724  0.1021 -0.1514
10123SOL    HW131585   4.001   0.798   5.653 -0.3263  0.8147  0.6980
10123SOL    HW231586   4.093   0.718   5.743  0.9025  0.0795 -1.1681
10124SOL     OW31587   5.083   0.365   5.198 -0.0215  0.4953 -0.1380
10124SOL    HW131588   5.060   0.287   5.248 -0.4938  0.9368  0.3607
10124SOL    HW231589   5.178   0.366   5.197  0.0884 -1.5949 -2.5767
10125SOL     OW31590   4.381   8.585   5.788  0.0504  0.8488  0.0291
10125SOL    HW131591   4.395   8.527   5.863  0.7648  0.4483 -0.4058
10125SOL    HW231592   4.469   8.603   5.755 -0.3019  0.1882 -1.3339
10126SOL     OW31593   4.421   0.660   5.636 -0.3950  0.1316  0.5720
10126SOL    HW131594   4.455   0.707   5.560  1.2371 -0.8413  0.6437
10126SOL    HW231595   4.413   0.727   5.704 -1.9799  1.0332 -0.4527
10127SOL     OW31596   4.224   0.587   4.900 -0.1387  0.3324  0.1895
10127SOL    HW131597   4.187   0.667   4.862 -0.3269  0.3676  0.4411
10127SOL    HW231598   4.278   0.618   4.973 -0.8739  0.1846  0.8097
10128SOL     OW31599   5.010   0.653   4.436 -0.7780 -0.1940 -0.3000
10128SOL    HW131600   5.034   0.585   4.373 -1.9896  0.0768 -1.0872
10128SOL    HW231601   4.917   0.639   4.453 -1.0403  1.2193 -0.4368
10129SOL     OW31602   4.905   0.390   4.048  0.4740  0.0758 -0.4956
10129SOL    HW131603   4.897   0.327   3.977  1.4819 -1.3106  0.5808
10129SOL    HW231604   4.953   0.344   4.117 -0.5093  1.3573  1.1226
10130SOL     OW31605   3.967   8.823   4.188 -0.0555  0.2171 -0.0045
10130SOL    HW131606   3.960   8.730   4.207  0.1232  0.4395  1.2097
10130SOL    HW231607   3.879   8.858   4.202 -0.5326 -0.0249 -2.0792
10131SOL     OW31608   3.520   1.247   4.863 -0.5051  0.0276 -0.7677
10131SOL    HW131609   3.488   1.216   4.778 -1.5592  0.7858 -0.6747
10131SOL    HW231610   3.613   1.226   4.863 -0.4603  0.1322 -2.1633
10132SOL     OW31611   4.404   0.370   4.648 -0.4873  0.4138 -0.7855
10132SOL    HW131612   4.488   0.368   4.603 -1.3861 -1.4957 -2.5860
10132SOL    HW231613   4.355   0.440   4.605 -0.7604 -0.3370 -1.7579
10133SOL     OW31614   5.748   0.831   5.681 -0.0967 -0.1742  0.2438
10133SOL    HW131615   5.722   0.862   5.594  0.5527  0.6220  0.3214
10133SOL    HW231616   5.791   0.747   5.665  3.0365  1.4478 -0.6537
10134SOL     OW31617   3.537   0.411   4.230  0.2949 -0.0672 -0.3412
10134SOL    HW131618   3.475   0.339   4.223 -0.6433  0.8199 -1.6702
10134SOL    HW231619   3.507   0.461   4.307  0.0860 -0.3131 -0.2622
10135SOL     OW31620   5.436   0.509   3.915  0.2560  0.3471  0.9628
10135SOL    HW131621   5.472   0.452   3.984 -1.4226  0.7443  2.2326
10135SOL    HW231622   5.446   0.598   3.950  0.9080  0.6879 -0.0644
10136SOL     OW31623   4.631   0.521   4.535  0.8329  0.0072 -0.1835
10136SOL    HW131624   4.667   0.509   4.623  0.5064 -0.1540 -0.0704
10136SOL    HW231625   4.559   0.583   4.547  0.6800 -0.1460 -0.3102
10137SOL     OW31626   4.460   1.345   5.172 -0.5592  0.0584 -0.3630
10137SOL    HW131627   4.433   1.405   5.102 -2.5119  0.5097  0.7087
10137SOL    HW231628   4.391   1.353   5.238 -0.3272 -2.5618  0.3100
10138SOL     OW31629   5.670   1.499   5.110  0.1550 -0.0868 -0.2507
10138SOL    HW131630   5.591   1.477   5.060  1.1273 -0.2268 -1.7849
10138SOL    HW231631   5.645   1.575   5.162 -1.6687 -1.4856  1.0584
10139SOL     OW31632   4.185   1.203   5.550  0.5167  0.0185 -0.1645
10139SOL    HW131633   4.154   1.169   5.466  0.2235  1.4887 -0.6720
10139SOL    HW231634   4.162   1.134   5.613 -3.3780  0.6929 -0.5528
10140SOL     OW31635   5.139   8.818   3.935 -0.5582  0.0480  0.1813
10140SOL    HW131636   5.085   8.867   3.997 -0.5919  0.1384  0.0825
10140SOL    HW231637   5.208   8.880   3.909  0.5504 -0.5796  1.5247
10141SOL     OW31638   5.231   0.919   3.662 -0.6986 -0.0509 -0.0186
10141SOL    HW131639   5.224   0.827   3.686  2.5128 -0.2813  0.3814
10141SOL    HW231640   5.209   0.966   3.742 -1.3268 -0.4866  0.0710
10142SOL     OW31641   4.688   1.023   4.506 -0.0925 -0.3861 -0.5109
10142SOL    HW131642   4.703   1.114   4.529  0.5955 -0.3758 -0.9759
10142SOL    HW231643   4.775   0.986   4.492 -0.3152 -1.3246  0.4413
10143SOL     OW31644   3.729   0.747   4.715  0.2283 -0.0622 -0.6602
10143SOL    HW131645   3.822   0.762   4.696  0.5877 -0.0910  0.9359
10143SOL    HW231646   3.729   0.688   4.790 -1.0960  0.0669 -0.5296
10144SOL     OW31647   3.557   0.356   4.786  0.1204 -0.7670  0.1647
10144SOL    HW131648   3.510   0.438   4.771  0.4593  0.0195  2.8271
10144SOL    HW231649   3.570   0.319   4.699  0.1348  2.1026 -1.1735
10145SOL     OW31650   4.920   8.819   5.760 -0.0203 -0.2378 -0.3495
10145SOL    HW131651   4.902   8.802   5.667 -0.0726 -0.9654 -0.2122
10145SOL    HW231652   4.836   8.850   5.795 -0.9099 -2.8626  0.1104
10146SOL     OW31653   4.742   0.090   5.187  0.1698  0.2926  0.4279
10146SOL    HW131654   4.728   0.181   5.164  0.8457  0.5516  1.0122
10146SOL    HW231655   4.765   0.047   5.105  1.5280  0.9921  0.4264
10147SOL     OW31656   3.408   1.210   4.287  0.4211 -0.1128 -0.0931
10147SOL    HW131657   3.493   1.230   4.327 -0.4095  1.6105  0.9279
10147SOL    HW231658   3.361   1.160   4.354 -0.3432  1.3222  0.5059
10148SOL     OW31659   3.896   1.717   4.527 -0.5944 -0.0330  0.0532
10148SOL    HW131660   3.901   1.700   4.433  1.1155 -3.0671  0.5687
10148SOL    HW231661   3.987   1.726   4.555 -1.0267  0.1765  1.5053
10149SOL     OW31662   4.088   1.349   4.680 -0.2538  0.0812  1.2620
10149SOL    HW131663   4.102   1.330   4.587 -1.5617 -0.4605  1.1523
10149SOL    HW231664   4.010   1.405   4.681 -0.6878 -0.5249  2.0665
10150SOL     OW31665   4.744   0.923   4.954  0.0063 -0.6496  0.1304
10150SOL    HW131666   4.711   0.956   5.038  0.2334 -1.1679  0.4329
10150SOL    HW231667   4.682   0.855   4.929 -0.4482 -0.0262 -0.4788
10151SOL     OW31668   3.765   0.567   4.897 -0.4246  0.2405  0.0012
10151SOL    HW131669   3.820   0.511   4.842  0.2129  0.5844  0.2678
10151SOL    HW231670   3.699   0.508   4.933 -0.1648 -0.2097 -0.2470
10152SOL     OW31671   3.846   0.773   5.961 -0.1762 -0.3841  0.7103
10152SOL    HW131672   3.833   0.689   6.005 -3.1754 -2.1255 -2.9375
10152SOL    HW231673   3.884   0.751   5.876  0.6099  2.2210  0.2676
10153SOL     OW31674   4.927   0.574   5.103  0.4415  0.2125  0.6131
10153SOL    HW131675   4.998   0.519   5.136  1.4273  0.9190 -0.3037
10153SOL    HW231676   4.912   0.542   5.014 -0.5470 -0.0664  0.8654
10154SOL     OW31677   4.618   0.239   4.476  0.1825 -0.0299  0.1524
10154SOL    HW131678   4.641   0.332   4.471  1.3859 -0.3510 -0.7288
10154SOL    HW231679   4.557   0.226   4.403 -0.0665  0.0755  0.3379
10155SOL     OW31680   5.085   8.830   5.221 -0.0682 -0.6568  0.0747
10155SOL    HW131681   5.175   8.817   5.250  0.5765  0.7866 -1.1809
10155SOL    HW231682   5.045   8.882   5.291  0.8045  0.8159 -0.4794
10156SOL     OW31683   4.664   1.437   5.291 -0.2624  0.2542 -0.1657
10156SOL    HW131684   4.590   1.387   5.257 -0.4245  0.1744  0.3059
10156SOL    HW231685   4.665   1.517   5.237  0.6251 -0.6814 -1.6174
10157SOL     OW31686   4.474   0.394   4.932  0.0603  0.3960  0.2882
10157SOL    HW131687   4.450   0.406   4.840  0.3736  0.8925  0.2689
10157SOL    HW231688   4.463   0.480   4.972  0.4622  0.3135  0.5897
10158SOL     OW31689   4.350   1.602   5.070  0.0515 -0.0147  0.2442
10158SOL    HW131690   4.335   1.693   5.044  2.1103  0.4145  0.3836
10158SOL    HW231691   4.334   1.552   4.990  0.9125  0.7064 -0.4053
10159SOL     OW31692   4.453   0.255   3.933  0.0616 -0.5492 -0.3269
10159SOL    HW131693   4.520   0.311   3.893 -1.8418  1.2200 -1.2292
10159SOL    HW231694   4.386   0.246   3.866 -1.5291 -0.5874  1.1997
10160SOL     OW31695   3.862   1.027   5.315 -0.1044 -0.1195  0.1698
10160SOL    HW131696   3.778   1.031   5.269  0.1459 -2.2928 -0.6127
10160SOL    HW231697   3.918   0.975   5.257  1.3972  0.2318  1.2559
10161SOL     OW31698   5.006   0.661   5.450 -0.1863  0.0910  0.8155
10161SOL    HW131699   5.023   0.581   5.500  0.9202  1.4809  2.7979
10161SOL    HW231700   5.083   0.671   5.394 -0.6281 -0.5373  0.0681
10162SOL     OW31701   5.576   0.827   3.967 -0.7119  0.4404 -0.1522
10162SOL    HW131702   5.593   0.846   4.059 -0.5615 -0.0710 -0.0670
10162SOL    HW231703   5.557   0.912   3.927 -0.9471  0.6404  0.3843
10163SOL     OW31704   5.153   1.852   4.742 -0.5257 -0.1636 -0.5201
10163SOL    HW131705   5.086   1.815   4.798 -0.9812  2.8259  1.1404
10163SOL    HW231706   5.234   1.846   4.794 -0.1622 -0.7442 -1.1358
10164SOL     OW31707   4.741   1.985   4.515 -0.0841  0.2174  0.0485
10164SOL    HW131708   4.725   2.038   4.437 -0.7534  0.2171  0.1826
10164SOL    HW231709   4.727   2.044   4.588 -0.0288  0.0682  0.1806
10165SOL     OW31710   3.512   0.856   4.932  0.1379  0.3380  0.5744
10165SOL    HW131711   3.439   0.913   4.909  0.5417  0.3921 -0.6098
10165SOL    HW231712   3.590   0.903   4.904  0.6227  0.1367  1.5352
10166SOL     OW31713   5.132   1.492   5.308 -0.4273 -0.3185  0.4573
10166SOL    HW131714   5.094   1.549   5.241 -1.2485 -0.5491  0.7094
10166SOL    HW231715   5.061   1.480   5.371 -0.2190 -1.5067  0.4785
10167SOL     OW31716   5.527   0.316   4.063  0.1570 -0.2382  0.4003
10167SOL    HW131717   5.600   0.255   4.061 -1.3588 -2.1223 -1.4578
10167SOL    HW231718   5.477   0.290   4.141  0.0711 -0.6924  0.1958
10168SOL     OW31719   5.187   1.601   4.543  0.7105 -0.3552  0.4069
10168SOL    HW131720   5.160   1.579   4.632  1.5214 -0.0813  0.7218
10168SOL    HW231721   5.106   1.629   4.500  0.1556 -1.3145  0.7977
10169SOL     OW31722   4.289   1.686   5.360  0.0075 -0.0006 -0.0396
10169SOL    HW131723   4.332   1.636   5.291  0.0679  0.7923 -0.5963
10169SOL    HW231724   4.213   1.726   5.316  0.4002  1.0229  0.1869
10170SOL     OW31725   4.996   0.651   3.941 -0.4563  0.1345  0.8124
10170SOL    HW131726   4.965   0.583   4.001 -1.9759 -1.0869 -1.2429
10170SOL    HW231727   4.917   0.681   3.896  0.7706 -0.0708 -1.6349
10171SOL     OW31728   4.198   1.023   5.323 -0.0230  0.2187  0.8410
10171SOL    HW131729   4.166   0.939   5.357  0.4847  0.8827  3.0899
10171SOL    HW231730   4.292   1.010   5.313 -0.2810 -0.3450 -1.6481
10172SOL     OW31731   4.432   1.446   3.939 -0.0302  0.0122  0.2451
10172SOL    HW131732   4.379   1.525   3.935 -0.3623 -0.1646  0.9706
10172SOL    HW231733   4.522   1.476   3.925 -0.2817  0.3498 -0.7099
10173SOL     OW31734   5.402   1.732   5.042  0.4711  0.3412 -0.2863
10173SOL    HW131735   5.335   1.794   5.068  0.1786  0.0012 -0.2204
10173SOL    HW231736   5.357   1.671   4.983  0.7473  0.1813 -0.3356
10174SOL     OW31737   5.076   0.127   4.704  0.1299  0.2856 -0.3422
10174SOL    HW131738   5.040   0.115   4.792  0.1472  0.8524 -0.2513
10174SOL    HW231739   5.137   0.054   4.693 -0.2700 -0.0890 -0.0910
10175SOL     OW31740   3.558   0.221   4.540 -0.2274  0.1723 -0.1922
10175SOL    HW131741   3.579   0.251   4.451 -1.3787 -1.1098 -0.9296
10175SOL    HW231742   3.573   0.126   4.537 -1.5610 -0.0874  0.5738
10176SOL     OW31743   4.682   1.526   3.934  0.0660 -0.3246  0.2736
10176SOL    HW131744   4.686   1.614   3.896  2.4988 -1.5488 -2.6978
10176SOL    HW231745   4.765   1.516   3.979 -0.9231 -0.5625  2.1247
10177SOL     OW31746   4.139   0.862   4.913  0.4056 -0.4906  0.6001
10177SOL    HW131747   4.072   0.906   4.862  1.4467 -0.2486 -0.6035
10177SOL    HW231748   4.197   0.932   4.943  0.6117 -0.7821  0.8943
10178SOL     OW31749   4.520   1.064   4.297  0.1775  0.2914 -0.2511
10178SOL    HW131750   4.582   1.036   4.364  2.1800  1.2412 -1.5995
10178SOL    HW231751   4.569   1.126   4.243 -1.9865  1.1479 -1.3874
10179SOL     OW31752   5.086   1.388   3.741  0.2399 -0.1840 -0.2704
10179SOL    HW131753   5.093   1.433   3.657  1.3891 -1.0053 -0.6340
10179SOL    HW231754   5.019   1.437   3.789  0.9309  1.4842 -0.9180
10180SOL     OW31755   4.023   0.743   5.164 -0.0406  0.5471 -0.2276
10180SOL    HW131756   4.075   0.774   5.090  0.5444  1.6949  0.6232
10180SOL    HW231757   3.933   0.765   5.140  0.1542  0.9962 -0.5722
10181SOL     OW31758   5.111   1.177   5.355  0.5301 -0.5595  0.4330
10181SOL    HW131759   5.170   1.242   5.393  0.4206 -0.6153  0.6960
10181SOL    HW231760   5.158   1.095   5.362 -0.0261 -0.7945  1.6629
10182SOL     OW31761   5.087   1.194   4.256  0.2888  0.3634 -0.1849
10182SOL    HW131762   5.094   1.200   4.161 -0.0810 -1.0179 -0.3264
10182SOL    HW231763   5.082   1.100   4.273 -0.1502  0.6159  1.1632
10183SOL     OW31764   4.763   8.649   4.608 -0.0084 -0.9362 -0.3783
10183SOL    HW131765   4.806   8.699   4.538  0.9323 -3.1590 -1.4700
10183SOL    HW231766   4.699   8.710   4.644 -0.1701  0.4803 -2.8312
10184SOL     OW31767   3.783   1.553   3.727 -0.2494  0.7722  0.0748
10184SOL    HW131768   3.799   1.630   3.781  0.1938 -1.1529  2.8756
10184SOL    HW231769   3.865   1.503   3.732 -0.4990  0.1087 -1.7369
10185SOL     OW31770   5.308   8.736   5.351  0.3881  0.1736  0.3926
10185SOL    HW131771   5.312   8.649   5.391 -1.9675 -0.7048 -1.0762
10185SOL    HW231772   5.320   8.797   5.424 -2.7004 -1.3747  2.3920
10186SOL     OW31773   3.836   0.954   4.366 -0.1227 -0.3181 -0.1134
10186SOL    HW131774   3.917   0.962   4.418 -0.2808 -0.4898  0.1619
10186SOL    HW231775   3.864   0.906   4.288 -0.2594 -1.7676  0.6940
10187SOL     OW31776   3.888   1.234   5.493  0.1347  0.1998 -0.0498
10187SOL    HW131777   3.834   1.214   5.569 -0.9996 -0.4351 -1.0009
10187SOL    HW231778   3.868   1.165   5.430  2.9212 -0.7563 -0.0348
10188SOL     OW31779   4.497   0.040   5.384  0.1912  0.1983 -0.1761
10188SOL    HW131780   4.495  -0.056   5.393 -0.8415 -0.0922 -2.6998
10188SOL    HW231781   4.572   0.056   5.327 -1.2705  0.5557 -2.1171
10189SOL     OW31782   3.719   0.214   3.234  0.2449  0.2595 -0.5105
10189SOL    HW131783   3.764   0.243   3.313  0.6856  0.6362 -0.8951
10189SOL    HW231784   3.741   0.121   3.226 -0.7265 -0.0710  0.4230
10190SOL     OW31785   4.968   0.460   4.782  0.1852  0.1924 -0.0526
10190SOL    HW131786   5.005   0.432   4.698  1.5527  1.2439  0.1495
10190SOL    HW231787   5.043   0.459   4.842 -0.7781 -0.6074  1.1919
10191SOL     OW31788   3.405   0.159   4.172  0.3513 -0.1607 -0.1158
10191SOL    HW131789   3.362   0.232   4.127  1.1570  0.2113 -0.2961
10191SOL    HW231790   3.405   0.088   4.109 -1.7197 -0.8220  0.5346
10192SOL     OW31791   5.087   1.503   4.253 -0.0382  0.2790 -0.2862
10192SOL    HW131792   5.107   1.411   4.269  0.0353  0.2029 -0.7752
10192SOL    HW231793   4.991   1.507   4.251 -0.1149  0.5950  1.7814
10193SOL     OW31794   4.125   0.783   5.435  0.4610  0.4570  0.7362
10193SOL    HW131795   4.087   0.758   5.350  0.5771  2.5664  0.0190
10193SOL    HW231796   4.131   0.700   5.483 -2.1155 -0.4414 -0.2855
10194SOL     OW31797   4.750   2.368   4.594 -0.0567 -0.2637 -0.2812
10194SOL    HW131798   4.700   2.295   4.631  0.0075 -1.2692 -2.0289
10194SOL    HW231799   4.707   2.387   4.511  0.4185  1.1741 -0.2165
10195SOL     OW31800   4.392   0.554   5.344 -0.0242  0.2119 -0.8502
10195SOL    HW131801   4.432   0.476   5.383  1.1053  0.8270 -0.7525
10195SOL    HW231802   4.311   0.566   5.394 -0.1600 -0.8282 -0.7898
10196SOL     OW31803   5.346   1.281   5.478 -0.1495 -0.0101  0.4814
10196SOL    HW131804   5.323   1.295   5.570 -0.3393 -0.6136  0.5319
10196SOL    HW231805   5.435   1.247   5.481 -0.2942 -0.3980  0.4717
10197SOL     OW31806   4.764   1.710   5.200  0.5291  0.0051 -0.1075
10197SOL    HW131807   4.720   1.775   5.144 -0.7908 -0.2990  0.5465
10197SOL    HW231808   4.720   1.718   5.284 -0.0611 -2.1279 -0.1723
10198SOL     OW31809   5.335   0.398   5.156  0.3920  0.0183 -0.2678
10198SOL    HW131810   5.392   0.475   5.160  0.6398 -0.1508 -0.4992
10198SOL    HW231811   5.394   0.324   5.172  0.1553 -0.1245 -0.0433
10199SOL     OW31812   4.674   0.031   4.320 -0.2572  0.3129 -0.1108
10199SOL    HW131813   4.649   0.112   4.365  1.4528  1.3217 -0.8829
10199SOL    HW231814   4.605   0.018   4.256 -1.1304  0.5368  0.7529
10200SOL     OW31815   4.118   0.700   4.608 -0.0910  0.3458  0.1558
10200SOL    HW131816   4.204   0.687   4.569 -0.1416 -1.1820  0.4866
10200SOL    HW231817   4.092   0.613   4.638 -0.7102  1.1838  2.2267
10201SOL     OW31818   5.275   0.102   5.593 -0.1464  0.0496  1.1593
10201SOL    HW131819   5.287   0.197   5.593  0.7494  0.0102 -1.0404
10201SOL    HW231820   5.364   0.067   5.593 -0.3658 -0.6635 -1.0792
10202SOL     OW31821   5.684   0.904   5.100  0.3044 -0.5792  0.7153
10202SOL    HW131822   5.761   0.960   5.111  0.7432 -0.3204 -2.5742
10202SOL    HW231823   5.612   0.965   5.086  0.1692 -0.8143  0.3636
10203SOL     OW31824   4.336   0.941   4.137  0.0280  0.0507 -0.1402
10203SOL    HW131825   4.378   0.992   4.206 -1.6815 -1.3939  2.1230
10203SOL    HW231826   4.303   1.007   4.075  2.4944  1.3369 -0.2039
10204SOL     OW31827   4.486   1.167   4.733  0.3603  0.2957  0.5242
10204SOL    HW131828   4.545   1.091   4.729  0.8482  0.6688  0.5434
10204SOL    HW231829   4.432   1.160   4.655  0.7579  0.2125  0.2558
10205SOL     OW31830   4.781   1.198   4.845 -0.2986  0.0814 -0.2206
10205SOL    HW131831   4.842   1.240   4.907 -0.6946  0.3334  0.0028
10205SOL    HW231832   4.781   1.106   4.870  0.9796 -0.1654 -1.0438
10206SOL     OW31833   4.954   0.922   4.437  0.0566  0.2920  0.0862
10206SOL    HW131834   4.973   0.828   4.441 -0.7087  0.1636  1.0567
10206SOL    HW231835   5.017   0.962   4.495  0.7947  0.4601 -0.8153
10207SOL     OW31836   6.000   1.693   4.371  0.1573  0.1468 -0.7040
10207SOL    HW131837   6.085   1.665   4.335  2.8724  1.3633  3.8946
10207SOL    HW231838   5.988   1.782   4.338 -0.2136 -0.5677 -2.6023
10208SOL     OW31839   4.111   1.262   5.178  0.0066 -0.3304 -0.4946
10208SOL    HW131840   4.120   1.178   5.223  2.7598 -0.4852 -1.1240
10208SOL    HW231841   4.102   1.326   5.250 -0.0545 -0.9824  0.0888
10209SOL     OW31842   4.061   0.950   4.534  0.5210  0.4728  1.0657
10209SOL    HW131843   4.147   0.988   4.515  0.4134 -0.1185 -0.8703
10209SOL    HW231844   4.080   0.863   4.567  0.6860  0.2944  0.5151
10210SOL     OW31845   4.295   1.400   5.382  0.2583  0.0414 -0.7117
10210SOL    HW131846   4.237   1.476   5.392  1.5327  0.8632  0.8858
10210SOL    HW231847   4.263   1.338   5.447  1.4850  0.7399  0.6015
10211SOL     OW31848   5.902   0.086   5.075  0.1675 -0.5338  0.3739
10211SOL    HW131849   5.894   0.130   5.160 -0.3916  1.0326 -0.4591
10211SOL    HW231850   5.990   0.108   5.044  1.4598 -3.3005  1.6548
10212SOL     OW31851   4.229   8.737   4.764 -0.0760  0.1220 -0.3046
10212SOL    HW131852   4.266   8.810   4.715 -0.2830  1.0796  0.9243
10212SOL    HW231853   4.149   8.771   4.802  0.6439 -0.2002  1.6323
10213SOL     OW31854   5.063   1.409   4.760 -0.6985 -0.0882 -0.3137
10213SOL    HW131855   4.981   1.442   4.725 -1.8689 -2.6479 -0.2258
10213SOL    HW231856   5.109   1.373   4.684  0.2559  1.0609 -0.3152
10214SOL     OW31857   4.142   0.293   5.163 -0.3620  0.0629  0.0349
10214SOL    HW131858   4.160   0.217   5.219 -1.3434  0.6314  1.1736
10214SOL    HW231859   4.214   0.354   5.182  0.4318 -0.5451 -0.8854
10215SOL     OW31860   4.529   1.919   4.229  0.5999 -0.5296 -0.2181
10215SOL    HW131861   4.496   1.922   4.139 -0.8368  0.3168  0.3004
10215SOL    HW231862   4.599   1.985   4.231  0.3851 -0.2872 -0.6193
10216SOL     OW31863   5.037   0.053   4.952 -0.4842  0.0043 -0.3867
10216SOL    HW131864   5.067   0.036   5.041  1.2730 -0.2540 -1.0052
10216SOL    HW231865   4.947   0.021   4.951 -0.4086 -0.3271  1.1859
10217SOL     OW31866   4.231   8.457   4.876 -0.1321 -0.1476  0.0389
10217SOL    HW131867   4.226   8.552   4.878 -2.2660 -0.1551 -1.6222
10217SOL    HW231868   4.290   8.437   4.803 -0.7766 -0.0914 -0.5011
10218SOL     OW31869   4.574   1.198   4.044  0.0834  0.0753  0.4278
10218SOL    HW131870   4.552   1.291   4.049  0.7875  0.3982 -1.5606
10218SOL    HW231871   4.489   1.153   4.047 -0.2827  0.7924  1.0188
10219SOL     OW31872   4.295   1.377   4.871  0.1320  0.2611 -0.6457
10219SOL    HW131873   4.224   1.321   4.839  1.8279 -3.0620  0.8797
10219SOL    HW231874   4.374   1.335   4.838  1.5721  1.1623  1.4979
10220SOL     OW31875   5.144   8.583   4.333  0.1785  0.1756 -0.2386
10220SOL    HW131876   5.218   8.623   4.288  0.1329  1.2475  0.6198
10220SOL    HW231877   5.155   8.607   4.424  0.1082 -1.7221  0.3250
10221SOL     OW31878   4.989   0.385   4.328  0.4678 -0.5065  0.2571
10221SOL    HW131879   4.957   0.358   4.414 -0.6267 -1.6873 -0.4762
10221SOL    HW231880   4.930   0.456   4.301  0.4526 -0.5228  0.2467
10222SOL     OW31881   4.893   8.781   4.406  0.2505  0.0451 -0.1571
10222SOL    HW131882   4.828   8.827   4.353  0.9516  0.6801 -0.4831
10222SOL    HW231883   4.971   8.835   4.401  0.6421 -0.4178  0.6978
10223SOL     OW31884   3.461   0.792   4.137 -0.5179  0.4458 -0.6404
10223SOL    HW131885   3.504   0.706   4.132 -0.9562  0.2262 -0.6823
10223SOL    HW231886   3.369   0.772   4.154 -0.1332  0.9636  2.8522
10224SOL     OW31887   4.339   1.701   3.951  0.4586 -0.1047 -0.3027
10224SOL    HW131888   4.266   1.761   3.936 -0.2716 -0.8873  0.0620
10224SOL    HW231889   4.410   1.737   3.897  0.4549  1.7853  0.8493
10225SOL     OW31890   4.201   0.820   6.225  0.1293  0.0987  0.2268
10225SOL    HW131891   4.252   0.802   6.304  1.6569  1.5548 -0.3625
10225SOL    HW231892   4.149   0.741   6.211  0.2254 -0.3980  2.3652
10226SOL     OW31893   4.004   0.208   6.353 -0.5873  1.0794 -0.1027
10226SOL    HW131894   4.075   0.157   6.392 -1.0253  1.9073  1.8845
10226SOL    HW231895   3.930   0.147   6.350  0.3955 -0.1974 -3.3550
10227SOL     OW31896   3.883   0.537   6.813 -0.0578  0.0084  0.0536
10227SOL    HW131897   3.967   0.524   6.856 -0.8733  1.4464  2.3008
10227SOL    HW231898   3.877   0.632   6.800 -1.3469 -0.0559  0.0186
10228SOL     OW31899   4.923   1.374   6.878  0.1122  0.3359  0.4664
10228SOL    HW131900   4.891   1.426   6.952 -1.1204 -2.2788  1.9081
10228SOL    HW231901   4.884   1.415   6.801 -2.6098  0.2823  1.7302
10229SOL     OW31902   5.881   1.550   6.569  0.7078  0.0316 -0.2657
10229SOL    HW131903   5.976   1.538   6.580  0.4946 -1.6896  0.0044
10229SOL    HW231904   5.873   1.629   6.515  2.3704 -0.7922 -1.8293
10230SOL     OW31905   4.914   0.578   6.071  0.0101 -0.1947 -0.4189
10230SOL    HW131906   4.855   0.642   6.031 -0.5784  0.4141  1.3200
10230SOL    HW231907   5.001   0.604   6.041 -0.4816 -0.4058 -2.1019
10231SOL     OW31908   5.403   0.316   5.993  0.2705  0.5481  0.2436
10231SOL    HW131909   5.392   0.221   5.990  0.5916  0.5302 -1.7966
10231SOL    HW231910   5.448   0.332   6.076  1.7511 -1.2828 -0.1329
10232SOL     OW31911   5.000   0.772   6.825 -0.1249  0.2543 -0.5206
10232SOL    HW131912   4.956   0.820   6.895 -2.0909 -0.3666 -1.2661
10232SOL    HW231913   5.063   0.717   6.871 -0.4037  0.8536  0.6377
10233SOL     OW31914   4.869   0.277   7.476  0.6711 -0.0492 -0.5020
10233SOL    HW131915   4.948   0.283   7.422  0.8785  2.0751 -0.0587
10233SOL    HW231916   4.799   0.307   7.418  0.4258 -0.5660 -0.4704
10234SOL     OW31917   4.531   1.118   6.426 -0.0896 -0.0378  0.3478
10234SOL    HW131918   4.587   1.124   6.503 -0.6040 -1.3436  0.8569
10234SOL    HW231919   4.582   1.068   6.363 -1.0786 -2.4021  1.2840
10235SOL     OW31920   4.948   1.247   7.193  0.5868  0.0610  0.2170
10235SOL    HW131921   4.871   1.199   7.163  0.7909 -1.1050  1.4749
10235SOL    HW231922   4.939   1.334   7.154 -1.7187  0.1944  0.9051
10236SOL     OW31923   4.491   1.344   6.656 -0.2943  0.2066 -1.0220
10236SOL    HW131924   4.495   1.413   6.589 -0.2535  2.0711  0.8111
10236SOL    HW231925   4.557   1.370   6.720 -1.0725 -0.9450  0.2867
10237SOL     OW31926   5.253   1.641   6.946 -0.5402 -0.1661  0.4596
10237SOL    HW131927   5.227   1.622   7.036 -0.3813  1.2439  0.8306
10237SOL    HW231928   5.170   1.652   6.899 -0.6231 -0.4502  0.5388
10238SOL     OW31929   4.119   0.197   6.985 -0.2252 -0.3305 -0.2096
10238SOL    HW131930   4.128   0.286   6.951 -0.3890  0.2851  1.3236
10238SOL    HW231931   4.068   0.206   7.065  0.7504 -1.6623  0.5983
10239SOL     OW31932   5.364   0.003   6.334  0.0283 -0.6190 -0.1692
10239SOL    HW131933   5.328   0.084   6.296  2.1959  0.0737 -0.8610
10239SOL    HW231934   5.330  -0.066   6.277 -1.9763 -0.2704  0.5156
10240SOL     OW31935   3.994   1.805   6.569 -0.2454 -0.8532 -0.0222
10240SOL    HW131936   4.074   1.836   6.526 -0.4014  1.6892  1.3494
10240SOL    HW231937   4.023   1.772   6.654 -0.4986 -1.2456 -0.0846
10241SOL     OW31938   5.380   1.219   7.461 -0.4840  0.1451  0.7162
10241SOL    HW131939   5.317   1.240   7.393 -0.8695  0.7260  1.2409
10241SOL    HW231940   5.360   1.280   7.532 -0.8511 -1.1935  1.8209
10242SOL     OW31941   3.897   1.569   6.056 -0.2196 -0.4649 -0.0689
10242SOL    HW131942   3.912   1.498   6.118 -0.0049  0.1266  0.5600
10242SOL    HW231943   3.984   1.606   6.040 -0.1593 -1.0930 -1.3166
10243SOL     OW31944   4.390   0.855   6.444 -0.4665  0.5438  0.6119
10243SOL    HW131945   4.378   0.942   6.407  1.5084  0.3752 -0.5238
10243SOL    HW231946   4.483   0.836   6.435 -0.9765 -2.1017 -0.1511
10244SOL     OW31947   4.353   1.628   6.646 -0.0069 -0.2266  0.7624
10244SOL    HW131948   4.394   1.712   6.669 -0.6270  0.5595 -0.8058
10244SOL    HW231949   4.398   1.601   6.566 -2.4468  0.7038 -1.0636
10245SOL     OW31950   4.603   0.991   5.905  0.1963 -0.1940 -0.0812
10245SOL    HW131951   4.667   1.038   5.852 -0.0159 -0.5457 -0.6691
10245SOL    HW231952   4.520   1.007   5.862 -0.2342  0.8428  1.0829
10246SOL     OW31953   5.453   8.823   7.028  0.4463  0.4954  0.5314
10246SOL    HW131954   5.433   8.806   6.936  3.0024 -0.4085  0.0511
10246SOL    HW231955   5.433   8.740   7.072  1.2424  0.2209  0.3891
10247SOL     OW31956   4.444   0.501   6.456 -0.0976  0.0080 -0.0697
10247SOL    HW131957   4.368   0.517   6.513 -0.7769  0.5344 -1.1093
10247SOL    HW231958   4.517   0.545   6.501 -0.6418  0.5016  0.3444
10248SOL     OW31959   5.343   1.270   6.012 -0.5169 -0.0426 -0.0594
10248SOL    HW131960   5.353   1.358   5.977 -1.9162  0.4066  0.5992
10248SOL    HW231961   5.401   1.216   5.959  1.1408  1.4232  0.1855
10249SOL     OW31962   3.884   1.369   5.060 -0.7527 -0.3101  0.3573
10249SOL    HW131963   3.964   1.341   5.105 -0.8037  0.9719  1.3295
10249SOL    HW231964   3.814   1.355   5.124 -0.9950  0.4842  0.2856
10250SOL     OW31965   5.416   0.628   6.135  0.1735 -0.1150 -0.2940
10250SOL    HW131966   5.442   0.540   6.161 -0.9763 -0.7559 -1.2257
10250SOL    HW231967   5.408   0.624   6.040 -0.4200  0.8381 -0.3037
10251SOL     OW31968   5.514   1.124   5.874 -0.0746  0.6862  0.5366
10251SOL    HW131969   5.608   1.111   5.888  0.0230 -0.2449 -0.8581
10251SOL    HW231970   5.498   1.098   5.784 -1.4151  2.3536  0.2292
10252SOL     OW31971   4.225   0.768   7.500 -0.0532  0.2890  0.2989
10252SOL    HW131972   4.255   0.805   7.583 -0.0723  0.6618  0.1451
10252SOL    HW231973   4.250   0.676   7.504  1.3522  0.6242  0.0929
10253SOL     OW31974   4.730   1.697   6.462 -0.3692 -0.3353 -0.4645
10253SOL    HW131975   4.705   1.789   6.470  0.5930 -0.0607 -0.5851
10253SOL    HW231976   4.799   1.696   6.396  1.3160 -0.7986  1.2047
10254SOL     OW31977   5.232   0.555   7.921 -0.3184  0.2468  0.6207
10254SOL    HW131978   5.184   0.636   7.938  0.3796  0.5815  1.0217
10254SOL    HW231979   5.164   0.493   7.894 -1.0843  0.5140  1.8321
10255SOL     OW31980   4.433   0.159   6.110  0.3069 -0.0656  0.3512
10255SOL    HW131981   4.433   0.169   6.205 -0.8626 -1.8539  0.5942
10255SOL    HW231982   4.491   0.084   6.094 -0.9844 -1.0047 -0.1276
10256SOL     OW31983   4.843   1.125   6.818  0.0879 -0.0588  0.1330
10256SOL    HW131984   4.862   1.114   6.724  3.1292  1.1895  0.4980
10256SOL    HW231985   4.890   1.204   6.843  0.5742 -1.1431  3.0325
10257SOL     OW31986   5.353   0.887   5.888 -0.1721 -0.1243 -0.2816
10257SOL    HW131987   5.432   0.833   5.890 -0.0905 -0.0052 -0.2997
10257SOL    HW231988   5.354   0.934   5.971  0.5901  1.0405 -0.9189
10258SOL     OW31989   4.982   1.904   6.978 -0.2962  0.5794 -0.1755
10258SOL    HW131990   4.992   1.812   6.953 -1.9870  0.5468 -0.8568
10258SOL    HW231991   4.996   1.953   6.897 -1.4216  0.7643 -0.2762
10259SOL     OW31992   4.164   0.405   6.626 -0.3585 -0.0572 -0.2092
10259SOL    HW131993   4.130   0.441   6.544  0.5575 -0.0642 -0.6083
10259SOL    HW231994   4.179   0.312   6.607 -1.5598 -0.4032  0.4423
10260SOL     OW31995   5.518   1.665   6.477  0.1951 -0.4412 -0.1122
10260SOL    HW131996   5.463   1.642   6.552 -3.4301  0.8392 -2.1169
10260SOL    HW231997   5.561   1.746   6.502 -2.2746  0.8887  0.1098
10261SOL     OW31998   5.416   1.743   6.171  0.2501 -0.2855 -0.0190
10261SOL    HW131999   5.504   1.780   6.174 -0.5910  2.0549 -1.3043
10261SOL    HW232000   5.383   1.752   6.261 -0.2909  3.4577 -0.3953
10262SOL     OW32001   4.374   0.977   6.110 -0.1079 -0.5010 -0.3004
10262SOL    HW132002   4.300   0.931   6.151 -0.3309  0.4630  0.4190
10262SOL    HW232003   4.412   0.913   6.050 -0.2202 -1.7329  0.8879
10263SOL     OW32004   4.987   8.597   6.136  0.7124  0.2142 -0.3814
10263SOL    HW132005   4.987   8.690   6.161 -1.8469 -0.0810  1.0955
10263SOL    HW232006   4.970   8.550   6.217 -0.5696 -1.3590 -1.4836
10264SOL     OW32007   4.895   1.499   5.812 -0.0008  0.0325  0.6916
10264SOL    HW132008   4.809   1.542   5.813 -0.5326 -0.8356 -1.6613
10264SOL    HW232009   4.884   1.422   5.867 -0.5229  0.2813  0.9429
10265SOL     OW32010   4.164   0.440   6.876  0.0605 -0.4559 -0.0162
10265SOL    HW132011   4.150   0.439   6.782 -0.7586 -0.7463  0.0943
10265SOL    HW232012   4.254   0.470   6.888  0.1482 -0.3703 -0.8838
10266SOL     OW32013   5.144   0.246   7.348 -0.3331  0.1326 -0.2917
10266SOL    HW132014   5.218   0.242   7.408 -0.2307  0.0846 -0.4198
10266SOL    HW232015   5.139   0.158   7.310  0.2366  0.4404 -1.1135
10267SOL     OW32016   5.006   0.489   7.325  0.1372 -0.1409  0.7936
10267SOL    HW132017   5.055   0.408   7.313 -0.0890 -0.0914 -0.7102
10267SOL    HW232018   5.066   0.557   7.295  0.2564  0.2330  1.8718
10268SOL     OW32019   4.408   0.418   7.059 -0.3889 -0.4664  0.0690
10268SOL    HW132020   4.358   0.350   7.014 -1.7915  0.5467  0.0482
10268SOL    HW232021   4.401   0.495   7.002 -0.7741  0.3465  1.1890
10269SOL     OW32022   4.722   0.295   5.880 -0.3325 -0.0400 -0.3239
10269SOL    HW132023   4.649   0.345   5.843 -0.9935 -0.4528  0.3721
10269SOL    HW232024   4.790   0.297   5.813 -1.1222  0.0599 -1.1394
10270SOL     OW32025   4.913   0.940   7.031 -0.1835 -0.1408 -0.1787
10270SOL    HW132026   4.890   1.012   6.973  0.6063  0.2714  0.0113
10270SOL    HW232027   4.959   0.981   7.104  0.7808 -0.8948 -0.3447
10271SOL     OW32028   3.601   1.985   7.374  0.2343 -0.3178  0.0334
10271SOL    HW132029   3.679   1.967   7.426 -0.3316 -2.3761  0.2747
10271SOL    HW232030   3.598   1.914   7.310 -0.7680  0.4328 -0.7809
10272SOL     OW32031   4.520   0.421   5.746 -0.1421 -0.5231  0.3298
10272SOL    HW132032   4.474   0.351   5.700 -3.0570  0.9962  0.7125
10272SOL    HW232033   4.507   0.499   5.691 -1.4286  0.7564  2.3043
10273SOL     OW32034   5.440   0.562   7.492  0.1282 -0.0161  0.6110
10273SOL    HW132035   5.390   0.600   7.419 -0.6250 -0.8676  0.6574
10273SOL    HW232036   5.489   0.635   7.529  0.4184  0.4639 -0.6642
10274SOL     OW32037   5.141   1.129   6.134 -0.1303 -0.3698 -0.4600
10274SOL    HW132038   5.135   1.208   6.080 -1.3075  0.8486  1.3222
10274SOL    HW232039   5.231   1.100   6.124  0.7608  2.0179 -0.1327
10275SOL     OW32040   4.201   0.134   6.545 -0.3564 -0.4231 -0.0935
10275SOL    HW132041   4.296   0.117   6.543 -0.0926  0.6936  1.1548
10275SOL    HW232042   4.166   0.062   6.598  0.1216  0.3359  1.3062
10276SOL     OW32043   4.957   1.708   6.324  0.5528  0.2317  0.9990
10276SOL    HW132044   4.967   1.754   6.240 -1.9509 -1.1024 -0.1449
10276SOL    HW232045   4.985   1.619   6.306 -2.0470 -0.6419  0.8558
10277SOL     OW32046   3.927   1.879   7.090 -0.1722 -0.2816  0.1601
10277SOL    HW132047   3.930   1.796   7.137  1.5319  0.0852  0.7378
10277SOL    HW232048   4.007   1.880   7.038 -0.4768  0.7355 -0.3073
10278SOL     OW32049   5.409   0.701   6.415  0.2865 -0.1703 -0.0735
10278SOL    HW132050   5.386   0.795   6.416 -1.8877 -0.6229  1.9167
10278SOL    HW232051   5.397   0.675   6.324 -1.4474  1.0133 -0.2364
10279SOL     OW32052   5.341   1.192   6.939  0.5053  0.1468  0.0770
10279SOL    HW132053   5.290   1.236   6.872 -0.4709  1.8558  1.8448
10279SOL    HW232054   5.432   1.212   6.917  0.3269 -0.6419 -1.5550
10280SOL     OW32055   4.192   1.065   5.878  0.6558  0.6720 -0.2710
10280SOL    HW132056   4.216   1.151   5.912 -0.4820  0.3754  1.3842
10280SOL    HW232057   4.097   1.064   5.881  0.6401 -0.4669 -0.7843
10281SOL     OW32058   5.319   0.207   6.556 -0.1265 -0.0736  0.2372
10281SOL    HW132059   5.296   0.163   6.474  0.3309 -0.1727  0.1557
10281SOL    HW232060   5.415   0.206   6.557 -0.0867  1.4025 -0.0211
10282SOL     OW32061   4.541   1.144   7.508  0.2406 -0.1207  0.3839
10282SOL    HW132062   4.445   1.144   7.502  0.3118 -0.0152 -1.0332
10282SOL    HW232063   4.559   1.127   7.601 -1.1479  0.6536  0.8201
10283SOL     OW32064   5.375   1.543   5.394 -0.0914 -0.1104 -0.1522
10283SOL    HW132065   5.288   1.544   5.355  0.0883  0.2743 -0.5640
10283SOL    HW232066   5.386   1.454   5.427 -0.0002 -0.6563 -1.5633
10284SOL     OW32067   4.590   0.868   6.848 -0.3170 -0.4167  0.2013
10284SOL    HW132068   4.515   0.916   6.812 -0.1795 -0.2168  0.1793
10284SOL    HW232069   4.575   0.868   6.943  0.2026  0.5644  0.2946
10285SOL     OW32070   5.419   0.641   5.671  0.2937  0.1159 -0.3469
10285SOL    HW132071   5.486   0.669   5.734  1.4729  1.0887 -1.9840
10285SOL    HW232072   5.380   0.723   5.640 -1.4979 -0.4194  0.3368
10286SOL     OW32073   4.395   1.666   5.777 -0.2198 -0.4369  0.4452
10286SOL    HW132074   4.397   1.756   5.810 -1.6546  0.2163 -1.0758
10286SOL    HW232075   4.324   1.666   5.713 -0.1806 -2.6443  0.3258
10287SOL     OW32076   5.270   8.146   5.954  0.3369  0.1808 -0.3015
10287SOL    HW132077   5.253   8.058   5.988  0.1645  0.3311 -0.0049
10287SOL    HW232078   5.218   8.151   5.874  0.8010 -0.1974 -0.6364
10288SOL     OW32079   4.293   1.467   6.893  0.1766 -0.2488 -0.2748
10288SOL    HW132080   4.337   1.491   6.812  0.1535  0.4135 -0.0943
10288SOL    HW232081   4.207   1.435   6.865  0.3123 -0.3837 -0.5379
10289SOL     OW32082   4.394   1.885   6.680  0.1868 -0.6225 -0.1972
10289SOL    HW132083   4.355   1.892   6.593 -0.1640 -1.3981 -0.1060
10289SOL    HW232084   4.337   1.938   6.736 -0.1279 -0.8921 -0.2627
10290SOL     OW32085   4.395   0.684   5.969  0.6260 -0.8475 -0.2943
10290SOL    HW132086   4.355   0.598   5.981 -1.2582  0.1479  1.0079
10290SOL    HW232087   4.468   0.686   6.031  0.0705 -1.1524  0.3714
10291SOL     OW32088   5.514   8.847   7.371 -0.4393 -0.4634  0.3907
10291SOL    HW132089   5.454   8.804   7.310 -0.4323  1.6002 -1.1695
10291SOL    HW232090   5.543   8.926   7.325  4.0415 -1.6361  0.7470
10292SOL     OW32091   4.443   0.217   5.613  0.2278 -0.3818  0.2466
10292SOL    HW132092   4.498   0.155   5.660 -0.3291  0.4558  2.1355
10292SOL    HW232093   4.420   0.172   5.531  0.3888 -2.3742  1.2290
10293SOL     OW32094   4.724   0.340   7.073 -0.6871 -0.0995 -0.2970
10293SOL    HW132095   4.794   0.389   7.030 -1.3111 -0.3561 -1.6605
10293SOL    HW232096   4.647   0.357   7.019 -1.6883  0.1541  1.1569
10294SOL     OW32097   4.844   1.522   6.645  0.2881 -0.3784  0.0544
10294SOL    HW132098   4.795   1.595   6.607  1.4454  0.6213  0.3986
10294SOL    HW232099   4.876   1.473   6.570  0.8284  0.3936 -0.2327
10295SOL     OW32100   5.512   0.568   6.637 -0.2869 -0.1620 -0.4062
10295SOL    HW132101   5.505   0.619   6.717 -1.0643 -0.0300 -0.5524
10295SOL    HW232102   5.469   0.622   6.570 -1.3084 -1.0807 -0.5224
10296SOL     OW32103   4.238   1.163   6.484  0.2561  0.1117 -0.8935
10296SOL    HW132104   4.327   1.152   6.518 -0.5715 -2.0139  0.8332
10296SOL    HW232105   4.250   1.197   6.396  2.7607  0.2849 -0.5658
10297SOL     OW32106   4.730   0.137   6.501  0.0269 -0.4879 -0.3798
10297SOL    HW132107   4.767   0.096   6.579  0.4101 -0.6291 -0.6327
10297SOL    HW232108   4.780   0.218   6.490 -2.2654  1.3584  1.4926
10298SOL     OW32109   4.413   0.591   6.860 -0.0997  0.2568 -0.5184
10298SOL    HW132110   4.500   0.562   6.831  0.2822  0.7751  0.0759
10298SOL    HW232111   4.393   0.666   6.804  0.1225  0.5322 -0.2345
10299SOL     OW32112   5.355   0.925   5.598 -0.2277  0.6229 -0.2023
10299SOL    HW132113   5.412   0.999   5.578 -0.3255  0.9403  0.6497
10299SOL    HW232114   5.341   0.931   5.693 -1.9736  0.7610 -0.4449
10300SOL     OW32115   4.179   0.125   5.977 -0.1808  0.4751  0.1063
10300SOL    HW132116   4.186   0.045   5.925  0.0600  0.2597  0.4665
10300SOL    HW232117   4.267   0.139   6.012 -0.8000 -0.6030  2.2375
10301SOL     OW32118   4.819   0.661   5.671  0.2253 -0.0311 -0.3858
10301SOL    HW132119   4.873   0.699   5.601 -1.5849  0.8782 -1.3571
10301SOL    HW232120   4.771   0.590   5.627  0.0974 -0.3683  0.2862
10302SOL     OW32121   5.001   0.234   6.840  0.5031 -0.0248 -0.0873
10302SOL    HW132122   5.060   0.210   6.912 -0.3262 -2.6958 -0.2009
10302SOL    HW232123   4.978   0.325   6.858  3.8965  0.8709  0.4627
10303SOL     OW32124   5.144   1.528   6.283  0.5234  0.4656  0.3675
10303SOL    HW132125   5.225   1.487   6.314  1.1394  1.0479 -0.4247
10303SOL    HW232126   5.156   1.536   6.189 -0.4228  0.6684  0.2502
10304SOL     OW32127   4.270   1.219   6.226 -0.5536 -0.8259  0.3188
10304SOL    HW132128   4.317   1.135   6.220  1.5808  0.2363  1.1998
10304SOL    HW232129   4.289   1.263   6.143  1.3105  0.1785  1.2044
10305SOL     OW32130   4.766   1.994   6.526 -0.4903  0.1093  0.6200
10305SOL    HW132131   4.839   2.047   6.557  0.4312 -1.3317  0.9821
10305SOL    HW232132   4.736   1.947   6.604 -0.9392 -0.3132  0.1961
10306SOL     OW32133   5.009   0.206   5.520 -0.1457  0.0901 -0.6711
10306SOL    HW132134   5.088   0.155   5.538 -0.6569 -0.4160  0.2201
10306SOL    HW232135   5.020   0.286   5.571 -0.1244  0.1060 -0.7004
10307SOL     OW32136   4.542   0.812   7.130 -0.2981  0.7458  0.0403
10307SOL    HW132137   4.460   0.794   7.177 -0.0863  0.1487  0.1958
10307SOL    HW232138   4.583   0.883   7.180 -0.3775  0.5483  0.3934
10308SOL     OW32139   4.108   8.748   6.862  0.4133 -0.4132  1.0101
10308SOL    HW132140   4.096   8.728   6.770  1.9950 -0.9936  0.8931
10308SOL    HW232141   4.025   8.725   6.903 -0.1780 -0.5202 -0.2007
10309SOL     OW32142   5.021   0.013   6.160  0.2282 -0.0118 -0.1600
10309SOL    HW132143   5.038   0.005   6.254 -2.5599 -0.7025  0.3909
10309SOL    HW232144   4.997   0.105   6.148 -0.0302 -0.0624 -0.0481
10310SOL     OW32145   4.384   8.762   6.371  0.2053 -0.1184  0.7158
10310SOL    HW132146   4.314   8.814   6.331  0.8437  0.4000  0.2474
10310SOL    HW232147   4.463   8.785   6.321  0.4812 -1.6454  0.4079
10311SOL     OW32148   5.003   1.094   6.387 -0.1675 -0.3227  0.1857
10311SOL    HW132149   5.056   1.029   6.434 -0.0011 -0.1147  0.2889
10311SOL    HW232150   5.059   1.122   6.314 -0.2483 -0.3132  0.1271
10312SOL     OW32151   5.242   8.774   6.597 -0.0876  0.5651  0.0564
10312SOL    HW132152   5.279   8.833   6.663  0.3972 -0.3698  0.6417
10312SOL    HW232153   5.297   8.788   6.520 -0.0082  0.9160  0.1740
10313SOL     OW32154   5.564   0.743   5.887 -0.3815 -0.5772 -0.3775
10313SOL    HW132155   5.618   0.680   5.935  0.2745 -0.0634 -0.4340
10313SOL    HW232156   5.627   0.799   5.842 -0.9618  0.3003 -0.1074
10314SOL     OW32157   4.171   1.633   5.622  0.0840  0.3565  0.0102
10314SOL    HW132158   4.217   1.663   5.544  2.2661 -0.1399  1.0440
10314SOL    HW232159   4.099   1.695   5.633  0.5311  1.2055 -1.6316
10315SOL     OW32160   5.403   1.194   6.285  0.2690 -0.1740 -0.0211
10315SOL    HW132161   5.363   1.215   6.201  1.6216  0.7444 -0.4717
10315SOL    HW232162   5.386   1.272   6.339  0.5950 -0.1836  0.0967
10316SOL     OW32163   4.811   8.589   5.510  0.1707 -0.1181 -0.1996
10316SOL    HW132164   4.883   8.532   5.483  2.2531  2.4024 -0.3396
10316SOL    HW232165   4.841   8.677   5.489 -2.0019  1.2453  1.9075
10317SOL     OW32166   4.384   0.396   5.969 -0.5392 -0.3062  0.1352
10317SOL    HW132167   4.434   0.418   5.890 -2.1034  2.1587 -0.2591
10317SOL    HW232168   4.430   0.320   6.005  2.2755  0.5746 -1.2639
10318SOL     OW32169   5.501   1.051   7.605 -0.0477  0.4230 -0.2531
10318SOL    HW132170   5.597   1.056   7.598  0.0325 -0.5660 -0.1006
10318SOL    HW232171   5.469   1.119   7.547  0.7582  1.8691  0.9165
10319SOL     OW32172   4.782   1.057   6.554  0.2815 -0.0499  0.0148
10319SOL    HW132173   4.747   0.976   6.589  0.9332  0.8021  2.9079
10319SOL    HW232174   4.855   1.030   6.498 -1.0191 -1.5161 -1.0267
10320SOL     OW32175   5.542   1.872   6.894 -0.0989  0.2595  0.7221
10320SOL    HW132176   5.457   1.835   6.915 -0.3072 -0.0720 -0.6013
10320SOL    HW232177   5.591   1.799   6.856  0.1852  0.8427 -0.0562
10321SOL     OW32178   5.326   1.549   6.694 -0.0679 -0.0584  0.0546
10321SOL    HW132179   5.242   1.589   6.672  0.2382  0.6602  0.1913
10321SOL    HW232180   5.335   1.562   6.788  0.0581 -0.4135  0.0936
10322SOL     OW32181   5.711   0.595   6.318 -0.4079 -0.1233  0.4990
10322SOL    HW132182   5.729   0.690   6.320 -1.1921  0.0303  0.5318
10322SOL    HW232183   5.619   0.588   6.345  0.0658 -1.0202  1.9457
10323SOL     OW32184   4.441   0.206   6.861  0.1863  1.0770  0.3845
10323SOL    HW132185   4.429   0.157   6.780  0.8884  0.3603  0.6904
10323SOL    HW232186   4.509   0.270   6.840  1.7201 -0.2991  0.8466
10324SOL     OW32187   5.244   1.213   7.191 -0.3284 -0.0472  0.2666
10324SOL    HW132188   5.296   1.199   7.113  0.9461  0.4124  1.0060
10324SOL    HW232189   5.160   1.246   7.159 -0.1024 -0.5910 -0.9266
10325SOL     OW32190   4.972   1.239   5.922  0.1713 -0.1544  0.2429
10325SOL    HW132191   4.997   1.208   5.835  0.4003 -0.0467  0.2696
10325SOL    HW232192   4.928   1.165   5.962  2.3151 -1.1118  0.9929
10326SOL     OW32193   4.625   1.010   7.294  0.0691  0.0952 -0.0297
10326SOL    HW132194   4.634   1.070   7.220  1.9760 -0.9136 -0.6758
10326SOL    HW232195   4.621   1.067   7.371  0.1133  1.0958 -0.7476
10327SOL     OW32196   5.327   0.461   6.800 -0.4308  0.3355 -0.5314
10327SOL    HW132197   5.347   0.459   6.707  0.9623  0.9326 -0.2626
10327SOL    HW232198   5.363   0.379   6.835 -1.5311 -0.2008 -0.6062
10328SOL     OW32199   4.187   1.421   7.142  0.2947  0.0309  0.0665
10328SOL    HW132200   4.149   1.336   7.119  0.0594 -0.0847  0.8516
10328SOL    HW232201   4.231   1.450   7.062 -0.1672 -0.5323 -0.4019
10329SOL     OW32202   4.274   1.313   5.952 -0.2475 -0.3256 -0.0913
10329SOL    HW132203   4.223   1.327   5.873 -0.0012 -0.5922 -0.2977
10329SOL    HW232204   4.363   1.338   5.929 -0.2934  0.2294  0.2964
10330SOL     OW32205   4.539   0.616   6.231 -0.3603 -0.7086 -0.1118
10330SOL    HW132206   4.478   0.617   6.305  0.8231  0.3268  0.8814
10330SOL    HW232207   4.574   0.527   6.230 -0.2651 -0.6830  0.6648
10331SOL     OW32208   5.106   1.490   6.003  0.3342  0.2845  0.5699
10331SOL    HW132209   5.047   1.527   5.937  0.2794  0.2303  0.5888
10331SOL    HW232210   5.073   1.401   6.018  1.0298 -0.1166 -0.1725
10332SOL     OW32211   5.040   1.682   6.778 -0.3732 -0.5073 -0.1481
10332SOL    HW132212   5.049   1.725   6.693  0.8151 -2.3626 -1.0457
10332SOL    HW232213   4.969   1.618   6.765  0.0486 -1.0428  0.1135
10333SOL     OW32214   4.998   0.281   6.023  0.0090 -0.1289 -0.5288
10333SOL    HW132215   4.980   0.360   6.074 -0.1308 -1.2939  1.3325
10333SOL    HW232216   4.913   0.253   5.991 -0.0649 -0.0316 -0.4178
10334SOL     OW32217   4.539   1.428   7.009 -0.2437 -0.0098  0.4555
10334SOL    HW132218   4.548   1.482   7.087 -0.2140  0.1220  0.3624
10334SOL    HW232219   4.447   1.440   6.982 -0.2054  0.0922  0.3662
10335SOL     OW32220   4.616   0.511   7.286 -0.2867  0.3680 -0.5147
10335SOL    HW132221   4.665   0.456   7.225 -0.4239  0.0256 -0.3245
10335SOL    HW232222   4.623   0.599   7.251 -1.6991 -0.0198 -1.9062
10336SOL     OW32223   5.703   0.467   7.444  0.6998 -0.0306  0.2938
10336SOL    HW132224   5.729   0.465   7.537  0.0123 -0.8569  0.4783
10336SOL    HW232225   5.623   0.520   7.443  0.7519  0.0446  0.1620
10337SOL     OW32226   4.787   0.017   7.493 -0.0777  0.5855  0.3845
10337SOL    HW132227   4.847  -0.008   7.564  0.6269 -1.1123 -0.7588
10337SOL    HW232228   4.805   0.110   7.479  1.1918  0.4732  1.0925
10338SOL     OW32229   4.389   0.061   7.177  0.4456  0.0024  0.2419
10338SOL    HW132230   4.366   0.019   7.260  0.5305  1.5151  1.0624
10338SOL    HW232231   4.482   0.082   7.185  1.8767 -4.0892 -2.1908
10339SOL     OW32232   4.801   0.562   6.319 -0.3338  0.2141 -0.2363
10339SOL    HW132233   4.850   0.641   6.340 -2.3790  2.1592 -2.2305
10339SOL    HW232234   4.820   0.546   6.226  0.0408 -1.6613  0.1338
10340SOL     OW32235   5.069   0.704   6.564 -0.1305 -0.0793 -0.0253
10340SOL    HW132236   5.064   0.747   6.649  1.7373  0.5813 -0.1955
10340SOL    HW232237   5.112   0.620   6.581  0.5475  0.1915 -0.3277
10341SOL     OW32238   5.081   0.431   5.641 -0.1515  0.3616  0.3297
10341SOL    HW132239   5.173   0.407   5.631 -0.3970 -1.1221  1.4171
10341SOL    HW232240   5.073   0.464   5.730 -0.5418  1.1707  0.0083
10342SOL     OW32241   3.729   8.774   7.104 -0.5016  0.3532  0.0451
10342SOL    HW132242   3.722   8.860   7.063  1.8876  1.5554  1.9429
10342SOL    HW232243   3.767   8.719   7.036  0.3572  1.4624 -0.3970
10343SOL     OW32244   4.115   1.160   7.144  0.3546  0.2011  0.2720
10343SOL    HW132245   4.172   1.107   7.199  1.8023  1.1374 -0.2664
10343SOL    HW232246   4.026   1.131   7.166  0.8577  0.4920  3.0384
10344SOL     OW32247   4.626   0.376   6.797 -0.0918  0.0537  0.1696
10344SOL    HW132248   4.697   0.316   6.822 -0.5974 -0.9490 -0.7331
10344SOL    HW232249   4.648   0.404   6.708 -0.3420  0.4963  0.2434
10345SOL     OW32250   5.553   0.780   7.565 -0.5481  0.5003 -0.5200
10345SOL    HW132251   5.515   0.857   7.607 -0.0564  0.0104  0.8799
10345SOL    HW232252   5.637   0.768   7.609  0.2702  0.2913 -2.0686
10346SOL     OW32253   4.037   0.467   6.387 -1.4602 -0.2452  0.7970
10346SOL    HW132254   4.096   0.500   6.320 -0.5331  0.7317  2.0550
10346SOL    HW232255   4.025   0.374   6.364 -0.4018 -0.1694 -0.1595
10347SOL     OW32256   5.193   8.583   5.710  1.0872  0.4093  0.0369
10347SOL    HW132257   5.178   8.657   5.770  1.9155  2.0604 -1.7004
10347SOL    HW232258   5.277   8.547   5.739 -0.2900 -1.3272  2.2477
10348SOL     OW32259   5.112   0.387   6.587 -0.0633 -0.2621 -0.5105
10348SOL    HW132260   5.075   0.332   6.655  0.9155  0.3967  0.5974
10348SOL    HW232261   5.193   0.342   6.561 -1.2296 -1.3550 -2.4398
10349SOL     OW32262   4.975   1.705   7.272 -0.1329 -0.0781 -0.0450
10349SOL    HW132263   4.962   1.702   7.367  1.9975 -2.3921  0.2769
10349SOL    HW232264   4.967   1.798   7.250 -2.4273  0.3360  2.0697
10350SOL     OW32265   5.807   1.470   7.173 -0.4414 -0.6370  0.5063
10350SOL    HW132266   5.852   1.501   7.094  0.6732 -1.8194  0.6504
10350SOL    HW232267   5.716   1.455   7.145  0.2073 -2.2589 -0.9206
10351SOL     OW32268   4.074   0.520   7.914  0.2278  0.0312  0.3829
10351SOL    HW132269   4.086   0.436   7.958  0.2575  0.0663  0.4423
10351SOL    HW232270   4.025   0.574   7.977 -2.5535 -0.9198 -0.8109
10352SOL     OW32271   5.085   8.491   5.468 -0.2104  0.1068  0.7020
10352SOL    HW132272   5.100   8.397   5.452 -0.1475  0.1533  0.4794
10352SOL    HW232273   5.144   8.513   5.540 -0.8113 -0.2073  1.3082
10353SOL     OW32274   5.370   0.356   5.579  0.1339 -0.1656 -0.1776
10353SOL    HW132275   5.438   0.360   5.513  0.2061  2.6107 -0.0633
10353SOL    HW232276   5.370   0.443   5.619 -1.5235 -0.9924  1.8355
10354SOL     OW32277   4.876   1.336   6.406 -0.0237 -0.0380  0.1026
10354SOL    HW132278   4.925   1.256   6.391  0.1741 -0.1439  1.2118
10354SOL    HW232279   4.785   1.308   6.413  0.1584 -0.3247  1.5393
10355SOL     OW32280   4.336   0.783   6.686  0.0564 -0.1454  0.7066
10355SOL    HW132281   4.247   0.820   6.689 -0.0164 -0.3973  1.8466
10355SOL    HW232282   4.363   0.796   6.595 -1.8341 -1.7036 -0.1530
10356SOL     OW32283   4.408   0.222   6.370  0.5723  0.5243 -0.3766
10356SOL    HW132284   4.421   0.314   6.395  2.5944  0.1521  0.1694
10356SOL    HW232285   4.428   0.173   6.449 -0.0173 -0.4073 -0.7945
10357SOL     OW32286   5.054   0.712   7.674 -0.3628  0.7704 -0.6549
10357SOL    HW132287   5.101   0.796   7.674 -0.0416  0.6035  0.1493
10357SOL    HW232288   5.088   0.666   7.598  0.1848  0.9880 -0.5530
10358SOL     OW32289   4.322   0.414   7.333 -0.8888  0.4486 -0.1526
10358SOL    HW132290   4.245   0.390   7.282 -1.0360  0.9569 -0.1718
10358SOL    HW232291   4.386   0.444   7.269 -0.7133  0.1361 -0.1263
10359SOL     OW32292   4.009   1.137   6.191  0.2509 -0.0602  0.2407
10359SOL    HW132293   4.102   1.118   6.178  0.2062 -0.4810  0.5181
10359SOL    HW232294   3.967   1.110   6.109  0.7101  2.7254 -1.0355
10360SOL     OW32295   3.795   1.901   6.397 -0.1291 -0.3513  0.1384
10360SOL    HW132296   3.709   1.869   6.422 -0.3265  1.7808  2.6192
10360SOL    HW232297   3.856   1.858   6.456  0.3970 -0.9556 -0.8163
10361SOL     OW32298   4.516   1.537   6.445 -0.1080 -0.0943 -0.8250
10361SOL    HW132299   4.520   1.498   6.358  0.3035  0.7140 -1.1787
10361SOL    HW232300   4.595   1.589   6.452  0.0805 -0.4913  0.2130
10362SOL     OW32301   5.022   0.026   6.443  0.3012 -0.0037  0.0849
10362SOL    HW132302   4.951   0.084   6.472 -0.2900  0.2681 -1.7557
10362SOL    HW232303   5.078   0.015   6.520 -1.8730 -0.4522  1.7124
10363SOL     OW32304   4.250   0.888   7.251  0.1317 -0.4901  0.9559
10363SOL    HW132305   4.205   0.829   7.192  0.0897 -0.1974  0.6937
10363SOL    HW232306   4.249   0.843   7.336  0.4443 -1.0344  0.6714
10364SOL     OW32307   3.748   0.152   6.954  0.1686  0.4332 -0.2724
10364SOL    HW132308   3.744   0.187   6.865 -1.3481 -0.1522 -0.4684
10364SOL    HW232309   3.773   0.227   7.008 -1.7624  1.5505 -0.8467
10365SOL     OW32310   5.154   0.703   7.268 -0.0077 -0.1790  0.1796
10365SOL    HW132311   5.224   0.699   7.203 -0.9925 -1.3508 -0.8536
10365SOL    HW232312   5.139   0.796   7.282 -0.0133  0.1069 -1.5518
10366SOL     OW32313   4.898   0.983   6.000  0.0439  0.3274 -0.9794
10366SOL    HW132314   4.978   0.947   6.038 -1.0346 -0.1992  0.9415
10366SOL    HW232315   4.852   0.908   5.964 -0.2386  0.3959 -0.7716
10367SOL     OW32316   5.585   0.323   6.559  0.2678  0.0369  0.0024
10367SOL    HW132317   5.583   0.417   6.579  0.8415  0.4865 -1.8541
10367SOL    HW232318   5.678   0.299   6.567  0.2361 -0.1817 -0.2729
10368SOL     OW32319   4.007   1.653   7.779 -0.8201 -0.6509  0.2818
10368SOL    HW132320   4.079   1.715   7.770  0.4541 -2.2358 -1.2770
10368SOL    HW232321   3.958   1.683   7.855  0.7255  1.2335  0.6077
10369SOL     OW32322   4.779   0.682   7.054  0.0238  0.4528  0.7616
10369SOL    HW132323   4.685   0.690   7.067 -0.0285  0.1886  0.5553
10369SOL    HW232324   4.807   0.767   7.021 -0.3978  0.0497 -0.6888
10370SOL     OW32325   4.727   1.674   6.926  0.1360  0.4460 -0.3806
10370SOL    HW132326   4.640   1.659   6.888  0.4791  0.6899 -1.2926
10370SOL    HW232327   4.759   1.752   6.881  1.2279 -0.2147 -0.7767
10371SOL     OW32328   4.716   0.928   5.420 -0.3954  0.1923  0.1137
10371SOL    HW132329   4.729   0.847   5.372 -1.6449 -0.3962  0.7292
10371SOL    HW232330   4.773   0.992   5.377 -1.6307 -0.2373 -2.2702
10372SOL     OW32331   4.301   1.179   6.771  0.2879  0.1382  0.3152
10372SOL    HW132332   4.367   1.244   6.744 -0.3662  1.3802  1.5670
10372SOL    HW232333   4.252   1.162   6.691 -0.9465  2.9358  0.3509
10373SOL     OW32334   5.449   1.242   6.619 -0.5041  0.3722  0.3351
10373SOL    HW132335   5.541   1.270   6.614 -0.6205  0.9541  1.1370
10373SOL    HW232336   5.454   1.152   6.650 -0.1262 -0.5342 -2.1629
10374SOL     OW32337   5.115   0.735   5.840 -0.1445  0.6408  0.1406
10374SOL    HW132338   5.155   0.651   5.865  0.0439  1.4761  3.0375
10374SOL    HW232339   5.189   0.796   5.837 -0.4434  0.9697 -0.6999
10375SOL     OW32340   5.538   2.012   6.558 -0.0251 -0.3059 -0.5145
10375SOL    HW132341   5.512   2.094   6.599  1.7471  0.0074  0.1049
10375SOL    HW232342   5.620   1.988   6.602 -0.7120 -2.6607 -0.3558
10376SOL     OW32343   5.205   1.594   7.202 -0.0154 -0.1905 -0.2374
10376SOL    HW132344   5.121   1.637   7.220  1.8352  3.1459  1.2680
10376SOL    HW232345   5.236   1.567   7.289  1.3654  0.5155 -0.4891
10377SOL     OW32346   4.048   0.959   6.460  0.1366  0.3739  0.1568
10377SOL    HW132347   4.105   1.036   6.464  0.2066  0.5122 -2.4084
10377SOL    HW232348   4.060   0.924   6.372  0.8677 -3.2200  1.5126
10378SOL     OW32349   4.349   1.805   7.461 -0.1401 -0.1439 -0.5337
10378SOL    HW132350   4.269   1.822   7.411  0.0482 -0.0673 -0.8124
10378SOL    HW232351   4.420   1.820   7.399  0.0566 -1.7692 -0.7379
10379SOL     OW32352   5.630   0.112   5.859 -0.2006 -0.4910  0.1322
10379SOL    HW132353   5.556   0.078   5.910  0.3678 -2.2568 -0.1784
10379SOL    HW232354   5.707   0.075   5.901  0.3688 -0.6759 -1.0483
10380SOL     OW32355   5.354   1.422   6.420 -0.4144 -0.1662  0.1481
10380SOL    HW132356   5.359   1.396   6.512 -1.7286 -0.5562  0.1307
10380SOL    HW232357   5.423   1.488   6.411  1.0884 -1.5430  0.8937
10381SOL     OW32358   3.808   1.925   7.533 -0.2399  0.5605  0.3348
10381SOL    HW132359   3.891   1.920   7.580 -1.5764 -0.3729  2.7777
10381SOL    HW232360   3.814   1.856   7.467  1.1394  0.9289  0.0412
10382SOL     OW32361   5.093   0.801   6.123  0.5697 -0.0653 -0.1830
10382SOL    HW132362   5.114   0.772   6.034 -0.5908 -1.8751  0.0811
10382SOL    HW232363   5.164   0.861   6.146  0.6298  0.8793 -2.5051
10383SOL     OW32364   5.178   1.311   6.748 -0.4616  0.3576  0.2032
10383SOL    HW132365   5.219   1.388   6.709 -0.6616  0.8302  0.9051
10383SOL    HW232366   5.105   1.346   6.799 -1.9675 -0.4796 -1.2701
10384SOL     OW32367   4.910   1.959   5.488 -1.0353  0.3539  0.2602
10384SOL    HW132368   4.928   1.891   5.554 -1.0512  1.3994  1.3870
10384SOL    HW232369   4.825   1.995   5.514 -2.3119 -0.9049 -1.8635
10385SOL     OW32370   5.175   2.177   6.959  0.1632 -0.0668  0.1459
10385SOL    HW132371   5.199   2.183   6.867 -1.1261  1.3965 -0.1360
10385SOL    HW232372   5.197   2.087   6.984  1.9860 -0.0255 -1.1374
10386SOL     OW32373   5.646   0.206   6.177  0.0729  0.2102 -0.3000
10386SOL    HW132374   5.625   0.117   6.150  0.5433  0.4027 -1.3384
10386SOL    HW232375   5.711   0.195   6.247 -0.6070 -0.2727  0.2727
10387SOL     OW32376   4.484   0.052   6.600  0.4140 -0.2163 -0.0165
10387SOL    HW132377   4.477  -0.022   6.660 -0.2261  0.5567  0.8944
10387SOL    HW232378   4.578   0.060   6.582  0.5900 -0.6029  0.6976
10388SOL     OW32379   5.281   1.328   5.732  0.0574 -0.0127 -0.0952
10388SOL    HW132380   5.244   1.392   5.793 -0.9657 -1.0192  0.3743
10388SOL    HW232381   5.210   1.267   5.716  1.6911 -2.4398  1.3488
10389SOL     OW32382   5.195   0.633   6.946 -0.0801  0.0035 -0.3423
10389SOL    HW132383   5.245   0.582   6.882 -0.2155  1.7763 -1.9659
10389SOL    HW232384   5.259   0.655   7.014  0.7714  0.2314 -1.1851
10390SOL     OW32385   5.027   0.919   5.649  0.1055 -0.8036 -0.1133
10390SOL    HW132386   5.069   0.910   5.563  0.7971  1.4419 -0.0794
10390SOL    HW232387   5.020   0.830   5.681 -0.4645 -1.7539 -2.6169
10391SOL     OW32388   5.277   1.789   5.504  0.0590  0.5446  0.1309
10391SOL    HW132389   5.212   1.740   5.554 -1.4489  1.2221 -1.0573
10391SOL    HW232390   5.301   1.730   5.432  1.8658 -0.2451  1.3162
10392SOL     OW32391   4.238   1.456   7.404  0.1442 -0.4427  0.1160
10392SOL    HW132392   4.229   1.458   7.309 -0.8402  1.8659  0.1888
10392SOL    HW232393   4.193   1.376   7.431  0.2606 -1.0244 -1.3250
10393SOL     OW32394   5.610   1.267   6.868  0.1163 -0.1162  0.4451
10393SOL    HW132395   5.693   1.250   6.911  0.0134 -0.6407  0.4417
10393SOL    HW232396   5.633   1.312   6.787  0.4908 -1.4034 -0.1718
10394SOL     OW32397   4.936   0.783   6.354 -0.1620 -0.4465  0.2187
10394SOL    HW132398   5.003   0.764   6.420  1.3619  1.8610 -0.5137
10394SOL    HW232399   4.985   0.794   6.272 -1.7792 -1.2852 -0.9377
10395SOL     OW32400   5.098   8.566   6.706 -0.2530  0.0716 -0.1338
10395SOL    HW132401   5.150   8.510   6.648  1.7216 -0.3668  1.9187
10395SOL    HW232402   5.097   8.651   6.662  0.3817 -0.4726 -1.2559
10396SOL     OW32403   4.545   1.373   6.223 -0.5251 -0.9191  0.3242
10396SOL    HW132404   4.610   1.350   6.156  1.3466  1.3520  1.2207
10396SOL    HW232405   4.534   1.294   6.275  0.5822 -1.7019 -0.5952
10397SOL     OW32406   5.407   0.683   7.111 -0.0134 -0.1380  0.7822
10397SOL    HW132407   5.429   0.776   7.118 -1.8536  0.3283  0.9899
10397SOL    HW232408   5.483   0.643   7.068  0.1536  1.7548 -0.8457
10398SOL     OW32409   4.015   1.450   5.383 -0.2862 -0.3650  0.4977
10398SOL    HW132410   3.970   1.388   5.440  0.0386 -0.9731  0.1132
10398SOL    HW232411   3.946   1.508   5.351 -0.6638 -0.7745  0.5587
10399SOL     OW32412   3.822   0.784   7.634 -0.5501  0.2178 -0.7814
10399SOL    HW132413   3.769   0.707   7.614  0.7119 -0.6438 -0.9128
10399SOL    HW232414   3.763   0.858   7.618 -1.3396 -0.6569 -2.1236
10400SOL     OW32415   3.675   0.446   5.869 -0.0991  0.4077  0.6627
10400SOL    HW132416   3.582   0.470   5.862 -0.5220 -1.5877 -1.6218
10400SOL    HW232417   3.718   0.495   5.799 -0.0414 -1.2181 -0.4716
10401SOL     OW32418   5.374   0.967   6.444  0.3775 -0.5504  0.0663
10401SOL    HW132419   5.393   1.056   6.412  2.5588 -0.8402  0.3649
10401SOL    HW232420   5.312   0.980   6.515 -1.6243  0.4425 -1.7569
10402SOL     OW32421   4.159   0.040   5.611 -0.2032  0.4999 -0.2188
10402SOL    HW132422   4.173   0.127   5.648  0.3507  0.4300 -0.2518
10402SOL    HW232423   4.203  -0.020   5.672  0.5575  0.3698 -0.8733
10403SOL     OW32424   5.087   1.181   5.663 -0.6635 -0.0543  0.3994
10403SOL    HW132425   5.074   1.240   5.589 -0.5003  0.8220  1.0483
10403SOL    HW232426   5.061   1.095   5.631  0.4885  0.0905 -1.0244
10404SOL     OW32427   4.938   0.483   6.944  0.2114  0.2383 -0.5082
10404SOL    HW132428   5.031   0.497   6.961  0.3910  1.1048 -1.9669
10404SOL    HW232429   4.898   0.570   6.955 -0.8358 -0.5028  2.1758
10405SOL     OW32430   5.118   1.787   6.528 -0.4759  0.0532 -0.4555
10405SOL    HW132431   5.075   1.737   6.459 -0.8582  0.9457 -0.8696
10405SOL    HW232432   5.211   1.786   6.505 -0.2558 -1.6857  0.3212
10406SOL     OW32433   4.367   0.335   7.889  0.1498 -0.3096  0.0546
10406SOL    HW132434   4.418   0.294   7.820  2.7339 -0.5416  1.9560
10406SOL    HW232435   4.315   0.264   7.927 -0.2785 -0.4390 -0.7490
10407SOL     OW32436   5.198   0.955   7.672  0.2996  0.3863 -0.3934
10407SOL    HW132437   5.289   0.966   7.702  0.2249  2.0681 -0.6903
10407SOL    HW232438   5.147   0.945   7.752  0.9765 -3.5153 -0.2342
10408SOL     OW32439   4.097   1.884   7.394 -0.5545 -0.0527  0.4444
10408SOL    HW132440   4.063   1.967   7.428  0.3574  1.0219 -1.1622
10408SOL    HW232441   4.019   1.828   7.385 -1.1799  0.6018  1.5351
10409SOL     OW32442   5.180   1.025   6.632 -0.0281  0.1259  0.1233
10409SOL    HW132443   5.119   0.986   6.695 -0.1147  0.0922  0.0177
10409SOL    HW232444   5.201   1.111   6.670  0.2610 -0.0723  0.4172
10410SOL     OW32445   4.913   0.333   6.405 -0.0131 -0.4119  0.5460
10410SOL    HW132446   4.857   0.404   6.374  2.6091  0.9963 -1.3494
10410SOL    HW232447   4.980   0.376   6.458 -0.0704 -1.9015  1.8975
10411SOL     OW32448   4.666   0.823   6.380  0.8297  0.5365 -0.4859
10411SOL    HW132449   4.657   0.765   6.304 -1.5844 -2.5908  1.8809
10411SOL    HW232450   4.760   0.835   6.390  1.6494 -3.8447 -0.7450
10412SOL     OW32451   5.631   0.248   7.264 -0.2134 -0.2351 -0.1805
10412SOL    HW132452   5.597   0.296   7.189  1.3860  0.3329 -0.5723
10412SOL    HW232453   5.618   0.307   7.338 -1.0712 -0.4751 -0.1330
10413SOL     OW32454   5.509   1.002   7.313 -0.1456  0.0356 -0.1305
10413SOL    HW132455   5.478   1.091   7.298 -1.0958 -0.0342  1.2493
10413SOL    HW232456   5.440   0.960   7.364  0.0084 -1.6967 -1.2388
10414SOL     OW32457   4.447   1.368   5.744  0.2967  0.6529 -0.0785
10414SOL    HW132458   4.449   1.464   5.748  1.2811  0.6352  0.0335
10414SOL    HW232459   4.366   1.348   5.696 -0.2008  1.5178  0.3689
10415SOL     OW32460   4.025   1.412   6.258 -0.6404  0.3659 -0.1587
10415SOL    HW132461   4.058   1.329   6.224 -1.6604  0.3517 -1.1951
10415SOL    HW232462   4.020   1.399   6.352 -0.8785 -0.7868 -0.3115
10416SOL     OW32463   4.745   0.756   5.928  0.7582  0.0683 -0.1487
10416SOL    HW132464   4.747   0.719   5.839 -1.2529 -0.5008  0.0028
10416SOL    HW232465   4.682   0.828   5.922  0.7581  0.1491  0.7921
10417SOL     OW32466   4.784   1.075   5.696 -0.3888  0.0219  0.2878
10417SOL    HW132467   4.779   1.051   5.603  1.4252  0.7435 -0.0452
10417SOL    HW232468   4.872   1.048   5.722 -0.7869  0.0756  1.7353
10418SOL     OW32469   5.710   1.324   6.615 -0.6866  0.0866  0.9837
10418SOL    HW132470   5.746   1.404   6.576 -0.2505  0.0325  1.2702
10418SOL    HW232471   5.735   1.254   6.555 -1.5403  0.2239  0.4426
10419SOL     OW32472   4.041   0.918   7.762  0.0708 -0.0086 -0.0872
10419SOL    HW132473   3.986   0.865   7.705  0.0618  0.9345 -0.9892
10419SOL    HW232474   3.983   0.944   7.834 -0.3950  0.1717 -0.5201
10420SOL     OW32475   3.988   1.268   6.534  0.1807 -0.5208  0.1269
10420SOL    HW132476   4.068   1.241   6.489 -0.1506 -0.2907 -0.6105
10420SOL    HW232477   3.923   1.203   6.509  0.0658 -0.5595  0.5195
10421SOL     OW32478   4.685   1.170   7.061  0.2264 -0.0514  0.0574
10421SOL    HW132479   4.724   1.154   6.975 -0.4911 -1.4870 -0.0441
10421SOL    HW232480   4.624   1.242   7.048 -0.4071 -0.7293 -0.8304
10422SOL     OW32481   5.770   0.283   6.876 -0.0625 -0.6430 -0.3903
10422SOL    HW132482   5.853   0.303   6.919  0.9470  0.0344 -2.5087
10422SOL    HW232483   5.738   0.204   6.920  0.4327  0.4324  2.1084
10423SOL     OW32484   4.181   0.549   6.135  0.0032 -0.3065 -0.1677
10423SOL    HW132485   4.244   0.479   6.121 -1.7122 -2.3955  1.8911
10423SOL    HW232486   4.120   0.542   6.061  0.7325  0.1035 -0.8222
10424SOL     OW32487   5.411   2.101   6.816  0.1347  0.1440  0.2479
10424SOL    HW132488   5.441   2.015   6.846  1.5369 -0.0542 -1.5270
10424SOL    HW232489   5.461   2.163   6.870 -1.3431 -0.0789  1.9767
10425SOL     OW32490   4.760   0.774   6.670 -0.0288  0.0621 -0.1966
10425SOL    HW132491   4.695   0.798   6.736 -1.0306 -0.3836 -0.9952
10425SOL    HW232492   4.843   0.768   6.719 -0.0879  2.9200  0.4370
10426SOL     OW32493   4.181   1.653   6.259  0.3007  0.1479  0.1828
10426SOL    HW132494   4.166   1.695   6.175  0.2818  1.1072  0.6512
10426SOL    HW232495   4.128   1.573   6.257 -1.1502  1.0961 -0.0020
10427SOL     OW32496   5.185   0.200   7.077  0.3106 -0.1873  0.4667
10427SOL    HW132497   5.187   0.250   7.158 -0.1580 -0.0758  0.4074
10427SOL    HW232498   5.177   0.109   7.105 -2.2845 -0.0003  0.5141
10428SOL     OW32499   4.682   0.532   6.561  0.5017 -0.4172  0.3773
10428SOL    HW132500   4.702   0.620   6.591 -0.0193 -0.6092  1.3348
10428SOL    HW232501   4.706   0.532   6.469 -0.6620  1.1143  0.0253
10429SOL     OW32502   4.673   1.120   6.182 -0.5432 -0.3711  0.2009
10429SOL    HW132503   4.603   1.107   6.118 -1.6022  0.6130  1.0964
10429SOL    HW232504   4.752   1.094   6.137 -1.4749 -1.4255 -0.8912
10430SOL     OW32505   3.818   1.584   6.553 -0.4224 -0.0149 -0.2239
10430SOL    HW132506   3.777   1.603   6.637 -1.2666  1.1724 -0.8624
10430SOL    HW232507   3.880   1.655   6.540 -0.0282 -0.3949 -0.4447
10431SOL     OW32508   4.777   8.569   5.957 -0.2298 -0.0038  0.0067
10431SOL    HW132509   4.724   8.507   6.006 -1.9800  0.9101 -0.6537
10431SOL    HW232510   4.849   8.591   6.017 -0.3530 -1.5605  0.7727
10432SOL     OW32511   5.416   0.041   5.979 -0.3901 -0.6142  0.1959
10432SOL    HW132512   5.336   0.001   5.942  0.2222 -1.6773 -0.0325
10432SOL    HW232513   5.431  -0.008   6.059  2.0386 -3.0003 -1.5551
10433SOL     OW32514   5.415   0.240   6.907  0.1749 -0.4595  0.2988
10433SOL    HW132515   5.461   0.158   6.885 -0.6202 -0.3258 -2.1287
10433SOL    HW232516   5.345   0.213   6.966 -0.5497 -1.7104 -1.0634
10434SOL     OW32517   3.417   0.862   6.208  0.3862 -0.0465  0.2273
10434SOL    HW132518   3.351   0.922   6.173 -0.5119 -0.2737  1.4588
10434SOL    HW232519   3.418   0.880   6.302  0.5643 -1.5072  0.5195
10435SOL     OW32520   4.682   1.675   5.883 -0.1322  0.4275  1.0270
10435SOL    HW132521   4.592   1.655   5.858  0.6266 -2.3146  0.1377
10435SOL    HW232522   4.678   1.687   5.978 -1.4140  0.3526  1.0025
10436SOL     OW32523   4.140   0.084   7.698  0.3210 -0.4551  0.2731
10436SOL    HW132524   4.160   0.082   7.792 -0.2886  2.2935  0.5433
10436SOL    HW232525   4.045   0.091   7.694  0.2098 -1.9183 -0.6600
10437SOL     OW32526   4.037   0.474   8.542  0.1344 -0.2271 -0.0188
10437SOL    HW132527   4.120   0.468   8.590 -0.3105 -1.6908  0.6020
10437SOL    HW232528   4.011   0.566   8.553  0.0640 -0.4901  2.5583
10438SOL     OW32529   4.523   0.075   8.093  0.5150  0.2080 -0.6509
10438SOL    HW132530   4.464   0.026   8.150  0.0808  0.6264 -0.7366
10438SOL    HW232531   4.564   0.009   8.037  1.5912 -0.3106  0.7123
10439SOL     OW32532   4.590   0.851   8.500  0.2403  0.1589 -0.0782
10439SOL    HW132533   4.621   0.780   8.557 -3.2409 -2.0264 -0.6311
10439SOL    HW232534   4.597   0.816   8.412 -0.7997  0.8363 -0.4415
10440SOL     OW32535   5.531   1.188   8.645  0.7115  0.6078 -0.3218
10440SOL    HW132536   5.497   1.120   8.703  0.5360  0.4407 -0.6200
10440SOL    HW232537   5.566   1.255   8.704  0.3352  0.5408 -0.0223
10441SOL     OW32538   4.926   0.520   8.075  0.4159  0.5480 -0.0876
10441SOL    HW132539   4.888   0.604   8.100  0.5426  0.8675 -0.9387
10441SOL    HW232540   4.910   0.463   8.150 -0.1665  1.1754  0.2726
10442SOL     OW32541   5.486   0.382   7.784 -0.2791  0.1976 -0.1388
10442SOL    HW132542   5.543   0.423   7.849 -1.3157 -1.9848  2.3104
10442SOL    HW232543   5.419   0.448   7.766 -0.2222  0.7199  1.3896
10443SOL     OW32544   4.513   1.237   7.789  0.2356  0.8991  0.1941
10443SOL    HW132545   4.508   1.215   7.882 -1.7719 -0.6557 -0.2384
10443SOL    HW232546   4.586   1.184   7.756 -0.0491  0.2540  0.5799
10444SOL     OW32547   4.775   0.763   8.058  0.1759 -0.0433  0.3754
10444SOL    HW132548   4.689   0.757   8.101  0.2850 -0.3329  0.5580
10444SOL    HW232549   4.816   0.839   8.099  1.0952 -1.4961  2.3062
10445SOL     OW32550   4.818   1.000   8.452  0.2233  0.4171 -0.1006
10445SOL    HW132551   4.729   0.964   8.460 -0.5739  2.1437 -0.6523
10445SOL    HW232552   4.832   1.045   8.535  0.0314  1.2792 -0.5284
10446SOL     OW32553   4.262   0.079   0.296  0.3889 -0.1725 -0.1548
10446SOL    HW132554   4.332   0.037   0.346 -0.1907 -0.6725  0.2566
10446SOL    HW232555   4.304   0.154   0.253  0.9706  0.1011  0.8591
10447SOL     OW32556   5.555   0.309   8.067 -0.5981 -0.3773 -0.1901
10447SOL    HW132557   5.508   0.365   8.129 -0.3133  2.9090 -2.6817
10447SOL    HW232558   5.647   0.317   8.093 -0.6665 -0.8279  0.2254
10448SOL     OW32559   4.243   1.509   7.981 -0.2640 -0.3308 -0.1858
10448SOL    HW132560   4.232   1.600   7.953 -1.6538 -0.8525 -1.5064
10448SOL    HW232561   4.276   1.464   7.903  3.8152 -0.4265  1.3582
10449SOL     OW32562   4.309   1.495   8.280  0.2857  0.1890  0.5373
10449SOL    HW132563   4.320   1.538   8.195  0.3210 -2.1822 -0.7330
10449SOL    HW232564   4.233   1.538   8.319  0.3956  1.4700 -0.5871
10450SOL     OW32565   4.097   1.151   8.142  0.0287  0.2425 -0.0038
10450SOL    HW132566   4.173   1.097   8.122  0.9668  1.6579 -0.4889
10450SOL    HW232567   4.102   1.167   8.236 -1.0757 -1.6350  0.4217
10451SOL     OW32568   4.645   1.825   8.646  0.2651 -0.2392  0.3516
10451SOL    HW132569   4.566   1.864   8.609  0.2765 -0.1960  0.3727
10451SOL    HW232570   4.613   1.758   8.706  0.2562 -0.9898 -0.4746
10452SOL     OW32571   4.812   0.573   7.512 -0.5374 -0.3338  0.0335
10452SOL    HW132572   4.871   0.553   7.440 -0.3399  0.7268 -0.1246
10452SOL    HW232573   4.789   0.666   7.499  0.1314  0.1147  1.7564
10453SOL     OW32574   4.205   0.508   8.193  0.3839 -0.0306 -0.3857
10453SOL    HW132575   4.217   0.597   8.227  0.3355 -0.3020  0.3578
10453SOL    HW232576   4.262   0.504   8.116 -0.7738  1.1475 -1.3550
10454SOL     OW32577   5.707   1.780   7.166  0.0542  0.7266 -0.5241
10454SOL    HW132578   5.780   1.757   7.225 -0.2120  1.0335 -0.0661
10454SOL    HW232579   5.711   1.715   7.096 -1.5707 -1.7111  1.4540
10455SOL     OW32580   3.883   1.477   7.584  0.3856  0.5081 -0.2667
10455SOL    HW132581   3.903   1.564   7.620 -1.0507  0.6820  0.1699
10455SOL    HW232582   3.949   1.419   7.623  0.1200  1.0578  1.0451
10456SOL     OW32583   5.472   0.653   7.949 -0.3869  0.1567  0.0016
10456SOL    HW132584   5.489   0.732   7.897 -1.0934  0.1792 -0.1993
10456SOL    HW232585   5.381   0.630   7.929  0.4241 -1.9277 -1.5951
10457SOL     OW32586   5.441   0.886   7.801  0.0636  0.1489  0.5467
10457SOL    HW132587   5.400   0.922   7.880  0.4502  2.2896 -0.1437
10457SOL    HW232588   5.488   0.961   7.763  1.2487 -1.2280 -0.8378
10458SOL     OW32589   4.264   1.045   7.674  0.0302  0.1292  0.4252
10458SOL    HW132590   4.302   1.089   7.750 -1.2574 -0.4128  1.4151
10458SOL    HW232591   4.180   1.012   7.705 -0.4464 -0.2560 -1.1997
10459SOL     OW32592   4.832   8.532   8.314 -0.9346 -0.2475  0.8736
10459SOL    HW132593   4.843   8.444   8.279 -1.2400 -1.0648  2.7122
10459SOL    HW232594   4.762   8.524   8.379 -0.4379  1.1727  1.6387
10460SOL     OW32595   4.501   0.617   0.035 -0.0251  0.1470 -0.1370
10460SOL    HW132596   4.531   0.693  -0.015 -0.5471  0.1932 -0.3799
10460SOL    HW232597   4.445   0.655   0.103  0.0028  0.0095 -0.0377
10461SOL     OW32598   5.103   1.241   7.686  0.9469  0.1472  0.0478
10461SOL    HW132599   5.103   1.148   7.661  0.4347 -0.2257  1.3701
10461SOL    HW232600   5.058   1.285   7.614  0.5178 -0.7395 -0.2381
10462SOL     OW32601   5.536   1.099   8.399  0.1825  0.3319 -0.1694
10462SOL    HW132602   5.629   1.078   8.393 -0.1937 -1.6413 -0.0127
10462SOL    HW232603   5.524   1.127   8.490  0.4393 -0.6109  0.1713
10463SOL     OW32604   5.402   1.844   8.197  0.2938  0.0503 -0.3896
10463SOL    HW132605   5.316   1.877   8.221 -1.2979 -2.9442 -1.5178
10463SOL    HW232606   5.456   1.856   8.275 -1.7483 -0.0256  1.0845
10464SOL     OW32607   4.211   0.121   7.963 -0.4380  0.4834  0.3611
10464SOL    HW132608   4.219   0.027   7.976 -2.3360  0.0533 -1.1040
10464SOL    HW232609   4.173   0.154   8.044 -1.1191 -0.2594  0.3560
10465SOL     OW32610   5.781   8.814   8.540 -0.1704 -0.2841  0.3588
10465SOL    HW132611   5.796   8.904   8.568  0.9356  0.2403 -1.6985
10465SOL    HW232612   5.689   8.811   8.516 -0.3944  0.0719  1.1484
10466SOL     OW32613   5.286   1.486   8.005  0.3035 -0.0040 -0.0721
10466SOL    HW132614   5.355   1.492   8.071 -0.0951  0.6207  0.2969
10466SOL    HW232615   5.247   1.573   8.004 -0.7557 -0.4660  0.0309
10467SOL     OW32616   5.092   0.465   0.165  0.2289 -0.6589  0.6009
10467SOL    HW132617   4.997   0.467   0.180 -0.3303 -1.2679 -2.3086
10467SOL    HW232618   5.118   0.378   0.195 -0.4151 -1.0412  0.0924
10468SOL     OW32619   4.646   0.047   0.108  0.2869 -0.2845  0.1213
10468SOL    HW132620   4.717  -0.016   0.121  0.8948  0.3037 -0.3219
10468SOL    HW232621   4.615   0.030   0.019  0.9556  0.5357 -0.2777
10469SOL     OW32622   4.706   0.189   7.806  0.0514  0.6253 -0.4137
10469SOL    HW132623   4.793   0.173   7.840  0.4783 -0.0481 -1.7785
10469SOL    HW232624   4.678   0.106   7.768 -0.4862  1.2801 -1.5015
10470SOL     OW32625   4.476   0.560   8.538  0.9127 -0.2455  0.2807
10470SOL    HW132626   4.433   0.490   8.588  1.3146  0.5085  1.7576
10470SOL    HW232627   4.553   0.519   8.501 -0.1268 -1.1764 -0.9294
10471SOL     OW32628   3.820   1.925   8.787  0.0685 -0.5420  0.0804
10471SOL    HW132629   3.843   1.953   8.699 -2.1178 -0.7140 -0.6049
10471SOL    HW232630   3.890   1.865   8.813  0.8307 -0.3593 -1.4565
10472SOL     OW32631   4.554   8.308   7.572  0.0151  0.5674  0.2229
10472SOL    HW132632   4.551   8.389   7.623  0.5364 -0.0930  1.3434
10472SOL    HW232633   4.462   8.287   7.555 -0.1776  0.7466  0.9963
10473SOL     OW32634   4.981   1.390   7.470 -0.1860 -0.2369 -0.1654
10473SOL    HW132635   4.890   1.414   7.487  0.2914  1.4057  0.2535
10473SOL    HW232636   5.028   1.474   7.463  1.4111 -1.0342  0.3147
10474SOL     OW32637   4.706   0.276   8.135 -0.2689  0.0719 -0.2582
10474SOL    HW132638   4.756   0.265   8.054 -1.1626  2.3286 -1.2088
10474SOL    HW232639   4.642   0.205   8.134  1.4394 -1.5601 -0.0947
10475SOL     OW32640   4.760   1.615   7.827 -0.2173  0.1728 -0.5703
10475SOL    HW132641   4.711   1.554   7.771  3.7931 -1.9548 -2.1371
10475SOL    HW232642   4.811   1.558   7.884  0.6504  2.2343  0.7991
10476SOL     OW32643   4.234   1.762   7.936  0.3687 -1.2177 -0.3649
10476SOL    HW132644   4.275   1.797   7.857 -0.5077 -0.5752 -0.5396
10476SOL    HW232645   4.168   1.827   7.960  1.3647 -0.8369  1.5351
10477SOL     OW32646   5.383   1.218   7.940 -0.3271 -0.0100 -0.0077
10477SOL    HW132647   5.354   1.173   8.019  1.3258 -0.8025  0.1970
10477SOL    HW232648   5.378   1.311   7.962  2.4149 -0.1939  2.0211
10478SOL     OW32649   4.317   0.255   7.596 -0.1040 -0.3125 -0.1349
10478SOL    HW132650   4.280   0.247   7.508 -0.4573  0.1693 -0.0397
10478SOL    HW232651   4.241   0.278   7.651  0.4566  1.5857 -0.0781
10479SOL     OW32652   5.400   0.487   8.201  0.1036 -0.3561  0.0963
10479SOL    HW132653   5.389   0.517   8.111  1.3306 -0.7509 -0.1949
10479SOL    HW232654   5.353   0.552   8.253  0.2645  0.4584 -0.7421
10480SOL     OW32655   5.047   1.959   7.253 -0.1629 -0.2142  0.2349
10480SOL    HW132656   5.022   2.039   7.300  1.5328  0.5993 -0.1524
10480SOL    HW232657   5.048   1.985   7.161  1.9990 -0.1552  0.2181
10481SOL     OW32658   5.350   1.385   7.692 -0.0916  0.3548  0.2457
10481SOL    HW132659   5.411   1.422   7.754  0.0160  0.0599  0.3171
10481SOL    HW232660   5.324   1.301   7.730 -2.1671  1.3981  1.2628
10482SOL     OW32661   4.311   1.413   7.729 -0.3978  0.1477  0.1117
10482SOL    HW132662   4.384   1.353   7.745 -0.0957  0.8251  1.3993
10482SOL    HW232663   4.344   1.474   7.663  0.2622  0.5331  0.7887
10483SOL     OW32664   5.551   0.051   7.630  0.2380 -0.0571 -0.1708
10483SOL    HW132665   5.553   0.035   7.536 -0.0862 -0.5118 -0.1054
10483SOL    HW232666   5.637   0.024   7.661  1.0772  1.9156 -0.6013
10484SOL     OW32667   4.213   1.840   8.547 -0.3403  0.3551 -0.1595
10484SOL    HW132668   4.213   1.888   8.630  0.1355 -1.1011  0.7130
10484SOL    HW232669   4.234   1.906   8.481 -1.5985  1.7342  0.7397
10485SOL     OW32670   4.902   1.473   8.011 -0.4904  0.5033  0.5443
10485SOL    HW132671   4.968   1.539   8.034  0.6311  0.5972 -2.5025
10485SOL    HW232672   4.949   1.408   7.959 -2.2303 -1.0713  0.8174
10486SOL     OW32673   3.810   8.563   7.955 -0.2266 -0.1019  0.0159
10486SOL    HW132674   3.779   8.544   7.867 -1.0915 -0.7011  0.4380
10486SOL    HW232675   3.906   8.569   7.946 -0.2532 -0.8286 -0.8343
10487SOL     OW32676   4.289   8.424   7.571 -0.0675  0.0832 -0.2191
10487SOL    HW132677   4.279   8.512   7.607 -0.9157  0.5067 -1.4234
10487SOL    HW232678   4.315   8.437   7.480 -0.1725 -0.9089 -0.4090
10488SOL     OW32679   4.401   1.645   8.578  0.2452  0.2693 -0.2412
10488SOL    HW132680   4.453   1.657   8.499  0.8941  1.0809  0.2937
10488SOL    HW232681   4.331   1.710   8.572 -0.7001 -0.7624 -0.9175
10489SOL     OW32682   5.046   1.190   8.324  0.2798  0.0405 -0.2814
10489SOL    HW132683   5.106   1.253   8.363 -1.2285  0.9767  0.6602
10489SOL    HW232684   4.973   1.185   8.387 -0.5415 -1.1742 -1.2814
10490SOL     OW32685   4.923   0.135   7.972 -0.3000  0.3280 -0.2608
10490SOL    HW132686   4.922   0.050   8.016  1.1473  0.5995  0.3468
10490SOL    HW232687   4.979   0.190   8.027 -3.1286  2.4716  0.7279
10491SOL     OW32688   4.310   8.683   7.757 -0.0647  0.0533  0.1280
10491SOL    HW132689   4.231   8.730   7.731 -0.0491 -0.2196 -0.4169
10491SOL    HW232690   4.382   8.744   7.739 -0.0266 -0.2491 -0.7738
10492SOL     OW32691   5.105   0.966   7.312 -0.1031  0.1763  0.0652
10492SOL    HW132692   5.042   0.986   7.382  0.0804  1.9715 -0.2256
10492SOL    HW232693   5.166   1.040   7.314 -0.2026  0.3593 -2.1047
10493SOL     OW32694   3.978   8.497   7.545  0.1943  0.4234  0.6411
10493SOL    HW132695   3.892   8.463   7.520  0.4347 -0.5043  1.0250
10493SOL    HW232696   4.038   8.455   7.484  0.3236  1.5795 -0.0576
10494SOL     OW32697   5.000   8.568   7.966 -0.2736 -0.9621  0.0737
10494SOL    HW132698   4.930   8.555   7.901  0.6520 -0.5913 -1.0309
10494SOL    HW232699   5.074   8.518   7.931  0.3906 -0.3664  0.6034
10495SOL     OW32700   4.658   1.336   8.425  0.1069  0.1304 -0.0757
10495SOL    HW132701   4.680   1.381   8.343  0.2321  0.2315  0.0120
10495SOL    HW232702   4.734   1.353   8.481 -0.6451  1.3847  0.6044
10496SOL     OW32703   4.001   1.365   8.002  0.2891 -0.2339 -0.4596
10496SOL    HW132704   4.011   1.299   8.071 -2.3416  1.3451  1.5966
10496SOL    HW232705   4.080   1.418   8.009  0.6375 -0.8426  0.4696
10497SOL     OW32706   5.308   1.722   7.704  0.4372  0.4444 -0.7074
10497SOL    HW132707   5.374   1.790   7.719  0.4767  0.0569  1.1337
10497SOL    HW232708   5.343   1.645   7.748 -1.3663  0.3097  0.5903
10498SOL     OW32709   5.138   0.006   7.244 -0.5960 -0.1892 -0.0125
10498SOL    HW132710   5.173  -0.040   7.321  0.3441 -0.9705 -0.8785
10498SOL    HW232711   5.078  -0.057   7.203 -0.8733  0.1180 -0.0836
10499SOL     OW32712   4.876   8.745   0.105 -0.5593 -0.5594  0.3165
10499SOL    HW132713   4.971   8.738   0.102 -0.5797 -0.5832 -0.6442
10499SOL    HW232714   4.845   8.673   0.049 -1.1166 -0.0952  0.0179
10500SOL     OW32715   4.970   8.759   8.165 -0.2230  0.1670  0.6648
10500SOL    HW132716   4.928   8.702   8.229 -1.7870 -0.1269 -0.5672
10500SOL    HW232717   4.995   8.701   8.094 -1.3556  0.8938 -0.3700
10501SOL     OW32718   5.047   8.311   8.389  0.0639  0.1430 -0.7173
10501SOL    HW132719   4.963   8.299   8.344  0.3109 -1.4165 -0.8052
10501SOL    HW232720   5.113   8.294   8.321  0.4504  0.7041 -0.4849
10502SOL     OW32721   5.588   0.353   8.388  0.1818 -0.0937 -0.4943
10502SOL    HW132722   5.580   0.376   8.480  0.0205 -1.2035 -0.2180
10502SOL    HW232723   5.523   0.409   8.344 -0.8450 -0.6446  0.2724
10503SOL     OW32724   5.611   0.083   8.285 -0.5722  0.6189  0.7858
10503SOL    HW132725   5.577   0.161   8.330 -1.7399  0.2349  0.5927
10503SOL    HW232726   5.645   0.117   8.201  2.4023  1.4760  2.1818
10504SOL     OW32727   5.834   0.680   7.984  0.4877  0.4097 -0.7480
10504SOL    HW132728   5.903   0.614   7.973 -1.2778 -1.5995 -0.4241
10504SOL    HW232729   5.775   0.642   8.049 -2.1837  0.9097 -2.7290
10505SOL     OW32730   4.685   1.461   7.612  0.4172 -0.0667  0.4978
10505SOL    HW132731   4.635   1.381   7.625 -0.5207  0.5688  0.9795
10505SOL    HW232732   4.619   1.526   7.586  1.2563  0.3853 -0.5762
10506SOL     OW32733   5.669   1.245   7.836  0.3092 -0.2504 -0.2876
10506SOL    HW132734   5.691   1.185   7.765 -0.3985 -0.2237 -0.5439
10506SOL    HW232735   5.579   1.221   7.860 -0.6078  1.7055 -1.4877
10507SOL     OW32736   5.139   0.261   7.693 -0.4174 -0.2780  0.1228
10507SOL    HW132737   5.092   0.338   7.726  0.5617  0.4290 -0.0887
10507SOL    HW232738   5.211   0.297   7.642 -0.0828 -1.3501 -0.1893
10508SOL     OW32739   4.008   8.770   7.382 -0.2772 -0.1888 -0.3607
10508SOL    HW132740   3.928   8.801   7.340 -0.0343  0.1488 -0.5831
10508SOL    HW232741   3.978   8.728   7.463 -0.7719 -1.0882 -0.9956
10509SOL     OW32742   5.782   1.271   0.182 -0.4951  0.0398 -0.1952
10509SOL    HW132743   5.817   1.319   0.107 -1.2441  1.3013  0.2343
10509SOL    HW232744   5.857   1.219   0.213 -0.0003 -0.0192 -1.4007
10510SOL     OW32745   4.574   1.641   8.354  0.2146 -0.1055  0.1780
10510SOL    HW132746   4.518   1.701   8.305 -0.8842 -0.4323  1.0158
10510SOL    HW232747   4.582   1.565   8.296  1.2887  0.6416 -0.7148
10511SOL     OW32748   5.554   0.939   8.091 -0.5811  0.0522 -0.4858
10511SOL    HW132749   5.550   0.878   8.164  0.0098 -0.8536 -1.1855
10511SOL    HW232750   5.484   0.910   8.032 -2.8850  2.4027  0.8768
10512SOL     OW32751   4.717   0.603   7.806  0.0489 -0.0018  0.1877
10512SOL    HW132752   4.652   0.658   7.763  0.4549  0.9007  0.7036
10512SOL    HW232753   4.746   0.655   7.881 -0.0571 -1.1974  1.0864
10513SOL     OW32754   4.427   0.311   0.172  0.0297 -0.1377 -0.4054
10513SOL    HW132755   4.506   0.260   0.184 -0.3985 -0.9994 -1.0948
10513SOL    HW232756   4.440   0.390   0.225  0.9820 -0.6530  0.1431
10514SOL     OW32757   4.944   0.258   0.360  0.3307 -0.9210 -0.3200
10514SOL    HW132758   4.909   0.277   0.273  0.2547  2.8133  0.3430
10514SOL    HW232759   5.037   0.240   0.346  0.7494  1.5288 -1.1218
10515SOL     OW32760   4.011   1.695   8.720 -0.5251 -0.3151 -0.1937
10515SOL    HW132761   4.079   1.726   8.781 -1.6717  0.0898  0.9305
10515SOL    HW232762   4.041   1.725   8.634  0.3072  0.6010  0.3836
10516SOL     OW32763   4.271   0.731   7.799  0.2456 -0.5080 -0.2885
10516SOL    HW132764   4.253   0.637   7.806 -0.4140 -0.4376 -0.9101
10516SOL    HW232765   4.190   0.773   7.829  1.1805 -0.0866  1.8237
10517SOL     OW32766   4.439   0.768   8.015  0.6411 -0.2869 -0.8179
10517SOL    HW132767   4.465   0.681   8.046 -0.3902 -0.0510  0.8284
10517SOL    HW232768   4.395   0.751   7.931  1.9108 -1.1533 -1.3387
10518SOL     OW32769   5.071   1.696   7.584 -0.2466  1.0803 -0.1049
10518SOL    HW132770   5.146   1.714   7.640 -0.6144 -2.7107  1.9164
10518SOL    HW232771   4.998   1.742   7.625  0.2962  1.9605 -0.0960
10519SOL     OW32772   5.243   1.322   8.520 -0.6751 -0.0437  0.1288
10519SOL    HW132773   5.188   1.360   8.590 -0.7171 -0.4827  0.3357
10519SOL    HW232774   5.289   1.250   8.562  0.4285  0.5992  0.0818
10520SOL     OW32775   5.367   0.290   7.532  0.8776 -0.1629 -0.0197
10520SOL    HW132776   5.432   0.241   7.582 -1.0661 -1.4979  1.3362
10520SOL    HW232777   5.402   0.379   7.528  2.8681 -0.8767  0.4346
10521SOL     OW32778   4.402   1.252   8.353 -0.1623  0.2929 -0.5831
10521SOL    HW132779   4.493   1.282   8.347  0.1874 -0.7488 -0.7036
10521SOL    HW232780   4.350   1.331   8.338  0.7053  1.1729  0.7691
10522SOL     OW32781   4.774   0.646   8.653  0.6082  0.1667 -0.1873
10522SOL    HW132782   4.760   0.729   8.699  2.3098  0.4054 -0.0120
10522SOL    HW232783   4.742   0.579   8.713  1.0639  0.5931  0.5494
10523SOL     OW32784   5.234   0.658   8.352 -0.1315 -0.3416 -0.0341
10523SOL    HW132785   5.140   0.664   8.336 -0.5861  0.2469  2.4065
10523SOL    HW232786   5.241   0.628   8.443  1.9824  1.8661  0.6516
10524SOL     OW32787   4.516   0.055   7.594  0.5429 -0.3350 -0.3649
10524SOL    HW132788   4.580   0.076   7.526  0.3049 -0.4168 -0.6153
10524SOL    HW232789   4.465   0.136   7.604 -0.9101 -0.9948 -1.9084
10525SOL     OW32790   4.407   0.241   8.765 -0.4961  0.4415  0.7499
10525SOL    HW132791   4.383   0.280   8.849  0.4401  0.4127  1.0484
10525SOL    HW232792   4.472   0.174   8.787 -1.5029 -0.7670  0.1572
10526SOL     OW32793   4.100   1.592   8.422 -0.0013  0.4639 -0.4136
10526SOL    HW132794   4.080   1.529   8.492  1.9070 -0.5255 -0.6738
10526SOL    HW232795   4.116   1.674   8.468 -0.9683  0.3742  0.0966
10527SOL     OW32796   4.598   0.750   8.263  0.2164 -0.4143  0.5579
10527SOL    HW132797   4.536   0.735   8.192  0.5190  0.3683  0.1260
10527SOL    HW232798   4.621   0.662   8.293  1.7066 -0.8823 -1.7189
10528SOL     OW32799   4.130   0.073   8.250 -0.0844  0.2165 -0.3742
10528SOL    HW132800   4.081   0.061   8.331 -1.4857  1.0298 -1.0596
10528SOL    HW232801   4.115   0.165   8.227  0.3658  0.0154 -1.5156
10529SOL     OW32802   4.949   0.432   8.368 -0.2246 -0.2816 -0.2813
10529SOL    HW132803   4.946   0.525   8.392 -1.0100 -0.1154 -0.9435
10529SOL    HW232804   5.035   0.402   8.397  0.3233  0.8312 -0.6821
10530SOL     OW32805   4.964   0.010   7.701 -0.5448  0.1289  0.3135
10530SOL    HW132806   4.981  -0.005   7.794  2.1661 -0.0557 -0.1144
10530SOL    HW232807   5.007   0.093   7.681  1.0057 -0.9610 -1.2041
10531SOL     OW32808   5.037   0.810   7.951 -0.7745 -0.3006  0.1675
10531SOL    HW132809   4.980   0.826   7.876  0.2718  0.5333 -0.4678
10531SOL    HW232810   4.990   0.848   8.025 -1.9037 -1.2929  0.0063
10532SOL     OW32811   4.967   1.517   8.296 -0.0942  0.2258 -0.1850
10532SOL    HW132812   5.059   1.535   8.276  0.7080 -0.7566  2.2144
10532SOL    HW232813   4.952   1.429   8.261  0.4472 -0.3189  0.8783
10533SOL     OW32814   4.328   0.990   8.148 -0.0487 -0.0902  0.2343
10533SOL    HW132815   4.378   0.991   8.230 -0.4110 -1.4817  0.5073
10533SOL    HW232816   4.377   0.930   8.091  1.3612  2.4243 -1.3958
10534SOL     OW32817   4.920   0.022   8.520  0.2630 -0.1083 -0.2787
10534SOL    HW132818   4.865  -0.044   8.477 -2.5657  0.5100  2.0566
10534SOL    HW232819   4.866   0.100   8.522  2.2517  1.3296 -0.0159
10535SOL     OW32820   5.281   8.293   0.260 -0.2034  0.1738  0.0812
10535SOL    HW132821   5.364   8.336   0.239  0.8457 -1.9066 -0.2477
10535SOL    HW232822   5.219   8.329   0.196  1.1566 -0.4261 -1.6545
10536SOL     OW32823   4.040   1.300   7.725 -0.5692 -0.0060  0.1287
10536SOL    HW132824   4.126   1.342   7.722 -0.2871 -0.4853  0.9621
10536SOL    HW232825   4.006   1.323   7.812 -1.3535  0.3012 -0.2501
10537SOL     OW32826   3.730   1.666   8.267  0.5726 -0.2663  0.2244
10537SOL    HW132827   3.725   1.694   8.176 -0.4990  2.5518  1.0540
10537SOL    HW232828   3.658   1.604   8.278  1.3267 -1.4315 -1.0145
10538SOL     OW32829   4.451   1.245   8.060  0.4065 -0.0555  0.0013
10538SOL    HW132830   4.397   1.166   8.055 -0.5289  0.5697 -0.1024
10538SOL    HW232831   4.407   1.300   8.125  0.5930  0.7098 -0.5083
10539SOL     OW32832   4.908   0.972   8.204 -0.3486 -0.1857  0.3226
10539SOL    HW132833   4.860   0.944   8.282 -0.2401 -0.8157  0.1673
10539SOL    HW232834   4.992   1.003   8.238  0.4527 -2.1895  0.3278
10540SOL     OW32835   4.685   0.476   8.319 -0.7859 -0.0492 -0.0220
10540SOL    HW132836   4.771   0.452   8.354 -0.3855  1.2875 -0.0374
10540SOL    HW232837   4.666   0.408   8.255  1.1291  0.6130 -1.3833
10541SOL     OW32838   4.572   0.370   7.534  0.8517  0.0851 -0.2358
10541SOL    HW132839   4.482   0.359   7.564  1.2496 -2.9077  0.1554
10541SOL    HW232840   4.566   0.430   7.460 -1.5769 -0.6293 -0.6815
10542SOL     OW32841   5.374   0.010   8.739 -0.4706 -0.3516  0.8564
10542SOL    HW132842   5.457  -0.037   8.746 -1.0025 -1.6016 -0.6385
10542SOL    HW232843   5.309  -0.058   8.721 -1.5285  0.7876  0.1811
10543SOL     OW32844   4.826   0.263   0.124 -0.5432 -0.0415  0.3516
10543SOL    HW132845   4.795   0.174   0.110  0.5381 -0.3786 -0.0140
10543SOL    HW232846   4.761   0.318   0.080 -0.8364 -0.6918 -0.0471
10544SOL     OW32847   4.374   1.636   0.008 -0.1607  0.1990 -0.0704
10544SOL    HW132848   4.457   1.668   0.044 -0.6040  2.0500 -0.6078
10544SOL    HW232849   4.390   1.630  -0.086 -0.6491  0.5977 -0.1782
10545SOL     OW32850   3.648   0.363   7.619 -0.0896  0.3298  0.1497
10545SOL    HW132851   3.691   0.339   7.537  0.0498  1.1152 -0.0182
10545SOL    HW232852   3.580   0.296   7.632  0.1625 -0.0309 -0.3869
10546SOL     OW32853   3.962   1.025   8.792  0.8256  0.3100 -0.2885
10546SOL    HW132854   4.011   1.021   8.710 -0.5992  2.0007 -1.3088
10546SOL    HW232855   4.016   1.078   8.851  1.2407  0.2536 -0.6198
10547SOL     OW32856   5.190   0.325   8.481 -0.3100 -0.2796  0.7124
10547SOL    HW132857   5.161   0.237   8.458 -0.0080 -0.0127 -0.7535
10547SOL    HW232858   5.226   0.316   8.569 -1.8088 -1.2655  1.2668
10548SOL     OW32859   5.293   0.911   8.002 -0.3528 -0.4433 -0.8810
10548SOL    HW132860   5.285   0.982   8.067  0.3349 -0.7342 -0.4701
10548SOL    HW232861   5.223   0.850   8.026  0.1257 -0.7247 -0.1853
10549SOL     OW32862   5.283   1.634   8.805  0.1885  0.0900 -0.1279
10549SOL    HW132863   5.317   1.699   8.868  1.9322 -0.2660 -0.6581
10549SOL    HW232864   5.253   1.561   8.860 -0.8206  0.8734  0.4101
10550SOL     OW32865   4.900   1.362   8.586 -0.4095  0.1877  0.2630
10550SOL    HW132866   4.889   1.391   8.676 -0.2666  0.5093  0.1793
10550SOL    HW232867   4.942   1.435   8.542 -1.4429  0.4625 -0.3143
10551SOL     OW32868   4.383   0.985   8.410  0.1210  0.7436 -0.0142
10551SOL    HW132869   4.387   1.080   8.404 -0.0321  0.7375 -0.2460
10551SOL    HW232870   4.462   0.960   8.458 -1.0510  1.1614  2.2696
10552SOL     OW32871   5.898   8.727   7.963  0.4837  0.1630  0.2622
10552SOL    HW132872   5.859   8.642   7.945  2.1428 -0.2901 -1.5450
10552SOL    HW232873   5.981   8.707   8.007  1.1422  0.8016 -0.6633
10553SOL     OW32874   5.097   1.279   7.946  0.2427 -0.3852 -0.4716
10553SOL    HW132875   5.115   1.288   7.853  2.2659  0.5856 -0.0630
10553SOL    HW232876   5.157   1.342   7.988 -2.9481  1.7561  1.3179
10554SOL     OW32877   5.276   1.088   8.194 -0.5722 -0.0804 -0.0321
10554SOL    HW132878   5.355   1.123   8.235 -0.5645 -0.4000  0.2305
10554SOL    HW232879   5.207   1.103   8.259 -0.5385 -0.6907  0.1528
10555SOL     OW32880   4.869   1.507   7.105  0.9197 -0.1595 -0.2166
10555SOL    HW132881   4.808   1.560   7.053 -1.7527 -3.1606 -0.4618
10555SOL    HW232882   4.891   1.562   7.180 -3.0395  0.8123  0.4457
10556SOL     OW32883   5.625   8.811   7.971  0.2245  0.5425  0.1075
10556SOL    HW132884   5.702   8.755   7.959 -0.8944 -0.8888 -0.7743
10556SOL    HW232885   5.584   8.777   8.051  0.1907  0.9263  0.2552
10557SOL     OW32886   4.229   0.517   8.721 -0.0632 -0.1122  0.7248
10557SOL    HW132887   4.317   0.549   8.741  0.2029  1.0159 -1.7533
10557SOL    HW232888   4.171   0.573   8.771  0.5634  1.3630 -0.1383
10558SOL     OW32889   5.380   1.562   7.468  0.9075 -0.2129  0.1758
10558SOL    HW132890   5.369   1.643   7.517  1.7467 -0.1865  0.3339
10558SOL    HW232891   5.362   1.493   7.532  1.2320 -0.1654  0.3209
10559SOL     OW32892   4.861   1.130   8.695 -0.0130 -0.2000  0.4180
10559SOL    HW132893   4.866   1.211   8.643 -0.1220  1.0923  2.3244
10559SOL    HW232894   4.783   1.141   8.749 -0.2194 -1.7672  0.4857
10560SOL     OW32895   5.528   1.474   7.126  0.4448  0.2379  0.0772
10560SOL    HW132896   5.531   1.432   7.040  0.2117 -0.2035  0.2830
10560SOL    HW232897   5.440   1.512   7.131 -0.0966 -1.0581  0.7348
10561SOL     OW32898   5.473   0.790   8.326 -0.0425 -0.5245 -0.5613
10561SOL    HW132899   5.384   0.759   8.343 -0.2517 -0.2459 -1.0944
10561SOL    HW232900   5.465   0.886   8.330  0.3179 -0.5111 -0.2109
10562SOL     OW32901   4.892   1.106   7.962  0.2194  1.2180  0.5874
10562SOL    HW132902   4.883   1.073   8.052 -0.2990  0.0654  0.1315
10562SOL    HW232903   4.975   1.154   7.962  1.1773 -0.3851  1.1991
10563SOL     OW32904   5.171   0.066   8.406 -0.3236 -0.3679  0.3544
10563SOL    HW132905   5.234  -0.004   8.424 -1.4743 -2.7213 -3.5828
10563SOL    HW232906   5.086   0.027   8.427 -0.8542  0.7529  0.3692
10564SOL     OW32907   4.610   0.847   7.659 -0.1424  0.1780  0.2559
10564SOL    HW132908   4.515   0.857   7.657 -0.4381 -1.7232  1.8340
10564SOL    HW232909   4.637   0.847   7.567 -1.7485  0.1374 -0.2351
10565SOL     OW32910   5.167   8.804   0.083  0.1424  0.5854  0.2493
10565SOL    HW132911   5.242   8.749   0.106  0.1168  0.7891  0.8225
10565SOL    HW232912   5.169   8.808  -0.012  0.2162 -0.3166  0.2055
10566SOL     OW32913   4.466   1.561   7.518 -0.7434 -0.2830 -0.2349
10566SOL    HW132914   4.416   1.519   7.448 -2.6024 -0.1537  0.9364
10566SOL    HW232915   4.439   1.652   7.515  0.9195  0.2297 -0.7755
10567SOL     OW32916   3.845   0.023   7.710  0.2405  0.4854 -0.3109
10567SOL    HW132917   3.814  -0.064   7.736 -0.3905  0.5311 -0.8958
10567SOL    HW232918   3.788   0.048   7.638 -0.6631  2.0863  0.8892
10568SOL     OW32919   3.605   0.182   7.964  0.2373 -0.1119  0.7569
10568SOL    HW132920   3.688   0.219   7.995  0.6888 -1.1857  0.8911
10568SOL    HW232921   3.631   0.104   7.915 -0.6548 -0.0335  0.1334
10569SOL     OW32922   4.908   1.107   7.438 -0.0657 -0.1048 -0.3955
10569SOL    HW132923   4.950   1.166   7.375 -0.2148  0.2527 -0.1672
10569SOL    HW232924   4.858   1.166   7.495 -1.2735 -0.5788 -0.9601
10570SOL     OW32925   5.012   0.728   0.090  0.0846 -0.2223  0.8778
10570SOL    HW132926   5.078   0.659   0.093  0.5765  0.2332  0.6666
10570SOL    HW232927   4.929   0.682   0.101  0.2208 -1.1525 -1.3521
10571SOL     OW32928   5.087   1.610   8.576 -0.2021 -0.4818 -0.5402
10571SOL    HW132929   5.120   1.634   8.489  0.4946 -0.6079 -0.3192
10571SOL    HW232930   5.155   1.642   8.636 -1.4226  1.0371  0.0785
10572SOL     OW32931   3.753   1.417   8.707  0.5037  0.0144 -0.1749
10572SOL    HW132932   3.712   1.500   8.732  0.0395 -0.2622 -0.0034
10572SOL    HW232933   3.803   1.392   8.785  0.8969  0.2834 -0.3359
10573SOL     OW32934   5.727   0.758   8.519  0.1803  0.1737 -0.2672
10573SOL    HW132935   5.762   0.847   8.512  0.1185  0.1403 -1.0706
10573SOL    HW232936   5.648   0.759   8.465 -0.5176 -0.0339  0.7259
10574SOL     OW32937   5.163   0.206   8.142 -0.2836 -0.1749  0.5964
10574SOL    HW132938   5.176   0.289   8.188 -0.6581 -0.2392  0.8221
10574SOL    HW232939   5.148   0.142   8.211  1.3639 -0.7063  0.5037
10575SOL     OW32940   4.046   0.300   8.153 -0.5058  0.3763 -0.0781
10575SOL    HW132941   4.088   0.382   8.179 -1.1449  0.7299 -0.1370
10575SOL    HW232942   3.952   0.317   8.162 -0.6295 -0.6935  0.9181
10576SOL     OW32943   5.742   0.487   8.636  0.2741  0.1018  0.5139
10576SOL    HW132944   5.719   0.574   8.602  2.6717  0.9394  0.8918
10576SOL    HW232945   5.667   0.463   8.691 -0.1046  2.2751  1.0561
10577SOL     OW32946   4.729   1.099   7.740  0.8176 -0.1783 -0.0120
10577SOL    HW132947   4.788   1.098   7.815 -0.8611 -3.2532  1.4985
10577SOL    HW232948   4.704   1.007   7.729 -1.8277  0.6476 -2.0210
10578SOL     OW32949   4.870   1.769   8.409  0.0162  0.4022  0.1093
10578SOL    HW132950   4.778   1.768   8.436  0.6913 -0.0974  2.6923
10578SOL    HW232951   4.880   1.691   8.354 -0.9954  0.2051  0.1899
10579SOL     OW32952   4.982   0.685   8.488  0.3222 -0.3550 -0.3931
10579SOL    HW132953   4.896   0.673   8.529  0.9019 -0.1545  0.9612
10579SOL    HW232954   5.021   0.758   8.536  1.5153 -0.8961 -0.5107
10580SOL     OW32955   4.987   0.472   7.800 -0.1600  0.5141  0.0511
10580SOL    HW132956   4.996   0.562   7.768 -1.5587  0.4586 -0.5795
10580SOL    HW232957   4.977   0.481   7.895 -3.2668  1.3363 -0.2445
10581SOL     OW32958   5.531   1.466   8.178  0.2016  1.0009 -0.0718
10581SOL    HW132959   5.584   1.388   8.162  0.0301  0.9590 -0.4409
10581SOL    HW232960   5.530   1.475   8.273  1.7935  1.6453 -0.0870
10582SOL     OW32961   3.790   1.410   8.417  0.4421  0.0513  0.0869
10582SOL    HW132962   3.779   1.418   8.512 -0.0951  0.2772  0.0069
10582SOL    HW232963   3.806   1.500   8.387  0.0397  0.0567 -0.1076
10583SOL     OW32964   5.583   8.700   8.805  0.5688  0.6327 -0.0040
10583SOL    HW132965   5.666   8.655   8.818  0.2031 -0.3077 -0.8088
10583SOL    HW232966   5.516   8.633   8.819 -0.1444  1.6201  1.7667
10584SOL     OW32967   4.451   0.507   8.090  0.1900 -0.0232 -0.0878
10584SOL    HW132968   4.440   0.460   8.007 -0.0461  1.0238 -0.6660
10584SOL    HW232969   4.493   0.443   8.148  1.8942 -0.2663 -1.4998
10585SOL     OW32970   5.793   1.323   8.481  0.0239 -0.1328 -0.2157
10585SOL    HW132971   5.836   1.349   8.400  0.8392  0.7204  0.4607
10585SOL    HW232972   5.700   1.318   8.459 -0.0424  2.1182 -0.7350
10586SOL     OW32973   4.653   0.400   8.808 -0.4048  0.1538 -0.3702
10586SOL    HW132974   4.598   0.477   8.818 -1.3410 -0.3876 -1.0985
10586SOL    HW232975   4.591   0.328   8.792  0.2862 -1.1118  2.0371
10587SOL     OW32976   5.096   1.681   7.997  0.2636 -0.5831 -0.0514
10587SOL    HW132977   5.058   1.706   7.913 -2.7221 -1.2646  0.9523
10587SOL    HW232978   5.126   1.764   8.035 -0.1250  0.0143 -1.0033
10588SOL     OW32979   5.384   8.664   0.211 -0.1049 -0.3310 -0.1269
10588SOL    HW132980   5.436   8.727   0.262 -0.1281  0.0829 -0.6037
10588SOL    HW232981   5.402   8.580   0.252  0.4379 -0.1028  0.1215
10589SOL     OW32982   4.911   8.591   8.699  0.1744 -0.3994  0.1555
10589SOL    HW132983   4.821   8.621   8.711  0.6675  0.7465  1.2155
10589SOL    HW232984   4.930   8.540   8.777  0.1461 -1.4617 -0.5150
10590SOL     OW32985   4.762   0.841   7.438  0.4320 -0.0547  0.2141
10590SOL    HW132986   4.818   0.903   7.485 -0.9484  0.0289  1.8432
10590SOL    HW232987   4.718   0.895   7.373  1.9273 -0.0578 -0.8560
10591SOL     OW32988   4.682   1.479   0.189  0.2486 -0.2648 -0.1207
10591SOL    HW132989   4.717   1.453   0.274 -0.7165 -1.4001 -0.0477
10591SOL    HW232990   4.753   1.461   0.127 -0.1851 -2.7214 -0.0002
10592SOL     OW32991   5.361   8.439   7.551  0.2800 -0.0086  0.6851
10592SOL    HW132992   5.353   8.347   7.524  1.0300  0.0026  0.4024
10592SOL    HW232993   5.454   8.449   7.573  0.3062  0.8193  0.2285
10593SOL     OW32994   5.311   0.130   7.921 -0.1871 -0.6498  0.3541
10593SOL    HW132995   5.288   0.170   8.005  1.1013  1.6776 -0.3260
10593SOL    HW232996   5.230   0.132   7.871 -0.3112  0.5477  0.5761
10594SOL     OW32997   5.235   8.601   8.716  0.3119  0.6127 -0.7685
10594SOL    HW132998   5.167   8.581   8.651  1.0157  0.4759 -1.4786
10594SOL    HW232999   5.262   8.515   8.748  0.9676  0.5919 -1.3528
10595SOL     OW33000   3.731   0.307   8.192  0.2841  0.1191  0.0728
10595SOL    HW133001   3.685   0.236   8.236 -0.5219  0.4973 -0.1388
10595SOL    HW233002   3.685   0.386   8.221  0.7387  0.4962 -0.2259
10596SOL     OW33003   4.931   1.850   7.763  0.2161 -0.1223  0.1263
10596SOL    HW133004   4.861   1.793   7.797 -1.0107  0.4178 -1.3648
10596SOL    HW233005   4.891   1.937   7.757  1.1046  0.2624 -0.4873
10597SOL     OW33006   3.628   2.572   0.256 -0.6284 -0.1058 -0.2514
10597SOL    HW133007   3.547   2.531   0.225 -1.1536  1.3348 -0.8711
10597SOL    HW233008   3.653   2.631   0.185  0.3140  0.3509  0.4495
10598SOL     OW33009   3.765   1.896   1.301  0.3106  0.3765  0.1150
10598SOL    HW133010   3.740   1.931   1.216 -0.4670 -0.6236 -0.0837
10598SOL    HW233011   3.806   1.970   1.346  0.8729  0.8680 -1.1764
10599SOL     OW33012   3.827   2.207   1.292  0.0102 -0.1107  0.1922
10599SOL    HW133013   3.893   2.277   1.289 -0.0222 -0.0876 -0.0052
10599SOL    HW233014   3.758   2.241   1.348 -0.1632  0.1543 -0.1794
10600SOL     OW33015   4.302   3.109   1.281 -0.2088  0.7022  0.7856
10600SOL    HW133016   4.289   3.160   1.360  0.3122  2.1687 -0.0459
10600SOL    HW233017   4.290   3.171   1.209  0.9444 -0.2176 -0.2557
10601SOL     OW33018   5.438   3.234   0.976  0.9828  0.0075 -0.6415
10601SOL    HW133019   5.355   3.271   0.944  0.0767  1.0591  2.5723
10601SOL    HW233020   5.505   3.285   0.932 -0.1987  2.1527 -0.1212
10602SOL     OW33021   4.851   2.332   0.889  0.0402  0.6584  0.1605
10602SOL    HW133022   4.782   2.375   0.939  0.3778  0.1670  1.0686
10602SOL    HW233023   4.876   2.256   0.942  0.4759  0.1749 -0.7085
10603SOL     OW33024   5.317   2.606   0.161 -0.2849  0.2066 -0.2672
10603SOL    HW133025   5.344   2.525   0.119 -0.5829 -0.0959  0.1185
10603SOL    HW233026   5.279   2.659   0.090 -2.8763 -1.1799 -0.0504
10604SOL     OW33027   4.403   2.756   1.426 -0.0755 -0.2018 -0.1435
10604SOL    HW133028   4.455   2.836   1.438  0.8501 -0.6780 -0.9094
10604SOL    HW233029   4.313   2.784   1.445  0.3242  0.8460  0.3219
10605SOL     OW33030   4.603   2.845   1.896  0.0019  0.1547 -0.2322
10605SOL    HW133031   4.633   2.922   1.848 -1.2763  1.0798  0.3961
10605SOL    HW233032   4.573   2.785   1.829  3.0222 -0.7821 -0.8990
10606SOL     OW33033   4.491   2.507   1.028 -0.4128  0.4905  0.3884
10606SOL    HW133034   4.568   2.486   1.080 -0.3800  0.9825  0.5445
10606SOL    HW233035   4.493   2.603   1.020 -0.5400  0.4425 -0.3183
10607SOL     OW33036   3.809   3.264   2.397 -0.3656 -0.0552 -0.2703
10607SOL    HW133037   3.732   3.319   2.408 -0.6471 -0.5414  0.2045
10607SOL    HW233038   3.859   3.306   2.326 -1.5077 -0.2309 -1.2044
10608SOL     OW33039   3.908   3.431   0.944 -0.2593 -0.9175 -0.7413
10608SOL    HW133040   3.965   3.416   0.868 -1.7859 -2.6030 -1.6305
10608SOL    HW233041   3.854   3.506   0.919 -0.1638 -0.9201 -0.9633
10609SOL     OW33042   4.684   3.433   1.475  0.2528  0.0444  0.2557
10609SOL    HW133043   4.602   3.447   1.428  0.8542  1.0832 -0.5277
10609SOL    HW233044   4.663   3.451   1.567 -0.8478 -1.6594  0.3780
10610SOL     OW33045   4.766   2.412   1.618  0.1359  0.6706  0.5157
10610SOL    HW133046   4.808   2.486   1.573 -0.8640  0.3049 -1.0833
10610SOL    HW233047   4.685   2.449   1.653 -0.9332  0.1411 -1.2634
10611SOL     OW33048   4.952   2.371   0.617 -0.4620 -0.4073  0.4668
10611SOL    HW133049   4.936   2.462   0.643 -1.2905 -0.4080 -0.0284
10611SOL    HW233050   4.917   2.320   0.690  1.5811 -0.3179  1.5767
10612SOL     OW33051   3.825   3.788   0.656 -0.4359 -0.4762  0.0317
10612SOL    HW133052   3.815   3.738   0.738 -0.7567 -0.4348  0.0191
10612SOL    HW233053   3.735   3.798   0.623 -0.3866  0.2014  0.0859
10613SOL     OW33054   4.399   3.039   1.978  0.3229 -0.0039 -0.7962
10613SOL    HW133055   4.418   3.091   1.899  1.0260 -0.6638 -1.0769
10613SOL    HW233056   4.443   2.955   1.962 -0.8850 -0.7401 -0.4046
10614SOL     OW33057   3.688   3.492   0.656 -0.5939 -0.2125  0.4279
10614SOL    HW133058   3.722   3.534   0.735  0.3332 -1.0342  0.4825
10614SOL    HW233059   3.632   3.421   0.689 -1.6700  0.5695  0.3344
10615SOL     OW33060   4.052   2.924   0.925 -0.2067 -0.2644  0.0978
10615SOL    HW133061   3.984   2.984   0.955 -0.3103 -0.3386  0.0074
10615SOL    HW233062   4.102   2.904   1.005 -1.1830 -1.3743  0.4488
10616SOL     OW33063   4.355   2.902   0.418  0.0561  0.3002 -0.2709
10616SOL    HW133064   4.439   2.926   0.379 -0.4287  1.7622 -0.4904
10616SOL    HW233065   4.294   2.970   0.388 -0.7188  0.5336  1.6434
10617SOL     OW33066   4.969   2.255   1.299  0.6425  0.4231 -0.2258
10617SOL    HW133067   4.880   2.287   1.313  0.8431  0.8456  0.0995
10617SOL    HW233068   4.961   2.159   1.302  0.4879  0.4480  1.7796
10618SOL     OW33069   3.851   2.479   1.107  0.0542 -0.9153 -0.4496
10618SOL    HW133070   3.882   2.451   1.193 -0.3905 -0.9936 -0.3101
10618SOL    HW233071   3.916   2.543   1.078 -0.4934  0.1512  0.5538
10619SOL     OW33072   5.387   3.944   0.417  0.3060  0.1932 -0.0484
10619SOL    HW133073   5.397   4.039   0.410  1.4667  0.1063  0.2520
10619SOL    HW233074   5.414   3.911   0.331 -0.5763  0.1580 -0.3198
10620SOL     OW33075   3.951   3.326   0.113  0.1131  0.0972 -0.0440
10620SOL    HW133076   3.985   3.339   0.202  0.7425 -0.6224 -0.1682
10620SOL    HW233077   3.966   3.233   0.095  1.2439  0.5130 -1.4186
10621SOL     OW33078   5.154   2.681   1.391  0.1728 -0.1618  0.3991
10621SOL    HW133079   5.243   2.677   1.356  1.2403 -0.6578  2.9747
10621SOL    HW233080   5.155   2.756   1.451 -0.8520 -0.7630  1.2049
10622SOL     OW33081   5.234   3.074   0.602  0.0044  0.4654  0.0784
10622SOL    HW133082   5.199   2.992   0.566 -0.4531  1.3468 -1.5944
10622SOL    HW233083   5.192   3.142   0.550  2.7765  1.6743 -0.7525
10623SOL     OW33084   3.952   2.765   1.782  0.1430  0.4795  0.4637
10623SOL    HW133085   3.967   2.860   1.783 -3.6507  1.2165  0.5830
10623SOL    HW233086   3.960   2.739   1.874 -0.9108  1.1138  0.7454
10624SOL     OW33087   4.345   3.291   0.829  0.1103 -0.1178 -0.4715
10624SOL    HW133088   4.327   3.218   0.769  0.2388  0.0550 -0.7211
10624SOL    HW233089   4.439   3.282   0.850 -0.1057 -0.6466  0.3317
10625SOL     OW33090   5.091   3.088   2.032  0.2243  0.3969 -0.0562
10625SOL    HW133091   5.092   3.037   1.951 -0.7367  2.2338 -1.3038
10625SOL    HW233092   5.124   3.174   2.007 -1.2495  1.3874  1.2158
10626SOL     OW33093   4.292   2.092   0.489  0.2455 -0.2868  0.5955
10626SOL    HW133094   4.352   2.037   0.438 -0.7056  0.0277 -0.9316
10626SOL    HW233095   4.341   2.172   0.505  0.9511 -0.8168  1.1701
10627SOL     OW33096   3.910   2.583   1.598 -0.0464  0.0835  1.0201
10627SOL    HW133097   3.959   2.646   1.649  0.7097  1.8266 -1.6455
10627SOL    HW233098   3.864   2.529   1.663  1.3132  1.6953  3.4571
10628SOL     OW33099   5.006   2.764   0.107 -0.4468  0.2351  0.1245
10628SOL    HW133100   4.913   2.749   0.088 -0.6928  0.9786  0.7247
10628SOL    HW233101   5.025   2.708   0.182  0.0571 -1.2606 -1.0463
10629SOL     OW33102   4.851   3.549   1.710  0.3568 -0.2923 -0.5458
10629SOL    HW133103   4.909   3.569   1.784 -0.4525  1.6922 -0.3905
10629SOL    HW233104   4.787   3.488   1.747 -0.1132  0.7714  0.4621
10630SOL     OW33105   4.274   1.898   1.651  0.2837 -0.5914  0.8372
10630SOL    HW133106   4.302   1.890   1.560 -0.1603 -1.6228  0.7865
10630SOL    HW233107   4.179   1.894   1.648  0.0964  1.8861  1.1140
10631SOL     OW33108   5.146   3.247   1.053 -0.5424 -0.1582 -0.0901
10631SOL    HW133109   5.144   3.244   0.957  1.2611 -0.0277 -0.1695
10631SOL    HW233110   5.076   3.188   1.080 -0.1849 -1.2977 -1.5048
10632SOL     OW33111   5.319   3.936   0.770  0.4435  0.4021 -0.3138
10632SOL    HW133112   5.375   3.882   0.714 -0.0089 -0.8718  0.4042
10632SOL    HW233113   5.368   3.945   0.851  0.2605  0.5603 -0.2194
10633SOL     OW33114   4.554   2.782   0.603 -0.1311 -0.0973  0.4750
10633SOL    HW133115   4.468   2.806   0.569 -0.4038 -0.7295  0.6902
10633SOL    HW233116   4.567   2.841   0.678  0.5073  1.3452 -0.7136
10634SOL     OW33117   4.294   2.285   1.089 -0.3498  0.1247  0.2277
10634SOL    HW133118   4.343   2.356   1.048  0.2280 -1.1878 -1.4809
10634SOL    HW233119   4.217   2.273   1.032  0.1367 -1.3238 -0.1713
10635SOL     OW33120   5.091   3.657   0.256  0.1590 -0.1978  0.2309
10635SOL    HW133121   5.103   3.615   0.342  0.3528  2.1513  1.4269
10635SOL    HW233122   4.996   3.667   0.248 -0.1070 -2.7845 -1.1354
10636SOL     OW33123   4.730   2.942   1.480 -0.5308  0.0457 -0.6326
10636SOL    HW133124   4.683   2.989   1.411 -1.1889  1.2942  0.6120
10636SOL    HW233125   4.790   3.007   1.517 -1.2182 -0.1741  0.9169
10637SOL     OW33126   5.375   2.583   1.599  0.3019  0.0917 -0.5743
10637SOL    HW133127   5.453   2.528   1.610  0.8439  1.0925  1.0298
10637SOL    HW233128   5.403   2.654   1.542  0.6670  0.5823  0.1962
10638SOL     OW33129   4.706   3.063   1.781  0.7551  0.1980  0.0269
10638SOL    HW133130   4.791   3.103   1.764  0.0412  1.6322 -0.2828
10638SOL    HW233131   4.643   3.135   1.777 -0.4252 -0.7279  0.8183
10639SOL     OW33132   4.418   2.217   1.328  0.6816 -0.3726  0.3226
10639SOL    HW133133   4.369   2.215   1.246  0.5404 -1.1748  0.4201
10639SOL    HW233134   4.391   2.299   1.370  2.2920  1.0941 -1.3389
10640SOL     OW33135   4.630   2.525   0.561  0.1607  0.2637  0.3387
10640SOL    HW133136   4.652   2.618   0.575  0.7076 -0.1760  2.8207
10640SOL    HW233137   4.571   2.504   0.634  0.0452 -1.3551 -0.2010
10641SOL     OW33138   3.752   2.987   0.981  0.3349  0.3906 -0.2633
10641SOL    HW133139   3.761   2.912   1.040  0.9807  1.1362  0.6197
10641SOL    HW233140   3.659   2.989   0.958  0.2215 -0.3802  0.1134
10642SOL     OW33141   4.465   2.332   0.209  0.4519  0.0101  0.1989
10642SOL    HW133142   4.400   2.375   0.154 -0.0472 -0.7521  0.1863
10642SOL    HW233143   4.425   2.329   0.296  0.5384 -0.2995  0.2291
10643SOL     OW33144   5.895   2.368   1.698  0.1881  0.1653  0.3266
10643SOL    HW133145   5.946   2.357   1.779 -0.4023 -1.0843  0.5560
10643SOL    HW233146   5.961   2.380   1.630  0.7612 -0.4505  0.7613
10644SOL     OW33147   5.471   2.999   1.098 -0.2580 -0.1940  0.5501
10644SOL    HW133148   5.382   2.963   1.099 -0.0087 -0.8692 -0.8963
10644SOL    HW233149   5.459   3.089   1.069 -0.6891  0.4725  2.5803
10645SOL     OW33150   4.165   1.771   1.165  0.3472 -0.4345  0.3450
10645SOL    HW133151   4.198   1.774   1.075 -0.9151 -0.4048 -0.1338
10645SOL    HW233152   4.139   1.861   1.183  0.0259 -0.5620  0.5140
10646SOL     OW33153   4.809   3.340   0.444  0.0757 -0.2861  0.1783
10646SOL    HW133154   4.856   3.413   0.485  0.1714  0.4853 -1.2386
10646SOL    HW233155   4.724   3.338   0.488 -0.5104  1.6822 -0.7748
10647SOL     OW33156   4.492   3.767   1.063  0.1907 -0.3669  0.4881
10647SOL    HW133157   4.430   3.715   1.113  0.2211 -1.1522 -0.2633
10647SOL    HW233158   4.508   3.716   0.984 -0.6073  1.2849 -0.8004
10648SOL     OW33159   5.067   2.616   1.101 -0.4060  0.8393 -0.1729
10648SOL    HW133160   5.079   2.637   1.193 -2.2330 -0.8183  0.5179
10648SOL    HW233161   4.985   2.658   1.077 -0.6937  0.0506 -0.6174
10649SOL     OW33162   4.467   3.395   1.256  0.5732 -0.7050 -0.3176
10649SOL    HW133163   4.422   3.374   1.175 -1.1343 -0.7095  0.5809
10649SOL    HW233164   4.437   3.483   1.278  0.4582 -0.9734  0.6551
10650SOL     OW33165   4.101   2.799   0.451 -0.2508 -0.1304  0.2776
10650SOL    HW133166   4.076   2.882   0.490  0.8960 -1.3186  3.9989
10650SOL    HW233167   4.196   2.805   0.442 -0.2329 -0.8150 -0.0469
10651SOL     OW33168   5.091   2.337   0.404  0.0155  0.1157  0.1916
10651SOL    HW133169   5.026   2.338   0.474  1.9613 -0.3564  2.1051
10651SOL    HW233170   5.175   2.329   0.449  1.2954 -1.4800 -2.2549
10652SOL     OW33171   3.785   3.329   1.531 -0.1477 -0.2846 -0.1812
10652SOL    HW133172   3.811   3.249   1.486 -1.1364 -1.0791  0.6093
10652SOL    HW233173   3.856   3.391   1.513  0.7048 -1.3719 -0.6765
10653SOL     OW33174   4.724   3.747   0.400 -0.0259  0.3431  0.2552
10653SOL    HW133175   4.783   3.702   0.460 -0.9545  1.2728  1.9508
10653SOL    HW233176   4.765   3.833   0.386 -0.0733  0.3221 -0.0213
10654SOL     OW33177   3.518   2.052   1.421  0.3129  0.3547 -0.0993
10654SOL    HW133178   3.544   1.963   1.396  0.7265  0.8589 -1.5488
10654SOL    HW233179   3.486   2.091   1.339 -0.9642  1.1685  0.7582
10655SOL     OW33180   5.253   3.451   0.140  0.6170  0.0364 -0.1067
10655SOL    HW133181   5.210   3.535   0.155 -1.4529 -0.8578 -0.6367
10655SOL    HW233182   5.236   3.401   0.220  1.8069  0.0892  0.1899
10656SOL     OW33183   4.045   3.939   0.687 -0.0928  0.2165 -0.8612
10656SOL    HW133184   3.963   3.891   0.684  0.2670 -0.4477 -0.2497
10656SOL    HW233185   4.080   3.922   0.774  0.3209  1.1228 -0.8415
10657SOL     OW33186   4.703   2.002   0.132  0.1833 -0.5795 -0.3668
10657SOL    HW133187   4.728   2.071   0.194 -0.7903 -1.0968  0.6199
10657SOL    HW233188   4.760   2.017   0.056  0.5141  0.8421  0.1333
10658SOL     OW33189   4.834   3.780   0.736 -0.0480 -0.0161  0.0209
10658SOL    HW133190   4.866   3.774   0.827 -0.6670 -1.2939  0.1780
10658SOL    HW233191   4.744   3.748   0.741 -1.0430  2.4834 -0.6022
10659SOL     OW33192   3.649   2.370   0.952  0.5637 -0.1151 -0.0749
10659SOL    HW133193   3.656   2.402   0.862 -0.4364 -2.4895 -1.0992
10659SOL    HW233194   3.711   2.423   1.002  0.5921  1.7835 -1.9908
10660SOL     OW33195   5.440   2.091   1.857  0.1415 -0.5408 -0.1245
10660SOL    HW133196   5.362   2.144   1.869 -0.4983 -1.4072 -0.4010
10660SOL    HW233197   5.467   2.068   1.947  0.2011 -0.0908 -0.0223
10661SOL     OW33198   4.676   1.933   1.584 -0.4867 -0.4745  0.5576
10661SOL    HW133199   4.699   1.884   1.663  0.2157  0.5277  0.9975
10661SOL    HW233200   4.754   1.985   1.564  0.6031 -3.0121 -2.6726
10662SOL     OW33201   4.573   3.125   1.272  0.3052 -0.0769  0.4488
10662SOL    HW133202   4.495   3.071   1.285  0.5294 -0.5180  0.0154
10662SOL    HW233203   4.548   3.212   1.301 -1.0288  0.2949 -1.6851
10663SOL     OW33204   4.686   2.274   1.392 -0.3318  0.5680  0.0157
10663SOL    HW133205   4.596   2.246   1.378 -0.5562  0.7282  1.0486
10663SOL    HW233206   4.686   2.311   1.481  0.8126  0.3103  0.1342
10664SOL     OW33207   4.846   3.166   0.897 -0.2792  0.2016  0.2036
10664SOL    HW133208   4.843   3.081   0.854  0.7964  0.7384 -1.0141
10664SOL    HW233209   4.925   3.207   0.863 -1.1615  1.9870  0.1822
10665SOL     OW33210   4.668   1.970   1.190 -0.1181  0.0120  0.5086
10665SOL    HW133211   4.591   1.914   1.198 -0.4062  0.2277 -0.5940
10665SOL    HW233212   4.640   2.042   1.133  0.6001  0.6377  0.9314
10666SOL     OW33213   4.008   1.807   0.172  0.1920 -0.7339  0.0955
10666SOL    HW133214   4.077   1.828   0.109 -1.1010  1.0930 -0.7919
10666SOL    HW233215   4.040   1.842   0.255  1.2346 -1.7907  0.1668
10667SOL     OW33216   5.257   3.125   0.092 -0.3617  0.2220  0.4985
10667SOL    HW133217   5.323   3.175   0.044 -0.9344 -0.8631 -1.4976
10667SOL    HW233218   5.183   3.185   0.100  1.0857  1.8474  3.7041
10668SOL     OW33219   4.447   1.964   0.326 -0.5773  0.4422  0.0117
10668SOL    HW133220   4.426   1.877   0.360 -0.3511  0.6476  0.6886
10668SOL    HW233221   4.490   1.947   0.242 -0.5313 -0.0978  0.1408
10669SOL     OW33222   4.938   3.186   1.775 -0.2433  0.4727 -0.3106
10669SOL    HW133223   4.998   3.118   1.743  0.3123  0.1246  1.3312
10669SOL    HW233224   4.990   3.266   1.773  0.2862  0.1893  1.0159
10670SOL     OW33225   5.201   3.411   0.426  0.0040  0.0967 -0.6283
10670SOL    HW133226   5.165   3.322   0.426 -1.7848  0.7425 -2.3843
10670SOL    HW233227   5.184   3.444   0.514  0.5217 -1.1992 -0.0106
10671SOL     OW33228   4.305   2.854   0.777 -0.0322 -0.4476 -0.1087
10671SOL    HW133229   4.378   2.916   0.777 -0.2881 -0.0211  2.7891
10671SOL    HW233230   4.226   2.908   0.779 -0.2799 -0.7999  1.2106
10672SOL     OW33231   5.256   4.215   0.894 -0.0321 -0.2712  0.3812
10672SOL    HW133232   5.290   4.302   0.916 -1.0887  0.5111 -0.9252
10672SOL    HW233233   5.333   4.158   0.897  0.9096  0.9396  0.1066
10673SOL     OW33234   4.671   2.319   0.040 -0.1889  0.6100 -0.3787
10673SOL    HW133235   4.593   2.322   0.095 -0.6867  0.1180 -1.0457
10673SOL    HW233236   4.744   2.333   0.100 -0.7585  0.5882  0.3206
10674SOL     OW33237   4.078   2.281   0.889  0.0333  0.4255  0.8468
10674SOL    HW133238   4.006   2.246   0.942 -0.3287 -0.1318  0.0059
10674SOL    HW233239   4.035   2.326   0.816  0.5041 -1.1184 -0.4412
10675SOL     OW33240   4.053   2.027   1.342 -0.1880 -0.5212 -0.2287
10675SOL    HW133241   4.012   2.113   1.338  2.2884  0.6877 -2.1434
10675SOL    HW233242   4.006   1.981   1.412 -1.4556  2.4259  1.0045
10676SOL     OW33243   4.426   2.480   0.765  0.1356  0.1706  0.0165
10676SOL    HW133244   4.449   2.502   0.856 -1.7931  1.0674  0.3265
10676SOL    HW233245   4.338   2.514   0.753  0.0398 -0.6311 -1.9790
10677SOL     OW33246   4.143   2.071   0.718 -0.1627  0.4089  0.5633
10677SOL    HW133247   4.140   2.157   0.761 -0.3647  0.9188 -0.4330
10677SOL    HW233248   4.177   2.090   0.630 -2.3156 -0.1814 -0.4516
10678SOL     OW33249   5.215   2.902   1.113 -0.2050 -0.1317 -0.5701
10678SOL    HW133250   5.134   2.929   1.157  0.0763  0.5799 -0.4849
10678SOL    HW233251   5.203   2.808   1.099 -0.5438 -0.2739  0.5176
10679SOL     OW33252   5.226   2.690   0.707 -0.3331 -0.2193  0.1992
10679SOL    HW133253   5.206   2.604   0.745  1.0435 -1.2517 -1.2823
10679SOL    HW233254   5.305   2.718   0.753  0.6569 -0.9305 -1.0161
10680SOL     OW33255   5.614   2.718   0.093 -0.3643  0.2319  0.3832
10680SOL    HW133256   5.662   2.730   0.175 -1.6101  1.4066  0.9766
10680SOL    HW233257   5.554   2.645   0.111 -0.4418  0.3071  0.4343
10681SOL     OW33258   4.149   3.061   0.340 -0.0421  0.3553 -0.3238
10681SOL    HW133259   4.207   3.135   0.319  1.1970 -0.4881  0.0299
10681SOL    HW233260   4.061   3.099   0.337  0.6469  2.6326  2.6630
10682SOL     OW33261   5.849   3.283   0.938  0.3278 -0.0716 -0.2304
10682SOL    HW133262   5.794   3.316   0.867  0.4153  1.6601  0.4696
10682SOL    HW233263   5.789   3.238   0.997  0.2357 -1.4022 -1.3008
10683SOL     OW33264   5.191   2.476   8.778  0.4355  0.0002  0.5979
10683SOL    HW133265   5.105   2.516   8.766  0.5843  0.5556  1.3641
10683SOL    HW233266   5.182   2.422   8.856  0.6982 -0.1886  0.4994
10684SOL     OW33267   4.399   2.347   0.502  0.2797 -0.0475 -0.2927
10684SOL    HW133268   4.440   2.431   0.482  0.3327  0.1231  0.5018
10684SOL    HW233269   4.377   2.353   0.595  0.0277 -0.8072 -0.3003
10685SOL     OW33270   5.499   3.146   1.961 -0.9076  0.0569 -0.4924
10685SOL    HW133271   5.594   3.135   1.958 -0.9043  0.2427 -1.1672
10685SOL    HW233272   5.480   3.210   1.893 -1.4809  0.2853 -0.1224
10686SOL     OW33273   4.954   3.702   1.051 -0.2635  0.0146 -0.9661
10686SOL    HW133274   4.907   3.622   1.025 -0.5132  0.7904 -3.1448
10686SOL    HW233275   5.046   3.677   1.053 -0.4169 -0.5403 -0.6948
10687SOL     OW33276   5.124   3.380   1.695 -0.0333  0.4415 -0.3155
10687SOL    HW133277   5.087   3.468   1.707  1.1144  0.7620  1.0510
10687SOL    HW233278   5.215   3.388   1.722  0.1807 -1.1040 -0.5011
10688SOL     OW33279   4.600   3.249   0.991  0.5814  0.5880  0.5758
10688SOL    HW133280   4.571   3.196   1.065 -1.5969 -0.5050 -0.9294
10688SOL    HW233281   4.690   3.222   0.975  0.7355  0.0779  2.1433
10689SOL     OW33282   5.282   3.110   1.332  0.2042  0.0773 -0.3461
10689SOL    HW133283   5.298   3.202   1.311 -1.7444  0.8984  1.4310
10689SOL    HW233284   5.290   3.065   1.248 -1.4773  2.2902 -1.8217
10690SOL     OW33285   4.963   1.993   1.596 -0.3417 -1.0457 -0.2153
10690SOL    HW133286   4.948   1.899   1.605  1.1206 -1.6609 -2.9782
10690SOL    HW233287   5.059   2.002   1.601 -0.3931  0.1452 -1.0587
10691SOL     OW33288   3.728   2.814   1.556  0.3755 -0.2505 -0.5358
10691SOL    HW133289   3.794   2.833   1.622  1.8962 -1.2223 -1.7008
10691SOL    HW233290   3.760   2.736   1.511 -1.3417 -0.4776 -1.4628
10692SOL     OW33291   4.809   2.967   0.697  0.8096 -0.8446  0.8178
10692SOL    HW133292   4.849   2.880   0.699 -1.0946 -1.7582  0.9297
10692SOL    HW233293   4.787   2.981   0.605  0.5020 -0.7832  0.9001
10693SOL     OW33294   4.076   2.805   1.383  0.8665  0.3945  0.1499
10693SOL    HW133295   4.057   2.718   1.417 -0.3095  0.2480 -0.8380
10693SOL    HW233296   4.043   2.865   1.450  1.5378  0.1042  0.7578
10694SOL     OW33297   4.687   2.351   1.129  0.5542  0.8497  0.4000
10694SOL    HW133298   4.667   2.264   1.094 -1.4406  1.6536 -0.6703
10694SOL    HW233299   4.701   2.337   1.223  2.8024 -0.9246 -0.1051
10695SOL     OW33300   3.696   3.425   1.294 -0.2623 -0.0912  0.3344
10695SOL    HW133301   3.743   3.383   1.222 -3.2541 -1.1234 -1.2141
10695SOL    HW233302   3.747   3.404   1.372  1.0777 -2.2532 -1.0186
10696SOL     OW33303   4.033   2.988   0.662  0.2454 -0.5387 -0.2891
10696SOL    HW133304   4.045   2.948   0.748 -1.3841 -0.9721 -0.2305
10696SOL    HW233305   3.962   3.051   0.674 -1.4894 -2.1019 -1.7278
10697SOL     OW33306   4.255   1.853   0.906  0.0633 -0.3650 -0.1612
10697SOL    HW133307   4.208   1.902   0.839 -2.2255  0.6741  2.0576
10697SOL    HW233308   4.342   1.838   0.868 -0.2819  2.3516 -2.3232
10698SOL     OW33309   4.735   3.349   0.182 -0.1071  0.5637 -0.5005
10698SOL    HW133310   4.733   3.350   0.277 -0.7812  0.2715 -0.5056
10698SOL    HW233311   4.732   3.442   0.157  1.9599  0.7617 -0.2357
10699SOL     OW33312   4.828   3.209   1.480  0.2541 -0.3266 -0.0590
10699SOL    HW133313   4.770   3.267   1.429  0.6243 -0.4762 -0.6560
10699SOL    HW233314   4.858   3.264   1.553 -0.7158 -0.2772  0.3208
10700SOL     OW33315   5.478   2.310   0.163  0.5521  0.6350 -0.3259
10700SOL    HW133316   5.387   2.333   0.178  0.3182 -0.0860 -0.5981
10700SOL    HW233317   5.480   2.279   0.072  0.6068 -1.5394  0.3718
10701SOL     OW33318   4.069   3.493   1.172 -0.1683 -0.1087  0.2973
10701SOL    HW133319   4.044   3.483   1.264  1.1242 -1.7473  0.5256
10701SOL    HW233320   3.986   3.504   1.126 -0.8300  1.0271  1.6528
10702SOL     OW33321   4.208   2.629   1.624 -0.3159  0.1615 -0.3707
10702SOL    HW133322   4.231   2.708   1.673 -0.4022  0.6043 -1.0319
10702SOL    HW233323   4.172   2.570   1.690  0.5059  0.3598  0.2687
10703SOL     OW33324   5.394   2.814   1.992 -0.0994  0.5748  0.1625
10703SOL    HW133325   5.419   2.895   2.035  0.0465 -0.5891  2.3896
10703SOL    HW233326   5.407   2.831   1.898  0.2697  2.9573  0.6056
10704SOL     OW33327   4.610   2.195   1.945 -0.4965  0.5609  0.4355
10704SOL    HW133328   4.598   2.189   1.850  0.4814  0.3836  0.3148
10704SOL    HW233329   4.613   2.104   1.975 -1.5326  0.6152  0.7468
10705SOL     OW33330   4.418   2.339   2.120 -0.2663 -0.0458  0.4347
10705SOL    HW133331   4.439   2.429   2.094 -0.5492  0.5299  2.0698
10705SOL    HW233332   4.484   2.285   2.076  1.5948  1.2263  1.5011
10706SOL     OW33333   4.229   2.877   1.165  0.1671 -0.1213 -0.0924
10706SOL    HW133334   4.226   2.965   1.203  1.0351  0.5611 -1.5019
10706SOL    HW233335   4.210   2.818   1.238 -1.1966  1.2645  0.7265
10707SOL     OW33336   4.877   2.604   0.824 -0.0141 -0.2163  0.9035
10707SOL    HW133337   4.895   2.512   0.841 -0.6117 -0.4262  0.4425
10707SOL    HW233338   4.845   2.638   0.908 -3.0773 -1.2789  0.3167
10708SOL     OW33339   4.810   2.515   0.332 -0.0941  0.6047 -0.4729
10708SOL    HW133340   4.742   2.485   0.392 -1.0509  1.3678 -1.1428
10708SOL    HW233341   4.801   2.610   0.330 -1.4747  0.5426 -3.3238
10709SOL     OW33342   4.122   2.263   1.509  0.3192  0.3425 -0.0285
10709SOL    HW133343   4.199   2.275   1.565  0.4506 -1.5833  0.2666
10709SOL    HW233344   4.060   2.215   1.564  0.6868 -2.1714 -1.6360
10710SOL     OW33345   3.441   3.057   1.191 -0.5998 -0.1165 -0.0162
10710SOL    HW133346   3.509   3.022   1.249 -1.4253 -0.5694  0.7193
10710SOL    HW233347   3.401   3.128   1.242 -0.0138  0.8401 -0.8526
10711SOL     OW33348   4.444   2.764   1.013  0.1155 -0.2612 -0.3837
10711SOL    HW133349   4.412   2.789   0.926  0.5866 -0.1152 -0.5203
10711SOL    HW233350   4.389   2.813   1.074  0.5303  0.5318 -0.6305
10712SOL     OW33351   5.908   2.531   2.162 -0.2840  0.2265  0.2129
10712SOL    HW133352   5.880   2.528   2.253 -1.0872  1.4918  0.0418
10712SOL    HW233353   5.856   2.602   2.123  0.4336  0.0792 -1.0924
10713SOL     OW33354   4.235   1.422   0.180 -0.3209  0.2408  0.0890
10713SOL    HW133355   4.299   1.373   0.230 -1.1629 -0.1519  0.8035
10713SOL    HW233356   4.273   1.510   0.172 -0.0828  0.2608  1.2596
10714SOL     OW33357   5.703   2.433   0.220 -0.4492  0.7374  0.9184
10714SOL    HW133358   5.706   2.415   0.314 -0.2214  0.4047  0.8485
10714SOL    HW233359   5.633   2.377   0.186  1.0156 -0.9352  0.5136
10715SOL     OW33360   4.029   2.650   0.911 -0.4033  0.2904 -0.7863
10715SOL    HW133361   4.018   2.745   0.914 -2.0437  0.1091 -0.0157
10715SOL    HW233362   4.077   2.629   0.990  1.0660  0.5752 -1.5707
10716SOL     OW33363   5.505   3.472   1.439  0.4401  0.4401 -0.4372
10716SOL    HW133364   5.495   3.445   1.531 -0.8303  1.5175 -0.2269
10716SOL    HW233365   5.443   3.416   1.392  1.4626 -0.4705 -0.7350
10717SOL     OW33366   3.984   2.706   2.043  0.3584 -0.1986  0.3652
10717SOL    HW133367   4.026   2.791   2.046  0.7451 -0.3704 -0.0381
10717SOL    HW233368   4.016   2.660   2.120 -0.7220  0.4152  1.1973
10718SOL     OW33369   5.287   2.057   8.525 -0.0195 -0.0801  0.6449
10718SOL    HW133370   5.226   1.995   8.487  1.0475 -1.2417  0.7677
10718SOL    HW233371   5.238   2.101   8.594 -1.1578  0.1263 -0.2501
10719SOL     OW33372   5.059   2.609   0.330  0.1178 -0.1028 -0.0673
10719SOL    HW133373   5.134   2.553   0.312  0.4545 -0.9999  3.3790
10719SOL    HW233374   4.983   2.553   0.317  0.1867 -0.0317 -0.8155
10720SOL     OW33375   5.092   3.209   0.795 -0.0606 -0.1484 -0.2557
10720SOL    HW133376   5.099   3.291   0.746  1.6534  0.5075  0.9819
10720SOL    HW233377   5.154   3.150   0.753  0.6502  0.0796  0.4418
10721SOL     OW33378   3.862   2.798   1.202 -0.0873 -0.4871 -0.5785
10721SOL    HW133379   3.935   2.768   1.256 -0.4174 -1.7242 -0.7701
10721SOL    HW233380   3.832   2.879   1.244  0.1106 -1.0373  0.6897
10722SOL     OW33381   4.208   2.571   1.128  0.6507 -0.3530  0.1271
10722SOL    HW133382   4.201   2.516   1.207  0.9987  0.6035  0.8393
10722SOL    HW233383   4.302   2.581   1.115  0.5888 -0.2762 -0.2612
10723SOL     OW33384   4.962   2.696   1.924  0.6508  0.0285  0.2380
10723SOL    HW133385   4.880   2.655   1.951 -0.1919  1.2604 -0.3685
10723SOL    HW233386   4.985   2.651   1.843 -1.5891  2.2763 -1.8063
10724SOL     OW33387   4.551   2.139   1.005 -0.4836  0.0643 -0.1330
10724SOL    HW133388   4.574   2.165   0.915 -1.6698 -0.1498 -0.5143
10724SOL    HW233389   4.461   2.169   1.016  0.0991  1.3841  1.5089
10725SOL     OW33390   3.496   3.604   0.942  0.1954  0.6039  0.3079
10725SOL    HW133391   3.403   3.595   0.920  0.5511 -0.6412 -0.7840
10725SOL    HW233392   3.498   3.607   1.038 -0.9763  0.8667  0.3413
10726SOL     OW33393   4.254   3.277   1.094 -0.3004 -0.5905 -0.3598
10726SOL    HW133394   4.184   3.342   1.107  1.3764  1.0576  1.1412
10726SOL    HW233395   4.259   3.265   0.999 -1.7272  0.2472 -0.5687
10727SOL     OW33396   4.795   2.753   1.051  0.7296 -0.6598 -0.4122
10727SOL    HW133397   4.783   2.845   1.076 -0.4249 -0.5134 -1.4212
10727SOL    HW233398   4.728   2.706   1.102  0.8882 -0.8625 -0.3899
10728SOL     OW33399   3.965   2.447   1.363  0.4190  0.3484 -0.1430
10728SOL    HW133400   4.027   2.377   1.386 -0.1083 -0.0349  0.1457
10728SOL    HW233401   3.946   2.490   1.446 -0.7743 -0.4391  0.0101
10729SOL     OW33402   4.020   2.036   1.905  0.1227  0.1487 -0.3020
10729SOL    HW133403   3.956   1.973   1.871 -0.0180 -0.3557  0.8450
10729SOL    HW233404   3.977   2.121   1.894 -1.4764 -0.2932  1.8736
10730SOL     OW33405   4.474   3.011   1.556  0.1668 -0.3270  0.0752
10730SOL    HW133406   4.569   2.998   1.548  0.5136  1.9482 -0.2138
10730SOL    HW233407   4.465   3.081   1.620 -1.1905  0.7603 -1.2407
10731SOL     OW33408   4.108   2.546   0.429  0.4187 -0.2257  0.1379
10731SOL    HW133409   4.132   2.508   0.514  0.8603 -1.0666 -0.3467
10731SOL    HW233410   4.096   2.639   0.447  1.0079 -0.3054  1.0308
10732SOL     OW33411   4.980   2.104   1.000  0.2327 -0.5319 -0.0671
10732SOL    HW133412   5.064   2.131   0.963  0.5045 -1.5000 -0.1912
10732SOL    HW233413   5.001   2.072   1.088  0.2457 -2.1157 -0.6098
10733SOL     OW33414   4.353   2.469   1.402 -0.7476 -0.2386 -0.3133
10733SOL    HW133415   4.351   2.564   1.412 -1.5812 -0.2650 -0.2083
10733SOL    HW233416   4.353   2.436   1.492 -1.4938 -0.3520 -0.3500
10734SOL     OW33417   3.806   2.453   0.422 -0.7687 -0.0045 -0.1179
10734SOL    HW133418   3.891   2.489   0.395  0.3092 -1.5281  1.0891
10734SOL    HW233419   3.743   2.497   0.365  0.6379  2.3857  0.0231
10735SOL     OW33420   3.787   3.228   1.148  0.6310  0.3467 -0.0071
10735SOL    HW133421   3.757   3.138   1.137 -0.6096  0.4443  1.9956
10735SOL    HW233422   3.812   3.256   1.060 -0.8664 -1.2800 -1.0218
10736SOL     OW33423   4.777   3.000   1.130 -0.3918  0.7472  0.3524
10736SOL    HW133424   4.726   3.067   1.176 -0.8962  0.3345  0.4020
10736SOL    HW233425   4.866   3.011   1.164 -0.7290  0.5191  1.3634
10737SOL     OW33426   4.798   2.980   0.429  0.0991 -0.1017  0.2764
10737SOL    HW133427   4.863   3.007   0.364  0.0204 -1.4782 -0.3961
10737SOL    HW233428   4.763   2.898   0.395  1.9001 -2.3133  3.2744
10738SOL     OW33429   4.798   3.483   1.081 -0.5655  0.6165  0.0449
10738SOL    HW133430   4.805   3.523   1.167  2.6169  1.4995 -0.4801
10738SOL    HW233431   4.723   3.424   1.088 -0.8955  1.2264  3.1508
10739SOL     OW33432   5.143   3.471   0.691  0.0675 -0.1475  0.4844
10739SOL    HW133433   5.088   3.542   0.724  1.3058  3.1276 -3.5928
10739SOL    HW233434   5.230   3.489   0.727  0.2081 -0.0853  0.1189
10740SOL     OW33435   4.075   3.398   0.742 -0.0928  0.4132  0.0219
10740SOL    HW133436   4.100   3.459   0.673  1.2503 -1.1396 -0.9357
10740SOL    HW233437   4.156   3.352   0.764 -1.1368 -1.3722  0.3327
10741SOL     OW33438   4.431   2.037   8.500 -0.3395  0.3137  0.0306
10741SOL    HW133439   4.386   2.121   8.495  0.7788  0.9330  0.0935
10741SOL    HW233440   4.504   2.045   8.439  1.5887  0.5534  2.2229
10742SOL     OW33441   5.512   2.090   0.362  0.7157  0.6429 -0.6386
10742SOL    HW133442   5.597   2.093   0.406  0.1030 -0.0555  0.6805
10742SOL    HW233443   5.472   2.174   0.382  0.5896  0.4718 -0.1470
10743SOL     OW33444   5.388   3.535   0.814  0.1398 -0.3071 -0.0459
10743SOL    HW133445   5.420   3.603   0.755  1.5230 -0.7077  0.2046
10743SOL    HW233446   5.468   3.492   0.846 -0.6527 -1.1328  0.8726
10744SOL     OW33447   5.155   2.828   0.492 -0.7946 -0.1726  0.2808
10744SOL    HW133448   5.111   2.769   0.432  1.2824 -1.1061 -0.3993
10744SOL    HW233449   5.166   2.777   0.573  2.0427 -1.2509 -0.6850
10745SOL     OW33450   4.294   3.275   1.521 -0.1393 -0.0024  0.0757
10745SOL    HW133451   4.354   3.253   1.593 -0.1199 -0.4282 -0.0706
10745SOL    HW233452   4.304   3.369   1.510  0.5502 -0.0802  0.0138
10746SOL     OW33453   4.323   3.503   0.216 -0.5243 -0.0094  0.0069
10746SOL    HW133454   4.232   3.473   0.217  0.0865 -2.0196  0.3312
10746SOL    HW233455   4.343   3.519   0.124 -0.5436 -1.8444 -0.3413
10747SOL     OW33456   5.317   3.362   1.262  0.0866  0.1090 -0.1592
10747SOL    HW133457   5.243   3.404   1.306  1.0312  0.7787  0.8307
10747SOL    HW233458   5.287   3.349   1.172 -1.3172  0.1420  0.2757
10748SOL     OW33459   5.384   1.913   0.602 -0.2305  0.2691  0.5206
10748SOL    HW133460   5.426   1.983   0.652  0.1341 -0.0564  0.6820
10748SOL    HW233461   5.291   1.931   0.608 -0.2364 -0.1104  1.8652
10749SOL     OW33462   3.941   2.398   0.688 -0.5912 -0.0030  0.5267
10749SOL    HW133463   3.887   2.475   0.706  0.6247  0.8282  0.7086
10749SOL    HW233464   3.914   2.370   0.601  0.6565  2.1411 -0.6366
10750SOL     OW33465   4.963   3.244   0.073  0.3029  0.4427 -0.5216
10750SOL    HW133466   4.898   3.290   0.126 -0.1344 -0.5180 -0.2012
10750SOL    HW233467   4.935   3.260  -0.017 -0.5054 -0.1267 -0.3831
10751SOL     OW33468   4.097   3.101   1.593  0.3788 -0.3038  0.3857
10751SOL    HW133469   4.053   3.107   1.508  2.1533 -2.2322 -0.7854
10751SOL    HW233470   4.160   3.173   1.593  1.8608 -1.5325 -0.9457
10752SOL     OW33471   4.666   2.770   0.343 -0.1177  0.4976 -0.5676
10752SOL    HW133472   4.616   2.769   0.424 -1.3206  0.3672 -1.2939
10752SOL    HW233473   4.605   2.739   0.276  1.9040 -3.2617 -0.9633
10753SOL     OW33474   5.210   3.654   8.718 -0.0180 -0.0567  0.2605
10753SOL    HW133475   5.132   3.608   8.748 -0.1210  0.1725  0.3449
10753SOL    HW233476   5.225   3.722   8.785 -2.3879  2.9546 -1.9571
10754SOL     OW33477   3.981   3.165   1.341 -0.2958 -0.0932  0.4298
10754SOL    HW133478   3.899   3.161   1.293 -0.2732 -0.5917  0.4321
10754SOL    HW233479   4.026   3.242   1.306 -0.5323 -0.1213  0.0675
10755SOL     OW33480   5.099   2.934   1.804  0.2571 -0.3575  0.1032
10755SOL    HW133481   5.067   2.845   1.821 -0.4093 -0.0023  0.8046
10755SOL    HW233482   5.150   2.926   1.724 -2.2913 -0.8203 -1.5986
10756SOL     OW33483   5.048   3.185   0.443  0.6842  0.0713 -0.0741
10756SOL    HW133484   4.967   3.233   0.463  0.5406 -0.4368  0.6018
10756SOL    HW233485   5.020   3.112   0.389  0.3529 -1.2778  1.8086
10757SOL     OW33486   4.595   2.153   0.741 -0.2706 -0.2131  0.0445
10757SOL    HW133487   4.626   2.132   0.652  0.8517 -0.1578  0.3986
10757SOL    HW233488   4.560   2.241   0.734  0.7490  0.1983 -0.1528
10758SOL     OW33489   4.264   3.125   0.639 -0.0635 -0.0471 -0.0757
10758SOL    HW133490   4.180   3.079   0.643 -1.2662  2.0510  0.4009
10758SOL    HW233491   4.264   3.169   0.554  0.7095 -0.2688 -0.2010
10759SOL     OW33492   5.097   2.427   1.463  0.1205 -0.1199  0.6387
10759SOL    HW133493   5.095   2.519   1.435 -0.6639 -0.0771  0.8003
10759SOL    HW233494   5.021   2.388   1.419 -0.3117 -0.3809  1.5891
10760SOL     OW33495   4.064   3.347   0.360  0.6171  0.1900 -0.2545
10760SOL    HW133496   3.979   3.322   0.394  0.8542 -1.2980 -0.6731
10760SOL    HW233497   4.104   3.400   0.430 -0.0652 -0.3258  0.5362
10761SOL     OW33498   3.465   3.600   1.555  0.1478 -0.3702 -0.1936
10761SOL    HW133499   3.386   3.550   1.577 -0.6820 -0.0740 -2.3206
10761SOL    HW233500   3.453   3.684   1.600  0.9095 -1.4966  2.2779
10762SOL     OW33501   4.474   2.092   1.683 -0.1136  0.7677  0.9040
10762SOL    HW133502   4.543   2.036   1.649  0.7207  1.1161  1.9797
10762SOL    HW233503   4.393   2.042   1.668  0.5131 -0.2818  0.9653
10763SOL     OW33504   3.849   2.075   0.158  0.4142  0.1072 -0.8021
10763SOL    HW133505   3.905   2.019   0.212  0.2608 -0.8060 -1.5582
10763SOL    HW233506   3.806   2.014   0.097  1.5464  1.2226 -2.8004
10764SOL     OW33507   4.823   2.666   1.520  0.1507  0.2602 -0.1975
10764SOL    HW133508   4.899   2.670   1.578 -0.7216  0.7099  0.9413
10764SOL    HW233509   4.793   2.756   1.512 -0.6793  0.0090 -0.0645
10765SOL     OW33510   4.043   2.271   0.072 -0.2080 -0.3924 -0.4383
10765SOL    HW133511   4.031   2.183   0.106  1.4967  0.0287  1.4903
10765SOL    HW233512   3.957   2.312   0.079 -1.2031 -2.0567 -2.0318
10766SOL     OW33513   4.974   3.023   0.225 -0.3556 -0.0394  0.3917
10766SOL    HW133514   4.969   2.937   0.182 -1.0601  0.2199 -0.0686
10766SOL    HW233515   4.984   3.085   0.152 -1.9114  0.4374  0.5557
10767SOL     OW33516   4.270   2.925   1.688  0.1022  0.3082 -0.2216
10767SOL    HW133517   4.204   2.987   1.655  1.9581  1.5081 -1.9273
10767SOL    HW233518   4.347   2.942   1.634  0.8925 -3.1798 -0.4209
10768SOL     OW33519   5.221   3.715   0.970 -0.1726 -0.4338  0.5913
10768SOL    HW133520   5.306   3.676   0.949  0.0386  0.7759 -0.9478
10768SOL    HW233521   5.242   3.784   1.033 -0.1056 -0.5151  0.6599
10769SOL     OW33522   4.237   2.407   1.877 -0.4849  0.6166 -0.6739
10769SOL    HW133523   4.254   2.490   1.922 -0.6499 -0.0557  0.6790
10769SOL    HW233524   4.173   2.362   1.932  2.9061 -2.4222  1.2824
10770SOL     OW33525   5.298   2.812   2.322 -0.4520 -0.7115 -0.0260
10770SOL    HW133526   5.252   2.884   2.366  0.2019 -1.3172  1.7648
10770SOL    HW233527   5.287   2.829   2.229 -1.2065  1.1284  0.3609
10771SOL     OW33528   5.470   2.868   1.626  0.1564  0.0087 -0.2575
10771SOL    HW133529   5.497   2.957   1.651 -0.7403  1.0079 -2.5152
10771SOL    HW233530   5.548   2.830   1.586  1.4605 -1.4353  3.2621
10772SOL     OW33531   5.017   1.999   0.293  0.3607  0.0058 -0.2555
10772SOL    HW133532   4.971   1.933   0.344  1.1121  0.4675  1.0724
10772SOL    HW233533   4.958   2.074   0.292 -0.1950 -0.4246 -1.1745
10773SOL     OW33534   3.615   2.848   0.728 -0.7215  0.4629  0.3811
10773SOL    HW133535   3.570   2.918   0.776 -0.3629 -0.3481  1.9826
10773SOL    HW233536   3.638   2.888   0.644  0.7369  2.8005  1.7451
10774SOL     OW33537   5.963   1.919   2.260  0.1967  0.3235  0.2508
10774SOL    HW133538   5.872   1.928   2.288  0.5594  2.0101  1.0219
10774SOL    HW233539   5.959   1.864   2.182 -1.3494 -0.5645  0.9149
10775SOL     OW33540   5.107   2.558   1.727 -0.2706  0.1038  0.0739
10775SOL    HW133541   5.086   2.504   1.651  0.2722  0.0661 -0.0509
10775SOL    HW233542   5.202   2.568   1.724 -0.2971  0.5076  0.4745
10776SOL     OW33543   4.596   3.170   0.535  0.0260  0.0251 -0.5793
10776SOL    HW133544   4.521   3.155   0.477  1.4713 -0.5686 -2.3977
10776SOL    HW233545   4.671   3.134   0.487  1.1247 -1.8897  2.3026
10777SOL     OW33546   4.575   3.636   0.712  0.2485 -0.0758  0.3301
10777SOL    HW133547   4.544   3.656   0.624 -2.3384  1.3142  1.4406
10777SOL    HW233548   4.629   3.558   0.702 -2.6982 -2.0383 -2.0636
10778SOL     OW33549   4.554   2.979   0.818  0.2552  0.3100 -0.0703
10778SOL    HW133550   4.621   2.926   0.861 -0.4648 -0.8152 -0.2885
10778SOL    HW233551   4.603   3.049   0.775  1.5344 -1.4911 -1.7546
10779SOL     OW33552   4.741   3.026   0.040 -0.1972  0.1514  0.2668
10779SOL    HW133553   4.806   3.004  -0.027 -0.1622  0.5511  0.1718
10779SOL    HW233554   4.743   3.121   0.046 -1.2687  0.2258 -0.2358
10780SOL     OW33555   5.901   3.741   1.066 -0.0999 -0.3211  0.3757
10780SOL    HW133556   5.898   3.776   1.155  2.0965  0.6977  0.1204
10780SOL    HW233557   5.923   3.649   1.076 -0.8723 -0.4564  0.9003
10781SOL     OW33558   3.610   3.383   1.732  0.4421  0.2544  0.7687
10781SOL    HW133559   3.559   3.456   1.698 -0.9783 -0.6127  0.9266
10781SOL    HW233560   3.678   3.368   1.666 -2.3216 -1.5134 -1.9981
10782SOL     OW33561   3.732   3.133   0.710 -0.7855  0.1594  0.2042
10782SOL    HW133562   3.671   3.144   0.782 -0.9589  3.2856 -0.2858
10782SOL    HW233563   3.677   3.114   0.634 -0.9015  0.2129  0.2749
10783SOL     OW33564   5.255   2.298   1.229  0.1151 -0.6132  0.4808
10783SOL    HW133565   5.161   2.290   1.213 -0.0653  0.7859  0.7401
10783SOL    HW233566   5.262   2.335   1.317  0.8222  1.2876 -0.3252
10784SOL     OW33567   4.200   2.610   0.711 -0.3261 -0.2119  0.6426
10784SOL    HW133568   4.226   2.702   0.710 -0.2459 -0.2352  0.5285
10784SOL    HW233569   4.126   2.606   0.772 -2.7500  0.5598 -2.0587
10785SOL     OW33570   4.989   3.055   1.281  0.6104  0.5991 -0.1430
10785SOL    HW133571   5.074   3.081   1.317  0.5825 -0.2464  0.5593
10785SOL    HW233572   4.926   3.079   1.348  0.5734 -1.1044  0.5027
10786SOL     OW33573   4.651   2.635   1.266 -0.1783  0.1990  0.3378
10786SOL    HW133574   4.587   2.703   1.292 -1.4550 -1.4793  1.8860
10786SOL    HW233575   4.691   2.608   1.349 -0.1723 -1.3821 -0.1616
10787SOL     OW33576   4.384   3.253   0.355 -0.3732  0.2391  0.4659
10787SOL    HW133577   4.436   3.230   0.278 -0.8228 -1.0029  0.5193
10787SOL    HW233578   4.363   3.346   0.342  1.4497  0.6496  0.2288
10788SOL     OW33579   5.224   2.190   0.895  0.2665 -0.4524  0.4934
10788SOL    HW133580   5.242   2.279   0.925 -0.7958  0.5636 -1.6814
10788SOL    HW233581   5.311   2.151   0.884  0.8774  1.2462 -1.0895
10789SOL     OW33582   4.940   1.990   1.248  0.3267  0.2140 -0.1965
10789SOL    HW133583   4.848   1.965   1.237  0.5835 -0.3490 -1.1676
10789SOL    HW233584   4.969   1.941   1.325  0.1981 -0.7436 -0.7400
10790SOL     OW33585   4.678   3.382   0.703 -0.4813  0.1330  1.0861
10790SOL    HW133586   4.711   3.329   0.775  2.4292 -0.6627 -0.7005
10790SOL    HW233587   4.644   3.319   0.639  2.4806  0.2515 -0.7994
10791SOL     OW33588   4.420   3.575   1.529  1.2776 -0.0073 -0.1887
10791SOL    HW133589   4.328   3.603   1.526  0.6760 -1.7451  0.5010
10791SOL    HW233590   4.455   3.619   1.606  0.6533 -0.2869  0.2692
10792SOL     OW33591   4.928   1.770   0.114 -0.0049  0.1914  0.0433
10792SOL    HW133592   4.923   1.798   0.205  1.4614  0.1374  0.1603
10792SOL    HW233593   5.003   1.818   0.078  1.0522 -1.6927 -0.4141
10793SOL     OW33594   4.599   2.152   0.463  0.3595  0.0062 -0.7883
10793SOL    HW133595   4.546   2.100   0.403  2.5521  1.5514 -4.3802
10793SOL    HW233596   4.556   2.238   0.466  0.0598 -0.1599  0.2593
10794SOL     OW33597   5.110   2.051   0.654  0.2260  0.5112  0.3622
10794SOL    HW133598   5.086   2.106   0.580  0.0304  1.1824  0.9071
10794SOL    HW233599   5.117   2.113   0.728 -0.6330 -0.2783  1.1310
10795SOL     OW33600   3.570   2.934   0.304  0.3624  0.0135 -0.5889
10795SOL    HW133601   3.511   2.875   0.256  0.0830  0.4218 -0.7551
10795SOL    HW233602   3.601   2.996   0.238 -0.1316  0.6626 -0.2262
10796SOL     OW33603   4.809   3.620   0.160 -0.1149 -0.3821  0.0259
10796SOL    HW133604   4.804   3.664   0.075  1.6598 -1.0545 -0.4791
10796SOL    HW233605   4.761   3.677   0.220  0.4033  1.1994 -0.9959
10797SOL     OW33606   3.799   2.531   1.929 -0.7512  0.3092 -0.0451
10797SOL    HW133607   3.872   2.580   1.966  0.1830 -0.2131 -1.1223
10797SOL    HW233608   3.728   2.594   1.922 -0.0138  1.1536 -0.0980
10798SOL     OW33609   3.832   2.089   3.006 -0.2036  0.3074  0.2031
10798SOL    HW133610   3.806   2.089   3.098 -0.7430 -0.2581  0.0571
10798SOL    HW233611   3.823   2.180   2.978 -0.6320  0.3720  0.5450
10799SOL     OW33612   3.724   2.420   2.658 -0.6373 -0.1223 -0.4382
10799SOL    HW133613   3.723   2.516   2.662  2.2752  0.0514 -1.6257
10799SOL    HW233614   3.748   2.400   2.568  0.7574 -1.9105  0.2624
10800SOL     OW33615   4.420   2.966   3.138 -0.4596  0.7093 -0.0863
10800SOL    HW133616   4.325   2.974   3.144 -0.5687  1.5826 -2.0524
10800SOL    HW233617   4.451   2.981   3.227 -2.1754 -0.2917  0.7421
10801SOL     OW33618   5.116   3.217   2.738 -0.4739 -0.5699  0.0457
10801SOL    HW133619   5.164   3.269   2.675 -1.7021  0.4803 -0.0693
10801SOL    HW233620   5.040   3.271   2.761 -0.6885 -1.4349  1.5075
10802SOL     OW33621   4.948   2.393   2.130  0.7101  0.5700 -0.4736
10802SOL    HW133622   4.900   2.417   2.051  0.6052  0.8296 -0.3358
10802SOL    HW233623   4.894   2.428   2.201  1.3873  1.3960 -0.3402
10803SOL     OW33624   5.175   2.350   2.259 -0.0030  0.5536 -0.1604
10803SOL    HW133625   5.230   2.291   2.208 -0.3623 -0.1058  0.2087
10803SOL    HW233626   5.102   2.371   2.201 -0.0100  0.4286 -0.1968
10804SOL     OW33627   4.191   2.695   2.591  1.1495 -0.1125 -0.6914
10804SOL    HW133628   4.278   2.711   2.628  0.8305 -2.0964  1.1042
10804SOL    HW233629   4.188   2.600   2.577 -1.2679 -0.3231  0.8193
10805SOL     OW33630   4.637   3.028   4.034  0.4023  0.4575  0.0807
10805SOL    HW133631   4.631   3.123   4.024  0.7411  0.7545  2.3161
10805SOL    HW233632   4.548   2.997   4.018  0.4198  1.0300 -1.3457
10806SOL     OW33633   4.029   3.388   2.505 -0.0185 -0.2437  0.1182
10806SOL    HW133634   4.001   3.325   2.571  2.3056 -0.2382  1.2263
10806SOL    HW233635   4.079   3.336   2.442 -0.9217  0.0004 -0.8286
10807SOL     OW33636   4.349   2.944   4.026  0.4717  0.1282  0.4870
10807SOL    HW133637   4.284   2.998   4.070  0.0619  0.9499 -1.0788
10807SOL    HW233638   4.314   2.931   3.938  2.3194  0.4311 -0.3310
10808SOL     OW33639   3.983   3.108   3.029 -0.0163  0.1606 -0.3233
10808SOL    HW133640   3.970   3.065   2.944 -0.8678  0.2441 -0.2432
10808SOL    HW233641   3.989   3.202   3.008 -0.7709  0.2325 -0.2473
10809SOL     OW33642   5.114   3.374   3.176  0.0028  0.1283 -0.0372
10809SOL    HW133643   5.111   3.446   3.238  0.1320 -0.3680  0.5577
10809SOL    HW233644   5.064   3.304   3.218  0.0756 -0.2109 -0.5019
10810SOL     OW33645   4.263   2.175   3.275 -0.1105  0.7960 -0.4853
10810SOL    HW133646   4.350   2.136   3.260  0.1683  1.7289 -1.4635
10810SOL    HW233647   4.232   2.197   3.187 -0.7209  1.7561 -0.0438
10811SOL     OW33648   5.425   2.418   2.441  0.9001  0.4121  0.1069
10811SOL    HW133649   5.401   2.328   2.463  1.8288 -0.4813 -2.1979
10811SOL    HW233650   5.367   2.472   2.494 -0.6023 -1.5500  0.5859
10812SOL     OW33651   3.901   3.429   2.190 -0.2257  0.0165 -0.0915
10812SOL    HW133652   3.887   3.514   2.231 -0.7356 -0.4173  0.6478
10812SOL    HW233653   3.995   3.425   2.174  0.4628 -0.8423  3.4102
10813SOL     OW33654   4.840   3.088   3.508 -0.0916  0.7507  0.0140
10813SOL    HW133655   4.797   3.129   3.583 -0.5500  0.0700  0.1419
10813SOL    HW233656   4.799   3.001   3.503 -0.2862  0.8976 -1.2035
10814SOL     OW33657   3.540   3.370   2.436 -0.1074 -0.2553  0.4240
10814SOL    HW133658   3.548   3.430   2.362  1.0683 -0.9535 -0.0332
10814SOL    HW233659   3.522   3.428   2.511 -0.5277  0.5222 -0.2602
10815SOL     OW33660   3.354   3.128   2.823  0.1521 -0.3199 -0.0857
10815SOL    HW133661   3.280   3.146   2.881 -0.0175  0.3645 -0.5034
10815SOL    HW233662   3.414   3.075   2.876  0.5571  1.2885  1.1316
10816SOL     OW33663   4.724   2.794   2.129  0.7535 -0.1086  0.4142
10816SOL    HW133664   4.804   2.842   2.109  0.0608  1.4653  1.2642
10816SOL    HW233665   4.671   2.802   2.050  0.8867 -0.0322  0.3324
10817SOL     OW33666   5.240   1.961   3.356  0.0683 -0.1720  0.2628
10817SOL    HW133667   5.232   2.048   3.318 -1.7260 -0.7576 -0.7678
10817SOL    HW233668   5.161   1.950   3.408 -0.1605 -1.5068 -0.3278
10818SOL     OW33669   3.673   2.905   2.597 -0.5261 -0.0011 -0.0151
10818SOL    HW133670   3.633   2.983   2.637 -1.3308 -0.5433  0.2715
10818SOL    HW233671   3.692   2.932   2.507 -2.2538  0.0821 -0.3997
10819SOL     OW33672   5.312   3.581   2.093  0.3430  0.0542 -0.0857
10819SOL    HW133673   5.367   3.636   2.038 -0.5430 -1.2054 -2.3826
10819SOL    HW233674   5.225   3.620   2.088 -0.3767 -1.6407 -2.0495
10820SOL     OW33675   3.492   3.427   2.041  0.8239 -0.4094  0.5985
10820SOL    HW133676   3.532   3.482   1.974  2.1466  0.0493  1.7138
10820SOL    HW233677   3.480   3.486   2.116 -1.8760 -0.5439  0.3880
10821SOL     OW33678   5.746   3.250   2.854 -0.4860  0.3961  0.5041
10821SOL    HW133679   5.740   3.346   2.853 -0.6401  0.3887  0.8498
10821SOL    HW233680   5.656   3.221   2.867 -0.4984  0.1958  0.0038
10822SOL     OW33681   5.758   3.272   2.329 -0.2947 -0.5907  0.3174
10822SOL    HW133682   5.770   3.297   2.420  0.5280 -0.8097  0.2706
10822SOL    HW233683   5.686   3.208   2.331  0.5921 -1.6045  0.9865
10823SOL     OW33684   3.966   2.783   3.489  0.0751 -0.2308 -0.1327
10823SOL    HW133685   4.009   2.762   3.572 -0.0813  1.4454  0.3885
10823SOL    HW233686   4.038   2.791   3.426  0.6580  2.8635  0.8000
10824SOL     OW33687   3.762   3.581   2.497 -0.4116 -0.5074  0.3446
10824SOL    HW133688   3.747   3.674   2.518 -2.4240 -1.1100  1.8992
10824SOL    HW233689   3.856   3.569   2.510 -0.2640  1.0981  1.0711
10825SOL     OW33690   4.831   2.767   3.556  0.3375  0.4173  0.7442
10825SOL    HW133691   4.921   2.767   3.591  0.3716 -3.4066  1.0124
10825SOL    HW233692   4.775   2.760   3.633  0.0867 -1.3095  0.4499
10826SOL     OW33693   4.950   1.748   2.252  0.3971  0.0562  0.2837
10826SOL    HW133694   4.978   1.693   2.179 -0.5011 -1.6215  1.1346
10826SOL    HW233695   4.960   1.692   2.329  1.0791  1.6846  1.4467
10827SOL     OW33696   3.349   3.164   2.384  0.5026  0.2774  0.2162
10827SOL    HW133697   3.341   3.147   2.290 -1.2975  0.1234  0.3670
10827SOL    HW233698   3.428   3.218   2.392  1.6020 -1.0092 -1.1913
10828SOL     OW33699   5.495   3.168   2.684 -0.0353 -0.2667  0.0131
10828SOL    HW133700   5.508   3.123   2.767  1.8428  2.7650  1.5301
10828SOL    HW233701   5.405   3.201   2.688 -0.5164 -1.5178  0.0459
10829SOL     OW33702   4.190   2.374   3.723  0.3679  0.0944  0.3883
10829SOL    HW133703   4.164   2.415   3.805  1.6301  0.9620  0.3747
10829SOL    HW233704   4.182   2.443   3.657  1.7463  0.1323  0.2303
10830SOL     OW33705   5.262   3.212   2.985  0.4588  0.3330  0.2617
10830SOL    HW133706   5.226   3.286   3.034  0.7166  0.8804 -0.3560
10830SOL    HW233707   5.212   3.211   2.903  2.4356  1.7387 -1.0637
10831SOL     OW33708   5.390   3.414   2.329  0.0470  0.3945 -0.0914
10831SOL    HW133709   5.430   3.334   2.295  1.9689  1.1032  0.3976
10831SOL    HW233710   5.357   3.459   2.251 -0.7356 -0.6589 -0.4048
10832SOL     OW33711   4.334   2.773   2.177  0.1742 -0.0631  0.3532
10832SOL    HW133712   4.273   2.723   2.231 -0.2122  0.8824  0.8147
10832SOL    HW233713   4.355   2.850   2.230  0.1898  0.6307 -0.6391
10833SOL     OW33714   5.063   2.790   2.770 -0.2074 -0.2595  0.4290
10833SOL    HW133715   5.021   2.712   2.734  0.8088 -0.5207 -0.2483
10833SOL    HW233716   5.027   2.862   2.718  2.8898 -0.8259 -2.8822
10834SOL     OW33717   5.190   3.360   2.006  0.6726  0.2633  0.3234
10834SOL    HW133718   5.111   3.404   1.974  0.5819 -0.3525 -0.3269
10834SOL    HW233719   5.255   3.430   2.013 -0.1450  0.9373  1.6889
10835SOL     OW33720   4.653   2.387   3.229  0.6960 -0.3300 -0.2083
10835SOL    HW133721   4.606   2.470   3.225 -2.9456 -2.0857  1.4082
10835SOL    HW233722   4.706   2.384   3.149  0.2596  3.0669 -0.7428
10836SOL     OW33723   4.633   2.364   3.727 -0.1573  0.2227  0.1961
10836SOL    HW133724   4.697   2.306   3.686 -0.6911  0.1909 -0.6092
10836SOL    HW233725   4.562   2.371   3.663 -0.3029  1.4124  0.4649
10837SOL     OW33726   4.739   2.779   3.288  0.0540 -1.1677 -0.0182
10837SOL    HW133727   4.661   2.724   3.284 -1.1772  0.4503  0.4444
10837SOL    HW233728   4.771   2.770   3.378  1.0300 -2.6205 -0.4905
10838SOL     OW33729   4.808   2.209   3.567  0.1407 -0.5513  0.3109
10838SOL    HW133730   4.890   2.159   3.563  0.2435 -0.3852  0.3308
10838SOL    HW233731   4.830   2.294   3.528  0.5538  0.2719  2.1913
10839SOL     OW33732   5.230   2.260   1.923 -0.2653 -0.2396 -0.2084
10839SOL    HW133733   5.279   2.342   1.925 -0.0760 -0.3472  1.5849
10839SOL    HW233734   5.168   2.270   1.851 -0.2186  1.4634 -0.0369
10840SOL     OW33735   3.953   2.384   2.941 -0.0720 -0.1987 -0.3550
10840SOL    HW133736   3.975   2.352   2.854  0.1126  0.7793 -0.6793
10840SOL    HW233737   3.969   2.478   2.937  0.7116 -0.2456  0.9761
10841SOL     OW33738   4.834   2.059   1.840 -0.0170  0.2605 -0.0996
10841SOL    HW133739   4.901   2.033   1.903 -0.3001  2.2293  1.1089
10841SOL    HW233740   4.882   2.082   1.761  0.3488 -2.2747 -0.6966
10842SOL     OW33741   5.255   2.216   3.541 -0.1596 -0.7122  0.2726
10842SOL    HW133742   5.341   2.234   3.579  1.0873 -1.8647 -1.7896
10842SOL    HW233743   5.263   2.244   3.450 -1.9178 -1.0416 -0.0129
10843SOL     OW33744   5.233   3.049   2.464  0.4760  0.3911 -0.5168
10843SOL    HW133745   5.150   3.098   2.465  0.7736  0.9027 -0.7100
10843SOL    HW233746   5.242   3.016   2.554 -0.1525 -0.0428 -0.6047
10844SOL     OW33747   4.351   2.161   2.618 -0.1663  0.2979 -1.0480
10844SOL    HW133748   4.303   2.244   2.623 -0.5362  0.0117  0.6437
10844SOL    HW233749   4.370   2.139   2.709 -0.7648 -1.8669 -1.4051
10845SOL     OW33750   4.734   3.442   2.553  0.2481  0.5875 -0.3122
10845SOL    HW133751   4.722   3.537   2.560 -0.9739  0.4317 -0.1808
10845SOL    HW233752   4.785   3.431   2.473  1.1317  1.4003  0.1103
10846SOL     OW33753   5.643   3.517   2.762  0.0841 -0.4233 -0.9945
10846SOL    HW133754   5.609   3.502   2.673 -0.5855  2.2178 -1.2764
10846SOL    HW233755   5.570   3.557   2.809  1.0905  0.2082  0.0925
10847SOL     OW33756   4.434   3.047   3.400  0.4091  0.0806 -0.2325
10847SOL    HW133757   4.477   3.118   3.449  0.9161 -0.1621 -0.3150
10847SOL    HW233758   4.355   3.087   3.364 -1.0554 -0.2380  2.4328
10848SOL     OW33759   4.025   2.882   2.494 -0.6823  0.1128  0.3971
10848SOL    HW133760   3.946   2.841   2.459  0.3636 -1.6721  0.0011
10848SOL    HW233761   4.079   2.809   2.524  0.8481  1.2778  0.6177
10849SOL     OW33762   5.124   2.941   3.038  0.3356  0.3348  0.8028
10849SOL    HW133763   5.193   2.954   3.102  0.3734  1.6861  0.5258
10849SOL    HW233764   5.113   3.027   2.996  0.1065 -0.4262 -0.7854
10850SOL     OW33765   4.003   3.048   3.768  0.1723 -0.2186 -0.0450
10850SOL    HW133766   4.095   3.074   3.762  0.1583 -0.2872 -0.6892
10850SOL    HW233767   3.956   3.115   3.718  0.1393 -1.4455 -1.7572
10851SOL     OW33768   4.063   2.267   3.422 -0.1505  0.0366 -0.3268
10851SOL    HW133769   4.133   2.220   3.376 -1.6727 -2.0048 -0.6642
10851SOL    HW233770   4.044   2.342   3.365  1.9746  0.8599 -0.0316
10852SOL     OW33771   5.527   3.116   2.328 -0.2899 -0.0309  0.4748
10852SOL    HW133772   5.513   3.056   2.402 -0.4284 -0.1591  0.3451
10852SOL    HW233773   5.452   3.101   2.271  0.8840 -1.4768 -0.7410
10853SOL     OW33774   4.172   3.372   2.248  0.1253 -0.1800 -0.0377
10853SOL    HW133775   4.238   3.316   2.206  0.1402  0.2729 -0.6303
10853SOL    HW233776   4.219   3.453   2.267  0.0648 -0.3061  0.6904
10854SOL     OW33777   5.075   2.056   3.014  0.4238 -0.3195 -0.0021
10854SOL    HW133778   5.081   2.108   2.934  0.9565 -2.0364 -1.1326
10854SOL    HW233779   5.134   2.100   3.075 -2.0645  2.6421  0.4997
10855SOL     OW33780   4.887   3.343   2.779  0.1554 -0.1830  0.1992
10855SOL    HW133781   4.864   3.418   2.834  2.0740  0.5081  0.1371
10855SOL    HW233782   4.832   3.353   2.701 -1.2951 -0.1811  1.1807
10856SOL     OW33783   3.167   2.593   1.964  0.3219 -0.3201 -0.3530
10856SOL    HW133784   3.226   2.562   2.033  0.6895 -0.5991 -0.7886
10856SOL    HW233785   3.216   2.581   1.883 -0.7101 -1.4912 -0.8294
10857SOL     OW33786   5.289   1.646   3.659 -0.1596 -0.4329  0.3316
10857SOL    HW133787   5.309   1.740   3.666  3.8091 -0.5954 -4.0408
10857SOL    HW233788   5.208   1.643   3.609  0.8149  0.8166 -1.4293
10858SOL     OW33789   4.287   2.111   2.200  0.0283 -0.3919  0.0391
10858SOL    HW133790   4.297   2.045   2.131  1.7137  1.3059 -1.4357
10858SOL    HW233791   4.329   2.189   2.165 -1.8103  1.4996  1.7558
10859SOL     OW33792   4.355   1.731   3.617 -0.1749  0.1989  0.5180
10859SOL    HW133793   4.429   1.724   3.556 -0.5772  2.0434 -0.2351
10859SOL    HW233794   4.358   1.821   3.650 -1.5057  0.0159  1.2302
10860SOL     OW33795   5.040   2.096   3.640 -0.7553  0.4944  0.3209
10860SOL    HW133796   5.113   2.156   3.625  0.4021 -0.9247  0.0573
10860SOL    HW233797   5.025   2.099   3.735  0.0545  0.3513  0.4587
10861SOL     OW33798   4.229   3.139   2.569 -0.3445  0.1922 -0.7217
10861SOL    HW133799   4.171   3.064   2.554  0.5056 -0.6588  0.0656
10861SOL    HW233800   4.317   3.104   2.556  0.1418  0.7385  0.7911
10862SOL     OW33801   4.445   2.751   2.699 -0.3895  0.1070  0.7267
10862SOL    HW133802   4.519   2.759   2.639 -0.3291 -1.0583  0.6266
10862SOL    HW233803   4.480   2.707   2.776 -1.1008 -1.0789  0.4022
10863SOL     OW33804   4.303   1.966   2.436 -0.2396 -0.3602 -0.4378
10863SOL    HW133805   4.334   2.019   2.509 -3.1903 -0.2134  0.8254
10863SOL    HW233806   4.282   2.029   2.367 -0.4307 -0.2004 -0.2337
10864SOL     OW33807   5.296   2.661   2.557  0.3506 -0.6092  0.0613
10864SOL    HW133808   5.218   2.700   2.598  1.2803  0.7032  0.6483
10864SOL    HW233809   5.310   2.713   2.478  1.9973  0.8109  1.2025
10865SOL     OW33810   4.305   1.695   2.085  0.5711 -0.0703  0.0301
10865SOL    HW133811   4.297   1.772   2.028  1.1094 -0.1026 -0.0959
10865SOL    HW233812   4.332   1.624   2.027 -0.5069 -0.5095  0.0390
10866SOL     OW33813   4.493   2.593   2.031 -0.6424 -0.1771 -0.0548
10866SOL    HW133814   4.464   2.616   1.943  2.2561  1.6779 -0.6367
10866SOL    HW233815   4.476   2.671   2.083  1.9622  0.5526 -0.1576
10867SOL     OW33816   4.504   2.478   3.522  0.3655 -0.9966 -0.4661
10867SOL    HW133817   4.505   2.506   3.430  0.0966 -0.1578 -0.2256
10867SOL    HW233818   4.411   2.469   3.544  0.3299  0.6589  0.2392
10868SOL     OW33819   5.336   3.058   2.156  0.0715  0.4854  0.5049
10868SOL    HW133820   5.245   3.061   2.127  0.6429  4.1796 -1.3387
10868SOL    HW233821   5.386   3.099   2.086  3.8361 -4.3308 -0.1839
10869SOL     OW33822   4.158   3.205   2.842  0.3377 -0.1519 -0.1196
10869SOL    HW133823   4.139   3.191   2.749  2.1814 -1.2377 -0.3830
10869SOL    HW233824   4.228   3.142   2.862  0.0159  0.0944  1.9984
10870SOL     OW33825   5.771   2.174   1.911 -0.1579  0.1222 -0.3270
10870SOL    HW133826   5.820   2.180   1.993  3.2342 -0.4906 -2.1086
10870SOL    HW233827   5.741   2.263   1.894 -0.2027  0.4131  1.1190
10871SOL     OW33828   3.540   2.516   3.495  0.6856  0.2806  0.3433
10871SOL    HW133829   3.588   2.591   3.460 -0.2495  1.0934  0.7539
10871SOL    HW233830   3.526   2.537   3.587  0.1161 -0.2394  0.3831
10872SOL     OW33831   4.529   2.155   3.248 -0.5857  0.0568 -0.5565
10872SOL    HW133832   4.574   2.080   3.287 -0.7928 -0.1114 -0.6407
10872SOL    HW233833   4.586   2.229   3.266 -2.3079  0.6641  3.2645
10873SOL     OW33834   4.503   2.424   2.384 -0.2805 -0.7022 -0.1345
10873SOL    HW133835   4.514   2.350   2.324  1.8395 -1.8010  1.4538
10873SOL    HW233836   4.573   2.485   2.359  0.2058 -0.8739  0.7626
10874SOL     OW33837   4.752   2.128   2.805 -0.0936 -0.0408  0.0135
10874SOL    HW133838   4.736   2.165   2.719 -3.6782 -0.3242  0.4000
10874SOL    HW233839   4.675   2.150   2.856  1.6938 -0.2488  3.0874
10875SOL     OW33840   4.790   2.842   2.674  0.5047 -0.4320 -0.3333
10875SOL    HW133841   4.730   2.854   2.600 -0.7488 -1.6916  0.4115
10875SOL    HW233842   4.760   2.906   2.739  0.3549 -0.6227 -0.2098
10876SOL     OW33843   5.195   2.499   2.859 -0.2006 -0.1766  0.1367
10876SOL    HW133844   5.182   2.404   2.863 -1.6669 -0.0261 -0.5062
10876SOL    HW233845   5.270   2.510   2.801  0.3770 -0.9567  0.7107
10877SOL     OW33846   4.014   3.221   2.017  0.0144  0.3156  0.0727
10877SOL    HW133847   3.919   3.231   2.008  0.3606  3.1073 -1.5609
10877SOL    HW233848   4.033   3.252   2.105 -0.5639 -0.4164  0.4736
10878SOL     OW33849   5.584   3.468   2.516  0.4910  0.4683  0.1651
10878SOL    HW133850   5.506   3.426   2.480  1.1998  0.5567 -1.5677
10878SOL    HW233851   5.602   3.541   2.457  0.9266  1.4776  1.5058
10879SOL     OW33852   5.488   2.492   2.162 -0.0790  0.1852  0.1683
10879SOL    HW133853   5.457   2.453   2.243  1.2986 -0.7143  0.3024
10879SOL    HW233854   5.411   2.495   2.105 -0.9384  0.3427  1.3181
10880SOL     OW33855   3.859   2.260   1.900  0.3819  0.4034  0.3280
10880SOL    HW133856   3.779   2.221   1.936  0.3623  0.2691  0.1428
10880SOL    HW233857   3.838   2.353   1.889 -0.5912 -0.0084 -1.9553
10881SOL     OW33858   5.505   2.512   3.296 -0.2747 -0.1214  0.1870
10881SOL    HW133859   5.428   2.498   3.351 -1.6058 -1.7100 -1.9348
10881SOL    HW233860   5.570   2.449   3.328 -0.2325  0.4310  1.2403
10882SOL     OW33861   4.703   3.034   2.837  0.0256  0.0569  0.2420
10882SOL    HW133862   4.733   3.015   2.926  0.9397  3.7377  0.9139
10882SOL    HW233863   4.656   3.117   2.846  0.5352  0.7788 -2.7711
10883SOL     OW33864   5.207   3.613   3.028 -0.5125 -0.5966 -0.4471
10883SOL    HW133865   5.153   3.642   2.954 -1.0121 -1.1289 -0.3009
10883SOL    HW233866   5.150   3.553   3.076 -1.1169  1.5680  1.7375
10884SOL     OW33867   4.543   2.735   2.990 -0.0300  0.0422  0.0879
10884SOL    HW133868   4.608   2.770   2.929 -0.1131 -0.9064 -0.5560
10884SOL    HW233869   4.506   2.813   3.032 -0.0874  0.7348 -1.1880
10885SOL     OW33870   4.812   2.932   3.069 -0.0553  0.0203 -0.4389
10885SOL    HW133871   4.777   2.907   3.155  2.2112  0.0534  0.5745
10885SOL    HW233872   4.907   2.937   3.083  0.4105 -0.3086 -3.0535
10886SOL     OW33873   4.599   1.712   3.219  0.3331  0.5281  0.7277
10886SOL    HW133874   4.607   1.792   3.168  1.6985 -0.1699 -0.2098
10886SOL    HW233875   4.599   1.642   3.154 -0.6974 -0.2588  1.5396
10887SOL     OW33876   4.595   3.086   3.717  0.9352 -0.2378  0.3376
10887SOL    HW133877   4.559   3.157   3.664 -0.3222 -0.8937  0.2736
10887SOL    HW233878   4.659   3.128   3.774  0.3814  0.9064  0.1383
10888SOL     OW33879   5.002   2.266   1.710  0.3703 -0.1702  0.2892
10888SOL    HW133880   4.923   2.318   1.697 -1.5293 -2.9382  0.0557
10888SOL    HW233881   5.012   2.217   1.629  1.2649 -1.2135  1.0062
10889SOL     OW33882   4.145   2.761   3.270  0.0242 -0.1516 -0.0679
10889SOL    HW133883   4.151   2.857   3.271  1.7444 -0.2182 -0.5116
10889SOL    HW233884   4.213   2.734   3.209  1.9316 -1.7869  2.5687
10890SOL     OW33885   4.855   2.382   3.016  0.0700 -0.9256 -0.1070
10890SOL    HW133886   4.822   2.297   2.989 -0.0073 -1.0302  0.3084
10890SOL    HW233887   4.949   2.371   3.026  0.4669 -0.2895 -2.5873
10891SOL     OW33888   3.624   3.372   3.468  0.4705 -0.2241 -0.3711
10891SOL    HW133889   3.708   3.402   3.434  0.7245 -0.3648  0.1262
10891SOL    HW233890   3.623   3.400   3.559 -0.2724  0.2935 -0.5243
10892SOL     OW33891   3.389   2.863   2.681  0.0033  0.5305 -0.0210
10892SOL    HW133892   3.325   2.892   2.746 -1.0308  0.9303 -1.1695
10892SOL    HW233893   3.413   2.943   2.634  3.6257  0.9785  2.1842
10893SOL     OW33894   4.190   2.536   2.247 -0.4632  0.1712 -1.0760
10893SOL    HW133895   4.273   2.488   2.252  0.3830  1.4795 -1.8821
10893SOL    HW233896   4.123   2.468   2.241  0.3600 -0.9766  1.3102
10894SOL     OW33897   4.572   3.056   2.345 -0.0959  0.3713  0.0947
10894SOL    HW133898   4.547   3.105   2.423 -1.8777  0.4917 -0.4936
10894SOL    HW233899   4.527   3.101   2.273 -0.3353 -1.0565 -0.6963
10895SOL     OW33900   4.576   3.273   2.899  0.2646 -0.2395 -0.8428
10895SOL    HW133901   4.561   3.303   2.989  0.9108 -0.0881 -0.7848
10895SOL    HW233902   4.504   3.311   2.849  0.6033  0.7109 -0.6192
10896SOL     OW33903   5.531   3.094   2.939 -0.1399  0.0078  0.1657
10896SOL    HW133904   5.475   3.162   2.977  0.4704  1.5227 -1.4655
10896SOL    HW233905   5.514   3.016   2.991 -2.1927  0.9576  1.0160
10897SOL     OW33906   3.883   2.517   3.739 -0.3053  0.6415  0.2069
10897SOL    HW133907   3.933   2.506   3.820 -0.6031 -0.2019  0.2854
10897SOL    HW233908   3.898   2.608   3.714  1.1080  0.4605  0.3198
10898SOL     OW33909   5.124   2.640   3.753 -0.3117  0.4409 -0.7393
10898SOL    HW133910   5.131   2.723   3.705  0.8443 -0.3456 -2.0016
10898SOL    HW233911   5.100   2.666   3.842 -0.4365  2.0927 -1.2200
10899SOL     OW33912   5.268   1.931   3.729 -0.0672 -1.2857  0.6699
10899SOL    HW133913   5.193   1.899   3.779 -2.1457  1.7348 -0.3007
10899SOL    HW233914   5.233   1.998   3.671  3.3750  0.2531  0.0952
10900SOL     OW33915   4.059   2.059   3.701  0.0188  0.0203  0.2905
10900SOL    HW133916   4.113   2.134   3.725  0.4835  0.0090 -0.6640
10900SOL    HW233917   3.979   2.097   3.666 -0.4652  0.0396  1.3756
10901SOL     OW33918   4.187   2.544   2.854 -0.2341 -0.1788 -0.9575
10901SOL    HW133919   4.240   2.554   2.775  1.0442  4.3636  0.1593
10901SOL    HW233920   4.102   2.582   2.831 -1.0027 -1.8375 -0.9931
10902SOL     OW33921   4.925   2.654   3.091  0.1339  0.0382  0.4903
10902SOL    HW133922   4.876   2.585   3.044  1.1744 -1.4178  1.4617
10902SOL    HW233923   4.858   2.719   3.114 -0.5283  0.5996 -2.4861
10903SOL     OW33924   5.533   2.010   2.120 -0.0129  0.0819  0.5413
10903SOL    HW133925   5.543   2.009   2.215 -1.5559 -4.9754  0.9271
10903SOL    HW233926   5.604   1.954   2.088 -1.0464 -0.3891 -1.0198
10904SOL     OW33927   4.343   2.054   2.945 -0.4793  0.2811  0.0085
10904SOL    HW133928   4.282   1.982   2.962  0.8692 -0.8108  0.4436
10904SOL    HW233929   4.298   2.132   2.979 -1.5007 -0.5283  0.5901
10905SOL     OW33930   3.593   3.361   3.176  0.2355  0.6257  0.2652
10905SOL    HW133931   3.571   3.367   3.269 -0.7177 -0.1863  0.1199
10905SOL    HW233932   3.684   3.389   3.171 -0.1120  2.0350  1.2384
10906SOL     OW33933   4.326   2.608   3.113 -0.3391 -0.6410  0.3672
10906SOL    HW133934   4.271   2.578   3.040  1.1629 -1.2562 -0.5466
10906SOL    HW233935   4.400   2.653   3.072  0.7791 -1.3945  1.4778
10907SOL     OW33936   5.510   2.307   3.619  0.1674 -0.2171  0.0297
10907SOL    HW133937   5.550   2.244   3.679  0.2517 -0.6704 -0.4931
10907SOL    HW233938   5.499   2.387   3.672  0.0604 -0.6639  0.7006
10908SOL     OW33939   3.945   2.194   2.714 -0.0512 -0.4935 -0.0929
10908SOL    HW133940   3.878   2.236   2.769  0.6707  0.5373  0.0435
10908SOL    HW233941   3.916   2.212   2.625 -1.1887 -2.1078 -0.0829
10909SOL     OW33942   5.292   2.555   1.984 -0.2376  0.1012  0.0675
10909SOL    HW133943   5.201   2.580   1.969 -0.3873  1.3163  2.3839
10909SOL    HW233944   5.338   2.639   1.994  1.0563 -0.5003 -0.5889
10910SOL     OW33945   4.741   2.606   2.316  0.0211 -0.0343 -0.1273
10910SOL    HW133946   4.745   2.662   2.238  2.0604 -1.5964 -1.2648
10910SOL    HW233947   4.829   2.612   2.354 -0.8635  0.4933  1.9667
10911SOL     OW33948   5.201   3.158   3.412  0.4167 -0.0917  0.4007
10911SOL    HW133949   5.181   3.200   3.497 -0.3916  2.4162 -0.9152
10911SOL    HW233950   5.125   3.177   3.358  0.9218 -1.6489 -0.9251
10912SOL     OW33951   3.980   2.784   3.786 -0.5694 -0.5536  0.5197
10912SOL    HW133952   4.075   2.775   3.797 -0.7155 -1.4054  1.2682
10912SOL    HW233953   3.965   2.878   3.781  0.3565 -0.4235 -0.0399
10913SOL     OW33954   5.050   2.063   1.969  0.2213  0.4354 -0.3363
10913SOL    HW133955   5.118   2.130   1.960  0.6060  0.2305  0.8001
10913SOL    HW233956   5.098   1.981   1.977  0.0438  0.5222  2.8848
10914SOL     OW33957   5.055   2.823   2.161  0.6702 -0.2665  0.1224
10914SOL    HW133958   5.035   2.806   2.069  0.0052 -0.6788  0.3315
10914SOL    HW233959   5.068   2.917   2.167  1.5953 -0.3341 -0.5511
10915SOL     OW33960   4.991   3.187   2.496  0.3736  0.6065  0.5706
10915SOL    HW133961   4.934   3.198   2.571  0.2997  1.3504  0.4134
10915SOL    HW233962   4.932   3.176   2.422  0.4204  1.3216  0.4161
10916SOL     OW33963   4.000   2.910   2.813  0.3541 -0.1548 -0.2287
10916SOL    HW133964   3.948   2.971   2.760 -1.6383 -2.4240 -1.0249
10916SOL    HW233965   4.080   2.898   2.762 -1.5419 -2.3420 -2.9742
10917SOL     OW33966   4.202   2.276   3.016 -0.3955 -0.1886  0.4331
10917SOL    HW133967   4.108   2.284   3.028 -0.3688  1.2902 -0.1236
10917SOL    HW233968   4.231   2.365   2.996  0.9970 -0.7608 -0.2080
10918SOL     OW33969   4.724   2.025   3.780 -0.8228 -0.0670 -0.2268
10918SOL    HW133970   4.786   2.080   3.734 -0.8698  0.3252  0.1660
10918SOL    HW233971   4.721   2.061   3.869 -0.5229 -0.9733  0.1673
10919SOL     OW33972   4.790   1.918   3.289  0.1819 -0.4714  0.1794
10919SOL    HW133973   4.801   1.938   3.196 -0.7360  0.0825  0.1765
10919SOL    HW233974   4.804   1.824   3.295  0.3932 -0.4886 -0.4955
10920SOL     OW33975   3.795   2.956   2.066 -0.5299 -0.1239 -0.0284
10920SOL    HW133976   3.799   2.910   1.982  0.8876 -1.1759  0.5563
10920SOL    HW233977   3.887   2.969   2.090 -0.8694 -1.0971  1.9989
10921SOL     OW33978   4.362   3.401   2.789  0.2468 -0.2186  0.0284
10921SOL    HW133979   4.288   3.349   2.821  0.5653 -1.1310 -0.6532
10921SOL    HW233980   4.327   3.489   2.777  0.2038  0.3202  3.2415
10922SOL     OW33981   4.737   2.556   2.688 -0.1339 -0.6200 -0.2843
10922SOL    HW133982   4.723   2.650   2.696  0.7043 -0.1736 -2.9676
10922SOL    HW233983   4.833   2.546   2.688 -0.1928 -1.3231 -1.0928
10923SOL     OW33984   3.448   2.834   3.438  0.4156  0.2856 -0.0042
10923SOL    HW133985   3.428   2.927   3.448 -0.2544  0.1641 -0.2172
10923SOL    HW233986   3.527   2.833   3.384  0.7308  0.7431  0.4265
10924SOL     OW33987   4.014   2.517   3.300  0.4169  0.1044 -0.7492
10924SOL    HW133988   4.057   2.601   3.286 -0.9111  1.0195  0.4060
10924SOL    HW233989   3.921   2.538   3.308  0.0936 -1.4269 -0.0320
10925SOL     OW33990   4.588   2.819   3.664 -0.0282  0.4484  0.1181
10925SOL    HW133991   4.614   2.905   3.697  2.0432 -0.4319  0.9686
10925SOL    HW233992   4.615   2.758   3.734 -0.9223 -0.9380 -0.7033
10926SOL     OW33993   4.060   2.329   2.097 -0.2948 -0.0250  0.0393
10926SOL    HW133994   4.099   2.247   2.127 -0.8488 -0.0179  0.8197
10926SOL    HW233995   3.986   2.301   2.042  1.0174 -0.0413 -1.8018
10927SOL     OW33996   5.295   2.578   3.488 -0.0573  0.5491 -0.0777
10927SOL    HW133997   5.285   2.554   3.580 -0.1800 -0.2899 -0.2972
10927SOL    HW233998   5.276   2.671   3.484 -0.5010  0.4905  0.6753
10928SOL     OW33999   4.009   3.285   3.597  0.4438  0.3208  0.6613
10928SOL    HW134000   3.969   3.350   3.539 -1.4493  0.2831  1.8549
10928SOL    HW234001   4.073   3.334   3.648 -0.3669  1.0891  0.9546
10929SOL     OW34002   4.474   2.464   2.746  0.1246 -0.4115 -0.2217
10929SOL    HW134003   4.436   2.427   2.826  0.7942 -1.0817 -0.1922
10929SOL    HW234004   4.567   2.442   2.752  0.3144  0.1713 -0.8407
10930SOL     OW34005   4.294   2.706   1.888 -0.2279  0.0078  0.0624
10930SOL    HW134006   4.282   2.791   1.845  1.3835  0.6755  0.8559
10930SOL    HW234007   4.267   2.721   1.979 -0.8868 -0.6170 -0.0212
10931SOL     OW34008   3.937   2.659   2.873 -0.0709  0.4088 -0.1987
10931SOL    HW134009   3.966   2.742   2.836 -1.1228  0.9155  0.0769
10931SOL    HW234010   3.857   2.681   2.921 -0.6346 -0.8513 -0.5315
10932SOL     OW34011   5.260   2.599   3.163  0.2540  0.4586 -0.3320
10932SOL    HW134012   5.201   2.545   3.216  1.3210 -0.0418  0.3927
10932SOL    HW234013   5.348   2.573   3.191  0.8276  1.2736 -1.2885
10933SOL     OW34014   4.599   2.814   2.484  0.0739  0.7675  0.1820
10933SOL    HW134015   4.606   2.899   2.440 -1.0828 -0.2445 -2.1277
10933SOL    HW234016   4.614   2.750   2.415 -0.5700 -0.9314  1.5483
10934SOL     OW34017   5.968   3.354   3.403  0.0648 -0.6124  0.2216
10934SOL    HW134018   5.900   3.318   3.346 -0.7728 -1.5208  1.7108
10934SOL    HW234019   6.043   3.367   3.346 -0.5960 -1.8671 -0.9967
10935SOL     OW34020   4.830   3.284   3.081  0.3109  0.5017  0.0263
10935SOL    HW134021   4.771   3.261   3.009  1.3250  0.3220 -0.7746
10935SOL    HW234022   4.811   3.377   3.098 -0.7354  0.2435  0.3142
10936SOL     OW34023   3.167   3.262   2.591 -0.3212  0.3868  0.2715
10936SOL    HW134024   3.248   3.246   2.639  0.2675  2.1466 -0.0675
10936SOL    HW234025   3.185   3.229   2.503  0.4312  1.6490 -0.0819
10937SOL     OW34026   5.344   2.155   2.520 -0.0420  0.1515  0.2002
10937SOL    HW134027   5.319   2.070   2.556  0.9512 -0.1477  0.2039
10937SOL    HW234028   5.328   2.147   2.426 -1.2185  0.4300  0.3568
10938SOL     OW34029   3.994   3.834   3.759  0.0741  0.1868  0.2104
10938SOL    HW134030   4.053   3.798   3.693 -0.1225  0.6340 -0.2108
10938SOL    HW234031   4.049   3.846   3.836  0.7420  1.3796 -0.4210
10939SOL     OW34032   5.009   2.640   2.347  0.1916  0.5908 -0.2053
10939SOL    HW134033   5.023   2.710   2.284  1.1545  1.2730  0.7232
10939SOL    HW234034   5.084   2.582   2.335  0.5347  0.8761  0.4816
10940SOL     OW34035   4.502   2.724   4.096  0.5796 -0.1272 -0.1960
10940SOL    HW134036   4.594   2.749   4.104  0.4394  0.8376 -1.3508
10940SOL    HW234037   4.457   2.805   4.075 -0.6586 -0.4626  1.0334
10941SOL     OW34038   5.779   3.702   2.928 -0.3400  0.3470  0.1630
10941SOL    HW134039   5.765   3.608   2.924 -0.0651  0.3521 -1.8959
10941SOL    HW234040   5.748   3.727   3.015 -1.6580 -1.4204  0.2500
10942SOL     OW34041   5.311   2.926   2.787 -0.8000 -0.3785  0.3086
10942SOL    HW134042   5.223   2.888   2.788 -0.7375 -0.5314  0.0413
10942SOL    HW234043   5.304   3.004   2.843 -0.8490 -0.9670  1.1386
10943SOL     OW34044   3.617   2.080   2.580 -0.1030 -0.3707  0.0820
10943SOL    HW134045   3.583   2.117   2.662 -1.1360  1.6280 -1.1798
10943SOL    HW234046   3.579   2.134   2.511  1.9849 -0.9789 -1.6784
10944SOL     OW34047   4.176   3.041   3.223  0.1777 -0.1663  0.4060
10944SOL    HW134048   4.121   3.057   3.146 -0.7295 -1.0459  0.8511
10944SOL    HW234049   4.126   3.077   3.296 -0.0513 -1.4099  0.8824
10945SOL     OW34050   4.751   2.497   1.929  0.7223 -0.0348 -0.2951
10945SOL    HW134051   4.658   2.510   1.946  0.8917 -0.0883  0.7209
10945SOL    HW234052   4.754   2.427   1.864  0.0535  0.0148 -0.3887
10946SOL     OW34053   5.179   3.665   1.698 -0.3350  0.3357  0.1186
10946SOL    HW134054   5.118   3.725   1.654 -0.9687 -1.5647 -1.7802
10946SOL    HW234055   5.140   3.650   1.784 -1.0602  1.3202 -0.0151
10947SOL     OW34056   3.789   3.047   3.221  0.1605  0.2506  0.7964
10947SOL    HW134057   3.850   3.034   3.149 -0.5567  1.8411 -0.1606
10947SOL    HW234058   3.774   2.959   3.257  1.7912 -0.3472  0.0730
10948SOL     OW34059   4.965   3.181   3.298  0.1464  0.1342 -0.1833
10948SOL    HW134060   4.927   3.176   3.385  1.4283  0.0092  0.3926
10948SOL    HW234061   4.890   3.173   3.238 -0.8548  1.1684  0.8894
10949SOL     OW34062   4.085   2.956   2.051  0.1097  0.4854 -0.2402
10949SOL    HW134063   4.178   2.932   2.047 -0.1189 -0.4826 -0.0420
10949SOL    HW234064   4.084   3.050   2.034  1.0751  0.4074 -0.8045
10950SOL     OW34065   4.840   2.470   3.501 -0.2245 -0.0751 -0.0435
10950SOL    HW134066   4.867   2.544   3.555  0.7396 -1.3336  1.2949
10950SOL    HW234067   4.744   2.470   3.507 -0.2608  1.2435 -0.3565
10951SOL     OW34068   3.501   2.809   2.353  0.1066 -0.4107  0.4631
10951SOL    HW134069   3.413   2.845   2.368  0.2268  0.1415 -0.1224
10951SOL    HW234070   3.558   2.885   2.348  0.4836 -0.7183 -0.0177
10952SOL     OW34071   5.579   2.125   3.140 -0.7836 -0.5748  0.2511
10952SOL    HW134072   5.586   2.179   3.219 -3.6729 -0.1511  0.3225
10952SOL    HW234073   5.600   2.036   3.170  0.7654 -0.0438  0.8534
10953SOL     OW34074   3.735   3.259   1.932 -0.4209  0.2147 -0.5206
10953SOL    HW134075   3.686   3.308   1.866  0.1655  1.0894 -0.3232
10953SOL    HW234076   3.688   3.274   2.014  0.5931  1.7493 -0.1716
10954SOL     OW34077   4.047   3.059   3.453 -0.3568  0.1061  0.3582
10954SOL    HW134078   3.975   2.998   3.473 -1.2397  1.0748  0.2206
10954SOL    HW234079   4.025   3.138   3.502 -1.1082  1.5719 -2.1785
10955SOL     OW34080   4.201   1.814   3.016 -0.3222  0.0928 -0.0812
10955SOL    HW134081   4.263   1.748   3.047  0.2255  1.0810  1.0432
10955SOL    HW234082   4.126   1.764   2.984  1.3564 -1.1862 -2.2917
10956SOL     OW34083   3.548   2.670   1.931 -0.3074 -0.0559  0.6092
10956SOL    HW134084   3.534   2.686   1.837 -2.6215  0.8782  1.0577
10956SOL    HW234085   3.546   2.757   1.970  4.0779 -0.0249  1.2515
10957SOL     OW34086   5.416   2.538   3.764 -0.6919  0.2214  0.0301
10957SOL    HW134087   5.332   2.499   3.786 -0.5951 -0.1882 -0.3234
10957SOL    HW234088   5.410   2.628   3.796 -0.1510 -0.6169  2.7785
10958SOL     OW34089   3.746   2.359   2.144  0.1539  0.0715  0.5650
10958SOL    HW134090   3.757   2.423   2.074 -0.7033  0.9137  1.1778
10958SOL    HW234091   3.708   2.282   2.100  0.8856  0.0829 -0.1159
10959SOL     OW34092   4.838   3.115   2.298 -0.0374  0.1574 -0.3046
10959SOL    HW134093   4.834   3.088   2.206 -1.2197  0.6497 -0.4162
10959SOL    HW234094   4.749   3.099   2.332  0.1145  0.8957  0.4842
10960SOL     OW34095   4.525   2.629   3.291 -0.6456 -0.2414  0.3512
10960SOL    HW134096   4.453   2.621   3.228  0.3262  0.5544 -0.9302
10960SOL    HW234097   4.490   2.682   3.362 -1.8125 -1.2456  0.5555
10961SOL     OW34098   4.808   3.563   2.947  0.0006  0.5653  0.8769
10961SOL    HW134099   4.876   3.623   2.917 -1.2629  1.6463  0.0762
10961SOL    HW234100   4.731   3.619   2.960 -0.9231 -0.7229  1.1216
10962SOL     OW34101   4.190   2.549   3.499  0.3110  0.1320  0.0890
10962SOL    HW134102   4.163   2.505   3.418  3.9826 -2.2369 -0.1119
10962SOL    HW234103   4.245   2.622   3.470 -0.1895  0.6707  0.4718
10963SOL     OW34104   5.381   2.803   3.882  0.0487  0.1616 -0.1601
10963SOL    HW134105   5.452   2.830   3.824 -0.6683 -0.5977 -1.4193
10963SOL    HW234106   5.351   2.884   3.923  0.4234  0.7503 -1.0286
10964SOL     OW34107   5.096   2.886   3.625  0.0404 -0.5483 -0.1212
10964SOL    HW134108   5.051   2.964   3.593 -1.3267 -0.6728  1.3755
10964SOL    HW234109   5.169   2.920   3.678 -2.4947 -0.0542  3.3868
10965SOL     OW34110   4.662   2.306   2.584  0.2209  0.0425  0.2512
10965SOL    HW134111   4.600   2.327   2.514  1.1721 -0.0792 -0.6545
10965SOL    HW234112   4.701   2.390   2.609  0.0669  0.0530  0.4571
10966SOL     OW34113   4.275   2.436   2.552 -0.4247  0.5884 -0.4817
10966SOL    HW134114   4.331   2.453   2.627  1.2126 -0.5943 -1.3708
10966SOL    HW234115   4.332   2.449   2.476 -1.1961 -1.1259 -1.4021
10967SOL     OW34116   5.586   2.452   2.916 -0.3258  0.0110  0.0209
10967SOL    HW134117   5.559   2.396   2.844 -1.8738 -2.0714  2.0823
10967SOL    HW234118   5.506   2.496   2.943  0.0455  0.1044  1.0028
10968SOL     OW34119   5.405   2.682   2.909  0.0131  0.5582  0.0469
10968SOL    HW134120   5.457   2.712   2.984  1.2632  0.9544 -0.9524
10968SOL    HW234121   5.409   2.754   2.847 -0.0713 -0.2057 -0.8587
10969SOL     OW34122   4.814   3.053   2.047 -0.2395 -0.0679  0.3943
10969SOL    HW134123   4.895   3.103   2.035 -0.5836  0.3777 -0.1470
10969SOL    HW234124   4.760   3.078   1.972 -0.5074 -1.1042  0.2304
10970SOL     OW34125   4.356   3.031   2.863 -0.0929 -0.2802  0.1959
10970SOL    HW134126   4.370   3.015   2.956 -1.8088 -1.9246  0.2357
10970SOL    HW234127   4.441   3.015   2.823 -0.1756 -3.6893  1.0555
10971SOL     OW34128   4.539   2.617   1.684 -0.0419 -0.3306 -0.6652
10971SOL    HW134129   4.453   2.607   1.644 -1.0210  1.5611  0.7648
10971SOL    HW234130   4.588   2.673   1.623 -0.8454  0.9204 -0.2031
10972SOL     OW34131   6.016   3.483   2.562  0.8795  0.1697 -0.5112
10972SOL    HW134132   6.006   3.523   2.476  1.4921 -0.3839 -0.8482
10972SOL    HW234133   5.941   3.424   2.570  1.3333 -0.4906 -1.0717
10973SOL     OW34134   4.076   3.350   4.057  0.0513  0.0526 -0.6325
10973SOL    HW134135   4.105   3.428   4.008  0.6233  0.1791 -0.1096
10973SOL    HW234136   4.038   3.385   4.137  1.1690 -0.2258  0.0448
10974SOL     OW34137   3.381   3.159   2.092 -0.2415 -0.9096 -0.1379
10974SOL    HW134138   3.422   3.243   2.068 -0.0698 -0.4162  1.7357
10974SOL    HW234139   3.291   3.167   2.058 -0.4815  0.3944  0.7226
10975SOL     OW34140   4.832   3.234   3.755  0.7855  0.0070 -0.2276
10975SOL    HW134141   4.807   3.324   3.775 -1.2680 -0.5327 -0.1464
10975SOL    HW234142   4.897   3.211   3.822  0.3683  1.0023  0.5295
10976SOL     OW34143   5.388   2.157   2.934 -0.4900  0.0130  0.0279
10976SOL    HW134144   5.445   2.164   3.010 -1.0927  0.6928  0.4319
10976SOL    HW234145   5.379   2.063   2.919  0.6347 -0.1161  0.0214
10977SOL     OW34146   3.764   2.295   2.406 -0.3397 -0.0154 -0.4907
10977SOL    HW134147   3.790   2.313   2.316 -0.7033 -1.4714 -0.8994
10977SOL    HW234148   3.670   2.277   2.402 -0.2339 -0.7397  0.0721
10978SOL     OW34149   5.429   3.657   2.855  0.1155 -0.1891 -0.0501
10978SOL    HW134150   5.366   3.680   2.787  0.0797 -2.0215 -0.6807
10978SOL    HW234151   5.375   3.637   2.932  0.1553  1.8591  0.5556
10979SOL     OW34152   3.710   2.803   3.362  0.4791  0.3830  0.2937
10979SOL    HW134153   3.798   2.809   3.400 -0.1913  0.8406  1.8521
10979SOL    HW234154   3.711   2.722   3.311  1.8255  0.4341  0.1980
10980SOL     OW34155   4.504   3.234   2.563 -0.8823 -0.1554  0.3800
10980SOL    HW134156   4.424   3.280   2.587  0.3765  1.4387  1.7363
10980SOL    HW234157   4.575   3.290   2.596  0.7689 -2.3966  0.8418
10981SOL     OW34158   5.441   2.307   2.724  0.0710  0.9728 -0.0384
10981SOL    HW134159   5.399   2.261   2.651  1.4060  0.9652 -0.8236
10981SOL    HW234160   5.420   2.254   2.801  0.1819 -0.0330 -0.6811
10982SOL     OW34161   4.856   1.909   3.012  0.3416 -0.7019 -0.1875
10982SOL    HW134162   4.784   1.967   2.989  0.4358 -0.4161  0.2159
10982SOL    HW234163   4.935   1.962   2.998  0.3923 -0.4366  0.9760
10983SOL     OW34164   3.890   3.062   1.791  0.5656 -0.0801  0.4518
10983SOL    HW134165   3.829   3.120   1.837  0.0323 -0.7177  0.5513
10983SOL    HW234166   3.942   3.121   1.736  0.4700  0.5682  1.0347
10984SOL     OW34167   4.882   2.099   2.214 -0.8418 -0.0180 -0.0224
10984SOL    HW134168   4.880   2.193   2.196  0.2352  0.0206  0.0220
10984SOL    HW234169   4.935   2.062   2.143  1.1431 -0.2099  1.4698
10985SOL     OW34170   5.005   2.564   2.623  0.7832  0.0482 -0.3616
10985SOL    HW134171   5.021   2.470   2.628  1.3569  0.1695  0.1960
10985SOL    HW234172   4.989   2.581   2.530 -2.5732 -1.1077 -0.1221
10986SOL     OW34173   5.048   2.252   2.811  0.1252 -0.2435  0.3898
10986SOL    HW134174   5.071   2.291   2.726  3.6613 -2.5566  0.0982
10986SOL    HW234175   4.957   2.223   2.799 -0.4554  2.0028 -1.5350
10987SOL     OW34176   3.736   2.998   2.336 -0.1074 -0.3453 -0.4355
10987SOL    HW134177   3.759   3.081   2.378 -0.5144 -0.6584  0.4176
10987SOL    HW234178   3.759   3.011   2.244 -0.9937  1.0363 -0.4876
10988SOL     OW34179   4.050   2.541   3.981  0.2019  0.4903  0.0507
10988SOL    HW134180   4.028   2.494   4.062  0.5419 -0.0022 -0.1374
10988SOL    HW234181   4.145   2.534   3.974  0.2561  1.2188  0.0209
10989SOL     OW34182   4.213   1.994   5.291  0.5168 -0.1567 -0.5125
10989SOL    HW134183   4.179   1.919   5.241  0.4572  0.2388 -1.0635
10989SOL    HW234184   4.272   2.038   5.231  0.6460  0.1749 -0.1437
10990SOL     OW34185   3.312   2.145   4.799 -0.0172  0.4282  0.3534
10990SOL    HW134186   3.290   2.141   4.892  1.1553 -1.5808  0.6124
10990SOL    HW234187   3.237   2.188   4.759 -0.1158  2.3013  2.3218
10991SOL     OW34188   4.621   2.619   4.642 -0.0417 -0.2342 -0.2329
10991SOL    HW134189   4.634   2.552   4.710 -0.2495  0.5832  0.6322
10991SOL    HW234190   4.526   2.627   4.634 -0.0586 -1.4472 -1.7812
10992SOL     OW34191   5.252   3.039   4.002 -0.1919 -0.1596  0.3170
10992SOL    HW134192   5.162   3.013   4.021 -0.7593  2.0509  0.8950
10992SOL    HW234193   5.263   3.123   4.045  1.1139  1.1787 -2.3723
10993SOL     OW34194   4.808   2.680   4.472 -0.3909 -0.5245 -0.0350
10993SOL    HW134195   4.787   2.771   4.449  1.0024 -0.3582 -0.7764
10993SOL    HW234196   4.734   2.651   4.525 -2.4534 -0.0300 -2.4490
10994SOL     OW34197   5.558   2.622   4.210 -0.3012  0.4634  0.2033
10994SOL    HW134198   5.624   2.685   4.238  1.0791 -0.7914 -0.1006
10994SOL    HW234199   5.476   2.672   4.208  1.0136  2.7565 -1.8728
10995SOL     OW34200   4.143   3.089   4.704  0.3607 -0.0488  0.2678
10995SOL    HW134201   4.073   3.073   4.641  0.6229 -0.7094  0.1315
10995SOL    HW234202   4.217   3.038   4.671  1.0716  1.0271  0.1387
10996SOL     OW34203   4.286   2.706   5.589  0.4335  0.4127 -0.0068
10996SOL    HW134204   4.308   2.652   5.665 -0.9791 -0.0955  0.0622
10996SOL    HW234205   4.253   2.787   5.626  4.6951  2.4412 -0.0634
10997SOL     OW34206   3.920   2.962   4.520 -0.1613 -0.4497 -0.2835
10997SOL    HW134207   3.942   3.021   4.449  0.3791 -1.3872 -0.9043
10997SOL    HW234208   3.887   2.884   4.477 -1.0251 -0.5526  0.5342
10998SOL     OW34209   4.323   3.219   5.630  0.6800 -0.2759 -0.2651
10998SOL    HW134210   4.330   3.311   5.605  0.1089 -0.4274 -1.0167
10998SOL    HW234211   4.275   3.219   5.713  0.5494  0.0892 -0.3422
10999SOL     OW34212   5.532   3.052   5.129 -0.1041  0.3720 -0.2610
10999SOL    HW134213   5.604   3.113   5.114 -0.0318 -0.0940 -2.0787
10999SOL    HW234214   5.459   3.086   5.076 -0.6305 -0.1345  0.1198
11000SOL     OW34215   4.268   2.165   5.030 -0.2778  0.3978 -0.0366
11000SOL    HW134216   4.213   2.216   4.972  0.6000  0.4485 -0.8437
11000SOL    HW234217   4.271   2.215   5.112 -1.0487  0.6069 -0.1280
11001SOL     OW34218   5.173   2.681   4.526  0.1319  0.0991  0.2399
11001SOL    HW134219   5.113   2.635   4.585  1.1537 -0.3187  0.9788
11001SOL    HW234220   5.184   2.622   4.452  1.6114 -1.0294  1.2822
11002SOL     OW34221   4.525   2.991   5.575 -0.5480 -0.0319  0.5907
11002SOL    HW134222   4.503   2.989   5.668 -1.3233 -1.2643  0.4102
11002SOL    HW234223   4.491   3.075   5.544 -0.0967  0.4795  1.4519
11003SOL     OW34224   3.948   3.164   4.333 -0.4084  0.1187  0.1988
11003SOL    HW134225   3.949   3.258   4.320  0.7467 -0.0150 -0.9761
11003SOL    HW234226   3.950   3.127   4.245  1.0333 -0.9688  0.6372
11004SOL     OW34227   3.620   2.878   4.986  0.1700  0.6046  0.2286
11004SOL    HW134228   3.665   2.851   5.065 -0.6171  0.1066  0.5256
11004SOL    HW234229   3.689   2.910   4.928  1.3204 -2.6961 -0.4224
11005SOL     OW34230   4.189   3.114   4.154 -0.3886 -0.2682 -0.0207
11005SOL    HW134231   4.148   3.192   4.117 -1.0016  0.2391  1.6574
11005SOL    HW234232   4.273   3.144   4.187  0.5085 -0.8873 -1.6137
11006SOL     OW34233   5.606   1.688   5.324  0.2925 -0.3940 -0.0377
11006SOL    HW134234   5.633   1.709   5.414 -0.2539  0.4257 -0.0500
11006SOL    HW234235   5.517   1.654   5.334  0.8438 -1.9586 -0.1127
11007SOL     OW34236   4.004   2.415   4.229 -0.4132  0.3969  0.3754
11007SOL    HW134237   3.982   2.338   4.281 -0.0625 -0.1929 -0.3389
11007SOL    HW234238   3.996   2.488   4.290  0.3947 -0.3250  1.3682
11008SOL     OW34239   5.288   3.779   4.053 -0.6728 -0.1825  0.0462
11008SOL    HW134240   5.267   3.865   4.017  0.6540  0.2469  0.2296
11008SOL    HW234241   5.205   3.746   4.087 -1.3241  0.7509 -0.5777
11009SOL     OW34242   4.059   3.496   3.752  0.2090 -0.2308  0.2297
11009SOL    HW134243   4.050   3.537   3.838  0.2204 -0.4694  0.3450
11009SOL    HW234244   4.088   3.567   3.694  0.4460 -0.1261  0.4769
11010SOL     OW34245   5.302   2.878   4.658  0.0905  0.6088 -0.2711
11010SOL    HW134246   5.341   2.937   4.594 -0.8539  0.3031 -1.1567
11010SOL    HW234247   5.260   2.810   4.606  1.0733 -0.8263  0.7132
11011SOL     OW34248   5.717   2.832   4.297 -0.0989  0.8747 -0.2477
11011SOL    HW134249   5.729   2.917   4.339  0.2601  1.0611 -0.7195
11011SOL    HW234250   5.738   2.847   4.205  0.5604  0.1404 -0.2295
11012SOL     OW34251   4.058   2.970   5.361  0.3768  0.5244  0.0475
11012SOL    HW134252   4.097   2.921   5.288  0.6277 -0.6099  0.9169
11012SOL    HW234253   3.976   2.924   5.380  1.1865 -0.3220  1.6497
11013SOL     OW34254   4.432   3.241   4.203  0.2514  0.2390  0.4883
11013SOL    HW134255   4.411   3.323   4.247  2.4023 -0.0481  2.2170
11013SOL    HW234256   4.465   3.268   4.117 -0.1695  1.0933  0.5889
11014SOL     OW34257   4.763   2.462   5.548  0.4309  0.6540 -0.4549
11014SOL    HW134258   4.803   2.393   5.600 -0.9736  0.5799  0.5709
11014SOL    HW234259   4.776   2.542   5.599 -1.4062  0.4997  0.3121
11015SOL     OW34260   4.448   1.638   4.208  0.4356  0.1172 -0.1164
11015SOL    HW134261   4.522   1.691   4.178  0.1700  0.5548 -0.0069
11015SOL    HW234262   4.373   1.671   4.159  0.0793  0.5351  0.6989
11016SOL     OW34263   3.327   2.594   5.251 -0.6738 -0.0521  0.2186
11016SOL    HW134264   3.327   2.549   5.167 -0.9388 -0.3447  0.3748
11016SOL    HW234265   3.367   2.532   5.312 -0.6539  0.0848  0.3471
11017SOL     OW34266   5.297   2.606   4.032  0.3231  0.2414 -0.5302
11017SOL    HW134267   5.219   2.652   4.003  0.0248  2.0868  2.7158
11017SOL    HW234268   5.370   2.664   4.008  0.5483 -0.5091 -1.7348
11018SOL     OW34269   3.856   1.838   5.599  0.6114 -0.4936 -0.1340
11018SOL    HW134270   3.932   1.883   5.562  0.6605  0.3913  0.9922
11018SOL    HW234271   3.845   1.877   5.686 -0.3317 -1.5426  0.2389
11019SOL     OW34272   5.537   3.422   4.383 -0.4470  0.4651 -0.2048
11019SOL    HW134273   5.550   3.513   4.357 -0.0863  0.5588  0.2815
11019SOL    HW234274   5.442   3.412   4.389 -0.4760  1.1444  0.8615
11020SOL     OW34275   5.574   3.709   4.155 -0.5580 -0.5425  0.4513
11020SOL    HW134276   5.485   3.737   4.175 -0.6229 -0.3617 -0.0798
11020SOL    HW234277   5.590   3.742   4.067  0.8137  1.2965  1.3389
11021SOL     OW34278   4.308   2.923   4.538 -0.3346  0.2085  0.1267
11021SOL    HW134279   4.363   2.981   4.486 -0.2645 -0.4699 -0.5879
11021SOL    HW234280   4.277   2.857   4.475  2.8076 -2.9379  1.5254
11022SOL     OW34281   5.134   2.145   4.660  0.4052  0.7620  0.0039
11022SOL    HW134282   5.188   2.069   4.681  2.6866  2.2448 -0.1646
11022SOL    HW234283   5.140   2.201   4.738 -0.9519  0.9486  0.0003
11023SOL     OW34284   5.107   3.483   4.030  0.4709  0.0310  0.1852
11023SOL    HW134285   5.068   3.563   4.065  2.5436  1.2380 -0.0610
11023SOL    HW234286   5.107   3.495   3.935  1.1744 -0.0489  0.1666
11024SOL     OW34287   4.490   2.777   4.974 -0.3937 -0.5172  0.3855
11024SOL    HW134288   4.524   2.690   4.950  0.2721 -0.1293 -0.0946
11024SOL    HW234289   4.537   2.838   4.918 -0.7458  0.1768  0.8300
11025SOL     OW34290   5.326   2.737   5.168 -0.7722 -0.4236  0.8144
11025SOL    HW134291   5.380   2.697   5.099  2.8756  2.5008  1.6139
11025SOL    HW234292   5.286   2.813   5.127 -1.3620 -0.5700  1.1110
11026SOL     OW34293   4.575   2.526   5.328 -0.4106  0.1818 -0.4922
11026SOL    HW134294   4.557   2.617   5.354  1.3454  0.4653 -0.1486
11026SOL    HW234295   4.633   2.493   5.396 -1.1493 -1.2803 -0.5394
11027SOL     OW34296   4.639   2.536   4.942  0.6173 -0.4158 -0.0365
11027SOL    HW134297   4.734   2.550   4.951  0.5191  0.2900 -0.0441
11027SOL    HW234298   4.623   2.453   4.988  0.9531  0.4138  1.6417
11028SOL     OW34299   4.687   2.638   3.826 -0.1596 -0.0942  0.2395
11028SOL    HW134300   4.658   2.547   3.820 -0.0312 -0.0380 -2.7613
11028SOL    HW234301   4.670   2.663   3.917 -0.7229 -2.9187  0.9957
11029SOL     OW34302   3.648   2.352   4.633  0.1547 -0.1323  0.0902
11029SOL    HW134303   3.628   2.339   4.540  0.2384 -0.2058  0.0816
11029SOL    HW234304   3.675   2.443   4.639  2.1736 -0.6521 -0.3333
11030SOL     OW34305   3.833   3.733   5.348 -0.0055 -0.0975  0.1693
11030SOL    HW134306   3.862   3.823   5.356  1.7436 -0.4835 -1.2214
11030SOL    HW234307   3.910   3.680   5.368 -0.0948 -1.2032 -2.0710
11031SOL     OW34308   4.446   1.994   3.670 -0.5571  0.2252  0.3386
11031SOL    HW134309   4.540   2.009   3.683 -0.5725  0.5439  0.1002
11031SOL    HW234310   4.414   2.075   3.630 -0.8394 -0.0646 -0.0384
11032SOL     OW34311   5.261   2.067   5.616 -0.8071  0.2620 -0.2447
11032SOL    HW134312   5.344   2.093   5.575 -0.2087 -0.7245  0.3171
11032SOL    HW234313   5.271   1.974   5.634 -1.6200  0.3602  0.8146
11033SOL     OW34314   5.210   3.225   4.550  0.1349 -0.0749  0.1778
11033SOL    HW134315   5.237   3.313   4.525 -0.3997 -0.3631 -1.5574
11033SOL    HW234316   5.147   3.238   4.621  2.1924  0.7494  1.9815
11034SOL     OW34317   4.137   1.565   4.287  0.2803  0.1677  0.1245
11034SOL    HW134318   4.056   1.597   4.247 -1.4549 -1.4668  2.1239
11034SOL    HW234319   4.152   1.624   4.361  1.4443  0.9631 -0.7036
11035SOL     OW34320   4.714   3.483   4.385  0.3361  0.4959  1.0358
11035SOL    HW134321   4.741   3.572   4.408  1.7794  0.0210  1.2355
11035SOL    HW234322   4.668   3.452   4.462 -0.0364  1.0037  1.0263
11036SOL     OW34323   5.486   3.135   4.649 -0.5123 -0.2256  0.2549
11036SOL    HW134324   5.409   3.123   4.594 -0.4307 -0.0706  0.1054
11036SOL    HW234325   5.473   3.219   4.692 -0.8824 -0.6348  0.9779
11037SOL     OW34326   5.179   3.430   5.180 -0.0510  0.8164  0.1715
11037SOL    HW134327   5.127   3.481   5.118 -1.0061 -0.3833 -0.0478
11037SOL    HW234328   5.203   3.351   5.133 -2.3753 -1.0049  1.8271
11038SOL     OW34329   3.867   3.056   4.043  0.3323  0.3593 -0.0078
11038SOL    HW134330   3.920   3.073   3.965 -0.0200  0.7592 -0.1602
11038SOL    HW234331   3.800   3.124   4.042  0.0225  0.0616  0.3745
11039SOL     OW34332   5.081   2.961   4.360  0.2422  0.1996  0.0988
11039SOL    HW134333   5.105   3.050   4.335 -0.0923  0.1428 -0.4506
11039SOL    HW234334   5.017   2.972   4.431 -0.0879  0.4069 -0.2298
11040SOL     OW34335   4.041   3.417   5.589  0.4151 -0.1626  0.3837
11040SOL    HW134336   3.959   3.369   5.580  0.1381  0.1028  1.3843
11040SOL    HW234337   4.042   3.476   5.514 -1.6333  1.7314  1.7229
11041SOL     OW34338   3.957   2.144   5.144  0.2528  0.5515 -0.2987
11041SOL    HW134339   3.970   2.074   5.208  1.4284  0.0282 -1.0769
11041SOL    HW234340   3.988   2.107   5.061 -1.6418  1.0581 -1.2907
11042SOL     OW34341   5.391   3.486   3.804 -0.3565  0.2369 -0.4862
11042SOL    HW134342   5.415   3.573   3.834 -1.6893  0.1784  0.8650
11042SOL    HW234343   5.296   3.490   3.792 -0.0558 -0.1299 -3.5744
11043SOL     OW34344   4.115   3.855   4.213  0.1679 -0.0164 -0.7776
11043SOL    HW134345   4.205   3.887   4.218  0.2254 -0.3088  0.3862
11043SOL    HW234346   4.120   3.764   4.242 -0.6578  0.2926  0.3865
11044SOL     OW34347   4.988   2.165   4.399  0.5733 -0.5105  0.0874
11044SOL    HW134348   5.061   2.111   4.369 -1.0736 -2.7854 -0.1309
11044SOL    HW234349   5.014   2.196   4.486  1.3633 -2.2024  0.4836
11045SOL     OW34350   4.355   2.703   4.322  0.0786  0.7760 -0.3311
11045SOL    HW134351   4.268   2.700   4.283 -0.3188  0.1477  0.5718
11045SOL    HW234352   4.415   2.700   4.247 -0.6709  0.6596 -0.9365
11046SOL     OW34353   5.319   2.214   5.369 -0.0095  0.3697 -0.1770
11046SOL    HW134354   5.246   2.154   5.385 -0.6602 -0.0375 -3.7741
11046SOL    HW234355   5.280   2.301   5.377 -0.3312  0.2019  0.1190
11047SOL     OW34356   5.033   2.138   3.946 -0.2624  0.2203 -0.7102
11047SOL    HW134357   5.113   2.125   3.996  0.5080  2.1608 -1.3149
11047SOL    HW234358   4.968   2.083   3.988  1.2962 -1.1302  0.0240
11048SOL     OW34359   4.595   1.722   5.424 -0.3313  0.4786  0.6084
11048SOL    HW134360   4.524   1.780   5.453 -0.0559  0.2781  1.7505
11048SOL    HW234361   4.558   1.634   5.429 -0.3083  0.4445  0.2336
11049SOL     OW34362   4.894   2.629   4.908 -0.3094  0.4017 -0.1272
11049SOL    HW134363   4.988   2.621   4.896 -0.4594  1.9041 -3.4133
11049SOL    HW234364   4.878   2.724   4.912 -1.6641  0.1700  0.6763
11050SOL     OW34365   4.468   3.126   4.442 -0.1389 -0.0167 -0.0923
11050SOL    HW134366   4.519   3.189   4.494 -0.3297  0.2442 -0.2207
11050SOL    HW234367   4.438   3.176   4.366 -3.1505  0.7080  1.4228
11051SOL     OW34368   4.224   2.744   4.847 -0.3084 -0.6400  0.0109
11051SOL    HW134369   4.231   2.666   4.903 -1.9457 -0.8442 -0.0063
11051SOL    HW234370   4.266   2.718   4.765  0.2661 -1.0664  0.4318
11052SOL     OW34371   4.719   2.146   4.733 -0.2400 -0.8244  0.1244
11052SOL    HW134372   4.654   2.154   4.803 -1.1509 -1.3793 -0.6344
11052SOL    HW234373   4.799   2.181   4.771 -1.1921  0.7239  0.7801
11053SOL     OW34374   5.071   2.733   4.005  0.2893 -0.1512  0.2639
11053SOL    HW134375   5.055   2.711   4.096 -0.2606 -1.7171 -0.1820
11053SOL    HW234376   5.040   2.823   3.996  0.1599 -0.0534  1.5614
11054SOL     OW34377   3.976   1.649   3.972 -0.0136  0.7377  0.5536
11054SOL    HW134378   4.046   1.683   3.917  2.1740 -0.5128  2.3980
11054SOL    HW234379   3.963   1.559   3.943 -1.3187  1.1126 -0.1347
11055SOL     OW34380   4.225   1.900   4.234 -0.5011  0.0493 -0.3038
11055SOL    HW134381   4.315   1.867   4.238 -0.9805 -1.2011  1.3153
11055SOL    HW234382   4.235   1.995   4.225  0.9358 -0.2097 -2.1099
11056SOL     OW34383   4.373   2.331   5.262 -0.1846 -0.0474 -0.3446
11056SOL    HW134384   4.292   2.308   5.307 -0.1156 -0.8199 -0.5965
11056SOL    HW234385   4.392   2.420   5.290  0.0693 -0.6368  1.4585
11057SOL     OW34386   5.010   3.505   4.663  0.2047 -0.6487 -0.0201
11057SOL    HW134387   4.960   3.562   4.604 -0.2277 -0.3322  0.6488
11057SOL    HW234388   5.029   3.560   4.739  1.9841 -0.6013 -0.4394
11058SOL     OW34389   3.770   2.745   4.384 -0.2342 -0.0009  0.0660
11058SOL    HW134390   3.678   2.737   4.357  0.0579  0.0892 -0.9960
11058SOL    HW234391   3.820   2.726   4.305  0.7334 -2.3640  1.1444
11059SOL     OW34392   4.810   3.709   4.555  0.1180 -0.4117  0.1534
11059SOL    HW134393   4.831   3.786   4.609  0.2126  0.0350 -0.5047
11059SOL    HW234394   4.724   3.681   4.586 -0.8060  1.1398 -0.8886
11060SOL     OW34395   4.262   2.736   3.789 -0.4906  0.2092  0.9689
11060SOL    HW134396   4.348   2.776   3.774 -1.0018  1.4683  1.2757
11060SOL    HW234397   4.282   2.646   3.815  0.7148  0.3545  0.6315
11061SOL     OW34398   3.904   2.737   4.889  0.8812 -0.4602  0.2723
11061SOL    HW134399   3.872   2.826   4.880  1.8896 -0.1594 -0.4038
11061SOL    HW234400   3.999   2.743   4.875  1.0238 -1.5678  0.6386
11062SOL     OW34401   4.633   1.943   5.082  0.2602 -0.0197  0.0471
11062SOL    HW134402   4.644   1.981   5.169 -2.9816  0.3637  0.4300
11062SOL    HW234403   4.673   2.007   5.023 -1.0356  1.7891  1.0237
11063SOL     OW34404   4.521   2.355   3.974 -0.6567 -0.1490  0.1289
11063SOL    HW134405   4.568   2.366   3.892 -0.4291 -0.2174  0.2491
11063SOL    HW234406   4.584   2.314   4.033 -1.7052 -2.9890 -0.5495
11064SOL     OW34407   4.521   1.863   4.630 -0.0659  0.1812  0.2401
11064SOL    HW134408   4.566   1.802   4.688 -0.7114  0.4799  1.0840
11064SOL    HW234409   4.585   1.884   4.562  0.6027 -0.4099  0.6720
11065SOL     OW34410   4.769   3.289   4.160  0.5530  0.0213  0.2523
11065SOL    HW134411   4.717   3.225   4.209  1.9577  0.6093  2.6606
11065SOL    HW234412   4.753   3.372   4.206  1.5850  0.6869 -0.5606
11066SOL     OW34413   4.977   2.515   4.634 -0.2575  0.3573 -0.2127
11066SOL    HW134414   4.910   2.467   4.683 -0.0598  0.9868  0.6958
11066SOL    HW234415   4.927   2.564   4.569 -0.6065  0.2091 -0.0629
11067SOL     OW34416   5.341   2.360   4.125 -0.2966 -0.0336  0.1887
11067SOL    HW134417   5.313   2.448   4.098 -0.5337  0.0428  0.6722
11067SOL    HW234418   5.411   2.376   4.188 -1.6578 -0.1268  1.7883
11068SOL     OW34419   4.073   3.623   4.018 -0.0331  0.2490  0.2423
11068SOL    HW134420   4.079   3.615   4.113 -1.7633  0.6440  0.4199
11068SOL    HW234421   4.131   3.696   3.996  1.5137 -0.7735  0.7927
11069SOL     OW34422   5.506   3.002   4.112 -0.2884 -0.0990 -0.3977
11069SOL    HW134423   5.473   3.007   4.202  0.0331 -0.7433 -0.2302
11069SOL    HW234424   5.430   3.018   4.057 -0.4732  0.3895 -0.0094
11070SOL     OW34425   5.010   2.422   4.121  0.1580 -0.3401 -0.8805
11070SOL    HW134426   4.986   2.368   4.045 -1.7000  1.0336 -1.3420
11070SOL    HW234427   5.074   2.485   4.086 -0.4981  0.1255 -1.2655
11071SOL     OW34428   4.304   2.166   4.197 -0.4370 -0.3950  0.1860
11071SOL    HW134429   4.379   2.225   4.188 -0.8442  0.1229  0.1260
11071SOL    HW234430   4.243   2.214   4.254 -0.0849 -1.4469  1.5015
11072SOL     OW34431   5.339   3.128   4.962  0.0006  0.5899  0.1436
11072SOL    HW134432   5.256   3.088   4.991  0.7417 -0.4844  0.8580
11072SOL    HW234433   5.312   3.203   4.909 -1.4365  0.1086  0.1463
11073SOL     OW34434   4.828   3.329   5.445 -0.2241 -1.0928  0.0332
11073SOL    HW134435   4.814   3.401   5.507 -0.4656 -1.0411 -0.0791
11073SOL    HW234436   4.742   3.286   5.440 -1.0649  0.6622 -2.5051
11074SOL     OW34437   5.524   3.333   5.391  0.3381  0.0802 -0.0870
11074SOL    HW134438   5.571   3.365   5.313  0.8191 -0.4470 -0.0159
11074SOL    HW234439   5.593   3.320   5.456 -0.0441  0.3446  0.3753
11075SOL     OW34440   5.198   3.332   4.858 -0.0053  0.3148  0.2126
11075SOL    HW134441   5.141   3.403   4.832 -0.1923  0.0604 -0.0811
11075SOL    HW234442   5.145   3.253   4.848  0.2618  0.1155  0.3385
11076SOL     OW34443   4.742   3.081   4.826  0.4730  0.4324  0.2261
11076SOL    HW134444   4.699   3.025   4.761 -1.4530  1.7813  0.2395
11076SOL    HW234445   4.767   3.159   4.776 -1.2869  1.6063  1.0880
11077SOL     OW34446   5.024   1.692   5.097  0.6007 -0.5020  0.2398
11077SOL    HW134447   4.932   1.674   5.117 -0.0572  0.4558 -1.6160
11077SOL    HW234448   5.041   1.777   5.139 -0.2369  0.6385 -1.5785
11078SOL     OW34449   4.825   2.992   5.477 -0.1018  0.0747 -0.7589
11078SOL    HW134450   4.734   2.984   5.505  0.3100 -1.0823  0.3233
11078SOL    HW234451   4.834   3.083   5.449 -1.0140  0.8229  1.2462
11079SOL     OW34452   4.225   2.350   4.369  0.0149  0.5692  0.1293
11079SOL    HW134453   4.168   2.385   4.300 -0.6489 -0.3561  0.1954
11079SOL    HW234454   4.179   2.370   4.450  0.6741  1.4290  0.3101
11080SOL     OW34455   4.225   3.100   4.973 -0.4578 -0.2364  0.0260
11080SOL    HW134456   4.199   3.105   4.881  0.3095  0.7148 -0.1635
11080SOL    HW234457   4.315   3.134   4.974 -0.6758  0.3652  1.2094
11081SOL     OW34458   4.754   2.124   5.267 -0.2706  0.0900  0.0574
11081SOL    HW134459   4.712   2.106   5.351 -1.3139  3.6383  0.4447
11081SOL    HW234460   4.730   2.214   5.247  2.2295  0.2801 -2.7476
11082SOL     OW34461   3.792   3.473   5.208 -0.0467  0.0362 -0.4598
11082SOL    HW134462   3.819   3.429   5.288 -1.3954  0.3244  0.1883
11082SOL    HW234463   3.812   3.565   5.223  3.1652 -0.2534 -1.9792
11083SOL     OW34464   3.500   3.561   3.992 -0.1302  0.0096 -0.6063
11083SOL    HW134465   3.595   3.554   3.978 -0.0640 -0.4001  0.0218
11083SOL    HW234466   3.478   3.649   3.960  0.5084  0.2143 -0.4963
11084SOL     OW34467   4.125   2.428   4.654 -0.1178 -0.4186  0.2307
11084SOL    HW134468   4.140   2.349   4.707  0.8424  0.0430  0.6837
11084SOL    HW234469   4.030   2.439   4.654 -0.1807 -0.7438  1.4235
11085SOL     OW34470   4.962   3.247   3.989 -0.5957  0.2457  0.4865
11085SOL    HW134471   5.022   3.320   4.003  0.4265 -0.5689  0.4219
11085SOL    HW234472   4.886   3.268   4.045  0.3793  0.5512  1.7385
11086SOL     OW34473   5.291   3.301   4.087 -0.2922  0.4480 -0.3084
11086SOL    HW134474   5.267   3.391   4.066  2.6673  1.3670 -0.2086
11086SOL    HW234475   5.387   3.301   4.087 -0.1826 -2.3340  1.2736
11087SOL     OW34476   4.988   2.733   4.258  0.4110  0.2438 -0.2295
11087SOL    HW134477   4.939   2.691   4.328 -1.3155  2.1521 -0.2336
11087SOL    HW234478   5.036   2.803   4.301  0.8825  0.2032 -0.6819
11088SOL     OW34479   4.122   3.499   5.145  0.2381 -0.0943 -0.1409
11088SOL    HW134480   4.134   3.404   5.142 -0.8843 -0.2120 -1.9948
11088SOL    HW234481   4.190   3.533   5.086 -0.7042  0.0763 -1.1568
11089SOL     OW34482   4.189   2.651   5.337 -0.3333  0.2552  0.3513
11089SOL    HW134483   4.226   2.660   5.425  0.0990 -2.6378  0.5779
11089SOL    HW234484   4.248   2.702   5.281  0.1864  1.0113  1.5405
11090SOL     OW34485   5.185   2.749   4.870 -0.1594 -0.2585  0.3554
11090SOL    HW134486   5.219   2.790   4.791 -1.3152  0.7086  0.3211
11090SOL    HW234487   5.237   2.670   4.881 -1.1755 -1.4490 -2.4459
11091SOL     OW34488   4.746   1.799   5.642 -0.5879 -0.6245 -0.5686
11091SOL    HW134489   4.709   1.753   5.717 -3.6250 -0.3261 -1.7653
11091SOL    HW234490   4.706   1.758   5.565  1.3125  0.0265 -2.0106
11092SOL     OW34491   4.362   1.854   4.938  0.5314  0.0667  0.5955
11092SOL    HW134492   4.436   1.899   4.980 -0.3646  2.4206 -0.1794
11092SOL    HW234493   4.335   1.913   4.868 -1.4091 -1.2470  0.1542
11093SOL     OW34494   3.894   3.017   4.946  0.0766 -0.1308  0.5843
11093SOL    HW134495   3.974   3.032   4.896 -0.3668  0.2447 -0.0252
11093SOL    HW234496   3.894   3.086   5.012 -0.1777  0.4232  0.0227
11094SOL     OW34497   4.595   2.867   4.741 -0.2259  0.4117  0.2974
11094SOL    HW134498   4.638   2.789   4.707 -0.3761  0.2764  0.4168
11094SOL    HW234499   4.507   2.864   4.704 -1.9204 -1.9985  3.8836
11095SOL     OW34500   4.356   2.215   3.547 -0.0945  0.2684 -0.3348
11095SOL    HW134501   4.335   2.216   3.454 -0.5966  1.2922 -0.2185
11095SOL    HW234502   4.284   2.263   3.589  0.7083  0.8239  0.4442
11096SOL     OW34503   4.072   1.757   5.221 -0.6900 -0.1447  0.1015
11096SOL    HW134504   3.996   1.765   5.279 -0.5712 -0.6374  0.3267
11096SOL    HW234505   4.034   1.750   5.133 -0.8797  0.3031  0.1445
11097SOL     OW34506   3.890   3.304   5.031 -0.2747  0.3041  0.2435
11097SOL    HW134507   3.966   3.286   5.086 -1.5930 -1.3129  1.6503
11097SOL    HW234508   3.842   3.372   5.078 -0.2978  0.4930 -0.0511
11098SOL     OW34509   3.750   2.943   4.710 -0.1079  0.0375  0.2732
11098SOL    HW134510   3.814   2.967   4.643  0.0845 -1.5778 -0.1735
11098SOL    HW234511   3.779   2.989   4.789 -0.0816  1.6131 -0.6218
11099SOL     OW34512   5.421   2.895   5.641  0.0614  0.0531 -0.8601
11099SOL    HW134513   5.485   2.851   5.697 -0.9408  1.7232  1.7442
11099SOL    HW234514   5.449   2.872   5.552  3.2192 -0.7064  0.1779
11100SOL     OW34515   4.192   1.778   4.502 -0.0147 -0.1451  0.4168
11100SOL    HW134516   4.207   1.854   4.445  1.3323 -1.3790 -1.0014
11100SOL    HW234517   4.270   1.774   4.558 -0.3258 -0.1732  0.8488
11101SOL     OW34518   5.461   1.944   3.911  0.6694  0.4658 -0.2560
11101SOL    HW134519   5.393   1.931   3.845  0.7172 -0.6287 -0.1063
11101SOL    HW234520   5.423   2.007   3.973 -0.7360 -1.0609  0.5126
11102SOL     OW34521   4.349   2.609   4.595 -0.6503 -0.5064  0.2793
11102SOL    HW134522   4.268   2.559   4.607 -1.2019 -0.1375 -1.6643
11102SOL    HW234523   4.358   2.619   4.501  0.7426  0.9985  0.5272
11103SOL     OW34524   4.613   3.610   5.436  0.7319 -0.2663  0.2976
11103SOL    HW134525   4.633   3.703   5.451  4.2070 -0.8905  0.2982
11103SOL    HW234526   4.652   3.590   5.351  0.9939 -1.9801  0.7920
11104SOL     OW34527   5.444   3.400   4.768  0.7437  0.4242  0.2345
11104SOL    HW134528   5.437   3.480   4.717  0.1165  0.2495  0.0483
11104SOL    HW234529   5.355   3.380   4.796  0.8412 -0.3969 -0.0099
11105SOL     OW34530   4.156   2.703   6.095 -0.5040 -0.2345  0.5931
11105SOL    HW134531   4.121   2.737   6.177 -0.9787 -1.5053  0.9311
11105SOL    HW234532   4.235   2.755   6.079 -0.9459  0.6901  1.3229
11106SOL     OW34533   5.026   1.825   3.828 -0.2440  0.6822 -0.0922
11106SOL    HW134534   4.956   1.773   3.789  1.0800 -0.8117 -0.6174
11106SOL    HW234535   5.012   1.819   3.922 -0.1649 -0.6144 -0.1434
11107SOL     OW34536   4.382   2.768   3.467 -0.1977  0.0082 -0.4372
11107SOL    HW134537   4.381   2.861   3.442 -3.2955  1.0562  2.7357
11107SOL    HW234538   4.443   2.765   3.541  1.0028 -0.8707 -1.4279
11108SOL     OW34539   4.830   3.259   4.634 -0.1472  0.0047  0.2978
11108SOL    HW134540   4.740   3.290   4.627 -0.2838 -0.4362  0.0511
11108SOL    HW234541   4.883   3.339   4.637 -0.4665  0.2648 -0.6090
11109SOL     OW34542   4.056   2.636   4.392  0.4316 -0.0396  0.2580
11109SOL    HW134543   4.073   2.726   4.364 -0.4023  0.1791  0.4253
11109SOL    HW234544   4.007   2.646   4.474  0.2157 -0.6497  0.2023
11110SOL     OW34545   4.069   2.155   4.793 -0.6627  0.2586 -0.1900
11110SOL    HW134546   4.141   2.120   4.740 -0.5624  1.2026 -0.6939
11110SOL    HW234547   4.021   2.077   4.823  0.9386 -0.4204  0.7089
11111SOL     OW34548   4.632   2.050   5.489  0.1466 -0.6009 -0.0004
11111SOL    HW134549   4.588   1.966   5.498 -0.3172 -0.1700  2.5771
11111SOL    HW234550   4.613   2.096   5.571  1.8929  1.3017 -0.5721
11112SOL     OW34551   5.072   2.102   5.271 -0.0368  0.0721  0.0009
11112SOL    HW134552   5.068   2.198   5.268  0.4402  0.1252  0.5946
11112SOL    HW234553   4.996   2.076   5.323 -0.5081  0.0838 -0.6776
11113SOL     OW34554   3.877   3.285   3.866  0.4041 -0.1315 -0.4911
11113SOL    HW134555   3.901   3.344   3.794  1.7439  0.9848  0.8029
11113SOL    HW234556   3.946   3.297   3.931 -1.7100  0.3324  1.8063
11114SOL     OW34557   4.640   2.889   5.199  0.2320 -0.1173  0.0397
11114SOL    HW134558   4.551   2.882   5.163  0.4193  0.3326 -0.5347
11114SOL    HW234559   4.635   2.845   5.283  0.0446 -2.1339 -0.9787
11115SOL     OW34560   3.813   2.296   4.834 -0.2413  0.7141 -0.0496
11115SOL    HW134561   3.900   2.261   4.815 -0.1230 -0.3731  2.2151
11115SOL    HW234562   3.773   2.308   4.748  1.6859  0.0919 -1.0999
11116SOL     OW34563   4.151   2.576   5.047  0.4758 -0.0203 -0.5858
11116SOL    HW134564   4.155   2.634   5.124 -0.5295 -0.4243 -0.2086
11116SOL    HW234565   4.058   2.555   5.039  0.9538 -2.6523  0.0767
11117SOL     OW34566   4.864   2.699   5.227  0.6601  0.6878  0.3975
11117SOL    HW134567   4.824   2.786   5.219 -0.8334 -0.0412 -0.3932
11117SOL    HW234568   4.837   2.653   5.148  1.9618 -0.3097  0.5079
11118SOL     OW34569   4.340   2.549   3.978  0.2817  0.2835 -0.5950
11118SOL    HW134570   4.386   2.465   3.968 -0.1832  0.0191 -0.5542
11118SOL    HW234571   4.405   2.607   4.017  0.5862 -0.0844 -0.5423
11119SOL     OW34572   5.624   2.372   4.281 -0.6956 -0.3776 -0.1391
11119SOL    HW134573   5.716   2.351   4.267 -0.1702 -0.1993  2.3919
11119SOL    HW234574   5.617   2.464   4.258  0.1920  0.0298  1.0596
11120SOL     OW34575   3.868   3.261   5.924 -0.0594 -0.0766 -0.1441
11120SOL    HW134576   3.831   3.310   5.998  0.1689 -0.1108 -0.0056
11120SOL    HW234577   3.825   3.298   5.847  0.3256  0.5449 -0.0678
11121SOL     OW34578   4.519   2.175   4.918  0.0629 -0.2120  0.0350
11121SOL    HW134579   4.573   2.227   4.978 -0.3764  0.1119  0.1575
11121SOL    HW234580   4.434   2.170   4.961 -0.0416 -0.6219 -0.2115
11122SOL     OW34581   4.425   1.993   3.989 -0.0964  0.5114  0.1506
11122SOL    HW134582   4.443   2.048   3.914  0.1258  0.7993  0.4138
11122SOL    HW234583   4.385   2.051   4.053 -3.2739 -0.3457 -0.8801
11123SOL     OW34584   3.939   2.941   5.835 -0.4240  0.3213  0.2777
11123SOL    HW134585   4.007   2.977   5.778 -1.8455  0.9273 -1.1349
11123SOL    HW234586   3.859   2.947   5.783 -1.3482 -1.6099  1.3625
11124SOL     OW34587   4.505   2.749   5.446 -0.0526  0.0286  0.4466
11124SOL    HW134588   4.441   2.692   5.489 -1.4376  0.1709 -1.2968
11124SOL    HW234589   4.509   2.827   5.502 -1.3117 -0.0484  0.6817
11125SOL     OW34590   4.981   2.994   4.061 -0.3693  0.0480  0.6443
11125SOL    HW134591   4.974   3.049   3.983 -1.4136 -0.4248  0.3803
11125SOL    HW234592   4.965   3.054   4.134  1.7837  0.7384  0.6211
11126SOL     OW34593   5.289   3.451   4.435  0.2222  0.8440  0.3459
11126SOL    HW134594   5.296   3.514   4.506  0.1199  1.4763 -0.1919
11126SOL    HW234595   5.218   3.485   4.380 -0.0214  0.1098  0.1942
11127SOL     OW34596   3.700   3.263   4.822 -0.4451  0.1799  0.3499
11127SOL    HW134597   3.763   3.280   4.893 -0.5690 -0.0008  0.5053
11127SOL    HW234598   3.754   3.257   4.743 -0.4467  1.9541  0.1632
11128SOL     OW34599   5.668   2.098   4.070  0.0729 -0.4790 -0.2674
11128SOL    HW134600   5.762   2.116   4.073 -0.1704  0.8142  0.4969
11128SOL    HW234601   5.634   2.160   4.005 -0.3628 -0.3288  0.0966
11129SOL     OW34602   4.980   3.467   4.328 -0.1102 -0.4443  0.0082
11129SOL    HW134603   5.019   3.555   4.331  1.3529 -1.0693  0.0485
11129SOL    HW234604   4.890   3.480   4.360  0.3617  0.8799  0.9061
11130SOL     OW34605   4.835   2.998   4.498 -0.1784 -0.1863  1.1119
11130SOL    HW134606   4.833   3.084   4.541  0.0636 -0.1270  1.0078
11130SOL    HW234607   4.744   2.977   4.482 -0.2052  0.3901  0.4668
11131SOL     OW34608   4.402   3.185   5.225 -0.1268  0.5447  0.3545
11131SOL    HW134609   4.419   3.202   5.132 -2.3087 -1.0474 -0.4248
11131SOL    HW234610   4.347   3.107   5.225 -0.2288  0.5326  3.0167
11132SOL     OW34611   4.346   3.468   3.973 -0.1454  0.0861 -0.3440
11132SOL    HW134612   4.342   3.492   4.065  0.0037 -1.5426  0.1141
11132SOL    HW234613   4.377   3.547   3.929 -0.1313  0.8597  1.0034
11133SOL     OW34614   5.325   3.650   4.967 -0.7278  0.5139 -0.1946
11133SOL    HW134615   5.230   3.638   4.969 -0.5921 -0.6085  0.5062
11133SOL    HW234616   5.337   3.742   4.942 -1.9614  0.3308 -1.6183
11134SOL     OW34617   5.404   1.719   4.618  0.4258 -0.0108 -0.8486
11134SOL    HW134618   5.327   1.666   4.599  0.5189 -0.5018  0.0685
11134SOL    HW234619   5.372   1.810   4.617 -0.1437 -0.2046 -0.5789
11135SOL     OW34620   4.310   2.040   4.677  0.4961 -0.1811 -0.3011
11135SOL    HW134621   4.352   2.108   4.730  0.8809  0.0594 -0.9107
11135SOL    HW234622   4.382   1.987   4.644  0.2996  0.0140 -1.0571
11136SOL     OW34623   4.496   3.176   4.946  0.5287 -0.6500  0.3560
11136SOL    HW134624   4.584   3.140   4.935  1.0701  0.7299  0.0006
11136SOL    HW234625   4.505   3.269   4.924 -0.8981 -0.3659  0.8761
11137SOL     OW34626   4.738   2.806   4.146  0.2079  0.7346  0.6174
11137SOL    HW134627   4.829   2.813   4.174 -0.0296  1.7415  1.1878
11137SOL    HW234628   4.717   2.893   4.113 -0.1932  0.1811 -0.6728
11138SOL     OW34629   5.333   3.040   3.712  0.0776 -0.0540 -0.3535
11138SOL    HW134630   5.312   3.119   3.663  3.9595  1.7388  0.4748
11138SOL    HW234631   5.306   3.059   3.802 -0.3760 -0.3337 -0.4263
11139SOL     OW34632   4.091   3.222   5.200  0.5412 -0.8937  0.1976
11139SOL    HW134633   4.118   3.208   5.291  1.1114 -3.1665 -0.2445
11139SOL    HW234634   4.130   3.148   5.152 -1.4021 -0.8918 -1.5448
11140SOL     OW34635   5.759   3.267   5.096  0.5765  0.6502  0.7213
11140SOL    HW134636   5.729   3.283   5.006  0.6440  0.4949  0.6701
11140SOL    HW234637   5.821   3.337   5.114  0.2695  0.9070  0.7855
11141SOL     OW34638   4.601   2.881   4.427 -0.1564 -0.0436  0.0374
11141SOL    HW134639   4.577   2.936   4.352 -0.5472  2.0291  1.6141
11141SOL    HW234640   4.532   2.815   4.430 -2.9915  2.7219  1.3677
11142SOL     OW34641   4.474   1.449   4.557 -0.4423 -0.1779  0.2104
11142SOL    HW134642   4.415   1.409   4.621  0.3325 -0.0476  1.0256
11142SOL    HW234643   4.520   1.518   4.606  0.0614  0.0192 -0.5176
11143SOL     OW34644   4.377   3.501   4.271 -0.2556  0.2445 -0.2440
11143SOL    HW134645   4.451   3.558   4.291  0.5856 -1.3995  1.6724
11143SOL    HW234646   4.301   3.548   4.304 -0.2327  2.1751 -2.6762
11144SOL     OW34647   5.134   2.386   5.121  0.3815  0.3164 -0.3778
11144SOL    HW134648   5.049   2.415   5.154  0.1073  2.1062 -2.4145
11144SOL    HW234649   5.198   2.422   5.183 -0.2362  1.3307 -0.3016
11145SOL     OW34650   3.718   3.275   4.120 -0.0749  0.3163 -0.1997
11145SOL    HW134651   3.773   3.314   4.188 -0.0664  0.4158 -0.2631
11145SOL    HW234652   3.743   3.321   4.040 -1.0067  1.1129 -0.0464
11146SOL     OW34653   4.148   2.975   5.636 -0.0363 -0.3238  0.4223
11146SOL    HW134654   4.110   2.969   5.548  0.8070 -1.1510  0.1020
11146SOL    HW234655   4.200   3.055   5.634 -0.1290 -0.2658  0.2185
11147SOL     OW34656   4.879   2.409   5.266 -0.3040  0.5614 -0.0028
11147SOL    HW134657   4.883   2.375   5.355 -2.3717  0.7731  0.2421
11147SOL    HW234658   4.856   2.501   5.277  3.4904  1.7700 -0.7031
11148SOL     OW34659   3.597   1.747   4.040 -0.4348  0.0706  0.0829
11148SOL    HW134660   3.632   1.770   4.126 -0.5074  1.4367 -0.2356
11148SOL    HW234661   3.518   1.696   4.060  0.6591 -1.4418  0.8008
11149SOL     OW34662   4.865   2.916   5.015 -0.3415  0.0682  0.2945
11149SOL    HW134663   4.836   2.953   4.932 -0.9336  0.3327  0.6105
11149SOL    HW234664   4.785   2.910   5.068 -0.0949 -0.7472  0.5958
11150SOL     OW34665   3.700   1.971   4.283 -0.5695  0.5815  0.7308
11150SOL    HW134666   3.628   2.025   4.251 -1.2224 -0.6834 -0.0420
11150SOL    HW234667   3.724   2.010   4.367 -2.0552  1.1301  0.9328
11151SOL     OW34668   5.146   3.277   3.639  0.0615 -0.0940 -0.5327
11151SOL    HW134669   5.177   3.361   3.674 -2.7114  0.7986  0.0379
11151SOL    HW234670   5.051   3.281   3.649 -0.3602 -2.3285 -2.7403
11152SOL     OW34671   4.263   2.850   5.124 -0.4065 -0.0074 -0.3287
11152SOL    HW134672   4.265   2.902   5.044 -0.1681 -0.7865 -0.8377
11152SOL    HW234673   4.332   2.785   5.112 -0.7812 -0.5235  0.2453
11153SOL     OW34674   4.289   2.280   5.662  1.0004  0.3171 -0.0778
11153SOL    HW134675   4.228   2.295   5.590  1.6695  3.5605 -0.1126
11153SOL    HW234676   4.249   2.324   5.737  1.0771 -1.6564  1.1954
11154SOL     OW34677   5.157   2.954   5.079 -0.1926 -0.2107  0.1030
11154SOL    HW134678   5.063   2.944   5.091 -0.4503 -0.0064 -1.5347
11154SOL    HW234679   5.178   2.895   5.006  0.1568  2.7130 -2.4092
11155SOL     OW34680   3.823   3.232   5.627  0.0849  0.5720 -0.0785
11155SOL    HW134681   3.733   3.220   5.657  0.4456  0.5470  1.0120
11155SOL    HW234682   3.841   3.154   5.574 -0.1726  0.0416  0.6036
11156SOL     OW34683   5.088   3.093   4.787  0.0337  0.4144 -0.4235
11156SOL    HW134684   5.006   3.055   4.756 -0.2589  0.3630  0.3876
11156SOL    HW234685   5.155   3.029   4.764 -0.5918 -1.2388  2.0103
11157SOL     OW34686   4.724   2.148   4.289 -0.3367 -0.6988  0.1675
11157SOL    HW134687   4.810   2.186   4.310 -0.9937 -0.4605  2.8801
11157SOL    HW234688   4.661   2.215   4.316 -1.4116 -1.9346  0.8762
11158SOL     OW34689   4.546   2.328   4.343 -0.6707  0.0454 -0.0974
11158SOL    HW134690   4.597   2.401   4.309 -0.6817  0.4418  0.7263
11158SOL    HW234691   4.457   2.362   4.352 -0.3836  0.4333  1.7323
11159SOL     OW34692   5.391   2.106   5.122  0.2839  0.3571  0.2514
11159SOL    HW134693   5.460   2.042   5.140 -0.4270  0.0733  2.1756
11159SOL    HW234694   5.387   2.160   5.201 -2.3428 -0.2405  0.6035
11160SOL     OW34695   5.570   2.630   4.510 -1.0197 -0.4049 -0.2860
11160SOL    HW134696   5.549   2.637   4.417 -2.1801 -0.9634 -0.0863
11160SOL    HW234697   5.486   2.643   4.554 -0.4122  0.3131  0.7132
11161SOL     OW34698   3.741   2.609   4.633 -0.4935  0.1110  0.5594
11161SOL    HW134699   3.775   2.642   4.550 -0.7043 -3.3060 -1.0723
11161SOL    HW234700   3.702   2.685   4.675  1.1620  2.3339 -1.6450
11162SOL     OW34701   4.529   3.276   3.951  0.0229 -0.4114 -0.1269
11162SOL    HW134702   4.577   3.330   3.889  2.6817 -2.1785  0.2516
11162SOL    HW234703   4.440   3.312   3.949  0.5188  1.0377 -3.2301
11163SOL     OW34704   5.900   3.145   4.088  0.3195  0.1577  0.1861
11163SOL    HW134705   5.994   3.143   4.070  0.1365 -1.3054 -0.6657
11163SOL    HW234706   5.875   3.237   4.074  1.8177  0.8564  1.6576
11164SOL     OW34707   4.465   2.829   5.809 -0.3532 -0.2171 -0.6868
11164SOL    HW134708   4.453   2.735   5.824 -0.4441 -0.0141  0.5967
11164SOL    HW234709   4.525   2.857   5.878  0.6014  0.4641 -1.7512
11165SOL     OW34710   4.137   2.845   4.244  0.3241  0.0692  0.1811
11165SOL    HW134711   4.145   2.940   4.229 -3.4127  0.5158  0.1641
11165SOL    HW234712   4.089   2.813   4.168  1.7381 -1.9840  0.0737
11166SOL     OW34713   4.054   3.591   5.388  0.0447 -0.1427 -0.1553
11166SOL    HW134714   4.099   3.576   5.305 -1.0137 -1.3436 -0.5389
11166SOL    HW234715   4.119   3.635   5.443  0.5092  1.3855 -1.8523
11167SOL     OW34716   5.161   2.163   4.969 -0.2678 -0.0218  0.6402
11167SOL    HW134717   5.162   2.250   5.010  0.6398  0.9673 -1.3376
11167SOL    HW234718   5.219   2.110   5.022 -0.6043  0.6649  1.7158
11168SOL     OW34719   3.911   2.216   4.397  0.0725 -0.1255  0.5350
11168SOL    HW134720   3.982   2.154   4.415 -0.4151 -0.4916  1.2468
11168SOL    HW234721   3.842   2.192   4.459 -0.1728  1.0495  0.7451
11169SOL     OW34722   5.726   3.306   4.556 -0.1887 -0.2976 -0.4352
11169SOL    HW134723   5.644   3.342   4.522 -0.2832 -1.4707 -1.5196
11169SOL    HW234724   5.793   3.370   4.532 -0.6699  0.2589 -0.2915
11170SOL     OW34725   3.855   2.502   5.005 -1.0477 -0.1592 -0.1357
11170SOL    HW134726   3.859   2.430   4.942 -0.3960  0.0504 -0.3457
11170SOL    HW234727   3.863   2.581   4.952 -0.2688  0.0116  0.2245
11171SOL     OW34728   4.913   2.031   5.008 -0.4180 -0.3553  0.3882
11171SOL    HW134729   4.894   2.063   5.096 -0.6045 -0.2156  0.2953
11171SOL    HW234730   4.996   2.073   4.985  0.5069 -1.6714  1.1575
11172SOL     OW34731   4.635   1.619   4.739 -0.2994  0.4785  0.0463
11172SOL    HW134732   4.614   1.553   4.805 -0.5928  0.7600  0.2405
11172SOL    HW234733   4.682   1.687   4.788 -0.5420  0.7011 -0.0268
11173SOL     OW34734   4.261   3.159   3.733  0.8141  0.1956  0.1158
11173SOL    HW134735   4.349   3.186   3.759 -0.2179  4.2199  0.0623
11173SOL    HW234736   4.249   3.197   3.646 -0.7087 -1.0557 -0.2664
11174SOL     OW34737   4.915   1.783   4.213 -0.6437  0.1050  0.1112
11174SOL    HW134738   5.004   1.764   4.243  0.2807  0.5185 -2.1536
11174SOL    HW234739   4.858   1.732   4.271  1.1678 -1.5566  0.5107
11175SOL     OW34740   4.716   2.509   4.223 -0.2026 -0.0755 -0.0508
11175SOL    HW134741   4.725   2.602   4.206 -0.7331  0.2511  1.3189
11175SOL    HW234742   4.802   2.472   4.205 -0.0444  0.6469 -0.7909
11176SOL     OW34743   5.178   2.447   4.380  0.4398  0.2004  0.1555
11176SOL    HW134744   5.171   2.421   4.288 -1.0268 -1.8808  0.7864
11176SOL    HW234745   5.091   2.430   4.417  1.3450 -0.2950  2.2254
11177SOL     OW34746   3.399   3.589   4.253  0.1394 -0.2021 -0.2017
11177SOL    HW134747   3.440   3.674   4.237  0.3539 -0.4164 -0.8411
11177SOL    HW234748   3.421   3.537   4.175  0.4371 -1.0073  0.4006
11178SOL     OW34749   4.710   3.489   3.813 -0.1236  0.4861  0.1379
11178SOL    HW134750   4.623   3.522   3.791 -0.5747 -0.5084  0.3908
11178SOL    HW234751   4.770   3.552   3.772 -0.9442  0.1015 -1.7621
11179SOL     OW34752   4.082   2.010   5.558  0.1032  0.2685  0.0794
11179SOL    HW134753   4.021   2.082   5.576  0.1302  0.4205 -0.4200
11179SOL    HW234754   4.131   2.039   5.482  1.5213  0.5778  1.0831
11180SOL     OW34755   3.851   2.085   6.652  0.4116 -0.0484  0.0810
11180SOL    HW134756   3.892   2.002   6.625 -0.1806 -0.3720  0.1637
11180SOL    HW234757   3.815   2.121   6.572  0.0631 -0.2152  0.1608
11181SOL     OW34758   3.701   2.176   6.045  0.6588  0.2191 -0.0405
11181SOL    HW134759   3.654   2.248   6.088  1.8371  0.5749  0.6812
11181SOL    HW234760   3.658   2.097   6.078 -0.0708  0.5538 -0.1572
11182SOL     OW34761   4.125   3.117   6.735 -0.2755 -0.1350 -0.3398
11182SOL    HW134762   4.051   3.162   6.695 -0.1529  0.0110 -0.4005
11182SOL    HW234763   4.191   3.113   6.666  0.2146  0.7660  0.0660
11183SOL     OW34764   4.920   3.247   6.651 -0.7895  0.1720  0.5422
11183SOL    HW134765   4.860   3.207   6.714 -1.1351  1.0902  0.8047
11183SOL    HW234766   4.946   3.329   6.691  2.1565 -0.9998  1.3165
11184SOL     OW34767   4.798   2.632   5.997 -0.0581 -0.8935 -0.6286
11184SOL    HW134768   4.845   2.688   6.059 -1.1311 -0.0481 -0.5578
11184SOL    HW234769   4.827   2.543   6.019 -0.6627 -0.6631  1.3408
11185SOL     OW34770   5.384   2.347   5.982  0.0160  0.2753 -0.1458
11185SOL    HW134771   5.424   2.308   5.904 -0.5275  0.8202 -0.7145
11185SOL    HW234772   5.307   2.292   5.999  2.8851 -3.3030  3.3206
11186SOL     OW34773   4.284   2.887   6.800 -0.0489  0.6490 -0.0498
11186SOL    HW134774   4.239   2.971   6.808 -0.3292  0.4961 -0.0493
11186SOL    HW234775   4.376   2.911   6.788 -0.2773  0.9856 -1.2609
11187SOL     OW34776   4.589   2.395   7.375  0.4845 -0.2133 -0.5001
11187SOL    HW134777   4.597   2.477   7.424 -0.9334 -0.0998 -0.4185
11187SOL    HW234778   4.510   2.407   7.322 -0.0465 -1.7165 -0.0922
11188SOL     OW34779   4.358   2.413   6.889  0.0696  0.3478  0.1724
11188SOL    HW134780   4.296   2.341   6.900 -2.2974  1.3128 -4.2291
11188SOL    HW234781   4.434   2.372   6.848 -0.2218 -0.0080 -0.0259
11189SOL     OW34782   4.663   3.058   7.147  0.1362 -0.3591  0.7340
11189SOL    HW134783   4.747   3.080   7.188  0.3784 -0.2938  0.2016
11189SOL    HW234784   4.643   3.134   7.092  0.5718 -1.0992 -0.4731
11190SOL     OW34785   4.133   3.266   6.360 -0.2123 -0.1907  0.1784
11190SOL    HW134786   4.222   3.297   6.342  0.4313 -1.9688  0.0944
11190SOL    HW234787   4.120   3.282   6.453 -0.4874  1.6184 -0.1213
11191SOL     OW34788   4.656   3.597   7.137  0.4137 -0.3174  0.3329
11191SOL    HW134789   4.587   3.660   7.114 -1.1651 -1.9838  0.2674
11191SOL    HW234790   4.689   3.566   7.053 -0.1676 -0.9841  0.3472
11192SOL     OW34791   4.389   2.447   7.198 -0.3622  0.3145  0.3461
11192SOL    HW134792   4.298   2.475   7.190 -0.5493 -0.1258  0.8820
11192SOL    HW234793   4.424   2.454   7.109 -1.5284 -1.5484 -0.3163
11193SOL     OW34794   5.166   2.176   6.072 -0.1287 -0.9316 -0.3411
11193SOL    HW134795   5.211   2.176   6.157  0.3742 -2.0794 -0.6001
11193SOL    HW234796   5.076   2.151   6.093 -0.7223  1.3460  0.1728
11194SOL     OW34797   4.901   3.132   7.264 -0.3152 -0.4837  0.6194
11194SOL    HW134798   4.925   3.175   7.182  1.5632 -2.1228  0.2360
11194SOL    HW234799   4.934   3.191   7.332  0.5008 -0.3601  0.1339
11195SOL     OW34800   3.809   3.286   6.255 -0.5847 -0.1458 -0.1126
11195SOL    HW134801   3.824   3.380   6.261 -2.1455  0.1310 -0.0429
11195SOL    HW234802   3.872   3.248   6.316 -1.7540  1.0693  1.9645
11196SOL     OW34803   3.701   2.871   6.425  0.1028  0.4720  0.1239
11196SOL    HW134804   3.646   2.929   6.372 -0.5149 -0.4330 -0.2472
11196SOL    HW234805   3.714   2.793   6.371  0.6849  0.1327  0.7284
11197SOL     OW34806   3.879   3.853   6.906  0.4051 -0.1007 -0.0739
11197SOL    HW134807   3.945   3.904   6.859  0.7750 -0.2962  0.2271
11197SOL    HW234808   3.858   3.905   6.983  1.9408 -1.0749  1.0806
11198SOL     OW34809   4.396   2.869   6.149 -0.0038 -0.0356  0.1207
11198SOL    HW134810   4.339   2.944   6.130 -1.0997 -0.9714 -0.3819
11198SOL    HW234811   4.483   2.908   6.160 -0.3358  1.2085 -1.2581
11199SOL     OW34812   5.274   2.268   6.588 -0.1950 -0.3347 -0.4811
11199SOL    HW134813   5.238   2.331   6.651 -2.0190 -3.1651  1.5481
11199SOL    HW234814   5.369   2.278   6.596 -0.4078  1.1560  0.7712
11200SOL     OW34815   3.960   2.433   6.052 -0.3579  0.2599  0.1278
11200SOL    HW134816   3.900   2.368   6.088  0.3964 -1.8249 -2.1639
11200SOL    HW234817   3.904   2.510   6.036 -1.6947 -0.4726  1.0835
11201SOL     OW34818   5.686   3.763   6.450  0.1628 -0.2009  0.5100
11201SOL    HW134819   5.677   3.749   6.356  3.5313 -0.4325  0.0865
11201SOL    HW234820   5.654   3.852   6.464  0.0002 -0.0022 -0.9382
11202SOL     OW34821   5.207   3.412   5.740  0.4612 -0.1869 -0.0320
11202SOL    HW134822   5.193   3.380   5.829  0.4210  1.6412  0.6571
11202SOL    HW234823   5.218   3.506   5.750 -0.7161  0.2278 -2.0862
11203SOL     OW34824   2.959   2.741   7.376  0.1736 -0.2963 -0.1749
11203SOL    HW134825   2.942   2.834   7.389  0.1411 -0.2111 -0.7846
11203SOL    HW234826   2.938   2.726   7.284  0.2864 -0.8838 -0.1067
11204SOL     OW34827   4.344   3.435   6.692 -0.3226  0.2744  0.4669
11204SOL    HW134828   4.355   3.513   6.639 -0.8443  0.7645  1.0701
11204SOL    HW234829   4.368   3.363   6.634 -2.3822  0.6635 -0.9476
11205SOL     OW34830   5.083   3.070   6.996 -0.0102  0.2431 -0.6025
11205SOL    HW134831   4.992   3.083   6.968 -0.3038 -1.0756 -0.3078
11205SOL    HW234832   5.126   3.153   6.974 -0.8684  0.2714 -2.3662
11206SOL     OW34833   4.506   1.929   5.855 -0.1965 -0.0057  0.0161
11206SOL    HW134834   4.600   1.923   5.874 -0.0706  2.3400  0.3517
11206SOL    HW234835   4.497   2.008   5.803 -1.7760 -1.2931 -1.8005
11207SOL     OW34836   3.987   2.858   6.758  0.2504  0.1315  0.0832
11207SOL    HW134837   4.024   2.871   6.670 -0.1362 -1.7298 -0.3981
11207SOL    HW234838   3.991   2.763   6.772 -1.6279  0.1668  1.2165
11208SOL     OW34839   5.123   2.937   5.609  0.2973  0.2184 -0.8127
11208SOL    HW134840   5.213   2.906   5.625  0.0284 -0.1065  0.0814
11208SOL    HW234841   5.088   2.874   5.546 -0.1377 -1.1719  0.7538
11209SOL     OW34842   4.924   3.633   7.223  0.3088 -0.2766  0.0543
11209SOL    HW134843   4.933   3.722   7.188  0.0553  0.5745  2.0067
11209SOL    HW234844   4.839   3.603   7.193  0.6089 -0.0798 -1.0374
11210SOL     OW34845   4.001   2.161   7.415 -0.0082  0.0141 -0.3749
11210SOL    HW134846   3.962   2.204   7.491  1.4836  0.8872 -0.0548
11210SOL    HW234847   3.927   2.145   7.356 -0.8821  1.4054  0.2729
11211SOL     OW34848   5.147   2.745   6.494  0.0018 -0.1999 -0.1079
11211SOL    HW134849   5.161   2.792   6.412 -1.1337 -0.2563 -0.3573
11211SOL    HW234850   5.091   2.803   6.546  0.1344 -0.4632  0.3378
11212SOL     OW34851   5.399   3.301   6.100 -0.2494  0.2788 -0.5902
11212SOL    HW134852   5.317   3.340   6.070 -0.5508  1.0197  1.0793
11212SOL    HW234853   5.395   3.307   6.196  0.3722 -2.5448 -0.3089
11213SOL     OW34854   4.543   2.603   6.131  0.6101  0.1526  0.1952
11213SOL    HW134855   4.624   2.604   6.081  0.8015  0.6986  0.5114
11213SOL    HW234856   4.500   2.686   6.109 -0.8631 -0.9659 -1.5684
11214SOL     OW34857   4.611   2.057   6.303 -0.0842  0.3829  0.3894
11214SOL    HW134858   4.640   2.047   6.394  2.0986  2.8703  0.0678
11214SOL    HW234859   4.535   2.115   6.308 -0.8673 -0.6404  0.6975
11215SOL     OW34860   5.735   3.289   5.803  0.1929  0.4532  0.0908
11215SOL    HW134861   5.751   3.214   5.745 -0.0776  0.6447 -0.2336
11215SOL    HW234862   5.821   3.330   5.813  0.3400  0.1094  0.2599
11216SOL     OW34863   4.604   2.783   7.243 -0.0461  0.5803  0.2241
11216SOL    HW134864   4.515   2.804   7.214 -0.7796 -0.6294  1.4792
11216SOL    HW234865   4.657   2.856   7.212 -1.4324  1.2395 -0.7235
11217SOL     OW34866   4.876   2.614   6.980 -0.2388  0.2270 -0.1788
11217SOL    HW134867   4.930   2.562   7.040 -0.7319  0.6163  0.6126
11217SOL    HW234868   4.786   2.600   7.010 -0.3616  1.7813  0.2551
11218SOL     OW34869   4.605   2.565   7.010 -0.4269 -0.4044  0.3087
11218SOL    HW134870   4.570   2.624   7.077 -0.0055 -0.7279  0.8260
11218SOL    HW234871   4.570   2.599   6.928 -0.8523  0.0773  0.6781
11219SOL     OW34872   4.572   2.284   6.757  0.3017  0.1478 -0.0298
11219SOL    HW134873   4.529   2.333   6.688  1.3367  0.3226 -0.5690
11219SOL    HW234874   4.659   2.264   6.722 -0.0235 -1.9550  0.2085
11220SOL     OW34875   4.530   2.322   5.938 -0.0441 -0.3521  0.6019
11220SOL    HW134876   4.447   2.301   5.982  0.8560  0.2619  2.6970
11220SOL    HW234877   4.593   2.262   5.977  0.4903 -1.0026 -1.1815
11221SOL     OW34878   3.852   2.386   6.560 -0.4630  0.5500 -0.0807
11221SOL    HW134879   3.939   2.401   6.597 -1.3850 -0.1524  2.6380
11221SOL    HW234880   3.804   2.467   6.578 -0.5780  0.6866 -0.9684
11222SOL     OW34881   4.053   4.024   6.755  0.1699 -0.9568  0.0944
11222SOL    HW134882   4.073   4.035   6.662  1.4759  2.8412  0.6668
11222SOL    HW234883   3.989   4.092   6.775 -0.1517 -1.7296  1.9759
11223SOL     OW34884   4.382   1.901   5.511  0.4305  0.1888 -0.6512
11223SOL    HW134885   4.329   1.862   5.442 -0.4863  1.5372 -0.7341
11223SOL    HW234886   4.322   1.959   5.558  1.3775  0.3310  0.4218
11224SOL     OW34887   4.955   2.490   7.655 -0.3328 -0.1520  0.0645
11224SOL    HW134888   4.970   2.549   7.581 -1.1373 -0.5034 -0.3882
11224SOL    HW234889   5.042   2.479   7.695  0.1778 -0.2614 -1.0439
11225SOL     OW34890   4.672   2.958   5.988  0.3572 -0.6425  0.2492
11225SOL    HW134891   4.742   2.908   5.945 -2.5495 -2.0263 -3.4035
11225SOL    HW234892   4.662   3.036   5.934 -0.2585  0.0537  1.3503
11226SOL     OW34893   4.102   1.750   6.828  0.0004  0.1700  0.4757
11226SOL    HW134894   4.171   1.688   6.853  1.2893  1.6321  0.7427
11226SOL    HW234895   4.143   1.836   6.840 -0.7192  1.0683 -2.6519
11227SOL     OW34896   4.474   4.095   6.306 -0.4049 -0.0547 -0.7299
11227SOL    HW134897   4.400   4.117   6.249  0.9796  0.8778 -2.2643
11227SOL    HW234898   4.532   4.042   6.251 -0.1564 -1.2522  0.6226
11228SOL     OW34899   5.016   2.948   6.662 -0.0262 -0.0537  0.1380
11228SOL    HW134900   4.961   2.936   6.738 -1.5047 -0.9443 -1.0281
11228SOL    HW234901   4.963   3.000   6.601 -0.0991 -1.8510 -1.4474
11229SOL     OW34902   5.382   3.402   7.166  0.6958  0.1287  0.2618
11229SOL    HW134903   5.287   3.391   7.167  0.6996 -0.1435  2.3423
11229SOL    HW234904   5.412   3.342   7.098 -0.6120  0.3831 -0.5894
11230SOL     OW34905   3.964   2.719   6.327 -0.0131  0.0481  0.3304
11230SOL    HW134906   3.903   2.754   6.262  1.9217  0.1515 -1.5319
11230SOL    HW234907   3.938   2.628   6.338 -0.8600  0.2422  0.0420
11231SOL     OW34908   5.222   2.863   5.919 -0.1208  0.0544 -0.4044
11231SOL    HW134909   5.310   2.824   5.922 -0.2714 -0.2832  2.7544
11231SOL    HW234910   5.166   2.790   5.891  0.3707 -0.2617 -0.5937
11232SOL     OW34911   4.584   2.644   7.488  0.0693 -0.1668  0.9158
11232SOL    HW134912   4.545   2.699   7.557 -1.4039  0.7345 -0.5587
11232SOL    HW234913   4.618   2.706   7.425 -0.2842 -0.9469 -0.0641
11233SOL     OW34914   4.942   3.298   5.992 -0.3456  0.0298  0.0548
11233SOL    HW134915   5.026   3.344   5.984  0.2100 -0.9026  0.3938
11233SOL    HW234916   4.878   3.368   6.001 -0.0470  0.9092 -3.3999
11234SOL     OW34917   3.608   2.206   7.232 -0.1184 -0.8094 -0.5070
11234SOL    HW134918   3.694   2.193   7.193 -0.2861 -2.4694 -0.4137
11234SOL    HW234919   3.603   2.141   7.302 -1.1880 -0.2842 -0.0696
11235SOL     OW34920   4.937   3.255   5.722 -0.3057 -0.5305  0.4356
11235SOL    HW134921   4.930   3.258   5.818  0.7044  1.3991  0.4920
11235SOL    HW234922   4.850   3.278   5.691 -0.1815  0.6917  0.9317
11236SOL     OW34923   4.977   1.846   6.078  0.4559  0.1457 -0.2926
11236SOL    HW134924   4.918   1.843   6.003 -1.2606 -0.4122  1.0142
11236SOL    HW234925   5.064   1.828   6.042 -0.3069  0.0234 -2.1378
11237SOL     OW34926   4.026   3.612   6.758 -0.3098 -0.1826  0.1762
11237SOL    HW134927   4.049   3.655   6.676  0.3229 -0.1894  0.3442
11237SOL    HW234928   4.033   3.680   6.824 -2.6368  0.3034  0.0039
11238SOL     OW34929   4.129   2.311   6.295 -0.5660  0.1824  0.0731
11238SOL    HW134930   4.120   2.378   6.362 -1.8645  0.0301  0.0736
11238SOL    HW234931   4.058   2.250   6.312 -0.0135 -0.6577 -0.5458
11239SOL     OW34932   5.245   2.383   7.132  0.2055  0.5912  0.7912
11239SOL    HW134933   5.314   2.365   7.196  1.9779  1.9067 -0.6396
11239SOL    HW234934   5.206   2.297   7.114  2.1715 -0.3781  0.9194
11240SOL     OW34935   4.100   1.864   5.793  0.9267  0.3000  0.4929
11240SOL    HW134936   4.102   1.910   5.709 -1.1173 -1.5285 -0.6577
11240SOL    HW234937   4.080   1.932   5.857 -1.5874  1.1781 -1.0790
11241SOL     OW34938   4.219   1.921   7.141  0.3565 -0.3362  0.6371
11241SOL    HW134939   4.173   1.912   7.224  0.8454 -2.7065  0.7319
11241SOL    HW234940   4.278   1.996   7.154 -1.3701  0.9492  1.4815
11242SOL     OW34941   4.624   3.495   6.826  0.2634  0.4236  0.2723
11242SOL    HW134942   4.705   3.528   6.788 -0.2760  0.6235 -0.7732
11242SOL    HW234943   4.556   3.525   6.765 -0.3551 -1.6883 -0.1566
11243SOL     OW34944   4.836   2.499   6.720 -0.2358  0.1395 -0.0147
11243SOL    HW134945   4.840   2.546   6.804 -0.8997  0.8254 -0.3565
11243SOL    HW234946   4.778   2.552   6.666  1.3577  0.5309 -1.4263
11244SOL     OW34947   4.474   2.404   6.305 -0.3666 -0.1210 -0.3997
11244SOL    HW134948   4.515   2.479   6.262  1.9772 -0.9636  0.2159
11244SOL    HW234949   4.419   2.364   6.237 -1.2580  1.8147 -0.8734
11245SOL     OW34950   4.338   2.134   6.315 -0.6105 -0.2658  0.2776
11245SOL    HW134951   4.341   2.091   6.230 -2.1433 -0.8356  0.4787
11245SOL    HW234952   4.276   2.206   6.304 -0.5392 -0.1155  0.8032
11246SOL     OW34953   4.555   3.146   5.829  0.2274  0.3452  0.0713
11246SOL    HW134954   4.496   3.156   5.754  1.1319  0.8961 -0.5854
11246SOL    HW234955   4.550   3.229   5.875 -1.0315 -0.3144  1.1670
11247SOL     OW34956   3.827   1.644   5.347 -0.7548 -0.4317 -0.6782
11247SOL    HW134957   3.772   1.566   5.342 -2.1102  0.4267  0.2073
11247SOL    HW234958   3.781   1.703   5.407  0.7026  0.6854 -0.5848
11248SOL     OW34959   4.634   2.318   5.107 -0.1585  0.0522 -0.3051
11248SOL    HW134960   4.716   2.353   5.141  1.7494 -2.5230 -1.9065
11248SOL    HW234961   4.573   2.326   5.180  1.2758  2.5274  0.7861
11249SOL     OW34962   4.568   2.667   6.759 -0.1068  0.3626 -0.2772
11249SOL    HW134963   4.518   2.609   6.701  0.2921  2.2711 -2.7231
11249SOL    HW234964   4.621   2.720   6.699  4.4100 -1.0329  2.0430
11250SOL     OW34965   4.066   2.902   6.499 -0.3813  0.2415 -0.1224
11250SOL    HW134966   4.036   2.828   6.447 -0.6166 -0.1848  0.6083
11250SOL    HW234967   4.103   2.963   6.435  0.2662 -0.7175 -0.6845
11251SOL     OW34968   4.914   2.364   5.773 -0.8002 -0.4870 -0.1696
11251SOL    HW134969   4.961   2.282   5.790  2.5966  1.1048 -0.9312
11251SOL    HW234970   4.875   2.388   5.857 -0.2313 -1.9339  0.5356
11252SOL     OW34971   3.681   2.638   6.997  0.3804 -0.4010 -0.0577
11252SOL    HW134972   3.707   2.729   7.014  0.4519 -0.0988 -1.6865
11252SOL    HW234973   3.636   2.611   7.077 -0.5308  1.4009  0.0861
11253SOL     OW34974   4.237   1.993   6.887 -0.1943  0.2710  0.3719
11253SOL    HW134975   4.251   1.966   6.978 -0.9141 -1.6924 -0.0424
11253SOL    HW234976   4.211   2.084   6.892 -0.6340  0.0789  2.1698
11254SOL     OW34977   4.268   2.667   6.618 -0.1681  0.1616  0.4571
11254SOL    HW134978   4.254   2.725   6.693 -0.2049  2.5554 -1.2612
11254SOL    HW234979   4.293   2.726   6.547 -1.9289 -1.7322 -1.9169
11255SOL     OW34980   4.431   1.612   6.146 -0.8083  0.2571 -0.0280
11255SOL    HW134981   4.477   1.529   6.156 -1.6589 -0.4853 -1.7178
11255SOL    HW234982   4.356   1.605   6.204  0.3910  0.8915  1.6688
11256SOL     OW34983   4.683   2.742   6.528 -0.1230 -0.0240  0.2602
11256SOL    HW134984   4.669   2.709   6.439 -0.8450 -0.5697  0.5637
11256SOL    HW234985   4.701   2.835   6.516 -4.7580  1.0446 -0.2490
11257SOL     OW34986   4.960   2.052   6.259 -0.3874 -0.1411  0.0711
11257SOL    HW134987   4.965   1.968   6.213  1.2882  0.2170 -0.4726
11257SOL    HW234988   4.907   2.034   6.336 -2.8755 -0.8922 -1.6798
11258SOL     OW34989   4.813   3.115   6.184 -0.2711 -0.6606  0.5601
11258SOL    HW134990   4.765   3.047   6.136 -0.7830 -0.6564  1.0576
11258SOL    HW234991   4.857   3.165   6.115 -1.3512 -0.3844  0.0447
11259SOL     OW34992   4.242   2.996   5.935 -0.4379  0.0645  0.0997
11259SOL    HW134993   4.295   2.971   5.859 -0.9571 -1.0315  0.0683
11259SOL    HW234994   4.178   3.058   5.900  1.0341  1.7067  0.2169
11260SOL     OW34995   5.282   3.319   6.614  0.2116 -0.2529 -0.7634
11260SOL    HW134996   5.197   3.345   6.648  0.0558  0.7810 -1.9010
11260SOL    HW234997   5.300   3.235   6.657 -0.4567  0.4549  0.9998
11261SOL     OW34998   5.046   2.299   5.465  0.5744 -0.1930 -0.1097
11261SOL    HW134999   5.091   2.361   5.523  2.9228 -1.3794 -0.5792
11261SOL    HW235000   5.016   2.229   5.523 -0.5080  0.4589  0.1588
11262SOL     OW35001   4.365   2.090   6.046 -0.3955 -0.0305  0.2384
11262SOL    HW135002   4.406   2.026   5.987 -0.9026 -0.3559  0.2373
11262SOL    HW235003   4.275   2.097   6.016 -0.7113 -0.3246  1.0751
11263SOL     OW35004   5.605   3.130   7.343 -0.2337  0.2230 -0.2539
11263SOL    HW135005   5.546   3.055   7.335  0.5331 -0.3995 -0.2611
11263SOL    HW235006   5.669   3.102   7.409  0.4489  0.6168 -0.7416
11264SOL     OW35007   5.089   3.412   7.203  0.4529  0.2217 -0.7450
11264SOL    HW135008   5.046   3.496   7.187 -0.7670 -0.4754 -1.2543
11264SOL    HW235009   5.070   3.360   7.125 -2.2574 -1.9005  1.1445
11265SOL     OW35010   5.400   3.663   7.166 -0.0885  0.0288 -0.0399
11265SOL    HW135011   5.399   3.568   7.180 -3.9508 -0.1006 -0.1766
11265SOL    HW235012   5.354   3.676   7.083  0.3312  2.0310 -0.0136
11266SOL     OW35013   5.136   3.331   6.904  0.5880  0.4304 -0.0449
11266SOL    HW135014   5.069   3.387   6.864 -0.3496 -0.6479 -0.0467
11266SOL    HW235015   5.206   3.391   6.929  0.9869  1.2442 -2.7670
11267SOL     OW35016   5.130   2.917   6.186  0.0726  0.3784 -0.1555
11267SOL    HW135017   5.159   2.890   6.099 -0.2780 -0.4121 -0.0364
11267SOL    HW235018   5.098   3.006   6.175  0.1251  0.3155 -0.8203
11268SOL     OW35019   4.692   1.994   7.081 -0.1398  0.1944 -0.1078
11268SOL    HW135020   4.785   2.017   7.085 -0.2825  0.8274 -0.3820
11268SOL    HW235021   4.646   2.076   7.095 -0.6888 -0.3526  1.5221
11269SOL     OW35022   4.455   3.368   7.484  0.2044 -0.1378 -0.4627
11269SOL    HW135023   4.523   3.435   7.470  2.0621 -2.1504 -1.7973
11269SOL    HW235024   4.424   3.347   7.395 -2.2804  0.7560  0.1192
11270SOL     OW35025   4.354   2.856   6.430 -0.5273 -0.4030  0.0118
11270SOL    HW135026   4.287   2.875   6.365 -0.7379  0.5724  0.4805
11270SOL    HW235027   4.433   2.836   6.380 -0.7498  0.1020 -0.5445
11271SOL     OW35028   4.026   2.941   7.583  0.1214  0.2876  0.2060
11271SOL    HW135029   4.069   2.883   7.645  0.1117  1.4395  1.3204
11271SOL    HW235030   4.069   2.923   7.499  1.4079  0.0259  0.9080
11272SOL     OW35031   4.864   2.192   6.700 -0.2094  0.1048  0.8592
11272SOL    HW135032   4.876   2.247   6.778  0.3966  1.6801 -0.3008
11272SOL    HW235033   4.941   2.135   6.700  1.9822  2.8059 -0.6553
11273SOL     OW35034   3.874   3.392   6.799 -0.0844 -0.4703  0.0962
11273SOL    HW135035   3.856   3.381   6.706 -2.4254  1.0441  0.2892
11273SOL    HW235036   3.929   3.470   6.804 -0.2270 -0.3631 -0.0011
11274SOL     OW35037   4.137   3.016   6.255 -0.6122  0.3183  0.4146
11274SOL    HW135038   4.133   3.109   6.278 -1.5016  0.2701  0.5149
11274SOL    HW235039   4.063   3.003   6.196 -0.6847 -0.3863  0.6488
11275SOL     OW35040   4.436   2.444   6.573 -0.3214 -0.4328 -1.0181
11275SOL    HW135041   4.383   2.523   6.561  2.5027  1.4899 -1.9761
11275SOL    HW235042   4.473   2.427   6.486 -0.5206 -2.5870 -0.7191
11276SOL     OW35043   5.178   3.474   6.022  1.2185 -0.3200 -0.0588
11276SOL    HW135044   5.143   3.510   6.104 -0.4967  1.0846 -1.3285
11276SOL    HW235045   5.237   3.542   5.990  2.2836 -1.0861  0.2061
11277SOL     OW35046   5.206   3.691   6.961 -0.4250  0.5727 -0.1573
11277SOL    HW135047   5.206   3.690   6.865  2.3279  1.7629 -0.2635
11277SOL    HW235048   5.133   3.749   6.984 -0.5906  0.9666 -1.5743
11278SOL     OW35049   5.118   2.560   5.838 -0.0337 -0.4276 -0.0615
11278SOL    HW135050   5.163   2.527   5.916  2.5915 -2.7597 -2.3551
11278SOL    HW235051   5.064   2.487   5.808  0.9063 -0.4944 -1.7190
11279SOL     OW35052   3.709   3.388   7.003  0.3963  0.1485  0.2930
11279SOL    HW135053   3.757   3.401   6.921  0.7431  1.7490  0.7135
11279SOL    HW235054   3.748   3.309   7.042  1.3101  0.2857 -0.3266
11280SOL     OW35055   4.397   2.564   7.948  0.3265 -0.0761  0.0608
11280SOL    HW135056   4.354   2.649   7.946 -2.0275 -1.1617  0.6718
11280SOL    HW235057   4.330   2.504   7.982  1.1924 -2.5598 -2.2456
11281SOL     OW35058   5.334   2.592   7.381 -0.4829 -0.3296  0.0056
11281SOL    HW135059   5.245   2.597   7.416 -0.7187 -1.7042 -0.3241
11281SOL    HW235060   5.324   2.606   7.287 -0.5536 -1.7483 -0.2270
11282SOL     OW35061   5.022   2.131   7.625 -0.1346 -0.2021  0.1771
11282SOL    HW135062   4.959   2.120   7.554 -0.6222 -1.8139  0.8274
11282SOL    HW235063   4.971   2.168   7.697 -0.3503 -1.4979  0.7009
11283SOL     OW35064   4.088   2.372   7.176  0.1091  0.1579  0.2062
11283SOL    HW135065   4.011   2.429   7.180  0.6854  1.0335 -0.6666
11283SOL    HW235066   4.055   2.286   7.200 -1.0252  0.6328  0.4270
11284SOL     OW35067   4.007   2.960   7.012  0.1104  0.0369 -0.1910
11284SOL    HW135068   4.039   2.881   7.057 -0.3534  0.1269  0.3059
11284SOL    HW235069   4.010   2.937   6.919 -0.2242 -0.6527 -0.0408
11285SOL     OW35070   4.862   2.376   6.023  0.8242  0.4065  0.1823
11285SOL    HW135071   4.812   2.295   6.034  2.3812 -0.8157 -1.1563
11285SOL    HW235072   4.914   2.383   6.102  0.0175  0.6174  0.7084
11286SOL     OW35073   4.530   2.174   5.716 -0.6440 -0.0193 -0.3467
11286SOL    HW135074   4.455   2.192   5.660 -0.0946  1.2088 -0.7039
11286SOL    HW235075   4.518   2.232   5.791  0.5902  1.1303 -1.0050
11287SOL     OW35076   3.849   2.125   7.123  0.4414  0.2391 -0.1721
11287SOL    HW135077   3.879   2.171   7.045 -0.8389  0.5620 -0.4973
11287SOL    HW235078   3.885   2.037   7.114  0.5766  0.3669 -0.9784
11288SOL     OW35079   3.791   3.108   6.503 -0.2193  0.5480 -0.0800
11288SOL    HW135080   3.820   3.101   6.594 -1.9926  1.4399  0.6091
11288SOL    HW235081   3.784   3.018   6.473 -0.2952  0.2138  0.9065
11289SOL     OW35082   4.296   2.682   6.996  0.2934 -0.2382 -0.5408
11289SOL    HW135083   4.311   2.747   6.928  2.1754 -0.0866 -0.0396
11289SOL    HW235084   4.331   2.600   6.959  1.3649 -0.1492  0.2086
11290SOL     OW35085   5.637   2.937   7.656 -0.2601 -0.1389 -0.1878
11290SOL    HW135086   5.603   3.022   7.684  0.3055 -0.3680  1.3115
11290SOL    HW235087   5.559   2.882   7.647 -0.5691  0.3422 -0.4680
11291SOL     OW35088   3.913   2.155   6.262  0.4203  0.3693 -0.9223
11291SOL    HW135089   3.855   2.134   6.189 -1.6149 -0.1516  0.7583
11291SOL    HW235090   3.912   2.076   6.317 -0.0922  1.5649  0.8868
11292SOL     OW35091   5.057   2.112   5.821 -0.3969 -0.1083  0.0408
11292SOL    HW135092   5.114   2.100   5.744 -0.4706 -1.0048  0.1180
11292SOL    HW235093   5.117   2.138   5.891 -0.2923  0.4480 -0.2491
11293SOL     OW35094   4.849   2.397   6.465 -0.2502 -0.4807 -0.4150
11293SOL    HW135095   4.854   2.302   6.462  1.1517 -0.5252  1.3757
11293SOL    HW235096   4.856   2.419   6.558 -2.4944  1.3215 -0.5669
11294SOL     OW35097   4.654   3.548   7.445  0.6320  0.0737  0.4529
11294SOL    HW135098   4.614   3.628   7.411 -1.7313 -2.1717 -2.6026
11294SOL    HW235099   4.726   3.530   7.385 -0.1183 -1.0694 -0.1453
11295SOL     OW35100   5.238   3.458   7.445 -0.3157 -0.0831 -0.2750
11295SOL    HW135101   5.198   3.512   7.512  0.8119 -0.6589  0.9133
11295SOL    HW235102   5.193   3.482   7.364  0.5889  3.1022  0.0622
11296SOL     OW35103   4.147   2.531   7.458 -0.0485 -0.0787 -0.4780
11296SOL    HW135104   4.075   2.521   7.395 -0.4233  0.2508 -0.1114
11296SOL    HW235105   4.226   2.539   7.404 -0.4102  0.5866 -0.9198
11297SOL     OW35106   5.096   1.601   5.651 -0.3225  0.1682  0.2816
11297SOL    HW135107   5.049   1.576   5.731 -0.2465  0.7102  0.4987
11297SOL    HW235108   5.038   1.575   5.580 -1.1089  1.1303  0.5532
11298SOL     OW35109   5.186   2.590   5.560  0.1937  0.3314  0.3842
11298SOL    HW135110   5.112   2.644   5.532 -1.6560 -1.7158  1.0085
11298SOL    HW235111   5.173   2.579   5.654  3.0468  2.3388  1.1536
11299SOL     OW35112   4.626   3.193   6.627  0.2519  0.2111 -0.9900
11299SOL    HW135113   4.554   3.161   6.681  0.4498 -0.2538 -0.9918
11299SOL    HW235114   4.584   3.244   6.558  0.0250  1.2697 -0.0965
11300SOL     OW35115   3.870   2.483   6.863  0.1491 -0.1188  0.5511
11300SOL    HW135116   3.827   2.515   6.784  2.1934  1.3245 -0.0842
11300SOL    HW235117   3.827   2.530   6.935  0.3532  0.9745 -0.0153
11301SOL     OW35118   3.889   2.221   6.876  0.3132  0.1961 -0.8486
11301SOL    HW135119   3.850   2.170   6.805 -1.6298 -0.9295  0.9140
11301SOL    HW235120   3.864   2.311   6.858  1.4800  0.2201 -2.5664
11302SOL     OW35121   4.838   2.124   7.394 -0.3631  0.2861  0.6601
11302SOL    HW135122   4.815   2.195   7.334 -0.7881  0.0739  0.5663
11302SOL    HW235123   4.756   2.079   7.410  0.2374 -1.6407 -1.1712
11303SOL     OW35124   4.879   2.196   6.995 -0.2328  0.1740  0.5692
11303SOL    HW135125   4.974   2.192   7.001 -0.2767 -1.6033  0.6167
11303SOL    HW235126   4.852   2.253   7.066  0.8181  1.1881  0.1773
11304SOL     OW35127   3.651   3.394   6.054  0.0193  0.4686 -0.3392
11304SOL    HW135128   3.684   3.459   6.117 -0.3557 -0.3225  0.7004
11304SOL    HW235129   3.683   3.310   6.086 -1.1916 -0.0818 -0.5172
11305SOL     OW35130   4.114   3.898   6.310 -0.3447  0.4983  0.3217
11305SOL    HW135131   4.038   3.851   6.277 -0.2741 -0.1874  1.1063
11305SOL    HW235132   4.123   3.973   6.251 -1.0940  0.1106 -0.3064
11306SOL     OW35133   4.341   3.968   6.806 -0.3869  0.3105  0.2060
11306SOL    HW135134   4.251   3.997   6.791 -0.2414  1.5344  1.3884
11306SOL    HW235135   4.385   3.981   6.723 -1.0857  0.6406 -0.1231
11307SOL     OW35136   4.787   3.001   6.500  0.6786 -0.5630  0.2158
11307SOL    HW135137   4.758   3.065   6.565 -1.2809 -2.4798  1.3640
11307SOL    HW235138   4.758   3.036   6.416 -1.1977 -0.3600  0.9198
11308SOL     OW35139   3.484   2.390   6.565 -0.1803 -0.0230 -0.5389
11308SOL    HW135140   3.484   2.485   6.552  0.8294 -0.0585 -0.8220
11308SOL    HW235141   3.520   2.379   6.653 -0.0009 -0.1679 -0.6327
11309SOL     OW35142   3.768   2.672   7.568 -0.0646  0.0140 -0.2413
11309SOL    HW135143   3.681   2.652   7.531 -1.4875  3.4955  0.8101
11309SOL    HW235144   3.823   2.687   7.491 -1.2550  0.8424 -0.9624
11310SOL     OW35145   5.422   2.912   7.334 -0.2029 -0.1382  0.1359
11310SOL    HW135146   5.424   2.866   7.418  1.9997 -0.5631 -0.0844
11310SOL    HW235147   5.368   2.856   7.277  1.5358 -1.9830  0.1769
11311SOL     OW35148   4.234   2.423   6.026  0.0924 -0.4049  0.4945
11311SOL    HW135149   4.143   2.420   6.053 -0.1817  1.4300 -0.0911
11311SOL    HW235150   4.274   2.489   6.083 -0.0536  2.1224 -2.0928
11312SOL     OW35151   5.053   2.551   6.318 -0.0273  0.2198  0.2700
11312SOL    HW135152   5.117   2.586   6.380 -0.0521  0.2309  0.2900
11312SOL    HW235153   4.991   2.503   6.373 -0.1744  0.4147  0.2785
11313SOL     OW35154   3.382   3.377   6.978  0.4074  0.0461 -1.2422
11313SOL    HW135155   3.397   3.323   7.056 -0.3109 -1.1196 -1.8853
11313SOL    HW235156   3.468   3.414   6.958  0.3456  1.5690  0.9270
11314SOL     OW35157   4.583   2.266   7.018  0.1146 -0.3138 -0.0599
11314SOL    HW135158   4.643   2.330   7.058 -1.0481  0.0597  1.1499
11314SOL    HW235159   4.595   2.278   6.924  0.6044  1.0463  0.1482
11315SOL     OW35160   4.599   3.297   7.013 -0.0266  0.0188  0.4250
11315SOL    HW135161   4.603   3.346   7.095  2.7261  0.2170  0.2613
11315SOL    HW235162   4.585   3.364   6.946  1.7383  0.3880  0.3923
11316SOL     OW35163   4.061   2.681   5.842  0.0630 -0.4034  0.2144
11316SOL    HW135164   4.109   2.669   5.924 -1.4871  0.6628  1.3354
11316SOL    HW235165   4.024   2.769   5.848 -0.7145 -0.5916 -1.2974
11317SOL     OW35166   3.679   3.387   6.555  0.2687  0.1524 -0.4125
11317SOL    HW135167   3.721   3.470   6.532  0.6797 -0.1356 -0.7226
11317SOL    HW235168   3.723   3.322   6.500 -0.0397 -0.2717 -0.1635
11318SOL     OW35169   5.095   2.547   6.704 -0.2022  0.5268  0.3620
11318SOL    HW135170   5.000   2.536   6.697 -0.3479  0.1003  2.3258
11318SOL    HW235171   5.118   2.607   6.633 -2.0448  1.2369  0.3140
11319SOL     OW35172   4.992   2.770   5.431  0.1312  0.3544  0.2141
11319SOL    HW135173   4.937   2.848   5.443  1.0036  1.2444 -1.2836
11319SOL    HW235174   4.966   2.735   5.346  1.5556  0.5529 -0.3245
11320SOL     OW35175   5.727   3.313   6.591  0.1805  0.1438  0.8550
11320SOL    HW135176   5.717   3.397   6.633 -1.8265 -0.0129  0.7484
11320SOL    HW235177   5.746   3.334   6.499  1.2904  0.4508  1.1355
11321SOL     OW35178   3.285   3.683   6.516 -0.2211 -0.2699 -0.1663
11321SOL    HW135179   3.226   3.754   6.539 -0.5203 -0.3743 -0.5864
11321SOL    HW235180   3.362   3.726   6.479 -0.9318 -0.1833 -1.6279
11322SOL     OW35181   4.338   3.298   7.230  0.3754 -0.1097  0.2814
11322SOL    HW135182   4.256   3.270   7.189  0.3650 -1.1529  0.9923
11322SOL    HW235183   4.366   3.373   7.177 -1.0635  0.3118  0.0498
11323SOL     OW35184   5.334   1.927   6.393 -0.4695  0.5992  0.5987
11323SOL    HW135185   5.406   1.958   6.447  1.4310  0.0720 -1.4840
11323SOL    HW235186   5.284   2.006   6.373  1.1273  1.4767 -0.1275
11324SOL     OW35187   5.257   3.498   5.433  0.3616 -0.4885 -0.1407
11324SOL    HW135188   5.221   3.483   5.346  0.3522  0.2670 -0.2730
11324SOL    HW235189   5.308   3.419   5.452  1.1472 -0.2587 -1.2312
11325SOL     OW35190   3.716   3.806   7.656  0.1818  0.2946  0.4825
11325SOL    HW135191   3.650   3.745   7.623 -1.0837  0.5482  2.3873
11325SOL    HW235192   3.798   3.778   7.616 -0.8222 -1.0040 -0.7252
11326SOL     OW35193   4.902   2.939   5.822 -0.0617 -0.1156 -0.0251
11326SOL    HW135194   4.973   2.949   5.760 -0.6467 -2.5152 -1.2202
11326SOL    HW235195   4.859   2.857   5.796 -0.4185 -1.1975  3.4496
11327SOL     OW35196   4.871   3.299   6.994  0.1897 -0.9219 -0.4508
11327SOL    HW135197   4.877   3.395   6.993 -0.1689 -0.9046 -1.6036
11327SOL    HW235198   4.778   3.281   6.984 -0.3909 -1.3880  3.8353
11328SOL     OW35199   4.113   3.231   5.814 -0.1146  0.1871 -0.3511
11328SOL    HW135200   4.107   3.292   5.740 -0.0827 -0.6144 -1.0205
11328SOL    HW235201   4.025   3.197   5.825 -0.1674  0.4680  0.1298
11329SOL     OW35202   5.529   3.922   7.176 -0.5274 -0.2292  0.4156
11329SOL    HW135203   5.472   3.846   7.187 -0.5500 -0.2854 -0.0774
11329SOL    HW235204   5.481   3.980   7.118  0.0286 -0.4021 -0.2328
11330SOL     OW35205   5.559   2.359   6.921 -0.0189 -0.0366 -0.1199
11330SOL    HW135206   5.472   2.400   6.923  0.0000  0.0818 -1.1434
11330SOL    HW235207   5.586   2.365   6.830  1.3232  0.4396  0.2947
11331SOL     OW35208   3.768   2.436   6.291  0.1171  0.0601 -1.0367
11331SOL    HW135209   3.832   2.373   6.324  0.0575  0.3874 -0.2568
11331SOL    HW235210   3.683   2.393   6.303  0.1465 -0.1140 -1.4559
11332SOL     OW35211   4.589   3.223   5.427 -0.2215 -0.0914  0.3442
11332SOL    HW135212   4.576   3.165   5.352  1.0942 -0.2255  0.2032
11332SOL    HW235213   4.506   3.271   5.435 -1.5350 -2.2973  0.7443
11333SOL     OW35214   4.811   2.882   6.887 -0.1207 -0.4140  0.1869
11333SOL    HW135215   4.806   2.796   6.928  1.1324 -0.4660  0.2577
11333SOL    HW235216   4.721   2.900   6.858 -0.7507 -0.9771  1.7095
11334SOL     OW35217   4.864   2.817   6.288  0.4128  0.0058 -0.2141
11334SOL    HW135218   4.925   2.888   6.268  1.6341 -1.3543 -1.5575
11334SOL    HW235219   4.920   2.741   6.306 -0.8588 -0.9176  0.0062
11335SOL     OW35220   4.724   3.486   5.654  0.0954 -0.1795  0.0598
11335SOL    HW135221   4.680   3.527   5.579 -0.7384 -1.8459 -0.4248
11335SOL    HW235222   4.709   3.546   5.726  0.9359  1.4864 -1.0973
11336SOL     OW35223   4.161   3.179   7.023 -0.2083 -0.2857 -0.7889
11336SOL    HW135224   4.179   3.212   6.936 -0.5218  1.2361 -0.3076
11336SOL    HW235225   4.121   3.093   7.009  0.7079 -0.5240 -2.0845
11337SOL     OW35226   4.865   3.567   6.947 -0.3358 -0.4079  0.8069
11337SOL    HW135227   4.929   3.575   6.876 -0.6006 -1.1103  0.4812
11337SOL    HW235228   4.816   3.649   6.945  0.2896 -0.0270  0.8064
11338SOL     OW35229   5.013   3.205   6.395 -0.4386 -1.0514  0.4676
11338SOL    HW135230   4.928   3.213   6.350 -0.2326  0.1352  0.2392
11338SOL    HW235231   4.993   3.225   6.487 -0.1424  1.1524  0.1112
11339SOL     OW35232   4.225   1.856   6.434 -0.0016  0.3277  0.3416
11339SOL    HW135233   4.257   1.928   6.380 -0.4804  0.5647  0.3634
11339SOL    HW235234   4.207   1.785   6.373  0.2974  0.2902  0.2974
11340SOL     OW35235   5.909   2.164   7.199  0.4760  0.0251  0.3944
11340SOL    HW135236   5.895   2.256   7.179 -0.9803 -0.0083  1.1382
11340SOL    HW235237   5.821   2.125   7.198  0.8027 -0.8904  2.2142
11341SOL     OW35238   4.756   2.668   5.739 -0.1756 -0.0581 -0.3689
11341SOL    HW135239   4.661   2.680   5.738 -0.1298  0.3739 -0.0169
11341SOL    HW235240   4.774   2.625   5.823 -0.0658 -0.2160 -0.4714
11342SOL     OW35241   3.833   2.789   7.289 -0.2948  0.4699 -0.4183
11342SOL    HW135242   3.929   2.797   7.292 -0.3047  0.6165 -0.4732
11342SOL    HW235243   3.802   2.878   7.306 -0.4477  0.1276  1.2603
11343SOL     OW35244   4.494   1.789   7.147 -0.0906 -0.3836  0.6081
11343SOL    HW135245   4.574   1.841   7.139  0.2803 -0.7443  1.7180
11343SOL    HW235246   4.423   1.852   7.138  0.3464  0.3863  2.1800
11344SOL     OW35247   4.076   2.072   5.976 -0.4448 -0.5787  0.4968
11344SOL    HW135248   3.985   2.051   5.954 -0.3170  0.8794 -1.8290
11344SOL    HW235249   4.074   2.164   6.003  0.2745 -0.6868  0.9632
11345SOL     OW35250   5.154   2.766   6.994  0.0371 -0.7423  0.5445
11345SOL    HW135251   5.075   2.785   6.944  0.1196 -0.3356  0.5652
11345SOL    HW235252   5.159   2.835   7.059  0.7047 -0.4441  0.1900
11346SOL     OW35253   3.812   1.957   5.867 -0.3091  0.1113 -0.8723
11346SOL    HW135254   3.732   1.985   5.824 -0.6640  1.2244  0.4161
11346SOL    HW235255   3.790   1.872   5.906 -1.2527  0.8870  0.3768
11347SOL     OW35256   4.395   3.461   5.545 -0.4795 -0.3168 -0.6617
11347SOL    HW135257   4.485   3.480   5.521  0.4658 -0.4001  2.4169
11347SOL    HW235258   4.354   3.547   5.555 -1.2387 -0.2692 -3.3520
11348SOL     OW35259   4.407   3.175   6.827 -0.5928 -0.4721  0.1273
11348SOL    HW135260   4.442   3.204   6.911 -2.2294 -2.2505  1.5326
11348SOL    HW235261   4.339   3.239   6.806 -0.2634 -0.0845  0.2476
11349SOL     OW35262   4.372   2.115   7.151  0.5172  0.4418 -0.4204
11349SOL    HW135263   4.387   2.170   7.228  1.1856 -1.2756  0.7451
11349SOL    HW235264   4.429   2.151   7.084  0.5626  1.4635  0.1520
11350SOL     OW35265   5.090   2.903   7.247 -0.1939  0.6667  0.2241
11350SOL    HW135266   5.015   2.914   7.305 -0.5195  0.3815 -0.1426
11350SOL    HW235267   5.078   2.970   7.179 -0.4688  0.1847 -0.2051
11351SOL     OW35268   4.049   3.479   7.509 -0.2923 -0.3638 -0.4566
11351SOL    HW135269   4.072   3.461   7.417 -1.1103 -2.4187 -0.3156
11351SOL    HW235270   3.961   3.444   7.519 -0.3669  0.1824  1.0339
11352SOL     OW35271   5.384   2.845   6.845 -0.2048  0.0845 -0.4711
11352SOL    HW135272   5.304   2.792   6.850  0.9950 -1.7993 -0.4741
11352SOL    HW235273   5.450   2.794   6.891  1.3936  0.8292 -1.8250
11353SOL     OW35274   4.631   1.808   6.162 -0.1046  0.1418  0.5446
11353SOL    HW135275   4.609   1.890   6.207  1.3501  1.1056 -0.4027
11353SOL    HW235276   4.551   1.756   6.166 -1.3521  1.9590  0.4336
11354SOL     OW35277   3.670   2.206   6.491  0.2160  0.4606 -0.7286
11354SOL    HW135278   3.591   2.252   6.520  1.1437 -0.2272  3.5421
11354SOL    HW235279   3.742   2.266   6.513  1.1465 -1.1397  0.8491
11355SOL     OW35280   4.771   2.371   7.186 -0.4180  0.1870 -0.5766
11355SOL    HW135281   4.689   2.350   7.231 -0.2734  0.2941 -0.2580
11355SOL    HW235282   4.809   2.442   7.237  0.2988 -0.4466 -0.2046
11356SOL     OW35283   5.342   2.654   7.118 -0.1778 -0.1333 -0.3131
11356SOL    HW135284   5.424   2.667   7.070  0.2749  1.9378  0.8797
11356SOL    HW235285   5.273   2.674   7.055  0.3665  1.3865 -0.4712
11357SOL     OW35286   4.254   3.690   5.602 -0.3136 -0.1532  0.6672
11357SOL    HW135287   4.247   3.786   5.604  1.5692  0.0443 -0.3043
11357SOL    HW235288   4.193   3.661   5.670 -0.7154  1.7407  1.1944
11358SOL     OW35289   4.336   3.097   6.556  0.0528  0.4782  0.2955
11358SOL    HW135290   4.362   3.008   6.532 -1.7561  0.4103 -1.7234
11358SOL    HW235291   4.360   3.150   6.481 -0.6322  1.3389  0.6674
11359SOL     OW35292   4.483   2.545   5.781  0.2665  0.1929 -0.2367
11359SOL    HW135293   4.512   2.477   5.841 -1.0983  0.1671  0.4466
11359SOL    HW235294   4.495   2.507   5.694 -0.9384 -1.1529  0.1422
11360SOL     OW35295   5.670   3.629   6.196  0.3492  0.3022  0.1449
11360SOL    HW135296   5.699   3.543   6.165 -0.6374  0.1719 -0.4701
11360SOL    HW235297   5.574   3.624   6.194  0.2707  0.9901  1.3154
11361SOL     OW35298   4.112   2.770   7.232  0.1677 -0.6445  0.1205
11361SOL    HW135299   4.140   2.725   7.152  0.1681  0.4243 -0.5019
11361SOL    HW235300   4.189   2.821   7.259 -0.8516  1.7984 -1.2400
11362SOL     OW35301   3.777   2.763   6.099 -0.0415 -0.2945 -0.3043
11362SOL    HW135302   3.780   2.704   6.023  2.3146 -0.7147  0.0495
11362SOL    HW235303   3.789   2.850   6.062 -2.5002 -0.0615 -0.7203
11363SOL     OW35304   4.343   2.949   7.230 -0.0270  0.0091  0.1875
11363SOL    HW135305   4.350   3.009   7.304  0.3454 -0.3908  0.4884
11363SOL    HW235306   4.317   3.004   7.156 -1.4779  0.2501  0.8396
11364SOL     OW35307   5.322   2.469   6.863  0.4515  0.1337 -0.1259
11364SOL    HW135308   5.272   2.433   6.936  1.2525 -0.2423  0.2561
11364SOL    HW235309   5.256   2.501   6.802 -0.2410  0.7272  0.8918
11365SOL     OW35310   4.113   2.440   6.561 -0.6274  0.5954 -0.1926
11365SOL    HW135311   4.159   2.523   6.554 -0.7337  0.7605  0.8979
11365SOL    HW235312   4.131   2.410   6.650 -1.6294  0.0675 -0.1533
11366SOL     OW35313   5.291   3.073   6.748  0.4810 -0.2756  0.0254
11366SOL    HW135314   5.336   2.998   6.786  0.2020 -0.8798 -0.8275
11366SOL    HW235315   5.200   3.045   6.739  0.5943 -0.2692 -1.3674
11367SOL     OW35316   3.565   2.423   6.851 -0.2084 -0.1412 -0.7204
11367SOL    HW135317   3.540   2.372   6.927  0.7109  1.2685  0.5872
11367SOL    HW235318   3.577   2.512   6.885  0.6943  0.4262 -2.4152
11368SOL     OW35319   5.083   2.049   6.663 -0.6171 -0.6158  0.8655
11368SOL    HW135320   5.097   1.958   6.637 -0.2364 -0.4705  0.5488
11368SOL    HW235321   5.168   2.092   6.648 -0.1523 -0.6796  3.0533
11369SOL     OW35322   4.659   1.905   6.773  0.4611 -0.2371  0.5600
11369SOL    HW135323   4.563   1.905   6.765  0.4694  2.0677 -0.4608
11369SOL    HW235324   4.676   1.952   6.855  0.7257 -0.0426  0.3928
11370SOL     OW35325   4.553   3.108   6.268 -0.0760 -0.0020 -0.0402
11370SOL    HW135326   4.648   3.122   6.266  0.2108 -1.6944  0.2441
11370SOL    HW235327   4.518   3.189   6.305  1.3308  0.3305  0.6452
11371SOL     OW35328   4.313   3.450   6.979  0.0753  0.4179  0.0897
11371SOL    HW135329   4.323   3.530   7.031 -1.8706  1.3418 -0.8136
11371SOL    HW235330   4.338   3.476   6.890  1.0786 -0.4782  0.0934
11372SOL     OW35331   4.847   1.945   5.851 -0.2635  0.0213 -0.0582
11372SOL    HW135332   4.922   2.003   5.838 -0.7659  0.8034  0.4468
11372SOL    HW235333   4.829   1.909   5.765  0.1751  0.4746 -0.3440
11373SOL     OW35334   4.739   2.137   6.041  0.2718  0.5335 -0.3451
11373SOL    HW135335   4.694   2.089   6.111  0.6078  0.4323 -0.1970
11373SOL    HW235336   4.769   2.069   5.981  1.5466  0.4763  0.3299
11374SOL     OW35337   5.184   2.166   6.352  0.4930 -0.2446  0.0104
11374SOL    HW135338   5.100   2.130   6.325 -0.0641  2.0340 -1.5375
11374SOL    HW235339   5.167   2.202   6.439 -0.0838 -0.0279 -0.1838
11375SOL     OW35340   3.633   3.058   6.238 -0.3593  1.0487 -0.2207
11375SOL    HW135341   3.712   3.059   6.184  0.3932  0.4184  0.8463
11375SOL    HW235342   3.655   3.113   6.314 -0.1063 -0.9205  1.2070
11376SOL     OW35343   3.808   2.278   7.609  0.2075 -0.9513  0.1023
11376SOL    HW135344   3.747   2.226   7.661 -1.1759  0.3378 -0.1448
11376SOL    HW235345   3.752   2.342   7.565  1.6613 -0.2883 -0.8501
11377SOL     OW35346   4.140   2.195   8.329  0.1280  0.2526 -0.3151
11377SOL    HW135347   4.058   2.230   8.293 -0.0457 -1.1683 -1.3800
11377SOL    HW235348   4.153   2.244   8.410 -0.0553  2.8448 -1.7343
11378SOL     OW35349   3.416   2.291   8.269 -0.4808 -0.4705 -0.5238
11378SOL    HW135350   3.419   2.254   8.181 -1.3235  1.2439 -1.3369
11378SOL    HW235351   3.323   2.311   8.283 -0.3275 -0.5220  0.6703
11379SOL     OW35352   4.422   3.121   8.774 -0.1688 -0.0660  0.0222
11379SOL    HW135353   4.504   3.109   8.727 -0.2153  0.7944 -0.2829
11379SOL    HW235354   4.355   3.085   8.715 -0.1643  0.5053 -0.3370
11380SOL     OW35355   5.244   3.544   8.025 -0.2142  0.0135  0.0865
11380SOL    HW135356   5.151   3.525   8.039 -0.0614  0.3057  1.6989
11380SOL    HW235357   5.253   3.551   7.930 -1.9353  0.4504 -0.0805
11381SOL     OW35358   5.008   2.474   8.064  0.3852  0.0111 -0.0132
11381SOL    HW135359   4.963   2.437   7.988 -0.4130 -2.0214  1.3561
11381SOL    HW235360   5.098   2.445   8.054  0.7910  1.5235 -1.1971
11382SOL     OW35361   5.107   2.833   8.002 -1.1423  0.4925  0.4047
11382SOL    HW135362   5.078   2.778   7.929  0.3582 -2.2458  1.7161
11382SOL    HW235363   5.168   2.895   7.963  0.4256 -1.5785 -0.5927
11383SOL     OW35364   4.557   2.843   8.464  0.1494 -0.0015  0.2484
11383SOL    HW135365   4.643   2.828   8.424  0.6880 -0.7485  1.6135
11383SOL    HW235366   4.495   2.800   8.406  0.6703  0.6488 -0.8210
11384SOL     OW35367   4.973   2.706   8.211  0.1057 -0.3265  0.1259
11384SOL    HW135368   5.034   2.766   8.169  0.2396 -0.2473  0.4317
11384SOL    HW235369   4.997   2.620   8.177 -0.0815 -0.2119 -0.3073
11385SOL     OW35370   4.808   2.658   8.473 -0.0283  0.6003 -0.0485
11385SOL    HW135371   4.852   2.670   8.388  1.4746 -2.0784  0.2518
11385SOL    HW235372   4.747   2.586   8.457  1.9151 -1.5671  1.5801
11386SOL     OW35373   4.145   2.195   8.642 -0.0397  0.5055  0.0774
11386SOL    HW135374   4.118   2.212   8.732  0.2024  0.5526  0.1409
11386SOL    HW235375   4.071   2.148   8.603 -0.2742  0.7672  0.2071
11387SOL     OW35376   5.368   2.030   7.939 -0.0592  0.0298  0.6277
11387SOL    HW135377   5.413   2.054   7.858  0.4860 -0.6861  0.7075
11387SOL    HW235378   5.432   1.977   7.987 -0.5195  0.1106  1.3447
11388SOL     OW35379   3.926   3.612   7.847  0.3453  0.6333  0.4277
11388SOL    HW135380   3.912   3.689   7.900  1.3346 -0.2315  2.0152
11388SOL    HW235381   3.979   3.642   7.773  1.3831  1.3328  1.4421
11389SOL     OW35382   3.538   3.292   8.187 -0.3482 -0.3874  0.3020
11389SOL    HW135383   3.566   3.381   8.166 -1.6704 -0.3362 -1.4948
11389SOL    HW235384   3.564   3.279   8.278 -0.9179  2.1603  0.8893
11390SOL     OW35385   4.236   3.352   8.761 -0.3670 -0.0138 -0.2118
11390SOL    HW135386   4.185   3.334   8.682  1.6672 -1.9760 -1.2282
11390SOL    HW235387   4.289   3.273   8.773 -0.7136  0.1410  3.2854
11391SOL     OW35388   4.336   3.868   8.765 -0.1506  0.0470  0.0841
11391SOL    HW135389   4.378   3.891   8.847 -0.6299  1.2254  0.0205
11391SOL    HW235390   4.320   3.774   8.771  1.1786 -0.1571  0.6963
11392SOL     OW35391   4.858   2.881   7.414 -0.3924 -0.1333 -0.2459
11392SOL    HW135392   4.839   2.912   7.503 -0.0322 -2.9707  0.9401
11392SOL    HW235393   4.791   2.922   7.360 -1.6514  0.4255  1.6263
11393SOL     OW35394   4.371   2.595   8.549  0.3545 -0.3110 -0.2016
11393SOL    HW135395   4.446   2.650   8.570  1.0307 -0.8495 -1.1013
11393SOL    HW235396   4.301   2.656   8.528  0.3354  0.2063  1.2633
11394SOL     OW35397   5.933   3.759   7.774 -0.5324 -0.5365  0.4982
11394SOL    HW135398   6.010   3.744   7.719 -0.4351 -0.7958  0.7013
11394SOL    HW235399   5.889   3.834   7.735  0.3045  0.1666  0.8998
11395SOL     OW35400   3.865   3.202   7.144 -0.3697  0.0111  0.3234
11395SOL    HW135401   3.931   3.257   7.186 -0.8038  0.4830  0.4013
11395SOL    HW235402   3.907   3.117   7.133  0.9699  0.8652 -1.5194
11396SOL     OW35403   5.880   2.425   7.910  0.4560  0.5255 -0.0895
11396SOL    HW135404   5.855   2.369   7.984 -0.8455  0.8656 -0.2446
11396SOL    HW235405   5.804   2.481   7.896  0.4424  0.0687 -2.0730
11397SOL     OW35406   5.563   2.990   8.158 -0.1720 -0.7102  0.4031
11397SOL    HW135407   5.633   3.037   8.113 -1.2872  0.9421  0.3086
11397SOL    HW235408   5.589   2.898   8.154  1.9240 -0.1485  0.2980
11398SOL     OW35409   4.688   3.217   7.925 -0.1675 -0.6080  0.2322
11398SOL    HW135410   4.670   3.143   7.983 -1.3260 -1.0711 -0.6956
11398SOL    HW235411   4.778   3.242   7.947 -0.0681 -1.7067  1.1949
11399SOL     OW35412   4.582   2.037   7.429  0.0643  0.3259  0.1304
11399SOL    HW135413   4.504   2.077   7.391  0.1138  1.0424  0.7556
11399SOL    HW235414   4.579   2.061   7.521  1.0264  0.3612  0.1641
11400SOL     OW35415   4.246   2.969   8.623  0.0987  0.8071 -0.2676
11400SOL    HW135416   4.173   2.908   8.637 -1.1479  2.2644 -0.1195
11400SOL    HW235417   4.251   2.980   8.528  0.2200  0.5820 -0.2859
11401SOL     OW35418   5.522   2.545   7.720  0.5143  0.7379  1.0021
11401SOL    HW135419   5.581   2.518   7.649  0.4442 -0.7458  1.4719
11401SOL    HW235420   5.581   2.579   7.787  0.7545  0.2975  1.0203
11402SOL     OW35421   4.974   3.032   8.418 -0.2198  0.1730  0.3313
11402SOL    HW135422   5.022   3.107   8.452  1.9337 -1.9959  2.4437
11402SOL    HW235423   5.033   2.958   8.429 -2.2640 -1.9030 -1.5592
11403SOL     OW35424   4.887   3.789   8.024 -0.0301  0.5210 -0.6923
11403SOL    HW135425   4.923   3.705   7.996  0.6227  0.9127 -1.0493
11403SOL    HW235426   4.796   3.770   8.045  0.3447 -0.4665  0.1258
11404SOL     OW35427   4.439   2.384   7.685 -0.2032  0.1355 -0.0564
11404SOL    HW135428   4.534   2.395   7.678  0.3239 -2.1505  2.2106
11404SOL    HW235429   4.409   2.469   7.717  1.3343  0.3739  0.8897
11405SOL     OW35430   5.248   2.310   8.154  0.1698 -0.0907 -0.0445
11405SOL    HW135431   5.321   2.278   8.206 -0.0608 -1.4741 -0.5064
11405SOL    HW235432   5.190   2.354   8.216  0.3818 -0.8363  0.6942
11406SOL     OW35433   5.397   3.983   7.686  0.2758 -0.3333 -0.0753
11406SOL    HW135434   5.450   3.907   7.663  0.6017 -0.4678  1.0367
11406SOL    HW235435   5.352   4.007   7.605  0.0972 -1.7600 -0.4265
11407SOL     OW35436   4.467   2.005   8.835 -0.6283  0.0425  0.6320
11407SOL    HW135437   4.549   1.998   8.884 -0.2444 -0.5439 -0.0649
11407SOL    HW235438   4.484   2.075   8.772 -0.3578 -0.6172 -0.0498
11408SOL     OW35439   4.691   2.271   8.621 -0.0403 -0.4338  0.1946
11408SOL    HW135440   4.679   2.362   8.594  2.1912 -0.0528  0.2581
11408SOL    HW235441   4.668   2.270   8.714  1.9082  0.6177  0.7531
11409SOL     OW35442   4.775   2.310   8.151 -0.0266 -0.1381 -0.0684
11409SOL    HW135443   4.817   2.237   8.106  3.0673  1.8742 -0.7651
11409SOL    HW235444   4.722   2.353   8.083  3.4176  1.9824 -1.7397
11410SOL     OW35445   4.445   2.731   8.237  0.0213  0.1740 -0.0259
11410SOL    HW135446   4.523   2.690   8.200 -0.0115 -0.0078  0.1089
11410SOL    HW235447   4.375   2.669   8.219 -0.1260  0.4170 -0.3038
11411SOL     OW35448   3.782   3.698   0.066  0.5307  0.0193  0.5583
11411SOL    HW135449   3.776   3.707   0.161 -0.9935  0.1504  0.4733
11411SOL    HW235450   3.703   3.741   0.033  0.6032 -0.7775 -0.7221
11412SOL     OW35451   4.331   2.201   7.456 -0.4064  0.0888 -0.5000
11412SOL    HW135452   4.390   2.260   7.502  0.4542 -0.0843 -1.3334
11412SOL    HW235453   4.244   2.227   7.483  0.0212  0.9092  0.1150
11413SOL     OW35454   5.298   2.982   7.858 -0.4858  0.8922  0.7708
11413SOL    HW135455   5.296   3.074   7.835 -0.6266  0.2332 -2.2604
11413SOL    HW235456   5.388   2.954   7.839 -1.1600 -0.1509 -1.1103
11414SOL     OW35457   4.411   2.148   7.846 -0.6833 -0.0758 -0.0417
11414SOL    HW135458   4.361   2.164   7.926  0.2923  1.3869  0.3092
11414SOL    HW235459   4.410   2.232   7.800 -0.8977 -0.7907 -1.4074
11415SOL     OW35460   4.361   2.964   8.093  0.5532  0.3605 -0.3424
11415SOL    HW135461   4.391   2.877   8.119 -1.0481  0.1998  1.1741
11415SOL    HW235462   4.339   2.955   8.000 -1.3330 -1.4182  0.2060
11416SOL     OW35463   4.315   3.500   8.492  0.6906 -0.2674  0.2386
11416SOL    HW135464   4.279   3.419   8.527 -1.1096  1.1714  1.9740
11416SOL    HW235465   4.408   3.482   8.480  0.3758 -2.5114  0.7485
11417SOL     OW35466   5.746   2.918   8.377  0.4069 -0.1643  0.4429
11417SOL    HW135467   5.682   2.970   8.327 -1.4154 -1.8412  0.9080
11417SOL    HW235468   5.731   2.943   8.468 -0.7970 -1.7482  0.7144
11418SOL     OW35469   4.095   2.688   7.664 -0.1979 -0.4974  0.2067
11418SOL    HW135470   4.123   2.628   7.595  0.2982  0.6918 -0.6428
11418SOL    HW235471   4.040   2.634   7.721 -2.3252 -1.0599 -2.1875
11419SOL     OW35472   5.420   2.522   8.659 -0.3442  1.0626  0.3295
11419SOL    HW135473   5.455   2.448   8.709 -0.2036  1.5546  0.9660
11419SOL    HW235474   5.325   2.509   8.663 -0.3099 -0.7883 -2.1816
11420SOL     OW35475   4.940   3.272   7.482  0.6238  0.1309  0.2550
11420SOL    HW135476   4.848   3.262   7.508  0.6617 -0.1837  0.2815
11420SOL    HW235477   4.980   3.322   7.552  1.0325 -1.8594  1.5308
11421SOL     OW35478   5.721   3.400   7.559 -0.0708  0.1913 -0.0331
11421SOL    HW135479   5.747   3.461   7.628 -1.2468  1.7059 -0.8608
11421SOL    HW235480   5.664   3.452   7.502  1.7766 -0.6430 -2.8206
11422SOL     OW35481   4.242   3.487   7.999  1.0213  0.0881 -0.0926
11422SOL    HW135482   4.185   3.471   7.924  0.9233 -0.5623  0.1197
11422SOL    HW235483   4.329   3.498   7.960  0.9453 -0.0774 -0.3129
11423SOL     OW35484   5.732   1.966   7.965 -0.5898 -0.3055 -0.2408
11423SOL    HW135485   5.689   1.883   7.985  0.5124 -0.8761 -0.1538
11423SOL    HW235486   5.781   1.949   7.885  0.4892 -0.0669  0.3529
11424SOL     OW35487   4.144   4.031   8.676  0.1731 -1.0196  0.3617
11424SOL    HW135488   4.073   3.971   8.695 -0.0552 -1.1840 -0.9035
11424SOL    HW235489   4.223   3.978   8.679 -0.0178 -1.3889 -0.6475
11425SOL     OW35490   4.601   3.726   8.317  0.2066  0.0651 -0.7348
11425SOL    HW135491   4.518   3.772   8.332  0.5499  0.0677  1.5304
11425SOL    HW235492   4.585   3.638   8.352  1.2063  0.1379 -0.0678
11426SOL     OW35493   4.041   2.723   8.000  0.2075  0.1963 -0.1918
11426SOL    HW135494   4.042   2.664   8.076  0.0576 -0.0340 -0.3677
11426SOL    HW235495   3.991   2.675   7.933 -1.7471  1.3738  0.3436
11427SOL     OW35496   4.145   2.241   6.928 -0.1443  0.2064 -0.0546
11427SOL    HW135497   4.129   2.277   7.015  2.0844 -0.4303  0.6896
11427SOL    HW235498   4.059   2.243   6.885 -1.3518  0.3495  2.1981
11428SOL     OW35499   4.592   3.494   8.484 -0.4891  0.2866  0.0572
11428SOL    HW135500   4.632   3.507   8.570  0.0187 -2.5657  0.3364
11428SOL    HW235501   4.615   3.405   8.460 -0.9344  0.8756 -2.9239
11429SOL     OW35502   4.624   3.072   8.143  0.2206 -0.4465  0.3263
11429SOL    HW135503   4.658   3.013   8.210 -0.3592 -0.1103  0.9319
11429SOL    HW235504   4.540   3.033   8.118  0.1193 -0.2039  0.2870
11430SOL     OW35505   4.581   2.008   8.288 -0.6586  0.2225 -0.4698
11430SOL    HW135506   4.551   1.929   8.245 -0.8058  0.0767 -0.1083
11430SOL    HW235507   4.674   1.993   8.304 -0.3525  0.7219 -1.6953
11431SOL     OW35508   4.286   1.913   7.723 -0.1179  0.4735 -0.0732
11431SOL    HW135509   4.343   1.986   7.750  0.5828  0.4365 -1.3322
11431SOL    HW235510   4.317   1.891   7.635  0.1686 -1.8303  0.5458
11432SOL     OW35511   5.091   3.000   7.564 -0.1344  0.0230  0.0225
11432SOL    HW135512   5.149   3.075   7.552 -2.2471  1.7710  0.1993
11432SOL    HW235513   5.085   2.961   7.477 -0.0283  0.8491 -0.3644
11433SOL     OW35514   4.004   1.951   7.724  0.4453 -0.3669 -0.1015
11433SOL    HW135515   4.094   1.978   7.708  0.0356  0.6372 -0.8038
11433SOL    HW235516   3.994   1.955   7.819  0.5761  1.4740 -0.1338
11434SOL     OW35517   5.246   1.552   8.311  0.3627  0.4333  0.6302
11434SOL    HW135518   5.308   1.609   8.267  0.1181 -1.7087 -2.8821
11434SOL    HW235519   5.300   1.493   8.362  1.1821 -0.2498 -0.9521
11435SOL     OW35520   4.609   3.742   8.009  0.2354  0.0847  0.4768
11435SOL    HW135521   4.589   3.728   8.101  0.1870 -0.9028  0.3252
11435SOL    HW235522   4.524   3.756   7.967  0.3454  2.0957  0.7951
11436SOL     OW35523   4.154   3.257   8.487  0.1757  0.0408  0.2060
11436SOL    HW135524   4.217   3.234   8.419 -0.5766  0.6703 -0.7156
11436SOL    HW235525   4.069   3.252   8.444 -0.4995 -1.5135  1.6141
11437SOL     OW35526   4.501   3.469   7.919  0.3768  0.4911  0.5671
11437SOL    HW135527   4.569   3.405   7.896 -1.0484 -0.1511 -2.3480
11437SOL    HW235528   4.539   3.554   7.899  1.4406  0.4410  2.1925
11438SOL     OW35529   4.899   2.152   7.892  0.0037 -0.6933 -0.1557
11438SOL    HW135530   4.984   2.195   7.907 -0.3844  0.7118 -1.6583
11438SOL    HW235531   4.888   2.093   7.966  1.5830  0.2506  0.8791
11439SOL     OW35532   4.667   1.447   8.143 -0.4679 -0.6580  0.0600
11439SOL    HW135533   4.753   1.441   8.103 -0.0661 -2.2159  1.0634
11439SOL    HW235534   4.614   1.381   8.098 -0.8957 -0.3046  0.0316
11440SOL     OW35535   4.655   2.476   7.916  0.8051 -0.6166  0.0163
11440SOL    HW135536   4.571   2.521   7.911  0.6265 -0.6729  1.8231
11440SOL    HW235537   4.673   2.448   7.826 -1.4505 -1.2200 -0.3069
11441SOL     OW35538   4.767   1.771   8.106 -0.2491 -0.1602 -0.2172
11441SOL    HW135539   4.697   1.706   8.099  0.0469 -0.5979  0.7054
11441SOL    HW235540   4.847   1.723   8.086  0.0450 -0.2475  1.1230
11442SOL     OW35541   5.310   2.888   8.239  0.3351 -0.0832  0.6301
11442SOL    HW135542   5.393   2.911   8.198 -0.5018 -0.5236 -1.4373
11442SOL    HW235543   5.314   2.793   8.250  0.4222 -0.0077  1.3139
11443SOL     OW35544   5.474   2.257   8.750  0.3035  0.8146 -0.1339
11443SOL    HW135545   5.444   2.248   8.660 -3.0367 -0.1048  0.9638
11443SOL    HW235546   5.543   2.191   8.759 -0.9772 -0.7884 -1.3960
11444SOL     OW35547   5.678   2.066   7.502  0.2481 -0.2870  0.5035
11444SOL    HW135548   5.651   2.016   7.425  1.2198  0.2641 -0.2299
11444SOL    HW235549   5.773   2.077   7.491 -0.0082  2.3478  0.2117
11445SOL     OW35550   4.291   3.222   7.677 -0.2764  0.5541  0.7140
11445SOL    HW135551   4.346   3.280   7.623 -0.9929  0.2553 -0.3599
11445SOL    HW235552   4.351   3.190   7.744  1.4055 -1.1426 -1.4321
11446SOL     OW35553   5.496   3.320   8.002 -0.4470  0.3082 -0.4161
11446SOL    HW135554   5.493   3.318   8.098 -0.9221 -0.3675 -0.4427
11446SOL    HW235555   5.414   3.279   7.974 -1.0460  1.8751 -1.1190
11447SOL     OW35556   5.235   2.458   7.695  0.5152  0.0727 -0.0314
11447SOL    HW135557   5.254   2.402   7.771 -0.1987  0.0349  0.1195
11447SOL    HW235558   5.322   2.485   7.664  0.9732 -2.2177 -0.9520
11448SOL     OW35559   4.642   2.118   7.702 -0.3067  0.1662 -0.9474
11448SOL    HW135560   4.681   2.205   7.705  1.6302 -0.5966 -2.3460
11448SOL    HW235561   4.568   2.123   7.762  0.5541  2.3777  0.0239
11449SOL     OW35562   5.349   2.934   0.300  0.2686  0.0488 -0.3760
11449SOL    HW135563   5.310   3.019   0.282  0.5931  0.0884 -0.9205
11449SOL    HW235564   5.283   2.887   0.352  0.6265  1.1143  1.0939
11450SOL     OW35565   4.782   2.907   8.285 -0.0249 -0.2879 -0.1980
11450SOL    HW135566   4.835   2.843   8.237  2.2522  2.0055 -0.9270
11450SOL    HW235567   4.845   2.965   8.327 -1.9870  0.8697  1.3724
11451SOL     OW35568   5.300   3.090   8.424  0.0520  0.6442 -0.2262
11451SOL    HW135569   5.380   3.083   8.476  0.3171 -1.8084 -0.8622
11451SOL    HW235570   5.266   3.001   8.420 -2.0260  1.4232 -1.0641
11452SOL     OW35571   4.505   2.835   7.668  0.1760  0.3504  0.0785
11452SOL    HW135572   4.576   2.833   7.732 -0.2736 -0.2554  0.5624
11452SOL    HW235573   4.425   2.824   7.719 -0.1565 -0.5816 -0.6169
11453SOL     OW35574   4.131   2.682   8.757  0.3809  0.0471 -0.0347
11453SOL    HW135575   4.125   2.736   8.836  1.8441  0.8329 -0.4114
11453SOL    HW235576   4.199   2.617   8.778  0.1322 -0.3132 -0.3315
11454SOL     OW35577   4.874   2.172   8.399 -0.0808 -0.4802  0.1473
11454SOL    HW135578   4.822   2.191   8.477 -2.1610 -2.1708 -0.7194
11454SOL    HW235579   4.835   2.225   8.330  1.0676  0.1992 -0.0087
11455SOL     OW35580   3.937   3.488   8.736  0.3830  0.2650 -0.4009
11455SOL    HW135581   3.950   3.403   8.777  1.5803 -0.6940 -2.6063
11455SOL    HW235582   3.963   3.551   8.804 -1.1243 -1.0275  1.4876
11456SOL     OW35583   4.347   3.157   8.299 -0.1856 -0.0683  0.1530
11456SOL    HW135584   4.395   3.230   8.259 -2.9689  1.2208 -1.1994
11456SOL    HW235585   4.343   3.091   8.230 -0.2744 -0.1791  0.2644
11457SOL     OW35586   4.101   2.441   7.950 -0.5291  1.2520 -0.0176
11457SOL    HW135587   4.088   2.425   7.856  0.3302  1.0679 -0.1055
11457SOL    HW235588   4.109   2.354   7.988 -1.1804  1.3150  0.2801
11458SOL     OW35589   5.067   3.433   7.741 -0.7993  0.3980 -0.0529
11458SOL    HW135590   4.974   3.445   7.762 -1.1404  1.6938 -2.0327
11458SOL    HW235591   5.101   3.522   7.734  0.4934 -0.0641  0.1516
11459SOL     OW35592   5.118   2.813   8.570 -0.9447 -0.2340  0.4751
11459SOL    HW135593   5.179   2.743   8.552  0.8109  1.3346 -0.0209
11459SOL    HW235594   5.031   2.774   8.557 -0.0741 -2.4549  0.9882
11460SOL     OW35595   5.166   2.217   7.926  0.4145 -0.1250  0.4251
11460SOL    HW135596   5.207   2.236   8.010  1.1803  0.8110 -0.1339
11460SOL    HW235597   5.210   2.138   7.894  0.9348  0.1730  0.3903
11461SOL     OW35598   4.485   3.012   0.171 -0.1844 -0.1097 -0.3206
11461SOL    HW135599   4.581   3.006   0.170 -0.0751  1.3626 -0.6448
11461SOL    HW235600   4.462   3.040   0.083 -0.9007 -0.1858 -0.1624
11462SOL     OW35601   4.641   3.059   8.568 -0.3320 -0.2873 -0.0904
11462SOL    HW135602   4.596   2.981   8.534 -0.0787 -0.2595 -0.4941
11462SOL    HW235603   4.667   3.107   8.489 -0.0655 -0.0356  0.1513
11463SOL     OW35604   5.058   2.376   8.372 -0.2072  0.1000  0.4655
11463SOL    HW135605   5.019   2.300   8.329 -2.7882  2.0528 -0.9371
11463SOL    HW235606   5.062   2.352   8.464 -1.9462 -1.4061  0.2126
11464SOL     OW35607   5.156   1.932   8.077 -0.1596 -0.4497  0.1622
11464SOL    HW135608   5.231   1.968   8.030 -0.1243 -0.2175  0.3963
11464SOL    HW235609   5.090   2.001   8.074  0.1227 -0.1368  1.1266
11465SOL     OW35610   4.437   1.762   8.158 -0.0496 -0.0451 -0.0141
11465SOL    HW135611   4.421   1.746   8.065 -0.3725 -0.9832  0.1870
11465SOL    HW235612   4.359   1.809   8.187  0.1373  0.4203 -0.2515
11466SOL     OW35613   3.565   3.323   8.464  0.4109  0.2882 -0.2689
11466SOL    HW135614   3.513   3.283   8.533  0.7838 -0.0470 -0.1778
11466SOL    HW235615   3.609   3.397   8.507  0.9379 -0.1462 -0.0458
11467SOL     OW35616   4.721   2.660   8.116 -0.1390 -0.0080 -0.3218
11467SOL    HW135617   4.716   2.584   8.059  0.4104 -1.0101  0.9206
11467SOL    HW235618   4.811   2.659   8.150 -1.2531 -1.2842  2.9345
11468SOL     OW35619   3.947   1.894   8.001 -0.0708  0.0008 -0.6507
11468SOL    HW135620   3.937   1.974   8.054  0.0657 -0.7301  0.5004
11468SOL    HW235621   3.873   1.840   8.026 -0.4361 -0.0483 -1.7989
11469SOL     OW35622   5.451   2.186   7.655 -0.2031  0.6771  0.2468
11469SOL    HW135623   5.389   2.154   7.589  1.3820  2.1503 -2.0596
11469SOL    HW235624   5.537   2.160   7.622  0.6404  1.4209  1.7759
11470SOL     OW35625   4.100   2.852   8.382 -0.7713 -0.4360 -0.2436
11470SOL    HW135626   4.106   2.926   8.322 -0.4770 -0.2658 -0.0046
11470SOL    HW235627   4.046   2.788   8.336 -0.6400 -0.2604 -0.6416
11471SOL     OW35628   5.251   2.197   7.466  0.0762 -0.1948 -0.6939
11471SOL    HW135629   5.209   2.112   7.477  0.2856 -0.2242 -0.0620
11471SOL    HW235630   5.208   2.253   7.531  0.1468  0.0993 -0.9012
11472SOL     OW35631   5.092   2.761   7.731  0.0720 -0.6031  0.1467
11472SOL    HW135632   5.079   2.683   7.677 -1.7590 -1.3226  1.5136
11472SOL    HW235633   5.084   2.834   7.670 -1.6845 -1.3974 -0.6431
11473SOL     OW35634   4.845   2.989   7.694  0.1608 -0.5867 -0.0977
11473SOL    HW135635   4.801   3.074   7.685 -0.6463 -0.6354  2.6884
11473SOL    HW235636   4.938   3.011   7.700  0.0520 -0.0014 -0.4400
11474SOL     OW35637   4.704   3.259   8.331 -0.1097  0.7806  0.0658
11474SOL    HW135638   4.796   3.284   8.331 -0.3231  1.6668 -1.5793
11474SOL    HW235639   4.695   3.199   8.257 -0.4412 -1.0669  1.5399
11475SOL     OW35640   4.217   2.573   8.222  0.6275 -0.7203  0.1337
11475SOL    HW135641   4.200   2.510   8.153  0.1707  0.2892 -0.7090
11475SOL    HW235642   4.136   2.576   8.273  0.7467 -1.0079  0.3439
11476SOL     OW35643   5.144   2.106   8.768 -0.4646  0.4036 -0.4373
11476SOL    HW135644   5.099   2.190   8.762 -1.4381  0.3176  3.2194
11476SOL    HW235645   5.080   2.041   8.740 -0.8659  0.6355 -0.0486
11477SOL     OW35646   4.070   3.280   7.852 -0.2688 -0.0385 -0.2154
11477SOL    HW135647   4.141   3.308   7.795  0.2715  1.2970  1.0683
11477SOL    HW235648   4.097   3.194   7.884  0.5367  0.2415 -0.1347
11478SOL     OW35649   3.862   3.367   8.185 -0.4821 -0.5629 -0.3751
11478SOL    HW135650   3.836   3.367   8.093  0.6732  1.5071 -0.7699
11478SOL    HW235651   3.954   3.393   8.184 -0.3755 -0.7457  1.3570
11479SOL     OW35652   4.969   2.986   8.752  1.2093  0.2079  0.0325
11479SOL    HW135653   4.992   2.916   8.812  0.1604  0.7990  1.1654
11479SOL    HW235654   5.024   2.971   8.675  0.0409 -2.6520 -0.3539
11480SOL     OW35655   4.759   2.707   0.048 -0.0878 -0.2450 -0.4225
11480SOL    HW135656   4.688   2.658   0.090  0.3678 -1.1142 -0.6477
11480SOL    HW235657   4.716   2.783   0.010 -1.3217 -1.9104 -2.5401
11481SOL     OW35658   3.925   2.519   8.649  0.4518 -0.4559 -0.4358
11481SOL    HW135659   4.013   2.550   8.670 -0.6469  1.1384  2.3520
11481SOL    HW235660   3.879   2.596   8.615 -1.0646  0.0657  2.4535
11482SOL     OW35661   4.642   2.877   7.923 -0.3376  0.6275 -0.1217
11482SOL    HW135662   4.660   2.842   8.010  0.8783 -0.8394 -0.9177
11482SOL    HW235663   4.724   2.915   7.894 -0.6753  0.9283 -0.7120
11483SOL     OW35664   5.675   2.606   8.490  0.4787  0.0661 -0.4547
11483SOL    HW135665   5.649   2.516   8.507 -2.6826  0.6418 -1.3713
11483SOL    HW235666   5.609   2.638   8.427 -0.1354  3.7202  1.7132
11484SOL     OW35667   4.481   2.262   8.265 -0.3457  0.0859  0.4774
11484SOL    HW135668   4.534   2.182   8.266  1.4122  1.1923  1.3738
11484SOL    HW235669   4.450   2.272   8.355 -0.9780  0.1666  0.2552
11485SOL     OW35670   4.370   3.574   8.815 -0.3594 -0.2468 -0.1538
11485SOL    HW135671   4.312   3.513   8.769 -0.3957  0.1042 -0.5772
11485SOL    HW235672   4.458   3.540   8.797 -0.3542  0.0818 -0.7726
11486SOL     OW35673   5.014   2.662   7.463  0.2078  0.4041 -0.0570
11486SOL    HW135674   5.018   2.632   7.372  1.9710  1.9648 -0.5518
11486SOL    HW235675   4.950   2.733   7.462 -0.3200 -0.0582  0.1024
11487SOL     OW35676   4.098   2.816   0.157  0.0106 -0.3495  0.3216
11487SOL    HW135677   4.127   2.834   0.246 -0.1264 -0.1649  0.3297
11487SOL    HW235678   4.021   2.872   0.145  0.5987  0.3588 -0.2445
11488SOL     OW35679   4.918   2.555   8.718 -0.0954 -0.5000 -0.1670
11488SOL    HW135680   4.876   2.578   8.635 -1.1121  0.1906  0.5098
11488SOL    HW235681   4.863   2.597   8.785  1.2222 -0.2800  0.8095
11489SOL     OW35682   5.302   2.618   8.118  0.3813 -0.4351 -0.2903
11489SOL    HW135683   5.294   2.542   8.060  1.8036 -1.4962  0.8264
11489SOL    HW235684   5.273   2.692   8.065 -1.5585 -1.7999 -1.2535
11490SOL     OW35685   5.447   3.243   8.768 -0.0005 -0.3774  0.1306
11490SOL    HW135686   5.420   3.170   8.712 -1.5807  0.9880 -0.9995
11490SOL    HW235687   5.542   3.244   8.762 -0.0801 -0.7135 -2.0563
11491SOL     OW35688   4.957   3.373   8.390  0.3644  0.3078 -0.2194
11491SOL    HW135689   5.042   3.379   8.346  0.3717  0.4989 -0.1764
11491SOL    HW235690   4.939   3.461   8.422  1.9200 -0.3996  3.0835
11492SOL     OW35691   3.989   3.117   8.698  0.0480 -0.1436 -0.1342
11492SOL    HW135692   3.948   3.166   8.627 -0.4463 -1.6410 -0.9329
11492SOL    HW235693   4.075   3.093   8.664  0.4589  0.5340  0.4187
11493SOL     OW35694   5.929   2.226   7.721  0.7249 -0.5521  0.2125
11493SOL    HW135695   5.917   2.287   7.793 -3.4774 -1.7769  0.8190
11493SOL    HW235696   5.959   2.280   7.648  0.5950  1.5619  1.6387
11494SOL     OW35697   5.089   3.965   8.068  0.6541 -0.7232 -0.0150
11494SOL    HW135698   5.150   3.938   8.000 -1.2416 -0.0570 -2.1273
11494SOL    HW235699   5.016   3.903   8.061 -0.5390  0.6277 -0.1087
11495SOL     OW35700   5.539   2.333   7.906  0.0772 -0.3738 -0.6754
11495SOL    HW135701   5.550   2.419   7.867  0.1881 -0.7081 -1.4164
11495SOL    HW235702   5.485   2.285   7.842 -1.7718 -0.2199  0.6893
11496SOL     OW35703   3.989   3.448   7.223 -0.1150 -0.0019  0.2002
11496SOL    HW135704   4.055   3.432   7.156 -0.3900  2.4641 -0.7710
11496SOL    HW235705   3.952   3.533   7.201 -0.5809  0.7080  3.2023
11497SOL     OW35706   5.584   1.671   0.110  0.2762 -0.3402  0.0116
11497SOL    HW135707   5.680   1.668   0.118  0.5745  1.3696 -1.9623
11497SOL    HW235708   5.563   1.765   0.115 -1.4582 -0.7630  1.6200
11498SOL     OW35709   3.918   2.110   8.173 -0.5611  0.1330  0.0101
11498SOL    HW135710   3.880   2.196   8.157  1.4959  0.9001 -1.1527
11498SOL    HW235711   3.877   2.080   8.254 -1.8970  1.8393  0.0191
11499SOL     OW35712   4.787   3.514   7.692 -0.0519 -0.5607  0.3664
11499SOL    HW135713   4.765   3.501   7.599  0.8751  1.0899 -0.1302
11499SOL    HW235714   4.737   3.592   7.717  0.8432 -0.1166  0.8221
11500SOL     OW35715   4.483   2.798   8.721 -0.1266  0.2945  0.6664
11500SOL    HW135716   4.549   2.837   8.664  0.1047  0.1753  0.8516
11500SOL    HW235717   4.411   2.861   8.720 -0.1127  0.3088  0.2683
11501SOL     OW35718   4.708   2.386   7.659 -0.8045  0.5096  0.4738
11501SOL    HW135719   4.792   2.433   7.660  0.2770 -1.3260 -0.1755
11501SOL    HW235720   4.699   2.353   7.570 -1.6766 -0.2510  0.8211
11502SOL     OW35721   5.274   3.194   7.510  0.0754 -0.6869  0.2334
11502SOL    HW135722   5.297   3.138   7.436 -1.1039  1.1667 -1.6654
11502SOL    HW235723   5.279   3.283   7.475 -0.0392  0.3065  2.5514
11503SOL     OW35724   5.415   3.510   8.653  0.2769 -0.2340 -0.0844
11503SOL    HW135725   5.337   3.565   8.667 -1.0266 -1.4296 -2.1676
11503SOL    HW235726   5.396   3.430   8.701  0.6534 -0.1712  0.1685
11504SOL     OW35727   5.216   2.595   8.452  0.5112 -0.3365  0.1094
11504SOL    HW135728   5.303   2.556   8.442  0.5942 -0.7568  2.1709
11504SOL    HW235729   5.160   2.541   8.396  1.3540 -0.8346 -0.2792
11505SOL     OW35730   4.272   2.234   8.073  0.0870 -0.1594 -0.3493
11505SOL    HW135731   4.192   2.216   8.123  1.1561 -2.4527  0.6758
11505SOL    HW235732   4.333   2.269   8.138  0.1770  0.9077 -0.9850
11506SOL     OW35733   4.208   3.509   7.715 -0.0004  0.3655  0.1941
11506SOL    HW135734   4.281   3.492   7.655  0.0476  0.0736  0.3364
11506SOL    HW235735   4.130   3.502   7.660  0.0721  0.6213  0.0543
11507SOL     OW35736   5.520   1.964   0.132  0.4672 -0.4002  0.2210
11507SOL    HW135737   5.435   1.927   0.153  0.6747 -0.7571  0.4386
11507SOL    HW235738   5.544   2.016   0.209  0.4122 -0.2330  0.1269
11508SOL     OW35739   3.813   3.365   7.440 -0.1355  0.5582  0.3895
11508SOL    HW135740   3.866   3.397   7.367  0.3410 -0.6874  0.1645
11508SOL    HW235741   3.724   3.360   7.405  0.1319 -0.2882 -0.2167
11509SOL     OW35742   4.356   2.321   8.504 -0.0879 -0.6381  0.2513
11509SOL    HW135743   4.378   2.408   8.539  1.0030  0.5421 -3.0401
11509SOL    HW235744   4.271   2.301   8.544 -0.6396  2.1899  0.7352
11510SOL     OW35745   3.848   2.497   7.232  0.5718 -0.3562  0.2639
11510SOL    HW135746   3.773   2.438   7.227  2.5104 -2.9568 -0.0331
11510SOL    HW235747   3.810   2.585   7.226 -2.2542 -1.5769 -2.5469
11511SOL     OW35748   3.515   1.952   7.986 -0.6083  0.8312 -0.0642
11511SOL    HW135749   3.451   2.024   7.979 -0.7067  0.8799  1.1374
11511SOL    HW235750   3.570   1.962   7.909 -0.8230  2.0078 -0.0900
11512SOL     OW35751   5.282   3.240   7.790 -0.0656 -0.4776 -0.2407
11512SOL    HW135752   5.296   3.234   7.695  0.2858 -0.0866 -0.2161
11512SOL    HW235753   5.210   3.302   7.800  0.3970  0.0590 -0.2194
11513SOL     OW35754   4.506   2.674   0.134  0.2797 -0.2490  0.0639
11513SOL    HW135755   4.432   2.614   0.138  1.0651 -1.2431 -0.1524
11513SOL    HW235756   4.482   2.738   0.068 -1.0663  0.3800  1.1072
11514SOL     OW35757   5.153   3.731   8.430 -0.1493  0.7513 -0.2094
11514SOL    HW135758   5.121   3.658   8.377  0.3457  0.8665 -0.6802
11514SOL    HW235759   5.139   3.704   8.520 -1.0692  0.5763 -0.3927
11515SOL     OW35760   4.168   3.560   0.563 -0.8417  0.4003 -0.0070
11515SOL    HW135761   4.123   3.610   0.495 -0.1630  0.2523 -0.5746
11515SOL    HW235762   4.214   3.626   0.615  0.4534  0.3580 -1.0515
11516SOL     OW35763   5.258   2.862   8.843  0.0244 -0.1146  0.1274
11516SOL    HW135764   5.260   2.950   8.879  0.3368  0.6522 -1.6912
11516SOL    HW235765   5.165   2.842   8.833 -0.0444  1.0019 -1.7234
11517SOL     OW35766   5.505   1.902   7.653 -0.1155 -0.0536  0.2251
11517SOL    HW135767   5.485   1.946   7.571 -0.4677  1.1396  0.9360
11517SOL    HW235768   5.594   1.929   7.675 -1.0827  2.1339  1.7631
11518SOL     OW35769   4.249   2.822   7.877  0.2490  0.3441 -0.5195
11518SOL    HW135770   4.200   2.810   7.796  0.7462  3.6086 -1.4252
11518SOL    HW235771   4.185   2.804   7.946 -0.8784 -0.0424 -1.6251
11519SOL     OW35772   5.399   2.586   0.422 -0.2527 -0.4374  0.5741
11519SOL    HW135773   5.377   2.617   0.334  3.5785  1.4924  0.0998
11519SOL    HW235774   5.362   2.652   0.480  0.0070  0.0774  0.1679
11520SOL     OW35775   4.700   3.216   7.612 -0.0530  0.4333 -0.2805
11520SOL    HW135776   4.683   3.271   7.689  0.5561  1.2273 -0.6996
11520SOL    HW235777   4.613   3.194   7.579 -0.3382 -0.3589  0.9307
11521SOL     OW35778   4.882   3.628   8.381  0.0849  0.4610 -0.1091
11521SOL    HW135779   4.795   3.642   8.344  0.1133  2.2666  0.4235
11521SOL    HW235780   4.897   3.704   8.438  1.1320 -0.9125  1.5312
11522SOL     OW35781   4.626   2.467   8.427 -0.1288  0.0662  0.3016
11522SOL    HW135782   4.626   2.412   8.349  0.8982 -0.2837  0.5302
11522SOL    HW235783   4.534   2.488   8.442 -0.2804  0.9604 -1.5680
11523SOL     OW35784   5.047   2.551   7.210 -0.0797 -0.4025  0.0773
11523SOL    HW135785   5.102   2.488   7.163  0.4921  0.5073 -0.5156
11523SOL    HW235786   5.083   2.636   7.185 -0.3184  0.1386  1.4921
11524SOL     OW35787   4.968   3.517   8.028 -0.1972  0.0048  0.5724
11524SOL    HW135788   4.949   3.426   8.005  1.2707 -0.1816  0.0224
11524SOL    HW235789   4.949   3.523   8.121  0.2714 -1.0281  0.7431
11525SOL     OW35790   4.032   3.088   8.231  0.2471 -0.2450  0.0813
11525SOL    HW135791   3.976   3.078   8.154 -2.3544  0.7169  1.7203
11525SOL    HW235792   4.072   3.174   8.220 -0.3062 -0.0026 -0.1041
11526SOL     OW35793   5.133   1.892   8.362  0.0063 -0.0304 -0.5643
11526SOL    HW135794   5.052   1.840   8.366 -0.6567  1.0464  2.0185
11526SOL    HW235795   5.120   1.950   8.288 -2.5770  1.4967  0.9272
11527SOL     OW35796   4.059   2.392   7.686 -0.0220  0.5671  1.0190
11527SOL    HW135797   3.972   2.360   7.663  0.2025  0.5244  0.2246
11527SOL    HW235798   4.100   2.414   7.603  1.3256 -0.9245  1.2472
11528SOL     OW35799   4.951   3.231   7.974  0.1879 -0.1631 -0.4257
11528SOL    HW135800   5.014   3.212   7.904  1.1752  0.8588  0.1525
11528SOL    HW235801   4.987   3.187   8.051  0.0710  0.2159 -0.1489
11529SOL     OW35802   4.226   2.441   0.165  0.0439 -0.6743 -0.3394
11529SOL    HW135803   4.181   2.463   0.247 -0.5823  0.0375 -0.8486
11529SOL    HW235804   4.163   2.386   0.117 -0.6568  0.9316 -1.3728
11530SOL     OW35805   4.429   3.391   8.189 -0.2938 -0.6358  0.3418
11530SOL    HW135806   4.517   3.381   8.152 -0.3405  0.2770 -0.0447
11530SOL    HW235807   4.373   3.406   8.113 -0.7628 -1.0601  0.6021
11531SOL     OW35808   5.419   2.232   8.357 -0.1928  0.3485 -0.3349
11531SOL    HW135809   5.505   2.190   8.354  0.6347  1.9157  0.0557
11531SOL    HW235810   5.364   2.171   8.406 -0.1474 -2.0159 -2.9651
11532SOL     OW35811   4.960   1.844   8.659 -0.0560  0.2192  0.1920
11532SOL    HW135812   4.967   1.811   8.570  1.0531  1.0889 -0.0670
11532SOL    HW235813   4.867   1.837   8.680 -0.0915 -1.6563 -0.3695
11533SOL     OW35814   4.348   2.991   7.494  0.7172 -0.2963  0.6235
11533SOL    HW135815   4.303   3.041   7.562  1.2480 -1.0710  1.5695
11533SOL    HW235816   4.409   2.935   7.541  0.7184 -1.2566 -0.4541
11534SOL     OW35817   4.631   3.470   8.771 -0.2302  0.2039 -0.1224
11534SOL    HW135818   4.695   3.540   8.779 -0.8339  0.5351  2.4982
11534SOL    HW235819   4.678   3.391   8.799  0.0751 -0.2674 -1.8416
11535SOL     OW35820   5.271   1.894   7.429 -0.1676 -0.2897  0.4375
11535SOL    HW135821   5.267   1.832   7.502  0.5907 -2.1650 -1.0395
11535SOL    HW235822   5.184   1.891   7.390  0.4755 -2.2195 -0.9830
11536SOL     OW35823   4.911   2.038   8.138 -0.1750 -0.1231  0.5450
11536SOL    HW135824   4.857   1.960   8.126 -1.4492  0.6126  1.3353
11536SOL    HW235825   4.914   2.052   8.232 -0.4329  1.0901  0.3968
11537SOL     OW35826   5.545   1.903   8.443  0.2147 -0.1258 -0.5141
11537SOL    HW135827   5.471   1.935   8.495  1.2528  0.3712  0.7131
11537SOL    HW235828   5.601   1.980   8.431  1.7380 -0.9789  0.7226
11538SOL     OW35829   4.031   3.010   7.919  0.4066 -0.6756 -0.1316
11538SOL    HW135830   3.945   2.990   7.881  1.3626 -0.0609 -2.8338
11538SOL    HW235831   4.059   2.928   7.959 -0.2325 -1.7272 -1.7330
11539SOL     OW35832   4.109   3.179   7.408  0.2369 -0.5112 -0.7165
11539SOL    HW135833   4.125   3.218   7.494  0.4773  0.9541 -1.3942
11539SOL    HW235834   4.192   3.138   7.384  0.2500 -0.6896 -0.3715
11540SOL     OW35835   3.614   4.031   0.218 -0.0141 -0.5689 -0.7184
11540SOL    HW135836   3.646   4.121   0.218  0.5753 -0.7187  1.7524
11540SOL    HW235837   3.534   4.035   0.272 -0.3741 -1.4134 -1.1820
11541SOL     OW35838   3.886   4.078   1.250  0.0966  0.3869 -0.6036
11541SOL    HW135839   3.959   4.140   1.252  1.5568 -1.2511  1.0135
11541SOL    HW235840   3.929   3.992   1.249 -1.8041 -0.6453  0.8110
11542SOL     OW35841   3.073   3.767   0.872  0.0551  0.0098 -0.2303
11542SOL    HW135842   3.149   3.715   0.844 -0.1692  0.1185 -1.0500
11542SOL    HW235843   3.033   3.714   0.941  0.6100 -0.2681 -0.1144
11543SOL     OW35844   4.295   4.724   1.238 -0.4220  0.8069 -0.3436
11543SOL    HW135845   4.283   4.772   1.320  0.5535  0.5958 -0.0581
11543SOL    HW235846   4.233   4.651   1.243 -0.2633  0.7092  0.2808
11544SOL     OW35847   4.848   5.208   0.544 -0.0593 -0.2035  0.5509
11544SOL    HW135848   4.805   5.247   0.620 -0.1454  0.0029  0.3981
11544SOL    HW235849   4.915   5.272   0.519 -0.6303  0.1512 -0.0985
11545SOL     OW35850   4.660   4.320   0.635 -0.4464 -0.4606 -0.3579
11545SOL    HW135851   4.609   4.301   0.714 -2.1508  0.9739 -1.0305
11545SOL    HW235852   4.733   4.259   0.638  1.2231  1.3730  3.8062
11546SOL     OW35853   5.386   4.206   0.339 -0.4090  0.1633  0.4757
11546SOL    HW135854   5.416   4.214   0.248 -2.1063 -0.6399 -0.1975
11546SOL    HW235855   5.398   4.293   0.376 -0.6709  0.7873 -0.8585
11547SOL     OW35856   4.841   4.430   1.655 -0.0488 -0.0408  0.2298
11547SOL    HW135857   4.890   4.436   1.738 -0.7958  3.1652  0.5830
11547SOL    HW235858   4.758   4.389   1.679  0.0470  0.1582  0.9370
11548SOL     OW35859   4.484   4.390   2.297 -0.1169  0.1355 -1.1875
11548SOL    HW135860   4.490   4.296   2.281  0.2456  0.2544 -1.7763
11548SOL    HW235861   4.447   4.397   2.385 -0.2381 -0.5554 -1.1776
11549SOL     OW35862   4.824   4.691   1.070 -0.0998  0.1711  0.1413
11549SOL    HW135863   4.885   4.632   1.114  0.5068  2.0521  1.9639
11549SOL    HW235864   4.737   4.658   1.095  0.2294  0.3817  1.6677
11550SOL     OW35865   4.669   4.714   1.767  1.1352  0.3424 -0.5834
11550SOL    HW135866   4.648   4.623   1.788  0.7489  0.3423 -0.9517
11550SOL    HW235867   4.666   4.760   1.851  0.9746  0.0816 -0.4463
11551SOL     OW35868   4.059   4.473   0.821  0.2535 -0.0782  0.0635
11551SOL    HW135869   4.105   4.557   0.829  0.2099 -0.0284 -0.1901
11551SOL    HW235870   4.023   4.475   0.732 -0.6568  0.0946  0.4316
11552SOL     OW35871   5.112   5.190   1.673 -0.1785 -0.0099 -0.0226
11552SOL    HW135872   5.198   5.222   1.643  0.3786 -0.9037  0.5793
11552SOL    HW235873   5.116   5.095   1.658 -0.7665 -0.1548  0.7322
11553SOL     OW35874   4.339   3.965   1.191 -0.4983  0.2786  0.3501
11553SOL    HW135875   4.402   3.913   1.141 -1.2909  1.0776 -1.5415
11553SOL    HW235876   4.298   3.901   1.250 -0.6496 -1.0520 -1.1102
11554SOL     OW35877   5.405   4.431   0.938 -0.2277 -0.2344 -0.3782
11554SOL    HW135878   5.397   4.507   0.996 -0.4312  0.8974 -1.8349
11554SOL    HW235879   5.491   4.394   0.958  0.7344  1.5652 -0.9949
11555SOL     OW35880   3.731   4.788   0.572  0.1487 -0.2091 -0.2240
11555SOL    HW135881   3.710   4.732   0.646 -1.2917  1.1316  0.4291
11555SOL    HW235882   3.821   4.764   0.548  0.4278 -1.0698  1.5727
11556SOL     OW35883   4.658   4.706   2.072  0.1462  0.6439  0.4181
11556SOL    HW135884   4.566   4.696   2.046  0.3570 -0.2770  0.0037
11556SOL    HW235885   4.675   4.631   2.128  1.0823 -0.0684 -0.7794
11557SOL     OW35886   3.927   4.579   0.006 -0.4959  0.3615 -0.1325
11557SOL    HW135887   3.981   4.535   0.071 -0.1363 -0.2719 -0.8458
11557SOL    HW235888   3.989   4.634  -0.043 -0.7585  0.8121  0.0336
11558SOL     OW35889   3.630   4.640   0.839 -0.2043  0.1704  0.0864
11558SOL    HW135890   3.582   4.692   0.904  0.1131  0.3461  0.1834
11558SOL    HW235891   3.722   4.661   0.855 -0.0465 -0.7172  0.3727
11559SOL     OW35892   4.468   5.508   1.540 -0.3321  0.3584  0.0327
11559SOL    HW135893   4.473   5.494   1.445 -0.6755 -0.7034  0.1494
11559SOL    HW235894   4.553   5.543   1.564 -0.2210  0.5823 -0.6645
11560SOL     OW35895   3.846   4.238   0.219  0.1631 -0.3862 -0.2334
11560SOL    HW135896   3.863   4.213   0.129 -1.8963 -2.4633 -0.1546
11560SOL    HW235897   3.929   4.225   0.264  0.3266 -3.1174 -1.1432
11561SOL     OW35898   5.396   3.826   1.560  0.4924 -0.3110 -0.0634
11561SOL    HW135899   5.361   3.898   1.613 -0.1660 -1.7688  1.5956
11561SOL    HW235900   5.359   3.747   1.600  2.8427 -1.7243 -0.4977
11562SOL     OW35901   3.429   4.408   0.778 -0.3358 -0.1166  0.9072
11562SOL    HW135902   3.497   4.406   0.846 -1.1721 -1.8166  1.7695
11562SOL    HW235903   3.369   4.478   0.806  0.6046  0.8573  0.5601
11563SOL     OW35904   5.071   5.322   0.401 -0.6477  0.4082 -0.1561
11563SOL    HW135905   5.147   5.379   0.403  0.2163 -0.7158  0.0128
11563SOL    HW235906   5.090   5.258   0.332 -0.7014 -0.8488  0.9563
11564SOL     OW35907   3.596   5.327   0.485 -0.0212  0.1074  0.9138
11564SOL    HW135908   3.596   5.315   0.391  1.4066  1.2194  0.7260
11564SOL    HW235909   3.511   5.368   0.504  0.0422  0.6959 -0.0135
11565SOL     OW35910   5.376   4.507   0.204 -0.2335 -0.3083  0.0968
11565SOL    HW135911   5.336   4.477   0.286  0.4162 -0.5934  0.3188
11565SOL    HW235912   5.373   4.603   0.210  1.8664 -0.2591  1.5385
11566SOL     OW35913   4.916   4.811   0.569 -0.2829 -0.1152 -0.2479
11566SOL    HW135914   4.997   4.767   0.541  0.2674  1.4977 -1.3035
11566SOL    HW235915   4.876   4.749   0.630  1.2198 -1.4084 -0.4931
11567SOL     OW35916   3.521   4.687   1.474 -0.3291  0.1176  0.2394
11567SOL    HW135917   3.571   4.648   1.403  0.5142  2.1015 -0.3121
11567SOL    HW235918   3.574   4.672   1.552 -0.3118 -0.3700  0.1341
11568SOL     OW35919   3.962   4.519   0.572  0.7463  0.0308 -0.4414
11568SOL    HW135920   4.035   4.463   0.546  0.8201 -0.1666  0.1906
11568SOL    HW235921   3.884   4.470   0.548  0.8086 -0.3914  0.2103
11569SOL     OW35922   5.037   4.762   1.331  0.0627 -0.2061  0.4714
11569SOL    HW135923   4.976   4.689   1.341 -0.1159 -0.1738 -0.3459
11569SOL    HW235924   4.982   4.835   1.302  0.2676  0.2202  1.1229
11570SOL     OW35925   4.471   3.608   0.449 -0.3951 -0.8349 -0.7438
11570SOL    HW135926   4.554   3.643   0.418 -0.0717 -0.5870  0.3488
11570SOL    HW235927   4.431   3.568   0.372  0.1082  0.2545 -1.5948
11571SOL     OW35928   3.864   4.822   1.154 -0.4433 -0.5365 -0.1036
11571SOL    HW135929   3.878   4.806   1.247 -0.5325  3.0323  0.6604
11571SOL    HW235930   3.773   4.848   1.147 -0.0031  0.9041 -0.8671
11572SOL     OW35931   4.771   4.631   8.831 -0.5333  0.2609  0.5930
11572SOL    HW135932   4.714   4.587   8.894 -0.1678 -1.2512 -0.1064
11572SOL    HW235933   4.722   4.628   8.749 -0.3701  0.8956  0.4677
11573SOL     OW35934   5.323   5.625   1.353  0.2654 -0.4935  0.0511
11573SOL    HW135935   5.407   5.637   1.307 -0.6694  1.7428 -1.2560
11573SOL    HW235936   5.262   5.600   1.284 -0.6377  0.3202  0.5414
11574SOL     OW35937   5.244   4.887   0.702  0.4118  1.1380  0.6397
11574SOL    HW135938   5.196   4.883   0.785 -0.2042  1.2291  0.2973
11574SOL    HW235939   5.192   4.947   0.648 -1.1967 -1.5920 -1.0607
11575SOL     OW35940   5.293   5.487   0.448  0.1304 -0.2874  0.1279
11575SOL    HW135941   5.383   5.454   0.443  0.6477  1.2075 -2.9145
11575SOL    HW235942   5.293   5.544   0.525  2.0544  0.2559 -0.2030
11576SOL     OW35943   4.085   4.482   0.267 -0.5913 -0.2163  0.6463
11576SOL    HW135944   4.107   4.511   0.356  2.5049 -1.1969  0.3321
11576SOL    HW235945   4.085   4.386   0.274 -0.1913 -0.2984 -0.4178
11577SOL     OW35946   5.161   4.130   0.643  0.5896  0.1867  0.0696
11577SOL    HW135947   5.185   4.147   0.735  0.1979  0.5059  0.1124
11577SOL    HW235948   5.200   4.044   0.625  0.7918  0.1830  0.4927
11578SOL     OW35949   5.075   4.903   0.311 -0.1022 -0.6983  0.2107
11578SOL    HW135950   5.018   4.915   0.387 -0.7099 -1.1871 -0.1662
11578SOL    HW235951   5.123   4.822   0.329  0.8019 -0.0802  0.7179
11579SOL     OW35952   4.667   3.986   1.482  0.4264 -0.6218 -0.2666
11579SOL    HW135953   4.745   4.041   1.488  0.4082 -0.7245  1.3794
11579SOL    HW235954   4.680   3.935   1.402  1.4866  0.1832 -0.6343
11580SOL     OW35955   4.572   4.456   1.842 -0.3823 -0.0623 -0.2415
11580SOL    HW135956   4.596   4.363   1.843 -0.1152 -0.0326 -1.6966
11580SOL    HW235957   4.519   4.468   1.922  1.0426 -1.0409  0.9021
11581SOL     OW35958   4.720   4.467   2.219 -0.2248 -0.3196 -0.2083
11581SOL    HW135959   4.647   4.415   2.253 -0.0359 -1.4226 -1.4087
11581SOL    HW235960   4.787   4.402   2.195  0.5244  0.5665 -0.5923
11582SOL     OW35961   5.009   4.199   1.020 -0.5450  0.3469 -0.0198
11582SOL    HW135962   5.101   4.194   0.992  0.0431  2.0804  1.4017
11582SOL    HW235963   4.993   4.117   1.066  0.4678  0.2334  0.1528
11583SOL     OW35964   4.482   4.370   0.440 -0.4974  0.0872 -0.2995
11583SOL    HW135965   4.544   4.338   0.505 -1.8989 -2.4005 -0.0645
11583SOL    HW235966   4.515   4.457   0.416  2.5432 -0.7559  0.4191
11584SOL     OW35967   3.860   4.424   0.999  0.3214  0.0323 -0.0976
11584SOL    HW135968   3.853   4.330   0.982  0.6840  0.0590 -0.4305
11584SOL    HW235969   3.896   4.460   0.918 -1.8519  0.7826 -0.8026
11585SOL     OW35970   3.683   5.161   1.561 -0.5148 -0.1201 -0.0536
11585SOL    HW135971   3.598   5.159   1.516 -0.4003  1.3074 -0.3983
11585SOL    HW235972   3.674   5.232   1.624  0.2305 -0.3486  0.3130
11586SOL     OW35973   4.783   3.756   8.784  0.1355 -0.2878  0.0972
11586SOL    HW135974   4.721   3.829   8.777  1.3215  0.9460  1.6852
11586SOL    HW235975   4.849   3.775   8.717  0.2824 -0.0729  0.3033
11587SOL     OW35976   5.221   4.347   1.976 -0.1065 -0.3586 -0.2158
11587SOL    HW135977   5.184   4.270   2.019  1.6121 -1.4455 -0.5563
11587SOL    HW235978   5.234   4.410   2.046 -2.5320  0.0914 -0.0955
11588SOL     OW35979   5.127   5.117   0.633 -0.2229  0.0717  0.1312
11588SOL    HW135980   5.059   5.147   0.693  0.5666  1.2664  0.4688
11588SOL    HW235981   5.116   5.172   0.555 -0.6513 -0.8344 -0.4619
11589SOL     OW35982   4.877   4.150   0.648  0.3236  0.2829 -0.0853
11589SOL    HW135983   4.972   4.145   0.639  0.2602 -1.5593 -0.0282
11589SOL    HW235984   4.858   4.108   0.732 -0.6655 -1.4400 -1.1029
11590SOL     OW35985   4.179   4.946   0.815  0.0869  0.6358  0.8544
11590SOL    HW135986   4.151   5.005   0.885 -1.3434  1.1316 -0.0890
11590SOL    HW235987   4.191   5.002   0.738 -0.3764 -0.1541  0.1829
11591SOL     OW35988   3.988   5.609   0.750  0.1475 -0.3534  0.0627
11591SOL    HW135989   3.959   5.536   0.806 -1.1702 -0.1352 -0.3082
11591SOL    HW235990   4.056   5.652   0.801 -0.9659 -0.2062  1.4875
11592SOL     OW35991   5.517   4.960   0.878  0.3926 -0.6144  0.2431
11592SOL    HW135992   5.455   4.887   0.886 -0.8635  0.3888 -0.0170
11592SOL    HW235993   5.555   4.950   0.790 -4.3499  2.3941 -2.5547
11593SOL     OW35994   5.133   4.918   1.634 -0.1831 -0.1950 -0.0735
11593SOL    HW135995   5.105   4.835   1.672 -0.3407  0.4031  1.1638
11593SOL    HW235996   5.185   4.893   1.558  0.2387 -1.4522  0.6026
11594SOL     OW35997   3.516   4.256   1.005 -0.0692 -0.2134  0.3688
11594SOL    HW135998   3.552   4.207   1.079  1.2806  1.3292  0.7789
11594SOL    HW235999   3.573   4.234   0.931  0.4567  0.5972  0.5223
11595SOL     OW36000   5.069   4.491   1.125  0.4837 -0.3332 -0.2340
11595SOL    HW136001   5.101   4.555   1.061  0.8424 -0.3814 -0.1082
11595SOL    HW236002   5.027   4.424   1.072  1.9798 -1.0707 -0.5579
11596SOL     OW36003   4.584   4.868   1.582  0.1931 -0.0594  0.7532
11596SOL    HW136004   4.595   4.796   1.644  2.7281 -0.1628  0.2566
11596SOL    HW236005   4.658   4.926   1.598  0.1346  0.6352 -1.2103
11597SOL     OW36006   4.805   5.240   0.205 -0.1372 -0.1507  0.0997
11597SOL    HW136007   4.766   5.174   0.262  0.5892  1.1940  2.2774
11597SOL    HW236008   4.795   5.322   0.253  3.0240  0.6369 -0.3732
11598SOL     OW36009   5.056   4.590   8.840  0.5036  0.1114 -0.1349
11598SOL    HW136010   5.062   4.512   8.895  0.6127  0.8629  0.9394
11598SOL    HW236011   4.962   4.609   8.837  0.6933  2.0264  2.6708
11599SOL     OW36012   4.023   5.162   0.134 -0.3179  0.2762  0.0307
11599SOL    HW136013   3.933   5.167   0.167 -0.8279  2.9865 -1.4496
11599SOL    HW236014   4.078   5.178   0.211 -1.1869  0.6692  0.5845
11600SOL     OW36015   5.117   4.059   0.306 -0.2772  0.1890  0.2155
11600SOL    HW136016   5.110   4.147   0.270  2.0537 -0.7641 -3.0097
11600SOL    HW236017   5.190   4.064   0.368 -1.7462  0.9488  1.9991
11601SOL     OW36018   4.038   5.172   1.197 -0.0021 -0.8268  0.2028
11601SOL    HW136019   4.111   5.233   1.203 -0.0947 -0.7284  0.3318
11601SOL    HW236020   4.076   5.093   1.160 -0.1154 -0.3035 -1.0933
11602SOL     OW36021   4.490   5.105   1.070  0.1377  0.2328 -0.2555
11602SOL    HW136022   4.497   5.020   1.113 -1.3764  0.3503  0.2862
11602SOL    HW236023   4.570   5.151   1.094  1.4427 -1.3509 -1.3438
11603SOL     OW36024   3.618   4.119   0.747 -0.2347  0.6260  0.1390
11603SOL    HW136025   3.622   4.042   0.690 -0.4943 -1.0439  2.2401
11603SOL    HW236026   3.529   4.152   0.736 -0.2544  0.3894 -0.4708
11604SOL     OW36027   4.920   4.085   1.860  0.2799  0.3407 -0.1646
11604SOL    HW136028   4.991   4.059   1.802  1.7242 -0.0377  1.6784
11604SOL    HW236029   4.948   4.056   1.947 -1.1782  2.0362  0.9486
11605SOL     OW36030   4.557   3.701   1.762  0.0969  0.0829  0.0723
11605SOL    HW136031   4.581   3.609   1.756 -1.5187 -0.3424 -0.4951
11605SOL    HW236032   4.636   3.745   1.792  0.4956 -1.6946  1.8225
11606SOL     OW36033   4.193   4.715   0.932 -0.1532 -0.2745 -0.1024
11606SOL    HW136034   4.258   4.720   1.002 -0.2683  0.8798 -0.0722
11606SOL    HW236035   4.193   4.801   0.892 -2.7558  0.2724  0.8780
11607SOL     OW36036   4.885   4.159   1.547 -0.7372 -0.3418  0.0671
11607SOL    HW136037   4.903   4.228   1.610 -4.0479  0.9868 -0.2300
11607SOL    HW236038   4.899   4.200   1.462 -2.3878 -0.0861 -0.1044
11608SOL     OW36039   4.595   4.820   0.888  0.4007  0.3964  0.2111
11608SOL    HW136040   4.564   4.750   0.945 -0.1073  1.6309  1.5251
11608SOL    HW236041   4.574   4.791   0.800  1.3611 -1.6620  0.5824
11609SOL     OW36042   4.846   4.016   0.349 -0.2713 -0.0319 -0.1600
11609SOL    HW136043   4.843   4.044   0.440 -0.2702  0.1105 -0.2035
11609SOL    HW236044   4.938   4.022   0.324  0.0303 -1.8718  0.3859
11610SOL     OW36045   3.800   3.921   0.935 -0.1028 -0.3580  0.0923
11610SOL    HW136046   3.756   3.996   0.894  1.3239  0.2418 -0.3884
11610SOL    HW236047   3.871   3.960   0.986 -0.8292 -1.2127  1.8525
11611SOL     OW36048   4.546   4.836   0.248 -0.2664  0.8050 -0.3153
11611SOL    HW136049   4.617   4.876   0.298 -0.4812  0.5546  0.1982
11611SOL    HW236050   4.543   4.886   0.167 -0.0892  1.3951  0.0331
11612SOL     OW36051   4.372   3.880   0.191  0.7468  0.0328 -0.3854
11612SOL    HW136052   4.438   3.944   0.218 -0.3290  0.4785  1.3175
11612SOL    HW236053   4.384   3.806   0.251  0.0579 -0.1041 -0.4088
11613SOL     OW36054   4.909   3.771   1.554 -0.0393 -0.7178 -0.0889
11613SOL    HW136055   4.848   3.834   1.593  0.6729 -0.7562  1.1447
11613SOL    HW236056   4.888   3.688   1.598  1.3562 -0.5805  0.8979
11614SOL     OW36057   5.069   4.851   0.923  0.2077 -0.3060  0.5508
11614SOL    HW136058   4.984   4.886   0.897 -0.3446 -1.7678  0.2793
11614SOL    HW236059   5.089   4.895   1.005 -0.6153  0.3574  0.4139
11615SOL     OW36060   4.222   4.394   0.518 -0.3482  0.6153 -0.5187
11615SOL    HW136061   4.245   4.481   0.551 -0.6053  0.2866  0.5716
11615SOL    HW236062   4.304   4.358   0.484  0.3808  0.2434  1.4879
11616SOL     OW36063   4.293   5.229   0.417  0.2324  0.0406 -0.1728
11616SOL    HW136064   4.203   5.200   0.425  0.4885 -0.7602 -0.0910
11616SOL    HW236065   4.312   5.223   0.323  0.1431  0.3884 -0.2135
11617SOL     OW36066   4.671   4.018   8.726 -0.6436 -0.5313  0.2109
11617SOL    HW136067   4.614   4.006   8.650 -1.0173  3.3546 -0.3458
11617SOL    HW236068   4.730   4.089   8.700  1.3413 -1.2437  2.4576
11618SOL     OW36069   3.397   4.230   1.478  0.0581  0.0829 -0.5534
11618SOL    HW136070   3.322   4.171   1.468 -0.0605  0.2124 -0.4103
11618SOL    HW236071   3.372   4.310   1.432  0.7562 -0.4619 -1.9494
11619SOL     OW36072   4.312   3.643   1.242  0.1902 -0.0486 -0.0036
11619SOL    HW136073   4.235   3.628   1.187  0.2766  0.6205 -0.3245
11619SOL    HW236074   4.283   3.622   1.330 -0.2806 -0.0738 -0.1615
11620SOL     OW36075   4.350   4.202   0.198  0.1498  0.2664 -0.6600
11620SOL    HW136076   4.433   4.219   0.153  1.0623  1.1404  1.2369
11620SOL    HW236077   4.368   4.222   0.290 -2.3713  1.2679 -0.2917
11621SOL     OW36078   4.405   4.016   0.585  0.0334 -0.2812  0.2751
11621SOL    HW136079   4.452   3.953   0.639 -0.6767  1.1699  2.7843
11621SOL    HW236080   4.425   4.101   0.625 -2.4423  0.6318 -0.2558
11622SOL     OW36081   5.676   4.559   0.923 -0.3292 -0.3083  0.3713
11622SOL    HW136082   5.749   4.551   0.862 -1.3086 -1.2195 -0.7478
11622SOL    HW236083   5.713   4.538   1.008  0.5800 -1.3729 -0.2616
11623SOL     OW36084   5.187   4.194   1.296 -0.0110 -0.1095 -0.2769
11623SOL    HW136085   5.189   4.107   1.256  0.4619  0.5246 -1.6776
11623SOL    HW236086   5.095   4.206   1.321 -0.1819 -0.8017 -0.5264
11624SOL     OW36087   5.693   4.433   0.518  0.3758 -0.2356  0.2506
11624SOL    HW136088   5.707   4.453   0.425 -0.3745  0.0320  0.1899
11624SOL    HW236089   5.753   4.491   0.564  0.1459  0.2339 -0.0351
11625SOL     OW36090   4.134   4.693   8.702  0.2854 -0.0685 -0.4506
11625SOL    HW136091   4.095   4.781   8.707  0.5248  0.0762 -0.9765
11625SOL    HW236092   4.198   4.700   8.630 -0.0590 -0.8155 -0.8354
11626SOL     OW36093   5.144   4.671   0.455 -0.3133  0.3976  0.1854
11626SOL    HW136094   5.180   4.670   0.543 -0.1792  1.7317  0.1616
11626SOL    HW236095   5.122   4.579   0.437 -1.1824  0.2269  1.9453
11627SOL     OW36096   4.992   4.183   8.675 -0.3936 -0.5714 -0.3227
11627SOL    HW136097   5.031   4.097   8.689  0.0183 -0.2986  0.2340
11627SOL    HW236098   5.037   4.217   8.597 -1.6352 -1.4732 -1.4692
11628SOL     OW36099   4.098   3.908   0.193 -0.0584 -0.4285  0.1684
11628SOL    HW136100   4.186   3.871   0.195  0.2242  0.1236 -0.9579
11628SOL    HW236101   4.107   3.993   0.236  0.9985  1.5520 -3.5015
11629SOL     OW36102   5.515   5.124   1.856 -0.2789  0.1709 -0.4131
11629SOL    HW136103   5.609   5.106   1.854 -0.3364 -0.1362 -0.5001
11629SOL    HW236104   5.484   5.082   1.936 -0.7354 -1.8517 -1.5606
11630SOL     OW36105   5.106   4.585   0.862  0.2644  0.2478  0.2178
11630SOL    HW136106   5.016   4.569   0.835  0.2358  0.5061  0.1552
11630SOL    HW236107   5.106   4.676   0.893  0.4444  0.1660  0.4630
11631SOL     OW36108   5.248   5.678   1.854 -0.3938 -0.0813  0.9341
11631SOL    HW136109   5.322   5.641   1.901  0.3945  1.1316  0.6791
11631SOL    HW236110   5.250   5.635   1.768 -0.2391 -0.3486  1.0729
11632SOL     OW36111   5.310   5.075   1.231 -0.1699 -0.0697 -0.6702
11632SOL    HW136112   5.300   4.996   1.284 -1.4762  1.0284  0.7862
11632SOL    HW236113   5.221   5.102   1.210 -0.0452  2.8962  1.8349
11633SOL     OW36114   5.597   4.931   1.426  0.4953 -0.4033  0.3692
11633SOL    HW136115   5.548   4.890   1.498 -0.4379  0.8728  0.4948
11633SOL    HW236116   5.631   4.857   1.375 -0.2440 -1.3279  1.1697
11634SOL     OW36117   4.846   3.584   1.337  0.4060 -0.0127 -0.2585
11634SOL    HW136118   4.846   3.662   1.392  2.2824  0.0819 -0.3260
11634SOL    HW236119   4.786   3.524   1.381  1.9254 -0.0026  2.0558
11635SOL     OW36120   4.544   5.123   1.973  0.1680 -0.1886 -0.1904
11635SOL    HW136121   4.492   5.064   1.918  1.5464 -1.1398 -0.5520
11635SOL    HW236122   4.531   5.091   2.062  1.9401 -2.0041 -0.4898
11636SOL     OW36123   3.874   4.678   0.286  0.1377  0.4882  0.2984
11636SOL    HW136124   3.929   4.746   0.248 -0.9350 -0.7425 -4.0258
11636SOL    HW236125   3.932   4.603   0.297  0.5700  1.0073  1.7491
11637SOL     OW36126   3.869   4.742   1.419  0.1955 -0.4450 -0.2832
11637SOL    HW136127   3.835   4.664   1.463 -0.1958 -0.6939 -1.0025
11637SOL    HW236128   3.963   4.740   1.435  0.1150 -0.7793  0.1510
11638SOL     OW36129   5.023   3.958   1.159  0.1894  0.0667  0.9168
11638SOL    HW136130   5.065   3.921   1.237  0.4224 -0.9763  0.3248
11638SOL    HW236131   5.010   3.882   1.101 -3.1133  0.1836  1.3140
11639SOL     OW36132   3.419   5.158   1.446 -0.0740 -0.6302 -0.7808
11639SOL    HW136133   3.432   5.089   1.381  1.1443  0.5093 -1.8127
11639SOL    HW236134   3.382   5.114   1.522  0.4014 -2.3627 -1.5185
11640SOL     OW36135   3.736   4.368   0.647  0.0577 -0.4986 -0.3442
11640SOL    HW136136   3.771   4.300   0.705 -1.0480 -0.1462  0.7937
11640SOL    HW236137   3.670   4.412   0.700  0.2986  1.0500 -1.2817
11641SOL     OW36138   4.340   3.550   0.851  0.4533  0.4554  0.3186
11641SOL    HW136139   4.328   3.459   0.823 -0.8770  1.2459 -1.9322
11641SOL    HW236140   4.423   3.577   0.813  2.1906 -0.4870  3.1483
11642SOL     OW36141   4.536   4.759   0.621 -0.2508  0.5823  0.3394
11642SOL    HW136142   4.507   4.839   0.577 -0.7944  0.7057  0.9107
11642SOL    HW236143   4.575   4.706   0.551 -0.8195  0.9046 -0.2318
11643SOL     OW36144   5.230   5.365   0.850 -0.5507 -0.2153  0.5235
11643SOL    HW136145   5.267   5.298   0.908  0.3568  0.8333  1.2070
11643SOL    HW236146   5.166   5.318   0.797 -0.0172 -1.6035  1.0461
11644SOL     OW36147   5.299   4.529   0.700  0.0360 -0.3747 -0.4818
11644SOL    HW136148   5.219   4.566   0.738  1.0225  0.1666  1.1440
11644SOL    HW236149   5.338   4.479   0.771  1.1201 -0.6752 -1.2710
11645SOL     OW36150   4.494   5.120   0.772  0.5864 -0.0144 -0.0706
11645SOL    HW136151   4.403   5.147   0.788  0.6070 -0.0929  0.1784
11645SOL    HW236152   4.521   5.078   0.853  0.7200 -0.3391 -0.2843
11646SOL     OW36153   4.678   4.178   1.838  0.1926 -0.4863 -0.0817
11646SOL    HW136154   4.772   4.161   1.830  0.7605  1.5578  1.2322
11646SOL    HW236155   4.656   4.147   1.925  0.0756  0.5893  0.2865
11647SOL     OW36156   5.495   4.301   2.052 -0.2100  0.4991 -0.5369
11647SOL    HW136157   5.402   4.321   2.044 -0.2360  1.4608  1.4800
11647SOL    HW236158   5.497   4.216   2.097 -0.1318  0.7628 -0.0339
11648SOL     OW36159   4.279   4.272   0.938 -0.0362 -0.1732 -0.3581
11648SOL    HW136160   4.302   4.322   1.017 -0.1904 -1.8764  0.8038
11648SOL    HW236161   4.196   4.311   0.909  1.3968  2.3622 -1.4096
11649SOL     OW36162   5.321   4.473   1.222  0.3138 -0.0598 -0.7845
11649SOL    HW136163   5.232   4.459   1.191  0.7096 -2.1418 -1.1352
11649SOL    HW236164   5.334   4.406   1.288  1.2245  1.0332  0.1907
11650SOL     OW36165   4.712   4.385   0.258 -0.6758  0.1109 -0.6059
11650SOL    HW136166   4.657   4.382   0.180 -2.4271  0.0862  0.5775
11650SOL    HW236167   4.688   4.307   0.307 -1.1443  1.1799  0.9296
11651SOL     OW36168   4.217   3.873   1.439  0.2273 -0.3705  0.1199
11651SOL    HW136169   4.294   3.890   1.493 -2.2153 -1.0162  4.2558
11651SOL    HW236170   4.195   3.782   1.458 -0.7452 -0.6850 -2.1954
11652SOL     OW36171   3.871   5.114   0.898  0.3343 -0.3030 -0.0799
11652SOL    HW136172   3.865   5.025   0.931  1.6487 -0.6745 -0.8044
11652SOL    HW236173   3.890   5.104   0.805 -2.4507  0.7206 -0.8851
11653SOL     OW36174   4.803   4.361   0.914  0.4209 -0.0929  0.4096
11653SOL    HW136175   4.717   4.322   0.930 -0.1748 -0.0879 -2.2776
11653SOL    HW236176   4.864   4.303   0.959 -0.9677  0.2375  2.8926
11654SOL     OW36177   5.230   4.904   2.210 -0.0298 -0.0909  0.2865
11654SOL    HW136178   5.256   4.848   2.283  2.7048  0.7008  0.0345
11654SOL    HW236179   5.202   4.986   2.251 -2.1165 -0.9024  0.5628
11655SOL     OW36180   3.750   3.658   0.880  0.3869 -0.2398  0.3174
11655SOL    HW136181   3.769   3.737   0.930 -0.2822  1.8589 -2.4910
11655SOL    HW236182   3.668   3.625   0.916 -1.5679  2.7907 -0.9851
11656SOL     OW36183   5.426   4.430   0.493 -0.0682 -0.2771 -0.2899
11656SOL    HW136184   5.374   4.446   0.572  1.6645 -0.7789  1.0286
11656SOL    HW236185   5.512   4.467   0.514  0.4969 -0.6140 -1.8768
11657SOL     OW36186   4.927   4.304   1.320 -0.1929  0.2520  0.4269
11657SOL    HW136187   4.899   4.392   1.347  0.5316  0.0779  1.8312
11657SOL    HW236188   4.966   4.318   1.234  0.7434  1.5074  1.0080
11658SOL     OW36189   4.791   5.054   1.645  0.6213 -0.3932  0.1653
11658SOL    HW136190   4.863   5.001   1.611 -0.3737 -2.6525  1.3406
11658SOL    HW236191   4.825   5.090   1.727  0.9453 -0.1017 -0.0934
11659SOL     OW36192   5.387   5.261   1.623  0.3557  0.0461  0.0922
11659SOL    HW136193   5.443   5.216   1.686 -0.3226 -1.5800 -0.4330
11659SOL    HW236194   5.434   5.256   1.540  0.0095 -0.2472 -0.0917
11660SOL     OW36195   5.181   4.310   0.009  0.1610  0.4300 -0.0589
11660SOL    HW136196   5.140   4.300   0.094  1.1640 -0.9679  0.3036
11660SOL    HW236197   5.108   4.324  -0.052 -0.5138  2.2179  1.1001
11661SOL     OW36198   4.729   4.631   8.557  0.2838 -0.2658 -0.1400
11661SOL    HW136199   4.819   4.600   8.569  0.6701  0.8909  0.1099
11661SOL    HW236200   4.720   4.643   8.463  0.8135  0.7556 -0.0779
11662SOL     OW36201   4.056   4.875   0.199 -0.1641 -0.4148  0.1987
11662SOL    HW136202   4.081   4.942   0.135 -0.4150 -0.9414 -0.4589
11662SOL    HW236203   4.139   4.852   0.243  0.3348 -1.3112 -1.1627
11663SOL     OW36204   3.938   4.177   0.876  0.5266 -0.4564 -0.0495
11663SOL    HW136205   3.985   4.120   0.938  1.8036  1.1586  0.5440
11663SOL    HW236206   3.994   4.179   0.798 -0.3429 -1.2895 -0.7283
11664SOL     OW36207   4.397   4.391   1.173 -0.2417 -0.1298 -0.3305
11664SOL    HW136208   4.311   4.426   1.196 -0.0145 -0.4672  1.0859
11664SOL    HW236209   4.421   4.335   1.246  0.0052 -2.2075 -1.9018
11665SOL     OW36210   4.770   3.845   1.784  0.0544 -0.0420 -0.2793
11665SOL    HW136211   4.753   3.939   1.789 -1.7706 -0.2065 -2.0900
11665SOL    HW236212   4.822   3.826   1.862 -0.3101  2.2958  0.6232
11666SOL     OW36213   5.108   3.462   1.380 -0.0967  0.1539  0.2171
11666SOL    HW136214   5.020   3.495   1.365 -0.3121  1.0292  2.8671
11666SOL    HW236215   5.100   3.409   1.459  1.9528  1.3090  1.2662
11667SOL     OW36216   3.702   5.702   0.854 -0.0728  1.0695 -0.4667
11667SOL    HW136217   3.770   5.657   0.804 -0.4043  0.3464 -0.2711
11667SOL    HW236218   3.672   5.772   0.795 -0.7907 -0.0681 -1.4948
11668SOL     OW36219   4.434   5.015   0.526  0.1648  0.2492 -0.4973
11668SOL    HW136220   4.394   5.093   0.487 -1.8463 -0.9368 -0.9035
11668SOL    HW236221   4.456   5.043   0.616 -2.0449  0.8521 -0.0862
11669SOL     OW36222   4.848   4.582   1.429 -0.1909  0.2570  0.3288
11669SOL    HW136223   4.854   4.546   1.517 -0.0656 -1.6424 -0.4214
11669SOL    HW236224   4.754   4.591   1.413 -0.2798 -0.9834  0.0657
11670SOL     OW36225   4.124   4.523   1.225  0.5172  0.4258 -0.3204
11670SOL    HW136226   4.058   4.505   1.292  0.3448 -1.0069 -0.8407
11670SOL    HW236227   4.099   4.468   1.151  1.4943  0.9359 -1.0545
11671SOL     OW36228   4.981   4.724   1.787 -0.1703  0.0613 -0.1818
11671SOL    HW136229   4.894   4.758   1.765 -0.3914  0.2892  0.9698
11671SOL    HW236230   4.968   4.671   1.865  0.7926  0.5037  0.3096
11672SOL     OW36231   4.652   3.996   1.018  0.5859  0.2899  0.1272
11672SOL    HW136232   4.714   3.988   1.091  0.9450 -2.2618 -0.3426
11672SOL    HW236233   4.598   3.917   1.024 -1.4418  1.5417 -0.5957
11673SOL     OW36234   5.119   3.935   1.414  0.6573  0.3232 -0.1664
11673SOL    HW136235   5.054   3.871   1.443  0.6845 -0.6141 -2.0356
11673SOL    HW236236   5.119   4.002   1.483 -3.5836  1.3373 -0.8546
11674SOL     OW36237   4.066   5.214   1.483  0.1581  0.3602  0.7435
11674SOL    HW136238   4.029   5.195   1.397  1.4538  1.8473 -0.2051
11674SOL    HW236239   4.161   5.203   1.471  0.2908 -0.5250  2.3119
11675SOL     OW36240   4.053   3.963   1.026 -0.3650 -0.1213 -0.1641
11675SOL    HW136241   4.141   3.998   1.042 -0.1560 -0.6731 -0.0648
11675SOL    HW236242   4.069   3.875   0.991 -0.8887 -0.7881  1.1963
11676SOL     OW36243   5.029   5.081   1.189 -0.0873  0.0399 -0.3665
11676SOL    HW136244   4.952   5.038   1.226 -0.9209 -0.3024 -2.3864
11676SOL    HW236245   5.012   5.175   1.198 -0.3181 -0.0389  0.0086
11677SOL     OW36246   4.112   4.239   0.305  0.2143  0.3572  0.0289
11677SOL    HW136247   4.127   4.194   0.389  0.0796  1.9459  0.9544
11677SOL    HW236248   4.185   4.212   0.250  0.1854 -0.8941  0.5713
11678SOL     OW36249   3.982   4.362   1.420  0.0140 -0.1081 -0.2436
11678SOL    HW136250   4.035   4.288   1.393 -0.0422 -0.4031  0.4297
11678SOL    HW236251   3.971   4.351   1.514 -1.1098  0.0206 -0.3362
11679SOL     OW36252   5.363   4.723   1.093  0.1027  0.2581  0.4160
11679SOL    HW136253   5.337   4.632   1.106  2.3547 -0.3081  1.3026
11679SOL    HW236254   5.337   4.767   1.175 -2.3904  0.8578 -0.5819
11680SOL     OW36255   4.834   4.656   0.799  0.1908 -0.2727  0.2611
11680SOL    HW136256   4.761   4.595   0.791 -1.5820  1.7041  0.5561
11680SOL    HW236257   4.824   4.694   0.886  1.6077  0.0458  0.3113
11681SOL     OW36258   5.416   5.203   0.985 -0.0658  0.0267 -0.1725
11681SOL    HW136259   5.427   5.132   0.921  1.0625  0.2179 -0.2057
11681SOL    HW236260   5.387   5.159   1.065  2.2856 -0.7452  0.3347
11682SOL     OW36261   4.984   5.177   0.881  0.2883  0.7509  0.2482
11682SOL    HW136262   4.925   5.104   0.860  0.4879  0.3183  1.1455
11682SOL    HW236263   4.971   5.192   0.975  0.3602  1.7799  0.1071
11683SOL     OW36264   4.042   5.137   0.469 -0.1251 -0.4504 -0.1834
11683SOL    HW136265   4.045   5.041   0.460 -0.0710 -0.3204 -1.7922
11683SOL    HW236266   3.953   5.155   0.497 -0.0019 -0.9844  0.6176
11684SOL     OW36267   4.494   5.275   1.350 -0.2283  0.4643  0.3002
11684SOL    HW136268   4.472   5.247   1.439 -3.4089  0.0051 -0.4839
11684SOL    HW236269   4.413   5.262   1.301  0.5908  3.2591 -2.0570
11685SOL     OW36270   5.154   3.891   0.092 -0.6961 -0.0491 -0.4133
11685SOL    HW136271   5.140   3.810   0.141  0.4234  0.0222  0.0439
11685SOL    HW236272   5.130   3.960   0.154  0.6624  0.0391  0.0433
11686SOL     OW36273   5.181   3.758   0.568  0.1431  0.6387  0.1011
11686SOL    HW136274   5.254   3.795   0.517 -0.4279  0.2935 -0.9960
11686SOL    HW236275   5.192   3.795   0.655  1.0265  1.4230 -0.3210
11687SOL     OW36276   4.515   5.480   1.001  0.2899 -0.0601  0.2417
11687SOL    HW136277   4.421   5.465   1.003  0.6229 -2.4916  0.2650
11687SOL    HW236278   4.535   5.499   0.910 -0.3283  1.6958  0.4241
11688SOL     OW36279   3.421   5.468   1.840 -0.8477  0.0064 -0.4451
11688SOL    HW136280   3.374   5.391   1.808  0.0098 -1.0092  0.5983
11688SOL    HW236281   3.510   5.457   1.805 -0.6118  0.2899  0.0523
11689SOL     OW36282   4.828   4.947   0.830 -0.2762  0.2520 -0.1854
11689SOL    HW136283   4.748   4.912   0.870  0.4423 -1.7048 -0.3554
11689SOL    HW236284   4.824   4.919   0.739  0.1986  0.9218 -0.4254
11690SOL     OW36285   4.359   4.916   1.442  0.0938  0.8520  0.2605
11690SOL    HW136286   4.283   4.925   1.501 -0.4782  1.4441 -0.5390
11690SOL    HW236287   4.431   4.890   1.499 -0.4960  1.2102  1.1894
11691SOL     OW36288   4.440   5.057   8.576  0.0060 -0.5087 -0.0270
11691SOL    HW136289   4.372   5.114   8.541  1.2421 -0.0535 -1.8288
11691SOL    HW236290   4.522   5.093   8.542  0.9329 -2.6183 -0.2097
11692SOL     OW36291   5.540   5.689   1.189  0.1713  0.2455  0.0744
11692SOL    HW136292   5.483   5.628   1.142 -1.5211  0.3647  1.8523
11692SOL    HW236293   5.627   5.674   1.152 -1.0129  0.3078 -2.9923
11693SOL     OW36294   5.322   3.852   1.197  0.3485 -0.3352  0.7300
11693SOL    HW136295   5.391   3.918   1.202  0.3973 -0.2211 -0.8345
11693SOL    HW236296   5.268   3.866   1.275  0.3594  1.5619  0.4288
11694SOL     OW36297   4.121   3.730   0.897  0.1899  0.3565 -0.5731
11694SOL    HW136298   4.046   3.670   0.901  0.8407 -0.4109  0.8320
11694SOL    HW236299   4.196   3.674   0.881  1.0900  0.4132  2.6731
11695SOL     OW36300   4.920   4.940   0.043 -0.0363  0.0967  0.0809
11695SOL    HW136301   4.942   4.918   0.134 -0.2306  1.0758  0.3855
11695SOL    HW236302   4.832   4.905   0.030  0.6452 -1.5305 -0.2898
11696SOL     OW36303   4.531   4.529   1.452  0.1217  0.3859  0.0279
11696SOL    HW136304   4.517   4.434   1.452  1.4270  0.1561 -1.0249
11696SOL    HW236305   4.454   4.565   1.496 -1.0589 -1.0634 -0.7733
11697SOL     OW36306   4.316   4.593   0.682  0.5627  0.3970  0.2339
11697SOL    HW136307   4.402   4.626   0.656  0.5027  0.7556  0.4856
11697SOL    HW236308   4.310   4.612   0.775  0.7873 -0.9092  0.5455
11698SOL     OW36309   4.998   5.442   0.010 -0.5289  0.2183 -0.3936
11698SOL    HW136310   4.957   5.526  -0.012 -0.7815 -0.0262 -0.8592
11698SOL    HW236311   5.070   5.466   0.069  1.2263  1.0631 -2.7492
11699SOL     OW36312   4.085   4.931   1.070 -0.0965  0.2046  0.0845
11699SOL    HW136313   4.001   4.892   1.095  0.7351 -0.4341  2.0833
11699SOL    HW236314   4.151   4.874   1.109  1.3947 -0.2609 -2.8159
11700SOL     OW36315   5.288   4.862   1.377 -0.3337  0.8636  0.0886
11700SOL    HW136316   5.205   4.820   1.354 -0.7216  0.6380  1.7618
11700SOL    HW236317   5.351   4.790   1.380 -0.3632  0.8396  0.1298
11701SOL     OW36318   5.535   4.676   0.686  0.2059 -0.4669  0.0524
11701SOL    HW136319   5.561   4.636   0.769  2.1966  0.2219 -0.2066
11701SOL    HW236320   5.449   4.637   0.668  0.1874 -1.4158  1.8950
11702SOL     OW36321   4.937   3.641   0.540 -0.0013  0.3120 -0.8642
11702SOL    HW136322   5.025   3.670   0.516  0.4876 -1.8284 -1.9834
11702SOL    HW236323   4.909   3.700   0.610  1.5746  2.1753 -1.7319
11703SOL     OW36324   4.583   4.974   8.826  0.0880  0.2356  0.1309
11703SOL    HW136325   4.510   4.922   8.792  0.2882  0.2526 -0.3407
11703SOL    HW236326   4.637   4.992   8.749  1.9986 -2.0069  0.7939
11704SOL     OW36327   5.214   4.064   1.665  0.2677 -0.4196  0.1400
11704SOL    HW136328   5.228   4.158   1.671 -2.3889  0.0972 -0.3292
11704SOL    HW236329   5.201   4.035   1.755  1.1641 -0.3620  0.2902
11705SOL     OW36330   3.768   5.232   0.257 -0.5091 -0.1010 -0.2062
11705SOL    HW136331   3.702   5.236   0.188 -2.3241 -0.2280  1.4398
11705SOL    HW236332   3.730   5.175   0.323 -0.4142  2.7288  2.4921
11706SOL     OW36333   4.353   4.583   1.696  0.2358 -0.2189  0.0146
11706SOL    HW136334   4.420   4.515   1.708 -0.0666 -1.3658 -3.5016
11706SOL    HW236335   4.297   4.575   1.773  2.7174 -0.8608  1.8876
11707SOL     OW36336   4.445   3.897   1.596 -0.4881 -0.2086  0.2403
11707SOL    HW136337   4.467   3.834   1.664 -0.6972 -0.5312  0.0104
11707SOL    HW236338   4.530   3.931   1.567 -0.3196 -0.9248 -0.1453
11708SOL     OW36339   4.023   3.727   0.402  0.9416 -0.0903  0.2249
11708SOL    HW136340   3.939   3.751   0.443  1.1752 -1.6893  1.7432
11708SOL    HW236341   4.022   3.773   0.319 -1.1589  0.4823  0.4966
11709SOL     OW36342   5.263   4.353   1.681  0.0942  0.0928 -0.3886
11709SOL    HW136343   5.219   4.434   1.655 -0.5516 -0.8980 -2.6149
11709SOL    HW236344   5.244   4.345   1.775 -1.4776  1.5097 -0.5272
11710SOL     OW36345   3.688   3.438   0.066  0.8645 -0.0432 -1.1776
11710SOL    HW136346   3.762   3.380   0.084  1.0368  0.7115  0.8770
11710SOL    HW236347   3.728   3.523   0.047  0.5631 -0.1763 -2.5087
11711SOL     OW36348   4.596   4.610   0.413  0.1392  0.4739  0.1044
11711SOL    HW136349   4.636   4.539   0.363  0.9571 -0.1754  1.6168
11711SOL    HW236350   4.576   4.677   0.347 -0.5153 -1.0712 -1.3271
11712SOL     OW36351   4.153   4.145   1.374  0.5869  0.2117  1.1624
11712SOL    HW136352   4.148   4.073   1.436  1.4416 -0.5018  0.4281
11712SOL    HW236353   4.221   4.119   1.311  1.1787  1.8061  1.0843
11713SOL     OW36354   5.640   5.254   1.157  0.4637  0.0756 -0.7579
11713SOL    HW136355   5.569   5.302   1.116  1.6681  0.8968 -1.9343
11713SOL    HW236356   5.601   5.215   1.236 -0.8711  1.8449 -0.5091
11714SOL     OW36357   4.462   4.177   1.672 -0.3591 -0.3709  0.7875
11714SOL    HW136358   4.547   4.162   1.714 -0.2188 -2.3195 -0.0498
11714SOL    HW236359   4.421   4.090   1.670 -1.0453 -0.0691 -1.5708
11715SOL     OW36360   4.923   4.421   1.930 -0.0838 -0.1378 -0.3129
11715SOL    HW136361   4.927   4.490   1.996 -0.8134  0.6142 -1.0370
11715SOL    HW236362   4.944   4.341   1.978 -1.4704  0.2588  1.0406
11716SOL     OW36363   4.007   5.297   1.771  0.1650  0.1340  0.1545
11716SOL    HW136364   4.096   5.265   1.786  0.7011  1.5029  0.0639
11716SOL    HW236365   3.994   5.289   1.676  1.0484  1.9386 -0.1675
11717SOL     OW36366   5.463   4.665   1.466 -0.1168 -0.7702 -0.4085
11717SOL    HW136367   5.532   4.599   1.464  0.0720 -0.5903  0.0422
11717SOL    HW236368   5.449   4.682   1.559  1.4786  1.5192 -0.5091
11718SOL     OW36369   4.632   4.094   0.231 -0.8833  0.2022 -0.0008
11718SOL    HW136370   4.649   4.069   0.140 -2.9648 -1.5186 -0.0046
11718SOL    HW236371   4.714   4.075   0.277 -0.4091 -0.7275 -1.1786
11719SOL     OW36372   4.546   4.224   0.883  0.0074  0.1253  0.1766
11719SOL    HW136373   4.582   4.156   0.939  1.5096  1.4411  0.8702
11719SOL    HW236374   4.454   4.230   0.909  0.3147 -0.3299  1.4265
11720SOL     OW36375   5.864   4.160   2.061  0.5166  0.2193  0.1007
11720SOL    HW136376   5.944   4.128   2.020  0.5978 -0.1154  0.5218
11720SOL    HW236377   5.813   4.196   1.988  0.3575 -0.9873 -0.4052
11721SOL     OW36378   5.170   4.607   1.594  0.0270  0.3176 -0.6372
11721SOL    HW136379   5.103   4.626   1.659 -0.0468  0.7512 -0.8338
11721SOL    HW236380   5.122   4.604   1.511 -0.1629 -1.9067 -0.5027
11722SOL     OW36381   4.357   4.814   8.847 -0.1001  0.9774 -0.1467
11722SOL    HW136382   4.319   4.778   8.766  2.0368 -1.9447 -0.0331
11722SOL    HW236383   4.340   4.746   8.912  1.8671  1.3163  0.7901
11723SOL     OW36384   4.534   4.874   1.242  0.0587  0.2942  0.2133
11723SOL    HW136385   4.522   4.782   1.220 -0.0664  0.4834 -0.5338
11723SOL    HW236386   4.484   4.887   1.323  0.4614 -0.3957  0.5823
11724SOL     OW36387   4.570   4.595   1.158  0.7288 -0.7190  0.0834
11724SOL    HW136388   4.525   4.511   1.143  2.2237 -1.6153  0.4005
11724SOL    HW236389   4.580   4.599   1.253  1.3742 -0.5805  0.0126
11725SOL     OW36390   5.033   4.367   0.489  0.2963 -0.1523 -0.2194
11725SOL    HW136391   5.095   4.326   0.549  0.7426 -0.5211 -0.9197
11725SOL    HW236392   4.947   4.334   0.518  0.3999  0.4780  0.8402
11726SOL     OW36393   5.678   4.925   0.630  0.8344  0.1333  0.3720
11726SOL    HW136394   5.685   4.956   0.540 -2.5847  1.6457  0.4695
11726SOL    HW236395   5.632   4.841   0.623  1.3551 -0.1904  0.6979
11727SOL     OW36396   4.133   4.729   1.512 -0.2291 -0.5998  0.4315
11727SOL    HW136397   4.185   4.655   1.545 -1.9143 -0.7133  3.1405
11727SOL    HW236398   4.106   4.776   1.591 -1.7442  1.1523 -1.0469
11728SOL     OW36399   3.676   4.390   0.381  0.2259 -0.1597  0.0090
11728SOL    HW136400   3.713   4.363   0.465  0.3808  0.2663  0.0785
11728SOL    HW236401   3.735   4.353   0.316  0.6568  0.3329  0.1128
11729SOL     OW36402   4.514   5.132   1.599 -0.1983 -0.1961  0.3954
11729SOL    HW136403   4.602   5.123   1.635  0.3769  2.3615 -0.2159
11729SOL    HW236404   4.500   5.051   1.550  1.9210 -0.5359  0.2581
11730SOL     OW36405   5.614   3.814   1.392 -0.6522 -0.2742 -0.1133
11730SOL    HW136406   5.597   3.745   1.329 -1.8476 -0.1273  0.0353
11730SOL    HW236407   5.533   3.823   1.442  0.6978 -1.4881  2.5394
11731SOL     OW36408   4.170   4.026   0.460  0.0860 -0.3038  0.3962
11731SOL    HW136409   4.257   4.008   0.497 -0.4951 -1.3876  1.2794
11731SOL    HW236410   4.109   3.994   0.526 -1.0142  1.3882  0.2377
11732SOL     OW36411   5.804   5.007   1.260  0.2573 -0.0173  0.4989
11732SOL    HW136412   5.770   5.091   1.227 -0.3190 -0.1638  0.7107
11732SOL    HW236413   5.752   4.989   1.338  1.8041  0.4790  1.7043
11733SOL     OW36414   3.724   4.509   1.541  0.1667 -0.0617 -0.3252
11733SOL    HW136415   3.733   4.467   1.455  2.1033  0.1935 -0.3034
11733SOL    HW236416   3.743   4.440   1.604  1.0038  0.2687 -0.2027
11734SOL     OW36417   4.089   5.463   0.258  0.3887  0.3353 -0.3967
11734SOL    HW136418   4.059   5.503   0.339 -0.6349  3.3331 -2.1027
11734SOL    HW236419   4.184   5.476   0.258  0.2370  1.5765 -0.2457
11735SOL     OW36420   5.607   3.487   0.975 -0.6337 -0.2687  0.2910
11735SOL    HW136421   5.667   3.544   0.928  1.5602 -2.0507  0.7564
11735SOL    HW236422   5.597   3.527   1.061  0.9628 -0.5738  0.6513
11736SOL     OW36423   4.764   3.867   1.249 -0.3795  0.2847  0.3051
11736SOL    HW136424   4.755   3.778   1.215 -0.0425 -0.2447  1.5590
11736SOL    HW236425   4.852   3.894   1.223  0.0113 -0.2535  1.0328
11737SOL     OW36426   4.308   4.886   0.320 -0.0741 -0.0813 -0.0269
11737SOL    HW136427   4.382   4.863   0.264 -0.8314  2.3694 -2.2567
11737SOL    HW236428   4.348   4.925   0.398  0.9679 -2.0152  0.4757
11738SOL     OW36429   4.286   5.267   1.178 -0.6634  0.1355 -0.2150
11738SOL    HW136430   4.342   5.228   1.112 -2.5492 -2.8835 -0.2568
11738SOL    HW236431   4.279   5.359   1.153  0.3528 -0.4443 -2.9939
11739SOL     OW36432   5.439   3.933   8.788 -0.0685  0.4117  0.3336
11739SOL    HW136433   5.466   3.868   8.853  2.3406  0.9221 -0.0571
11739SOL    HW236434   5.428   3.883   8.707 -0.6332  0.1505  0.5643
11740SOL     OW36435   5.000   4.301   0.226  0.0402  0.0406 -0.2167
11740SOL    HW136436   5.004   4.342   0.312  0.8003 -0.7410  0.1396
11740SOL    HW236437   4.910   4.315   0.196  0.4848  2.7670 -0.5333
11741SOL     OW36438   5.477   4.025   0.988  0.1827 -0.0298 -0.0946
11741SOL    HW136439   5.472   4.050   1.080 -0.0722  4.1734 -1.0668
11741SOL    HW236440   5.565   3.989   0.978  0.6702  0.6171  1.5460
11742SOL     OW36441   3.506   4.618   0.375 -0.2264  0.3673 -0.4559
11742SOL    HW136442   3.580   4.673   0.350 -0.7086  1.4125  0.3493
11742SOL    HW236443   3.544   4.531   0.389  0.4616  0.3246 -2.2718
11743SOL     OW36444   4.466   5.195   0.086  0.4466  0.4993 -0.5823
11743SOL    HW136445   4.493   5.112   0.046 -0.6146  0.1729 -0.6352
11743SOL    HW236446   4.549   5.236   0.113  1.0501 -0.0807 -1.5061
11744SOL     OW36447   4.349   5.038   3.112 -0.1609  0.1964  0.6996
11744SOL    HW136448   4.265   5.008   3.145  0.6172 -0.4930  2.1683
11744SOL    HW236449   4.332   5.127   3.080 -1.1768  0.5800  2.2082
11745SOL     OW36450   5.098   5.159   2.275  0.4187 -0.1092  0.5854
11745SOL    HW136451   5.100   5.146   2.370  3.1113 -3.1648  0.2527
11745SOL    HW236452   5.010   5.134   2.249 -0.2909  0.5650  2.1929
11746SOL     OW36453   4.837   4.674   2.651  0.0421  0.1129 -0.3147
11746SOL    HW136454   4.858   4.668   2.557  1.1565  0.5696 -0.1004
11746SOL    HW236455   4.779   4.750   2.658 -0.0994  0.0393 -0.6288
11747SOL     OW36456   4.536   4.773   2.893 -0.1605 -0.7778 -0.2756
11747SOL    HW136457   4.577   4.858   2.905 -1.5004 -0.2573  0.8304
11747SOL    HW236458   4.606   4.710   2.912  0.3990  0.0680  0.5662
11748SOL     OW36459   4.295   4.522   2.892  0.0323 -0.3036 -0.0604
11748SOL    HW136460   4.373   4.577   2.899 -0.2068 -0.1255  2.4412
11748SOL    HW236461   4.288   4.481   2.979 -1.9191 -1.3255 -0.6481
11749SOL     OW36462   4.076   4.985   3.167  0.2823 -0.1240 -0.0231
11749SOL    HW136463   4.033   4.905   3.196  0.6987 -0.2866  0.1437
11749SOL    HW236464   4.015   5.055   3.192  0.6637 -0.2506  1.3061
11750SOL     OW36465   4.184   3.681   3.605 -0.7197 -0.0963 -0.5380
11750SOL    HW136466   4.246   3.611   3.586 -1.6449 -0.7599 -1.1983
11750SOL    HW236467   4.209   3.753   3.547  1.2986  0.8286  1.3251
11751SOL     OW36468   4.138   5.432   2.441 -0.1367  0.1468 -0.1754
11751SOL    HW136469   4.072   5.423   2.510  0.3880  0.2145  0.3395
11751SOL    HW236470   4.177   5.345   2.432  0.8390  0.4797  0.6773
11752SOL     OW36471   3.854   4.535   2.670  0.1610 -0.2896  0.3221
11752SOL    HW136472   3.901   4.542   2.754  0.2751 -0.1341  0.2458
11752SOL    HW236473   3.763   4.521   2.695  0.2897 -0.9120  0.4742
11753SOL     OW36474   4.412   4.722   2.236  0.3771 -0.1985 -0.1569
11753SOL    HW136475   4.427   4.629   2.215  0.9123  0.2341 -1.8274
11753SOL    HW236476   4.458   4.736   2.319 -0.1543 -1.5309  0.3998
11754SOL     OW36477   5.294   3.978   2.927  0.4907  0.3573 -0.0599
11754SOL    HW136478   5.249   3.935   3.000  1.4027 -0.3123  0.1125
11754SOL    HW236479   5.247   3.949   2.849 -0.3437  0.8920  0.2276
11755SOL     OW36480   5.154   5.526   2.345  0.5725 -0.0167 -0.5299
11755SOL    HW136481   5.230   5.486   2.303  1.2433 -0.5304  1.1037
11755SOL    HW236482   5.111   5.453   2.391  1.7076  0.9972  2.3383
11756SOL     OW36483   4.362   4.085   3.840  0.2293  0.2541 -0.2465
11756SOL    HW136484   4.344   4.012   3.899 -0.8042  0.9869  0.3709
11756SOL    HW236485   4.381   4.043   3.756  1.6596 -0.8075  0.5462
11757SOL     OW36486   4.333   4.953   2.845 -0.0750 -0.1854  0.9722
11757SOL    HW136487   4.374   4.980   2.927  0.3993 -0.3655  0.7965
11757SOL    HW236488   4.377   4.872   2.822 -1.5888 -1.2145  1.5681
11758SOL     OW36489   3.908   4.712   3.127 -0.4718 -0.0170 -0.0397
11758SOL    HW136490   3.876   4.698   3.216  0.0625  0.4119  0.2242
11758SOL    HW236491   3.832   4.744   3.079 -0.5483  0.5984  0.4820
11759SOL     OW36492   4.865   4.958   2.271  0.0325 -1.0123  0.5359
11759SOL    HW136493   4.772   4.969   2.288 -0.2655  0.7829 -1.7411
11759SOL    HW236494   4.907   4.966   2.357 -1.8026 -0.5826  1.4244
11760SOL     OW36495   4.454   5.837   3.465  0.5918  0.0713  0.1861
11760SOL    HW136496   4.495   5.899   3.526 -0.4117 -0.3433  1.3174
11760SOL    HW236497   4.507   5.758   3.474  0.3812 -0.0252  0.6200
11761SOL     OW36498   4.258   3.826   3.938 -0.0269 -0.3659 -0.0592
11761SOL    HW136499   4.311   3.845   4.016 -0.7875 -1.1049  0.6650
11761SOL    HW236500   4.312   3.765   3.888  0.1284 -0.5299  0.2964
11762SOL     OW36501   4.939   5.628   2.595  0.1337 -0.1922  0.1992
11762SOL    HW136502   4.918   5.721   2.603  0.6398  0.1685 -2.0549
11762SOL    HW236503   4.873   5.584   2.649 -0.4746  1.4172  0.8484
11763SOL     OW36504   4.722   5.272   2.623  0.9024 -0.7425 -0.0645
11763SOL    HW136505   4.781   5.234   2.688 -0.5685 -0.4807  1.4908
11763SOL    HW236506   4.645   5.216   2.624  0.6995 -0.5215 -1.3508
11764SOL     OW36507   4.569   4.136   2.298  0.0659  0.1867  0.2319
11764SOL    HW136508   4.496   4.101   2.349  0.8710  2.7882  3.4549
11764SOL    HW236509   4.647   4.114   2.348  1.0857  1.4394 -0.7204
11765SOL     OW36510   3.678   5.555   3.301 -0.1910 -0.4183  0.1612
11765SOL    HW136511   3.674   5.622   3.232  0.8328  0.5181  0.9761
11765SOL    HW236512   3.745   5.493   3.271  0.0827 -0.1430  0.1998
11766SOL     OW36513   4.577   4.053   2.042 -1.1087 -0.2228  0.3016
11766SOL    HW136514   4.559   4.098   2.124 -0.5881 -1.3589  1.0613
11766SOL    HW236515   4.497   4.005   2.022 -0.6507 -1.3473  1.0886
11767SOL     OW36516   4.316   4.907   2.017  0.1144 -0.0841  0.3509
11767SOL    HW136517   4.358   4.835   2.064  0.1622 -1.5445 -1.7886
11767SOL    HW236518   4.223   4.891   2.026  0.1229 -0.2858  0.1076
11768SOL     OW36519   3.553   5.277   2.997  0.3414  0.2582 -1.0582
11768SOL    HW136520   3.574   5.207   3.058 -0.1747 -0.6321 -1.8795
11768SOL    HW236521   3.559   5.236   2.911 -1.4217  0.8257 -1.4872
11769SOL     OW36522   4.349   5.135   2.645 -0.6771  0.3621 -0.6502
11769SOL    HW136523   4.336   5.080   2.568  0.2077 -0.1348 -0.4447
11769SOL    HW236524   4.325   5.079   2.719 -2.6641  1.1949 -0.5983
11770SOL     OW36525   4.134   3.806   3.376 -0.2815  0.8887 -0.1060
11770SOL    HW136526   4.109   3.893   3.345 -0.4826  0.4118 -1.3226
11770SOL    HW236527   4.059   3.751   3.354 -0.5306  0.5603  1.4604
11771SOL     OW36528   4.951   5.321   1.909 -0.0613  0.1230 -0.0340
11771SOL    HW136529   4.927   5.239   1.951 -0.1999  0.0762 -0.2013
11771SOL    HW236530   5.024   5.299   1.852 -0.6164 -0.0577 -0.6951
11772SOL     OW36531   4.065   5.010   2.812 -0.0506 -0.4491 -0.5739
11772SOL    HW136532   4.157   4.987   2.821  0.2744  1.0776  0.2242
11772SOL    HW236533   4.030   5.007   2.901 -0.3320  0.6976 -0.6333
11773SOL     OW36534   4.753   5.487   2.764  0.7432  0.0524  0.0021
11773SOL    HW136535   4.742   5.422   2.694  0.9187  1.0743 -1.0177
11773SOL    HW236536   4.682   5.470   2.825  0.5396 -0.8253 -0.4632
11774SOL     OW36537   4.849   3.912   3.808 -0.0929 -0.0453 -0.0674
11774SOL    HW136538   4.819   3.899   3.898  0.5317 -0.0960  0.1340
11774SOL    HW236539   4.867   3.824   3.774  0.3091  0.0149 -0.0187
11775SOL     OW36540   4.606   5.037   2.910  0.0632  0.1500  0.3808
11775SOL    HW136541   4.684   5.077   2.874  0.5482 -1.5902 -0.6484
11775SOL    HW236542   4.565   5.105   2.963  1.2422  1.6859 -0.6224
11776SOL     OW36543   4.957   4.661   2.063 -0.0291  0.0478 -0.1646
11776SOL    HW136544   5.011   4.686   2.139  1.1053 -1.1054 -0.5591
11776SOL    HW236545   4.874   4.708   2.077  0.4980  0.6335  1.2757
11777SOL     OW36546   3.850   4.798   2.556  0.1790 -0.3943  0.0386
11777SOL    HW136547   3.833   4.718   2.605 -1.0816 -0.6724 -0.7890
11777SOL    HW236548   3.782   4.859   2.584  1.3483  0.5588  0.9396
11778SOL     OW36549   4.945   5.588   2.967  0.0009  0.4569  0.0450
11778SOL    HW136550   4.885   5.563   2.896  0.5759 -0.2547 -0.1966
11778SOL    HW236551   5.031   5.562   2.936  0.2831  0.3180  0.9288
11779SOL     OW36552   4.500   4.240   1.362 -0.2047  0.5104  0.0695
11779SOL    HW136553   4.532   4.183   1.293 -0.6264 -0.8850  0.9763
11779SOL    HW236554   4.504   4.186   1.441  0.5290  2.1554  1.1890
11780SOL     OW36555   4.312   4.293   3.386  0.1929  0.3615  0.2187
11780SOL    HW136556   4.307   4.324   3.477 -0.5896  1.9378 -0.3246
11780SOL    HW236557   4.372   4.219   3.390 -2.2897 -1.7559  2.5597
11781SOL     OW36558   5.465   5.027   2.139  0.6920 -0.1045 -0.2627
11781SOL    HW136559   5.514   5.017   2.221  0.1806  0.7822  0.1726
11781SOL    HW236560   5.386   4.974   2.152 -0.2113  1.3510  0.5354
11782SOL     OW36561   4.210   4.912   2.478  0.0172  0.5857 -0.0192
11782SOL    HW136562   4.169   4.855   2.543 -1.1998  0.6847 -0.6780
11782SOL    HW236563   4.280   4.858   2.440 -0.6459 -0.2247 -0.1179
11783SOL     OW36564   5.295   5.385   2.645  0.2999  0.2976  0.0422
11783SOL    HW136565   5.208   5.357   2.674  0.6184  0.1529  0.9134
11783SOL    HW236566   5.350   5.372   2.722  0.7790  1.8820 -0.0096
11784SOL     OW36567   4.917   4.256   2.186  0.3162 -0.4330  0.0886
11784SOL    HW136568   4.886   4.165   2.184 -0.0546 -0.3531  1.5106
11784SOL    HW236569   5.012   4.248   2.192  0.3268 -0.7091 -0.3426
11785SOL     OW36570   5.413   4.766   3.682  0.2453 -0.3930  0.0479
11785SOL    HW136571   5.336   4.738   3.731 -0.0852  1.1394  0.4758
11785SOL    HW236572   5.482   4.776   3.748  0.1943  0.3275 -0.0032
11786SOL     OW36573   5.463   5.528   3.371 -0.7769 -0.0935 -0.2262
11786SOL    HW136574   5.423   5.472   3.438 -1.2180 -0.1901 -0.5609
11786SOL    HW236575   5.411   5.510   3.292 -0.5679  0.3753 -0.4699
11787SOL     OW36576   4.099   4.731   2.627  0.1705 -0.5711 -0.3194
11787SOL    HW136577   4.018   4.771   2.596  0.2999  1.9718  2.2116
11787SOL    HW236578   4.073   4.687   2.709  1.5033  1.6716  1.4175
11788SOL     OW36579   4.111   4.181   3.051 -0.1611 -0.3963 -0.0177
11788SOL    HW136580   4.016   4.179   3.052 -0.3250  2.0810 -2.2916
11788SOL    HW236581   4.137   4.091   3.072 -3.0095 -1.6318 -1.3430
11789SOL     OW36582   4.740   4.940   2.671  0.0554  0.1463  0.3309
11789SOL    HW136583   4.654   4.951   2.712  0.3256 -0.6055  1.1401
11789SOL    HW236584   4.800   4.987   2.729  0.5050 -1.2808  1.0746
11790SOL     OW36585   4.283   4.375   3.126  0.2414 -0.1611  0.5539
11790SOL    HW136586   4.319   4.336   3.205 -0.2597 -0.6710  0.5443
11790SOL    HW236587   4.217   4.311   3.096  1.3896 -0.6669 -1.0470
11791SOL     OW36588   4.444   3.663   3.802 -0.5795  0.1889  0.1993
11791SOL    HW136589   4.413   3.635   3.716 -1.4417 -0.5275  0.7232
11791SOL    HW236590   4.477   3.752   3.788 -0.8147  0.1225 -0.8448
11792SOL     OW36591   4.064   4.753   3.434 -0.1956 -0.3491 -0.2232
11792SOL    HW136592   3.986   4.800   3.407 -0.4139  0.0347  0.9832
11792SOL    HW236593   4.129   4.823   3.451 -0.5207 -0.4297  1.5807
11793SOL     OW36594   4.844   4.007   2.133 -0.3004 -0.1647 -0.7492
11793SOL    HW136595   4.885   3.932   2.089 -0.8651 -0.2721 -1.0987
11793SOL    HW236596   4.751   3.985   2.135 -0.0958 -1.3028  2.6372
11794SOL     OW36597   3.992   4.594   2.892 -0.3751  0.2184  0.0267
11794SOL    HW136598   4.080   4.565   2.869 -0.1493  2.0831 -1.7855
11794SOL    HW236599   4.000   4.629   2.980  0.0530 -1.9987  0.9340
11795SOL     OW36600   5.716   5.393   3.408 -0.4060  0.0041 -0.1343
11795SOL    HW136601   5.726   5.383   3.314  1.7229  2.0991 -0.2293
11795SOL    HW236602   5.646   5.458   3.419 -0.9779 -0.5869 -0.2246
11796SOL     OW36603   4.330   4.312   3.657  0.4500  0.3527  0.0330
11796SOL    HW136604   4.408   4.359   3.687  0.0209 -0.0192  1.8714
11796SOL    HW236605   4.326   4.234   3.712 -2.1711  1.2566  1.3105
11797SOL     OW36606   5.291   4.538   2.165 -0.5243  0.0258  0.2131
11797SOL    HW136607   5.306   4.592   2.242 -1.5938 -1.4389  1.5070
11797SOL    HW236608   5.271   4.601   2.096  1.2600  1.4144  0.8804
11798SOL     OW36609   4.255   4.307   2.706 -0.0534 -0.6324  0.5348
11798SOL    HW136610   4.255   4.217   2.739  1.9525 -0.8531  0.0642
11798SOL    HW236611   4.256   4.361   2.785 -2.5745 -0.9112  0.8544
11799SOL     OW36612   3.930   5.128   2.610  0.4818  0.4532  0.3921
11799SOL    HW136613   3.951   5.102   2.700  1.3112  0.8030  0.3102
11799SOL    HW236614   3.847   5.083   2.591 -0.8723  2.0963  2.0774
11800SOL     OW36615   4.140   5.309   2.919 -0.0339 -0.8679  0.4297
11800SOL    HW136616   4.220   5.314   2.972  0.4764  1.3180 -0.4124
11800SOL    HW236617   4.160   5.245   2.851  1.7657  0.9330 -0.8463
11801SOL     OW36618   3.857   4.383   3.075  0.2171 -0.5680 -1.2310
11801SOL    HW136619   3.889   4.435   3.001  1.5394 -0.2806 -0.4816
11801SOL    HW236620   3.932   4.376   3.133 -0.6976 -1.1301 -0.0904
11802SOL     OW36621   4.273   3.951   3.557 -0.2477  0.2068  0.0924
11802SOL    HW136622   4.222   3.910   3.487 -0.7014  1.0768 -0.0987
11802SOL    HW236623   4.261   4.045   3.543  1.6540  0.4553 -0.1393
11803SOL     OW36624   4.396   4.434   2.062 -0.4517 -0.8564  0.1688
11803SOL    HW136625   4.435   4.415   2.148  0.2088 -3.7947 -0.6541
11803SOL    HW236626   4.321   4.375   2.056 -1.0608 -0.0118 -0.9238
11804SOL     OW36627   5.279   4.269   3.026 -0.0588 -0.2589  0.8550
11804SOL    HW136628   5.188   4.299   3.028  0.1164  0.2932  0.7871
11804SOL    HW236629   5.273   4.175   3.012 -0.5937 -0.0164 -0.7579
11805SOL     OW36630   3.842   4.926   3.379 -0.2819 -0.0712  0.0639
11805SOL    HW136631   3.769   4.898   3.435 -1.0124 -1.5391 -1.5492
11805SOL    HW236632   3.848   5.021   3.394 -2.0222 -0.0368  0.7939
11806SOL     OW36633   4.764   4.702   2.359 -0.3611  0.2721 -0.5154
11806SOL    HW136634   4.853   4.737   2.367 -0.4206  1.0331 -2.5241
11806SOL    HW236635   4.774   4.622   2.307 -0.7193 -0.3774  0.3940
11807SOL     OW36636   5.581   5.261   3.117 -0.5443 -0.1996  0.1467
11807SOL    HW136637   5.671   5.240   3.096  0.5147  2.0471  1.9719
11807SOL    HW236638   5.553   5.192   3.178  0.4033 -0.2407  0.5440
11808SOL     OW36639   3.782   4.894   2.835 -0.0719 -0.3338 -0.3288
11808SOL    HW136640   3.754   4.915   2.746 -0.5838 -2.6126 -0.7702
11808SOL    HW236641   3.747   4.806   2.852 -0.3727  0.1921  2.3039
11809SOL     OW36642   5.227   3.357   2.533  0.0028  0.1174  0.2810
11809SOL    HW136643   5.284   3.372   2.458 -0.5616  0.7588 -0.0258
11809SOL    HW236644   5.144   3.329   2.495 -0.2849  0.4366  0.6643
11810SOL     OW36645   4.966   5.376   2.474 -0.2153 -0.1909 -0.4088
11810SOL    HW136646   4.970   5.464   2.512 -0.9676 -0.3875  0.1357
11810SOL    HW236647   4.889   5.336   2.513  0.0163 -1.0362 -0.7930
11811SOL     OW36648   4.547   5.208   2.278  0.1982 -0.4197 -0.1419
11811SOL    HW136649   4.628   5.252   2.249 -0.0528  0.0488 -0.1527
11811SOL    HW236650   4.577   5.134   2.330  0.6485 -0.6998 -0.7802
11812SOL     OW36651   5.338   5.492   3.141 -0.2107 -0.6205  0.5998
11812SOL    HW136652   5.291   5.455   3.067 -0.3178  0.9077 -0.1296
11812SOL    HW236653   5.286   5.568   3.168  0.6610 -0.2168  1.2189
11813SOL     OW36654   5.255   3.742   2.696 -0.2757  0.0648  0.0431
11813SOL    HW136655   5.221   3.681   2.630 -0.2521  0.3580 -0.2427
11813SOL    HW236656   5.238   3.829   2.659  1.7649  0.2349 -0.6254
11814SOL     OW36657   4.806   5.074   1.990 -0.4329  0.3740  0.0627
11814SOL    HW136658   4.813   5.029   2.074  1.3755  1.2732  0.4288
11814SOL    HW236659   4.715   5.105   1.987 -0.6649 -0.0981  1.4510
11815SOL     OW36660   4.202   4.477   2.509  0.9911 -0.0383 -0.1027
11815SOL    HW136661   4.180   4.554   2.562  1.5630 -0.4504  0.7671
11815SOL    HW236662   4.220   4.408   2.573  0.4564 -0.9153 -0.8721
11816SOL     OW36663   4.956   5.371   1.505  0.2266  0.0249  0.0281
11816SOL    HW136664   5.020   5.318   1.553  1.0186 -1.2881 -2.3393
11816SOL    HW236665   4.886   5.387   1.568  1.5197 -1.0132  1.8136
11817SOL     OW36666   5.319   5.026   3.608 -0.0881 -0.7197  0.6626
11817SOL    HW136667   5.369   4.948   3.584 -0.3927 -0.3166 -1.4231
11817SOL    HW236668   5.228   5.002   3.593 -0.3704 -0.6406  2.1063
11818SOL     OW36669   4.964   4.939   2.517  0.0866  0.0735 -0.3936
11818SOL    HW136670   5.004   4.852   2.507  0.6146  0.3125 -0.4204
11818SOL    HW236671   4.891   4.925   2.577  2.0373  0.1312  2.1957
11819SOL     OW36672   5.557   4.102   2.900  0.3229  0.1950 -0.4207
11819SOL    HW136673   5.464   4.103   2.921  0.0993 -0.8009 -1.2759
11819SOL    HW236674   5.572   4.017   2.858  1.3012  0.9470 -1.6994
11820SOL     OW36675   4.630   5.004   2.428 -0.1677  0.2415 -0.3940
11820SOL    HW136676   4.571   4.930   2.418  1.3076 -0.9718 -0.4661
11820SOL    HW236677   4.683   4.983   2.504 -0.8194  2.0417  0.6195
11821SOL     OW36678   4.096   4.468   3.760  0.7321 -0.3465  0.1499
11821SOL    HW136679   4.041   4.443   3.686 -0.3175 -1.3444  1.2246
11821SOL    HW236680   4.161   4.398   3.766  1.5154  0.3136 -0.5014
11822SOL     OW36681   5.202   5.478   2.883 -0.2195  0.1726  0.0645
11822SOL    HW136682   5.235   5.506   2.797  1.9644 -0.9203  0.4645
11822SOL    HW236683   5.144   5.405   2.863  0.0418  0.1113 -0.5132
11823SOL     OW36684   4.571   4.149   3.584  0.2318 -0.1579  0.2732
11823SOL    HW136685   4.550   4.242   3.582 -0.5875 -0.2063  2.9119
11823SOL    HW236686   4.656   4.142   3.539  0.4732  1.8979  0.3292
11824SOL     OW36687   5.244   4.835   3.369  0.3334 -0.3053 -0.0513
11824SOL    HW136688   5.226   4.795   3.454 -2.1623 -1.6075 -1.0819
11824SOL    HW236689   5.189   4.913   3.368 -1.1036 -1.2740 -1.0919
11825SOL     OW36690   5.526   4.411   3.129  0.2678  0.6357  0.0135
11825SOL    HW136691   5.488   4.492   3.162  0.9228  1.2306 -0.6568
11825SOL    HW236692   5.452   4.362   3.093  0.1730  2.1041 -1.9643
11826SOL     OW36693   5.350   4.612   3.219 -0.8466  0.1921 -0.1418
11826SOL    HW136694   5.357   4.566   3.302 -1.3337  0.7109  0.1933
11826SOL    HW236695   5.297   4.690   3.239 -1.2833  0.1259 -1.0184
11827SOL     OW36696   4.805   4.927   1.240 -0.3051 -0.2338  0.4185
11827SOL    HW136697   4.817   4.878   1.158 -1.3214  3.0721 -1.9081
11827SOL    HW236698   4.711   4.925   1.255 -0.2368  0.0555  0.8980
11828SOL     OW36699   4.499   4.532   2.608  0.0337  0.3098  0.6484
11828SOL    HW136700   4.405   4.513   2.617 -0.1772  1.3402  0.7437
11828SOL    HW236701   4.542   4.459   2.652 -0.6882 -0.6719 -0.1979
11829SOL     OW36702   4.531   4.765   2.476 -0.3097 -0.5351  0.3302
11829SOL    HW136703   4.503   4.709   2.548 -2.0238  1.1918  1.1055
11829SOL    HW236704   4.616   4.731   2.450 -0.1785 -1.9238  2.4026
11830SOL     OW36705   6.078   5.345   2.874  0.2572 -0.0885  0.1781
11830SOL    HW136706   6.046   5.299   2.797 -0.5266 -0.2342  0.5776
11830SOL    HW236707   6.169   5.315   2.884 -0.7568 -3.2075  1.5746
11831SOL     OW36708   5.157   3.886   3.155 -0.2736 -0.3842 -0.0890
11831SOL    HW136709   5.161   3.819   3.223  0.6930 -2.6517 -2.2146
11831SOL    HW236710   5.068   3.920   3.160 -0.8311 -1.8988  1.0324
11832SOL     OW36711   5.312   5.355   3.516 -0.3648 -0.8456  0.0289
11832SOL    HW136712   5.315   5.260   3.519 -0.6041 -0.9303 -1.4873
11832SOL    HW236713   5.227   5.376   3.478 -0.0329 -0.0594 -0.3185
11833SOL     OW36714   4.040   4.381   3.284  0.4255  0.5675 -0.1690
11833SOL    HW136715   4.020   4.426   3.366  1.4192  0.9497 -0.1190
11833SOL    HW236716   4.133   4.398   3.269  0.0825  1.2037 -1.8072
11834SOL     OW36717   4.099   5.150   2.418 -0.0269 -0.1987 -0.0933
11834SOL    HW136718   4.051   5.161   2.500  0.5830  0.3012  0.1999
11834SOL    HW236719   4.149   5.070   2.429 -0.8123 -0.7541 -0.4209
11835SOL     OW36720   4.981   3.749   2.890 -0.1048  0.4677  0.0497
11835SOL    HW136721   4.961   3.819   2.952  1.4040  0.0100  1.1090
11835SOL    HW236722   5.017   3.794   2.813  0.0425  0.9140  0.3776
11836SOL     OW36723   4.136   4.904   1.722 -0.0702  0.2020  0.6419
11836SOL    HW136724   4.104   4.895   1.812  0.1896  1.7592  0.9323
11836SOL    HW236725   4.181   4.989   1.722 -0.9595  0.7266 -1.2123
11837SOL     OW36726   4.368   5.394   2.747 -0.2120 -0.2210 -0.1572
11837SOL    HW136727   4.392   5.370   2.836  0.0899 -0.7263 -0.3703
11837SOL    HW236728   4.378   5.313   2.697 -0.9406 -0.0827 -0.5369
11838SOL     OW36729   3.885   3.990   4.137 -0.8011  0.5685 -0.4838
11838SOL    HW136730   3.959   3.933   4.160 -0.0646  0.5746 -2.6233
11838SOL    HW236731   3.810   3.930   4.132 -0.9173  0.5014  1.3337
11839SOL     OW36732   4.461   5.035   5.024 -0.3847  0.1123  0.1845
11839SOL    HW136733   4.383   5.090   5.036 -0.2839  0.6409 -1.3056
11839SOL    HW236734   4.493   5.059   4.936 -0.3915 -2.4229 -0.5737
11840SOL     OW36735   4.871   4.021   4.478 -0.6856 -0.7212  0.0187
11840SOL    HW136736   4.855   4.008   4.572 -1.2377  2.5009  0.4624
11840SOL    HW236737   4.783   4.033   4.440 -0.3371  2.5367 -0.0271
11841SOL     OW36738   4.535   4.612   5.508 -0.6803 -0.2543 -0.4137
11841SOL    HW136739   4.509   4.602   5.417 -0.2327 -0.5343 -0.5151
11841SOL    HW236740   4.596   4.686   5.508 -0.0631 -0.7480 -0.4775
11842SOL     OW36741   4.720   4.893   4.973  0.0012 -0.2671  0.7008
11842SOL    HW136742   4.683   4.826   4.916 -0.7049  0.0956  0.7069
11842SOL    HW236743   4.643   4.943   5.003  0.5401  0.7700  0.3924
11843SOL     OW36744   4.866   4.163   4.184  0.2265  0.0224  0.1299
11843SOL    HW136745   4.858   4.220   4.261  0.0560 -2.1751  1.8337
11843SOL    HW236746   4.782   4.119   4.177  0.8383 -1.1417 -0.2072
11844SOL     OW36747   4.240   5.408   4.196  0.6230  0.3682  0.6539
11844SOL    HW136748   4.251   5.381   4.105 -0.6292  0.0246  0.5982
11844SOL    HW236749   4.301   5.353   4.245 -1.5430 -2.3673  0.5036
11845SOL     OW36750   3.817   5.198   4.204 -0.2421 -0.4586  0.1511
11845SOL    HW136751   3.849   5.108   4.215 -0.2455 -0.9418 -2.8351
11845SOL    HW236752   3.896   5.250   4.189 -0.4077 -0.5330 -1.0730
11846SOL     OW36753   4.413   5.394   5.228 -0.1400  0.5933 -0.1907
11846SOL    HW136754   4.382   5.377   5.139  0.5859 -1.9117 -0.0580
11846SOL    HW236755   4.392   5.313   5.276  1.4242  1.0248  1.3348
11847SOL     OW36756   5.644   5.704   3.762 -0.2641 -0.0769  0.7983
11847SOL    HW136757   5.733   5.682   3.789 -0.0084 -1.3030 -0.8473
11847SOL    HW236758   5.590   5.633   3.796 -0.4979  0.2451  1.1076
11848SOL     OW36759   3.535   5.300   4.155  0.7530 -0.4856  0.4187
11848SOL    HW136760   3.523   5.230   4.092  1.8290  1.2498 -1.8495
11848SOL    HW236761   3.616   5.278   4.200  0.0348 -1.6799  1.1872
11849SOL     OW36762   5.015   4.745   5.391 -0.4724 -0.9883 -0.2714
11849SOL    HW136763   5.004   4.746   5.296 -0.4699  4.0543 -0.4388
11849SOL    HW236764   5.108   4.722   5.404 -0.4442 -1.6098 -1.4312
11850SOL     OW36765   4.985   3.740   4.094  0.4418  0.5993  0.6258
11850SOL    HW136766   4.901   3.758   4.136  0.4664  0.1171  0.8835
11850SOL    HW236767   4.962   3.722   4.003  0.1805 -0.2389  0.8442
11851SOL     OW36768   5.125   5.303   5.324  0.2365  0.0904  0.0490
11851SOL    HW136769   5.156   5.246   5.394  1.3385 -0.4596 -0.8605
11851SOL    HW236770   5.058   5.252   5.279  0.4608 -0.0705 -0.1030
11852SOL     OW36771   5.296   5.648   4.100 -0.5186 -0.1557 -0.5194
11852SOL    HW136772   5.368   5.695   4.058  0.5044 -0.3287  0.9529
11852SOL    HW236773   5.217   5.684   4.060  0.3143  1.2152 -1.0060
11853SOL     OW36774   5.229   5.432   4.250  0.1015  0.6514 -0.1374
11853SOL    HW136775   5.223   5.511   4.197  0.0799  1.1211  0.5496
11853SOL    HW236776   5.207   5.461   4.338  1.1605  0.1085  0.3292
11854SOL     OW36777   4.433   4.602   5.250  0.1108 -0.6711 -0.0375
11854SOL    HW136778   4.415   4.568   5.163 -1.2228 -1.5992  0.5588
11854SOL    HW236779   4.379   4.681   5.257  0.2606 -0.5655 -0.0698
11855SOL     OW36780   4.455   4.035   4.596  0.6204  0.8477 -0.1699
11855SOL    HW136781   4.529   4.090   4.621 -0.4703  2.5098 -0.3730
11855SOL    HW236782   4.402   4.028   4.676  1.3368 -0.9729  0.1859
11856SOL     OW36783   4.840   4.355   4.382 -0.1184 -0.4499 -0.2531
11856SOL    HW136784   4.776   4.374   4.450  1.0483 -0.3821  0.8629
11856SOL    HW236785   4.893   4.435   4.375  1.5119 -1.3677  0.7663
11857SOL     OW36786   4.187   5.581   5.267  0.2603 -0.2610  0.1243
11857SOL    HW136787   4.139   5.576   5.184  0.6583 -0.3232 -0.1047
11857SOL    HW236788   4.240   5.501   5.268  1.6329  0.5962 -0.4253
11858SOL     OW36789   4.440   4.330   4.325 -0.6313  0.6142  0.1801
11858SOL    HW136790   4.441   4.379   4.242  1.4147  0.4387  0.0427
11858SOL    HW236791   4.457   4.397   4.392 -1.5400  0.6372  0.4021
11859SOL     OW36792   4.929   5.365   4.825 -0.7715  0.7812  0.1923
11859SOL    HW136793   4.930   5.272   4.801 -0.6294  0.9523 -0.4812
11859SOL    HW236794   4.837   5.389   4.825 -0.9145  0.3180  1.6774
11860SOL     OW36795   4.299   4.830   5.174 -0.0258  0.6994 -0.1096
11860SOL    HW136796   4.238   4.880   5.227  0.9006  1.9856 -0.2159
11860SOL    HW236797   4.318   4.887   5.099  0.5001 -0.1081 -0.6033
11861SOL     OW36798   5.046   5.566   3.938  0.7346 -0.1123  0.2432
11861SOL    HW136799   4.988   5.498   3.972  2.2893 -0.9376  1.3769
11861SOL    HW236800   5.108   5.518   3.882  0.3370  0.7599 -1.0017
11862SOL     OW36801   5.000   5.180   3.571  0.4210  0.1994 -0.4397
11862SOL    HW136802   5.015   5.094   3.610  1.9155  0.7831  0.3592
11862SOL    HW236803   4.943   5.225   3.634  1.8084  0.6994  0.4979
11863SOL     OW36804   4.366   5.411   3.937 -0.8258 -0.7817 -0.2545
11863SOL    HW136805   4.376   5.475   3.866  2.9176 -2.2935 -1.3500
11863SOL    HW236806   4.321   5.337   3.895 -0.4629 -0.8680 -0.5006
11864SOL     OW36807   5.076   3.712   4.411  0.8048  0.0101 -0.0346
11864SOL    HW136808   5.115   3.779   4.355  2.9772  0.3627  1.7533
11864SOL    HW236809   4.998   3.754   4.449  1.0809  0.8426 -0.3787
11865SOL     OW36810   5.101   3.660   5.575 -0.0524 -0.7973  0.1955
11865SOL    HW136811   5.146   3.582   5.543 -0.7985 -0.9315 -0.5873
11865SOL    HW236812   5.025   3.669   5.517 -1.2273 -0.7918  1.6687
11866SOL     OW36813   4.591   3.911   3.689  0.0623  0.3906 -0.5027
11866SOL    HW136814   4.681   3.919   3.721 -0.0752 -0.2014  0.0655
11866SOL    HW236815   4.577   3.989   3.636  1.2448  0.0216 -1.4164
11867SOL     OW36816   4.821   4.296   4.749  0.3223 -0.3424  0.3980
11867SOL    HW136817   4.765   4.245   4.808  0.9538 -1.2435  0.2260
11867SOL    HW236818   4.760   4.355   4.704 -0.3486 -0.5964  0.9550
11868SOL     OW36819   3.768   3.605   3.978  0.7999  0.4519  0.0480
11868SOL    HW136820   3.746   3.695   4.003  2.0239  0.6803  0.3966
11868SOL    HW236821   3.862   3.598   3.995  0.6630 -1.0022  0.3463
11869SOL     OW36822   4.398   3.865   4.167 -0.3019 -0.3648 -0.5623
11869SOL    HW136823   4.376   3.823   4.250 -0.1399  0.9662  0.1790
11869SOL    HW236824   4.426   3.953   4.191  1.8350 -0.6328 -1.8516
11870SOL     OW36825   4.800   5.358   3.997 -0.5310  0.6210  0.1408
11870SOL    HW136826   4.721   5.385   4.044 -1.7974 -1.5531 -0.6555
11870SOL    HW236827   4.849   5.305   4.060 -0.4582  0.6825  0.1373
11871SOL     OW36828   5.039   4.580   4.316 -0.3467  0.5949  0.4887
11871SOL    HW136829   5.107   4.544   4.259 -0.5404 -4.1809  2.8312
11871SOL    HW236830   5.088   4.619   4.389 -0.0801  0.1291  0.5636
11872SOL     OW36831   4.972   4.181   4.996 -0.5142  0.3584  0.2951
11872SOL    HW136832   5.041   4.147   5.053 -0.9782 -0.5741  0.3073
11872SOL    HW236833   4.994   4.147   4.910 -0.5754  0.6474  0.1644
11873SOL     OW36834   4.289   4.104   4.287 -0.9500 -0.2547  0.0082
11873SOL    HW136835   4.349   4.177   4.301  1.5895 -2.1990 -0.0013
11873SOL    HW236836   4.206   4.145   4.262  0.4496  2.5793 -0.3466
11874SOL     OW36837   5.710   4.836   5.611 -0.0750  0.3123 -0.0885
11874SOL    HW136838   5.644   4.782   5.568  0.7945 -1.5378  0.7715
11874SOL    HW236839   5.767   4.865   5.540 -0.7970  0.4569 -0.6199
11875SOL     OW36840   4.601   4.704   4.835 -0.5503  1.0317 -0.0667
11875SOL    HW136841   4.541   4.648   4.885 -1.3332  2.0000  0.1024
11875SOL    HW236842   4.546   4.740   4.765  0.2767  0.5306 -0.9973
11876SOL     OW36843   5.539   5.235   5.763  0.2988 -0.2516 -0.3789
11876SOL    HW136844   5.612   5.239   5.700  0.4019 -1.0652 -0.3197
11876SOL    HW236845   5.464   5.269   5.714  1.1113  2.6569  0.2043
11877SOL     OW36846   4.856   4.759   4.403  0.8212 -0.5299  0.9099
11877SOL    HW136847   4.762   4.774   4.393  0.6213 -2.1213  0.0890
11877SOL    HW236848   4.879   4.701   4.330  2.5353  0.1826  0.8405
11878SOL     OW36849   5.321   4.878   4.520 -0.2704  0.2429  0.1756
11878SOL    HW136850   5.286   4.793   4.547 -1.1280  0.3285 -0.5846
11878SOL    HW236851   5.247   4.938   4.530 -0.1958  0.5499 -0.9291
11879SOL     OW36852   4.388   4.708   5.711  0.1099  0.4549 -0.4082
11879SOL    HW136853   4.303   4.668   5.729  0.5178  0.6003  2.0920
11879SOL    HW236854   4.419   4.663   5.632 -1.2479 -1.2484 -0.0181
11880SOL     OW36855   4.787   3.937   4.729  0.3187  0.7725  0.5880
11880SOL    HW136856   4.844   3.908   4.800  0.9679  1.3306  0.2956
11880SOL    HW236857   4.733   4.005   4.768 -3.2969 -2.5712  2.1684
11881SOL     OW36858   4.877   5.093   4.750 -0.2530  0.2477 -0.0753
11881SOL    HW136859   4.933   5.070   4.824 -0.0302  0.3661 -0.2044
11881SOL    HW236860   4.914   5.043   4.677 -1.3897 -1.0651  0.2062
11882SOL     OW36861   5.044   4.481   4.704  0.0093  0.6669 -0.0144
11882SOL    HW136862   4.998   4.525   4.776 -0.0801  0.4610  0.0529
11882SOL    HW236863   4.985   4.411   4.676  0.1405  0.6065 -0.1438
11883SOL     OW36864   4.717   3.806   4.178 -0.3727 -0.2874 -0.3364
11883SOL    HW136865   4.724   3.888   4.227  0.5649 -0.3504 -0.3443
11883SOL    HW236866   4.626   3.779   4.188  0.0138 -0.8211  2.2136
11884SOL     OW36867   4.664   4.439   4.579 -0.5510 -0.0342 -0.6201
11884SOL    HW136868   4.588   4.441   4.638 -0.3767  0.4776 -0.4030
11884SOL    HW236869   4.649   4.512   4.519 -1.5210 -1.5113 -2.2392
11885SOL     OW36870   4.356   4.464   4.666 -0.1971  0.0201  0.4123
11885SOL    HW136871   4.276   4.466   4.719  0.7389  2.3114  1.9160
11885SOL    HW236872   4.364   4.553   4.632  1.4229 -0.3202 -0.1648
11886SOL     OW36873   4.786   5.058   5.368 -0.7945 -0.2228 -0.7007
11886SOL    HW136874   4.772   4.963   5.362 -1.0326 -0.4315  1.7505
11886SOL    HW236875   4.856   5.067   5.433 -0.6614  1.2728 -1.0230
11887SOL     OW36876   5.780   5.207   5.335  0.2033 -0.0620  0.2833
11887SOL    HW136877   5.710   5.255   5.290 -0.2371  0.7710  1.7990
11887SOL    HW236878   5.789   5.126   5.285 -0.9488  0.3915 -0.7120
11888SOL     OW36879   4.110   4.811   5.471  0.5755 -0.4294 -0.4370
11888SOL    HW136880   4.167   4.859   5.531  3.3010 -1.7927 -1.7752
11888SOL    HW236881   4.102   4.724   5.510  0.9670 -0.8053 -1.1703
11889SOL     OW36882   3.821   5.526   4.687 -0.1920  0.4199 -0.7774
11889SOL    HW136883   3.877   5.528   4.764  1.9570  1.8638 -2.3038
11889SOL    HW236884   3.838   5.440   4.647 -1.4985 -0.4390  0.3818
11890SOL     OW36885   4.632   4.116   4.865 -0.1761 -0.3440 -0.4719
11890SOL    HW136886   4.605   4.067   4.942  1.8841  1.4858  1.5919
11890SOL    HW236887   4.555   4.168   4.841 -0.0819  1.2819  2.3059
11891SOL     OW36888   4.412   4.477   4.109 -0.3602 -0.4260 -0.0445
11891SOL    HW136889   4.430   4.558   4.062 -2.5508  0.4007  0.4598
11891SOL    HW236890   4.382   4.416   4.041  2.1043 -1.1793 -0.5659
11892SOL     OW36891   3.939   5.197   5.570  0.0247 -0.2937 -0.6843
11892SOL    HW136892   3.969   5.146   5.645 -1.0100  1.2365  0.8376
11892SOL    HW236893   3.882   5.137   5.522 -1.9821 -0.4216  1.6094
11893SOL     OW36894   4.361   4.623   4.933  0.0129 -0.1105  0.3335
11893SOL    HW136895   4.322   4.560   4.873 -1.7535 -0.1008  1.4023
11893SOL    HW236896   4.303   4.700   4.928  1.7710  1.2431 -0.4854
11894SOL     OW36897   4.707   4.802   5.234  0.0472  0.1128  0.4311
11894SOL    HW136898   4.749   4.824   5.151  0.4918  0.1640  0.6625
11894SOL    HW236899   4.621   4.768   5.210 -0.1365  0.8681 -0.0075
11895SOL     OW36900   4.268   4.301   3.963  0.2219  0.4153  0.0535
11895SOL    HW136901   4.319   4.225   3.936 -0.2479  0.7798 -1.9993
11895SOL    HW236902   4.186   4.265   3.996 -0.0915  0.0070 -1.1273
11896SOL     OW36903   4.037   4.979   5.260  0.1323  0.3651  0.0134
11896SOL    HW136904   3.954   5.015   5.291 -0.8659  0.9631 -2.9868
11896SOL    HW236905   4.062   4.915   5.327 -1.3118  2.0898  2.3419
11897SOL     OW36906   4.891   4.655   4.879 -0.2792  0.0843 -0.5158
11897SOL    HW136907   4.936   4.712   4.816 -0.0010  0.5154  0.0642
11897SOL    HW236908   4.799   4.681   4.875 -0.0439  1.1510  0.3172
11898SOL     OW36909   5.552   5.470   4.543 -0.9491  0.1334  0.4132
11898SOL    HW136910   5.458   5.487   4.537 -1.0857 -0.9280 -1.0459
11898SOL    HW236911   5.576   5.437   4.456  0.4311 -1.2151  1.2445
11899SOL     OW36912   5.030   5.602   4.719  0.0204 -0.0541 -0.4318
11899SOL    HW136913   5.022   5.680   4.774 -1.4966  1.1197 -2.1620
11899SOL    HW236914   5.016   5.528   4.778  0.4485  1.0265  1.0746
11900SOL     OW36915   4.341   5.158   5.665  0.4377  0.1955 -0.1617
11900SOL    HW136916   4.391   5.082   5.636  3.7301  1.9738  0.3867
11900SOL    HW236917   4.376   5.179   5.751  0.4326  2.9191 -0.7279
11901SOL     OW36918   5.140   4.175   4.159  0.5004  0.0732  0.8728
11901SOL    HW136919   5.167   4.118   4.087  0.5461 -0.3356  1.2144
11901SOL    HW236920   5.044   4.174   4.155  0.5064  0.7968  0.2367
11902SOL     OW36921   4.207   5.477   5.623  0.2157 -0.3442 -0.4007
11902SOL    HW136922   4.240   5.443   5.539 -0.5006  1.0899 -1.2973
11902SOL    HW236923   4.212   5.402   5.682  2.2196 -0.9897 -1.2842
11903SOL     OW36924   5.241   4.598   4.576  0.0964 -0.7212  0.0126
11903SOL    HW136925   5.262   4.544   4.500 -0.3788 -2.0862  0.8127
11903SOL    HW236926   5.170   4.552   4.620 -0.4190  0.6318  0.6744
11904SOL     OW36927   4.588   5.158   4.814  0.3905  0.4117 -0.5938
11904SOL    HW136928   4.667   5.138   4.763  1.5718  2.1362  0.4185
11904SOL    HW236929   4.600   5.249   4.840 -1.7398  0.5534  0.0109
11905SOL     OW36930   5.724   5.734   5.207 -0.0845 -0.2240  0.3453
11905SOL    HW136931   5.818   5.730   5.188 -0.1322 -0.7941  0.2031
11905SOL    HW236932   5.682   5.736   5.122 -0.2332 -0.9975  0.3902
11906SOL     OW36933   5.061   4.201   4.692  0.1954 -0.4630  0.2657
11906SOL    HW136934   4.974   4.228   4.722 -0.7051 -0.4005 -2.1747
11906SOL    HW236935   5.048   4.173   4.601  2.5942 -1.2298  0.0798
11907SOL     OW36936   4.762   5.228   3.705  0.4882  0.1982  0.0703
11907SOL    HW136937   4.703   5.160   3.671  1.2013  0.1341 -1.1038
11907SOL    HW236938   4.784   5.198   3.793  2.3244 -2.2025 -1.0645
11908SOL     OW36939   4.431   4.245   4.779 -0.0988 -0.3197  0.3202
11908SOL    HW136940   4.351   4.221   4.825 -0.1196  0.2144  0.5780
11908SOL    HW236941   4.412   4.331   4.742 -0.8403 -1.5866 -2.4967
11909SOL     OW36942   5.507   5.460   3.835  0.0479 -0.4384  0.2306
11909SOL    HW136943   5.426   5.506   3.855  1.3444  1.5166  1.3176
11909SOL    HW236944   5.482   5.368   3.830 -3.0535  0.3325 -3.8430
11910SOL     OW36945   4.237   5.131   5.089  0.2242  0.7370 -0.1891
11910SOL    HW136946   4.202   5.217   5.064  1.4115  1.8697  1.7381
11910SOL    HW236947   4.186   5.106   5.166  0.2881 -0.0024 -0.3822
11911SOL     OW36948   4.961   5.156   5.199 -0.1770 -0.2715  0.2932
11911SOL    HW136949   4.981   5.104   5.121 -1.1255  0.5798 -0.5357
11911SOL    HW236950   4.886   5.112   5.239  0.7658 -1.1439  1.1830
11912SOL     OW36951   4.979   4.796   4.663 -0.2171  0.6924 -0.4637
11912SOL    HW136952   5.040   4.854   4.617  1.6902 -1.8884 -1.4456
11912SOL    HW236953   4.929   4.753   4.594  1.3026 -1.7733 -0.1823
11913SOL     OW36954   4.466   3.744   4.492  0.6348 -0.0585 -0.0136
11913SOL    HW136955   4.528   3.700   4.550 -1.3773 -0.4015  1.9821
11913SOL    HW236956   4.434   3.819   4.543 -0.5829  0.1210 -1.0063
11914SOL     OW36957   3.679   4.824   5.632  0.2370 -0.2836  0.1350
11914SOL    HW136958   3.620   4.751   5.652 -1.2014  0.7757 -0.0191
11914SOL    HW236959   3.708   4.809   5.543  0.0517 -0.7388  0.1501
11915SOL     OW36960   3.744   3.955   3.797  0.0497 -0.5716 -0.2335
11915SOL    HW136961   3.719   3.923   3.883  0.2023 -3.6687 -1.2080
11915SOL    HW236962   3.836   3.932   3.789  0.3335  0.6649 -0.8733
11916SOL     OW36963   5.027   4.683   5.127  0.3409  0.0813  0.1286
11916SOL    HW136964   5.109   4.635   5.144  0.5862 -0.3164 -1.9546
11916SOL    HW236965   4.994   4.645   5.046 -2.0023  0.1690  0.9709
11917SOL     OW36966   4.177   4.572   5.575  0.1221  0.1100  0.2595
11917SOL    HW136967   4.171   4.542   5.484 -0.0740  0.1958  0.2416
11917SOL    HW236968   4.210   4.497   5.624  1.8553  0.5645 -0.1447
11918SOL     OW36969   5.240   5.522   4.576 -0.4441 -0.5295 -0.2917
11918SOL    HW136970   5.175   5.550   4.639  0.3755 -0.6230  0.6169
11918SOL    HW236971   5.207   5.438   4.543 -1.4916  0.1082 -0.9417
11919SOL     OW36972   4.967   4.945   5.011 -0.0821 -0.3764  0.1789
11919SOL    HW136973   4.880   4.929   4.973 -0.6815 -0.6672  1.5946
11919SOL    HW236974   4.982   4.871   5.070  0.5078  0.3515  0.9841
11920SOL     OW36975   5.139   3.978   4.340 -0.0131  0.2319  0.1356
11920SOL    HW136976   5.132   4.044   4.271  1.4158 -1.4240 -1.6865
11920SOL    HW236977   5.051   3.974   4.378 -0.1695  3.0518  0.2553
11921SOL     OW36978   4.587   4.595   4.365 -0.0281  0.4846 -0.4228
11921SOL    HW136979   4.587   4.559   4.276 -0.6634  0.3875 -0.3869
11921SOL    HW236980   4.521   4.665   4.363 -0.9008 -0.2952  0.2762
11922SOL     OW36981   5.450   5.258   4.407 -0.1995 -0.5545  0.1214
11922SOL    HW136982   5.364   5.253   4.450 -0.5737  0.6921 -0.4106
11922SOL    HW236983   5.429   5.271   4.314  0.5509  0.0262  0.0233
11923SOL     OW36984   4.802   4.787   5.553  0.0911  0.0289  0.3449
11923SOL    HW136985   4.845   4.860   5.597  0.5817  0.0944 -0.2342
11923SOL    HW236986   4.869   4.751   5.495 -0.2446 -0.6875  0.3962
11924SOL     OW36987   5.396   3.600   4.620 -0.1815 -0.1179  0.0584
11924SOL    HW136988   5.460   3.629   4.555 -0.8029 -0.2950 -0.6366
11924SOL    HW236989   5.342   3.677   4.637 -0.1418 -0.1257  0.2192
11925SOL     OW36990   4.042   4.210   4.073 -0.1842 -0.0673  0.3628
11925SOL    HW136991   3.996   4.256   4.143  1.6979  1.1121  0.9079
11925SOL    HW236992   4.005   4.122   4.073 -0.9344  0.2188  2.1551
11926SOL     OW36993   5.256   5.262   4.783 -0.2504  0.5108  0.8658
11926SOL    HW136994   5.174   5.273   4.832 -0.3498  1.6565  0.4767
11926SOL    HW236995   5.229   5.262   4.691 -0.1195 -2.1265  0.7610
11927SOL     OW36996   4.590   4.048   4.342  0.3877  0.0517  0.3489
11927SOL    HW136997   4.539   4.009   4.414  1.1589  0.3646  1.0807
11927SOL    HW236998   4.549   4.133   4.328 -1.1056 -0.8466 -1.0432
11928SOL     OW36999   5.153   3.924   4.764  0.3142  0.6216  0.4021
11928SOL    HW137000   5.085   3.875   4.810  0.5770  0.5296  0.6942
11928SOL    HW237001   5.110   4.006   4.738  0.5915  1.3984  2.2352
11929SOL     OW37002   3.685   4.400   5.757 -0.1278 -0.0772  0.4697
11929SOL    HW137003   3.630   4.454   5.699  0.2537 -0.4778 -0.2836
11929SOL    HW237004   3.757   4.457   5.781 -0.1923  0.0351  0.3999
11930SOL     OW37005   4.141   4.610   6.190 -0.1676  0.4762 -0.0139
11930SOL    HW137006   4.229   4.645   6.176 -0.5562  2.0338  1.1165
11930SOL    HW237007   4.116   4.574   6.105  2.0768 -1.3256 -0.0206
11931SOL     OW37008   3.805   3.992   6.235  0.4330 -0.2593  0.0687
11931SOL    HW137009   3.847   4.052   6.174  0.2398  0.5929  0.7484
11931SOL    HW237010   3.833   3.905   6.206 -0.0063  0.0911 -1.4736
11932SOL     OW37011   5.414   4.884   6.522  0.6786 -0.2482 -0.0410
11932SOL    HW137012   5.408   4.842   6.436  2.0813 -1.2837  0.3254
11932SOL    HW237013   5.325   4.881   6.557  0.3255 -0.9080 -0.9600
11933SOL     OW37014   5.482   3.832   5.726  0.4776 -0.9850  0.2547
11933SOL    HW137015   5.478   3.916   5.680  2.6914 -0.1544  1.4474
11933SOL    HW237016   5.469   3.767   5.657 -0.2543  0.2753 -0.8693
11934SOL     OW37017   4.758   4.256   7.466  0.3361  0.0366 -0.1117
11934SOL    HW137018   4.808   4.243   7.385 -1.6689 -0.1949 -1.3755
11934SOL    HW237019   4.707   4.336   7.450  0.8153  0.6921  1.4363
11935SOL     OW37020   3.987   4.014   7.591  0.1137  0.4640 -0.3296
11935SOL    HW137021   3.995   4.005   7.686 -0.7488 -1.5017 -0.3766
11935SOL    HW237022   3.976   4.108   7.576  2.2310  1.0389  1.3121
11936SOL     OW37023   3.906   4.253   6.736 -0.0227 -0.0742 -0.4325
11936SOL    HW137024   3.827   4.258   6.681 -0.8387 -0.1767  0.7021
11936SOL    HW237025   3.962   4.323   6.703 -0.5469 -0.0443 -1.3056
11937SOL     OW37026   4.245   5.475   7.344 -0.8170 -0.0681  0.3834
11937SOL    HW137027   4.154   5.445   7.355 -1.1874 -0.2332 -2.5209
11937SOL    HW237028   4.237   5.564   7.311  0.1677  0.5441  1.7127
11938SOL     OW37029   4.382   4.709   6.092 -0.5655 -0.6040  0.0377
11938SOL    HW137030   4.420   4.654   6.024 -1.2557 -2.4114  1.0248
11938SOL    HW237031   4.457   4.757   6.129  0.3471 -2.0565  0.1586
11939SOL     OW37032   4.981   3.862   7.070 -0.5608  0.2637  0.1311
11939SOL    HW137033   5.042   3.927   7.034 -1.2721  1.1924  0.5383
11939SOL    HW237034   4.895   3.890   7.037 -0.7505 -1.1949 -0.6894
11940SOL     OW37035   4.498   4.880   5.883  0.3966 -0.3724 -0.1655
11940SOL    HW137036   4.453   4.821   5.822  1.0127 -0.5104 -0.4978
11940SOL    HW237037   4.547   4.940   5.826  0.1441  0.1671  0.1785
11941SOL     OW37038   5.628   4.900   6.106  0.0829 -0.1879 -0.0625
11941SOL    HW137039   5.669   4.986   6.115  1.3821 -0.4005 -2.8514
11941SOL    HW237040   5.646   4.874   6.016 -2.2637 -2.4067 -0.0173
11942SOL     OW37041   3.888   5.292   5.870 -0.6744  0.3947  0.6339
11942SOL    HW137042   3.966   5.259   5.826 -1.0955  2.3777 -1.8164
11942SOL    HW237043   3.899   5.266   5.961  1.0042 -2.6367 -0.3061
11943SOL     OW37044   5.504   4.391   5.957 -0.3209  0.1844  0.4591
11943SOL    HW137045   5.520   4.474   5.912  0.5663  0.3700  1.0865
11943SOL    HW237046   5.410   4.376   5.948 -0.8283  2.1138  1.7613
11944SOL     OW37047   5.384   4.815   6.242 -0.4687 -0.4181  0.4023
11944SOL    HW137048   5.455   4.825   6.178 -1.3102 -1.2393 -0.7030
11944SOL    HW237049   5.339   4.900   6.240 -1.0429 -0.7277 -0.8131
11945SOL     OW37050   3.859   4.507   6.400  0.3551 -0.2970 -0.3136
11945SOL    HW137051   3.923   4.437   6.396  0.9741 -0.1773  3.7157
11945SOL    HW237052   3.906   4.580   6.440 -1.6683  0.5426  0.6632
11946SOL     OW37053   4.688   5.688   7.169 -0.2084  0.1837  0.5104
11946SOL    HW137054   4.633   5.761   7.139  2.3530  1.8081 -0.5164
11946SOL    HW237055   4.625   5.622   7.199 -2.6515  2.7062  1.3572
11947SOL     OW37056   3.820   4.016   7.149  0.4709 -0.7361 -0.0215
11947SOL    HW137057   3.870   4.098   7.146 -0.6100  0.0354  1.4684
11947SOL    HW237058   3.817   3.993   7.242 -0.9450 -1.3717 -0.1944
11948SOL     OW37059   5.133   4.943   6.558  0.2213  0.8180 -0.1523
11948SOL    HW137060   5.082   4.870   6.595  1.7894  0.7674  2.0923
11948SOL    HW237061   5.075   4.981   6.492 -0.9241 -2.0191 -0.9568
11949SOL     OW37062   5.540   5.394   6.297 -0.6416 -0.0368  0.4005
11949SOL    HW137063   5.500   5.393   6.210  0.6007  1.8017 -0.2548
11949SOL    HW237064   5.467   5.380   6.357 -1.9842  1.2888 -0.8318
11950SOL     OW37065   4.482   4.528   5.909  0.1828 -0.3078 -0.1803
11950SOL    HW137066   4.563   4.479   5.918 -1.0135 -2.7184 -1.4125
11950SOL    HW237067   4.497   4.587   5.836  0.7514 -0.8817 -0.5329
11951SOL     OW37068   5.393   5.404   6.066 -0.2520 -0.3323  0.0669
11951SOL    HW137069   5.459   5.340   6.037 -0.2798 -0.2232 -0.2469
11951SOL    HW237070   5.318   5.388   6.008 -0.8083 -0.9905  0.9406
11952SOL     OW37071   4.592   3.808   7.392  0.4705  0.2997 -0.1428
11952SOL    HW137072   4.561   3.820   7.303  1.6654  0.2209 -0.5799
11952SOL    HW237073   4.590   3.896   7.430  2.2134  0.7403 -1.0087
11953SOL     OW37074   5.417   4.220   7.174  0.1764 -0.1459  0.1562
11953SOL    HW137075   5.356   4.292   7.158 -0.0002 -0.5227 -0.9679
11953SOL    HW237076   5.401   4.159   7.102 -0.2547 -1.7207  1.5194
11954SOL     OW37077   4.222   4.765   7.410 -0.1284  0.2300 -0.4755
11954SOL    HW137078   4.192   4.774   7.319  0.8635  0.7884 -0.7632
11954SOL    HW237079   4.281   4.690   7.408  0.9893  1.0834 -0.6105
11955SOL     OW37080   4.765   3.802   6.855  0.0575  0.3315  0.3872
11955SOL    HW137081   4.820   3.879   6.842  1.5549 -0.7479  0.1330
11955SOL    HW237082   4.761   3.760   6.769  1.9993 -1.6142  1.1555
11956SOL     OW37083   3.526   5.454   7.413  0.4138  0.8006 -0.3779
11956SOL    HW137084   3.545   5.469   7.506  1.2685  0.5099 -0.4942
11956SOL    HW237085   3.434   5.479   7.403  0.3979  1.1337  0.4784
11957SOL     OW37086   5.160   4.539   7.391  0.0134  0.1559  0.2650
11957SOL    HW137087   5.206   4.541   7.307 -1.5801 -0.4520 -0.6712
11957SOL    HW237088   5.183   4.453   7.429  1.7883  0.9574  1.1241
11958SOL     OW37089   4.133   3.662   6.490 -0.4609  0.0702 -0.0259
11958SOL    HW137090   4.151   3.736   6.432 -0.3321  1.4942  1.7411
11958SOL    HW237091   4.209   3.604   6.480  0.1457  0.9044 -0.3472
11959SOL     OW37092   5.764   4.447   6.221  0.2802 -0.0381 -0.0424
11959SOL    HW137093   5.717   4.430   6.139  1.5435  1.1592 -1.0687
11959SOL    HW237094   5.706   4.507   6.269  0.4219  0.8773 -0.9831
11960SOL     OW37095   3.710   4.938   5.862  0.0003  0.1095  0.4561
11960SOL    HW137096   3.686   4.901   5.776 -2.9574 -0.8708  1.5839
11960SOL    HW237097   3.754   4.866   5.907  2.0628  0.7948 -0.3446
11961SOL     OW37098   3.846   4.622   7.356 -0.1442 -0.2503  0.2563
11961SOL    HW137099   3.911   4.553   7.342 -0.8100 -1.4267  2.4892
11961SOL    HW237100   3.762   4.577   7.348 -0.6513  0.7270 -0.1153
11962SOL     OW37101   3.854   3.686   7.162 -0.4309 -0.1811 -0.5116
11962SOL    HW137102   3.847   3.725   7.075 -0.4659 -0.0068 -0.4301
11962SOL    HW237103   3.831   3.756   7.222 -0.0034 -0.1875 -0.3420
11963SOL     OW37104   3.683   5.449   7.187  0.1541  0.3137  0.2326
11963SOL    HW137105   3.628   5.445   7.266  1.3607 -1.2616  1.0623
11963SOL    HW237106   3.676   5.361   7.150 -0.0772  0.9282 -1.2142
11964SOL     OW37107   4.250   4.114   6.152 -0.1437  0.4273 -0.1350
11964SOL    HW137108   4.286   4.079   6.070  2.0129  0.3196  0.7835
11964SOL    HW237109   4.261   4.209   6.144  0.7389  0.3710  0.2925
11965SOL     OW37110   5.383   4.024   7.424 -0.3551  0.4995  0.2552
11965SOL    HW137111   5.369   3.937   7.388 -1.6346  1.3421 -1.3888
11965SOL    HW237112   5.477   4.040   7.412  0.4250 -1.5014  2.7471
11966SOL     OW37113   4.323   4.069   7.530 -0.0526  0.2549 -0.2452
11966SOL    HW137114   4.417   4.078   7.512 -0.2313 -0.3589 -1.6398
11966SOL    HW237115   4.297   4.153   7.567  1.4187 -0.2026  2.0113
11967SOL     OW37116   5.059   4.292   7.027  0.0231 -0.0617 -0.2780
11967SOL    HW137117   5.101   4.216   6.987  0.8933  0.4614 -0.3863
11967SOL    HW237118   5.131   4.339   7.069 -0.0301  2.0105 -2.3061
11968SOL     OW37119   4.675   4.237   7.019 -0.2890 -0.0580  0.3580
11968SOL    HW137120   4.666   4.307   6.954 -1.9643  0.0506  0.6729
11968SOL    HW237121   4.606   4.174   6.996 -2.0149  0.7525  2.9515
11969SOL     OW37122   5.283   5.307   6.352 -0.2495 -0.4902  0.1816
11969SOL    HW137123   5.312   5.230   6.302 -0.0400 -0.7117  0.6451
11969SOL    HW237124   5.188   5.303   6.350 -0.2432 -0.5060 -0.1864
11970SOL     OW37125   4.936   5.148   6.500 -0.3826  0.4191  0.0137
11970SOL    HW137126   4.942   5.183   6.588 -1.9123  1.2723 -0.1851
11970SOL    HW237127   4.844   5.122   6.490 -0.2681  0.4361 -1.3536
11971SOL     OW37128   3.650   4.212   6.608  0.0011 -0.2775 -0.4016
11971SOL    HW137129   3.588   4.284   6.619 -0.3752 -0.5018 -1.0428
11971SOL    HW237130   3.638   4.183   6.518  1.8058  0.3748 -0.8998
11972SOL     OW37131   4.503   4.018   6.587  0.4866  0.0397 -0.5961
11972SOL    HW137132   4.535   3.929   6.575 -0.9955 -0.4185 -1.3731
11972SOL    HW237133   4.490   4.051   6.498  1.1000  1.0835 -0.3235
11973SOL     OW37134   5.583   3.822   5.983  0.6418 -0.1472 -0.3087
11973SOL    HW137135   5.552   3.837   5.894 -1.0039  0.2577  0.2789
11973SOL    HW237136   5.542   3.892   6.034 -0.0661 -1.5032  1.0740
11974SOL     OW37137   4.323   5.023   6.035 -0.1560 -0.7777  0.0659
11974SOL    HW137138   4.376   4.952   5.999 -2.3999 -2.2423 -0.5389
11974SOL    HW237139   4.325   5.091   5.969  0.6123 -0.9901 -0.1360
11975SOL     OW37140   5.341   5.089   6.177  0.0956  0.3118  0.1717
11975SOL    HW137141   5.268   5.090   6.115 -1.0102  0.3706  1.4126
11975SOL    HW237142   5.419   5.099   6.123 -0.5344 -2.7975 -1.5428
11976SOL     OW37143   5.250   5.282   7.213  0.0257 -0.4179  0.2485
11976SOL    HW137144   5.245   5.193   7.249 -2.1671 -0.7018 -0.6176
11976SOL    HW237145   5.248   5.270   7.119  1.4075  0.5258  0.0657
11977SOL     OW37146   4.362   3.681   7.116 -0.2785 -0.0222  0.1318
11977SOL    HW137147   4.292   3.703   7.178  0.2067 -0.0910  0.7172
11977SOL    HW237148   4.401   3.765   7.092 -1.0388  0.0782 -0.7742
11978SOL     OW37149   4.358   4.365   6.161 -0.1633 -0.3955 -0.2717
11978SOL    HW137150   4.446   4.401   6.150  1.5840 -3.6916  1.6390
11978SOL    HW237151   4.322   4.413   6.236  0.4638  0.1456 -0.3087
11979SOL     OW37152   4.281   4.075   7.170 -0.1905  0.4329  0.1495
11979SOL    HW137153   4.299   4.152   7.223 -1.3629 -0.2085  1.5417
11979SOL    HW237154   4.254   4.110   7.085 -3.1224  1.7179  1.4813
11980SOL     OW37155   3.604   5.183   7.142 -0.0335 -0.0799 -0.1342
11980SOL    HW137156   3.577   5.116   7.205 -1.6539  0.2017 -0.5003
11980SOL    HW237157   3.593   5.141   7.056  0.6784  0.0671 -0.3065
11981SOL     OW37158   4.071   4.962   6.165 -0.6499 -0.0537 -0.0614
11981SOL    HW137159   4.025   5.041   6.136 -0.6106 -0.1376 -0.3595
11981SOL    HW237160   4.159   4.971   6.130 -0.7694 -0.4353 -0.4823
11982SOL     OW37161   3.981   4.136   6.086 -0.1614  0.2269  0.9754
11982SOL    HW137162   3.951   4.147   5.996 -0.8008  0.1207  1.1722
11982SOL    HW237163   4.076   4.131   6.079 -0.0402  2.3364  0.5104
11983SOL     OW37164   5.344   4.265   6.211 -0.3086  0.5529  0.4499
11983SOL    HW137165   5.298   4.281   6.294 -1.5200  0.1945 -0.1234
11983SOL    HW237166   5.299   4.322   6.148  0.9797  1.2614  0.1307
11984SOL     OW37167   3.960   5.429   7.279  0.5492 -0.5631  0.2439
11984SOL    HW137168   4.014   5.362   7.238 -0.7991 -1.2822 -0.4106
11984SOL    HW237169   3.873   5.390   7.287 -1.2801  2.1682 -3.3139
11985SOL     OW37170   4.202   4.352   7.075  0.1506 -0.1825  0.1284
11985SOL    HW137171   4.256   4.359   6.996 -1.5516  2.6311 -0.9219
11985SOL    HW237172   4.120   4.314   7.044 -0.4544  0.7532  0.5810
11986SOL     OW37173   5.081   3.683   7.450 -1.0613  0.0100  0.4487
11986SOL    HW137174   5.031   3.665   7.371 -2.0520 -0.5074  1.1827
11986SOL    HW237175   5.021   3.729   7.508 -0.7328 -0.6974  1.3810
11987SOL     OW37176   3.572   3.385   7.239 -0.9631  0.0096 -0.8236
11987SOL    HW137177   3.625   3.401   7.161  0.4551 -0.9416 -0.1015
11987SOL    HW237178   3.558   3.472   7.276  1.2532  0.2190 -0.3437
11988SOL     OW37179   4.079   4.085   6.500 -0.0880  0.4115 -0.2398
11988SOL    HW137180   4.080   4.034   6.418  2.0050  1.3656 -0.8778
11988SOL    HW237181   4.092   4.176   6.472  1.0915  0.7119  1.1647
11989SOL     OW37182   4.628   4.269   6.698 -0.3307  0.0603 -0.0795
11989SOL    HW137183   4.604   4.178   6.714 -2.8992  0.8399  1.1010
11989SOL    HW237184   4.723   4.268   6.687 -0.4714 -3.0324 -2.3656
11990SOL     OW37185   5.161   3.814   5.795 -0.3365  0.3210 -0.3791
11990SOL    HW137186   5.150   3.745   5.729  3.1758 -0.0081 -0.7683
11990SOL    HW237187   5.137   3.895   5.749  1.4498  0.0309 -1.9332
11991SOL     OW37188   5.255   5.285   6.937  0.0090 -0.4760 -1.2043
11991SOL    HW137189   5.201   5.349   6.891 -0.4174 -1.1713 -1.6888
11991SOL    HW237190   5.282   5.223   6.869 -0.7330 -1.5922 -0.5233
11992SOL     OW37191   4.046   4.419   7.338 -0.0188 -0.0999 -0.2286
11992SOL    HW137192   4.087   4.382   7.416  2.6763 -0.2538 -1.5874
11992SOL    HW237193   4.117   4.423   7.273 -1.8431  1.1261 -2.3034
11993SOL     OW37194   5.247   3.877   6.034 -0.0858 -0.0579 -0.0837
11993SOL    HW137195   5.159   3.886   6.070 -0.1532 -1.2012  0.0647
11993SOL    HW237196   5.234   3.843   5.946  0.2344 -1.8486  0.5156
11994SOL     OW37197   3.975   4.769   6.328  0.2334 -0.2232  0.4756
11994SOL    HW137198   4.011   4.848   6.287 -0.4340 -0.6852 -1.1071
11994SOL    HW237199   4.021   4.697   6.286 -3.0016 -0.9056 -2.4073
11995SOL     OW37200   4.051   4.341   6.304 -0.2690  0.6023  0.1672
11995SOL    HW137201   4.108   4.385   6.241  0.5966 -0.6860 -0.0075
11995SOL    HW237202   3.992   4.288   6.251 -1.0828  1.2752  0.3821
11996SOL     OW37203   4.875   4.263   7.224 -0.5857 -0.1823  0.4466
11996SOL    HW137204   4.929   4.278   7.147  0.6237  2.6047  1.6963
11996SOL    HW237205   4.793   4.226   7.190  0.7133 -1.0881 -1.8835
11997SOL     OW37206   4.887   4.069   6.882  0.1738  0.0563  0.0618
11997SOL    HW137207   4.978   4.065   6.911  0.1726 -1.4268 -0.0501
11997SOL    HW237208   4.856   4.155   6.910  1.5717  0.5413  0.1890
11998SOL     OW37209   3.353   4.847   6.029 -0.2597  0.4587 -0.1978
11998SOL    HW137210   3.391   4.930   5.999 -1.3027  0.7427 -0.7792
11998SOL    HW237211   3.426   4.785   6.027  0.0756  0.8749 -1.7194
11999SOL     OW37212   4.452   4.367   7.202  0.5750  0.5656  0.1372
11999SOL    HW137213   4.528   4.357   7.145 -0.1359  0.2768 -0.7857
11999SOL    HW237214   4.382   4.395   7.144  0.4241  2.7828  1.2748
12000SOL     OW37215   3.590   4.298   5.997 -0.3324  0.1583 -0.0025
12000SOL    HW137216   3.609   4.337   5.912  1.7000  0.3810  0.5136
12000SOL    HW237217   3.564   4.208   5.977  1.0412 -0.0751 -0.8110
12001SOL     OW37218   3.812   4.267   7.333 -0.4738 -0.5569  0.6625
12001SOL    HW137219   3.867   4.271   7.254 -0.7343 -0.9233  0.4581
12001SOL    HW237220   3.870   4.295   7.404 -0.7465  1.6802  0.0916
12002SOL     OW37221   3.666   5.200   7.483 -0.6419  0.2882 -0.1901
12002SOL    HW137222   3.695   5.270   7.542 -1.7985  0.7214 -0.1171
12002SOL    HW237223   3.608   5.244   7.421 -0.1519 -0.3278 -1.1059
12003SOL     OW37224   4.387   4.303   6.874  0.1912  0.0087 -0.0905
12003SOL    HW137225   4.457   4.367   6.870 -1.1266  1.4371 -1.5657
12003SOL    HW237226   4.409   4.239   6.806 -0.3065  0.8897 -1.1044
12004SOL     OW37227   3.890   4.554   5.789  0.2261  0.1817 -0.1456
12004SOL    HW137228   3.897   4.639   5.834 -1.9083 -1.2134  3.2931
12004SOL    HW237229   3.977   4.516   5.796  0.7417  1.3189 -0.0786
12005SOL     OW37230   5.257   5.136   6.708  0.1019 -0.2433  0.4067
12005SOL    HW137231   5.225   5.058   6.664  2.0846  0.6551 -3.0545
12005SOL    HW237232   5.185   5.199   6.701 -0.1594 -0.6039 -0.2329
12006SOL     OW37233   4.641   5.181   6.833 -0.2722  0.4890  0.1520
12006SOL    HW137234   4.684   5.103   6.867 -0.9374 -1.1636 -2.4805
12006SOL    HW237235   4.575   5.147   6.772  0.0233  3.1329 -1.8007
12007SOL     OW37236   5.373   3.695   6.214 -0.0348 -0.6961  0.1082
12007SOL    HW137237   5.360   3.771   6.156  0.7370 -0.5991  0.0461
12007SOL    HW237238   5.285   3.659   6.226 -0.3591 -0.0458 -0.2103
12008SOL     OW37239   3.496   5.425   7.690  0.8137 -0.5757 -0.1594
12008SOL    HW137240   3.589   5.416   7.710  0.4857 -0.5738  1.4593
12008SOL    HW237241   3.456   5.346   7.728  0.0101 -0.0296  0.1439
12009SOL     OW37242   5.132   5.502   6.841  0.3762  0.4495  0.6251
12009SOL    HW137243   5.170   5.475   6.758 -1.2616 -1.1541  0.3389
12009SOL    HW237244   5.068   5.570   6.817  0.0243  0.1056  0.5682
12010SOL     OW37245   3.916   4.773   5.986 -0.4151 -0.3853  0.1570
12010SOL    HW137246   3.999   4.793   6.030 -0.3685 -1.6478  0.6836
12010SOL    HW237247   3.855   4.755   6.058 -0.6644 -1.2313 -0.2598
12011SOL     OW37248   5.234   5.352   5.845 -0.2883  0.4834  0.3123
12011SOL    HW137249   5.149   5.308   5.855  0.6103 -1.7268 -1.0773
12011SOL    HW237250   5.262   5.330   5.756  1.4173  1.8075  0.4735
12012SOL     OW37251   4.603   3.738   6.529 -0.7097 -0.1597  0.2406
12012SOL    HW137252   4.520   3.689   6.531 -1.4066  0.8987 -1.0010
12012SOL    HW237253   4.666   3.679   6.570 -2.1542 -0.8229  1.6281
12013SOL     OW37254   3.934   4.282   7.050 -0.6409 -0.2241 -0.4274
12013SOL    HW137255   3.905   4.250   6.964 -1.1981 -0.1888 -0.2548
12013SOL    HW237256   3.932   4.378   7.042 -2.9046 -0.1467  0.3169
12014SOL     OW37257   4.479   3.913   7.068 -0.0108  0.5107  0.5256
12014SOL    HW137258   4.447   3.920   6.978  0.4127  1.2247  0.4231
12014SOL    HW237259   4.436   3.986   7.114  0.3030  0.5672  0.7338
12015SOL     OW37260   4.996   5.332   6.321 -0.0863 -0.0146  0.0508
12015SOL    HW137261   4.984   5.275   6.397 -2.3782  0.3699  0.0540
12015SOL    HW237262   4.922   5.312   6.264  0.4248  1.2153 -1.1041
12016SOL     OW37263   4.137   3.784   7.244 -0.0902  0.1239  0.2030
12016SOL    HW137264   4.043   3.775   7.228 -0.0157 -0.6942  0.2225
12016SOL    HW237265   4.155   3.876   7.225 -0.6926  0.0378 -0.8358
12017SOL     OW37266   3.973   5.217   7.670 -0.3665  0.4645 -0.2248
12017SOL    HW137267   3.922   5.137   7.677  1.2482 -0.4778  1.3225
12017SOL    HW237268   4.034   5.201   7.598  1.3419 -0.5868  1.3655
12018SOL     OW37269   4.233   4.505   6.478 -0.1106 -0.5471  0.1412
12018SOL    HW137270   4.299   4.571   6.501  0.1758 -1.1680  1.2023
12018SOL    HW237271   4.194   4.536   6.397 -1.4023  1.9997  1.6003
12019SOL     OW37272   4.633   5.032   5.712  0.2088 -0.1390  0.0586
12019SOL    HW137273   4.680   5.115   5.710 -1.1303  0.7098 -3.7501
12019SOL    HW237274   4.683   4.974   5.655 -0.8209 -0.7401 -0.2700
12020SOL     OW37275   4.146   5.674   6.770  0.1342  0.1978  0.3802
12020SOL    HW137276   4.234   5.646   6.793  0.5066 -0.0984 -1.2545
12020SOL    HW237277   4.112   5.603   6.715  0.0768  1.6684 -1.6004
12021SOL     OW37278   5.954   5.102   6.534 -0.4191 -0.1021  0.2420
12021SOL    HW137279   5.892   5.131   6.601  0.2971  0.7935  0.5508
12021SOL    HW237280   5.968   5.009   6.552 -1.5849 -0.2925  0.2234
12022SOL     OW37281   3.499   4.541   7.433 -0.0157 -0.1893  0.4088
12022SOL    HW137282   3.536   4.537   7.345  0.3248  1.0489  0.4683
12022SOL    HW237283   3.521   4.457   7.473  2.2544  0.2716  0.2468
12023SOL     OW37284   5.627   4.005   6.617 -0.3226  0.2489  0.0217
12023SOL    HW137285   5.689   3.982   6.687 -0.6411 -0.4247  0.0892
12023SOL    HW237286   5.673   4.071   6.566  0.5326 -0.3677 -0.0356
12024SOL     OW37287   4.196   4.480   5.947  0.0076 -0.3281  0.0738
12024SOL    HW137288   4.183   4.437   5.862  1.2685 -0.7991  0.0811
12024SOL    HW237289   4.292   4.488   5.954 -0.0257 -1.1116  1.8278
12025SOL     OW37290   5.688   4.712   6.568  0.0593  0.1104  0.4315
12025SOL    HW137291   5.605   4.740   6.607  0.0011 -0.9979  1.1404
12025SOL    HW237292   5.735   4.670   6.640  1.2907  0.8142  0.0657
12026SOL     OW37293   4.087   4.425   6.681 -0.2208  0.1450  0.1465
12026SOL    HW137294   4.155   4.448   6.618 -1.9083  0.7462 -1.5545
12026SOL    HW237295   4.049   4.509   6.707 -0.9784 -0.2171  0.2556
12027SOL     OW37296   4.159   5.284   7.099 -0.5685 -0.1135 -0.4084
12027SOL    HW137297   4.229   5.220   7.110 -1.2496 -0.6550  1.0323
12027SOL    HW237298   4.203   5.362   7.065  0.6994 -0.4896  0.3189
12028SOL     OW37299   3.525   5.101   5.640  0.1912 -0.0190  0.0606
12028SOL    HW137300   3.514   5.119   5.546 -1.3478 -0.3246  0.1617
12028SOL    HW237301   3.563   5.013   5.643 -1.5260 -0.8152 -0.2833
12029SOL     OW37302   3.726   4.261   7.762 -0.3774 -0.0463 -0.3609
12029SOL    HW137303   3.720   4.266   7.857 -0.8341  0.0736 -0.3932
12029SOL    HW237304   3.672   4.185   7.738  0.9493 -1.0014 -0.4142
12030SOL     OW37305   3.923   3.882   8.394 -0.0963  0.2483 -0.3319
12030SOL    HW137306   4.018   3.896   8.391 -0.0236 -0.0979  0.2499
12030SOL    HW237307   3.912   3.788   8.384 -0.3831  0.2976 -0.4872
12031SOL     OW37308   3.374   4.031   8.066 -0.4173  0.0366  0.0102
12031SOL    HW137309   3.286   4.006   8.094 -0.3506  1.3043  1.4607
12031SOL    HW237310   3.379   4.125   8.082  1.2076 -0.0032 -0.0496
12032SOL     OW37311   4.264   5.030   8.283  0.1386 -0.6685 -0.3974
12032SOL    HW137312   4.172   5.043   8.258 -0.4596 -1.8189  1.0318
12032SOL    HW237313   4.310   5.103   8.242 -1.7416  1.1420  0.5159
12033SOL     OW37314   5.056   5.538   8.059 -0.3783  0.2622  0.2653
12033SOL    HW137315   5.044   5.622   8.015 -0.9575 -0.1866 -0.4450
12033SOL    HW237316   4.995   5.478   8.015 -2.2578  0.1894  2.7345
12034SOL     OW37317   4.590   4.280   7.977  0.2595 -0.0147  0.0581
12034SOL    HW137318   4.678   4.312   7.958 -0.1819  1.0439 -0.2653
12034SOL    HW237319   4.548   4.351   8.026 -0.3710 -0.5648  0.3328
12035SOL     OW37320   5.131   4.382   7.754 -0.0650 -0.0912  0.4261
12035SOL    HW137321   5.174   4.334   7.683  0.5659  0.0083  0.7342
12035SOL    HW237322   5.146   4.327   7.831  0.4188  0.4572  0.7284
12036SOL     OW37323   4.490   4.873   8.183 -0.1982  0.2021 -0.4349
12036SOL    HW137324   4.420   4.817   8.150 -0.1678 -0.0138 -0.1399
12036SOL    HW237325   4.445   4.949   8.218 -0.2031  0.6385 -1.3625
12037SOL     OW37326   3.941   4.261   8.521  0.0466 -0.1180  0.1101
12037SOL    HW137327   3.921   4.354   8.512 -0.9946 -0.2306  1.0132
12037SOL    HW237328   4.014   4.246   8.461  0.1017  1.2339 -0.1914
12038SOL     OW37329   3.457   5.326   8.713 -0.1521  0.1566  0.1764
12038SOL    HW137330   3.428   5.244   8.673 -0.7890  0.2223  0.4816
12038SOL    HW237331   3.552   5.318   8.718 -0.0250  0.2206 -1.4960
12039SOL     OW37332   3.957   3.891   8.809  0.1240 -0.5991 -0.4933
12039SOL    HW137333   4.004   3.878   8.892  0.0171 -0.6360 -0.4372
12039SOL    HW237334   3.888   3.825   8.811 -0.1976 -0.2622 -0.3764
12040SOL     OW37335   5.154   4.026   8.313  0.0567  0.8939  0.1572
12040SOL    HW137336   5.135   3.940   8.350 -2.6064  1.8533  1.2236
12040SOL    HW237337   5.116   4.023   8.225 -2.0906  1.6486  1.0065
12041SOL     OW37338   3.669   5.605   8.099 -0.0874 -0.0564  0.2417
12041SOL    HW137339   3.652   5.547   8.174 -1.0983  0.2816  0.2915
12041SOL    HW237340   3.747   5.568   8.057 -0.4091 -1.1427  0.5720
12042SOL     OW37341   3.822   4.944   7.747 -0.2039 -0.7061  0.0207
12042SOL    HW137342   3.855   4.885   7.680 -2.0641 -1.7462 -0.0547
12042SOL    HW237343   3.827   4.893   7.828  0.3069 -0.1236  0.3664
12043SOL     OW37344   3.890   4.718   8.366 -0.0206 -0.0640 -0.1585
12043SOL    HW137345   3.798   4.728   8.341 -0.4071 -0.6508  0.9484
12043SOL    HW237346   3.887   4.674   8.451  1.3187 -1.3717 -0.7388
12044SOL     OW37347   4.000   5.329   8.775 -0.2565 -0.2899  0.1119
12044SOL    HW137348   4.002   5.269   8.850 -0.3702 -0.3114  0.0981
12044SOL    HW237349   4.090   5.361   8.768  0.4879 -2.4434 -1.4579
12045SOL     OW37350   4.539   4.806   7.701  0.1700  0.2173 -0.6601
12045SOL    HW137351   4.570   4.719   7.727  1.1816  0.4504 -1.0363
12045SOL    HW237352   4.612   4.843   7.651 -0.6041  0.9335 -1.2719
12046SOL     OW37353   3.115   3.941   8.033  0.4317 -0.2927 -0.4144
12046SOL    HW137354   3.074   3.923   7.949 -0.1456  0.1923 -0.2427
12046SOL    HW237355   3.093   4.032   8.052  0.0259 -0.5820  0.5629
12047SOL     OW37356   5.568   5.103   7.629  0.3441 -0.2509 -0.4427
12047SOL    HW137357   5.603   5.126   7.714 -0.2836  1.0772 -0.5244
12047SOL    HW237358   5.480   5.069   7.647 -0.8060  2.3577 -0.6901
12048SOL     OW37359   3.204   5.288   8.017 -0.0504  0.2280  0.1193
12048SOL    HW137360   3.135   5.341   7.977  0.9163  0.8496 -0.7812
12048SOL    HW237361   3.262   5.352   8.058 -0.8835 -0.3830  2.3684
12049SOL     OW37362   4.756   4.725   8.008 -0.3944  0.5510 -0.7469
12049SOL    HW137363   4.850   4.743   8.007 -0.0963 -0.8154  0.3101
12049SOL    HW237364   4.739   4.688   8.094 -1.8152  0.2535 -1.1237
12050SOL     OW37365   5.065   4.733   8.013 -0.6641  0.4019 -0.2274
12050SOL    HW137366   5.109   4.697   7.935  0.7006  0.0160  0.6947
12050SOL    HW237367   5.110   4.815   8.031  0.2804 -0.4087  1.2266
12051SOL     OW37368   4.248   5.419   8.184  0.6228  0.6765 -0.3535
12051SOL    HW137369   4.167   5.467   8.199  0.9591  0.9329  0.7108
12051SOL    HW237370   4.260   5.421   8.089 -1.1954 -0.3493 -0.6516
12052SOL     OW37371   4.392   3.748   7.818 -0.1215 -0.0305  0.3364
12052SOL    HW137372   4.346   3.674   7.779  0.5836 -0.7851  0.9030
12052SOL    HW237373   4.323   3.811   7.838 -0.5610  0.2149 -1.7030
12053SOL     OW37374   3.736   3.975   8.588  0.2068  0.2304 -0.3610
12053SOL    HW137375   3.792   4.051   8.575  2.0818 -1.1783 -1.0152
12053SOL    HW237376   3.772   3.909   8.529 -0.3862 -1.6564  1.2903
12054SOL     OW37377   5.236   4.788   7.516 -0.1012 -0.3567  0.2962
12054SOL    HW137378   5.216   4.709   7.468 -2.2246  0.1586  0.2372
12054SOL    HW237379   5.165   4.848   7.495  1.5640  1.6825  0.1278
12055SOL     OW37380   5.225   4.925   8.138  0.1517 -0.0780  0.6343
12055SOL    HW137381   5.283   4.995   8.106  0.6308  0.0371  1.7211
12055SOL    HW237382   5.272   4.886   8.211 -0.6591 -0.7308  0.8222
12056SOL     OW37383   5.256   5.767   7.786  0.4068  0.0507 -1.0197
12056SOL    HW137384   5.301   5.688   7.819 -0.8553 -0.2602  0.0405
12056SOL    HW237385   5.213   5.737   7.706 -0.2359 -0.4084 -0.5142
12057SOL     OW37386   4.387   4.556   7.411 -0.0277  0.2323  0.3553
12057SOL    HW137387   4.383   4.486   7.346  0.0164  0.0302  0.5676
12057SOL    HW237388   4.478   4.585   7.410  0.8666 -2.0906  2.7251
12058SOL     OW37389   4.788   4.099   8.401 -0.6825 -0.4785 -0.1571
12058SOL    HW137390   4.709   4.153   8.397 -1.1950 -1.1538  0.4978
12058SOL    HW237391   4.847   4.137   8.336 -1.8014 -0.3738 -1.1412
12059SOL     OW37392   5.388   5.549   7.855 -0.4347  0.7902 -0.0492
12059SOL    HW137393   5.357   5.481   7.914 -2.3560  1.8030  0.1801
12059SOL    HW237394   5.402   5.505   7.772  1.0506 -0.4002  0.7761
12060SOL     OW37395   4.314   4.491   0.106  0.2543  0.7162 -0.3489
12060SOL    HW137396   4.259   4.464   0.033  0.9060 -0.1643 -0.5352
12060SOL    HW237397   4.252   4.521   0.173 -0.3173  2.0783 -1.4548
12061SOL     OW37398   4.502   4.206   8.416 -0.4882 -0.3915  0.1396
12061SOL    HW137399   4.442   4.271   8.454  0.0233  0.0533  0.2039
12061SOL    HW237400   4.494   4.130   8.473 -0.7126 -0.2039  0.3644
12062SOL     OW37401   4.189   4.320   7.826  0.3603 -0.5702 -0.0993
12062SOL    HW137402   4.114   4.314   7.885  1.0322 -0.3898  0.7975
12062SOL    HW237403   4.233   4.235   7.833  1.6353  0.1569  1.3272
12063SOL     OW37404   3.358   4.527   8.155 -0.0526 -0.5159  0.5493
12063SOL    HW137405   3.282   4.537   8.212 -1.4005  0.1508 -1.2421
12063SOL    HW237406   3.405   4.610   8.161 -0.8036 -0.0294 -0.1006
12064SOL     OW37407   4.045   5.576   8.626  0.5260 -0.1082  0.2812
12064SOL    HW137408   3.960   5.603   8.660  1.1602  2.1950  0.1750
12064SOL    HW237409   4.050   5.482   8.646 -1.8978 -0.2472  0.5170
12065SOL     OW37410   4.603   4.051   7.535 -0.4495  0.4014  0.4357
12065SOL    HW137411   4.657   4.129   7.518 -0.9329  0.4941 -0.7169
12065SOL    HW237412   4.607   4.040   7.630 -0.5932  1.9923  0.6537
12066SOL     OW37413   4.970   4.484   8.475 -0.3776 -0.1878 -0.1622
12066SOL    HW137414   5.043   4.423   8.486  1.4213  2.0521  1.3078
12066SOL    HW237415   4.989   4.528   8.392  1.0176  1.5906  1.0190
12067SOL     OW37416   4.795   4.023   8.099  0.1264 -0.5198 -0.0156
12067SOL    HW137417   4.828   3.943   8.058 -0.4024 -0.9532  0.3882
12067SOL    HW237418   4.758   3.994   8.183 -0.7180  0.0353 -0.1794
12068SOL     OW37419   4.405   5.498   7.934  0.1064 -0.1092  0.0454
12068SOL    HW137420   4.480   5.441   7.949  2.3295  2.1199 -1.6975
12068SOL    HW237421   4.405   5.514   7.840 -1.3435  1.5721  0.2716
12069SOL     OW37422   3.955   5.792   7.932 -0.1109  0.4791  0.1607
12069SOL    HW137423   3.960   5.700   7.957  0.6800  0.1236 -1.2087
12069SOL    HW237424   4.027   5.834   7.979 -1.3916  0.7539  2.0107
12070SOL     OW37425   5.438   4.778   8.273 -0.2679  0.4012 -0.0800
12070SOL    HW137426   5.409   4.753   8.185 -1.6231 -0.6718  0.6255
12070SOL    HW237427   5.421   4.700   8.327  0.8175  0.9274  1.0793
12071SOL     OW37428   3.928   4.293   7.588  0.2403  0.2024  0.5213
12071SOL    HW137429   3.856   4.284   7.651  0.3441  1.0124  0.7669
12071SOL    HW237430   3.986   4.359   7.627  0.6860  0.1744 -0.0780
12072SOL     OW37431   5.313   4.275   8.178  0.3133 -0.4375 -0.3748
12072SOL    HW137432   5.339   4.338   8.246  1.8924  0.3332 -1.6131
12072SOL    HW237433   5.319   4.190   8.221  3.3702 -0.1648 -0.0187
12073SOL     OW37434   5.042   5.530   7.742 -0.6059 -0.7119 -0.4653
12073SOL    HW137435   5.021   5.556   7.652 -2.2204 -1.1376 -0.2422
12073SOL    HW237436   5.113   5.467   7.733 -0.4897 -0.4541 -1.4207
12074SOL     OW37437   5.304   5.013   7.669  0.2795  0.6171  0.5549
12074SOL    HW137438   5.288   4.932   7.620 -0.9640  0.6488  0.8833
12074SOL    HW237439   5.255   5.080   7.621  0.9973  1.1172  0.4996
12075SOL     OW37440   4.152   5.916   8.045 -0.4326 -0.5404  0.7737
12075SOL    HW137441   4.132   5.967   8.124  1.0130  0.1576  0.7224
12075SOL    HW237442   4.194   5.979   7.986 -1.2008 -1.1365 -0.4375
12076SOL     OW37443   5.312   3.880   7.953 -0.2731 -0.1352  0.3178
12076SOL    HW137444   5.385   3.855   8.009  0.0494 -1.8727 -0.7987
12076SOL    HW237445   5.353   3.921   7.877 -0.5091 -0.2539  0.1226
12077SOL     OW37446   3.485   5.227   0.148  0.3379 -0.8174  0.0307
12077SOL    HW137447   3.445   5.283   0.215  2.5069  0.7648  0.1306
12077SOL    HW237448   3.442   5.252   0.066 -0.6825 -1.0701  0.4776
12078SOL     OW37449   4.306   5.812   7.809 -0.5853  0.2445  0.3860
12078SOL    HW137450   4.323   5.766   7.891  0.4001 -0.7600 -0.3444
12078SOL    HW237451   4.213   5.836   7.813 -1.0509 -1.4914  0.9716
12079SOL     OW37452   4.103   4.714   7.719  0.3153  0.2475  0.4193
12079SOL    HW137453   4.163   4.653   7.677 -1.3335 -0.6991 -0.6869
12079SOL    HW237454   4.054   4.753   7.647  0.5514  2.1000  1.1852
12080SOL     OW37455   3.860   3.869   7.386  0.6189  0.5471  0.6507
12080SOL    HW137456   3.814   3.807   7.442 -2.3005  1.2447 -0.7930
12080SOL    HW237457   3.922   3.913   7.445 -0.6010 -0.3819  2.7459
12081SOL     OW37458   4.433   5.248   8.205 -0.5259 -0.6820 -0.0280
12081SOL    HW137459   4.365   5.314   8.216 -0.6642 -0.8816  0.2887
12081SOL    HW237460   4.490   5.285   8.137 -0.8910 -0.4730 -0.2257
12082SOL     OW37461   4.295   4.682   8.102 -0.0696  0.3668  0.2376
12082SOL    HW137462   4.317   4.611   8.042  1.4487  1.4437 -0.5355
12082SOL    HW237463   4.205   4.664   8.128 -0.1726 -1.0898 -0.9892
12083SOL     OW37464   4.094   4.383   8.298 -0.3785  0.0206  0.5693
12083SOL    HW137465   4.120   4.320   8.230  1.0860  0.3821  0.7683
12083SOL    HW237466   4.165   4.380   8.362 -1.0255  0.7833  1.3383
12084SOL     OW37467   4.230   3.813   7.543 -0.3522 -0.2831  0.0982
12084SOL    HW137468   4.239   3.792   7.450 -2.6890 -1.7205  0.1100
12084SOL    HW237469   4.223   3.908   7.546  0.7316 -0.1474 -1.0825
12085SOL     OW37470   3.978   3.724   7.592 -0.2461 -0.4694 -0.3090
12085SOL    HW137471   4.024   3.644   7.566 -1.0763 -1.4001  0.9602
12085SOL    HW237472   4.044   3.793   7.586  0.8915 -1.5072 -0.0385
12086SOL     OW37473   4.642   3.742   7.673  0.2281 -0.3198  0.2535
12086SOL    HW137474   4.554   3.745   7.711  0.7959  2.5316  1.6618
12086SOL    HW237475   4.627   3.759   7.579 -0.7234  1.0272  0.6075
12087SOL     OW37476   4.580   5.265   7.979  0.6651 -0.1043  0.3183
12087SOL    HW137477   4.656   5.208   7.990  0.6956 -0.3812 -1.1171
12087SOL    HW237478   4.517   5.212   7.929 -0.7345 -0.0933  1.9807
12088SOL     OW37479   4.103   5.129   8.080  0.3851 -0.0207  0.2921
12088SOL    HW137480   4.107   5.054   8.022  0.0292  0.7750 -0.7879
12088SOL    HW237481   4.170   5.189   8.048  2.1588 -0.7221  2.4308
12089SOL     OW37482   4.844   5.717   7.851  0.1203 -0.0609  0.5284
12089SOL    HW137483   4.893   5.648   7.807 -0.9049 -1.7454  1.8934
12089SOL    HW237484   4.766   5.730   7.796  0.3228  0.0207  0.2601
12090SOL     OW37485   4.227   4.352   7.565 -0.1395 -0.8211  0.5434
12090SOL    HW137486   4.292   4.418   7.541 -1.5921  0.5261  0.1702
12090SOL    HW237487   4.206   4.371   7.657  0.6848 -1.8898  0.9779
12091SOL     OW37488   4.323   3.776   8.377  0.2358 -0.1019  0.2323
12091SOL    HW137489   4.332   3.686   8.408 -1.5601  0.3268  2.2080
12091SOL    HW237490   4.312   3.768   8.282  0.7680 -1.8895  0.2834
12092SOL     OW37491   4.160   4.162   8.143  0.0605  0.2761  0.4108
12092SOL    HW137492   4.255   4.154   8.142 -0.0437 -1.2503  0.7627
12092SOL    HW237493   4.132   4.114   8.221 -0.9062  2.2420  1.3711
12093SOL     OW37494   4.432   4.126   8.167 -0.5678  0.2804 -0.5316
12093SOL    HW137495   4.493   4.171   8.109 -1.8034  0.6970 -1.5715
12093SOL    HW237496   4.455   4.156   8.255  0.8204  0.2678 -0.8678
12094SOL     OW37497   5.272   4.615   8.681 -0.3200 -0.1095  0.0154
12094SOL    HW137498   5.292   4.697   8.727 -0.3532  0.3477 -0.7831
12094SOL    HW237499   5.187   4.588   8.716 -0.0045 -0.1614  0.7668
12095SOL     OW37500   4.671   4.694   8.294 -0.2458 -0.3526  0.1382
12095SOL    HW137501   4.593   4.748   8.283 -0.7991 -0.7724  1.7445
12095SOL    HW237502   4.640   4.604   8.283 -0.3881 -0.6415  2.4305
12096SOL     OW37503   5.399   4.672   7.993  0.5436  0.1131  0.2757
12096SOL    HW137504   5.450   4.591   7.990  0.4023  0.0473 -1.2338
12096SOL    HW237505   5.342   4.667   7.916 -0.0262  1.2921  0.5990
12097SOL     OW37506   4.166   5.181   7.469 -0.4817  0.3946 -0.9360
12097SOL    HW137507   4.244   5.130   7.448 -0.5017  0.1291 -0.3802
12097SOL    HW237508   4.096   5.142   7.418 -0.4286  0.0738 -0.7630
12098SOL     OW37509   5.377   5.066   7.938  0.9015  0.1798 -0.2773
12098SOL    HW137510   5.334   5.065   7.853  0.5713 -0.5576 -0.1073
12098SOL    HW237511   5.436   4.991   7.936 -0.1778 -0.7213  0.6768
12099SOL     OW37512   4.935   3.986   7.483  0.2302  0.0196  0.3016
12099SOL    HW137513   4.875   4.060   7.470  0.2251 -0.2753 -1.6130
12099SOL    HW237514   5.015   4.011   7.437  0.5320 -0.8209  0.3506
12100SOL     OW37515   3.985   4.069   7.864 -0.3697 -0.0916  0.2399
12100SOL    HW137516   3.999   4.148   7.916  0.1902  0.4137 -0.6460
12100SOL    HW237517   3.891   4.052   7.871 -0.4215  0.3796  0.8070
12101SOL     OW37518   5.550   4.715   8.835 -0.2768  0.4948  0.0896
12101SOL    HW137519   5.507   4.631   8.849  0.1758  0.2259 -0.1055
12101SOL    HW237520   5.611   4.699   8.763 -0.4509  1.0873 -0.2011
12102SOL     OW37521   4.786   5.521   8.568 -0.8221  0.4058 -0.2540
12102SOL    HW137522   4.818   5.563   8.648  0.2824  0.8213 -0.8854
12102SOL    HW237523   4.707   5.474   8.595 -0.5665  0.6789  1.0360
12103SOL     OW37524   5.870   4.611   8.581 -0.6859  0.5459  0.6733
12103SOL    HW137525   5.777   4.620   8.560 -0.7623 -1.6681 -0.2642
12103SOL    HW237526   5.910   4.583   8.499  0.1309 -2.1242  1.8537
12104SOL     OW37527   4.375   4.485   7.946 -0.0082  0.5405  0.3642
12104SOL    HW137528   4.303   4.422   7.947  0.0442  0.4085 -1.5440
12104SOL    HW237529   4.412   4.479   7.858  2.3379  0.6102  1.2519
12105SOL     OW37530   3.673   4.226   8.406  0.0621  0.2565 -0.5544
12105SOL    HW137531   3.685   4.314   8.371 -2.4157  0.4553 -1.0937
12105SOL    HW237532   3.642   4.240   8.496  1.1341 -0.1368 -0.1056
12106SOL     OW37533   4.725   4.302   8.658  0.5704 -0.8666  0.1601
12106SOL    HW137534   4.814   4.266   8.656  0.3902 -1.3082 -1.6653
12106SOL    HW237535   4.734   4.390   8.622  0.4601 -0.3789  1.2867
12107SOL     OW37536   3.170   5.127   0.034 -0.3972 -0.0179  0.5696
12107SOL    HW137537   3.127   5.061   0.088 -0.9646 -1.6374 -1.7332
12107SOL    HW237538   3.104   5.195   0.023 -0.8186 -0.4058  0.6439
12108SOL     OW37539   3.935   4.829   7.517 -0.2552 -0.0305  0.3957
12108SOL    HW137540   4.010   4.868   7.473 -0.5994  2.1965  1.6158
12108SOL    HW237541   3.903   4.762   7.457  1.0841  0.8106 -1.3297
12109SOL     OW37542   3.947   4.603   7.919  0.4097 -0.0935  0.3082
12109SOL    HW137543   4.002   4.610   7.997 -0.9292  5.1635  1.1797
12109SOL    HW237544   4.004   4.628   7.847  1.1389 -3.0890 -0.2966
12110SOL     OW37545   4.738   5.055   8.142  0.0892  0.0589  0.6418
12110SOL    HW137546   4.661   4.999   8.153 -0.2748  0.4731  0.2764
12110SOL    HW237547   4.791   5.010   8.077  0.8324 -0.9210  1.8951
12111SOL     OW37548   4.410   5.585   8.378  0.0725 -0.0548 -0.0703
12111SOL    HW137549   4.502   5.574   8.355 -0.1520 -4.5806  0.1483
12111SOL    HW237550   4.363   5.542   8.306 -1.8149  1.2594  0.3230
12112SOL     OW37551   4.750   4.895   7.548 -0.3122  0.1711  0.3330
12112SOL    HW137552   4.816   4.826   7.539 -0.1102  0.4515 -0.4827
12112SOL    HW237553   4.796   4.975   7.522 -0.5416  0.6165  1.2810
12113SOL     OW37554   4.047   4.960   8.740  0.3286 -0.0110  0.1233
12113SOL    HW137555   3.952   4.957   8.723  0.5302 -0.6134 -0.9503
12113SOL    HW237556   4.065   5.052   8.757 -0.4321  0.1306  0.2074
12114SOL     OW37557   3.866   4.185   8.795 -0.5084 -0.4538  0.5725
12114SOL    HW137558   3.907   4.219   8.715 -0.6474 -0.5796  0.4457
12114SOL    HW237559   3.893   4.093   8.799 -3.0559 -1.4021 -1.0874
12115SOL     OW37560   4.989   4.831   8.348 -0.0889 -0.2497  0.0126
12115SOL    HW137561   4.984   4.920   8.314  0.8627  0.6187  1.9595
12115SOL    HW237562   4.904   4.817   8.390 -1.1198 -1.1837 -2.2178
12116SOL     OW37563   4.968   3.834   7.702 -0.8019 -0.4170  0.2321
12116SOL    HW137564   4.883   3.824   7.746 -0.6429  0.7066  0.8477
12116SOL    HW237565   4.953   3.903   7.637 -0.2050  0.2914  0.8229
12117SOL     OW37566   4.183   4.041   8.414  0.3389  0.0286  0.0019
12117SOL    HW137567   4.269   4.000   8.425  0.9616  1.4713  0.7197
12117SOL    HW237568   4.149   4.049   8.503  0.3416  1.2477 -0.0863
12118SOL     OW37569   3.806   4.932   8.603  0.2799 -0.0248  0.2117
12118SOL    HW137570   3.831   4.970   8.518 -0.4169  0.3961  0.1908
12118SOL    HW237571   3.712   4.915   8.595  0.7345 -2.8304 -0.1907
12119SOL     OW37572   4.571   4.432   0.043  0.1315  0.1190  0.3438
12119SOL    HW137573   4.567   4.358  -0.017  0.6388  1.3181 -1.2400
12119SOL    HW237574   4.480   4.446   0.070  0.1019 -1.4086  1.1282
12120SOL     OW37575   4.105   3.481   8.260  0.0136  0.2313 -0.0821
12120SOL    HW137576   4.123   3.522   8.176 -0.2145 -0.0655 -0.2799
12120SOL    HW237577   4.181   3.503   8.315  1.2077 -1.3286 -1.0211
12121SOL     OW37578   4.829   4.347   7.833 -0.6611  0.0448 -0.1668
12121SOL    HW137579   4.830   4.311   7.745  0.4265  1.6288 -0.8492
12121SOL    HW237580   4.909   4.314   7.874 -0.7973 -0.0968 -0.0083
12122SOL     OW37581   3.911   4.539   8.587  0.2269  0.1884  0.3312
12122SOL    HW137582   3.874   4.527   8.675  0.8078 -0.5083  0.4963
12122SOL    HW237583   4.005   4.550   8.602  0.4817 -1.0294 -0.2606
12123SOL     OW37584   5.127   4.102   7.347  0.3630 -0.1448 -0.5723
12123SOL    HW137585   5.109   4.159   7.272 -0.2795  1.9169  1.0378
12123SOL    HW237586   5.221   4.082   7.340  0.8122  1.8299 -0.7655
12124SOL     OW37587   5.305   4.275   7.565  0.5307 -1.0362 -0.3930
12124SOL    HW137588   5.401   4.271   7.559  0.5317 -0.5527 -0.7222
12124SOL    HW237589   5.275   4.211   7.499  0.6223 -0.8489 -0.6168
12125SOL     OW37590   4.696   5.261   8.331 -0.1817  0.3695 -0.3583
12125SOL    HW137591   4.646   5.337   8.301  0.4545  0.4804 -1.1925
12125SOL    HW237592   4.687   5.197   8.260 -0.6205 -0.2999  0.2892
12126SOL     OW37593   3.348   4.266   8.166 -0.3677  0.0092 -0.6509
12126SOL    HW137594   3.388   4.352   8.174  0.9712 -0.5650 -0.9635
12126SOL    HW237595   3.270   4.271   8.222  1.1352  0.5703  1.5132
12127SOL     OW37596   3.751   4.035   8.251 -0.1324  0.2561  0.0679
12127SOL    HW137597   3.816   3.975   8.286  2.2693  0.8382 -2.9157
12127SOL    HW237598   3.762   4.115   8.302  0.2641 -0.2136  0.7301
12128SOL     OW37599   5.143   3.949   8.670 -0.3578 -0.2122 -0.3576
12128SOL    HW137600   5.153   3.938   8.765 -1.4842  0.5369 -0.1302
12128SOL    HW237601   5.230   3.932   8.635  0.0146 -0.7805  0.7821
12129SOL     OW37602   3.581   4.759   7.610  0.9721  0.3417  0.3429
12129SOL    HW137603   3.542   4.710   7.538  0.6514  0.6600  0.3010
12129SOL    HW237604   3.640   4.696   7.652  1.8066  0.3986 -0.7020
12130SOL     OW37605   3.749   5.631   8.424 -0.0333  0.1180  0.5790
12130SOL    HW137606   3.664   5.642   8.466  0.0595 -2.1933  1.5038
12130SOL    HW237607   3.740   5.551   8.373  0.6693  1.4909 -1.8919
12131SOL     OW37608   3.928   5.500   8.016  0.2251 -0.1500 -0.0823
12131SOL    HW137609   3.936   5.484   8.110 -0.1814  0.4896  0.0690
12131SOL    HW237610   3.975   5.428   7.975  1.8728  0.4723  0.6278
12132SOL     OW37611   4.049   4.623   8.161 -0.2072 -0.4362 -0.4471
12132SOL    HW137612   4.018   4.692   8.220  0.1437 -1.1788  0.6505
12132SOL    HW237613   4.055   4.545   8.217 -0.4183 -1.3123 -1.6160
12133SOL     OW37614   3.295   4.021   0.055 -0.1451 -0.0609 -0.0686
12133SOL    HW137615   3.322   3.969   0.131  2.8970  0.5774 -0.6092
12133SOL    HW237616   3.336   4.106   0.067 -1.9749  1.0418 -1.0655
12134SOL     OW37617   4.651   4.005   7.787 -0.5115  0.0616  0.6116
12134SOL    HW137618   4.678   4.027   7.877  0.3726  0.8933  0.1604
12134SOL    HW237619   4.653   3.909   7.784 -0.3238  0.0346  1.4097
12135SOL     OW37620   4.645   4.434   8.290  0.6378  0.4263 -0.8946
12135SOL    HW137621   4.602   4.369   8.346 -1.0359 -0.3555 -2.9228
12135SOL    HW237622   4.733   4.399   8.275 -0.4544 -1.9414 -2.5699
12136SOL     OW37623   4.197   4.269   8.788 -0.0896 -0.2790 -0.4928
12136SOL    HW137624   4.171   4.190   8.741  0.7591  0.7942 -2.9121
12136SOL    HW237625   4.220   4.238   8.875  0.7679 -2.8002 -1.5254
12137SOL     OW37626   4.537   5.352   8.609 -0.3790 -0.5652 -0.2125
12137SOL    HW137627   4.482   5.344   8.532 -1.3766  0.1334  0.4135
12137SOL    HW237628   4.476   5.357   8.683  0.5452 -0.9513  0.6134
12138SOL     OW37629   4.394   4.141   7.822 -0.3239 -0.6459 -0.3070
12138SOL    HW137630   4.467   4.182   7.869 -0.5851 -0.4896 -0.0294
12138SOL    HW237631   4.435   4.074   7.768  0.0920 -0.1223 -0.6528
12139SOL     OW37632   3.644   4.315   8.698  0.1709 -0.5635  0.1752
12139SOL    HW137633   3.730   4.286   8.727  1.0494  1.4380 -0.2673
12139SOL    HW237634   3.637   4.406   8.729 -0.6450  0.2098 -2.0238
12140SOL     OW37635   4.274   4.834   8.514  0.1927  0.2710 -0.4298
12140SOL    HW137636   4.240   4.876   8.436  0.5276 -0.0451 -0.7509
12140SOL    HW237637   4.345   4.891   8.543  1.6080 -0.7728 -1.6874
12141SOL     OW37638   4.665   4.544   7.462  0.2371 -0.5717 -0.0872
12141SOL    HW137639   4.751   4.576   7.435 -0.0837 -0.9911 -1.7128
12141SOL    HW237640   4.659   4.567   7.555  2.1873 -0.7613  0.1251
12142SOL     OW37641   5.127   4.598   8.271  0.0498  0.1955  0.3029
12142SOL    HW137642   5.079   4.679   8.290  0.0490  0.3280 -0.2505
12142SOL    HW237643   5.120   4.587   8.176 -0.9094 -1.0485  0.4871
12143SOL     OW37644   4.749   5.213   8.709  0.2024  0.1354  0.3503
12143SOL    HW137645   4.692   5.283   8.675  0.6111  0.3829  0.1631
12143SOL    HW237646   4.809   5.195   8.637 -0.6769 -1.2784 -0.0568
12144SOL     OW37647   3.679   5.389   8.297  0.2254  0.3335 -0.0956
12144SOL    HW137648   3.634   5.305   8.299  0.9262 -0.1659 -2.2388
12144SOL    HW237649   3.768   5.368   8.266  0.4004  1.8337 -0.7048
12145SOL     OW37650   5.575   3.564   7.953  0.5660 -0.6465 -0.0817
12145SOL    HW137651   5.520   3.622   8.006  2.0739  0.2880  0.5249
12145SOL    HW237652   5.546   3.476   7.976 -0.9270 -0.1815 -0.0807
12146SOL     OW37653   5.056   5.172   7.751 -0.1912 -0.4555  0.3012
12146SOL    HW137654   5.094   5.165   7.664 -0.9978 -3.9159  0.0760
12146SOL    HW237655   4.978   5.227   7.740  0.9755  1.0828 -0.6040
12147SOL     OW37656   4.856   4.269   8.183  0.7454 -0.2573 -0.1560
12147SOL    HW137657   4.844   4.197   8.121  0.0166 -0.7146  0.5071
12147SOL    HW237658   4.951   4.279   8.190  0.8448 -1.0463 -0.3738
12148SOL     OW37659   4.125   5.359   7.863  0.3389  0.1048  0.5712
12148SOL    HW137660   4.211   5.327   7.836  0.1708 -1.4250  1.7027
12148SOL    HW237661   4.063   5.305   7.814 -0.0276  1.5835 -0.6767
12149SOL     OW37662   5.580   3.499   8.419 -0.0998 -0.1670 -0.7207
12149SOL    HW137663   5.539   3.478   8.503  0.8284  1.2122  0.1267
12149SOL    HW237664   5.540   3.439   8.357 -0.3784 -1.6428  0.8147
12150SOL     OW37665   3.963   4.346   7.954  0.0622  0.1234 -0.0408
12150SOL    HW137666   3.938   4.434   7.926 -1.0117 -0.4389 -0.9362
12150SOL    HW237667   3.885   4.312   7.997  0.3303 -0.5362 -0.0694
12151SOL     OW37668   4.427   4.600   8.559  0.8326  0.3038  0.2006
12151SOL    HW137669   4.511   4.639   8.585  0.2804  1.7657 -0.1293
12151SOL    HW237670   4.382   4.670   8.513 -0.1028 -0.8366 -0.6565
12152SOL     OW37671   4.901   4.988   7.930  0.4125  0.2954 -0.7314
12152SOL    HW137672   4.924   5.062   7.874  0.5422  0.7020 -0.1491
12152SOL    HW237673   4.908   4.912   7.873  0.4988  0.7069 -1.2793
12153SOL     OW37674   5.290   5.367   7.618  0.1916 -0.4184 -0.1723
12153SOL    HW137675   5.227   5.313   7.571  0.8783 -3.0732  1.7286
12153SOL    HW237676   5.360   5.384   7.554 -0.7683 -0.4329 -1.2557
12154SOL     OW37677   5.269   5.133   8.309  0.3901 -0.1722 -1.0038
12154SOL    HW137678   5.265   5.077   8.387 -0.6898 -0.1175 -1.0119
12154SOL    HW237679   5.187   5.116   8.263 -0.1491  1.7068 -0.8060
12155SOL     OW37680   4.194   4.895   7.927 -0.2726  0.5914 -0.7699
12155SOL    HW137681   4.240   4.859   8.003 -0.4593  0.6271 -0.6386
12155SOL    HW237682   4.145   4.820   7.892 -1.1085  0.8317 -0.1646
12156SOL     OW37683   4.897   3.870   8.566 -0.1268 -0.0293  0.7244
12156SOL    HW137684   4.866   3.939   8.508  2.4076  0.8015  0.2132
12156SOL    HW237685   4.983   3.900   8.595  1.3416 -3.1762  0.0802
12157SOL     OW37686   4.363   4.998   7.480  0.3744 -0.3945 -0.1778
12157SOL    HW137687   4.435   4.969   7.537  0.8720 -0.6072 -0.9018
12157SOL    HW237688   4.325   4.917   7.446 -0.2802 -0.2861  0.2745
12158SOL     OW37689   5.830   3.779   8.792  0.0062 -0.4136 -0.1569
12158SOL    HW137690   5.924   3.769   8.780  0.0991  0.2042 -0.0063
12158SOL    HW237691   5.791   3.726   8.723  0.4589 -0.8457 -0.0887
12159SOL     OW37692   3.917   5.100   7.383  0.9224 -0.1917  0.1268
12159SOL    HW137693   3.858   5.146   7.442  0.9604  0.7824 -0.5816
12159SOL    HW237694   3.863   5.031   7.343 -0.2406  1.6895 -1.7412
12160SOL     OW37695   4.471   3.979   8.548  0.4491  0.1855 -0.0376
12160SOL    HW137696   4.453   3.920   8.474 -0.4036  0.4545 -0.0535
12160SOL    HW237697   4.432   3.934   8.623  0.8887  0.1465  0.1706
12161SOL     OW37698   3.724   3.970   7.867 -0.4220  0.0116  0.1574
12161SOL    HW137699   3.748   3.902   7.805 -0.1880  0.5822 -0.3852
12161SOL    HW237700   3.642   3.939   7.907  0.1877 -1.0423  0.6379
12162SOL     OW37701   4.250   3.720   8.119 -0.0470  0.5520  0.4917
12162SOL    HW137702   4.209   3.778   8.056 -0.5704 -0.4930 -0.1601
12162SOL    HW237703   4.268   3.640   8.070  1.6670  0.5395  1.0800
12163SOL     OW37704   4.786   5.250   7.750  0.1607 -0.0052  0.0152
12163SOL    HW137705   4.736   5.273   7.672  2.1658  2.0387 -0.7653
12163SOL    HW237706   4.724   5.266   7.822 -1.1956 -0.3148 -1.0314
12164SOL     OW37707   4.295   4.360   8.487 -0.0089 -0.4606 -0.4957
12164SOL    HW137708   4.339   4.442   8.513 -0.5867  0.0150 -0.9836
12164SOL    HW237709   4.253   4.329   8.568  0.5590 -0.4989 -0.2124
12165SOL     OW37710   4.950   5.235   8.462 -0.0178  0.3631  0.2274
12165SOL    HW137711   4.949   5.175   8.387 -1.0266 -0.1821  0.6505
12165SOL    HW237712   4.898   5.310   8.434 -1.1268 -0.2231  0.6590
12166SOL     OW37713   3.826   5.205   0.627  0.3365  0.0080  0.3165
12166SOL    HW137714   3.761   5.233   0.562 -0.0657 -0.8216  0.3400
12166SOL    HW237715   3.796   5.243   0.709  0.6816  0.8158  0.0728
12167SOL     OW37716   5.446   4.399   8.701 -0.1966 -0.0122  0.2821
12167SOL    HW137717   5.430   4.350   8.781 -0.4632 -0.5845 -0.1167
12167SOL    HW237718   5.387   4.473   8.706 -1.5314 -1.0074 -0.2175
12168SOL     OW37719   4.671   4.573   7.780  0.0613 -0.5649  0.3049
12168SOL    HW137720   4.728   4.498   7.800  0.3085 -0.2145  0.9509
12168SOL    HW237721   4.697   4.640   7.844 -0.0949  0.1047 -0.3251
12169SOL     OW37722   3.458   4.789   8.104 -0.7557 -0.5692 -0.0397
12169SOL    HW137723   3.516   4.864   8.097  0.0013 -0.7597  2.8803
12169SOL    HW237724   3.384   4.811   8.048  0.2651  1.5278 -0.6682
12170SOL     OW37725   5.717   4.297   8.664  0.0480  0.1998 -0.0486
12170SOL    HW137726   5.649   4.341   8.716 -0.0550 -0.0671  0.0461
12170SOL    HW237727   5.704   4.204   8.683  0.7434  0.1748  0.3436
12171SOL     OW37728   4.451   6.028   8.102 -0.4403 -0.0681 -0.2370
12171SOL    HW137729   4.396   6.065   8.033  0.3983 -2.4592 -2.3802
12171SOL    HW237730   4.389   5.999   8.169 -1.7003 -1.0783 -1.7579
12172SOL     OW37731   3.838   5.059   8.360  0.1703 -0.0075 -0.8948
12172SOL    HW137732   3.811   5.097   8.276  1.8153 -0.4251 -1.6626
12172SOL    HW237733   3.814   4.967   8.353 -0.9377  0.2162 -0.3161
12173SOL     OW37734   4.919   4.664   7.487 -0.2981  0.2332  0.3041
12173SOL    HW137735   4.972   4.743   7.485 -0.6859  0.4902 -0.4662
12173SOL    HW237736   4.982   4.592   7.483  0.0444  0.5032  0.7895
12174SOL     OW37737   5.667   4.899   8.356  0.7122  0.2462  0.4330
12174SOL    HW137738   5.709   4.922   8.273  1.7140  2.1508  1.4096
12174SOL    HW237739   5.576   4.884   8.332  1.0593  0.3256 -1.0825
12175SOL     OW37740   4.301   5.134   7.821 -0.2930  0.0539  0.1282
12175SOL    HW137741   4.262   5.138   7.733  0.7807 -0.4861 -0.3953
12175SOL    HW237742   4.270   5.051   7.857 -0.1483 -0.0691 -0.0294
12176SOL     OW37743   5.680   4.039   8.702 -0.4074 -0.2563  0.0989
12176SOL    HW137744   5.620   3.978   8.746 -0.7707  0.6782  0.9277
12176SOL    HW237745   5.747   3.982   8.664  0.4823 -1.1162  2.6678
12177SOL     OW37746   4.210   3.941   7.908 -0.5490  0.3411 -0.6449
12177SOL    HW137747   4.276   4.009   7.891  0.7433 -0.5606  0.5642
12177SOL    HW237748   4.128   3.980   7.878  0.0947  2.5559  0.2786
12178SOL     OW37749   5.079   5.088   8.671  0.2143 -0.4708 -0.2273
12178SOL    HW137750   5.044   5.128   8.592 -0.7100 -2.0000 -0.6394
12178SOL    HW237751   5.146   5.027   8.640  0.3913 -0.5184  0.2344
12179SOL     OW37752   3.591   3.875   8.819 -0.0550  0.3713  0.8410
12179SOL    HW137753   3.647   3.905   8.748 -3.5134  4.1322 -0.7198
12179SOL    HW237754   3.594   3.946   8.884  0.0313 -1.2176  2.6892
12180SOL     OW37755   4.632   5.811   8.179 -0.4398  0.1736 -0.0443
12180SOL    HW137756   4.585   5.756   8.116  0.3721  1.0325 -1.4582
12180SOL    HW237757   4.616   5.901   8.149 -0.6900  0.6601  1.4698
12181SOL     OW37758   5.403   4.163   0.067 -0.0131  0.3887 -0.3180
12181SOL    HW137759   5.393   4.086   0.011  0.0843 -2.0864  2.7514
12181SOL    HW237760   5.326   4.217   0.048 -1.6063 -1.8576 -0.6592
12182SOL     OW37761   4.846   3.283   8.661  0.1159 -0.1265 -0.1424
12182SOL    HW137762   4.841   3.188   8.663  2.6213 -0.3445 -0.6552
12182SOL    HW237763   4.858   3.306   8.569 -0.6848  0.7149 -0.0547
12183SOL     OW37764   4.548   4.993   7.905  0.1306 -0.5613 -0.7661
12183SOL    HW137765   4.572   4.912   7.950  2.4748 -0.5008 -1.7701
12183SOL    HW237766   4.511   4.964   7.822 -1.5465 -0.6064 -0.0445
12184SOL     OW37767   4.239   5.237   8.495  0.1500 -0.0980 -0.2384
12184SOL    HW137768   4.148   5.265   8.489 -0.2907 -1.0940  1.1738
12184SOL    HW237769   4.244   5.157   8.444 -0.0579 -0.6363  0.5588
12185SOL     OW37770   5.171   3.677   7.794 -0.0596 -1.0253  0.3542
12185SOL    HW137771   5.099   3.724   7.752 -0.0740 -0.8130  0.6163
12185SOL    HW237772   5.213   3.742   7.850  1.5316 -0.5979 -1.2344
12186SOL     OW37773   5.140   4.224   7.974  0.0166 -0.2676  0.0719
12186SOL    HW137774   5.107   4.141   8.008  0.7156 -0.2384  0.8335
12186SOL    HW237775   5.198   4.257   8.042  0.3785  0.4572 -0.5742
12187SOL     OW37776   5.591   3.775   8.364  0.2084  0.6319  0.2519
12187SOL    HW137777   5.529   3.816   8.424 -0.7165  0.9668 -0.8964
12187SOL    HW237778   5.579   3.681   8.377 -2.2461  0.6075 -1.5546
12188SOL     OW37779   3.647   4.511   7.740  0.3295  0.1784  0.7511
12188SOL    HW137780   3.700   4.433   7.724 -0.4267 -0.6998  2.2941
12188SOL    HW237781   3.564   4.477   7.775 -0.5085  1.6110  0.2462
12189SOL     OW37782   4.669   5.641   7.618 -0.7274  0.6458 -0.5358
12189SOL    HW137783   4.576   5.621   7.615 -0.1264 -2.5134 -1.5791
12189SOL    HW237784   4.712   5.567   7.575  2.1905  2.7699 -1.6746
12190SOL     OW37785   4.136   6.350   8.849 -0.1082 -0.9569  0.7661
12190SOL    HW137786   4.132   6.276   8.789 -1.1366 -1.4271  1.3930
12190SOL    HW237787   4.050   6.390   8.844  0.2427 -0.1642  0.8968
12191SOL     OW37788   3.990   6.044   0.985 -0.0517 -0.2897 -0.5789
12191SOL    HW137789   4.007   5.953   1.007 -1.3278 -0.6663 -1.0756
12191SOL    HW237790   4.004   6.092   1.066  1.3704 -0.8099 -0.4911
12192SOL     OW37791   4.160   5.936   0.672  0.0945  0.4083  0.1554
12192SOL    HW137792   4.176   5.934   0.577 -1.4672  0.2165 -0.1257
12192SOL    HW237793   4.132   6.026   0.690 -4.1160 -0.5494 -0.4488
12193SOL     OW37794   4.014   7.216   1.369  0.3246  0.3162  0.3369
12193SOL    HW137795   4.043   7.128   1.394  3.2627  1.5127  1.6490
12193SOL    HW237796   4.074   7.242   1.299 -0.0800  1.4841  0.3935
12194SOL     OW37797   5.138   7.311   0.591  0.6609  0.0995 -0.8247
12194SOL    HW137798   5.100   7.381   0.645  0.0233  0.4742 -1.7243
12194SOL    HW237799   5.068   7.287   0.532  0.4058 -2.3024  0.3570
12195SOL     OW37800   4.772   6.097   0.697  0.3722  0.1850  0.4746
12195SOL    HW137801   4.839   6.132   0.755  0.3160  0.8350  0.1602
12195SOL    HW237802   4.813   6.096   0.610 -0.0982  0.8374  0.2328
12196SOL     OW37803   5.431   6.306   0.122 -0.4908 -0.1534  0.4045
12196SOL    HW137804   5.430   6.397   0.090  1.4763 -0.2930 -0.1431
12196SOL    HW237805   5.495   6.305   0.193  0.4807 -1.3531 -0.4425
12197SOL     OW37806   4.250   6.432   1.257  0.2036 -0.5663 -0.1638
12197SOL    HW137807   4.285   6.473   1.336  0.2878  1.7641 -1.3115
12197SOL    HW237808   4.327   6.419   1.201  0.3308 -3.3423  0.5249
12198SOL     OW37809   4.607   5.586   2.120  0.1692 -0.3525 -0.6139
12198SOL    HW137810   4.696   5.610   2.146  0.1264  1.5680 -2.0123
12198SOL    HW237811   4.619   5.529   2.044  0.3231  2.6666 -3.0542
12199SOL     OW37812   4.604   6.558   1.006 -0.4627  0.5981  0.2845
12199SOL    HW137813   4.641   6.500   1.073  0.1574  0.3042 -0.2999
12199SOL    HW237814   4.655   6.539   0.928 -0.3909  1.8029  0.0316
12200SOL     OW37815   4.232   6.488   1.699  0.0950 -1.2510  0.0573
12200SOL    HW137816   4.282   6.510   1.620  0.7053 -2.5327  0.0641
12200SOL    HW237817   4.287   6.425   1.745 -0.1004 -0.2702  1.6977
12201SOL     OW37818   4.570   7.212   1.020 -0.3048  0.3325 -0.4460
12201SOL    HW137819   4.566   7.242   0.929  0.1272  0.8670 -0.2925
12201SOL    HW237820   4.559   7.117   1.014 -2.1774  0.5422 -0.8962
12202SOL     OW37821   4.972   6.729   1.797  0.5741 -0.0295  0.0836
12202SOL    HW137822   5.016   6.729   1.882 -0.8924 -0.5181  0.8855
12202SOL    HW237823   5.003   6.650   1.754 -0.3418 -0.9814  1.1145
12203SOL     OW37824   4.337   5.431   1.951  0.3882 -0.9772  0.0081
12203SOL    HW137825   4.319   5.414   2.043  0.8430  0.6182  0.4304
12203SOL    HW237826   4.332   5.526   1.943  1.3591 -1.0126 -1.4020
12204SOL     OW37827   5.342   5.989   1.102 -0.1124 -0.4216 -0.2604
12204SOL    HW137828   5.436   5.999   1.086 -0.7364  2.0162 -3.3635
12204SOL    HW237829   5.320   6.063   1.159 -0.1094 -1.2528  0.8398
12205SOL     OW37830   4.035   7.227   0.630 -1.0536  0.2040  0.0737
12205SOL    HW137831   4.012   7.148   0.581  0.3910  0.1372 -0.5385
12205SOL    HW237832   3.956   7.282   0.626 -1.1484 -0.0248 -1.8743
12206SOL     OW37833   4.728   6.296   1.799 -0.2938 -0.6600  0.3904
12206SOL    HW137834   4.779   6.295   1.880 -0.0168 -0.9304  0.2165
12206SOL    HW237835   4.637   6.291   1.828 -0.2480  0.2874  0.7207
12207SOL     OW37836   3.628   6.834   0.364 -0.0809 -0.0834  0.6107
12207SOL    HW137837   3.689   6.826   0.438 -0.2416  0.8913  0.8639
12207SOL    HW237838   3.573   6.909   0.387 -0.0941  0.2676 -0.5265
12208SOL     OW37839   4.045   6.256   1.203  0.2701 -0.1809  0.2323
12208SOL    HW137840   3.976   6.266   1.269  0.3180  2.2349  0.0135
12208SOL    HW237841   4.121   6.301   1.241  0.2440  1.4129 -1.4943
12209SOL     OW37842   4.602   7.389   1.199 -0.1407 -0.0780 -0.3622
12209SOL    HW137843   4.593   7.322   1.132 -1.2945 -0.2488 -0.0516
12209SOL    HW237844   4.574   7.470   1.155  1.0678  0.1817 -0.6809
12210SOL     OW37845   4.164   6.949   0.508  0.7206  0.5097 -0.5391
12210SOL    HW137846   4.202   6.928   0.593 -0.0524 -1.9014 -0.7112
12210SOL    HW237847   4.240   6.958   0.450  1.1888  0.4435  0.0515
12211SOL     OW37848   5.207   6.275   1.796  0.3522  0.4204 -0.3072
12211SOL    HW137849   5.173   6.212   1.859 -1.1601  2.2715  0.8620
12211SOL    HW237850   5.179   6.241   1.711 -0.7225 -0.3156  0.3122
12212SOL     OW37851   4.326   6.179   0.533  0.2678  0.1632 -0.8042
12212SOL    HW137852   4.336   6.107   0.595  0.4397  0.7010 -0.1910
12212SOL    HW237853   4.279   6.141   0.459 -1.8798  0.0095  0.5570
12213SOL     OW37854   5.602   7.298   0.250  0.3888 -0.1131 -0.2817
12213SOL    HW137855   5.692   7.278   0.277  0.0765 -0.0176  0.9081
12213SOL    HW237856   5.590   7.249   0.169  1.6428  0.1895 -0.6828
12214SOL     OW37857   3.646   7.114   0.600 -0.2547 -0.0151 -0.1953
12214SOL    HW137858   3.713   7.152   0.545  0.4364 -1.0707 -0.1075
12214SOL    HW237859   3.579   7.083   0.539 -0.3147  0.3631 -0.3246
12215SOL     OW37860   5.585   6.742   0.432  0.1572  0.4412  0.1154
12215SOL    HW137861   5.521   6.738   0.503 -0.2884  2.6849 -0.0923
12215SOL    HW237862   5.545   6.798   0.367  1.8676  0.9727 -0.5278
12216SOL     OW37863   5.490   6.915   0.260 -0.4329  0.0992  0.4167
12216SOL    HW137864   5.460   6.915   0.169  3.2778 -0.8969 -0.9682
12216SOL    HW237865   5.565   6.974   0.261  0.2888 -0.7448  2.5783
12217SOL     OW37866   3.954   6.666   1.308  0.7679  0.0067  0.2498
12217SOL    HW137867   3.980   6.754   1.332 -0.2923  0.7172 -1.0698
12217SOL    HW237868   3.889   6.640   1.373  1.5711 -0.0806  1.0269
12218SOL     OW37869   4.024   6.727   0.855  0.1389 -0.1235  0.0975
12218SOL    HW137870   4.074   6.650   0.830 -1.6909 -0.8495 -1.5822
12218SOL    HW237871   3.941   6.693   0.886 -0.5357  1.1478 -0.2389
12219SOL     OW37872   4.999   6.967   1.340 -0.1913 -0.6118  0.1424
12219SOL    HW137873   4.987   6.890   1.284  2.1558 -0.3476 -0.8544
12219SOL    HW237874   4.962   7.039   1.290  0.0163 -0.6941 -0.1308
12220SOL     OW37875   4.293   5.381   8.821 -0.5772 -0.0548 -0.3146
12220SOL    HW137876   4.339   5.302   8.848 -0.2842 -0.2768 -1.4522
12220SOL    HW237877   4.315   5.445   8.890  0.5994 -0.4492 -0.2963
12221SOL     OW37878   3.503   6.543   1.254  0.3862 -0.6057 -0.3255
12221SOL    HW137879   3.489   6.636   1.235 -1.0230 -0.8065 -0.3888
12221SOL    HW237880   3.590   6.540   1.294 -0.0612  0.9351  0.9117
12222SOL     OW37881   4.804   6.836   0.544 -0.0479 -0.0938  0.0827
12222SOL    HW137882   4.851   6.863   0.465 -1.1411  0.5633 -0.3586
12222SOL    HW237883   4.749   6.763   0.516 -0.0528 -0.2005  0.3634
12223SOL     OW37884   4.791   7.160   1.295  0.5994 -0.8808 -0.2458
12223SOL    HW137885   4.844   7.155   1.216  3.3339  0.1915  1.3864
12223SOL    HW237886   4.737   7.238   1.283  1.3085 -0.4720 -0.8855
12224SOL     OW37887   4.312   5.319   2.210  0.0538  0.1254 -0.2640
12224SOL    HW137888   4.266   5.235   2.214 -1.0734  0.2567 -4.9052
12224SOL    HW237889   4.403   5.297   2.232 -0.8659 -1.4420  2.4579
12225SOL     OW37890   5.206   7.371   1.012 -0.1139  0.3905  0.0585
12225SOL    HW137891   5.273   7.342   1.073 -0.2621  1.0924  0.5623
12225SOL    HW237892   5.179   7.291   0.966 -1.3225 -0.4994  2.1899
12226SOL     OW37893   5.775   6.964   0.489  0.3241 -0.4363  0.0126
12226SOL    HW137894   5.796   7.019   0.414  0.2659 -0.2528  0.1304
12226SOL    HW237895   5.701   6.910   0.460 -0.5515  0.5306  0.3483
12227SOL     OW37896   4.183   6.119   0.325  0.1940  0.9794 -0.2265
12227SOL    HW137897   4.242   6.096   0.253  1.4840  0.2336  1.0182
12227SOL    HW237898   4.098   6.086   0.298  0.8602 -0.1767 -0.9727
12228SOL     OW37899   4.903   5.687   1.001 -0.3925 -0.7876  0.0849
12228SOL    HW137900   4.818   5.731   1.014  0.7481  1.4232  0.5777
12228SOL    HW237901   4.918   5.693   0.907 -1.0547 -1.7778 -0.0979
12229SOL     OW37902   4.931   7.003   0.297 -0.1460 -0.1378  0.2225
12229SOL    HW137903   5.022   7.006   0.325  0.6808  0.3117 -2.2983
12229SOL    HW237904   4.929   6.939   0.226 -1.9197 -0.4789  0.5098
12230SOL     OW37905   4.669   6.257   1.298  0.5959  0.0683 -0.1935
12230SOL    HW137906   4.683   6.166   1.323 -0.8490  0.1648  1.1593
12230SOL    HW237907   4.686   6.306   1.379  0.1213  0.8691 -0.5686
12231SOL     OW37908   5.255   5.928   1.692  1.0156 -0.6690  0.3063
12231SOL    HW137909   5.231   5.905   1.782 -1.8294  0.5557 -0.0503
12231SOL    HW237910   5.187   5.887   1.638  1.2689  0.6653 -1.0786
12232SOL     OW37911   3.952   6.308   1.547 -0.0123  0.0087  0.5884
12232SOL    HW137912   3.857   6.313   1.539  0.1597  1.4804 -1.9175
12232SOL    HW237913   3.979   6.398   1.565  0.9324 -0.2069  0.3136
12233SOL     OW37914   4.741   6.041   1.504 -0.1208 -0.2328 -0.0658
12233SOL    HW137915   4.749   5.947   1.521 -3.2584 -0.3413  1.4993
12233SOL    HW237916   4.810   6.081   1.558 -0.4678 -1.5251  1.4271
12234SOL     OW37917   4.927   6.460   0.399  0.3502 -0.1396  0.0068
12234SOL    HW137918   5.008   6.509   0.411  0.0830  0.5551 -0.9329
12234SOL    HW237919   4.859   6.528   0.393 -0.2007 -0.6821  0.0384
12235SOL     OW37920   4.049   6.946   1.398 -0.4137 -0.6437  0.5659
12235SOL    HW137921   4.029   6.917   1.487  0.7379 -1.7968  0.4857
12235SOL    HW237922   4.141   6.924   1.386 -0.2185  0.6496 -0.4859
12236SOL     OW37923   3.613   7.427   1.542  0.0721 -0.4088 -0.0971
12236SOL    HW137924   3.674   7.491   1.578 -0.0197  0.6840 -1.7695
12236SOL    HW237925   3.664   7.347   1.533  0.6294 -0.1395  0.5675
12237SOL     OW37926   4.342   5.567   0.142 -0.8257 -0.4856  0.0967
12237SOL    HW137927   4.428   5.609   0.137  0.0534 -2.2028  0.0443
12237SOL    HW237928   4.285   5.634   0.178  0.8137  0.3247  1.3405
12238SOL     OW37929   5.489   6.147   1.338 -0.7909  0.8565 -0.1898
12238SOL    HW137930   5.516   6.155   1.247 -1.0459  0.1383 -0.3397
12238SOL    HW237931   5.557   6.093   1.379 -0.2026  1.9287  0.2703
12239SOL     OW37932   5.054   6.525   0.712 -0.5928 -0.1222 -0.4206
12239SOL    HW137933   5.097   6.481   0.638 -0.7579 -1.9171  0.5126
12239SOL    HW237934   5.094   6.612   0.714  1.2407 -0.8947 -1.0947
12240SOL     OW37935   4.239   5.272   0.833 -0.3768 -0.2287 -0.3308
12240SOL    HW137936   4.219   5.322   0.755  3.1892  0.3085 -1.0630
12240SOL    HW237937   4.200   5.321   0.905 -0.8916  1.0649 -1.4738
12241SOL     OW37938   4.285   7.259   0.529  0.0730 -0.3127  0.6143
12241SOL    HW137939   4.340   7.322   0.576 -1.5028 -0.1109  2.2826
12241SOL    HW237940   4.211   7.243   0.588 -1.2359 -1.2124 -1.1942
12242SOL     OW37941   4.121   7.163   0.868 -0.2586  0.5024 -0.3488
12242SOL    HW137942   4.153   7.074   0.857 -1.7311  0.0475 -1.1361
12242SOL    HW237943   4.109   7.195   0.779  0.4401  1.5774 -0.0793
12243SOL     OW37944   5.280   6.694   0.862  0.2588 -0.5127  0.1091
12243SOL    HW137945   5.218   6.630   0.897  0.9388 -2.7677 -2.4717
12243SOL    HW237946   5.363   6.673   0.904 -0.3636  2.0881  3.0614
12244SOL     OW37947   4.850   6.824   1.581 -0.0718 -0.1287  0.5501
12244SOL    HW137948   4.917   6.825   1.512 -0.2498 -1.1993  0.3557
12244SOL    HW237949   4.900   6.835   1.662  0.0607  2.1716  0.2378
12245SOL     OW37950   4.372   6.869   8.834  0.0179  0.1032 -0.2953
12245SOL    HW137951   4.453   6.844   8.877  0.0641  0.6200 -0.0759
12245SOL    HW237952   4.318   6.790   8.836  0.4113 -0.1646 -0.2042
12246SOL     OW37953   5.356   6.260   0.596  0.0083 -0.1501  0.1297
12246SOL    HW137954   5.367   6.264   0.691 -0.7100  0.6950  0.1883
12246SOL    HW237955   5.383   6.346   0.565  2.5777 -1.1463 -0.7313
12247SOL     OW37956   4.636   6.722   1.785 -0.3221  0.5253  0.2470
12247SOL    HW137957   4.661   6.659   1.853  1.2329  1.8862  1.0146
12247SOL    HW237958   4.706   6.714   1.719 -1.2207  0.0184 -0.6727
12248SOL     OW37959   4.881   7.187   0.798 -0.4484 -0.1792  0.2327
12248SOL    HW137960   4.835   7.266   0.770 -0.1953 -0.2619 -0.4494
12248SOL    HW237961   4.947   7.173   0.730  0.3681 -0.2482  1.0206
12249SOL     OW37962   3.715   5.423   1.745 -0.6247 -0.6689  0.3657
12249SOL    HW137963   3.802   5.407   1.783  0.3544 -0.4870 -1.6527
12249SOL    HW237964   3.733   5.468   1.663 -2.7977  1.8272  1.1419
12250SOL     OW37965   5.142   6.627   0.441 -0.5098  0.0634  0.1763
12250SOL    HW137966   5.132   6.713   0.481 -3.5994  0.6531 -1.5696
12250SOL    HW237967   5.177   6.645   0.353 -0.2835 -0.5367  0.1390
12251SOL     OW37968   4.066   7.531   0.443 -0.5082  0.6558  0.2073
12251SOL    HW137969   4.110   7.447   0.449 -1.3989  0.2478  1.9864
12251SOL    HW237970   4.016   7.527   0.362  0.4943  0.0231 -0.4001
12252SOL     OW37971   4.700   5.030   0.391 -0.2860 -0.4775 -0.0617
12252SOL    HW137972   4.612   5.041   0.429 -0.8339 -0.7746 -1.1974
12252SOL    HW237973   4.760   5.055   0.461 -1.2755 -0.4868  0.8129
12253SOL     OW37974   3.971   7.206   1.864 -0.3723 -0.2717  0.0252
12253SOL    HW137975   3.931   7.211   1.951 -0.6754  0.2080 -0.1368
12253SOL    HW237976   4.040   7.140   1.873  1.1802  1.4276  1.2718
12254SOL     OW37977   4.956   7.481   1.025  1.0878  0.5882 -0.8210
12254SOL    HW137978   5.028   7.436   0.982  1.0779 -1.0148  0.7436
12254SOL    HW237979   4.970   7.466   1.119 -1.2057  0.3047 -0.4619
12255SOL     OW37980   4.135   6.179   0.822  0.2928 -0.5123  0.3598
12255SOL    HW137981   4.227   6.183   0.851 -0.1810  1.3015  1.8536
12255SOL    HW237982   4.090   6.134   0.893  0.0242 -1.4507 -0.4014
12256SOL     OW37983   5.111   5.827   1.466 -0.8123  0.0455  0.4548
12256SOL    HW137984   5.098   5.855   1.375 -1.5806  3.0460  1.3860
12256SOL    HW237985   5.182   5.762   1.461  0.1517  1.1636 -2.1380
12257SOL     OW37986   4.740   5.425   1.333  0.3987  0.0618  0.6095
12257SOL    HW137987   4.825   5.406   1.372  0.2542 -0.2118  0.7975
12257SOL    HW237988   4.697   5.339   1.327  0.8054 -0.0677 -1.0872
12258SOL     OW37989   4.444   7.350   1.418  0.5141 -0.3431 -0.1561
12258SOL    HW137990   4.511   7.351   1.350 -1.0797  1.6496 -1.8312
12258SOL    HW237991   4.366   7.387   1.376 -0.8853 -0.1060  2.4376
12259SOL     OW37992   4.925   6.204   1.658  0.3539  0.6902  0.3746
12259SOL    HW137993   4.941   6.119   1.699 -1.9441 -0.1355 -0.3177
12259SOL    HW237994   4.851   6.240   1.707  0.2982  1.5813 -0.3553
12260SOL     OW37995   4.596   6.313   0.729  0.1901 -0.1866 -0.3904
12260SOL    HW137996   4.668   6.375   0.743 -0.3084  0.0862  1.1991
12260SOL    HW237997   4.639   6.230   0.709  0.8962  0.3472 -1.1616
12261SOL     OW37998   4.465   5.929   0.891  0.0033 -0.0949  0.3719
12261SOL    HW137999   4.414   6.009   0.904  0.5902 -0.0740  2.9834
12261SOL    HW238000   4.499   5.937   0.802 -2.5156  1.0169 -0.5932
12262SOL     OW38001   4.209   5.417   0.598  1.0217  0.2566 -0.1370
12262SOL    HW138002   4.118   5.445   0.609  0.9566  0.0641 -0.1886
12262SOL    HW238003   4.203   5.330   0.558  1.1917 -0.2804  0.9580
12263SOL     OW38004   4.721   6.620   0.383  0.4105 -0.1972  0.3914
12263SOL    HW138005   4.669   6.642   0.306  0.2742  2.1429  1.0845
12263SOL    HW238006   4.664   6.564   0.435 -0.0453 -0.5931 -0.5185
12264SOL     OW38007   4.968   5.610   0.588  0.2484 -0.4374  0.2194
12264SOL    HW138008   4.951   5.621   0.494 -0.7066 -1.5101  0.2275
12264SOL    HW238009   5.062   5.593   0.594 -0.1043 -3.6914 -0.9828
12265SOL     OW38010   5.175   6.040   1.976  0.5406 -0.3944 -0.1799
12265SOL    HW138011   5.269   6.039   1.996  0.5724  2.8068  0.3980
12265SOL    HW238012   5.133   6.029   2.061  0.5289  2.1946  0.2240
12266SOL     OW38013   4.707   6.920   0.854  0.1261 -0.4968  0.0942
12266SOL    HW138014   4.748   7.006   0.866  1.3597 -1.1075  0.5229
12266SOL    HW238015   4.631   6.921   0.912 -1.3356  1.1571 -1.7170
12267SOL     OW38016   4.431   6.242   1.154 -0.2125  0.1265  0.2510
12267SOL    HW138017   4.368   6.203   1.213 -0.0521 -0.1213  0.2617
12267SOL    HW238018   4.515   6.237   1.200 -0.3423  1.4017  0.6765
12268SOL     OW38019   5.085   7.449   1.323  0.7613 -0.1351  0.0686
12268SOL    HW138020   5.105   7.356   1.329 -0.9904 -0.4646  2.1160
12268SOL    HW238021   5.169   7.493   1.334  1.4139 -1.4505  0.5678
12269SOL     OW38022   4.730   5.494   0.269  0.0220 -0.3284 -0.0618
12269SOL    HW138023   4.685   5.533   0.194  0.0704 -0.8818 -0.3859
12269SOL    HW238024   4.813   5.541   0.274  0.6029 -1.1880 -1.2004
12270SOL     OW38025   4.161   6.131   1.560 -0.0621  0.6909  0.3880
12270SOL    HW138026   4.241   6.183   1.554  0.1170  0.6776  2.1977
12270SOL    HW238027   4.092   6.190   1.529  0.4954  1.0346 -0.2390
12271SOL     OW38028   4.353   5.762   1.343  0.4196 -0.8933  0.4440
12271SOL    HW138029   4.429   5.720   1.303  0.8337 -2.2761  2.4971
12271SOL    HW238030   4.388   5.806   1.421 -0.3164  1.8038 -0.6498
12272SOL     OW38031   4.538   5.588   0.760 -0.0472 -0.1151  0.4617
12272SOL    HW138032   4.461   5.641   0.740 -0.0526 -0.1556  0.3791
12272SOL    HW238033   4.546   5.526   0.688 -0.0118 -0.1958  0.5333
12273SOL     OW38034   4.690   5.317   0.734 -0.0526  0.5505  0.2382
12273SOL    HW138035   4.628   5.248   0.757  1.1169 -0.5895  0.1156
12273SOL    HW238036   4.750   5.321   0.809  0.7492  0.3980 -0.3782
12274SOL     OW38037   5.185   7.088   0.952  0.6811  0.6197 -0.1326
12274SOL    HW138038   5.244   7.032   1.003 -0.0100 -1.1061 -1.1770
12274SOL    HW238039   5.191   7.056   0.863  1.2251  3.0605 -1.0583
12275SOL     OW38040   4.800   6.411   1.129 -0.0268  0.2965 -0.2022
12275SOL    HW138041   4.751   6.349   1.183  0.3776  1.7779  1.9655
12275SOL    HW238042   4.891   6.380   1.133  0.4080  1.6613  1.9781
12276SOL     OW38043   5.527   6.101   0.468 -0.4873 -0.1930 -0.3577
12276SOL    HW138044   5.464   6.170   0.491  0.3761  0.4412  0.1897
12276SOL    HW238045   5.474   6.022   0.458 -1.4428  0.4483 -0.5110
12277SOL     OW38046   3.782   6.833   0.111 -0.9492 -0.2657 -0.0590
12277SOL    HW138047   3.714   6.832   0.178  0.6191 -1.3879  1.6081
12277SOL    HW238048   3.813   6.924   0.109 -0.5102 -0.3598  1.3245
12278SOL     OW38049   5.191   7.037   0.667  0.0185 -0.9258 -0.5516
12278SOL    HW138050   5.237   7.121   0.667 -2.6382  0.6766 -1.9887
12278SOL    HW238051   5.171   7.020   0.575 -1.2312 -2.0901 -0.1046
12279SOL     OW38052   5.069   6.363   0.159  0.7027 -0.1687  0.8643
12279SOL    HW138053   5.072   6.449   0.118 -0.6433 -1.0862 -1.3140
12279SOL    HW238054   5.006   6.374   0.231  0.4343  0.6284  0.5212
12280SOL     OW38055   4.186   5.785   0.262 -0.0822  0.0368  0.4796
12280SOL    HW138056   4.150   5.747   0.342  0.8010 -0.7965  0.5105
12280SOL    HW238057   4.222   5.869   0.290 -0.2481 -0.0141  0.8531
12281SOL     OW38058   5.367   6.951   1.847 -0.2537  0.0337 -0.6081
12281SOL    HW138059   5.385   7.044   1.861 -0.5023  0.0367 -0.2731
12281SOL    HW238060   5.446   6.917   1.805  0.9514 -0.1423  1.6118
12282SOL     OW38061   4.414   7.083   1.452 -0.2486  0.0460  0.2105
12282SOL    HW138062   4.497   7.047   1.421 -0.4684  0.2115 -0.5777
12282SOL    HW238063   4.429   7.178   1.455 -0.2092  0.0304  0.6904
12283SOL     OW38064   5.456   7.213   1.873  0.1897  0.4016 -0.2902
12283SOL    HW138065   5.539   7.234   1.917 -0.5042  1.4136  0.5767
12283SOL    HW238066   5.449   7.279   1.804  0.3004  0.0685 -0.6180
12284SOL     OW38067   4.678   6.659   1.421 -0.3727  0.0357  0.1505
12284SOL    HW138068   4.749   6.650   1.358  0.7286 -0.6708  1.4292
12284SOL    HW238069   4.711   6.723   1.485 -1.1526  0.1887  0.4100
12285SOL     OW38070   5.207   6.729   1.190  0.2993 -0.1360  0.1989
12285SOL    HW138071   5.185   6.681   1.270  0.0048 -0.0753  0.1552
12285SOL    HW238072   5.203   6.663   1.121  0.5714 -0.1922  0.2317
12286SOL     OW38073   4.715   5.310   1.069 -0.5548 -0.5225 -1.0388
12286SOL    HW138074   4.649   5.366   1.029 -1.5091 -0.6516  0.3000
12286SOL    HW238075   4.771   5.370   1.118 -1.2642 -0.6470 -0.0367
12287SOL     OW38076   4.819   6.172   2.215 -0.6558 -0.4137  0.4545
12287SOL    HW138077   4.878   6.100   2.235 -2.6433 -1.9592  1.1119
12287SOL    HW238078   4.815   6.223   2.297  1.2388  0.8966 -0.2022
12288SOL     OW38079   4.953   5.984   0.870  0.2126  0.6665  0.4060
12288SOL    HW138080   4.904   5.905   0.847  0.1119  0.0289  2.5385
12288SOL    HW238081   4.907   6.018   0.947  2.4031  0.6972  1.7770
12289SOL     OW38082   4.385   5.850   1.619  0.4426 -0.6371 -0.1649
12289SOL    HW138083   4.412   5.768   1.659 -0.7239 -1.7356 -1.5310
12289SOL    HW238084   4.313   5.882   1.674  0.8355 -0.5577  0.3118
12290SOL     OW38085   5.029   5.349   1.235  0.1455  0.3116  0.0571
12290SOL    HW138086   5.061   5.436   1.212  1.3391  0.1758  1.1130
12290SOL    HW238087   4.996   5.358   1.324 -1.2538  0.0385 -0.4023
12291SOL     OW38088   3.552   6.895   1.470 -0.1071 -0.1124 -0.5782
12291SOL    HW138089   3.498   6.972   1.488 -0.8248 -0.6652 -0.3162
12291SOL    HW238090   3.639   6.930   1.450 -0.2772  0.7218  0.1296
12292SOL     OW38091   4.243   6.509   0.579  0.0205  0.1930  0.7235
12292SOL    HW138092   4.201   6.514   0.665  0.4085 -1.1777  1.0083
12292SOL    HW238093   4.256   6.415   0.564  1.4440  0.4973 -0.1106
12293SOL     OW38094   4.224   5.506   1.044  0.1463  0.7546 -0.1270
12293SOL    HW138095   4.133   5.485   1.065  0.2973  2.6344  3.1370
12293SOL    HW238096   4.219   5.576   0.979 -0.8094  1.3863  0.5968
12294SOL     OW38097   5.038   6.801   0.680  0.4176 -0.3589  0.1248
12294SOL    HW138098   5.082   6.884   0.699  1.0549 -0.7389  0.3584
12294SOL    HW238099   4.955   6.826   0.641  1.6694  0.4166 -2.2777
12295SOL     OW38100   5.234   6.718   1.852  0.1600  0.3806  0.5377
12295SOL    HW138101   5.278   6.802   1.838 -0.1734  0.3350 -0.9720
12295SOL    HW238102   5.259   6.666   1.776 -1.3453 -0.1347  0.3741
12296SOL     OW38103   5.267   5.931   0.494  0.0783 -0.0453  0.4140
12296SOL    HW138104   5.313   5.934   0.578  2.9285  0.7339 -1.0399
12296SOL    HW238105   5.230   6.018   0.484 -0.9490 -0.3736  1.1520
12297SOL     OW38106   3.832   7.248   1.612  0.2502 -0.1274  0.2556
12297SOL    HW138107   3.873   7.212   1.691  0.4084 -0.3726  0.0631
12297SOL    HW238108   3.905   7.260   1.551 -0.2721 -3.4456 -1.2335
12298SOL     OW38109   3.972   6.570   1.619  0.0780 -0.1722  0.2946
12298SOL    HW138110   3.974   6.665   1.606  0.2731 -0.1750  0.3025
12298SOL    HW238111   4.061   6.548   1.647  0.5328 -0.6068 -1.4100
12299SOL     OW38112   5.084   6.305   1.437 -0.1152 -0.0425 -0.3267
12299SOL    HW138113   5.011   6.265   1.483  0.6047 -0.0190  0.8715
12299SOL    HW238114   5.159   6.250   1.457  0.5768  1.0026  0.0723
12300SOL     OW38115   4.992   5.719   1.933  0.4088  0.4211 -0.5479
12300SOL    HW138116   4.978   5.662   2.009 -0.1928  3.3158  1.6869
12300SOL    HW238117   5.082   5.701   1.906  0.5238 -0.9451  0.6318
12301SOL     OW38118   4.277   5.196   1.740 -0.3558 -0.1163  0.0448
12301SOL    HW138119   4.358   5.197   1.688 -0.5817 -1.0567 -0.3475
12301SOL    HW238120   4.300   5.242   1.821  0.0757  1.1360 -0.7607
12302SOL     OW38121   4.329   6.067   1.310 -0.0882 -0.5449 -0.0826
12302SOL    HW138122   4.298   6.019   1.387  1.0439  0.7161  1.2043
12302SOL    HW238123   4.418   6.036   1.296  0.7477  1.2095  0.9008
12303SOL     OW38124   5.116   6.509   0.976 -0.8102  0.0405  0.1336
12303SOL    HW138125   5.052   6.486   0.909 -1.0840  0.6904  0.1663
12303SOL    HW238126   5.084   6.465   1.055  0.4626 -2.2071 -0.5178
12304SOL     OW38127   4.806   6.055   0.226  0.9224 -0.0508  0.4134
12304SOL    HW138128   4.846   6.079   0.310 -0.9815  1.0778  1.0734
12304SOL    HW238129   4.719   6.022   0.250  0.5978 -0.3466 -1.0855
12305SOL     OW38130   4.104   5.715   1.384  0.3101  0.3670 -0.3518
12305SOL    HW138131   4.197   5.733   1.369  0.4245  0.6935  0.6366
12305SOL    HW238132   4.101   5.677   1.472 -0.1637 -2.5805 -1.5357
12306SOL     OW38133   4.051   6.711   0.509 -0.1389  0.5592 -0.0963
12306SOL    HW138134   4.130   6.665   0.539 -0.7724 -0.6701 -0.2647
12306SOL    HW238135   4.081   6.800   0.491  1.1070  0.2461  0.3161
12307SOL     OW38136   4.393   6.184   0.864 -0.2214  0.5562 -0.0143
12307SOL    HW138137   4.399   6.210   0.956 -2.0955  0.3595  0.1917
12307SOL    HW238138   4.460   6.237   0.820 -0.6639  2.1662  1.1616
12308SOL     OW38139   5.622   6.327   1.790 -0.2365  0.1355  0.2679
12308SOL    HW138140   5.684   6.259   1.813 -0.5601 -0.2076  0.1456
12308SOL    HW238141   5.562   6.332   1.865  1.3843  2.2297  1.5374
12309SOL     OW38142   4.374   5.614   0.515  0.4650 -0.3901 -0.0981
12309SOL    HW138143   4.313   5.553   0.555  0.6364 -0.5891 -0.1378
12309SOL    HW238144   4.445   5.559   0.482  0.5404 -0.1850 -0.2791
12310SOL     OW38145   5.274   5.860   0.227  0.3876 -0.0784 -0.1251
12310SOL    HW138146   5.186   5.849   0.190  0.4135  2.7990 -1.2858
12310SOL    HW238147   5.259   5.883   0.319 -0.1703  1.1155 -0.4878
12311SOL     OW38148   4.897   6.056   1.157  0.1133  0.3363 -0.7074
12311SOL    HW138149   4.819   6.060   1.213  0.3973 -1.4722 -0.1147
12311SOL    HW238150   4.949   5.984   1.194  0.6373 -0.4780 -2.8985
12312SOL     OW38151   4.733   6.545   1.963 -0.2617  0.2243  0.5403
12312SOL    HW138152   4.699   6.525   2.050  0.1299 -0.6404  0.5108
12312SOL    HW238153   4.812   6.491   1.955 -0.7683 -0.3918 -0.6693
12313SOL     OW38154   5.671   7.081   1.341 -0.1031 -0.1243 -0.6101
12313SOL    HW138155   5.728   7.034   1.280  0.5563 -0.0693 -0.0491
12313SOL    HW238156   5.655   7.165   1.298  1.0606  0.2584 -0.3521
12314SOL     OW38157   3.783   6.270   1.986  0.1853  0.0270 -0.1909
12314SOL    HW138158   3.711   6.333   1.978  0.4743  0.5320  1.0109
12314SOL    HW238159   3.758   6.198   1.929 -1.4429  0.0422  0.4678
12315SOL     OW38160   5.031   5.899   0.142  0.1989  0.4263 -0.0902
12315SOL    HW138161   4.956   5.940   0.186  0.3380  1.5928 -0.8757
12315SOL    HW238162   5.068   5.970   0.089  1.4501 -0.3218 -0.2351
12316SOL     OW38163   4.830   6.063   8.736 -0.3606  0.1790 -0.7699
12316SOL    HW138164   4.872   6.017   8.664 -0.9349 -0.2033 -0.8714
12316SOL    HW238165   4.898   6.074   8.802  1.2784  3.8143 -2.7740
12317SOL     OW38166   4.954   7.147   1.067  0.5361 -0.1365  0.6179
12317SOL    HW138167   4.906   7.153   0.984 -0.0215  1.0445  0.9890
12317SOL    HW238168   5.046   7.144   1.042  0.3665  0.0806 -0.0582
12318SOL     OW38169   4.502   6.725   1.194  0.4405  0.1125 -0.3070
12318SOL    HW138170   4.578   6.705   1.248  2.0860  3.5165 -1.0717
12318SOL    HW238171   4.512   6.670   1.117  1.6892 -0.1328  0.0045
12319SOL     OW38172   4.207   5.722   0.869 -0.6234 -0.3454 -0.2848
12319SOL    HW138173   4.200   5.784   0.796 -0.6259  2.2985  1.7787
12319SOL    HW238174   4.228   5.777   0.944  2.3665 -3.2185  1.2402
12320SOL     OW38175   4.842   5.786   1.540  0.1388 -0.7633  0.1167
12320SOL    HW138176   4.841   5.702   1.586 -1.2412 -0.8719 -0.0848
12320SOL    HW238177   4.935   5.810   1.537  0.3344 -0.9712  2.5425
12321SOL     OW38178   4.538   5.593   1.251 -0.0312  0.5845 -0.2421
12321SOL    HW138179   4.515   5.540   1.175 -3.0010  1.5509 -0.1415
12321SOL    HW238180   4.626   5.563   1.276  0.5758 -0.5328 -3.3289
12322SOL     OW38181   3.897   7.148   1.007  0.5843 -0.4260  0.2326
12322SOL    HW138182   3.861   7.086   0.944  1.2295 -1.0350  0.4489
12322SOL    HW238183   3.984   7.168   0.973  0.7668 -0.4174  0.7014
12323SOL     OW38184   4.257   7.115   1.207 -0.2920 -0.1400 -0.2937
12323SOL    HW138185   4.214   7.042   1.163 -3.2154  1.0372  0.3301
12323SOL    HW238186   4.306   7.074   1.279 -1.3216 -1.5467 -0.3434
12324SOL     OW38187   4.669   5.973   2.054 -0.2853 -0.4261 -0.1910
12324SOL    HW138188   4.584   6.013   2.070  0.4422  0.6073  1.3736
12324SOL    HW238189   4.732   6.045   2.060  0.9977 -1.5989  2.0327
12325SOL     OW38190   4.149   6.468   0.830 -0.3043 -0.4896 -0.6241
12325SOL    HW138191   4.145   6.374   0.815  0.5328 -0.8127  0.9506
12325SOL    HW238192   4.119   6.479   0.920  1.7735  0.4798  0.0160
12326SOL     OW38193   3.809   5.762   1.613  0.6655  0.0815  0.5872
12326SOL    HW138194   3.815   5.747   1.707  1.0451 -1.0776  0.3885
12326SOL    HW238195   3.789   5.676   1.576  1.8736  0.2351 -0.5069
12327SOL     OW38196   5.159   6.575   1.407 -0.0913 -0.3583  0.2878
12327SOL    HW138197   5.124   6.488   1.387 -2.0992  0.6114 -0.7003
12327SOL    HW238198   5.177   6.572   1.500  0.7671 -2.1078  0.1170
12328SOL     OW38199   4.561   5.894   0.276 -0.5306 -0.0644 -0.4184
12328SOL    HW138200   4.517   5.976   0.255 -1.8416 -0.0205  2.1034
12328SOL    HW238201   4.515   5.862   0.354  0.8023 -2.5348 -0.5598
12329SOL     OW38202   5.264   6.122   1.482 -0.3877 -0.3010  0.1564
12329SOL    HW138203   5.344   6.110   1.431 -0.1342 -0.9706  0.7016
12329SOL    HW238204   5.261   6.046   1.540 -0.7139  0.4043  1.0767
12330SOL     OW38205   4.394   6.826   1.837 -0.1568 -0.6628 -0.2750
12330SOL    HW138206   4.482   6.794   1.821 -0.5460 -1.2988 -1.2941
12330SOL    HW238207   4.344   6.749   1.865 -0.5784 -0.4911 -0.5320
12331SOL     OW38208   4.574   5.977   1.267 -0.6742 -0.5915 -0.2333
12331SOL    HW138209   4.633   5.954   1.339 -2.1389 -1.8130  0.6594
12331SOL    HW238210   4.596   5.914   1.198  0.7468  0.5943 -0.8950
12332SOL     OW38211   4.694   7.691   1.220 -0.4568  0.0313  0.1697
12332SOL    HW138212   4.755   7.636   1.270  0.1315  0.8146  0.3308
12332SOL    HW238213   4.674   7.764   1.279 -0.8303  0.2581 -0.2344
12333SOL     OW38214   4.351   6.039   0.139 -0.3414 -0.2566  0.4798
12333SOL    HW138215   4.425   6.081   0.095 -2.3858 -0.0667 -3.1071
12333SOL    HW238216   4.317   5.976   0.075 -3.6311  0.0854  1.7071
12334SOL     OW38217   3.779   7.041   1.388  0.1895 -0.0045  0.3918
12334SOL    HW138218   3.788   7.074   1.478  0.0342  0.7606  0.1270
12334SOL    HW238219   3.863   7.060   1.347 -0.1605  0.7782  0.0120
12335SOL     OW38220   4.880   6.700   1.215  0.5156 -0.5876 -0.6766
12335SOL    HW138221   4.852   6.616   1.180 -0.5593 -0.7353  0.4734
12335SOL    HW238222   4.935   6.738   1.147  0.0717 -1.7140 -1.6780
12336SOL     OW38223   4.855   6.365   8.682  0.2397  0.8336  0.2715
12336SOL    HW138224   4.768   6.402   8.700 -0.8340 -1.1410 -0.5031
12336SOL    HW238225   4.842   6.270   8.691  2.1391  0.4567 -0.6218
12337SOL     OW38226   5.525   7.757   0.790 -0.3246  0.1857  0.1421
12337SOL    HW138227   5.449   7.725   0.838 -1.3370  2.2349  0.0335
12337SOL    HW238228   5.600   7.718   0.835 -1.3655 -0.5193  1.3402
12338SOL     OW38229   5.110   7.089   1.549  1.1819  0.1163  0.2854
12338SOL    HW138230   5.079   7.031   1.480  1.0597 -0.7189  1.0266
12338SOL    HW238231   5.202   7.103   1.530  0.9442  0.6223 -0.5453
12339SOL     OW38232   3.297   6.657   0.260 -0.2898 -0.0085 -0.5673
12339SOL    HW138233   3.325   6.647   0.351  0.2850 -1.0816 -0.8427
12339SOL    HW238234   3.225   6.721   0.264  0.1919  0.5018  0.5384
12340SOL     OW38235   4.013   6.743   2.005  0.5559  0.0355 -0.1718
12340SOL    HW138236   3.934   6.694   2.029  0.0820  1.3143  1.0658
12340SOL    HW238237   4.084   6.701   2.054  0.2773  0.1082  0.3075
12341SOL     OW38238   4.574   5.434   0.483  0.2156  0.8237  0.3004
12341SOL    HW138239   4.621   5.365   0.530 -1.0205  0.8853  1.6862
12341SOL    HW238240   4.626   5.447   0.403  1.0814 -0.9326  0.5106
12342SOL     OW38241   4.961   5.635   0.315 -0.3625 -0.3346 -0.0214
12342SOL    HW138242   4.974   5.727   0.290  0.1069 -0.4512 -0.1956
12342SOL    HW238243   5.033   5.588   0.274  1.0131 -0.4011  2.3034
12343SOL     OW38244   4.632   7.075   0.576 -0.8753 -0.5495  0.4009
12343SOL    HW138245   4.698   7.013   0.606 -0.4349 -0.2449  0.0778
12343SOL    HW238246   4.616   7.132   0.651 -0.4311 -0.3464  0.3481
12344SOL     OW38247   3.869   7.254   2.108  0.2326  0.3059  0.2232
12344SOL    HW138248   3.890   7.334   2.156 -1.5178  1.0502 -0.1771
12344SOL    HW238249   3.847   7.191   2.175  1.8553  0.0436  0.5565
12345SOL     OW38250   4.907   6.173   0.479  0.8339 -0.2868  0.7645
12345SOL    HW138251   4.879   6.264   0.469 -1.3170 -1.0830 -1.2974
12345SOL    HW238252   5.002   6.177   0.471  0.7033  1.6523 -0.6849
12346SOL     OW38253   4.347   6.287   1.814 -0.2707 -0.4353  0.9931
12346SOL    HW138254   4.396   6.231   1.753 -0.0745  0.1523  0.6064
12346SOL    HW238255   4.379   6.261   1.901  1.0072  0.1927  0.7361
12347SOL     OW38256   4.158   7.137   8.733  0.1375 -0.0042 -0.5816
12347SOL    HW138257   4.220   7.150   8.805  0.7723  0.8388 -1.2584
12347SOL    HW238258   4.183   7.203   8.668 -1.7573  0.6476 -0.6928
12348SOL     OW38259   5.342   7.548   1.408  0.0553 -0.0664  0.1481
12348SOL    HW138260   5.422   7.507   1.442  1.6157  2.8421  0.4100
12348SOL    HW238261   5.291   7.569   1.487 -1.3106 -2.3777 -0.0452
12349SOL     OW38262   5.420   5.490   1.079  0.4138 -0.4991  0.3967
12349SOL    HW138263   5.427   5.466   0.987 -0.1991 -0.5527  0.3638
12349SOL    HW238264   5.327   5.480   1.100  0.6591 -1.1841  1.2094
12350SOL     OW38265   4.583   5.920   0.663  0.2858  0.5603  0.2815
12350SOL    HW138266   4.636   5.842   0.682 -0.6907 -0.0264  0.6712
12350SOL    HW238267   4.645   5.993   0.666  1.3777 -0.2822 -0.9558
12351SOL     OW38268   4.397   6.657   0.302 -0.1476  0.0054  0.0013
12351SOL    HW138269   4.393   6.562   0.317  3.0272 -0.3427 -0.7684
12351SOL    HW238270   4.344   6.671   0.223 -0.9009 -1.0673  0.2970
12352SOL     OW38271   4.472   6.135   1.632  0.2854 -0.0097  0.9031
12352SOL    HW138272   4.442   6.046   1.648 -1.4967  0.2871 -0.5504
12352SOL    HW238273   4.558   6.125   1.591  0.3810 -1.0133  1.3301
12353SOL     OW38274   4.527   6.484   0.530 -0.0155 -0.4254  0.0093
12353SOL    HW138275   4.529   6.422   0.603  1.6729 -1.2618 -0.6952
12353SOL    HW238276   4.442   6.527   0.538 -0.5935 -1.7266  1.4322
12354SOL     OW38277   4.594   6.813   0.150 -0.2886  0.1525 -0.0102
12354SOL    HW138278   4.633   6.898   0.170 -0.1480  0.0841  0.0038
12354SOL    HW238279   4.551   6.787   0.232 -0.6150  0.3625 -0.1129
12355SOL     OW38280   4.350   6.834   1.553  0.1538 -0.2758  0.7612
12355SOL    HW138281   4.351   6.925   1.520  0.9481 -0.8558 -0.9310
12355SOL    HW238282   4.345   6.843   1.648 -1.7003  1.5290  0.5766
12356SOL     OW38283   5.479   6.659   1.571 -0.6277  0.0584  0.8322
12356SOL    HW138284   5.519   6.643   1.656  0.6707 -1.4363 -0.0124
12356SOL    HW238285   5.468   6.573   1.532 -0.0258  0.7606 -1.0163
12357SOL     OW38286   4.962   6.799   0.960  0.0682  0.4827 -0.0021
12357SOL    HW138287   5.001   6.761   0.882 -1.6299 -2.5053  0.4472
12357SOL    HW238288   4.888   6.850   0.927 -0.0887 -0.0011 -0.4130
12358SOL     OW38289   4.633   5.795   1.066 -0.5387  1.0649  0.0016
12358SOL    HW138290   4.587   5.844   0.998 -0.2436  0.5595 -0.5718
12358SOL    HW238291   4.576   5.721   1.085 -0.1597  0.6422 -0.4452
12359SOL     OW38292   4.026   6.779   0.224 -0.2824  0.2160 -0.5196
12359SOL    HW138293   3.937   6.796   0.192 -0.2175  2.0881  0.1403
12359SOL    HW238294   4.016   6.768   0.318  0.2951  1.9177 -0.2139
12360SOL     OW38295   5.222   5.901   0.880  0.2491 -0.1138 -0.7756
12360SOL    HW138296   5.147   5.950   0.847  1.3380  0.4836 -2.4905
12360SOL    HW238297   5.246   5.946   0.961 -1.9858 -1.1184  0.5509
12361SOL     OW38298   3.588   6.515   0.215 -0.1570 -0.4301  0.2859
12361SOL    HW138299   3.659   6.455   0.242  1.3166  1.5097  0.9294
12361SOL    HW238300   3.572   6.569   0.292 -1.7206 -0.2182 -0.1678
12362SOL     OW38301   3.808   6.619   2.215 -0.0641 -0.6609 -0.0988
12362SOL    HW138302   3.802   6.682   2.143  0.8094 -1.2286 -0.6873
12362SOL    HW238303   3.807   6.672   2.294 -1.9657 -0.0724 -0.4659
12363SOL     OW38304   3.934   5.390   0.948  0.2671 -0.1419  0.3989
12363SOL    HW138305   3.932   5.418   1.040 -0.4467 -1.4586  0.8098
12363SOL    HW238306   3.929   5.295   0.952 -0.5127 -0.1920 -1.0323
12364SOL     OW38307   3.948   6.035   0.204 -0.2427  0.5059 -0.0270
12364SOL    HW138308   3.918   6.109   0.152 -0.8864  1.9424  2.2733
12364SOL    HW238309   3.933   5.959   0.148  0.3787  2.0459 -2.4379
12365SOL     OW38310   4.715   6.387   1.540  0.2022  0.2186  0.7881
12365SOL    HW138311   4.704   6.364   1.632 -1.3367  2.1136  1.1357
12365SOL    HW238312   4.678   6.474   1.532 -1.2586 -0.5254 -1.9627
12366SOL     OW38313   3.939   5.574   0.080 -0.0413  0.0370  0.4506
12366SOL    HW138314   3.994   5.559   0.157  2.0330 -0.7687 -1.1068
12366SOL    HW238315   3.974   5.515   0.013 -2.1639  0.2701 -0.9616
12367SOL     OW38316   4.341   6.892   0.754 -0.9302 -0.2661  0.1405
12367SOL    HW138317   4.428   6.930   0.765 -0.9901  0.1116 -0.6557
12367SOL    HW238318   4.312   6.872   0.844 -0.5346  0.7391  0.5072
12368SOL     OW38319   4.392   6.602   1.443 -0.2041 -0.2969 -0.1034
12368SOL    HW138320   4.374   6.688   1.481 -1.2523  0.7464 -2.7273
12368SOL    HW238321   4.469   6.615   1.387 -0.8543 -0.8202 -1.1627
12369SOL     OW38322   5.333   7.559   0.867 -0.0668  0.8695 -0.1350
12369SOL    HW138323   5.252   7.515   0.894  1.0828 -1.4422 -0.2481
12369SOL    HW238324   5.375   7.584   0.950  0.0802  0.1679  0.0116
12370SOL     OW38325   4.648   5.765   1.881 -0.3041  0.0955 -0.5771
12370SOL    HW138326   4.665   5.834   1.945  0.4070  0.1999 -0.8759
12370SOL    HW238327   4.729   5.714   1.878 -1.3060 -1.7042  0.7721
12371SOL     OW38328   5.381   6.588   2.015  0.5214 -0.3257  0.3092
12371SOL    HW138329   5.311   6.631   1.967  0.6681  1.5691  1.6671
12371SOL    HW238330   5.459   6.599   1.960  0.1779 -0.6108 -0.2460
12372SOL     OW38331   4.108   6.972   1.877 -0.1540 -0.0963  0.1738
12372SOL    HW138332   4.085   6.899   1.935  0.1536 -0.5482 -0.2619
12372SOL    HW238333   4.186   7.010   1.916  0.8097 -1.1919 -0.5959
12373SOL     OW38334   5.345   6.878   1.465 -0.6342 -0.0048 -0.1568
12373SOL    HW138335   5.417   6.821   1.495 -0.9531 -0.0721  0.5053
12373SOL    HW238336   5.291   6.822   1.410  0.2004  0.2364 -1.2674
12374SOL     OW38337   5.499   5.873   0.716 -0.1989  0.6541  0.0054
12374SOL    HW138338   5.466   5.882   0.806  0.1785 -0.2734  0.2445
12374SOL    HW238339   5.580   5.924   0.715  0.4508 -0.3234  0.5575
12375SOL     OW38340   4.225   6.771   1.241  0.1314  0.7277 -0.1845
12375SOL    HW138341   4.207   6.686   1.282  2.8611 -0.1017 -0.4742
12375SOL    HW238342   4.321   6.779   1.246  0.0546  3.1371 -1.4771
12376SOL     OW38343   5.524   5.795   1.606 -0.1520  0.4736 -0.0485
12376SOL    HW138344   5.462   5.847   1.656 -0.0856 -0.3368  0.9141
12376SOL    HW238345   5.515   5.706   1.641 -0.9899 -0.4072 -2.3327
12377SOL     OW38346   5.073   6.507   1.685 -0.0262 -0.5373  0.6668
12377SOL    HW138347   5.100   6.462   1.765  2.0088 -1.4635 -0.4703
12377SOL    HW238348   5.044   6.437   1.627 -1.7827  0.1560  0.6512
12378SOL     OW38349   4.182   7.001   0.160 -0.2929  0.2659  0.3001
12378SOL    HW138350   4.125   6.925   0.169  0.9187 -0.6698  0.3964
12378SOL    HW238351   4.264   6.965   0.126  0.4954  1.4592  0.8787
12379SOL     OW38352   4.557   7.259   0.736 -0.0931  0.0361 -0.6426
12379SOL    HW138353   4.482   7.316   0.721  0.8126  1.0382 -1.5029
12379SOL    HW238354   4.633   7.313   0.714  0.9558 -0.6556  1.0437
12380SOL     OW38355   4.774   6.549   0.806  1.0402 -0.1819 -0.1540
12380SOL    HW138356   4.856   6.528   0.762  0.9380  0.0688 -0.4639
12380SOL    HW238357   4.757   6.641   0.784 -0.9269 -1.0371 -2.7281
12381SOL     OW38358   4.607   6.437   8.791 -0.2814  0.5488 -0.1855
12381SOL    HW138359   4.580   6.348   8.815 -1.5195  0.9939  0.1779
12381SOL    HW238360   4.535   6.468   8.736  1.6993  0.1492 -3.2182
12382SOL     OW38361   5.410   7.217   1.169  0.3653  0.3611 -0.0003
12382SOL    HW138362   5.442   7.247   1.084 -1.6848  0.7134 -0.7152
12382SOL    HW238363   5.410   7.121   1.163  1.0255  0.3643 -0.0709
12383SOL     OW38364   3.795   6.983   1.785 -0.4392 -0.1779 -0.4079
12383SOL    HW138365   3.711   7.013   1.750 -0.9692  0.8008  1.5255
12383SOL    HW238366   3.837   7.063   1.817  0.5735 -0.8499 -0.0087
12384SOL     OW38367   4.220   6.879   1.000 -0.2063  0.1698 -0.6814
12384SOL    HW138368   4.214   6.823   1.076 -0.7833  0.8101 -0.2386
12384SOL    HW238369   4.144   6.855   0.946 -1.1203  1.3001  0.0638
12385SOL     OW38370   4.677   7.001   1.505 -0.2220  0.0459  0.0509
12385SOL    HW138371   4.738   6.937   1.540  0.6852  1.4539  1.1494
12385SOL    HW238372   4.730   7.056   1.448 -0.6037  0.8668  0.4749
12386SOL     OW38373   5.111   5.859   1.196  0.4275  0.1199  0.5035
12386SOL    HW138374   5.183   5.913   1.164 -0.3004 -0.6062 -2.7412
12386SOL    HW238375   5.103   5.789   1.132  0.7434 -3.4947  4.0168
12387SOL     OW38376   4.393   5.878   0.470 -0.3267 -0.7017 -0.2959
12387SOL    HW138377   4.472   5.889   0.523 -1.0746 -1.1303  0.9511
12387SOL    HW238378   4.360   5.792   0.495 -2.6910  0.5648  1.2960
12388SOL     OW38379   5.501   7.362   1.538 -0.0494  1.1148  0.3544
12388SOL    HW138380   5.591   7.339   1.562  0.0154  1.1522  0.1504
12388SOL    HW238381   5.462   7.280   1.509  0.7950  1.5547 -2.3352
12389SOL     OW38382   4.186   5.531   1.607  0.1947 -0.3361  0.3970
12389SOL    HW138383   4.151   5.442   1.617 -2.3082  0.4633 -0.4062
12389SOL    HW238384   4.264   5.520   1.553 -0.3028 -2.0156 -0.0554
12390SOL     OW38385   4.488   6.955   1.046  0.1904  0.3002  1.0453
12390SOL    HW138386   4.393   6.941   1.047 -0.0624  1.8531  2.6022
12390SOL    HW238387   4.521   6.896   1.114  0.6822 -1.8379 -0.8967
12391SOL     OW38388   5.055   6.289   1.155 -0.6883  0.1688  0.1683
12391SOL    HW138389   5.090   6.283   1.244 -1.4125  0.7324  0.5086
12391SOL    HW238390   5.019   6.203   1.137  2.3986 -1.0147 -0.8843
12392SOL     OW38391   5.128   5.544   1.062  0.1706 -0.0525 -0.5852
12392SOL    HW138392   5.047   5.594   1.053  0.7941  0.8320 -1.5480
12392SOL    HW238393   5.136   5.494   0.981  0.5633 -0.1566 -0.4869
12393SOL     OW38394   4.141   7.256   0.277 -0.3123 -0.8499  0.1831
12393SOL    HW138395   4.168   7.209   0.356  0.4589 -1.1010 -0.2155
12393SOL    HW238396   4.147   7.190   0.208 -2.3391 -1.0262  0.1063
12394SOL     OW38397   4.286   7.351   1.017  0.1337 -0.4261 -0.1241
12394SOL    HW138398   4.222   7.319   0.953  0.7267 -0.5441 -0.6657
12394SOL    HW238399   4.322   7.271   1.057 -1.6696 -0.3416  1.8335
12395SOL     OW38400   5.171   6.189   0.417  0.2625  0.7315 -0.0808
12395SOL    HW138401   5.171   6.237   0.334  1.7510 -0.7474 -1.0097
12395SOL    HW238402   5.220   6.245   0.477  2.9954  0.0053 -1.4696
12396SOL     OW38403   5.214   5.611   0.693  0.0206  0.5121 -0.2091
12396SOL    HW138404   5.226   5.701   0.725  0.9879  0.8037 -1.3163
12396SOL    HW238405   5.206   5.559   0.773 -0.9604  1.6169  0.4561
12397SOL     OW38406   4.159   6.449   0.254  0.1304 -0.0999 -0.1597
12397SOL    HW138407   4.176   6.395   0.177  0.2077  0.1908 -0.3483
12397SOL    HW238408   4.138   6.386   0.323  1.6747 -0.4544  0.0070
12398SOL     OW38409   3.918   7.396   0.248  0.7039  0.4915  0.4779
12398SOL    HW138410   3.917   7.460   0.177  1.1093  1.1072  1.0024
12398SOL    HW238411   3.998   7.346   0.235  0.4596  0.1855  0.1473
12399SOL     OW38412   3.403   6.057   2.213 -0.2787 -0.4216 -0.8078
12399SOL    HW138413   3.446   5.978   2.180 -1.5142 -1.3096 -0.3784
12399SOL    HW238414   3.333   6.075   2.150 -0.0817  0.2593 -0.8341
12400SOL     OW38415   4.179   5.902   3.239 -0.4029  0.3443  0.0620
12400SOL    HW138416   4.128   5.833   3.196 -2.3216  1.5080  0.3754
12400SOL    HW238417   4.194   5.868   3.327 -0.6591  0.0051 -0.0223
12401SOL     OW38418   3.135   5.423   2.395  0.2847  0.5224  0.3176
12401SOL    HW138419   3.185   5.343   2.378  0.5238  0.8078 -0.3656
12401SOL    HW238420   3.066   5.396   2.456 -0.6184 -0.5661 -1.1174
12402SOL     OW38421   4.127   6.765   2.980 -0.1994 -0.0214  0.4663
12402SOL    HW138422   4.095   6.701   2.916  0.7018  0.6340 -0.6759
12402SOL    HW238423   4.116   6.722   3.064 -3.1371 -0.2203  0.0909
12403SOL     OW38424   5.508   7.052   2.343  0.0919  0.0827  0.0908
12403SOL    HW138425   5.436   6.996   2.372  1.6707 -1.2888  1.5334
12403SOL    HW238426   5.467   7.114   2.282 -1.8055 -2.4144 -1.3543
12404SOL     OW38427   4.586   6.343   2.711 -0.1723 -0.4166  0.2808
12404SOL    HW138428   4.563   6.252   2.731  0.6950 -0.0700  3.3004
12404SOL    HW238429   4.603   6.383   2.796  2.1698  1.8702 -1.1313
12405SOL     OW38430   5.431   6.005   2.017 -0.4739  0.2863 -0.2363
12405SOL    HW138431   5.474   6.031   2.098 -1.2725  0.1689  0.2400
12405SOL    HW238432   5.469   5.920   1.996 -0.2423  0.3304 -0.0006
12406SOL     OW38433   4.650   6.773   3.092  0.6692  0.5053  0.3969
12406SOL    HW138434   4.612   6.855   3.122  0.8014 -0.4994  3.8106
12406SOL    HW238435   4.576   6.724   3.056  0.6739  2.1878 -2.1275
12407SOL     OW38436   4.228   6.040   3.703 -0.3587  0.1532  0.0304
12407SOL    HW138437   4.162   6.039   3.634  0.2731 -0.6322 -0.5810
12407SOL    HW238438   4.247   6.132   3.718 -1.2426  0.3674 -0.1210
12408SOL     OW38439   4.571   6.827   2.488 -0.2341  0.0401 -0.5066
12408SOL    HW138440   4.620   6.750   2.461 -0.8497 -0.5922  0.1287
12408SOL    HW238441   4.506   6.794   2.550 -0.1963  1.1332  0.1553
12409SOL     OW38442   4.490   6.254   3.907  0.0931  0.6303  0.0963
12409SOL    HW138443   4.493   6.337   3.860  0.6142  0.9909  0.7284
12409SOL    HW238444   4.402   6.250   3.944  0.2637  1.2342  0.6033
12410SOL     OW38445   4.071   7.106   2.694  0.0069  0.0077  0.0720
12410SOL    HW138446   4.133   7.086   2.765  0.3163 -0.1410 -0.2345
12410SOL    HW238447   4.122   7.159   2.632 -0.4518  0.6910  0.2761
12411SOL     OW38448   4.953   6.356   3.137 -0.0785  0.5325  0.2064
12411SOL    HW138449   5.029   6.304   3.112  0.1810 -0.7224  3.1789
12411SOL    HW238450   4.915   6.385   3.053  1.8590 -1.3819 -1.4599
12412SOL     OW38451   4.017   6.247   2.944 -0.1693 -0.5375 -0.3562
12412SOL    HW138452   3.961   6.179   2.906 -1.9615  0.8937 -0.3969
12412SOL    HW238453   3.967   6.280   3.018  1.2604 -0.1304  0.4677
12413SOL     OW38454   4.882   6.134   2.710 -0.4675 -0.3270 -0.4825
12413SOL    HW138455   4.799   6.090   2.728 -0.6058  0.0919 -0.0623
12413SOL    HW238456   4.946   6.063   2.706 -0.8834 -0.6780 -1.0820
12414SOL     OW38457   4.177   7.092   2.267  0.3032 -0.0926  0.1837
12414SOL    HW138458   4.220   7.071   2.184 -0.4669  0.8639 -0.4882
12414SOL    HW238459   4.179   7.188   2.271  0.9745 -0.1449  1.6374
12415SOL     OW38460   4.778   6.819   3.751 -0.0083  0.0794 -0.2084
12415SOL    HW138461   4.873   6.813   3.741  0.0945  0.9931  0.1280
12415SOL    HW238462   4.746   6.841   3.663 -0.2892 -3.6677 -1.1974
12416SOL     OW38463   3.824   7.097   2.333 -0.2534  0.3622 -0.3013
12416SOL    HW138464   3.787   7.010   2.315  0.6112 -0.2874  0.8836
12416SOL    HW238465   3.873   7.085   2.415 -2.2553  2.5955  1.3666
12417SOL     OW38466   4.120   6.620   2.544 -0.0364 -0.2085  0.0467
12417SOL    HW138467   4.113   6.525   2.534  2.0489 -0.3891 -0.2317
12417SOL    HW238468   4.050   6.643   2.605  1.0606 -2.3329  2.2829
12418SOL     OW38469   4.034   7.165   3.062  0.1076 -0.7329  0.0779
12418SOL    HW138470   3.982   7.090   3.033  0.2435 -0.8843  0.2256
12418SOL    HW238471   3.974   7.239   3.056 -0.3387 -1.0104  0.8820
12419SOL     OW38472   4.131   6.143   1.986 -0.1303  0.0146 -0.2357
12419SOL    HW138473   4.202   6.080   2.000 -2.1083 -1.9754  1.5994
12419SOL    HW238474   4.088   6.114   1.905 -0.7264 -0.6933  0.3307
12420SOL     OW38475   5.173   5.701   3.180 -0.4702 -0.0309  0.0626
12420SOL    HW138476   5.114   5.725   3.108  0.5614  2.2191 -0.1105
12420SOL    HW238477   5.136   5.744   3.257 -0.4626 -0.7926  0.5082
12421SOL     OW38478   3.978   5.711   2.730 -0.7044  0.0095 -0.2563
12421SOL    HW138479   3.907   5.658   2.693 -2.7333  1.1166  1.7684
12421SOL    HW238480   4.003   5.665   2.810  1.0279 -0.4547 -1.0375
12422SOL     OW38481   5.682   7.663   2.102 -0.7903  0.0218 -0.4609
12422SOL    HW138482   5.730   7.689   2.181 -2.5634 -0.0094  0.6939
12422SOL    HW238483   5.707   7.572   2.087  0.4507  0.3786 -0.6505
12423SOL     OW38484   3.678   7.376   1.857  0.0971  0.4627  0.1781
12423SOL    HW138485   3.704   7.369   1.765  0.5276  1.4065  0.2201
12423SOL    HW238486   3.650   7.288   1.880  1.3661 -0.1332 -0.4388
12424SOL     OW38487   5.334   6.217   2.727  0.1666 -0.0048 -0.1356
12424SOL    HW138488   5.314   6.125   2.746  2.6032 -0.4160  0.7635
12424SOL    HW238489   5.318   6.262   2.810  2.6776 -0.3538  0.6273
12425SOL     OW38490   5.300   6.879   2.366 -0.0286 -0.6776 -0.4266
12425SOL    HW138491   5.237   6.905   2.298 -1.3501 -1.7401  0.3296
12425SOL    HW238492   5.367   6.829   2.319  0.9578  1.4719 -1.4381
12426SOL     OW38493   3.437   6.806   3.500 -0.0900 -0.4849  0.3433
12426SOL    HW138494   3.407   6.798   3.590  1.2112  0.6607  0.8973
12426SOL    HW238495   3.512   6.746   3.494 -0.1574 -0.5387  0.0221
12427SOL     OW38496   4.331   6.780   2.644 -0.2431  0.4119  0.1593
12427SOL    HW138497   4.275   6.706   2.620  0.4730 -0.0166 -0.2047
12427SOL    HW238498   4.275   6.834   2.701 -1.3641  0.5161 -0.9795
12428SOL     OW38499   4.996   6.411   3.415  0.0540  0.2231  0.2004
12428SOL    HW138500   5.039   6.450   3.339  1.1880  0.9438  1.1804
12428SOL    HW238501   4.902   6.428   3.401  0.3803  1.7034 -0.2750
12429SOL     OW38502   4.425   5.563   2.519  0.0947 -0.1482  0.1460
12429SOL    HW138503   4.386   5.500   2.580 -2.9114  1.1758 -0.2070
12429SOL    HW238504   4.381   5.546   2.435  0.1517  1.5319 -0.2725
12430SOL     OW38505   3.965   6.538   2.843  0.2620  0.5862  0.1054
12430SOL    HW138506   3.962   6.443   2.834  0.5961  0.6140 -0.3488
12430SOL    HW238507   3.873   6.565   2.837  0.3495  0.5206 -2.5918
12431SOL     OW38508   5.943   6.334   1.966 -0.4421  0.1959  0.6690
12431SOL    HW138509   5.885   6.258   1.963  0.5811 -0.5686 -0.4087
12431SOL    HW238510   5.953   6.352   2.059 -0.7398 -0.9563  0.9455
12432SOL     OW38511   4.696   7.093   3.189  0.9345  0.2440  0.0223
12432SOL    HW138512   4.750   7.037   3.245  0.4786  0.8707  1.1118
12432SOL    HW238513   4.741   7.092   3.104  1.9469 -0.2703  0.5408
12433SOL     OW38514   4.055   6.008   3.942 -0.0232  0.0741  0.1944
12433SOL    HW138515   4.035   5.970   4.028 -1.8166 -0.3174 -0.3512
12433SOL    HW238516   4.102   5.938   3.896  0.1442 -0.0416  0.5335
12434SOL     OW38517   5.546   6.905   2.644 -0.2749 -0.4172  0.0790
12434SOL    HW138518   5.465   6.904   2.695  1.1945 -0.8213  2.5751
12434SOL    HW238519   5.541   6.826   2.590 -1.5535 -0.4093  0.1672
12435SOL     OW38520   5.620   7.392   2.206  0.1697 -0.5903  0.5438
12435SOL    HW138521   5.673   7.324   2.164  1.0149 -0.4203  1.2949
12435SOL    HW238522   5.533   7.353   2.214  0.0092 -0.6718 -1.2143
12436SOL     OW38523   4.108   5.712   1.794  0.1345  0.0033  0.3560
12436SOL    HW138524   4.118   5.647   1.725 -1.7580 -0.5865  0.5761
12436SOL    HW238525   4.197   5.726   1.827  0.8509 -0.9320 -1.0633
12437SOL     OW38526   5.054   6.038   2.978 -0.2839  0.0710  0.3732
12437SOL    HW138527   5.086   6.073   3.061  0.1121  0.3524  0.1030
12437SOL    HW238528   4.959   6.037   2.988 -0.2092 -1.0951  1.3096
12438SOL     OW38529   5.153   7.296   2.049 -0.1715 -0.3764  0.1797
12438SOL    HW138530   5.110   7.382   2.042  1.4588  0.6021  1.4090
12438SOL    HW238531   5.139   7.256   1.964 -1.2999  0.9516 -0.3115
12439SOL     OW38532   4.401   6.181   2.933  0.2304  0.0265  0.4548
12439SOL    HW138533   4.336   6.129   2.981 -1.0525 -0.9660 -2.1871
12439SOL    HW238534   4.450   6.118   2.881 -0.3812  1.2454 -1.7225
12440SOL     OW38535   5.328   6.158   3.497 -0.0232 -0.1011 -0.7984
12440SOL    HW138536   5.338   6.074   3.541 -0.9226  1.4327  2.6178
12440SOL    HW238537   5.237   6.159   3.467 -0.9970  0.7690  1.9445
12441SOL     OW38538   4.938   6.199   3.803 -0.6184  0.1479 -0.1627
12441SOL    HW138539   4.931   6.175   3.895 -1.5131  0.4373 -0.1423
12441SOL    HW238540   4.984   6.126   3.762  2.3496  1.2474  0.9672
12442SOL     OW38541   5.025   5.902   2.731  0.3423 -0.5594  0.5881
12442SOL    HW138542   5.114   5.922   2.702  0.7381 -1.0374  1.4390
12442SOL    HW238543   5.023   5.929   2.822 -0.6777  0.2926  0.3260
12443SOL     OW38544   3.955   6.099   2.535  0.1101 -0.2236 -0.5899
12443SOL    HW138545   4.013   6.037   2.581 -0.4043 -2.2276 -2.4446
12443SOL    HW238546   3.874   6.050   2.522 -0.3022  0.8111 -2.2046
12444SOL     OW38547   3.040   6.573   2.523  0.1904 -0.1046  0.4405
12444SOL    HW138548   3.082   6.489   2.511 -0.5050 -0.3273 -0.5607
12444SOL    HW238549   3.044   6.615   2.437 -1.3379 -0.0192  0.3695
12445SOL     OW38550   4.280   7.625   3.643  0.1810  0.1267 -0.8343
12445SOL    HW138551   4.331   7.545   3.630  1.6527  1.2657 -2.6098
12445SOL    HW238552   4.274   7.664   3.556  0.1846  2.3349  0.0757
12446SOL     OW38553   4.795   5.334   2.218 -0.2765 -0.1547  0.1826
12446SOL    HW138554   4.803   5.414   2.270  2.3357 -0.7534  0.8577
12446SOL    HW238555   4.853   5.348   2.143 -0.6105 -0.9956 -0.2427
12447SOL     OW38556   4.798   5.876   3.350 -0.1702  0.1420  0.4397
12447SOL    HW138557   4.815   5.940   3.280 -0.2519 -0.0052  0.2845
12447SOL    HW238558   4.710   5.844   3.332 -0.6555  0.9371  1.2708
12448SOL     OW38559   5.469   6.729   2.254  0.1954 -0.0071 -0.2840
12448SOL    HW138560   5.560   6.702   2.261  0.0434 -0.5447 -0.2982
12448SOL    HW238561   5.443   6.701   2.166 -0.4061 -1.2140  0.2562
12449SOL     OW38562   4.028   5.696   3.174 -0.2503  0.2791 -0.1883
12449SOL    HW138563   3.990   5.634   3.237  2.6137 -0.8207  0.6101
12449SOL    HW238564   4.053   5.641   3.100 -1.4460  1.2164 -1.3388
12450SOL     OW38565   4.530   7.803   1.947 -0.5163  0.4094 -0.4826
12450SOL    HW138566   4.609   7.801   1.893 -0.7094  0.1835 -0.7579
12450SOL    HW238567   4.556   7.850   2.026  0.1825 -0.5905 -0.1159
12451SOL     OW38568   4.444   7.323   2.156  0.2552 -0.0443 -0.2254
12451SOL    HW138569   4.389   7.401   2.157  0.1162 -0.0890 -1.8047
12451SOL    HW238570   4.533   7.357   2.153  0.1802  0.0720 -1.3638
12452SOL     OW38571   5.571   6.321   2.988  0.2278  0.1320 -0.6628
12452SOL    HW138572   5.479   6.305   2.967  0.2655 -0.3680 -0.4574
12452SOL    HW238573   5.569   6.362   3.074  0.1567  0.8621 -1.0025
12453SOL     OW38574   4.629   6.584   3.441  0.0493  0.0942 -1.1327
12453SOL    HW138575   4.557   6.614   3.386  0.1674 -1.4180 -2.1624
12453SOL    HW238576   4.619   6.489   3.445  0.0279  0.1191  1.5200
12454SOL     OW38577   3.902   6.000   2.164 -0.2134  0.6548  0.6262
12454SOL    HW138578   3.868   5.984   2.252 -0.0415  1.7186  0.9066
12454SOL    HW238579   3.996   5.985   2.171 -0.2072  0.6848  0.6099
12455SOL     OW38580   5.178   6.741   2.569 -0.2895 -0.0321 -0.9555
12455SOL    HW138581   5.263   6.705   2.596 -0.8922  1.4127  3.7225
12455SOL    HW238582   5.200   6.816   2.514  1.4824  0.1287 -0.0922
12456SOL     OW38583   4.186   6.962   3.597  0.0780 -0.1613 -0.4415
12456SOL    HW138584   4.099   6.922   3.598  0.9330 -2.1372  0.4656
12456SOL    HW238585   4.214   6.957   3.506 -0.8137  0.6490 -0.7696
12457SOL     OW38586   4.892   7.280   1.610  0.1632 -0.0451  0.7078
12457SOL    HW138587   4.861   7.221   1.542 -0.4591  0.2335  0.7418
12457SOL    HW238588   4.986   7.264   1.615  0.0393 -0.8452  0.5419
12458SOL     OW38589   3.895   6.341   3.201  0.3287  0.0546 -0.2113
12458SOL    HW138590   3.859   6.300   3.280 -0.4107 -0.3785 -0.7674
12458SOL    HW238591   3.930   6.425   3.232  1.6396 -0.8758  0.8902
12459SOL     OW38592   5.213   6.965   2.060  0.6734  0.5194 -0.1910
12459SOL    HW138593   5.287   6.953   2.000  1.0577  0.3410  0.3066
12459SOL    HW238594   5.148   7.013   2.009  0.8241  0.0075 -0.8822
12460SOL     OW38595   4.551   7.095   2.489 -0.2319 -0.5897 -0.0016
12460SOL    HW138596   4.565   7.003   2.514 -1.4040 -0.4998  1.0389
12460SOL    HW238597   4.543   7.092   2.394  2.7231 -1.1505 -0.3342
12461SOL     OW38598   5.222   5.653   2.627  0.9214  0.4394  0.0441
12461SOL    HW138599   5.258   5.576   2.583  1.2425  1.0624 -0.8186
12461SOL    HW238600   5.128   5.649   2.608  1.3063  1.8264 -2.6141
12462SOL     OW38601   3.771   6.834   2.469 -0.5226 -0.1733 -0.4015
12462SOL    HW138602   3.763   6.757   2.525  0.1694 -1.2159 -1.6865
12462SOL    HW238603   3.863   6.859   2.476 -0.7999  0.7201  0.2132
12463SOL     OW38604   4.492   7.097   3.026  0.3092 -0.1477 -0.3356
12463SOL    HW138605   4.417   7.125   3.079 -0.6910 -0.6666 -1.4389
12463SOL    HW238606   4.566   7.098   3.087 -0.5913  0.3395  0.7884
12464SOL     OW38607   4.150   5.875   2.261 -0.1014  0.1863  0.3567
12464SOL    HW138608   4.109   5.810   2.204  0.5549 -0.3738  0.5094
12464SOL    HW238609   4.142   5.838   2.349 -1.0908  1.0359  0.6469
12465SOL     OW38610   5.014   5.577   3.604  0.1666  0.3261  0.3227
12465SOL    HW138611   5.081   5.540   3.661 -0.3052 -0.8431  0.1249
12465SOL    HW238612   4.933   5.570   3.653  0.1668  1.7776  0.5750
12466SOL     OW38613   4.612   5.396   1.912 -0.2413  0.1711  0.7161
12466SOL    HW138614   4.520   5.421   1.902 -0.5626 -1.5682 -1.6842
12466SOL    HW238615   4.609   5.303   1.936  0.8234 -0.5177 -1.5734
12467SOL     OW38616   4.180   5.772   3.612  0.6081 -0.3780  0.3143
12467SOL    HW138617   4.233   5.696   3.637  2.7550  0.6279 -0.9472
12467SOL    HW238618   4.225   5.847   3.651  0.1420  0.5320 -0.8254
12468SOL     OW38619   4.410   6.671   3.020 -0.2901 -0.6906 -0.0376
12468SOL    HW138620   4.373   6.729   2.954  0.9231 -0.6948 -0.7469
12468SOL    HW238621   4.334   6.624   3.056 -1.3766  1.6277  0.8925
12469SOL     OW38622   5.200   6.217   3.208  0.0638  0.2388  0.0365
12469SOL    HW138623   5.131   6.168   3.254 -0.5185  0.0113 -1.0506
12469SOL    HW238624   5.257   6.249   3.278 -0.2514 -0.9212  0.8585
12470SOL     OW38625   4.861   6.866   3.242  0.2209  0.3085  0.2892
12470SOL    HW138626   4.799   6.808   3.197  0.3853 -1.0679  1.7563
12470SOL    HW238627   4.945   6.849   3.199 -0.0364  0.6842 -0.3719
12471SOL     OW38628   4.566   6.059   2.759  0.4332 -0.0924 -0.0285
12471SOL    HW138629   4.520   6.008   2.692 -0.0550  1.0718 -0.6238
12471SOL    HW238630   4.629   5.998   2.798  0.1562 -1.0168 -0.9853
12472SOL     OW38631   4.292   5.900   2.973  0.1641 -0.1401  0.8088
12472SOL    HW138632   4.360   5.833   2.968  0.1000 -0.2959  1.7967
12472SOL    HW238633   4.268   5.903   3.066 -0.9716  0.1166  0.5289
12473SOL     OW38634   4.899   6.336   2.011 -0.5914 -0.8453  0.2123
12473SOL    HW138635   4.985   6.364   2.043 -0.2318 -1.8841  0.1920
12473SOL    HW238636   4.867   6.277   2.079 -0.1627 -2.4543 -0.9277
12474SOL     OW38637   4.016   5.595   2.201  0.3476 -0.5782 -0.0934
12474SOL    HW138638   3.967   5.553   2.130  1.1657  1.5268 -2.0344
12474SOL    HW238639   4.098   5.546   2.206  0.3232 -0.6813 -0.6688
12475SOL     OW38640   4.562   6.000   2.372 -0.7576 -0.2558  0.5622
12475SOL    HW138641   4.558   5.952   2.454 -0.2724  0.5966  1.1029
12475SOL    HW238642   4.656   6.015   2.358 -0.7102 -1.6293 -0.9027
12476SOL     OW38643   5.005   5.945   3.719 -0.0970 -0.3235 -0.2700
12476SOL    HW138644   5.026   5.911   3.632  0.5693 -0.7330  0.0361
12476SOL    HW238645   4.918   5.912   3.738 -0.0396 -0.6525 -0.5787
12477SOL     OW38646   5.048   7.080   2.540  0.8793 -0.6415 -0.4320
12477SOL    HW138647   5.034   7.053   2.449 -1.3818  1.9585 -0.9982
12477SOL    HW238648   5.070   7.173   2.534 -0.1764 -0.1946  1.6909
12478SOL     OW38649   4.068   6.198   2.305 -0.0299  0.7610 -0.6756
12478SOL    HW138650   4.024   6.184   2.388  1.5432 -2.1788 -0.1840
12478SOL    HW238651   4.160   6.179   2.323  0.4397  0.4687 -2.9744
12479SOL     OW38652   4.700   7.475   2.555 -0.0781  0.3064  0.0416
12479SOL    HW138653   4.763   7.436   2.616  0.8303  2.6973  0.7728
12479SOL    HW238654   4.693   7.412   2.484  0.7211 -1.4575  1.4451
12480SOL     OW38655   4.363   5.742   1.892 -0.3025 -0.1295 -0.0690
12480SOL    HW138656   4.354   5.793   1.972 -0.5469  1.5610 -1.1135
12480SOL    HW238657   4.458   5.733   1.880 -0.2654 -0.3682  0.3927
12481SOL     OW38658   3.581   6.096   2.647 -0.3412  0.2072 -0.8258
12481SOL    HW138659   3.557   6.121   2.736 -0.0214  1.5547 -1.0862
12481SOL    HW238660   3.634   6.017   2.657 -1.1640 -0.2376  0.0932
12482SOL     OW38661   4.414   5.692   3.066 -0.6312  0.0290 -0.1743
12482SOL    HW138662   4.333   5.656   3.028 -1.9995 -1.0106  3.3240
12482SOL    HW238663   4.468   5.615   3.083  1.2968  0.7204 -2.5521
12483SOL     OW38664   4.418   5.869   2.565 -0.1950  0.4955  0.0347
12483SOL    HW138665   4.339   5.923   2.564 -0.4836  0.0856 -1.5796
12483SOL    HW238666   4.391   5.786   2.526  0.6380 -0.2670  1.0130
12484SOL     OW38667   4.689   5.508   2.445  0.1386 -0.6135 -0.3518
12484SOL    HW138668   4.598   5.534   2.461 -0.2132 -0.1120 -2.8140
12484SOL    HW238669   4.685   5.412   2.439  0.1986 -0.7864  1.6634
12485SOL     OW38670   5.748   6.512   3.140  0.4467 -0.3096 -0.1950
12485SOL    HW138671   5.737   6.607   3.130  1.2722 -0.1980 -0.0871
12485SOL    HW238672   5.823   6.491   3.085 -1.2033 -1.3020 -2.1900
12486SOL     OW38673   5.308   6.342   2.972  0.9727  0.3191  0.3110
12486SOL    HW138674   5.279   6.279   3.038 -1.6615  0.6375 -0.4376
12486SOL    HW238675   5.252   6.419   2.985  0.4692  0.4547 -2.1486
12487SOL     OW38676   5.236   6.025   2.422 -0.1181 -0.0096  0.2559
12487SOL    HW138677   5.154   6.021   2.373 -0.9935 -0.0140  1.6624
12487SOL    HW238678   5.246   6.117   2.446  0.9770  0.2256 -0.9756
12488SOL     OW38679   5.975   6.885   2.397 -0.1262  0.5507  0.1278
12488SOL    HW138680   5.899   6.944   2.394  0.0340  0.7936  0.6110
12488SOL    HW238681   6.010   6.897   2.486  2.0338  2.4370 -0.8634
12489SOL     OW38682   4.945   5.993   1.805 -0.4512 -0.0823 -0.1850
12489SOL    HW138683   5.019   6.007   1.864 -0.6829  0.6585 -0.0581
12489SOL    HW238684   4.910   5.907   1.830 -0.7977  0.3891  1.0491
12490SOL     OW38685   4.360   5.631   2.234 -0.3405  0.7314  0.2403
12490SOL    HW138686   4.337   5.539   2.221  0.2662  0.7240 -0.9171
12490SOL    HW238687   4.448   5.639   2.197 -0.5331  1.8498 -0.0117
12491SOL     OW38688   5.671   6.769   3.078 -0.3974 -0.1153 -0.3256
12491SOL    HW138689   5.718   6.822   3.143  1.0685  0.3522 -1.7144
12491SOL    HW238690   5.585   6.810   3.072 -0.4014  0.1167  0.9589
12492SOL     OW38691   4.742   6.353   3.693 -0.0218  0.3305  0.3073
12492SOL    HW138692   4.747   6.310   3.607 -0.1975  1.2920 -0.2004
12492SOL    HW238693   4.810   6.310   3.745  0.8038  0.4376 -0.6473
12493SOL     OW38694   5.264   6.865   3.494 -0.2497 -0.7639  0.8281
12493SOL    HW138695   5.356   6.845   3.481 -0.2493 -0.9297  1.0926
12493SOL    HW238696   5.219   6.825   3.419 -0.3643 -2.5951  1.8296
12494SOL     OW38697   4.966   6.680   2.905 -0.3325 -0.1255 -0.0172
12494SOL    HW138698   4.928   6.753   2.858  1.1628  0.4201 -0.4457
12494SOL    HW238699   4.969   6.609   2.841 -1.3694 -0.4366  0.2660
12495SOL     OW38700   5.302   6.587   3.242 -0.0733  0.6639 -0.1797
12495SOL    HW138701   5.358   6.509   3.235 -1.3250 -0.2006 -0.8482
12495SOL    HW238702   5.363   6.658   3.261  0.9853 -0.6682  1.8483
12496SOL     OW38703   4.704   5.892   2.899 -0.4273 -0.3838  0.0774
12496SOL    HW138704   4.758   5.851   2.966 -0.2026  0.4152  0.4028
12496SOL    HW238705   4.639   5.826   2.877  1.2689 -1.7567 -1.0527
12497SOL     OW38706   5.119   6.533   3.668  0.3440  0.6707  0.0384
12497SOL    HW138707   5.211   6.530   3.642  0.2619  1.3811 -0.3516
12497SOL    HW238708   5.072   6.490   3.596  0.2066  1.8456 -0.5928
12498SOL     OW38709   4.601   6.504   2.228  0.0608  0.0865 -0.0195
12498SOL    HW138710   4.683   6.523   2.274 -0.2075  0.9771  0.1209
12498SOL    HW238711   4.535   6.502   2.297 -0.5169  2.4811 -0.4110
12499SOL     OW38712   3.972   6.548   3.383 -0.2171 -0.6441 -0.1398
12499SOL    HW138713   3.997   6.464   3.422 -2.1890 -0.5925  1.3695
12499SOL    HW238714   3.967   6.609   3.456 -3.6522 -0.4535 -0.3703
12500SOL     OW38715   5.416   5.788   3.325 -0.0881 -0.1985 -0.0310
12500SOL    HW138716   5.433   5.699   3.357 -2.5840 -0.5023  0.6235
12500SOL    HW238717   5.355   5.776   3.252  0.6390  0.9170 -0.8469
12501SOL     OW38718   3.411   7.334   3.282  0.1537 -0.0086 -0.0883
12501SOL    HW138719   3.319   7.332   3.308 -0.1285 -0.7484 -1.0753
12501SOL    HW238720   3.448   7.253   3.317 -0.4173 -1.4161 -2.4898
12502SOL     OW38721   3.813   6.340   2.283 -0.1718  1.0776 -0.1810
12502SOL    HW138722   3.800   6.435   2.287 -1.6181  0.9111 -0.3045
12502SOL    HW238723   3.726   6.304   2.299  0.3556 -0.2343 -0.1770
12503SOL     OW38724   4.271   6.122   2.653  0.2636 -0.3260  0.2800
12503SOL    HW138725   4.208   6.061   2.692 -0.8725 -0.2884 -1.3972
12503SOL    HW238726   4.295   6.181   2.725 -2.2481  0.1511  0.8131
12504SOL     OW38727   4.739   7.371   2.232 -0.9300 -0.1558 -0.3121
12504SOL    HW138728   4.735   7.436   2.161 -1.2682  0.8253  0.5786
12504SOL    HW238729   4.732   7.286   2.187 -0.2139  0.3940 -1.5269
12505SOL     OW38730   4.725   6.831   3.467 -0.2875 -0.7383 -0.3966
12505SOL    HW138731   4.707   6.738   3.483  3.4069 -1.4710  0.4529
12505SOL    HW238732   4.783   6.831   3.391  0.3240  0.8047  0.0277
12506SOL     OW38733   5.297   6.278   2.392  0.1537 -0.3158 -0.1278
12506SOL    HW138734   5.340   6.280   2.306  0.5708 -1.1078  0.0528
12506SOL    HW238735   5.367   6.297   2.454 -0.0391 -0.2603  0.0722
12507SOL     OW38736   3.657   7.080   3.220 -0.2427  0.6003  0.4944
12507SOL    HW138737   3.695   6.994   3.241  1.2639  1.1441  0.1484
12507SOL    HW238738   3.673   7.091   3.126 -1.6688  0.6931  0.2384
12508SOL     OW38739   3.674   6.656   3.499  0.4603  0.0507 -0.4959
12508SOL    HW138740   3.662   6.590   3.430  0.4345  0.3349 -0.7664
12508SOL    HW238741   3.735   6.615   3.560 -0.2461 -0.5750 -0.1959
12509SOL     OW38742   5.254   6.446   4.032 -0.6488  0.2675  0.0098
12509SOL    HW138743   5.175   6.436   3.980 -1.3425  0.2744  1.0340
12509SOL    HW238744   5.325   6.453   3.968 -1.4469  0.0312 -0.9115
12510SOL     OW38745   5.032   5.787   3.449  0.0417 -1.1178 -0.1556
12510SOL    HW138746   4.948   5.811   3.410 -0.2695  1.0389  1.6406
12510SOL    HW238747   5.011   5.715   3.508 -0.4366 -0.9274 -0.0918
12511SOL     OW38748   3.948   5.644   3.876  0.2832 -0.5326 -0.3687
12511SOL    HW138749   3.981   5.573   3.821 -1.4725 -0.4776 -1.5856
12511SOL    HW238750   3.907   5.705   3.814  1.5127  1.4424  0.6643
12512SOL     OW38751   4.178   6.653   3.211 -0.2536  0.3977  0.0884
12512SOL    HW138752   4.105   6.650   3.273  0.1561 -1.0514  0.5314
12512SOL    HW238753   4.173   6.569   3.164  2.1937 -0.5569  1.3918
12513SOL     OW38754   5.505   6.367   2.577  0.0670 -0.1502  0.4982
12513SOL    HW138755   5.591   6.330   2.556 -0.2249 -1.0029  0.7807
12513SOL    HW238756   5.471   6.311   2.647 -1.1219 -0.4040 -0.2602
12514SOL     OW38757   4.756   6.232   2.482 -1.0772  0.6157  0.2721
12514SOL    HW138758   4.697   6.283   2.538 -1.0799  1.0829 -0.1458
12514SOL    HW238759   4.821   6.195   2.542 -0.1184  2.4246  0.4272
12515SOL     OW38760   3.870   5.425   2.987 -0.5231  0.1522  0.0073
12515SOL    HW138761   3.909   5.338   2.993  0.4099  0.4382 -1.4271
12515SOL    HW238762   3.873   5.459   3.076 -0.8086 -1.2287  0.5763
12516SOL     OW38763   3.366   6.954   3.065 -0.1931 -0.3975 -0.0594
12516SOL    HW138764   3.370   7.037   3.017  0.9627  0.4514  1.4067
12516SOL    HW238765   3.394   6.888   3.001  0.4268  0.5641 -0.8171
12517SOL     OW38766   4.579   6.419   2.988  0.1630  0.0057 -0.6397
12517SOL    HW138767   4.530   6.496   3.020 -0.1790  0.1385 -1.4599
12517SOL    HW238768   4.513   6.351   2.981  0.6937 -0.7960  1.3705
12518SOL     OW38769   5.459   6.468   3.847  0.3043 -0.0156  0.7600
12518SOL    HW138770   5.452   6.563   3.860  1.6827 -0.1214  2.8343
12518SOL    HW238771   5.489   6.458   3.757 -0.4472  1.4744  0.3082
12519SOL     OW38772   4.188   5.580   2.930  0.1824 -0.2317  0.1454
12519SOL    HW138773   4.216   5.595   2.839 -1.1956  0.3029 -0.2191
12519SOL    HW238774   4.177   5.485   2.936 -0.1404 -0.2338 -0.3818
12520SOL     OW38775   4.860   5.633   2.286  0.2501 -0.5288 -0.2093
12520SOL    HW138776   4.789   5.605   2.343 -0.9515 -1.0061 -1.8570
12520SOL    HW238777   4.939   5.615   2.335 -0.7408  0.7997  2.0462
12521SOL     OW38778   4.768   6.552   2.650 -0.4377  0.2114 -0.0406
12521SOL    HW138779   4.731   6.620   2.706 -1.0361 -0.3636  0.2769
12521SOL    HW238780   4.694   6.495   2.630  0.1753 -0.6942  0.2229
12522SOL     OW38781   4.209   6.698   3.675 -0.1667  0.1772  0.0152
12522SOL    HW138782   4.223   6.777   3.624 -0.4484  0.0226 -0.3010
12522SOL    HW238783   4.293   6.683   3.719 -0.1181  0.6614  0.0982
12523SOL     OW38784   5.641   7.177   3.046 -0.3779  0.0997  0.2135
12523SOL    HW138785   5.667   7.250   2.989  0.5823 -0.5743 -0.2464
12523SOL    HW238786   5.717   7.120   3.047 -0.7785 -0.4326  1.3370
12524SOL     OW38787   3.884   6.596   3.658  0.0616 -0.1602  0.1051
12524SOL    HW138788   3.956   6.626   3.713 -0.4926 -0.2373  0.8884
12524SOL    HW238789   3.853   6.516   3.699  0.1326 -0.6497 -0.7643
12525SOL     OW38790   4.990   5.950   2.229  0.2536  0.2844 -0.2283
12525SOL    HW138791   4.912   5.908   2.264  0.2263 -0.0334 -0.6619
12525SOL    HW238792   5.050   5.878   2.209  1.1376  0.5931  1.2114
12526SOL     OW38793   5.431   6.286   1.958 -0.4467  0.0025 -0.5303
12526SOL    HW138794   5.344   6.295   1.921 -0.1749 -0.0686 -1.2061
12526SOL    HW238795   5.435   6.195   1.989 -1.2513  0.5229  1.2159
12527SOL     OW38796   4.993   6.895   2.740  0.2539 -0.0922  0.2320
12527SOL    HW138797   5.053   6.830   2.705 -1.0377 -0.9623 -0.4589
12527SOL    HW238798   4.994   6.966   2.676  1.5371  0.5312  0.9033
12528SOL     OW38799   4.096   5.952   2.763 -0.1204  0.4326  0.3007
12528SOL    HW138800   4.034   5.880   2.754 -2.9585  2.5286  1.7451
12528SOL    HW238801   4.152   5.926   2.836  0.0744 -1.0381 -0.3418
12529SOL     OW38802   3.797   6.072   2.894  0.4313 -0.2264  0.0905
12529SOL    HW138803   3.834   6.023   2.967  0.3708  0.9281  0.9272
12529SOL    HW238804   3.798   6.011   2.820  0.0330 -1.5831  1.1721
12530SOL     OW38805   4.419   6.276   3.489 -0.0271  0.0317 -0.1895
12530SOL    HW138806   4.493   6.232   3.532 -0.7705 -1.9515 -0.8497
12530SOL    HW238807   4.353   6.283   3.558  0.1539  0.2926 -0.0387
12531SOL     OW38808   4.504   5.952   3.216  0.4759 -0.2997  0.0119
12531SOL    HW138809   4.476   5.883   3.156 -4.1943  1.5279 -0.3930
12531SOL    HW238810   4.488   5.917   3.303 -0.3887 -0.3263 -0.1470
12532SOL     OW38811   3.696   6.787   2.004 -0.1503  0.2108  0.0725
12532SOL    HW138812   3.733   6.837   1.931  1.0708  1.1566  1.2678
12532SOL    HW238813   3.669   6.854   2.067 -1.4912 -0.5701  0.3701
12533SOL     OW38814   3.574   7.092   2.508  0.4328  0.2078 -0.4919
12533SOL    HW138815   3.518   7.164   2.478  0.3621  0.5161  0.3620
12533SOL    HW238816   3.653   7.135   2.540  0.3304 -0.0859  0.1629
12534SOL     OW38817   4.355   6.621   2.102 -0.3316 -0.3909  0.0032
12534SOL    HW138818   4.446   6.590   2.096  0.6143  2.1846 -0.6387
12534SOL    HW238819   4.355   6.681   2.177 -1.3583  0.0570 -0.3333
12535SOL     OW38820   4.710   6.311   3.227 -0.2983 -0.2855  0.1892
12535SOL    HW138821   4.666   6.333   3.145 -0.2012 -0.5750  0.0583
12535SOL    HW238822   4.801   6.339   3.214  0.2922 -2.3831 -0.6797
12536SOL     OW38823   3.695   6.515   2.817 -0.2947  0.0111  0.8041
12536SOL    HW138824   3.715   6.439   2.871 -1.8332 -0.9668  0.0548
12536SOL    HW238825   3.674   6.479   2.731  2.2399  1.5185 -0.5944
12537SOL     OW38826   3.589   6.292   3.399 -0.0687 -0.2927  0.4529
12537SOL    HW138827   3.509   6.249   3.431 -0.9421  0.3423 -0.7931
12537SOL    HW238828   3.578   6.294   3.304  0.6921  1.2707  0.3802
12538SOL     OW38829   5.042   6.139   3.425  0.3771  0.0967 -0.5214
12538SOL    HW138830   5.027   6.098   3.510 -0.9871 -0.5872 -1.0672
12538SOL    HW238831   5.005   6.227   3.434  0.7673  0.2326 -0.2287
12539SOL     OW38832   4.375   5.912   2.093  0.0305  0.1678  0.1419
12539SOL    HW138833   4.459   5.909   2.139 -0.6692 -0.6118  1.4097
12539SOL    HW238834   4.310   5.889   2.159 -1.3389  1.9326 -0.4990
12540SOL     OW38835   5.503   6.400   3.262 -0.2561  0.1631 -0.4397
12540SOL    HW138836   5.577   6.459   3.250 -0.1939  0.1901  0.0457
12540SOL    HW238837   5.542   6.315   3.283 -0.3423  0.6108  1.8152
12541SOL     OW38838   3.918   6.850   3.480 -0.1031 -0.5789  0.5391
12541SOL    HW138839   3.845   6.890   3.528 -0.0164  0.3742 -0.0744
12541SOL    HW238840   3.880   6.825   3.396  0.2657 -0.0282  0.1956
12542SOL     OW38841   4.391   6.199   3.237  0.1978 -0.0234 -0.4137
12542SOL    HW138842   4.410   6.224   3.327 -1.4430  2.0790 -0.5734
12542SOL    HW238843   4.462   6.139   3.213  1.4753  0.5146  1.7734
12543SOL     OW38844   4.416   6.690   3.322  0.7245  0.2515  0.3896
12543SOL    HW138845   4.342   6.670   3.265  1.0813 -0.6164  0.2124
12543SOL    HW238846   4.409   6.784   3.338  0.5507  0.5060 -1.0098
12544SOL     OW38847   3.999   5.966   1.761 -0.2333 -0.6849 -0.0114
12544SOL    HW138848   4.038   6.001   1.680  3.2515  0.9699  2.1483
12544SOL    HW238849   4.010   5.871   1.753 -0.1932 -0.5731 -1.5771
12545SOL     OW38850   3.729   6.817   3.272  1.0960  0.0836 -0.3501
12545SOL    HW138851   3.689   6.771   3.346  2.3055  0.7507  0.7557
12545SOL    HW238852   3.754   6.746   3.212 -1.3810 -0.3733 -0.9590
12546SOL     OW38853   5.082   6.736   3.132  0.1771 -0.4828  0.1859
12546SOL    HW138854   5.154   6.677   3.155  0.1851 -0.3478  0.5187
12546SOL    HW238855   5.039   6.693   3.058  2.2041  0.7331 -1.8101
12547SOL     OW38856   5.481   6.385   2.216  0.4958 -0.2459  0.2691
12547SOL    HW138857   5.468   6.402   2.123  0.9679 -0.3964  0.1734
12547SOL    HW238858   5.473   6.471   2.258 -0.2000 -0.2487  0.1469
12548SOL     OW38859   5.799   7.157   2.645  0.7311  0.2996 -0.5393
12548SOL    HW138860   5.761   7.082   2.691 -1.0343  0.8843 -0.9764
12548SOL    HW238861   5.811   7.126   2.555  1.0613  0.1997 -0.4628
12549SOL     OW38862   4.862   7.072   2.923  0.3214 -0.2962 -0.9538
12549SOL    HW138863   4.919   7.001   2.895 -0.3576 -1.4347  0.4630
12549SOL    HW238864   4.796   7.078   2.854  1.8471  0.7404 -2.3829
12550SOL     OW38865   4.069   6.370   2.557 -1.1989  0.7017  0.0332
12550SOL    HW138866   4.120   6.307   2.609 -0.1494  2.5292  1.3556
12550SOL    HW238867   4.001   6.317   2.515 -0.1466 -1.3507  0.7590
12551SOL     OW38868   4.689   7.210   3.935 -0.2590  0.1966  0.5032
12551SOL    HW138869   4.706   7.128   3.888  2.8886  0.9607  0.0938
12551SOL    HW238870   4.682   7.184   4.027  0.5433 -0.5633  0.3600
12552SOL     OW38871   5.191   5.772   2.216 -0.8058  0.1618 -0.2898
12552SOL    HW138872   5.286   5.763   2.210 -0.6793  1.8502 -1.7718
12552SOL    HW238873   5.164   5.706   2.280  1.4240  0.1137  0.6817
12553SOL     OW38874   5.022   7.349   2.283  0.1537  0.1315  0.0894
12553SOL    HW138875   4.930   7.368   2.264  0.0591 -0.6292 -0.2792
12553SOL    HW238876   5.053   7.302   2.205  1.3352  1.8694 -0.5330
12554SOL     OW38877   4.066   7.321   3.939  0.2205 -0.2268 -0.1196
12554SOL    HW138878   4.014   7.269   3.879  0.2571  0.6002 -0.8894
12554SOL    HW238879   4.119   7.257   3.987 -1.6484 -1.1100  0.8729
12555SOL     OW38880   5.073   6.517   2.406  0.6286 -0.0336 -0.4063
12555SOL    HW138881   5.128   6.443   2.433  2.0231  0.7733 -0.9450
12555SOL    HW238882   5.104   6.590   2.459  0.6419  0.6283 -1.3110
12556SOL     OW38883   4.227   6.332   3.703 -0.1174 -0.3321  0.4728
12556SOL    HW138884   4.260   6.411   3.744 -0.8762 -1.4252  3.4526
12556SOL    HW238885   4.161   6.363   3.641 -0.0419  1.3855  1.1982
12557SOL     OW38886   4.546   7.075   1.766 -0.2318  0.2071 -0.3036
12557SOL    HW138887   4.505   7.000   1.810 -0.7716  0.1378 -0.9120
12557SOL    HW238888   4.590   7.037   1.690  2.4368  0.0317  1.2121
12558SOL     OW38889   5.036   7.382   3.208 -0.4259 -0.1153 -0.1289
12558SOL    HW138890   5.117   7.433   3.199  0.2725 -1.1577 -0.0185
12558SOL    HW238891   5.066   7.290   3.204 -1.8468 -0.5411 -2.2597
12559SOL     OW38892   5.685   5.427   2.845 -0.5037  0.8623 -0.1703
12559SOL    HW138893   5.669   5.333   2.833  0.6395  0.5700  0.4886
12559SOL    HW238894   5.666   5.443   2.938  0.5353  1.0198  0.0207
12560SOL     OW38895   4.138   5.757   2.497  0.0670 -0.5423 -0.2896
12560SOL    HW138896   4.142   5.662   2.489 -1.4389 -0.7718  1.2640
12560SOL    HW238897   4.062   5.774   2.552 -1.0851  1.6814 -2.3361
12561SOL     OW38898   4.828   6.957   1.882  0.2231  0.4626  0.1235
12561SOL    HW138899   4.843   6.863   1.870  1.3066  0.3843  1.6477
12561SOL    HW238900   4.739   6.972   1.851  0.6900 -0.6792 -1.9601
12562SOL     OW38901   4.703   6.774   2.798  0.6848 -0.0911  0.6690
12562SOL    HW138902   4.700   6.773   2.894  1.2414 -0.1517  0.6913
12562SOL    HW238903   4.692   6.866   2.775 -1.5380 -0.2998  0.6908
12563SOL     OW38904   4.338   6.173   2.382  0.0014 -0.0199 -0.1572
12563SOL    HW138905   4.418   6.123   2.367 -0.2454 -0.5249  0.2014
12563SOL    HW238906   4.320   6.163   2.475  1.0403  2.3804  0.3787
12564SOL     OW38907   5.065   7.138   1.831 -0.2353 -0.2635 -0.4213
12564SOL    HW138908   4.977   7.101   1.825  0.5678 -2.2339 -0.7407
12564SOL    HW238909   5.105   7.120   1.746  0.6603  0.1395 -0.1017
12565SOL     OW38910   3.523   6.668   2.937 -0.1241 -0.0338  0.1733
12565SOL    HW138911   3.585   6.614   2.888 -0.2889 -1.3041  1.2889
12565SOL    HW238912   3.443   6.668   2.884  0.7880  1.6824 -1.3130
12566SOL     OW38913   5.191   6.989   2.999  0.4300 -0.0196  0.3032
12566SOL    HW138914   5.157   6.920   3.056  1.1979 -0.5023  0.1805
12566SOL    HW238915   5.125   7.059   3.005 -0.2627 -0.6789  0.5705
12567SOL     OW38916   5.459   6.620   2.639 -0.0155  0.0676  0.0464
12567SOL    HW138917   5.437   6.605   2.731 -1.1991  0.7648 -0.1105
12567SOL    HW238918   5.491   6.535   2.608 -2.0577 -0.8889  0.4172
12568SOL     OW38919   4.531   5.727   2.805  0.0758  0.0236 -0.1935
12568SOL    HW138920   4.524   5.649   2.859  0.5282 -0.5404 -0.9316
12568SOL    HW238921   4.486   5.704   2.724 -0.4379  0.7933 -0.1388
12569SOL     OW38922   4.771   6.880   2.288  0.4769  0.5142  0.0575
12569SOL    HW138923   4.803   6.793   2.311 -0.0972  0.2290 -0.1907
12569SOL    HW238924   4.694   6.893   2.344 -0.3541  0.2154 -0.9832
12570SOL     OW38925   5.740   6.219   3.290  0.6375  0.1575 -0.0277
12570SOL    HW138926   5.782   6.203   3.205 -0.8400 -1.9240 -0.4290
12570SOL    HW238927   5.708   6.134   3.317  0.3766  0.9395  2.2855
12571SOL     OW38928   4.117   6.460   2.082 -0.0956 -0.3835  0.2175
12571SOL    HW138929   4.153   6.414   2.007  0.2453 -0.4633  0.4265
12571SOL    HW238930   4.185   6.523   2.107 -0.3095 -0.1832  0.3031
12572SOL     OW38931   3.565   6.864   3.941  0.5307  0.4846  0.5032
12572SOL    HW138932   3.643   6.880   3.889  0.1732 -0.4944 -0.3768
12572SOL    HW238933   3.595   6.813   4.016  0.9812  1.5402  1.0634
12573SOL     OW38934   4.150   6.138   3.347 -0.4627 -0.3447  0.6030
12573SOL    HW138935   4.146   6.047   3.317  0.4795 -0.4383  0.7355
12573SOL    HW238936   4.221   6.177   3.295 -1.1942  0.4638  0.1769
12574SOL     OW38937   3.726   6.062   1.818 -0.5692 -0.1331  0.0336
12574SOL    HW138938   3.822   6.059   1.813 -0.5878  0.3206 -0.7497
12574SOL    HW238939   3.700   5.970   1.816 -0.1466 -0.2626  0.2461
12575SOL     OW38940   4.744   6.198   3.474  0.6186 -0.0841  0.2924
12575SOL    HW138941   4.761   6.106   3.456  0.3014 -0.0303 -0.2998
12575SOL    HW238942   4.725   6.236   3.388  1.2098  0.6286  0.4706
12576SOL     OW38943   3.862   5.651   1.888  0.4606 -0.3018 -0.2540
12576SOL    HW138944   3.888   5.576   1.942  0.4470  0.3077  0.6126
12576SOL    HW238945   3.945   5.693   1.864  0.4094  0.2796  0.5433
12577SOL     OW38946   5.042   6.976   2.292 -0.1941 -0.4708 -0.1649
12577SOL    HW138947   5.091   6.970   2.210  1.5756 -1.7721  0.9113
12577SOL    HW238948   4.962   6.926   2.276  0.9495 -2.2570 -0.5906
12578SOL     OW38949   3.693   6.439   3.796 -0.4716 -0.2082  0.8241
12578SOL    HW138950   3.707   6.347   3.775 -1.2570 -0.0442 -0.5508
12578SOL    HW238951   3.598   6.452   3.783 -0.0867  1.2432 -1.0799
12579SOL     OW38952   5.289   7.010   2.738  0.0777  0.5399  0.6217
12579SOL    HW138953   5.244   7.017   2.822  1.0756 -0.5759  1.2678
12579SOL    HW238954   5.219   6.990   2.675 -0.7962  2.2167  1.0078
12580SOL     OW38955   4.771   6.050   3.141 -0.8826  0.1220  0.2756
12580SOL    HW138956   4.755   6.140   3.169  1.7369  1.2949 -1.5936
12580SOL    HW238957   4.693   6.026   3.092 -1.6331  1.3848  0.7995
12581SOL     OW38958   5.446   6.798   3.292 -0.0238 -0.3476 -0.2156
12581SOL    HW138959   5.446   6.866   3.224  0.1599 -1.4761 -1.3962
12581SOL    HW238960   5.539   6.784   3.311  0.0309 -1.2341 -1.0274
12582SOL     OW38961   4.275   7.251   3.171  0.0796 -0.2704  0.6370
12582SOL    HW138962   4.251   7.285   3.257  0.6484 -0.9881  1.0847
12582SOL    HW238963   4.191   7.223   3.133 -0.5194  2.2316 -0.0438
12583SOL     OW38964   5.554   6.334   3.575  0.5697 -0.2656  0.3264
12583SOL    HW138965   5.492   6.267   3.546 -0.2038  1.2611 -1.8075
12583SOL    HW238966   5.639   6.303   3.545  0.3690 -0.7690  0.2672
12584SOL     OW38967   4.711   5.805   2.533  0.0068  0.2790 -0.2609
12584SOL    HW138968   4.695   5.715   2.507  0.6334 -0.0207  0.3793
12584SOL    HW238969   4.640   5.826   2.593  0.7737 -0.3421  0.8914
12585SOL     OW38970   4.466   6.497   2.467 -0.4181 -0.3200  0.1189
12585SOL    HW138971   4.468   6.458   2.554 -0.7036  0.1842  0.3544
12585SOL    HW238972   4.373   6.509   2.447 -0.4342  3.6342  1.6253
12586SOL     OW38973   5.548   6.034   3.325 -0.2594  0.1694 -0.4064
12586SOL    HW138974   5.523   5.944   3.305  0.0246 -0.5989  2.2516
12586SOL    HW238975   5.536   6.041   3.420  1.5924  2.3089 -0.2461
12587SOL     OW38976   5.372   6.536   3.577 -0.5312 -0.5548 -0.0239
12587SOL    HW138977   5.431   6.460   3.580 -0.8165 -0.7635  0.8158
12587SOL    HW238978   5.419   6.601   3.526 -0.3956 -1.3915 -1.0037
12588SOL     OW38979   4.760   7.099   2.138 -0.3698  0.3468  0.2881
12588SOL    HW138980   4.774   7.019   2.189 -0.6350 -0.2581 -0.5658
12588SOL    HW238981   4.792   7.078   2.051 -0.2760  1.2383  0.0982
12589SOL     OW38982   4.167   7.485   2.576  0.1296 -0.0892  0.2541
12589SOL    HW138983   4.228   7.412   2.590 -1.1447 -1.5392 -1.1871
12589SOL    HW238984   4.208   7.538   2.508 -0.1232 -0.9980 -0.6339
12590SOL     OW38985   4.848   6.631   2.364  0.5370  0.3827  0.6210
12590SOL    HW138986   4.929   6.581   2.360  0.3213  0.0962 -0.2772
12590SOL    HW238987   4.809   6.606   2.448  0.9912 -0.0736  0.7004
12591SOL     OW38988   5.133   6.443   2.106  0.7530 -0.1861 -0.2679
12591SOL    HW138989   5.133   6.477   2.196 -0.5327 -0.8759  0.0067
12591SOL    HW238990   5.221   6.464   2.073  0.2503  2.8625  0.0719
12592SOL     OW38991   5.394   7.240   2.170 -0.0356  0.0338 -0.2356
12592SOL    HW138992   5.304   7.262   2.144 -1.3475 -3.6265  0.6403
12592SOL    HW238993   5.424   7.180   2.102  1.0918 -0.1762  0.4311
12593SOL     OW38994   4.050   6.668   3.899  0.1260 -0.4631  0.5892
12593SOL    HW138995   4.105   6.703   3.829 -1.0876  1.4462  0.5159
12593SOL    HW238996   4.111   6.617   3.954  1.8945  1.1524  0.2586
12594SOL     OW38997   4.249   6.745   2.320 -0.1975  0.1553 -0.0297
12594SOL    HW138998   4.175   6.730   2.379 -0.8946 -0.4901 -1.0385
12594SOL    HW238999   4.314   6.790   2.374 -0.9695 -0.0678  1.1174
12595SOL     OW39000   4.327   7.007   3.296  0.5165  0.0140 -0.3275
12595SOL    HW139001   4.287   7.076   3.243  1.9187 -0.6992 -2.4462
12595SOL    HW239002   4.411   7.043   3.323 -0.5156  0.6773  2.2316
12596SOL     OW39003   5.607   5.680   2.807  0.1656 -0.3460 -0.1417
12596SOL    HW139004   5.521   5.691   2.847  0.0187 -1.7147 -0.0473
12596SOL    HW239005   5.626   5.587   2.816  1.1096 -0.2837 -1.2840
12597SOL     OW39006   3.645   5.804   1.886 -0.1702  0.5759  0.4811
12597SOL    HW139007   3.576   5.753   1.842 -1.1040  1.8567  0.3871
12597SOL    HW239008   3.718   5.744   1.895 -0.3288 -0.0594 -1.8872
12598SOL     OW39009   5.130   7.139   3.277  0.4000  0.6281  0.4701
12598SOL    HW139010   5.099   7.120   3.366  2.1129  1.3970  1.3025
12598SOL    HW239011   5.217   7.100   3.274 -0.7687 -2.1410 -2.0244
12599SOL     OW39012   4.243   6.399   3.087  0.1699 -0.1830 -0.5050
12599SOL    HW139013   4.197   6.337   3.030 -1.0989 -1.4546  1.7769
12599SOL    HW239014   4.303   6.344   3.137 -0.6272  0.4674  1.2125
12600SOL     OW39015   4.630   7.047   2.764  0.0500  0.0103 -0.0904
12600SOL    HW139016   4.606   7.078   2.677 -0.9999 -2.4726 -0.8032
12600SOL    HW239017   4.550   7.059   2.817  0.3641  0.6000  0.2535
12601SOL     OW39018   5.366   5.725   2.915 -0.1232  0.2991 -0.6530
12601SOL    HW139019   5.306   5.650   2.923  1.5238 -1.0790 -0.5605
12601SOL    HW239020   5.313   5.794   2.875 -1.8361 -0.7547 -0.3254
12602SOL     OW39021   4.710   5.682   3.097 -0.0268  0.6074  0.3289
12602SOL    HW139022   4.669   5.624   3.033 -0.4372  0.7671  0.4421
12602SOL    HW239023   4.799   5.649   3.107 -0.8454 -1.3183  1.9765
12603SOL     OW39024   4.437   6.263   2.082 -0.3261  0.1987  0.4091
12603SOL    HW139025   4.373   6.223   2.141 -0.8887 -0.2596 -0.4783
12603SOL    HW239026   4.475   6.334   2.132 -0.4622 -0.4623  1.4730
12604SOL     OW39027   4.281   6.968   2.861  0.2238 -0.2064 -0.2917
12604SOL    HW139028   4.345   7.028   2.900  1.2850  0.7981 -3.2381
12604SOL    HW239029   4.242   6.922   2.935  1.1634  2.3453  1.9606
12605SOL     OW39030   4.805   5.531   1.748  0.0024  0.3102  0.3312
12605SOL    HW139031   4.885   5.497   1.787  0.8020  1.0353 -0.6074
12605SOL    HW239032   4.734   5.486   1.794  0.9663 -3.0501 -1.1932
12606SOL     OW39033   4.921   6.379   2.873 -0.8127  0.4538  0.2729
12606SOL    HW139034   4.869   6.436   2.816 -1.8070 -0.1503  0.5480
12606SOL    HW239035   4.911   6.292   2.835 -1.5273  0.0333  1.3746
12607SOL     OW39036   5.285   5.917   2.668  0.6931  0.1790 -0.2388
12607SOL    HW139037   5.258   5.826   2.654  0.3971  0.1872  0.2265
12607SOL    HW239038   5.277   5.958   2.582  0.1591 -0.0700 -0.3156
12608SOL     OW39039   3.094   6.710   2.306 -0.1717  0.1596  0.2774
12608SOL    HW139040   3.003   6.727   2.279 -0.0009 -0.0737 -0.4701
12608SOL    HW239041   3.125   6.793   2.340 -0.3534  0.5039 -0.3806
12609SOL     OW39042   4.729   7.518   1.996  0.1052 -0.5080 -0.1258
12609SOL    HW139043   4.727   7.447   1.932 -2.7603 -1.1119  0.5018
12609SOL    HW239044   4.738   7.597   1.943  0.4689 -1.1490 -1.0479
12610SOL     OW39045   3.440   6.437   3.705  0.1738 -0.4650 -0.1386
12610SOL    HW139046   3.409   6.399   3.623  1.2296 -0.7260 -0.4364
12610SOL    HW239047   3.363   6.478   3.743 -0.3099 -0.2102 -1.3354
12611SOL     OW39048   3.965   5.973   4.658  0.4831  0.2090 -0.5665
12611SOL    HW139049   3.901   5.906   4.684  1.6521 -0.1415  1.6130
12611SOL    HW239050   4.029   5.925   4.605  1.9611 -0.7688  1.9585
12612SOL     OW39051   3.704   5.671   4.231  0.7396  0.9322 -0.1331
12612SOL    HW139052   3.724   5.764   4.227 -0.0711  1.0853 -0.7596
12612SOL    HW239053   3.736   5.644   4.318 -1.2379  2.3285  1.1098
12613SOL     OW39054   4.222   7.280   5.297 -0.0127  0.4263 -0.2060
12613SOL    HW139055   4.145   7.253   5.248 -0.0208 -1.4515  0.7102
12613SOL    HW239056   4.295   7.235   5.254  0.8972  3.4797 -2.0851
12614SOL     OW39057   5.274   6.747   4.005 -0.7482 -0.2024  0.0097
12614SOL    HW139058   5.295   6.740   4.099  1.9245 -1.2583 -0.5592
12614SOL    HW239059   5.245   6.659   3.980 -1.2880  0.0322 -0.1955
12615SOL     OW39060   4.789   5.743   3.969  0.1675 -0.5096 -1.1522
12615SOL    HW139061   4.717   5.682   3.989 -0.4005  0.0733 -1.3659
12615SOL    HW239062   4.857   5.723   4.033  0.5123 -2.2405 -2.0140
12616SOL     OW39063   5.896   5.606   3.993  0.4642 -0.0578  0.0086
12616SOL    HW139064   5.890   5.686   4.045  0.0167 -0.5447  0.7325
12616SOL    HW239065   5.969   5.557   4.031  0.4218 -0.2149 -0.1092
12617SOL     OW39066   4.685   6.883   4.873  0.4752 -0.6212 -0.2143
12617SOL    HW139067   4.673   6.964   4.923 -2.8883 -0.2389 -1.3791
12617SOL    HW239068   4.721   6.821   4.936 -0.6686  0.6882  1.8527
12618SOL     OW39069   5.066   5.558   5.274  0.0572  0.2525 -0.1963
12618SOL    HW139070   4.971   5.573   5.272 -0.1990 -1.1444 -2.4180
12618SOL    HW239071   5.076   5.472   5.314  0.4196  0.5564  0.3683
12619SOL     OW39072   4.585   6.398   4.388 -0.3843  0.2074 -0.1022
12619SOL    HW139073   4.571   6.324   4.330  0.2610 -0.5134  0.6399
12619SOL    HW239074   4.528   6.467   4.354 -0.6135 -0.4624 -1.0955
12620SOL     OW39075   4.448   6.207   5.727  0.1456 -0.3546 -0.0865
12620SOL    HW139076   4.361   6.245   5.734  0.8501  1.2939  0.1291
12620SOL    HW239077   4.508   6.278   5.751  1.5514 -1.4579 -0.1692
12621SOL     OW39078   4.391   6.902   4.886  0.0183 -0.0933 -0.7161
12621SOL    HW139079   4.485   6.915   4.873  0.1387  1.0666  1.0492
12621SOL    HW239080   4.377   6.810   4.863  1.6192 -0.3443 -0.8334
12622SOL     OW39081   4.943   7.428   4.611 -0.0291  0.1234  0.0363
12622SOL    HW139082   4.856   7.406   4.576 -0.5454 -0.1189  1.4350
12622SOL    HW239083   4.934   7.518   4.642  0.8046  0.8006 -1.5779
12623SOL     OW39084   3.947   6.188   5.703  0.0761 -0.2274  0.0714
12623SOL    HW139085   4.010   6.128   5.662  1.3151  0.7988  0.3812
12623SOL    HW239086   3.874   6.193   5.641 -0.2344 -2.3001  0.2086
12624SOL     OW39087   4.912   5.772   4.222  0.0820 -0.1700 -0.7148
12624SOL    HW139088   4.926   5.714   4.297 -1.8244 -0.0004 -0.1699
12624SOL    HW239089   4.835   5.823   4.246  1.8443  2.8787 -1.0322
12625SOL     OW39090   3.652   7.440   4.281 -0.0624 -0.4844 -0.1317
12625SOL    HW139091   3.610   7.369   4.233  0.6901 -1.0931  0.1058
12625SOL    HW239092   3.738   7.449   4.240  1.4680 -2.4355  2.4049
12626SOL     OW39093   4.505   6.356   5.436 -0.2131  0.5720  0.0376
12626SOL    HW139094   4.525   6.286   5.498 -2.0350 -0.1983 -0.1657
12626SOL    HW239095   4.422   6.392   5.467  0.1849  1.9644 -0.4554
12627SOL     OW39096   4.001   6.868   4.266 -0.0271 -0.2145 -0.7159
12627SOL    HW139097   4.054   6.788   4.261  1.9948  1.0445 -0.7714
12627SOL    HW239098   3.971   6.871   4.356  2.1079  0.2392  0.0445
12628SOL     OW39099   3.712   6.165   4.512 -0.0333 -0.3477 -0.5041
12628SOL    HW139100   3.663   6.105   4.568  0.7972  0.0518  0.6898
12628SOL    HW239101   3.650   6.189   4.443 -1.7758  0.6770  1.3122
12629SOL     OW39102   4.414   7.489   5.296  0.0483  0.4405  0.1669
12629SOL    HW139103   4.339   7.431   5.286 -0.4449  1.1151 -0.0932
12629SOL    HW239104   4.431   7.490   5.390 -1.6139  1.9437  0.4961
12630SOL     OW39105   4.579   6.132   4.262  0.5797 -0.9772  0.1350
12630SOL    HW139106   4.609   6.042   4.272  1.3552 -0.6989  0.3831
12630SOL    HW239107   4.486   6.129   4.285  0.1850 -2.0059 -1.4506
12631SOL     OW39108   5.386   5.145   5.109 -0.1308 -0.5965  0.2462
12631SOL    HW139109   5.317   5.085   5.138  0.5134 -1.4276  0.1106
12631SOL    HW239110   5.391   5.132   5.014  0.1060 -0.4255  0.2342
12632SOL     OW39111   3.952   6.140   4.394  0.5657 -0.8205  0.1860
12632SOL    HW139112   3.876   6.175   4.440  1.1562  0.9335 -0.1328
12632SOL    HW239113   4.025   6.154   4.453  0.7203 -2.2538  0.3758
12633SOL     OW39114   5.766   7.235   3.621  0.0954 -0.0581  0.3807
12633SOL    HW139115   5.811   7.262   3.541 -0.2224 -1.0983 -0.1684
12633SOL    HW239116   5.713   7.311   3.645 -0.2878  0.0610 -0.7624
12634SOL     OW39117   4.206   7.359   3.411 -0.5995  0.3401  0.1465
12634SOL    HW139118   4.151   7.436   3.415 -2.1969 -0.7342 -0.2852
12634SOL    HW239119   4.191   7.313   3.494  1.9678  1.4860  1.3634
12635SOL     OW39120   5.681   6.677   3.978 -0.5833  0.3431 -0.3518
12635SOL    HW139121   5.669   6.702   3.887  0.6784 -1.2859 -1.0239
12635SOL    HW239122   5.686   6.581   3.976  0.4086  0.3156  1.2962
12636SOL     OW39123   5.295   6.312   4.268 -0.6604  0.4015 -0.2394
12636SOL    HW139124   5.336   6.227   4.251  1.2558  1.2738 -0.2058
12636SOL    HW239125   5.271   6.344   4.181  0.3358  0.6284 -0.4442
12637SOL     OW39126   3.988   6.197   5.352 -0.4454 -0.3497 -0.1807
12637SOL    HW139127   3.994   6.163   5.263 -0.6055  0.9948 -0.7222
12637SOL    HW239128   4.058   6.152   5.399 -0.1256 -0.8101 -1.0769
12638SOL     OW39129   4.066   6.929   4.581 -0.4728  0.0429  0.6319
12638SOL    HW139130   4.018   6.864   4.633  0.4286 -0.2208  1.1569
12638SOL    HW239131   4.078   7.003   4.641 -0.0741  0.0371  0.5583
12639SOL     OW39132   4.752   5.974   5.148  0.0170  0.0645 -0.1399
12639SOL    HW139133   4.749   5.968   5.244  2.0509 -0.7045 -0.0804
12639SOL    HW239134   4.674   5.927   5.119 -0.7521  0.5025  1.1264
12640SOL     OW39135   4.766   5.497   3.713 -0.3704 -0.1706  0.0973
12640SOL    HW139136   4.784   5.524   3.803  0.4459 -0.9497  0.1832
12640SOL    HW239137   4.745   5.404   3.719  0.1294 -0.3346 -0.5621
12641SOL     OW39138   3.834   6.165   4.771  0.0167  0.0149 -0.9264
12641SOL    HW139139   3.803   6.233   4.711  0.3917  0.6210 -0.4449
12641SOL    HW239140   3.888   6.108   4.717 -0.0343  0.2845 -1.2653
12642SOL     OW39141   5.357   7.156   3.665 -0.0970 -0.0434 -0.7091
12642SOL    HW139142   5.353   7.087   3.731  0.9033  0.1597 -0.4191
12642SOL    HW239143   5.276   7.204   3.676 -0.3844 -0.6110 -0.2865
12643SOL     OW39144   4.848   7.431   5.059 -0.0437 -0.3650  0.2892
12643SOL    HW139145   4.817   7.370   4.992 -1.2037  1.7169 -1.1799
12643SOL    HW239146   4.924   7.474   5.020 -0.0849  0.1254  0.7255
12644SOL     OW39147   4.541   5.331   5.608  0.4710 -0.0473  0.0337
12644SOL    HW139148   4.548   5.384   5.687  0.7066  0.4978 -0.3474
12644SOL    HW239149   4.483   5.259   5.633  1.9151 -0.8632  1.2272
12645SOL     OW39150   5.269   6.671   4.256  1.2199  0.0693 -0.5064
12645SOL    HW139151   5.216   6.730   4.308  0.4092  0.0023 -1.2247
12645SOL    HW239152   5.216   6.592   4.247  1.7807 -0.3094 -0.5619
12646SOL     OW39153   5.759   7.274   4.042  0.0598 -0.5128 -0.0605
12646SOL    HW139154   5.832   7.229   3.999 -1.3539 -2.4041 -0.5897
12646SOL    HW239155   5.798   7.355   4.075  2.9815 -2.4368  1.7148
12647SOL     OW39156   4.265   6.253   4.031 -0.3520 -0.1227  0.0891
12647SOL    HW139157   4.174   6.233   4.010 -0.2975  0.9781 -1.3137
12647SOL    HW239158   4.279   6.211   4.116 -2.1782 -0.2579  0.3704
12648SOL     OW39159   5.087   5.841   5.018  0.7216 -0.5473 -0.0422
12648SOL    HW139160   5.093   5.871   5.109 -1.5715  1.6311 -0.4950
12648SOL    HW239161   5.048   5.754   5.024  2.0248 -1.0913  1.0774
12649SOL     OW39162   5.533   7.381   3.945  0.4105 -0.2639  0.0166
12649SOL    HW139163   5.610   7.333   3.974 -0.6747 -0.9265  2.0197
12649SOL    HW239164   5.561   7.426   3.865  2.5271 -1.3186  0.0939
12650SOL     OW39165   4.175   5.767   4.856 -0.0016 -0.1487  0.4862
12650SOL    HW139166   4.238   5.709   4.898 -0.2174  0.1717  1.2702
12650SOL    HW239167   4.094   5.754   4.905 -0.9529 -1.5389 -1.3230
12651SOL     OW39168   5.690   5.926   5.423 -0.0682  0.3933 -0.0299
12651SOL    HW139169   5.705   6.002   5.366 -0.5930 -0.2914 -1.1045
12651SOL    HW239170   5.683   5.852   5.363  2.7587 -0.9412  1.1036
12652SOL     OW39171   4.401   6.048   5.506 -0.3865  0.2455 -0.5414
12652SOL    HW139172   4.442   5.961   5.503  1.1641  0.9314 -0.0985
12652SOL    HW239173   4.449   6.095   5.573 -2.9257  0.6493  1.1113
12653SOL     OW39174   4.641   5.532   5.080  0.1145 -0.2190 -0.4763
12653SOL    HW139175   4.655   5.497   4.992  1.0467 -1.5710  0.1684
12653SOL    HW239176   4.562   5.487   5.112  1.0571 -1.4911  0.1829
12654SOL     OW39177   4.627   6.151   4.734  0.3054 -0.1731 -0.1195
12654SOL    HW139178   4.606   6.072   4.783 -1.4194  0.2186 -0.1696
12654SOL    HW239179   4.697   6.193   4.785  0.9219 -1.4856  0.1412
12655SOL     OW39180   3.478   6.054   4.635 -0.1314 -0.3316  0.1623
12655SOL    HW139181   3.431   6.014   4.708 -0.2258  0.2643  0.4349
12655SOL    HW239182   3.464   6.148   4.646  2.0438 -0.0197  0.9321
12656SOL     OW39183   3.785   7.355   5.323 -0.0066  0.5329 -0.6881
12656SOL    HW139184   3.857   7.301   5.356  0.4894  2.1680  1.0817
12656SOL    HW239185   3.801   7.362   5.229  0.3809 -1.6283 -0.8440
12657SOL     OW39186   4.495   6.003   3.658  0.3768  0.2513  0.3987
12657SOL    HW139187   4.400   5.999   3.644  0.4226  0.4401  0.0078
12657SOL    HW239188   4.505   6.052   3.739  0.0693 -1.4256  1.4832
12658SOL     OW39189   5.070   6.373   5.595  0.3973 -0.1144  0.0464
12658SOL    HW139190   5.050   6.299   5.651 -0.1783 -0.4058 -0.5357
12658SOL    HW239191   5.137   6.423   5.643  1.1890 -1.2925  0.1962
12659SOL     OW39192   4.994   6.613   4.391 -0.8796  0.1182 -0.0442
12659SOL    HW139193   5.080   6.581   4.419 -0.0041  1.5146 -1.0140
12659SOL    HW239194   4.933   6.581   4.458  0.1673 -2.0703 -0.0729
12660SOL     OW39195   4.144   5.788   4.579 -0.3072  0.2735  0.0958
12660SOL    HW139196   4.144   5.753   4.668  0.6761 -0.6242 -0.2409
12660SOL    HW239197   4.086   5.730   4.530 -0.5833  0.5726  0.0551
12661SOL     OW39198   4.780   6.738   4.252 -0.0599 -0.2047 -0.5139
12661SOL    HW139199   4.782   6.654   4.207 -0.9331 -0.1340 -0.6944
12661SOL    HW239200   4.831   6.724   4.331  0.5501 -0.6466 -0.9802
12662SOL     OW39201   4.360   7.121   4.631  0.1846 -0.0960 -0.2597
12662SOL    HW139202   4.397   7.042   4.592  0.6606 -0.0350  0.0552
12662SOL    HW239203   4.322   7.169   4.557  0.7044 -0.1793 -0.5873
12663SOL     OW39204   5.611   6.686   4.491  0.2249  0.2290  0.1822
12663SOL    HW139205   5.590   6.592   4.496  2.7267 -0.3632  0.9861
12663SOL    HW239206   5.594   6.709   4.400 -0.7277 -0.9163  0.0448
12664SOL     OW39207   5.003   6.996   4.945  0.2300 -0.3537 -0.2745
12664SOL    HW139208   4.926   7.013   4.998  0.0147 -0.2208 -0.6227
12664SOL    HW239209   5.020   7.080   4.901  0.0929 -0.6050 -0.8117
12665SOL     OW39210   4.054   6.428   4.326 -0.8953  0.1750 -0.0158
12665SOL    HW139211   4.101   6.371   4.386 -0.7622  0.9739  0.6582
12665SOL    HW239212   3.972   6.381   4.308 -0.6948 -0.3275  0.3568
12666SOL     OW39213   5.595   6.224   4.574  0.2374 -0.7076  0.3550
12666SOL    HW139214   5.513   6.176   4.570  0.8293 -1.7962  0.9911
12666SOL    HW239215   5.642   6.188   4.649  1.2863 -0.0897  0.0307
12667SOL     OW39216   3.993   6.913   5.362 -0.0082 -0.1802 -0.1458
12667SOL    HW139217   3.975   6.830   5.320 -1.5055  0.0840 -0.0694
12667SOL    HW239218   3.960   6.979   5.302  1.0350  0.3754 -0.1435
12668SOL     OW39219   5.134   7.168   3.849  0.1603 -0.1097 -0.0344
12668SOL    HW139220   5.126   7.078   3.816 -0.0721  0.3504 -1.2593
12668SOL    HW239221   5.171   7.157   3.937  0.1739 -1.4004 -0.1730
12669SOL     OW39222   3.975   5.562   5.478 -0.5425 -0.8644 -0.0236
12669SOL    HW139223   4.007   5.539   5.566  0.2708  0.7521  0.1494
12669SOL    HW239224   4.041   5.527   5.418 -0.6957 -1.2979  0.0607
12670SOL     OW39225   5.456   6.954   3.067  0.1006 -0.0689 -0.1896
12670SOL    HW139226   5.497   7.040   3.058  0.1758 -0.1555 -0.7038
12670SOL    HW239227   5.369   6.965   3.029  0.2274 -0.3006 -0.5546
12671SOL     OW39228   4.048   7.584   3.800  0.0646  0.5335 -0.2562
12671SOL    HW139229   4.075   7.509   3.854  1.3332  3.6523  4.0182
12671SOL    HW239230   4.128   7.612   3.756  0.4872  1.3415  0.9694
12672SOL     OW39231   4.580   5.587   3.555 -0.0103 -0.3409  0.4007
12672SOL    HW139232   4.660   5.574   3.606  0.5877  0.1335 -0.4033
12672SOL    HW239233   4.585   5.523   3.485 -0.8786 -1.0522  0.9639
12673SOL     OW39234   3.866   7.284   4.728  0.4604 -0.4267  0.7621
12673SOL    HW139235   3.876   7.257   4.636 -0.9740  0.2071  0.3930
12673SOL    HW239236   3.815   7.213   4.767 -0.1826 -0.0124  0.6926
12674SOL     OW39237   4.349   7.157   4.259  0.3970 -0.1596 -0.2705
12674SOL    HW139238   4.290   7.204   4.318  0.5435  0.0293 -0.2774
12674SOL    HW239239   4.297   7.144   4.179  0.3864  0.0629 -0.3001
12675SOL     OW39240   4.304   6.117   4.298  0.6100 -0.3131 -0.1973
12675SOL    HW139241   4.261   6.162   4.371  0.0791 -1.2063  0.0511
12675SOL    HW239242   4.302   6.025   4.323 -0.3036 -0.7232 -1.7171
12676SOL     OW39243   5.343   5.651   5.321 -0.7116 -0.2259  0.6750
12676SOL    HW139244   5.249   5.637   5.308 -0.7775  0.2112  0.6738
12676SOL    HW239245   5.383   5.626   5.238 -0.7898 -0.7443  0.7895
12677SOL     OW39246   4.339   5.581   3.679  0.1405  0.2986 -0.0670
12677SOL    HW139247   4.429   5.596   3.649  0.5476  0.7153  1.3017
12677SOL    HW239248   4.311   5.503   3.631  1.1373  0.3170 -0.7110
12678SOL     OW39249   4.466   5.794   5.476  0.3332  0.1734 -0.3293
12678SOL    HW139250   4.478   5.699   5.467  1.1122  0.1929  0.3273
12678SOL    HW239251   4.381   5.811   5.437 -0.0416 -0.8787 -0.0163
12679SOL     OW39252   4.773   6.698   5.060 -0.4318 -0.1574 -0.6797
12679SOL    HW139253   4.701   6.662   5.112 -0.1215 -0.8541 -0.7219
12679SOL    HW239254   4.832   6.737   5.124 -0.7546  0.2509 -0.6303
12680SOL     OW39255   5.114   5.914   5.293  0.0887  0.0793  0.3924
12680SOL    HW139256   5.200   5.905   5.335  0.2188  0.9102  0.3150
12680SOL    HW239257   5.055   5.867   5.351  0.3470  0.8037  1.2748
12681SOL     OW39258   4.340   6.639   4.778  0.0934 -0.0863 -0.2260
12681SOL    HW139259   4.351   6.544   4.778  0.1688 -0.0777 -0.2375
12681SOL    HW239260   4.312   6.660   4.689  1.3714  0.0484 -0.6225
12682SOL     OW39261   4.551   5.888   4.839  0.4143  0.2810 -0.1173
12682SOL    HW139262   4.576   5.800   4.808 -1.0059 -0.4529  0.7220
12682SOL    HW239263   4.519   5.874   4.928 -2.6495  1.1502 -0.9783
12683SOL     OW39264   4.574   5.546   4.072 -0.2828  0.5667 -0.0702
12683SOL    HW139265   4.495   5.502   4.040  1.5502 -1.2497 -2.3950
12683SOL    HW239266   4.570   5.533   4.167 -1.7995 -1.2336 -0.3027
12684SOL     OW39267   5.074   6.811   3.708 -0.5793 -0.3952 -0.1779
12684SOL    HW139268   5.165   6.837   3.700 -1.4684  2.5738 -2.4299
12684SOL    HW239269   5.075   6.717   3.688  1.9466 -0.4145 -0.3056
12685SOL     OW39270   3.941   5.398   4.057  0.2960 -0.5495  0.4577
12685SOL    HW139271   3.852   5.399   4.021 -0.1791  0.9339  1.5818
12685SOL    HW239272   3.984   5.474   4.018  0.2557  0.1887  1.8038
12686SOL     OW39273   5.106   5.824   3.967 -0.6771  0.0360  0.7243
12686SOL    HW139274   5.072   5.740   3.937 -0.9239  0.2067  0.5294
12686SOL    HW239275   5.078   5.887   3.901  0.5531  0.0837  0.2068
12687SOL     OW39276   4.892   5.621   4.998  0.2279  0.4571 -0.2082
12687SOL    HW139277   4.826   5.631   5.066  2.0743  0.3325  1.6894
12687SOL    HW239278   4.881   5.531   4.967 -0.0245  0.1988  0.6042
12688SOL     OW39279   4.945   7.371   3.920  0.5707 -0.3229 -0.0469
12688SOL    HW139280   4.857   7.338   3.931  0.2385 -1.3922 -4.2409
12688SOL    HW239281   5.000   7.293   3.915  1.2810  0.1899 -0.4241
12689SOL     OW39282   4.239   6.723   4.537 -0.1040  0.6118 -0.3707
12689SOL    HW139283   4.247   6.686   4.449  0.9923  2.7861 -1.2579
12689SOL    HW239284   4.182   6.799   4.525 -1.0569  0.1559  1.0924
12690SOL     OW39285   5.108   6.953   4.057  0.2713  0.4511 -0.3546
12690SOL    HW139286   5.153   6.871   4.037 -0.1307  0.4684 -1.3909
12690SOL    HW239287   5.079   6.943   4.147  1.5259  0.0656  0.0300
12691SOL     OW39288   3.761   6.119   3.823 -0.0626 -0.6041 -1.0186
12691SOL    HW139289   3.842   6.085   3.861 -0.3219 -2.1791 -1.7973
12691SOL    HW239290   3.786   6.149   3.735 -0.7503 -3.6532 -2.3755
12692SOL     OW39291   3.699   5.862   5.191  0.0771 -0.0082  0.1398
12692SOL    HW139292   3.744   5.779   5.205 -2.7312 -1.8853 -1.1556
12692SOL    HW239293   3.750   5.905   5.121 -0.1246 -2.1091 -1.3972
12693SOL     OW39294   4.015   5.829   5.068  0.0436 -0.1484  0.1329
12693SOL    HW139295   4.031   5.833   5.162  0.0433  1.3671  0.0826
12693SOL    HW239296   3.998   5.736   5.051  0.0723 -0.4498  1.6123
12694SOL     OW39297   4.814   6.041   4.515 -0.5165  0.1757  0.5960
12694SOL    HW139298   4.785   5.951   4.499 -1.8868  0.6165  0.4099
12694SOL    HW239299   4.746   6.078   4.572 -0.7845  1.5103 -0.5191
12695SOL     OW39300   5.387   6.452   4.719 -0.0562  0.1892  0.5307
12695SOL    HW139301   5.372   6.439   4.625 -0.4583  2.1218  0.2889
12695SOL    HW239302   5.307   6.419   4.760  0.5178 -1.5618  0.2956
12696SOL     OW39303   4.640   5.822   4.262 -0.6591 -0.4801 -0.0596
12696SOL    HW139304   4.610   5.784   4.345  1.6902 -1.0027  0.6011
12696SOL    HW239305   4.592   5.772   4.195  0.2615 -2.7553  0.8888
12697SOL     OW39306   5.841   6.150   4.093 -0.6257  0.2357 -0.2359
12697SOL    HW139307   5.923   6.163   4.139 -0.1165 -0.8182 -0.8195
12697SOL    HW239308   5.796   6.082   4.143 -1.2277  0.8969  0.1578
12698SOL     OW39309   4.217   7.253   3.664  0.2633 -0.2520 -0.2151
12698SOL    HW139310   4.206   7.161   3.639  0.3698 -0.0967 -0.8483
12698SOL    HW239311   4.264   7.249   3.747  0.3075 -0.7736 -0.2583
12699SOL     OW39312   5.769   6.997   3.770 -0.3652 -0.1678  0.2798
12699SOL    HW139313   5.679   6.966   3.778 -0.6926  0.4993 -0.5944
12699SOL    HW239314   5.760   7.087   3.737  0.5329  0.9330  2.8303
12700SOL     OW39315   4.790   6.524   4.093 -0.2465 -0.2613 -0.2632
12700SOL    HW139316   4.759   6.435   4.077  0.9595 -0.3370 -2.4593
12700SOL    HW239317   4.865   6.535   4.035  0.6813  1.6406  1.1699
12701SOL     OW39318   3.975   5.934   4.206 -0.0012 -0.6502  0.0442
12701SOL    HW139319   3.999   5.881   4.282  1.1843  1.3769  1.1710
12701SOL    HW239320   3.963   6.023   4.240  1.4980  0.5396 -2.2159
12702SOL     OW39321   5.389   6.690   4.995 -0.6525  0.0269 -0.4228
12702SOL    HW139322   5.352   6.607   4.966 -0.3836 -0.7119  1.2943
12702SOL    HW239323   5.313   6.742   5.021 -0.7802  0.1528 -1.0239
12703SOL     OW39324   4.601   6.590   5.298 -0.4820  0.3028 -0.1229
12703SOL    HW139325   4.635   6.514   5.344  1.4723  1.4627  0.4638
12703SOL    HW239326   4.508   6.571   5.286 -0.0939 -2.0958  0.1048
12704SOL     OW39327   5.413   7.232   5.336 -0.1679 -0.3975 -0.3749
12704SOL    HW139328   5.355   7.274   5.273 -0.3147  0.6672  0.4487
12704SOL    HW239329   5.464   7.170   5.284 -0.4417  0.2973 -1.5035
12705SOL     OW39330   5.142   6.680   4.770  0.5272 -0.2082  0.2800
12705SOL    HW139331   5.055   6.641   4.764  0.6192 -0.3510 -0.2398
12705SOL    HW239332   5.132   6.754   4.829 -0.5783  1.4124 -1.8012
12706SOL     OW39333   5.650   6.450   4.799 -0.0027  0.1854 -0.3132
12706SOL    HW139334   5.562   6.445   4.761  0.2721 -0.0737 -0.9256
12706SOL    HW239335   5.638   6.499   4.880 -0.4931  1.3107 -1.0371
12707SOL     OW39336   4.297   5.821   5.254 -0.2466 -0.3526 -0.3233
12707SOL    HW139337   4.265   5.731   5.253  0.4048 -0.6063 -2.0372
12707SOL    HW239338   4.220   5.874   5.235 -0.2848 -0.7124 -1.2234
12708SOL     OW39339   4.742   6.098   5.819 -0.0280 -0.0463 -0.5009
12708SOL    HW139340   4.774   6.155   5.889  0.1930  0.3924 -0.9491
12708SOL    HW239341   4.748   6.010   5.855  1.0931  0.0767 -0.3348
12709SOL     OW39342   4.835   6.471   4.561  0.0793  0.4723  0.0151
12709SOL    HW139343   4.841   6.417   4.639 -0.8016  0.4041  0.0420
12709SOL    HW239344   4.759   6.437   4.514 -0.5233  1.7193  0.0547
12710SOL     OW39345   4.256   6.020   4.899  0.0050 -0.1201 -0.2445
12710SOL    HW139346   4.206   5.947   4.863 -0.7644  0.7516 -0.9786
12710SOL    HW239347   4.348   5.993   4.891 -0.2886 -1.5321  0.6733
12711SOL     OW39348   4.921   6.027   4.934  0.1408  0.4657 -0.1892
12711SOL    HW139349   4.864   6.014   5.009 -1.1571 -0.7521 -1.3352
12711SOL    HW239350   4.988   5.959   4.942 -0.9152 -0.7033 -0.9328
12712SOL     OW39351   4.176   7.055   4.810  0.2277 -0.4348  0.1993
12712SOL    HW139352   4.227   7.092   4.738  0.7222 -0.2302  0.6519
12712SOL    HW239353   4.237   6.999   4.857  0.5645  1.2132  1.8140
12713SOL     OW39354   4.184   6.261   4.522  0.2724 -0.4872 -0.6587
12713SOL    HW139355   4.156   6.240   4.611  1.9009 -0.5071 -0.1265
12713SOL    HW239356   4.278   6.277   4.529  0.7201 -1.8983 -2.6058
12714SOL     OW39357   4.050   5.643   4.324 -0.2863 -0.2961  0.2478
12714SOL    HW139358   4.060   5.558   4.282  2.5913 -0.0454  0.2178
12714SOL    HW239359   3.965   5.638   4.368  0.8237 -4.2256  2.4672
12715SOL     OW39360   5.046   6.903   4.313 -0.1079 -0.2890 -0.4255
12715SOL    HW139361   5.019   6.976   4.369  1.2573  0.9252 -1.2724
12715SOL    HW239362   5.014   6.825   4.359 -1.3838  0.7997  0.6481
12716SOL     OW39363   5.276   6.718   4.542 -0.0906  0.4618 -0.0526
12716SOL    HW139364   5.363   6.679   4.547 -0.1926  0.2835  0.3407
12716SOL    HW239365   5.238   6.704   4.629 -0.3546  0.9054 -0.0936
12717SOL     OW39366   5.094   5.996   4.198 -0.0854 -0.3598 -0.8374
12717SOL    HW139367   5.019   6.052   4.220 -0.6637 -1.0449 -1.0047
12717SOL    HW239368   5.054   5.914   4.169  0.7391 -0.7172 -0.9854
12718SOL     OW39369   4.492   6.885   4.584  0.0653 -0.2499  0.2080
12718SOL    HW139370   4.573   6.843   4.616 -0.0615 -1.0161 -0.4320
12718SOL    HW239371   4.422   6.827   4.614 -0.3089  0.7321  1.2773
12719SOL     OW39372   4.190   6.865   5.805 -0.0772  0.3343  0.3145
12719SOL    HW139373   4.163   6.775   5.790 -1.2229  0.6973  0.0900
12719SOL    HW239374   4.176   6.909   5.722  0.0520  0.8189  0.5451
12720SOL     OW39375   5.328   6.156   5.506  0.6813  0.2528  0.0031
12720SOL    HW139376   5.326   6.061   5.497  2.5180  0.1552  0.3759
12720SOL    HW239377   5.300   6.172   5.596  0.8666  0.0376  0.1000
12721SOL     OW39378   4.758   5.334   5.423  0.6508 -0.6230 -0.3834
12721SOL    HW139379   4.769   5.254   5.372  1.4993 -0.6201 -0.2150
12721SOL    HW239380   4.684   5.315   5.481  0.7793 -1.2516 -0.4149
12722SOL     OW39381   4.222   5.263   5.429 -0.3031  0.6635  0.1022
12722SOL    HW139382   4.267   5.207   5.492 -0.9283  0.3054  0.2403
12722SOL    HW239383   4.139   5.219   5.413 -0.5319  1.2213 -0.2839
12723SOL     OW39384   4.288   6.574   5.248 -0.6899 -0.6981  0.4805
12723SOL    HW139385   4.279   6.533   5.334  1.0344  0.0198  1.0470
12723SOL    HW239386   4.228   6.526   5.192 -1.7164 -1.3042  2.0389
12724SOL     OW39387   4.756   6.768   4.628 -0.1777 -0.3348 -0.1362
12724SOL    HW139388   4.808   6.689   4.646  0.4326  0.3279  1.0857
12724SOL    HW239389   4.743   6.808   4.714  2.5602  2.8106 -0.9977
12725SOL     OW39390   5.317   5.906   3.599  0.2460 -0.1673  0.0925
12725SOL    HW139391   5.260   5.878   3.671 -0.1889  0.0495 -0.1599
12725SOL    HW239392   5.298   5.845   3.528  2.6139 -2.0812  0.9703
12726SOL     OW39393   3.750   5.612   4.988 -0.1547 -0.4781 -0.0884
12726SOL    HW139394   3.758   5.658   5.072  1.1508 -0.2059 -0.3323
12726SOL    HW239395   3.838   5.577   4.971 -0.1267  0.2970 -1.7908
12727SOL     OW39396   3.858   6.768   4.682  1.2177 -0.6107  0.0311
12727SOL    HW139397   3.796   6.839   4.663  2.4858  0.0841 -1.8084
12727SOL    HW239398   3.895   6.792   4.767  0.4827  0.0685  0.1759
12728SOL     OW39399   4.299   5.845   4.380  0.0222  0.3776 -0.3338
12728SOL    HW139400   4.253   5.829   4.462  0.9928 -0.5686  0.0487
12728SOL    HW239401   4.273   5.772   4.323  0.4812  0.2260 -0.3560
12729SOL     OW39402   5.107   6.536   5.386 -0.1965  0.2858 -0.0866
12729SOL    HW139403   5.097   6.488   5.468  2.1728 -0.4843 -0.1720
12729SOL    HW239404   5.076   6.476   5.319 -0.5431  0.2556  0.0998
12730SOL     OW39405   4.370   5.610   4.981 -0.7637  0.2774 -0.1786
12730SOL    HW139406   4.331   5.523   4.995 -1.2560  0.5664  0.2737
12730SOL    HW239407   4.435   5.596   4.913 -0.9600 -0.4178 -0.2325
12731SOL     OW39408   5.440   6.165   3.860 -0.1027  0.0865 -0.5146
12731SOL    HW139409   5.405   6.254   3.855 -1.0767 -0.3689 -2.7447
12731SOL    HW239410   5.385   6.122   3.926  0.0498  0.9685  0.2101
12732SOL     OW39411   4.842   6.578   4.831 -0.3453  0.1019  0.1829
12732SOL    HW139412   4.816   6.616   4.914  0.3269 -0.4351  0.6499
12732SOL    HW239413   4.809   6.488   4.833 -1.6223  0.5234 -0.7673
12733SOL     OW39414   4.762   7.104   5.036 -0.1474 -0.4869 -0.0699
12733SOL    HW139415   4.734   7.182   4.988 -0.9443 -1.3278 -1.0160
12733SOL    HW239416   4.760   7.130   5.128  0.0222  0.7294 -0.3986
12734SOL     OW39417   5.500   7.027   5.190 -0.3347  0.0621 -0.1079
12734SOL    HW139418   5.590   6.998   5.171 -0.4387 -0.2500 -0.1298
12734SOL    HW239419   5.455   7.022   5.105 -0.0327  1.4805 -0.3731
12735SOL     OW39420   4.200   6.404   5.469 -0.1144  0.8060  0.6957
12735SOL    HW139421   4.111   6.424   5.498  0.5333  4.2056  0.7850
12735SOL    HW239422   4.193   6.321   5.423 -3.0121  0.1869  2.0537
12736SOL     OW39423   5.743   6.173   3.848 -0.0377  0.0023 -0.0610
12736SOL    HW139424   5.648   6.177   3.861 -0.0779 -2.4199  0.9130
12736SOL    HW239425   5.777   6.148   3.934  1.1861 -1.8457 -1.0193
12737SOL     OW39426   5.018   6.451   3.896 -0.0640 -0.2861 -0.3342
12737SOL    HW139427   4.967   6.375   3.867  3.5895 -3.8318  1.5401
12737SOL    HW239428   5.058   6.486   3.817  0.3798 -2.1686 -0.9790
12738SOL     OW39429   4.791   7.130   4.643  0.3135 -0.2910 -0.0365
12738SOL    HW139430   4.781   7.054   4.702  2.6767  1.3258  2.7156
12738SOL    HW239431   4.873   7.114   4.598  0.0165 -0.0917 -0.6491
12739SOL     OW39432   3.706   6.379   4.270 -0.0002  0.4394  0.4612
12739SOL    HW139433   3.723   6.429   4.191  0.1856  2.7232  1.8553
12739SOL    HW239434   3.754   6.425   4.339  2.1701 -3.0019  1.5425
12740SOL     OW39435   3.831   5.692   4.477 -0.1689  0.2300 -0.0027
12740SOL    HW139436   3.819   5.622   4.541 -3.0202 -1.1839 -1.8739
12740SOL    HW239437   3.805   5.772   4.523 -1.8061 -0.6887  0.7530
12741SOL     OW39438   4.793   5.587   5.336  0.3490 -0.5002 -0.0814
12741SOL    HW139439   4.728   5.595   5.266  0.1925 -0.4435  0.0719
12741SOL    HW239440   4.777   5.500   5.374 -0.7371  0.1747  1.0580
12742SOL     OW39441   4.459   5.083   5.299 -0.2628 -0.6693  0.2645
12742SOL    HW139442   4.551   5.088   5.325 -0.5184  0.0672  1.0709
12742SOL    HW239443   4.461   5.047   5.210  0.6819 -2.3467  0.9231
12743SOL     OW39444   4.278   6.566   4.010 -0.5910  0.0437  0.1050
12743SOL    HW139445   4.287   6.471   4.003 -2.0614 -0.0846 -0.3575
12743SOL    HW239446   4.367   6.597   4.032 -0.5310 -1.6418  2.7628
12744SOL     OW39447   3.427   7.407   4.957  0.1058  0.1973  0.2586
12744SOL    HW139448   3.496   7.412   4.891 -1.3491  0.6393 -1.3060
12744SOL    HW239449   3.406   7.499   4.977  0.9230  0.0779  1.8067
12745SOL     OW39450   4.579   6.919   4.316 -0.2545 -0.5510 -0.5551
12745SOL    HW139451   4.657   6.864   4.315  0.4997  0.4941 -0.1688
12745SOL    HW239452   4.542   6.906   4.403  0.1833 -0.0968 -0.2972
12746SOL     OW39453   4.689   6.244   5.133  0.0472 -0.2143 -0.0536
12746SOL    HW139454   4.634   6.260   5.210 -0.8784 -1.0335 -0.5234
12746SOL    HW239455   4.717   6.153   5.141  1.0577  0.0906 -0.0095
12747SOL     OW39456   3.482   6.119   5.125  0.8429 -0.3145 -0.4314
12747SOL    HW139457   3.438   6.034   5.136 -2.8904  1.3846 -0.5220
12747SOL    HW239458   3.567   6.108   5.168  0.3266 -3.9181 -0.0278
12748SOL     OW39459   4.475   5.535   5.453  0.0989  0.3759 -0.1620
12748SOL    HW139460   4.499   5.468   5.517  0.4709  1.9728  1.4512
12748SOL    HW239461   4.441   5.486   5.378 -0.5926 -1.5555  1.3494
12749SOL     OW39462   4.964   6.350   5.232 -0.5462 -0.0761  0.2418
12749SOL    HW139463   4.873   6.321   5.235  0.0872 -2.3818 -0.5985
12749SOL    HW239464   5.015   6.269   5.230  1.3674  0.9917 -3.0393
12750SOL     OW39465   4.740   5.877   3.704  0.1764  0.5728  0.1525
12750SOL    HW139466   4.654   5.917   3.694 -0.5715 -1.2372 -1.2824
12750SOL    HW239467   4.728   5.814   3.776  0.9105  1.7240  1.3323
12751SOL     OW39468   5.345   6.075   4.633  0.4779 -0.3419  0.2058
12751SOL    HW139469   5.250   6.086   4.632  0.4271 -0.7545 -0.3790
12751SOL    HW239470   5.365   6.042   4.721 -0.1744 -2.1377 -0.2626
12752SOL     OW39471   3.808   7.061   5.204 -0.2380  0.3082 -0.2735
12752SOL    HW139472   3.755   7.107   5.269 -1.0123 -1.1213  0.1369
12752SOL    HW239473   3.746   7.034   5.136  0.4546  1.1764 -1.2996
12753SOL     OW39474   4.518   5.844   5.113  0.0628 -0.4302 -0.1312
12753SOL    HW139475   4.439   5.853   5.166 -1.1873 -1.2816 -1.7618
12753SOL    HW239476   4.519   5.752   5.087  1.1870 -0.2596 -0.7379
12754SOL     OW39477   4.243   7.326   5.657 -0.2252  0.0471  0.2477
12754SOL    HW139478   4.302   7.271   5.710  0.3467  1.3265  0.9721
12754SOL    HW239479   4.302   7.377   5.601 -0.6199  1.4330  1.0684
12755SOL     OW39480   4.031   6.319   3.519 -0.1703  0.0259 -0.3526
12755SOL    HW139481   4.054   6.246   3.461 -2.0804 -1.4508  0.6289
12755SOL    HW239482   3.943   6.299   3.549 -1.0548  3.1135 -0.5350
12756SOL     OW39483   4.084   6.544   4.857  1.1498 -0.5287 -0.5757
12756SOL    HW139484   4.156   6.602   4.833  0.9338  0.6385  1.4190
12756SOL    HW239485   4.008   6.579   4.810  1.1105  0.5719  0.2765
12757SOL     OW39486   5.164   6.214   4.912 -0.3880 -0.5050 -0.0021
12757SOL    HW139487   5.145   6.289   4.969 -1.1101 -0.6394 -0.0481
12757SOL    HW239488   5.105   6.145   4.943 -0.0192 -0.9231 -0.2245
12758SOL     OW39489   4.871   6.131   4.264  0.1060  0.0612  0.1062
12758SOL    HW139490   4.865   6.100   4.355  0.9605 -1.3580 -0.2946
12758SOL    HW239491   4.813   6.208   4.261 -0.0221  0.0683  1.8144
12759SOL     OW39492   5.480   7.416   4.409 -0.3202 -0.0576 -0.3651
12759SOL    HW139493   5.499   7.489   4.468 -0.2723 -0.3605  0.0036
12759SOL    HW239494   5.446   7.457   4.330  1.3639  0.4589 -0.8426
12760SOL     OW39495   5.039   7.129   4.515  0.2724 -0.1977 -0.5225
12760SOL    HW139496   5.038   7.224   4.503  0.5024 -0.0365  0.5875
12760SOL    HW239497   5.130   7.109   4.538  0.3928 -0.7960 -1.4860
12761SOL     OW39498   3.651   7.009   4.610  0.1041  0.0486  0.3061
12761SOL    HW139499   3.557   7.008   4.593  0.3513 -0.0632 -1.1617
12761SOL    HW239500   3.690   6.970   4.532  1.3435 -0.4443  1.1375
12762SOL     OW39501   4.473   7.134   5.283  0.5498  0.6503  0.3334
12762SOL    HW139502   4.555   7.182   5.286  0.8856  0.1240 -0.2237
12762SOL    HW239503   4.442   7.143   5.193  1.5996 -1.7423 -0.3430
12763SOL     OW39504   5.678   6.050   4.268 -0.0384  0.2303 -0.0353
12763SOL    HW139505   5.598   6.007   4.297 -0.5982  0.6131 -0.9752
12763SOL    HW239506   5.649   6.136   4.237  0.8792  0.7752  0.5622
12764SOL     OW39507   5.381   6.949   3.865 -0.4368  0.4324  0.3324
12764SOL    HW139508   5.410   7.011   3.932  2.0041 -1.6026  1.3345
12764SOL    HW239509   5.333   6.882   3.913 -1.3663  0.5087 -0.4490
12765SOL     OW39510   3.986   7.205   5.413  0.5494 -0.4908  0.5353
12765SOL    HW139511   4.074   7.244   5.407  0.3236  0.1349  1.1286
12765SOL    HW239512   3.999   7.122   5.458  0.5839  0.5949  2.6744
12766SOL     OW39513   5.225   6.346   4.521  0.0687 -0.1793  0.1783
12766SOL    HW139514   5.158   6.277   4.521  0.7364 -0.8534  0.8048
12766SOL    HW239515   5.242   6.363   4.428 -1.1420  0.1901  0.0063
12767SOL     OW39516   4.334   6.816   5.384 -0.5123  0.3495 -0.4100
12767SOL    HW139517   4.254   6.790   5.430 -0.2649  0.9706  0.4088
12767SOL    HW239518   4.334   6.765   5.304 -0.2877 -1.8305  0.9056
12768SOL     OW39519   4.465   7.429   3.615  0.2828 -0.5613 -0.0312
12768SOL    HW139520   4.433   7.371   3.545 -0.4366 -0.2620  0.0474
12768SOL    HW239521   4.446   7.382   3.696 -0.4293 -0.1549  0.0394
12769SOL     OW39522   5.333   7.363   5.104  0.1358  0.1915 -0.0791
12769SOL    HW139523   5.284   7.429   5.055  0.7623  0.6515 -0.0998
12769SOL    HW239524   5.358   7.298   5.039 -0.9656 -0.3684  0.0400
12770SOL     OW39525   5.958   5.384   4.745 -0.1377 -0.3003  0.1573
12770SOL    HW139526   5.890   5.318   4.734  1.0452 -1.1791 -2.9627
12770SOL    HW239527   5.913   5.468   4.734 -1.0356 -0.7655  0.2454
12771SOL     OW39528   3.953   5.884   3.499 -0.0577 -0.4212  0.3429
12771SOL    HW139529   3.875   5.833   3.520  1.7285 -2.7686  1.7835
12771SOL    HW239530   4.026   5.828   3.525  2.1293  1.8773 -0.4444
12772SOL     OW39531   4.521   6.758   3.798  0.1663 -0.2045 -0.0772
12772SOL    HW139532   4.615   6.742   3.806  0.0861 -0.3612  0.5711
12772SOL    HW239533   4.513   6.819   3.724  0.7239 -0.6796 -0.5408
12773SOL     OW39534   4.116   6.460   5.098 -0.1207 -0.2379  0.4882
12773SOL    HW139535   4.112   6.488   5.007  0.4909  1.0569  0.8340
12773SOL    HW239536   4.111   6.364   5.094  1.0849 -0.2865 -0.9986
12774SOL     OW39537   4.440   6.289   4.598  0.1106 -0.2333  0.6355
12774SOL    HW139538   4.489   6.225   4.648  0.1663 -2.0517 -1.5517
12774SOL    HW239539   4.503   6.325   4.535 -0.4882  0.1799  0.2522
12775SOL     OW39540   5.052   7.032   3.535  0.3195  0.4650  0.7120
12775SOL    HW139541   5.006   6.972   3.594 -0.4719 -0.5358 -0.8506
12775SOL    HW239542   5.141   6.998   3.531  0.1171 -0.0559  0.5607
12776SOL     OW39543   3.977   6.853   4.901 -0.1918 -0.2967 -0.2206
12776SOL    HW139544   3.976   6.835   4.995  0.1055  0.5958 -0.0401
12776SOL    HW239545   4.056   6.906   4.888 -0.1988 -0.4737 -0.9846
12777SOL     OW39546   5.555   6.887   4.909  0.6021 -0.3967  0.7501
12777SOL    HW139547   5.495   6.821   4.942 -0.2648 -0.3230 -0.6114
12777SOL    HW239548   5.589   6.850   4.827  0.2730  0.7264  0.0848
12778SOL     OW39549   4.803   6.310   4.879 -0.4580  0.5115 -0.1098
12778SOL    HW139550   4.872   6.244   4.886 -2.1561 -1.3000  0.3967
12778SOL    HW239551   4.772   6.323   4.969 -0.3023  1.8802 -0.2263
12779SOL     OW39552   4.871   5.721   4.498  0.2780  0.1554 -0.1692
12779SOL    HW139553   4.786   5.716   4.542  0.6259  1.6117  0.7257
12779SOL    HW239554   4.935   5.698   4.565  0.7665  1.7157 -0.0720
12780SOL     OW39555   4.189   6.669   4.263  0.4690  0.0105  0.2587
12780SOL    HW139556   4.201   6.660   4.168  0.3234  0.9283  0.1505
12780SOL    HW239557   4.155   6.584   4.290 -1.1975  0.2994 -0.7889
12781SOL     OW39558   5.177   6.177   5.256  0.7086  0.3134  0.0922
12781SOL    HW139559   5.139   6.090   5.271  0.0754  0.6873  0.7124
12781SOL    HW239560   5.252   6.181   5.316  0.0027  0.6444  0.9845
12782SOL     OW39561   3.903   7.199   3.744 -0.4566 -0.0695 -0.1494
12782SOL    HW139562   3.938   7.266   3.685 -0.2470 -0.2931 -0.2803
12782SOL    HW239563   3.968   7.128   3.741 -1.2833 -0.8216 -0.9909
12783SOL     OW39564   3.965   6.567   5.481 -0.1811  0.1241 -0.1990
12783SOL    HW139565   3.961   6.593   5.390 -0.9154  1.0670  0.0913
12783SOL    HW239566   3.873   6.557   5.507 -0.1195  2.5006  1.1562
12784SOL     OW39567   4.022   5.865   5.321 -0.4662 -0.3913  0.1336
12784SOL    HW139568   4.037   5.934   5.385 -0.7547 -1.2756  1.1934
12784SOL    HW239569   4.019   5.784   5.373 -0.5494 -1.1534 -1.0142
12785SOL     OW39570   3.665   5.765   3.104 -0.2444  0.0621 -0.3115
12785SOL    HW139571   3.679   5.698   3.038  0.2371 -1.4163  1.2026
12785SOL    HW239572   3.586   5.811   3.076 -0.0345 -0.4958 -1.8985
12786SOL     OW39573   5.417   6.061   4.909 -0.3364 -0.1255  0.1882
12786SOL    HW139574   5.493   6.102   4.949 -0.0358  0.4996 -0.9781
12786SOL    HW239575   5.349   6.129   4.910 -0.3566 -0.1391 -0.2721
12787SOL     OW39576   3.690   5.511   4.010  0.0737  0.7505  0.4966
12787SOL    HW139577   3.645   5.443   4.060 -1.4668  0.1124 -1.6316
12787SOL    HW239578   3.687   5.588   4.066  1.2651 -0.7063  2.6937
12788SOL     OW39579   4.800   6.953   4.003  0.1774 -0.3029  0.4717
12788SOL    HW139580   4.818   6.887   3.936  1.0224  0.7753 -0.4026
12788SOL    HW239581   4.785   6.903   4.083  0.6785 -1.5528 -0.1927
12789SOL     OW39582   4.122   6.172   5.085  0.0778  0.0576  0.2889
12789SOL    HW139583   4.147   6.097   5.031 -1.7691  0.1936 -0.8670
12789SOL    HW239584   4.196   6.185   5.144  2.6056  0.3955 -2.7115
12790SOL     OW39585   5.342   7.192   4.310  0.2322 -0.4708  0.6641
12790SOL    HW139586   5.402   7.254   4.353  0.6478 -1.1388  1.0554
12790SOL    HW239587   5.318   7.130   4.378 -1.5595  0.2383  0.7251
12791SOL     OW39588   4.312   6.209   5.285 -0.1710 -0.0624 -0.4853
12791SOL    HW139589   4.319   6.134   5.344 -3.2914  1.6491  2.4767
12791SOL    HW239590   4.395   6.256   5.297 -0.4864 -0.0234  2.3936
12792SOL     OW39591   5.603   6.502   5.077  0.0207 -0.5163 -0.0473
12792SOL    HW139592   5.560   6.586   5.062  3.0134  0.9770 -1.0534
12792SOL    HW239593   5.661   6.518   5.151  1.8455 -1.1362 -1.2782
12793SOL     OW39594   4.041   7.218   5.074  0.5098  0.0436 -0.2083
12793SOL    HW139595   4.073   7.166   5.000 -1.2454 -0.5109 -0.6128
12793SOL    HW239596   3.953   7.185   5.092 -0.7956  2.9562 -0.5958
12794SOL     OW39597   5.617   6.238   5.035  0.2595 -0.1309 -0.3275
12794SOL    HW139598   5.588   6.329   5.030 -0.6236 -0.2125  2.0086
12794SOL    HW239599   5.617   6.218   5.129  1.6019 -2.1843 -0.6979
12795SOL     OW39600   5.339   6.053   4.086 -0.1791 -0.3668 -0.1194
12795SOL    HW139601   5.247   6.033   4.100 -0.1742  0.1600  0.6859
12795SOL    HW239602   5.379   6.051   4.173  1.2323 -3.6694 -0.6827
12796SOL     OW39603   3.823   6.554   4.438 -0.2692 -0.0782  0.1742
12796SOL    HW139604   3.795   6.532   4.527  1.9650 -3.6917  0.1534
12796SOL    HW239605   3.918   6.541   4.438 -0.2551 -0.7074 -2.8404
12797SOL     OW39606   5.432   5.616   5.606  0.4186  0.1201  0.6455
12797SOL    HW139607   5.423   5.535   5.657  0.4088 -0.0473  0.3785
12797SOL    HW239608   5.413   5.590   5.516 -1.4604  0.7903  0.8068
12798SOL     OW39609   5.808   6.721   5.185  0.0509  0.2222 -0.2494
12798SOL    HW139610   5.805   6.817   5.181  1.1573  0.2356 -1.6380
12798SOL    HW239611   5.820   6.694   5.094 -0.5953 -1.2606  0.0830
12799SOL     OW39612   4.487   6.484   3.744 -0.1752 -0.1479  0.0859
12799SOL    HW139613   4.515   6.574   3.759 -0.6601 -0.0398  0.3832
12799SOL    HW239614   4.563   6.441   3.704  0.3454  0.1803  0.7013
12800SOL     OW39615   4.455   6.999   4.015  0.1226  0.2088  0.1535
12800SOL    HW139616   4.434   7.013   4.107 -1.1172  0.4021 -0.1491
12800SOL    HW239617   4.497   6.913   4.013  1.4779  0.8041  1.0735
12801SOL     OW39618   4.104   6.247   4.782  0.4827 -0.5801 -0.5000
12801SOL    HW139619   4.132   6.186   4.850  0.5297 -0.7608 -0.6789
12801SOL    HW239620   4.075   6.325   4.829  1.4008 -0.3388 -0.3225
12802SOL     OW39621   4.756   6.250   4.014 -0.4887 -0.7180  0.4693
12802SOL    HW139622   4.743   6.175   4.072  0.2689 -0.4062  1.0610
12802SOL    HW239623   4.696   6.235   3.942 -0.9937 -1.4407  1.0231
12803SOL     OW39624   5.634   6.755   4.249  0.1281 -0.5278 -0.0240
12803SOL    HW139625   5.544   6.762   4.218 -0.0998 -0.6963  0.5891
12803SOL    HW239626   5.678   6.701   4.183  0.5757  2.0278 -1.9681
12804SOL     OW39627   3.977   6.667   5.215 -0.0682  0.0510  0.0553
12804SOL    HW139628   3.887   6.640   5.195  0.4498 -1.0090 -0.9019
12804SOL    HW239629   4.032   6.601   5.174  1.1625  0.5818  0.7968
12805SOL     OW39630   3.781   7.037   4.218  0.4820  0.2413 -0.4669
12805SOL    HW139631   3.756   6.954   4.259  0.4057  0.2227 -0.5501
12805SOL    HW239632   3.875   7.028   4.201  1.2178  1.3925  2.4193
12806SOL     OW39633   4.782   6.698   5.501 -0.1689  0.1570 -0.2371
12806SOL    HW139634   4.707   6.707   5.442 -0.3884 -0.1964 -0.0174
12806SOL    HW239635   4.808   6.606   5.493  1.0909  0.5809 -1.3121
12807SOL     OW39636   5.630   5.821   4.824 -0.0646  0.4143 -0.3643
12807SOL    HW139637   5.556   5.821   4.763 -0.5388 -0.5861  0.1949
12807SOL    HW239638   5.618   5.742   4.877  2.5795 -1.0219 -1.6890
12808SOL     OW39639   4.555   5.808   4.527  0.0526 -0.2616 -0.3618
12808SOL    HW139640   4.542   5.764   4.611  0.7508 -1.2187 -0.7413
12808SOL    HW239641   4.467   5.826   4.496 -0.2213  0.6949  0.8649
12809SOL     OW39642   5.276   7.009   4.546  0.3899 -0.1588 -0.4705
12809SOL    HW139643   5.286   6.914   4.547  0.7124 -0.1223  0.7288
12809SOL    HW239644   5.361   7.042   4.575 -0.5756  0.3930  1.9294
12810SOL     OW39645   3.807   6.006   4.988 -0.1749 -0.1809  0.8370
12810SOL    HW139646   3.828   6.076   4.926  0.7159  1.3461  2.7278
12810SOL    HW239647   3.882   5.947   4.985 -0.5176 -0.5890 -0.1119
12811SOL     OW39648   4.517   6.635   4.157 -0.7087  0.3927 -0.0380
12811SOL    HW139649   4.560   6.689   4.224  1.7073  2.2397 -2.8160
12811SOL    HW239650   4.588   6.588   4.114 -2.0435 -0.1241 -1.8179
12812SOL     OW39651   5.357   5.795   4.963  0.3522  0.3054 -0.9052
12812SOL    HW139652   5.262   5.782   4.968  0.4852 -0.5548 -0.2187
12812SOL    HW239653   5.368   5.887   4.941 -0.6405  1.0475  1.3423
12813SOL     OW39654   4.375   7.273   3.879 -0.3337  0.7105 -0.0767
12813SOL    HW139655   4.388   7.351   3.933 -0.9761  0.6741  0.1423
12813SOL    HW239656   4.434   7.207   3.915  0.6475  1.2648 -0.6278
12814SOL     OW39657   4.745   7.315   4.845  0.3996  0.0467 -0.3662
12814SOL    HW139658   4.652   7.317   4.823 -0.0193 -0.7716  1.2035
12814SOL    HW239659   4.786   7.269   4.771 -0.8332 -1.8674  0.0579
12815SOL     OW39660   5.179   5.197   3.816 -0.2556 -0.6562 -0.6408
12815SOL    HW139661   5.152   5.142   3.742  0.1051 -2.5967  0.6105
12815SOL    HW239662   5.267   5.167   3.837  0.4429  1.2395 -0.6191
12816SOL     OW39663   5.073   6.098   4.628 -0.3653  0.7762 -0.6118
12816SOL    HW139664   5.005   6.070   4.566  0.5521  0.5913 -1.5562
12816SOL    HW239665   5.047   6.058   4.711 -1.9157  1.4719 -0.7178
12817SOL     OW39666   5.216   5.832   4.418  0.2743 -0.8874 -0.2759
12817SOL    HW139667   5.159   5.909   4.413 -1.1964 -1.7438  1.7089
12817SOL    HW239668   5.164   5.761   4.380 -2.1504 -2.6618  5.2480
12818SOL     OW39669   3.821   6.523   4.013  0.1714  0.2156  0.6240
12818SOL    HW139670   3.905   6.561   3.986  0.6162 -1.6511 -0.8248
12818SOL    HW239671   3.780   6.495   3.931 -0.7881 -1.0089  1.4823
12819SOL     OW39672   4.215   7.010   3.882  0.3717 -0.0901 -0.0992
12819SOL    HW139673   4.225   7.000   3.787 -0.9278 -0.2941 -0.2358
12819SOL    HW239674   4.303   6.998   3.917  0.6107 -1.6399 -1.1340
12820SOL     OW39675   4.154   6.030   5.522 -0.2836  0.5199 -0.2092
12820SOL    HW139676   4.247   6.041   5.506 -0.0520 -0.5201  0.3509
12820SOL    HW239677   4.149   5.986   5.607 -1.2821  0.4789 -0.2766
12821SOL     OW39678   3.993   5.874   6.627  0.2826  0.1161 -0.1918
12821SOL    HW139679   3.899   5.856   6.623 -0.0514  1.2302  1.6744
12821SOL    HW239680   4.027   5.811   6.690  0.4481  0.9337  0.5436
12822SOL     OW39681   3.811   5.558   6.402  0.2751 -0.3199 -0.4215
12822SOL    HW139682   3.727   5.570   6.358  0.6116 -2.0373 -1.6331
12822SOL    HW239683   3.862   5.504   6.342  1.4506 -1.1946  1.2774
12823SOL     OW39684   3.775   7.163   7.044  0.2928 -0.9376  0.7244
12823SOL    HW139685   3.786   7.071   7.019 -0.5973 -1.1038  0.8917
12823SOL    HW239686   3.813   7.213   6.973 -0.3213 -1.4297  0.0352
12824SOL     OW39687   5.518   7.247   6.589  0.6966 -0.1149 -0.2942
12824SOL    HW139688   5.450   7.182   6.606 -0.2555  1.0286  0.4369
12824SOL    HW239689   5.583   7.231   6.658 -0.5636  1.0308  1.2426
12825SOL     OW39690   5.152   6.056   6.530  0.2549  0.0807 -0.0279
12825SOL    HW139691   5.093   6.120   6.488 -1.6809 -0.6782  1.3615
12825SOL    HW239692   5.124   5.972   6.494  0.7460 -0.2645  0.3923
12826SOL     OW39693   5.310   6.408   5.784 -0.1480 -0.5592 -0.0152
12826SOL    HW139694   5.392   6.376   5.746 -0.0807 -1.1512  0.5976
12826SOL    HW239695   5.286   6.341   5.848 -1.1472 -0.4241 -0.2342
12827SOL     OW39696   3.893   6.866   7.363  0.0294  0.0092 -0.1028
12827SOL    HW139697   3.924   6.805   7.297 -1.0364 -0.6521 -0.0225
12827SOL    HW239698   3.888   6.815   7.444 -0.6080  0.2677  0.0294
12828SOL     OW39699   4.494   6.616   7.071  0.0224 -0.0653 -0.0663
12828SOL    HW139700   4.524   6.621   6.981 -0.1275  0.4556 -0.0916
12828SOL    HW239701   4.400   6.602   7.064  0.1278 -0.8299  0.0119
12829SOL     OW39702   4.464   6.229   6.149  0.0417  0.1582  0.4030
12829SOL    HW139703   4.457   6.155   6.088  0.5623 -0.3672  0.9618
12829SOL    HW239704   4.420   6.301   6.104  0.0819 -0.3163 -0.4334
12830SOL     OW39705   4.314   7.030   7.425  0.1716  0.1540  0.6330
12830SOL    HW139706   4.404   7.063   7.423 -0.3516  1.8714  2.1162
12830SOL    HW239707   4.307   6.975   7.347  1.1608  3.6466 -2.1844
12831SOL     OW39708   4.176   7.262   6.609  0.5972 -0.3863  0.0045
12831SOL    HW139709   4.157   7.171   6.584 -0.0804 -0.0168 -0.8933
12831SOL    HW239710   4.250   7.288   6.554 -0.2646  0.1119 -0.9630
12832SOL     OW39711   4.997   7.046   6.999 -0.1732  0.0044 -0.3975
12832SOL    HW139712   4.966   7.002   7.078  0.1851 -2.5979 -1.5961
12832SOL    HW239713   4.920   7.051   6.942 -0.2567  1.1830 -0.2075
12833SOL     OW39714   3.270   5.568   7.289  0.0587  0.4102  0.4681
12833SOL    HW139715   3.175   5.561   7.300  0.1015  0.5899  1.0010
12833SOL    HW239716   3.287   5.537   7.200 -0.5144  0.5155  0.3215
12834SOL     OW39717   5.010   6.232   6.406 -0.1853 -0.5650 -0.1576
12834SOL    HW139718   4.949   6.304   6.417  1.9131  1.4027 -0.5876
12834SOL    HW239719   4.968   6.174   6.343 -2.5485 -0.5050  1.2610
12835SOL     OW39720   4.098   7.059   6.220  0.3741 -0.2644  0.0948
12835SOL    HW139721   4.122   7.084   6.131 -1.5548 -0.3259 -0.4872
12835SOL    HW239722   4.005   7.036   6.214  0.1044  0.1065  2.2068
12836SOL     OW39723   4.480   6.840   7.571  0.3282  0.4000 -0.3425
12836SOL    HW139724   4.417   6.895   7.525  0.0896 -0.9964 -1.7596
12836SOL    HW239725   4.433   6.808   7.648 -0.0723  0.8330 -0.4006
12837SOL     OW39726   3.569   6.892   6.490 -0.3688 -0.7414  0.1075
12837SOL    HW139727   3.573   6.987   6.478  1.3054 -0.6355  1.1897
12837SOL    HW239728   3.658   6.862   6.470 -0.3216 -1.8212  1.7953
12838SOL     OW39729   3.799   6.656   6.670  0.0121  0.5717 -0.1080
12838SOL    HW139730   3.825   6.748   6.665  0.2337  0.5056 -0.2264
12838SOL    HW239731   3.829   6.619   6.587  1.0975  0.1025  0.4649
12839SOL     OW39732   4.062   7.033   7.245 -0.2935 -0.1435 -0.7929
12839SOL    HW139733   4.001   6.982   7.299 -0.2552  0.4505 -0.1721
12839SOL    HW239734   4.080   7.112   7.297  0.7720 -0.1662 -1.0982
12840SOL     OW39735   4.076   6.629   5.728 -0.2767  0.0542  0.4341
12840SOL    HW139736   4.037   6.561   5.783  0.4858 -0.4592  0.3532
12840SOL    HW239737   4.046   6.607   5.639  1.2249 -1.1301  0.1770
12841SOL     OW39738   4.607   5.461   6.951  0.7677  0.3914  0.1904
12841SOL    HW139739   4.692   5.491   6.983  0.9074  1.7959 -1.3665
12841SOL    HW239740   4.624   5.373   6.918  1.2867  0.1117  1.1716
12842SOL     OW39741   4.018   5.905   6.257  0.2646  0.1427 -0.0850
12842SOL    HW139742   3.929   5.924   6.288  0.2896 -1.1243  0.8216
12842SOL    HW239743   4.008   5.831   6.198  0.6406  0.5098 -0.6304
12843SOL     OW39744   5.741   7.239   5.877 -0.2134  0.0086 -0.6248
12843SOL    HW139745   5.729   7.229   5.783 -2.5963 -0.3864 -0.3344
12843SOL    HW239746   5.807   7.173   5.900 -0.6699 -0.8871 -1.8035
12844SOL     OW39747   3.760   7.188   5.642 -0.3958 -0.1055 -0.0377
12844SOL    HW139748   3.722   7.129   5.577 -0.4756  1.6573 -1.7150
12844SOL    HW239749   3.832   7.139   5.681  0.2714 -0.9480 -2.1674
12845SOL     OW39750   5.322   6.172   5.953 -0.3812 -0.5764  0.2312
12845SOL    HW139751   5.407   6.132   5.973  0.2958  1.0375  0.7658
12845SOL    HW239752   5.258   6.104   5.972  0.7906 -1.8003 -0.1040
12846SOL     OW39753   5.303   7.028   5.768  0.4227  0.1852  0.5888
12846SOL    HW139754   5.347   7.093   5.714 -0.1796  0.3683  0.3137
12846SOL    HW239755   5.299   7.068   5.855 -2.5018  1.7798 -0.1893
12847SOL     OW39756   3.712   5.892   7.185 -0.4763  0.1759  0.6878
12847SOL    HW139757   3.620   5.917   7.186 -0.5734  0.3697 -2.2588
12847SOL    HW239758   3.714   5.810   7.135  0.9258  0.1818  0.6700
12848SOL     OW39759   4.344   6.549   6.416  0.9525 -0.0627  0.1961
12848SOL    HW139760   4.305   6.519   6.498  0.5204 -0.5423 -0.1748
12848SOL    HW239761   4.329   6.476   6.355  0.1304  0.7820 -0.6551
12849SOL     OW39762   4.935   6.998   6.472 -0.7330 -0.2606  0.0027
12849SOL    HW139763   4.910   7.088   6.491 -2.0515 -0.6353  0.1838
12849SOL    HW239764   4.928   6.990   6.377  2.0237  0.5339 -0.3396
12850SOL     OW39765   3.435   5.939   7.009 -0.4657 -0.0116  0.4606
12850SOL    HW139766   3.412   5.918   7.099 -0.1607  1.0085  0.7885
12850SOL    HW239767   3.368   5.895   6.956 -1.1337  0.0809  1.2215
12851SOL     OW39768   4.962   6.752   5.257  0.5030 -0.0357  0.1101
12851SOL    HW139769   4.911   6.785   5.330 -0.1034 -0.7216  0.0050
12851SOL    HW239770   4.986   6.663   5.282  1.6005  0.2534  0.1318
12852SOL     OW39771   5.093   7.311   6.751  0.1498 -0.3424 -0.0533
12852SOL    HW139772   5.179   7.350   6.737  0.8143 -2.2863 -2.0142
12852SOL    HW239773   5.112   7.224   6.787 -0.7640 -1.7760 -2.7735
12853SOL     OW39774   3.884   5.593   7.556  0.1500  1.0556 -0.3387
12853SOL    HW139775   3.921   5.565   7.473  0.3348  0.3458 -0.0233
12853SOL    HW239776   3.899   5.688   7.559  0.5923  1.0045 -0.8834
12854SOL     OW39777   5.341   7.044   6.637  0.0593  0.2343  0.3297
12854SOL    HW139778   5.323   7.024   6.729 -1.1162  1.1087  0.3192
12854SOL    HW239779   5.290   6.979   6.588 -1.3267  1.2777  0.3143
12855SOL     OW39780   5.362   7.033   6.297 -0.1297 -0.8121  0.2506
12855SOL    HW139781   5.450   7.002   6.319  0.0214 -0.3950  0.2272
12855SOL    HW239782   5.305   6.988   6.359  0.0147 -1.6735 -0.2201
12856SOL     OW39783   4.591   5.865   5.747 -0.2792  0.2203 -0.1129
12856SOL    HW139784   4.554   5.952   5.761 -0.9966  0.0942 -1.1117
12856SOL    HW239785   4.557   5.839   5.661 -0.2469 -1.1300  0.2727
12857SOL     OW39786   5.051   5.866   6.356 -0.5336 -0.5001  0.2139
12857SOL    HW139787   5.066   5.776   6.328  1.4259  0.1498 -1.0323
12857SOL    HW239788   4.959   5.883   6.335 -0.5022 -1.6855 -1.0114
12858SOL     OW39789   5.035   7.102   6.003  0.4234 -0.1269 -0.0304
12858SOL    HW139790   5.014   7.067   5.916  1.6101 -0.0134 -0.3964
12858SOL    HW239791   5.129   7.122   5.997  0.4529  0.1383  1.1972
12859SOL     OW39792   4.254   6.554   6.951 -0.0356  0.2738 -0.0341
12859SOL    HW139793   4.238   6.474   7.000  1.1031  0.0297 -0.0357
12859SOL    HW239794   4.167   6.586   6.927 -0.5106 -2.4983 -2.5734
12860SOL     OW39795   5.160   6.051   7.223  0.1891  0.1386 -0.5456
12860SOL    HW139796   5.221   6.068   7.152  0.8493  2.2047  0.4301
12860SOL    HW239797   5.104   6.129   7.225  0.3408  0.2350  1.3308
12861SOL     OW39798   4.538   6.597   6.767 -0.6353  0.1956 -0.0322
12861SOL    HW139799   4.461   6.653   6.759 -0.8500 -0.1341 -0.3138
12861SOL    HW239800   4.572   6.590   6.678 -1.3383 -1.1291 -0.2287
12862SOL     OW39801   4.724   6.181   6.746 -0.1135 -0.6106  0.2417
12862SOL    HW139802   4.654   6.243   6.763  1.6362  1.0436  1.8822
12862SOL    HW239803   4.709   6.110   6.809 -0.3311 -0.2602  0.5907
12863SOL     OW39804   4.856   5.906   6.009 -0.3167 -0.2372  0.1166
12863SOL    HW139805   4.853   5.836   5.944  2.7681 -1.7948  1.4351
12863SOL    HW239806   4.806   5.872   6.084  0.5512 -0.7528  0.4756
12864SOL     OW39807   3.744   5.830   6.496  0.6235 -0.1927  0.1912
12864SOL    HW139808   3.649   5.828   6.482  0.8876  0.0977 -1.9777
12864SOL    HW239809   3.777   5.755   6.446  1.8042  1.6857 -2.0092
12865SOL     OW39810   4.162   7.378   7.067 -0.1032 -0.0180 -0.1818
12865SOL    HW139811   4.134   7.369   7.158 -0.2788  1.7488 -0.0326
12865SOL    HW239812   4.102   7.320   7.018 -1.6036  0.8221  0.5780
12866SOL     OW39813   4.752   5.670   5.874  0.0868 -0.4950 -0.3968
12866SOL    HW139814   4.693   5.732   5.832 -1.3198 -1.5996 -0.1590
12866SOL    HW239815   4.700   5.590   5.883  1.7232 -1.6085 -0.3965
12867SOL     OW39816   5.003   6.304   7.162 -0.4644  0.5606  0.4162
12867SOL    HW139817   4.940   6.341   7.100 -0.0754  0.3731 -0.1087
12867SOL    HW239818   5.011   6.370   7.231 -0.0175  1.3210 -0.3424
12868SOL     OW39819   5.178   6.622   5.715  0.1331  0.4839 -0.5396
12868SOL    HW139820   5.220   6.684   5.655 -0.5908  1.9834  0.4552
12868SOL    HW239821   5.247   6.558   5.735  0.4817  0.0980 -2.7025
12869SOL     OW39822   4.308   5.266   6.815 -0.0008  0.1879  0.8144
12869SOL    HW139823   4.247   5.244   6.745  0.6653  1.2078 -0.1243
12869SOL    HW239824   4.338   5.181   6.848 -0.7852 -0.3139  0.2687
12870SOL     OW39825   5.137   7.336   5.730  0.2366  0.6397 -0.4470
12870SOL    HW139826   5.164   7.427   5.746  1.7799  0.4171 -1.5978
12870SOL    HW239827   5.211   7.296   5.686  0.8166 -2.0481  2.5605
12871SOL     OW39828   3.901   7.229   6.808 -0.6493  0.3160  0.3106
12871SOL    HW139829   3.886   7.169   6.735 -2.7155  0.6360  0.4130
12871SOL    HW239830   3.950   7.302   6.770 -3.1251  1.2934 -1.2307
12872SOL     OW39831   5.393   6.355   6.158 -0.0235 -0.3669 -0.1284
12872SOL    HW139832   5.373   6.300   6.083  1.5457  0.1277 -0.9521
12872SOL    HW239833   5.310   6.396   6.181 -0.7789 -1.4844 -0.7925
12873SOL     OW39834   4.702   6.823   7.405 -0.1523  0.3071 -0.1802
12873SOL    HW139835   4.696   6.745   7.352  0.0570  0.2730 -0.1535
12873SOL    HW239836   4.616   6.831   7.447 -0.5328  0.6877 -1.0099
12874SOL     OW39837   3.764   6.283   5.898 -0.1847 -0.0999 -0.1772
12874SOL    HW139838   3.775   6.197   5.937 -1.1422 -0.6209 -1.0028
12874SOL    HW239839   3.830   6.286   5.828 -0.1530 -0.1645 -0.1500
12875SOL     OW39840   5.131   6.642   6.424 -0.3862  0.2131  0.5409
12875SOL    HW139841   5.173   6.579   6.366  1.4203  0.9050  1.0335
12875SOL    HW239842   5.054   6.596   6.458 -0.1782 -1.0210 -0.5865
12876SOL     OW39843   3.727   7.085   7.324 -0.1616  0.0735  0.2024
12876SOL    HW139844   3.753   7.107   7.235 -0.1546 -0.8192 -0.0330
12876SOL    HW239845   3.754   6.993   7.335 -2.4197 -0.6694  0.2188
12877SOL     OW39846   4.799   7.097   5.535  0.3280  0.2090 -0.3600
12877SOL    HW139847   4.716   7.052   5.546  0.6643 -0.3794 -0.2122
12877SOL    HW239848   4.864   7.037   5.571  0.7582  0.8958  0.0421
12878SOL     OW39849   3.285   5.686   6.919 -0.0246  0.2061  0.1225
12878SOL    HW139850   3.313   5.615   6.978  0.0879 -0.7031 -0.9964
12878SOL    HW239851   3.190   5.678   6.916  0.0713 -0.7287 -0.9894
12879SOL     OW39852   5.259   6.756   5.469 -0.4155  0.1377  0.1597
12879SOL    HW139853   5.202   6.706   5.409 -1.7378  0.7453  0.8669
12879SOL    HW239854   5.240   6.847   5.449  0.0267  0.3494  0.6889
12880SOL     OW39855   3.821   6.993   6.176  0.0373  0.0845 -0.2743
12880SOL    HW139856   3.851   6.952   6.095  1.9576  1.8923 -0.5710
12880SOL    HW239857   3.746   7.046   6.149  0.5735  0.5634 -0.8761
12881SOL     OW39858   5.159   5.647   5.995 -0.3584  0.1536 -0.1843
12881SOL    HW139859   5.094   5.632   5.926  0.7449  0.5360 -1.3399
12881SOL    HW239860   5.236   5.597   5.967  0.6638  1.6066 -0.0934
12882SOL     OW39861   4.052   7.629   7.460 -0.7708 -0.1332  0.9667
12882SOL    HW139862   4.096   7.651   7.379 -0.8071 -2.6210  0.1817
12882SOL    HW239863   4.036   7.713   7.503  1.0589  1.1068 -0.6197
12883SOL     OW39864   4.526   6.779   6.411 -0.1325 -0.2068 -0.1358
12883SOL    HW139865   4.601   6.738   6.368  0.6890  0.3693  0.7029
12883SOL    HW239866   4.461   6.709   6.417 -0.5945 -0.1201 -2.9651
12884SOL     OW39867   4.372   6.060   5.962  0.9598  0.3150  0.5132
12884SOL    HW139868   4.336   5.972   5.975  1.5911 -0.1342 -0.5610
12884SOL    HW239869   4.387   6.066   5.867 -1.3437  2.5246  0.2031
12885SOL     OW39870   4.874   5.445   7.002  0.6237 -0.3479  0.2881
12885SOL    HW139871   4.917   5.457   6.917  1.5286  1.0008  0.8929
12885SOL    HW239872   4.934   5.486   7.065 -0.5672 -0.2861  1.4291
12886SOL     OW39873   4.325   5.633   5.815 -0.2437  0.0687  0.0969
12886SOL    HW139874   4.405   5.590   5.844 -0.7632 -0.3283  0.9993
12886SOL    HW239875   4.305   5.593   5.730  1.1786  1.0781 -0.7520
12887SOL     OW39876   4.189   6.124   7.635 -0.2888 -0.3547 -0.1504
12887SOL    HW139877   4.137   6.154   7.560 -0.0482 -2.0083 -1.0222
12887SOL    HW239878   4.142   6.049   7.669  0.0608 -0.1353  0.8369
12888SOL     OW39879   4.211   6.794   6.387  0.2750 -0.1369  0.1386
12888SOL    HW139880   4.183   6.826   6.301 -0.6278  1.4071  0.9484
12888SOL    HW239881   4.232   6.702   6.373  0.4857  0.1657 -1.7989
12889SOL     OW39882   4.977   6.341   6.794  0.7817  0.6788 -0.2952
12889SOL    HW139883   4.904   6.291   6.759  1.1993 -0.0808 -0.0995
12889SOL    HW239884   5.043   6.275   6.817  0.5119  1.1228  1.9868
12890SOL     OW39885   4.638   6.558   6.517 -0.2724 -0.1554 -0.2834
12890SOL    HW139886   4.728   6.529   6.502  0.4512  2.2200 -1.0045
12890SOL    HW239887   4.592   6.534   6.437 -0.0205 -0.4350 -0.3481
12891SOL     OW39888   4.794   5.411   6.553 -0.3123 -0.3004 -0.1669
12891SOL    HW139889   4.869   5.428   6.496  0.1985 -0.6322  0.3883
12891SOL    HW239890   4.724   5.466   6.518  0.1133 -0.1835 -0.8532
12892SOL     OW39891   4.050   5.692   6.108  0.2162  0.5163  0.1762
12892SOL    HW139892   4.023   5.612   6.154  1.2366  0.4245  0.6374
12892SOL    HW239893   4.023   5.678   6.018 -1.2421  0.4234  0.5957
12893SOL     OW39894   5.147   6.788   5.064  0.3733 -0.6813  0.2911
12893SOL    HW139895   5.099   6.861   5.024  1.4968 -0.3867 -0.5745
12893SOL    HW239896   5.088   6.755   5.131 -0.6484  0.2680 -0.1013
12894SOL     OW39897   4.175   5.322   5.895  0.0093  0.0293 -0.0570
12894SOL    HW139898   4.269   5.306   5.888 -0.0582 -0.1172 -0.7357
12894SOL    HW239899   4.150   5.282   5.979  0.6238  0.4558  0.3310
12895SOL     OW39900   4.448   5.765   6.271 -0.4235 -0.4681  0.5666
12895SOL    HW139901   4.407   5.771   6.184 -3.9112 -1.0631  2.0067
12895SOL    HW239902   4.380   5.791   6.332  2.2059  0.9010  3.1795
12896SOL     OW39903   4.922   6.548   6.578  0.5497 -0.2901 -0.3244
12896SOL    HW139904   4.879   6.501   6.650  2.9594 -0.5298  1.0493
12896SOL    HW239905   4.912   6.641   6.602  2.1067 -0.3914  0.8509
12897SOL     OW39906   5.120   6.428   6.198 -0.0678 -0.3296  0.0416
12897SOL    HW139907   5.056   6.357   6.200  0.0047 -0.3731  1.2187
12897SOL    HW239908   5.090   6.485   6.128 -1.1307 -0.5870  0.2673
12898SOL     OW39909   4.022   6.571   6.195 -0.6139 -0.4484  0.1619
12898SOL    HW139910   3.949   6.570   6.134 -1.6970  0.5660  1.3623
12898SOL    HW239911   4.082   6.637   6.160 -1.2889  0.2239  0.2513
12899SOL     OW39912   4.870   6.953   6.194  0.2061 -0.3878 -0.1283
12899SOL    HW139913   4.929   7.013   6.148 -0.4736  0.4854  0.1221
12899SOL    HW239914   4.847   6.887   6.128 -0.7737  0.8617 -1.0810
12900SOL     OW39915   5.015   5.620   5.771  0.0356  0.0388  0.4175
12900SOL    HW139916   4.927   5.636   5.806  0.1818  1.3100  0.2593
12900SOL    HW239917   5.004   5.547   5.711 -1.4931  1.8052 -1.6343
12901SOL     OW39918   3.720   6.177   6.657  0.1052 -0.0650  0.5410
12901SOL    HW139919   3.685   6.094   6.690  1.2061 -0.7260  0.1054
12901SOL    HW239920   3.643   6.229   6.636 -0.6959 -1.9742 -1.6994
12902SOL     OW39921   3.995   5.704   6.999 -0.3900  0.4243 -0.5469
12902SOL    HW139922   4.024   5.679   6.911  3.5707 -0.2580  0.7830
12902SOL    HW239923   3.912   5.656   7.011 -1.0320  0.5044 -3.7898
12903SOL     OW39924   4.229   5.806   6.431 -0.0066  0.8139 -0.4739
12903SOL    HW139925   4.182   5.840   6.506 -0.8303  0.6804 -0.9253
12903SOL    HW239926   4.180   5.836   6.355  1.0311  1.2747 -0.9875
12904SOL     OW39927   4.633   5.579   6.416 -0.0603 -0.1861 -0.1745
12904SOL    HW139928   4.591   5.658   6.383 -0.8806 -0.1603  0.8725
12904SOL    HW239929   4.666   5.535   6.338  1.2410  1.6163 -0.7274
12905SOL     OW39930   5.266   6.968   6.897  0.0300 -0.0108 -0.2002
12905SOL    HW139931   5.304   6.884   6.922 -2.1595 -0.6146  1.4384
12905SOL    HW239932   5.198   6.984   6.963 -0.8314  2.1738 -1.5064
12906SOL     OW39933   4.966   5.927   6.839  0.0280 -0.0249 -0.1088
12906SOL    HW139934   4.884   5.927   6.789  0.4934 -1.1882 -0.9045
12906SOL    HW239935   4.940   5.900   6.928 -0.5729  0.5254 -0.1094
12907SOL     OW39936   5.682   6.952   6.025  0.4917  0.0364 -0.0302
12907SOL    HW139937   5.689   6.862   6.056 -0.0505 -0.3721 -1.0337
12907SOL    HW239938   5.768   6.972   5.987  0.1486 -0.6196 -1.2008
12908SOL     OW39939   4.487   7.014   5.516  0.6697 -0.4584  0.1445
12908SOL    HW139940   4.453   6.929   5.489  0.1399 -0.4362  0.7203
12908SOL    HW239941   4.478   7.069   5.438 -0.6864 -0.4411  0.2948
12909SOL     OW39942   5.675   7.128   5.628  1.0888 -0.5802  0.3478
12909SOL    HW139943   5.625   7.057   5.669 -0.2520 -1.1405 -2.0793
12909SOL    HW239944   5.686   7.100   5.537 -0.5488  2.8268 -1.0598
12910SOL     OW39945   4.800   5.890   5.462  0.1824 -0.0009 -0.3481
12910SOL    HW139946   4.764   5.808   5.429  1.7668  0.3348 -3.2811
12910SOL    HW239947   4.889   5.868   5.488  0.3878  0.6291 -0.4972
12911SOL     OW39948   4.172   5.904   5.766 -0.7450 -0.0324 -1.1264
12911SOL    HW139949   4.077   5.898   5.777 -0.5295  0.3423  1.6512
12911SOL    HW239950   4.204   5.817   5.788 -0.2908  0.5698  0.7158
12912SOL     OW39951   5.499   6.625   7.211  0.6360 -0.0488  0.1842
12912SOL    HW139952   5.440   6.550   7.207  1.5755 -0.8048 -0.0393
12912SOL    HW239953   5.453   6.695   7.166 -0.0463 -0.6450 -0.0601
12913SOL     OW39954   4.311   6.803   6.773  0.3752 -0.3219  0.1402
12913SOL    HW139955   4.251   6.773   6.842 -1.4983  1.3554 -0.6472
12913SOL    HW239956   4.264   6.875   6.730  2.0534 -0.4061 -2.0125
12914SOL     OW39957   5.205   6.914   7.495 -0.5999 -0.6322  1.1161
12914SOL    HW139958   5.197   6.853   7.568 -0.2790  0.3176  1.9583
12914SOL    HW239959   5.197   7.001   7.535 -0.0953 -0.0889  0.0643
12915SOL     OW39960   4.695   6.614   6.217  0.3270  0.1095 -0.3650
12915SOL    HW139961   4.728   6.524   6.206 -0.1293 -0.2621  1.0527
12915SOL    HW239962   4.764   6.669   6.181  1.7308 -0.7266  0.8835
12916SOL     OW39963   5.534   6.390   6.648 -0.1419 -0.5475  0.1500
12916SOL    HW139964   5.506   6.371   6.558  1.3666 -1.5430 -0.1542
12916SOL    HW239965   5.556   6.304   6.685 -2.6166 -0.3962  2.1919
12917SOL     OW39966   3.955   5.239   6.950 -0.4543  0.0001  0.1224
12917SOL    HW139967   4.034   5.236   7.004  0.7173  1.6397 -1.3576
12917SOL    HW239968   3.930   5.147   6.939  1.0263 -0.5383  0.9456
12918SOL     OW39969   4.210   6.689   7.411 -0.0331 -0.2765 -0.2812
12918SOL    HW139970   4.131   6.672   7.359  0.9203 -1.0963 -1.5110
12918SOL    HW239971   4.252   6.762   7.367  0.7886 -0.9813 -0.6894
12919SOL     OW39972   4.219   6.372   6.237 -0.0175  0.0898  0.0992
12919SOL    HW139973   4.136   6.410   6.206  0.5635 -0.5156 -2.3744
12919SOL    HW239974   4.194   6.286   6.272 -0.8372  1.2214  2.5448
12920SOL     OW39975   3.987   6.151   6.602 -0.3587  0.0624  0.2959
12920SOL    HW139976   3.895   6.172   6.615 -0.5101 -1.2104  1.4084
12920SOL    HW239977   3.994   6.058   6.621  1.2847  0.2683  0.9026
12921SOL     OW39978   4.878   5.581   6.746  0.0935 -0.7480  0.1489
12921SOL    HW139979   4.801   5.638   6.753  1.5284  1.3155  0.0314
12921SOL    HW239980   4.849   5.508   6.690 -1.5933  0.2824 -0.3916
12922SOL     OW39981   4.100   7.134   6.963  0.6688 -0.4988 -0.1219
12922SOL    HW139982   4.030   7.149   6.899  0.8074  0.5940 -0.0456
12922SOL    HW239983   4.056   7.095   7.038  0.4095 -1.2859 -0.6762
12923SOL     OW39984   3.919   6.542   6.432  0.0784 -0.2268  0.2422
12923SOL    HW139985   3.953   6.546   6.343 -1.7203 -1.0202 -0.5374
12923SOL    HW239986   3.986   6.495   6.482  0.7051 -0.5769 -0.8936
12924SOL     OW39987   4.525   5.867   6.588  0.5226 -0.5666  0.1334
12924SOL    HW139988   4.472   5.943   6.568  0.5391 -0.6508 -0.2471
12924SOL    HW239989   4.462   5.795   6.600  0.5954 -1.2780 -2.9296
12925SOL     OW39990   5.076   6.543   5.962  0.3727 -0.0341 -0.3868
12925SOL    HW139991   5.087   6.584   5.877  0.0622  0.4210 -0.2114
12925SOL    HW239992   5.062   6.450   5.943  1.5695 -0.1478 -0.7605
12926SOL     OW39993   4.619   7.254   6.596 -0.0945 -0.2828  0.0968
12926SOL    HW139994   4.674   7.198   6.651 -0.7540  0.8401  1.9851
12926SOL    HW239995   4.607   7.204   6.516  2.2746 -1.2768  0.2813
12927SOL     OW39996   5.014   6.275   5.943 -0.4451  0.4984 -0.4197
12927SOL    HW139997   4.986   6.226   5.865  0.6992 -0.6227 -0.1690
12927SOL    HW239998   5.004   6.213   6.015 -0.1122  1.0457  0.1083
12928SOL     OW39999   3.503   7.128   6.387 -0.3063 -0.1336 -0.2762
12928SOL    HW140000   3.427   7.151   6.333 -0.4915 -0.3077 -0.0941
12928SOL    HW240001   3.565   7.199   6.373 -0.6269  0.1688 -0.1834
12929SOL     OW40002   4.183   6.327   7.058 -0.1930 -0.0916  0.0474
12929SOL    HW140003   4.235   6.273   7.117  0.2429  0.6807  0.3825
12929SOL    HW240004   4.183   6.279   6.975 -2.2092 -2.0437  1.0743
12930SOL     OW40005   5.219   6.473   7.077  0.0768 -0.7826 -0.3239
12930SOL    HW140006   5.237   6.379   7.085  1.2812 -0.4045  2.8329
12930SOL    HW240007   5.124   6.478   7.074 -0.0788 -2.0609  1.1132
12931SOL     OW40008   4.213   5.689   7.155  0.5529 -0.0771 -0.2824
12931SOL    HW140009   4.256   5.623   7.101  0.6735 -0.3241  0.1076
12931SOL    HW240010   4.129   5.705   7.111 -0.0563 -1.4620  0.3078
12932SOL     OW40011   4.249   5.848   7.400  0.0463  0.3819 -0.2482
12932SOL    HW140012   4.183   5.917   7.394  1.5202  1.7431 -2.3025
12932SOL    HW240013   4.218   5.780   7.341 -1.2247 -0.6398  1.5023
12933SOL     OW40014   4.122   6.423   6.595  0.1321 -0.0331 -0.4503
12933SOL    HW140015   4.117   6.428   6.691 -0.3720  0.0135 -0.4799
12933SOL    HW240016   4.095   6.333   6.574  1.4125 -0.4342 -0.4740
12934SOL     OW40017   5.180   6.902   6.456 -0.1014  0.1993 -0.0539
12934SOL    HW140018   5.174   6.809   6.438  0.5050  0.5326 -2.2498
12934SOL    HW240019   5.090   6.934   6.445 -0.2499 -0.0472  0.3923
12935SOL     OW40020   5.024   5.818   5.564 -0.2516 -0.5327  0.1828
12935SOL    HW140021   5.021   5.741   5.620  1.3282 -1.6872 -1.2293
12935SOL    HW240022   5.109   5.858   5.583 -0.0506 -0.4846 -0.7834
12936SOL     OW40023   4.280   5.912   6.758  0.6649 -0.2029 -0.3910
12936SOL    HW140024   4.221   5.840   6.737 -2.9652  2.5796 -0.8339
12936SOL    HW240025   4.327   5.883   6.837 -0.9504 -2.8185 -0.2812
12937SOL     OW40026   3.189   7.133   7.293 -0.0728  0.3721  0.2738
12937SOL    HW140027   3.187   7.177   7.208  1.4555 -0.1881 -0.0791
12937SOL    HW240028   3.280   7.107   7.305  0.2563  2.3302  3.0674
12938SOL     OW40029   4.431   6.121   6.412 -0.3373  0.0148 -0.0768
12938SOL    HW140030   4.425   6.117   6.316 -1.0969 -0.4362 -0.0115
12938SOL    HW240031   4.345   6.151   6.441 -0.8520 -1.9766  0.5818
12939SOL     OW40032   5.220   6.347   7.429 -0.3026 -0.0916  0.3131
12939SOL    HW140033   5.274   6.333   7.352 -2.0134 -0.5220 -0.8673
12939SOL    HW240034   5.240   6.436   7.458  1.7985 -0.6157  0.5873
12940SOL     OW40035   3.670   5.429   6.141  0.1587 -0.1083 -0.2901
12940SOL    HW140036   3.656   5.338   6.115  0.9317 -0.2669 -0.1876
12940SOL    HW240037   3.765   5.442   6.134  0.3573  0.0248  1.7913
12941SOL     OW40038   5.720   5.654   5.734  0.2206  0.5000  0.7909
12941SOL    HW140039   5.805   5.682   5.700  1.3593 -1.4714  1.8017
12941SOL    HW240040   5.667   5.636   5.656  1.2083  0.4515  0.1224
12942SOL     OW40041   4.708   5.795   6.761 -0.0574 -0.0018  0.2898
12942SOL    HW140042   4.689   5.844   6.842  3.1679  2.2081 -0.1167
12942SOL    HW240043   4.629   5.805   6.708 -1.7904 -0.4782  2.6172
12943SOL     OW40044   4.287   6.884   7.211 -0.7601 -0.0955 -0.2562
12943SOL    HW140045   4.336   6.888   7.129 -0.3602 -0.9652 -0.0718
12943SOL    HW240046   4.208   6.934   7.194  0.9662  2.9832  0.0091
12944SOL     OW40047   5.477   7.165   7.191 -0.4065 -0.4237 -0.2796
12944SOL    HW140048   5.459   7.081   7.232 -1.2153  0.7356  1.9384
12944SOL    HW240049   5.392   7.197   7.163 -0.3703  0.3675  0.4564
12945SOL     OW40050   3.880   6.103   7.211  0.6011 -0.0618  0.3855
12945SOL    HW140051   3.909   6.135   7.125  1.1049 -0.1552  0.5153
12945SOL    HW240052   3.824   6.029   7.192 -0.3255  0.6994  0.0873
12946SOL     OW40053   5.320   5.321   5.585 -0.3958 -0.2634 -0.1171
12946SOL    HW140054   5.372   5.315   5.505 -0.2436 -0.7525  0.0132
12946SOL    HW240055   5.243   5.267   5.568 -0.2594 -0.5400  0.1442
12947SOL     OW40056   4.697   6.121   5.558 -0.5261 -0.3396  0.8000
12947SOL    HW140057   4.701   6.116   5.653 -0.1871 -0.8617  0.7586
12947SOL    HW240058   4.731   6.038   5.527 -0.0079  0.0780  0.2093
12948SOL     OW40059   4.513   7.127   6.143 -0.2156  0.1061  0.0532
12948SOL    HW140060   4.422   7.112   6.117  0.2278 -0.5567 -1.2134
12948SOL    HW240061   4.560   7.050   6.111  0.2966 -1.3032  3.7281
12949SOL     OW40062   3.814   6.855   7.026  0.0930  0.0785 -0.1710
12949SOL    HW140063   3.718   6.850   7.026  0.1497 -2.3913 -1.4634
12949SOL    HW240064   3.841   6.783   7.083  1.2284  1.4771  1.1427
12950SOL     OW40065   4.167   6.132   6.379 -0.0727 -0.4751  0.8182
12950SOL    HW140066   4.133   6.068   6.316  1.5452  0.7183 -1.4146
12950SOL    HW240067   4.106   6.127   6.453 -1.6820 -2.4747 -0.5188
12951SOL     OW40068   4.667   5.978   6.970  0.5241  0.2617  0.3383
12951SOL    HW140069   4.576   5.975   6.999  0.0226  1.4024 -1.0204
12951SOL    HW240070   4.714   6.019   7.043  0.3134 -1.9091  1.7876
12952SOL     OW40071   4.933   5.219   6.768  0.0282 -0.4501 -0.2653
12952SOL    HW140072   4.840   5.240   6.761 -0.3389 -1.9727 -0.3200
12952SOL    HW240073   4.948   5.208   6.861  0.1844 -0.1174 -0.2488
12953SOL     OW40074   3.719   6.743   5.689 -0.3249  0.4189 -0.4181
12953SOL    HW140075   3.715   6.653   5.658 -0.0740  0.0677  0.5547
12953SOL    HW240076   3.693   6.739   5.781 -0.5587  1.3747 -0.4331
12954SOL     OW40077   3.379   7.009   7.024  0.2540 -0.5133 -0.0986
12954SOL    HW140078   3.335   6.954   6.959  2.1109 -1.1546 -0.8891
12954SOL    HW240079   3.372   7.098   6.989 -0.3021 -0.6179 -0.2638
12955SOL     OW40080   3.812   6.795   6.371 -0.1616 -0.6622  0.0680
12955SOL    HW140081   3.834   6.861   6.305  0.1584 -0.5607  0.2746
12955SOL    HW240082   3.885   6.734   6.370 -0.7882 -1.4185 -0.6225
12956SOL     OW40083   4.174   6.177   6.816 -0.2974  0.3139 -0.4302
12956SOL    HW140084   4.231   6.101   6.818 -1.9997 -1.0086  1.3647
12956SOL    HW240085   4.106   6.155   6.753 -1.1787  0.0019  0.5948
12957SOL     OW40086   3.443   5.748   6.711 -0.1254 -0.5222 -0.0054
12957SOL    HW140087   3.502   5.675   6.691 -1.2335 -1.5796  0.4402
12957SOL    HW240088   3.398   5.720   6.791 -0.3258  0.8130  0.3627
12958SOL     OW40089   3.898   5.867   7.490 -0.0924  0.1014  0.1202
12958SOL    HW140090   3.892   5.850   7.396  0.9510  2.3870 -0.4239
12958SOL    HW240091   3.832   5.934   7.507  0.1175  0.1227  0.8834
12959SOL     OW40092   4.779   6.400   7.000  0.3457 -0.3871 -0.5235
12959SOL    HW140093   4.836   6.451   6.942  0.0414 -0.2389 -0.7005
12959SOL    HW240094   4.705   6.376   6.944 -0.5631  0.8173  0.1102
12960SOL     OW40095   4.722   5.877   6.277  0.5848 -0.6877  0.5972
12960SOL    HW140096   4.711   5.952   6.336  1.2730 -1.4642  1.7534
12960SOL    HW240097   4.654   5.815   6.303  0.2137 -0.5943 -0.1463
12961SOL     OW40098   5.289   5.918   6.231 -0.3451 -0.5202 -0.6989
12961SOL    HW140099   5.208   5.898   6.278 -0.9431 -1.0176 -1.9047
12961SOL    HW240100   5.329   5.833   6.215 -0.4935 -0.4154 -1.6737
12962SOL     OW40101   4.158   7.393   7.738  0.5811 -0.4798  0.4823
12962SOL    HW140102   4.114   7.470   7.702  1.8673  0.1397  0.1813
12962SOL    HW240103   4.087   7.340   7.774 -0.4359  0.3428 -0.2351
12963SOL     OW40104   4.703   6.129   6.459 -0.4907  0.1575 -0.4694
12963SOL    HW140105   4.732   6.103   6.546 -1.0569 -3.9074 -1.2749
12963SOL    HW240106   4.609   6.115   6.460 -0.6807  1.2174 -1.4189
12964SOL     OW40107   4.590   7.096   7.437 -0.1465  0.2492  0.2821
12964SOL    HW140108   4.646   7.158   7.390  0.4188  0.0842  0.7239
12964SOL    HW240109   4.640   7.014   7.435 -0.7096 -0.0886  0.0409
12965SOL     OW40110   4.178   6.291   5.790  0.2327  0.0543  0.2082
12965SOL    HW140111   4.189   6.236   5.868  2.1895 -3.0428 -1.9865
12965SOL    HW240112   4.087   6.275   5.763  0.5496 -1.6906  0.0196
12966SOL     OW40113   3.834   6.188   6.948 -0.1521  0.0870  0.3989
12966SOL    HW140114   3.781   6.109   6.935  0.5294  0.0213 -2.6557
12966SOL    HW240115   3.819   6.241   6.870  1.0515  2.0252  1.3988
12967SOL     OW40116   5.167   6.634   6.751  0.1843  0.1207  0.7674
12967SOL    HW140117   5.262   6.628   6.760  0.2460  1.2656  1.1356
12967SOL    HW240118   5.139   6.545   6.729  1.4915  0.0720 -0.9321
12968SOL     OW40119   4.808   6.426   5.536 -0.8853 -0.0608  0.0077
12968SOL    HW140120   4.903   6.419   5.538 -0.8116  0.2962 -1.3007
12968SOL    HW240121   4.777   6.335   5.528 -0.6732 -0.1947  0.6762
12969SOL     OW40122   5.524   7.354   6.853 -0.2710 -0.2458 -0.0869
12969SOL    HW140123   5.598   7.409   6.876 -0.0386 -0.9616  0.9330
12969SOL    HW240124   5.559   7.265   6.855 -1.4608 -0.7341  1.8461
12970SOL     OW40125   4.757   7.540   6.628 -0.3030 -0.2636 -0.1309
12970SOL    HW140126   4.686   7.481   6.600 -0.3856 -0.4392  0.4302
12970SOL    HW240127   4.744   7.619   6.576 -0.0773 -0.8065 -1.0398
12971SOL     OW40128   3.556   6.823   7.079  0.5297 -0.0106  0.0876
12971SOL    HW140129   3.480   6.872   7.046  0.6945 -0.5382 -1.1404
12971SOL    HW240130   3.558   6.842   7.172 -1.6263 -0.6270  0.3296
12972SOL     OW40131   4.453   6.896   6.990  0.1154 -0.0979  0.0541
12972SOL    HW140132   4.455   6.988   6.964  1.2303  0.1602  0.9585
12972SOL    HW240133   4.430   6.849   6.910 -0.9272  0.9938 -0.3089
12973SOL     OW40134   5.503   5.864   5.798  0.6172 -0.1605 -0.3231
12973SOL    HW140135   5.555   5.790   5.767 -1.6807 -2.1994  0.3165
12973SOL    HW240136   5.546   5.891   5.879  0.9964 -1.4632 -0.0570
12974SOL     OW40137   5.200   7.059   5.414 -0.6477 -0.1285 -0.0205
12974SOL    HW140138   5.173   7.088   5.327  2.3616 -0.8436 -1.3402
12974SOL    HW240139   5.275   7.114   5.435 -0.2638 -1.1234  1.3556
12975SOL     OW40140   3.705   7.369   7.621 -0.2885  0.0429  0.1994
12975SOL    HW140141   3.780   7.321   7.588  0.0246 -0.5454  1.6797
12975SOL    HW240142   3.631   7.310   7.609 -0.3570  0.2426 -0.3799
12976SOL     OW40143   4.610   6.455   5.765  0.1673  0.5752  0.5746
12976SOL    HW140144   4.524   6.489   5.740  0.5101  2.0902  1.3650
12976SOL    HW240145   4.662   6.459   5.685  0.1332  1.7141  0.6027
12977SOL     OW40146   4.026   6.703   6.878  0.2767 -0.6043 -0.3445
12977SOL    HW140147   3.975   6.780   6.905  2.9835  1.7480 -1.3416
12977SOL    HW240148   3.974   6.664   6.808  0.0561  2.1020 -1.8424
12978SOL     OW40149   4.160   6.999   5.567  0.1709 -0.0034 -0.3807
12978SOL    HW140150   4.120   6.961   5.489 -1.9961  0.5847  0.3880
12978SOL    HW240151   4.245   7.032   5.536 -0.1531 -0.7597 -2.2135
12979SOL     OW40152   5.283   7.329   7.091  0.5045  0.1847 -0.2598
12979SOL    HW140153   5.297   7.418   7.123 -1.2370  0.0952  0.9068
12979SOL    HW240154   5.286   7.337   6.995  2.7816  1.0178 -0.1777
12980SOL     OW40155   5.201   5.753   6.713  0.6183  0.0172  0.5521
12980SOL    HW140156   5.115   5.792   6.697  1.1335  1.2810  0.7588
12980SOL    HW240157   5.192   5.663   6.682 -0.7806  0.1178  0.5881
12981SOL     OW40158   4.027   5.505   6.585 -0.0288  0.4340  0.0366
12981SOL    HW140159   3.982   5.475   6.506  0.0605 -0.5857  0.3622
12981SOL    HW240160   4.089   5.435   6.605  0.3861  0.9722  0.6579
12982SOL     OW40161   5.055   7.021   5.634  0.4091 -0.0027 -0.0750
12982SOL    HW140162   5.130   7.004   5.690  0.3183 -0.6181 -0.1302
12982SOL    HW240163   5.093   7.050   5.551  0.6349 -1.0679 -0.3664
12983SOL     OW40164   4.096   6.931   6.602  0.0436  0.0266  0.2260
12983SOL    HW140165   4.165   6.979   6.558  0.0957 -1.3222 -1.2476
12983SOL    HW240166   4.070   6.863   6.540 -1.1372 -0.8320  1.5840
12984SOL     OW40167   4.852   6.186   6.155  0.0408 -0.7944  0.0095
12984SOL    HW140168   4.813   6.107   6.115  0.5660  0.5090 -3.4551
12984SOL    HW240169   4.776   6.241   6.176 -0.2449 -0.4752 -1.6955
12985SOL     OW40170   5.109   7.151   5.157  0.1461  0.2780 -0.7793
12985SOL    HW140171   5.092   7.068   5.113  0.7469 -0.0703 -0.3594
12985SOL    HW240172   5.109   7.216   5.087 -0.1176 -0.0979 -1.1344
12986SOL     OW40173   4.093   6.883   7.828  0.2510 -0.3976 -0.3086
12986SOL    HW140174   4.153   6.808   7.819 -1.2749 -1.6462 -0.6145
12986SOL    HW240175   4.006   6.843   7.832 -0.7589  1.4320 -1.9793
12987SOL     OW40176   5.325   6.729   7.023  0.2358  0.1441 -0.7310
12987SOL    HW140177   5.358   6.688   6.943 -2.3916  1.1562 -2.4582
12987SOL    HW240178   5.270   6.662   7.064  0.7394 -0.0217 -0.3170
12988SOL     OW40179   4.661   6.340   6.264 -0.3662  0.1424 -0.2390
12988SOL    HW140180   4.571   6.314   6.245 -0.4347 -0.4246  0.8048
12988SOL    HW240181   4.684   6.292   6.343  0.1200  1.9053  0.7297
12989SOL     OW40182   4.451   5.615   6.767 -0.3618  0.6621 -0.0569
12989SOL    HW140183   4.442   5.541   6.707 -0.6816  1.0247 -0.4590
12989SOL    HW240184   4.529   5.595   6.819 -0.9307 -0.3709  0.4217
12990SOL     OW40185   4.575   6.905   6.003 -0.3833  0.5650  0.0936
12990SOL    HW140186   4.533   6.819   6.000  0.2644  0.2711 -1.0393
12990SOL    HW240187   4.652   6.896   5.948 -0.8662  2.1772 -0.9128
12991SOL     OW40188   5.567   6.314   7.025  0.3198  0.1416  0.1888
12991SOL    HW140189   5.585   6.381   6.959  1.5074  0.4599  0.8044
12991SOL    HW240190   5.552   6.234   6.974  0.4808  0.5350 -0.4949
12992SOL     OW40191   3.938   6.829   5.992 -0.5339  0.4581  0.0457
12992SOL    HW140192   3.862   6.771   5.987 -1.0370  1.0714  0.3430
12992SOL    HW240193   4.012   6.770   6.003 -1.1039 -0.1159  1.0557
12993SOL     OW40194   3.563   6.827   7.362 -0.2774 -0.1231 -0.0174
12993SOL    HW140195   3.630   6.770   7.400  0.0857 -0.2390 -0.8127
12993SOL    HW240196   3.480   6.788   7.390 -0.0357 -1.0861 -0.5859
12994SOL     OW40197   3.934   5.696   7.274  0.1960  0.3300 -0.2461
12994SOL    HW140198   3.957   5.603   7.268  0.3650  0.3330  0.3190
12994SOL    HW240199   3.940   5.728   7.184 -2.1256 -0.7198 -0.8385
12995SOL     OW40200   3.795   5.361   5.330  0.1577  0.3437 -0.8491
12995SOL    HW140201   3.822   5.318   5.411 -2.3184 -1.4602 -0.8716
12995SOL    HW240202   3.774   5.289   5.271 -0.1229  1.6398 -2.3890
12996SOL     OW40203   5.154   6.128   6.817  0.3546  0.1944 -0.1257
12996SOL    HW140204   5.189   6.126   6.728 -0.2715  0.0546 -0.3714
12996SOL    HW240205   5.095   6.052   6.821 -0.6175  0.9403 -0.0066
12997SOL     OW40206   3.982   5.550   5.829 -0.0545 -0.7033  0.1474
12997SOL    HW140207   3.932   5.468   5.837  1.2206 -1.6292 -0.8199
12997SOL    HW240208   4.073   5.524   5.845  0.3487  0.5802  0.0337
12998SOL     OW40209   4.360   6.537   5.652  0.2937  0.3541 -0.4045
12998SOL    HW140210   4.295   6.498   5.593 -0.1816  1.1254 -0.3978
12998SOL    HW240211   4.310   6.597   5.707  0.9308  0.5533 -0.0341
12999SOL     OW40212   4.518   6.321   6.864  0.3982  0.6054 -0.1936
12999SOL    HW140213   4.499   6.411   6.835 -0.6636  0.6845  0.6958
12999SOL    HW240214   4.432   6.281   6.874  0.8685 -0.5987 -0.7760
13000SOL     OW40215   5.217   7.256   6.384  0.0305  0.0915 -0.0129
13000SOL    HW140216   5.126   7.242   6.411 -0.8839  0.0167 -2.8579
13000SOL    HW240217   5.255   7.169   6.383  0.0368  0.0771  0.8112
13001SOL     OW40218   4.629   6.458   7.687 -0.3268 -0.1606 -0.0228
13001SOL    HW140219   4.688   6.384   7.670 -0.3971 -0.2209 -0.0060
13001SOL    HW240220   4.569   6.458   7.612 -1.2201 -0.9996  0.6631
13002SOL     OW40221   4.805   6.771   6.937 -0.3196 -0.0935  0.2862
13002SOL    HW140222   4.852   6.797   6.857  0.3015 -0.9736  0.3442
13002SOL    HW240223   4.717   6.806   6.926  0.1287  0.9199 -0.1903
13003SOL     OW40224   4.046   7.402   7.325 -0.1727  0.6139 -0.0616
13003SOL    HW140225   4.042   7.485   7.373 -1.3642  0.2906  0.4370
13003SOL    HW240226   3.989   7.343   7.374 -3.1054  0.8090 -2.9193
13004SOL     OW40227   5.413   6.073   6.421 -0.2578 -0.1341 -0.0949
13004SOL    HW140228   5.393   6.022   6.343 -0.9700  1.1707 -0.7971
13004SOL    HW240229   5.328   6.108   6.449  0.1126  0.0974  0.7809
13005SOL     OW40230   5.247   5.952   5.738  0.4991  0.0217  0.1385
13005SOL    HW140231   5.331   5.910   5.755 -0.6834 -1.9516  1.4055
13005SOL    HW240232   5.206   5.960   5.824 -1.1746 -0.2945 -0.5861
13006SOL     OW40233   3.782   6.020   6.319 -0.5219  0.1334 -0.5833
13006SOL    HW140234   3.782   5.957   6.391  1.1731  0.6572 -0.0670
13006SOL    HW240235   3.706   6.076   6.336 -1.3350 -1.0001 -0.3713
13007SOL     OW40236   5.284   5.759   6.986  0.0837  0.4519 -0.0753
13007SOL    HW140237   5.214   5.763   6.920  2.3800  1.7623 -2.6528
13007SOL    HW240238   5.338   5.685   6.957  0.0566 -0.2865  1.6447
13008SOL     OW40239   5.043   6.679   7.027  0.1270  0.4234 -0.0483
13008SOL    HW140240   4.969   6.736   7.004  0.9593  1.0274 -1.3824
13008SOL    HW240241   5.088   6.665   6.944 -0.0810 -2.2757  0.2139
13009SOL     OW40242   4.511   6.619   5.998  0.1778  0.3253  0.1722
13009SOL    HW140243   4.574   6.620   6.071  0.7916  1.6806 -0.3374
13009SOL    HW240244   4.543   6.550   5.941  0.8281  0.5472  0.2544
13010SOL     OW40245   4.575   7.084   6.397  0.3818  0.0329  0.0653
13010SOL    HW140246   4.530   7.096   6.313 -0.4746  0.9934  0.6353
13010SOL    HW240247   4.624   7.002   6.386  0.7673  0.4404 -1.5636
13011SOL     OW40248   4.914   6.830   6.685 -0.1857  0.4444  0.0623
13011SOL    HW140249   4.900   6.889   6.611  0.5733  0.4695 -0.0733
13011SOL    HW240250   5.010   6.826   6.695 -0.2814  1.5629  1.9224
13012SOL     OW40251   5.021   6.130   5.709 -0.4182 -0.2595 -0.0191
13012SOL    HW140252   4.943   6.077   5.692 -0.0750 -0.6582 -0.3814
13012SOL    HW240253   5.091   6.066   5.721  0.5993  0.0340 -3.2217
13013SOL     OW40254   5.196   6.927   7.207  0.0514  0.8186  0.0659
13013SOL    HW140255   5.168   6.852   7.154 -3.4578  2.9222 -1.4687
13013SOL    HW240256   5.182   6.900   7.298 -0.4311 -0.6279 -0.4230
13014SOL     OW40257   3.452   7.072   7.269 -0.2362  0.2354  0.6422
13014SOL    HW140258   3.432   7.047   7.179  0.7371  1.8990 -0.0852
13014SOL    HW240259   3.519   7.010   7.297  0.6080  0.6823 -0.3516
13015SOL     OW40260   3.588   6.561   6.382 -0.3872 -0.2883  0.2502
13015SOL    HW140261   3.561   6.652   6.383  0.8332  0.0970  1.9446
13015SOL    HW240262   3.683   6.564   6.369 -0.2696 -1.2941  0.7372
13016SOL     OW40263   4.373   7.140   6.933 -0.0671 -0.2929 -0.0123
13016SOL    HW140264   4.279   7.120   6.931 -0.3210  0.6249  1.4231
13016SOL    HW240265   4.377   7.235   6.945  0.9923 -0.5837  2.4790
13017SOL     OW40266   5.444   5.915   6.626  0.1234  0.0153 -0.2313
13017SOL    HW140267   5.440   5.976   6.553 -1.1026 -0.2176 -0.3774
13017SOL    HW240268   5.358   5.872   6.627  0.5173 -0.8009  0.6431
13018SOL     OW40269   4.320   5.789   6.043 -0.1072  0.0892 -0.8321
13018SOL    HW140270   4.351   5.732   5.973 -0.5698 -1.5556  0.2700
13018SOL    HW240271   4.232   5.759   6.062 -0.6993  1.7341 -0.7677
13019SOL     OW40272   4.926   7.253   6.523  0.3161 -0.4244 -0.0044
13019SOL    HW140273   4.847   7.291   6.559  0.4936  0.4151 -0.4827
13019SOL    HW240274   4.992   7.262   6.592  0.4514  0.4729 -0.2440
13020SOL     OW40275   3.631   5.545   6.680  0.2658 -0.5582  0.4337
13020SOL    HW140276   3.693   5.484   6.720 -1.0945 -1.4502  1.2776
13020SOL    HW240277   3.664   5.558   6.591  1.3445 -1.4532  0.6796
13021SOL     OW40278   4.240   6.760   6.108 -0.2427 -0.6805  0.2549
13021SOL    HW140279   4.273   6.837   6.062 -1.1680  0.4109  1.3442
13021SOL    HW240280   4.309   6.695   6.099  1.6957  1.0904  1.3768
13022SOL     OW40281   5.057   5.613   6.280 -0.3137 -0.3633 -0.2295
13022SOL    HW140282   5.059   5.518   6.296  1.3706 -0.4256 -0.6092
13022SOL    HW240283   5.057   5.621   6.185  0.1187  0.0178 -0.1992
13023SOL     OW40284   4.326   5.471   7.008 -0.9062  0.2547  0.2118
13023SOL    HW140285   4.418   5.480   6.983 -0.7887  0.5654  0.7326
13023SOL    HW240286   4.287   5.417   6.939 -0.3390  0.1381 -0.0212
13024SOL     OW40287   4.875   6.758   6.009  0.4910 -0.1272 -0.4972
13024SOL    HW140288   4.935   6.684   6.000 -1.7865 -1.9676 -1.3432
13024SOL    HW240289   4.863   6.790   5.919  1.9048  1.7391 -0.0855
13025SOL     OW40290   3.835   6.914   6.686  0.5924 -0.2053  0.3611
13025SOL    HW140291   3.928   6.930   6.670  0.6498  0.0243  0.9048
13025SOL    HW240292   3.791   6.993   6.656  0.9005  1.2523  3.3196
13026SOL     OW40293   4.978   5.426   5.586  0.1791 -0.2699 -0.4547
13026SOL    HW140294   5.044   5.360   5.566 -0.2373 -0.3315 -1.6829
13026SOL    HW240295   4.900   5.398   5.538 -1.1032 -0.7318  1.7103
13027SOL     OW40296   5.142   5.920   5.966 -0.0918 -0.0780 -0.1887
13027SOL    HW140297   5.051   5.916   5.994  0.4593 -0.5558  1.6747
13027SOL    HW240298   5.182   5.842   6.005  1.0640 -0.0014 -1.1847
13028SOL     OW40299   5.383   5.647   6.248  0.0743 -0.2696 -0.3141
13028SOL    HW140300   5.473   5.622   6.224  0.5827  1.0351  0.1509
13028SOL    HW240301   5.331   5.569   6.228  0.7953 -0.0891 -3.4214
13029SOL     OW40302   3.840   6.538   5.993  0.0112 -0.2080 -0.0111
13029SOL    HW140303   3.830   6.444   5.979  0.2128 -0.1103 -0.8268
13029SOL    HW240304   3.751   6.572   5.997 -0.0575 -0.3101 -0.5944
13030SOL     OW40305   4.883   6.855   5.723  0.0882 -0.1518 -0.0984
13030SOL    HW140306   4.938   6.910   5.668  1.5525 -2.0472 -0.6727
13030SOL    HW240307   4.833   6.801   5.660 -1.9080  0.9731  0.4265
13031SOL     OW40308   3.933   6.402   7.092  0.0326  0.1877  0.3112
13031SOL    HW140309   4.024   6.387   7.065 -0.4182  0.5132 -1.5449
13031SOL    HW240310   3.885   6.329   7.053 -0.4475 -0.3063  1.7739
13032SOL     OW40311   3.983   5.489   8.281 -0.2570 -0.1399  0.2485
13032SOL    HW140312   3.994   5.439   8.361  1.4828 -0.3440 -0.0754
13032SOL    HW240313   3.999   5.580   8.308 -0.8865 -0.0549  0.3514
13033SOL     OW40314   3.904   6.401   8.442 -0.3812 -0.1994 -0.3281
13033SOL    HW140315   3.893   6.369   8.352 -0.3735 -1.6189  0.1471
13033SOL    HW240316   3.985   6.452   8.440  0.4203 -1.4521 -0.8233
13034SOL     OW40317   4.060   6.887   8.610 -0.5556  0.0553 -0.1913
13034SOL    HW140318   3.972   6.922   8.609 -0.7350 -0.3744  0.3455
13034SOL    HW240319   4.111   6.950   8.660 -1.1300 -1.0116  1.8309
13035SOL     OW40320   4.936   7.007   8.249 -0.3456 -0.1005 -0.0119
13035SOL    HW140321   4.850   7.010   8.209  0.1361  3.0541 -1.0708
13035SOL    HW240322   4.996   6.991   8.176  0.1869  1.2571  0.0931
13036SOL     OW40323   4.997   6.320   8.137 -0.1524  0.4443  0.4429
13036SOL    HW140324   4.956   6.241   8.100  0.4637  1.0587 -1.7132
13036SOL    HW240325   4.926   6.364   8.184 -0.6484 -1.0633  1.1830
13037SOL     OW40326   5.550   6.184   7.557  0.0355  0.2995 -0.7021
13037SOL    HW140327   5.641   6.157   7.544  0.1860  1.6816 -3.0086
13037SOL    HW240328   5.501   6.101   7.560  1.1798 -0.4085 -0.9309
13038SOL     OW40329   3.874   6.881   8.125  0.1774 -0.5985 -0.1583
13038SOL    HW140330   3.851   6.929   8.205  0.0341 -0.5945 -0.2017
13038SOL    HW240331   3.970   6.881   8.124  0.1841  0.0559 -0.3774
13039SOL     OW40332   4.670   6.519   8.451 -0.0769  0.2059 -0.0344
13039SOL    HW140333   4.655   6.426   8.432  1.1168 -0.0398  0.1172
13039SOL    HW240334   4.594   6.546   8.503 -1.5202 -0.0930 -1.9143
13040SOL     OW40335   3.594   7.192   8.202  0.2397 -0.4660  0.9709
13040SOL    HW140336   3.543   7.273   8.214  0.1303 -0.4542  0.4556
13040SOL    HW240337   3.535   7.123   8.231  0.4247 -0.3438  1.6540
13041SOL     OW40338   4.152   5.751   8.421  0.2053  0.6609  0.0800
13041SOL    HW140339   4.124   5.689   8.488  1.9853 -0.2129  0.0566
13041SOL    HW240340   4.247   5.742   8.418  0.2312  1.2067 -2.0611
13042SOL     OW40341   5.529   5.733   8.093  0.6287 -0.5714  0.0112
13042SOL    HW140342   5.544   5.705   8.003  3.2060  0.9226 -0.1349
13042SOL    HW240343   5.472   5.809   8.086  1.2235 -0.1619 -0.4175
13043SOL     OW40344   4.275   7.663   7.738 -0.4220 -0.1402 -0.8664
13043SOL    HW140345   4.259   7.573   7.711 -2.0463 -0.3707  0.6782
13043SOL    HW240346   4.205   7.713   7.696 -0.4453  0.1493 -0.4857
13044SOL     OW40347   3.906   7.389   7.975  0.0666 -0.3307 -0.3711
13044SOL    HW140348   3.815   7.404   7.950  0.0640 -0.0680 -0.2091
13044SOL    HW240349   3.936   7.319   7.918 -0.4534 -0.9050  0.0420
13045SOL     OW40350   4.201   6.173   8.227 -0.2943 -0.3629 -0.0448
13045SOL    HW140351   4.134   6.115   8.264 -0.3433 -0.7152 -0.6634
13045SOL    HW240352   4.152   6.238   8.178 -0.1810 -0.8957 -0.8876
13046SOL     OW40353   3.976   7.848   8.705 -0.7834  0.1269 -0.1897
13046SOL    HW140354   4.034   7.814   8.637  0.8953  0.1922  1.1654
13046SOL    HW240355   3.888   7.827   8.674  0.0475 -2.3331 -1.0652
13047SOL     OW40356   4.267   7.080   7.939 -0.2080 -0.1414  0.0463
13047SOL    HW140357   4.347   7.028   7.931  0.3315  0.3569  1.7614
13047SOL    HW240358   4.197   7.022   7.908  0.5126 -1.4892  0.8594
13048SOL     OW40359   3.572   6.351   8.322 -0.2337  0.1848  0.2279
13048SOL    HW140360   3.561   6.256   8.329  0.4906  0.1712  1.5710
13048SOL    HW240361   3.666   6.364   8.331 -0.1731  0.9674 -1.2247
13049SOL     OW40362   5.665   7.270   7.800 -0.0199  0.1003 -0.0234
13049SOL    HW140363   5.708   7.194   7.840 -0.3299 -0.4306 -0.6871
13049SOL    HW240364   5.645   7.328   7.874  0.5537 -0.2869  0.4457
13050SOL     OW40365   3.958   7.193   7.791  0.3621 -0.0590  0.2541
13050SOL    HW140366   4.014   7.172   7.716  0.1820  1.2926 -0.2903
13050SOL    HW240367   3.891   7.126   7.790  2.3305 -2.1833  1.3636
13051SOL     OW40368   5.600   6.508   7.926  0.5903  0.9031 -0.0637
13051SOL    HW140369   5.588   6.509   7.831 -0.6260  1.4967  0.0756
13051SOL    HW240370   5.515   6.535   7.962  0.7670 -0.1333  1.2287
13052SOL     OW40371   5.429   6.714   7.972  0.5765  1.0285  0.2386
13052SOL    HW140372   5.492   6.776   7.935  1.1614  0.7994  0.8613
13052SOL    HW240373   5.398   6.756   8.053 -0.2618  1.2513 -0.1749
13053SOL     OW40374   4.224   6.581   8.023  0.0711  0.0308  0.0967
13053SOL    HW140375   4.224   6.606   7.931  0.2347 -1.3253 -0.2911
13053SOL    HW240376   4.312   6.546   8.039 -0.7863 -2.3646 -0.0126
13054SOL     OW40377   4.624   5.868   7.469  0.3935 -0.1460 -0.4596
13054SOL    HW140378   4.658   5.784   7.499  0.2159 -0.1299 -0.2102
13054SOL    HW240379   4.690   5.932   7.496  0.2150 -0.1268 -0.0629
13055SOL     OW40380   3.831   7.026   8.621  0.2620  0.5481  0.2514
13055SOL    HW140381   3.788   7.062   8.544  2.3545 -0.1118 -1.3274
13055SOL    HW240382   3.855   7.102   8.674  0.0690  1.1071 -0.4528
13056SOL     OW40383   5.486   6.422   7.688  0.3265 -0.2372 -0.0692
13056SOL    HW140384   5.505   6.339   7.644  2.2252  1.1657 -2.1174
13056SOL    HW240385   5.411   6.457   7.641  0.1393 -0.3339  0.1548
13057SOL     OW40386   5.330   6.824   8.596  0.1242 -0.5737  0.0562
13057SOL    HW140387   5.242   6.806   8.564  0.0559  2.3848 -1.7595
13057SOL    HW240388   5.385   6.759   8.551 -0.8592 -0.9722 -0.6027
13058SOL     OW40389   5.178   7.400   8.109 -0.4056  0.3841  0.1310
13058SOL    HW140390   5.184   7.441   8.023  0.2371 -1.5958 -0.8238
13058SOL    HW240391   5.090   7.362   8.111  0.0618 -0.7836 -0.2783
13059SOL     OW40392   4.298   6.488   7.578  0.3504  0.0693  0.1546
13059SOL    HW140393   4.370   6.443   7.535  0.1720 -1.1424  1.0698
13059SOL    HW240394   4.274   6.558   7.517  1.1230 -0.6110 -0.9737
13060SOL     OW40395   4.985   5.796   8.340  0.3968 -0.0828 -0.2837
13060SOL    HW140396   4.980   5.811   8.246 -0.9932 -1.3528 -0.4409
13060SOL    HW240397   4.985   5.701   8.349  0.8759  0.0216  0.9982
13061SOL     OW40398   4.929   7.344   7.567  0.3737  0.0513  0.5959
13061SOL    HW140399   4.906   7.302   7.483  0.5361  0.5012  0.3267
13061SOL    HW240400   4.990   7.283   7.608 -1.9670 -1.6594  1.7599
13062SOL     OW40401   4.096   6.117   8.682 -0.4233 -0.0730 -0.1836
13062SOL    HW140402   4.131   6.028   8.688 -2.0884 -0.9280 -2.1018
13062SOL    HW240403   4.006   6.106   8.652 -0.7502  2.2584 -0.2559
13063SOL     OW40404   4.567   5.690   0.104 -0.6172 -0.5796 -0.2271
13063SOL    HW140405   4.557   5.716   0.012 -0.7978 -0.8798 -0.2948
13063SOL    HW240406   4.576   5.772   0.152  1.8971 -0.4354 -0.7759
13064SOL     OW40407   4.910   6.432   7.877 -0.4838 -0.1425 -0.8257
13064SOL    HW140408   4.971   6.379   7.927 -0.9532  0.8968  0.9501
13064SOL    HW240409   4.935   6.419   7.786  1.4221 -0.8801 -0.2351
13065SOL     OW40410   3.843   6.318   8.184  0.4103 -0.5771 -0.1269
13065SOL    HW140411   3.923   6.327   8.133  0.9073 -0.0223  0.7189
13065SOL    HW240412   3.813   6.229   8.167  1.0431 -0.6840 -0.6939
13066SOL     OW40413   3.875   7.875   0.187 -0.6337 -0.1360 -0.5356
13066SOL    HW140414   3.943   7.893   0.251 -2.0255 -0.2632  1.0516
13066SOL    HW240415   3.902   7.793   0.145  0.0877 -0.2868  0.2071
13067SOL     OW40416   4.377   6.150   7.207 -0.0937  0.5713  0.3705
13067SOL    HW140417   4.366   6.093   7.284 -1.0409 -0.1398 -0.2685
13067SOL    HW240418   4.459   6.196   7.223 -0.4733  0.7453  2.0107
13068SOL     OW40419   5.309   7.088   8.004  0.3790  0.3675  0.3540
13068SOL    HW140420   5.278   7.178   8.000  2.6127  1.1969  0.2097
13068SOL    HW240421   5.400   7.095   8.034  0.0269 -1.9864  2.3902
13069SOL     OW40422   4.689   5.552   8.297 -0.1333 -0.1412  0.5335
13069SOL    HW140423   4.750   5.538   8.370 -0.2221  0.9374  0.8364
13069SOL    HW240424   4.718   5.633   8.257 -0.1095 -0.7073 -0.6407
13070SOL     OW40425   4.492   6.904   7.904 -0.0686 -0.1379  0.1208
13070SOL    HW140426   4.480   6.853   7.984  1.1287  0.4281  0.6792
13070SOL    HW240427   4.584   6.892   7.880 -0.0677  0.7964 -0.4022
13071SOL     OW40428   3.957   7.399   8.300 -0.2912  0.4442  0.4184
13071SOL    HW140429   3.988   7.320   8.256  0.1747 -0.5671  2.4371
13071SOL    HW240430   4.012   7.470   8.265 -0.6653 -0.0838 -1.3568
13072SOL     OW40431   5.406   6.501   8.588 -0.0011  0.1253  0.1362
13072SOL    HW140432   5.431   6.429   8.646  0.7855  0.3082  0.0345
13072SOL    HW240433   5.333   6.467   8.537  0.9505 -0.9390 -0.5586
13073SOL     OW40434   3.999   6.194   7.446 -0.0128 -0.6700 -0.5983
13073SOL    HW140435   3.962   6.281   7.431 -1.8593 -1.2246  0.5364
13073SOL    HW240436   3.976   6.145   7.367  1.4187 -0.0527 -1.4402
13074SOL     OW40437   5.303   5.917   8.109  0.6592  0.2274  0.1128
13074SOL    HW140438   5.262   5.954   8.031  2.5671  0.1388 -1.0018
13074SOL    HW240439   5.246   5.943   8.181 -3.5606 -3.2200 -1.6024
13075SOL     OW40440   5.267   7.656   7.723 -0.0210 -0.1346 -0.2503
13075SOL    HW140441   5.314   7.576   7.744 -1.9479 -1.1226  0.5363
13075SOL    HW240442   5.175   7.631   7.722 -0.6847  2.0343 -0.1283
13076SOL     OW40443   5.446   6.948   7.803 -0.0160  0.0806  0.0332
13076SOL    HW140444   5.462   7.026   7.751  0.5043 -0.7236 -1.0526
13076SOL    HW240445   5.384   6.976   7.871  0.6063  1.5514  0.0175
13077SOL     OW40446   3.930   7.555   7.755  0.4539 -0.3648 -0.1984
13077SOL    HW140447   3.919   7.503   7.835  0.2724 -0.4298 -0.2662
13077SOL    HW240448   3.845   7.552   7.713  0.4182  0.0657 -0.1570
13078SOL     OW40449   4.844   6.130   7.588  0.1389  0.1322  0.5542
13078SOL    HW140450   4.873   6.053   7.540 -0.5457  0.6620 -0.7455
13078SOL    HW240451   4.916   6.193   7.577 -1.0457  1.1621 -2.0002
13079SOL     OW40452   3.289   7.636   8.811  0.0481  0.0197  0.1443
13079SOL    HW140453   3.238   7.716   8.801 -0.0183 -0.1668 -1.2407
13079SOL    HW240454   3.271   7.606   8.900  0.7253  1.9722  0.9786
13080SOL     OW40455   4.763   6.690   8.814  0.0794  0.2724  0.1808
13080SOL    HW140456   4.725   6.604   8.833 -1.5077  0.2759 -2.4834
13080SOL    HW240457   4.703   6.752   8.855 -0.8791  0.1680 -1.0071
13081SOL     OW40458   4.263   6.149   7.920 -0.3614 -0.5946 -0.3996
13081SOL    HW140459   4.221   6.229   7.953 -0.2941 -0.8293  0.2784
13081SOL    HW240460   4.264   6.160   7.825 -2.6977 -0.9391 -0.5272
13082SOL     OW40461   4.381   5.572   7.665  0.0268 -0.2542 -0.0999
13082SOL    HW140462   4.348   5.658   7.691  2.1520  0.9656 -1.2022
13082SOL    HW240463   4.308   5.532   7.616 -0.9212  0.9877  0.2499
13083SOL     OW40464   4.340   6.836   8.502  0.1152  0.0241  0.2794
13083SOL    HW140465   4.403   6.846   8.573  0.3142 -2.2672  0.5033
13083SOL    HW240466   4.257   6.865   8.540  0.6078  0.9172  0.7039
13084SOL     OW40467   4.398   6.896   8.239  0.0129  0.0796 -0.5594
13084SOL    HW140468   4.476   6.848   8.211 -0.3323 -1.4833  0.9150
13084SOL    HW240469   4.385   6.868   8.330 -0.7679  2.3258  0.0882
13085SOL     OW40470   4.864   6.055   8.370  0.0109  0.1099  0.3782
13085SOL    HW140471   4.843   6.070   8.278  0.6267  0.3559  0.2728
13085SOL    HW240472   4.906   5.969   8.372  1.9469  1.0085  0.1047
13086SOL     OW40473   3.644   5.703   7.492 -0.0258 -0.0155 -0.8808
13086SOL    HW140474   3.729   5.738   7.519  0.1203 -0.4661 -0.7485
13086SOL    HW240475   3.665   5.619   7.450 -0.2615  0.5659 -2.2235
13087SOL     OW40476   5.066   6.647   7.347  0.3792  0.1746  0.2933
13087SOL    HW140477   5.041   6.711   7.280  0.6323 -1.0248 -0.9953
13087SOL    HW240478   4.992   6.586   7.350  0.6874 -0.1862  0.5692
13088SOL     OW40479   3.389   5.774   7.575 -0.1088  0.1291 -0.2680
13088SOL    HW140480   3.401   5.807   7.665  1.4592  0.0091 -0.4039
13088SOL    HW240481   3.476   5.746   7.548 -0.7836 -0.9980 -1.3990
13089SOL     OW40482   4.474   5.795   7.268 -0.4841  0.0880  0.6260
13089SOL    HW140483   4.544   5.815   7.330 -1.3734  1.9252  1.1041
13089SOL    HW240484   4.393   5.814   7.316 -1.2335  0.6856 -0.8025
13090SOL     OW40485   4.695   6.851   8.382  0.3276 -0.4925  0.1704
13090SOL    HW140486   4.725   6.764   8.355  0.5983 -0.2407 -0.3522
13090SOL    HW240487   4.772   6.892   8.421  0.5328 -0.0488 -0.6735
13091SOL     OW40488   3.938   6.640   7.747 -0.0844 -0.3011 -0.0140
13091SOL    HW140489   4.021   6.591   7.745  0.5823  0.6807  1.4753
13091SOL    HW240490   3.871   6.572   7.746  0.8113 -1.2881  1.5212
13092SOL     OW40491   4.576   6.706   8.092  0.4529 -0.2365 -0.1541
13092SOL    HW140492   4.665   6.675   8.105  1.0334  0.9326 -1.0528
13092SOL    HW240493   4.520   6.637   8.127  1.6977 -1.3607 -0.3160
13093SOL     OW40494   4.398   5.950   7.028  0.2224  0.1938  0.1263
13093SOL    HW140495   4.368   5.885   7.092  0.9268 -0.0149  0.2541
13093SOL    HW240496   4.398   6.033   7.076 -1.3817  0.4507 -0.2375
13094SOL     OW40497   3.751   5.252   8.707 -0.7917 -0.0511  0.1215
13094SOL    HW140498   3.829   5.303   8.729 -1.1688 -0.1020  1.6657
13094SOL    HW240499   3.764   5.168   8.751 -0.5651 -1.0383 -1.7121
13095SOL     OW40500   4.849   6.084   8.111  0.2908 -0.2821 -0.5163
13095SOL    HW140501   4.890   5.998   8.097  0.3311  0.0283 -2.5719
13095SOL    HW240502   4.812   6.108   8.026  0.3838  1.7951 -0.0369
13096SOL     OW40503   4.504   6.351   7.468  0.1249 -0.3156  0.6123
13096SOL    HW140504   4.520   6.362   7.375  1.2767 -0.3432  0.7993
13096SOL    HW240505   4.473   6.261   7.477 -2.4382  0.4075 -0.0226
13097SOL     OW40506   5.201   6.702   8.275 -0.5261  0.5161 -0.5631
13097SOL    HW140507   5.202   6.781   8.221 -1.7216 -0.2136 -1.7197
13097SOL    HW240508   5.112   6.668   8.266  0.0020 -1.0379 -0.2138
13098SOL     OW40509   5.420   6.099   8.353 -0.0908  0.0529  0.3245
13098SOL    HW140510   5.493   6.058   8.399 -0.0474 -0.9966 -0.6399
13098SOL    HW240511   5.413   6.051   8.270 -0.7878  1.2508 -0.3469
13099SOL     OW40512   5.468   5.638   7.439  0.5103 -0.0336 -0.2785
13099SOL    HW140513   5.413   5.701   7.394 -0.6262  0.9416  2.2795
13099SOL    HW240514   5.544   5.689   7.468 -0.2259  0.1441  1.4632
13100SOL     OW40515   4.373   7.233   7.708 -0.1208  0.0720 -0.2341
13100SOL    HW140516   4.326   7.157   7.741  0.4318 -0.9357 -1.6706
13100SOL    HW240517   4.304   7.299   7.694 -1.1445 -1.2742 -2.0385
13101SOL     OW40518   5.613   6.802   8.252  0.2371  0.0615  0.2252
13101SOL    HW140519   5.539   6.744   8.233 -0.2434  0.3774  1.0730
13101SOL    HW240520   5.687   6.762   8.207 -0.3694 -0.4794 -0.3083
13102SOL     OW40521   4.948   5.715   7.285 -0.1796 -0.6969 -0.0906
13102SOL    HW140522   4.998   5.656   7.229 -0.0042 -0.0813 -0.6034
13102SOL    HW240523   4.857   5.704   7.257 -0.0668 -0.2311 -0.6602
13103SOL     OW40524   4.730   6.071   7.857  0.2442  0.2638 -0.0938
13103SOL    HW140525   4.767   6.098   7.773 -0.2069 -1.6418 -0.9448
13103SOL    HW240526   4.671   5.999   7.836  1.5543 -1.5821  2.0315
13104SOL     OW40527   5.613   6.407   0.310 -0.2568 -0.1989  0.7457
13104SOL    HW140528   5.662   6.338   0.355  1.2964 -0.9120 -1.7947
13104SOL    HW240529   5.676   6.478   0.299 -0.6204 -0.0079 -0.1799
13105SOL     OW40530   5.435   6.560   8.269 -0.6551  0.4775 -0.3724
13105SOL    HW140531   5.361   6.619   8.284 -0.9010 -0.1252  0.8891
13105SOL    HW240532   5.395   6.482   8.230 -0.4679  0.7284 -1.0816
13106SOL     OW40533   5.306   6.704   0.244 -0.2037  0.5105 -0.4527
13106SOL    HW140534   5.375   6.770   0.236 -0.2919  0.6860  0.2370
13106SOL    HW240535   5.332   6.636   0.182  1.9742 -0.6627  1.5857
13107SOL     OW40536   4.872   6.645   8.062 -0.1985 -0.4586  0.0063
13107SOL    HW140537   4.875   6.577   7.995 -0.1349 -0.0354 -0.4318
13107SOL    HW240538   4.935   6.711   8.032 -1.4949  0.6196 -0.5124
13108SOL     OW40539   4.220   6.655   0.072  0.1441 -0.2101 -0.3875
13108SOL    HW140540   4.138   6.686   0.112 -0.7889 -0.3611 -2.0721
13108SOL    HW240541   4.207   6.560   0.063 -0.2103 -0.0183 -2.1562
13109SOL     OW40542   5.029   5.910   8.599  0.1406 -0.4918 -0.0382
13109SOL    HW140543   5.109   5.960   8.584  1.7849 -2.8874  0.3474
13109SOL    HW240544   5.011   5.867   8.515 -0.8164  0.0257 -0.1268
13110SOL     OW40545   3.862   7.088   0.095 -0.0911  0.5851  0.1520
13110SOL    HW140546   3.953   7.105   0.069  0.4110 -1.1561  0.5935
13110SOL    HW240547   3.811   7.156   0.051  1.1202 -0.0335 -2.4313
13111SOL     OW40548   4.086   6.390   7.756 -0.1559 -0.6058 -0.0835
13111SOL    HW140549   4.169   6.380   7.709  1.0836 -1.9605  2.2541
13111SOL    HW240550   4.027   6.330   7.711  1.2290 -2.5129  0.5055
13112SOL     OW40551   4.531   5.949   8.412  0.8004  0.4185 -0.5933
13112SOL    HW140552   4.572   5.892   8.347  0.9061  0.6563 -0.7376
13112SOL    HW240553   4.543   5.903   8.495  0.4143 -0.0232 -0.7782
13113SOL     OW40554   4.947   7.279   8.023  0.3048 -0.6567 -0.1289
13113SOL    HW140555   4.894   7.286   8.102  1.6025  1.3434  0.6263
13113SOL    HW240556   4.915   7.199   7.980 -1.9292 -0.6002  1.2656
13114SOL     OW40557   5.070   6.726   8.550  0.4053  0.1588  0.3636
13114SOL    HW140558   5.057   6.689   8.463 -0.2349 -0.2292  0.6153
13114SOL    HW240559   5.045   6.656   8.610  1.5975  0.1535  0.8770
13115SOL     OW40560   5.167   6.045   7.539  0.0378 -0.9165  0.0841
13115SOL    HW140561   5.181   6.100   7.616 -1.2312  1.8118 -1.5138
13115SOL    HW240562   5.238   6.067   7.480  0.2643 -2.0322 -0.0924
13116SOL     OW40563   3.782   7.196   8.396 -0.4631  0.0620 -0.6504
13116SOL    HW140564   3.858   7.252   8.380 -0.9139  1.0516  0.4987
13116SOL    HW240565   3.730   7.202   8.316  2.2333 -3.4160 -2.9878
13117SOL     OW40566   4.433   6.498   8.165  0.2690  0.1820 -0.1416
13117SOL    HW140567   4.414   6.443   8.241 -1.6916  2.0889  0.8269
13117SOL    HW240568   4.459   6.435   8.096  0.0610 -1.7472  1.4563
13118SOL     OW40569   5.246   6.401   8.139  0.2131 -0.2421  0.2536
13118SOL    HW140570   5.158   6.367   8.127  0.2304  0.0355 -0.7813
13118SOL    HW240571   5.303   6.336   8.099  0.5799 -0.8967  1.7682
13119SOL     OW40572   4.567   6.338   7.198  0.3865  0.4555 -0.3586
13119SOL    HW140573   4.635   6.315   7.134  0.3008  2.4127 -1.2181
13119SOL    HW240574   4.504   6.390   7.149 -1.5063 -0.8371  0.5603
13120SOL     OW40575   4.354   5.635   8.654  0.4436 -0.2965  0.2665
13120SOL    HW140576   4.385   5.628   8.564  0.1420 -1.4315  0.2337
13120SOL    HW240577   4.344   5.544   8.683 -0.2174  0.0501  1.1814
13121SOL     OW40578   3.784   7.265   8.760  0.5406  0.0028  0.5222
13121SOL    HW140579   3.836   7.322   8.703 -0.4478 -0.4634 -0.8877
13121SOL    HW240580   3.741   7.325   8.821 -0.0355  0.7113 -0.5675
13122SOL     OW40581   4.607   5.924   8.682  0.4999  0.2853  0.5055
13122SOL    HW140582   4.527   5.959   8.720 -0.8568 -0.5621 -1.3969
13122SOL    HW240583   4.677   5.979   8.718 -1.2285  3.1434 -0.1857
13123SOL     OW40584   3.576   5.754   7.879 -0.2691 -0.9842 -0.6414
13123SOL    HW140585   3.625   5.726   7.955 -1.1510  3.4774  1.9763
13123SOL    HW240586   3.484   5.737   7.902 -0.5993  1.0900 -0.1912
13124SOL     OW40587   4.929   5.989   7.391  0.4991 -0.5812  0.2733
13124SOL    HW140588   4.933   5.896   7.366 -1.2538 -0.7983  0.6683
13124SOL    HW240589   5.020   6.012   7.410  1.0217 -2.1268 -0.1492
13125SOL     OW40590   4.637   6.198   8.472 -0.1020 -0.4774  0.4841
13125SOL    HW140591   4.712   6.148   8.505  0.2767 -1.3418 -1.5583
13125SOL    HW240592   4.583   6.134   8.426  0.7005  0.9798 -2.7536
13126SOL     OW40593   4.699   6.067   7.232 -0.3718  0.2108 -0.1856
13126SOL    HW140594   4.663   6.009   7.299  0.4123 -0.1934 -0.1032
13126SOL    HW240595   4.779   6.102   7.271 -0.5665  0.9452 -0.4354
13127SOL     OW40596   4.735   6.637   7.188  0.5610 -0.1364 -0.4245
13127SOL    HW140597   4.648   6.644   7.149 -0.2990 -1.5001  1.1084
13127SOL    HW240598   4.794   6.675   7.123 -1.2232  1.3712 -1.2493
13128SOL     OW40599   4.918   6.600   8.322 -0.5792  0.0946  0.0648
13128SOL    HW140600   4.851   6.556   8.374 -0.7028  0.5242  0.2713
13128SOL    HW240601   4.877   6.616   8.238 -0.6997  0.2615  0.1551
13129SOL     OW40602   4.082   6.350   8.025  0.1545  0.3582  0.2552
13129SOL    HW140603   4.132   6.430   8.039  0.0127  0.5012 -0.0695
13129SOL    HW240604   4.048   6.357   7.936 -1.1042  0.6301  0.7422
13130SOL     OW40605   3.880   6.142   7.828 -0.3677  0.1515 -0.2851
13130SOL    HW140606   3.832   6.072   7.784 -1.3428  0.0263  0.9441
13130SOL    HW240607   3.924   6.099   7.901  0.6594  0.4861 -0.6922
13131SOL     OW40608   4.912   5.730   8.790  0.1071 -0.4791  0.7344
13131SOL    HW140609   4.932   5.793   8.859  0.5029 -0.8721  0.9768
13131SOL    HW240610   4.901   5.784   8.711  0.9773 -0.1473  0.8282
13132SOL     OW40611   4.100   7.066   7.594 -0.1710 -0.4392  0.1764
13132SOL    HW140612   4.091   7.010   7.671  1.2466 -1.4770 -0.3645
13132SOL    HW240613   4.183   7.039   7.555 -1.0295 -0.2042 -1.9356
13133SOL     OW40614   3.761   7.854   8.551 -0.8325  0.3884 -0.3124
13133SOL    HW140615   3.669   7.881   8.551 -1.1011 -0.4175 -1.4485
13133SOL    HW240616   3.762   7.775   8.497  0.5591  0.4746 -0.4465
13134SOL     OW40617   4.142   6.828   8.163  0.1487 -0.2457 -0.3981
13134SOL    HW140618   4.232   6.832   8.197  0.0611  1.2010 -0.2659
13134SOL    HW240619   4.137   6.744   8.118  1.4081 -0.5828  0.0404
13135SOL     OW40620   4.525   6.281   0.316 -0.6850  0.5410  0.0126
13135SOL    HW140621   4.430   6.267   0.324 -0.5854 -0.0765  0.1483
13135SOL    HW240622   4.552   6.310   0.403 -0.9343  1.9162 -0.3373
13136SOL     OW40623   4.038   5.972   8.309  0.5533 -0.5831 -0.3526
13136SOL    HW140624   3.947   5.976   8.338 -0.2095 -1.3506 -2.4075
13136SOL    HW240625   4.070   5.890   8.344 -0.0897 -1.0974 -0.9207
13137SOL     OW40626   4.718   6.705   7.727 -0.4753  0.0387 -0.0686
13137SOL    HW140627   4.663   6.627   7.720 -3.8018  2.1814 -0.1774
13137SOL    HW240628   4.721   6.741   7.638  0.5715  0.3169  0.0661
13138SOL     OW40629   5.170   6.463   8.455 -0.2721 -0.2706 -0.5700
13138SOL    HW140630   5.081   6.428   8.461 -0.3804  0.1365  0.2210
13138SOL    HW240631   5.191   6.458   8.361 -0.7543 -1.2726 -0.6391
13139SOL     OW40632   4.367   6.096   8.687 -0.0816  0.2332  0.3038
13139SOL    HW140633   4.363   6.062   8.598  1.4925 -0.4374  0.4494
13139SOL    HW240634   4.290   6.153   8.695 -1.1074 -0.9168 -0.9469
13140SOL     OW40635   4.458   7.149   0.366  0.3005 -0.0773 -0.5116
13140SOL    HW140636   4.393   7.189   0.424 -0.2364  0.3672 -1.3957
13140SOL    HW240637   4.518   7.103   0.425 -0.5103 -0.0518  0.3563
13141SOL     OW40638   4.067   5.889   7.708  0.4993 -0.3177 -0.2296
13141SOL    HW140639   4.012   5.875   7.631  0.8847 -1.2008 -0.3643
13141SOL    HW240640   4.016   5.852   7.780  1.3579 -2.2268 -0.5282
13142SOL     OW40641   3.868   6.608   8.812  0.0959  0.6920  0.3773
13142SOL    HW140642   3.836   6.669   8.879  1.0400  1.7334 -0.0744
13142SOL    HW240643   3.858   6.657   8.730 -0.8009 -0.4648 -0.2228
13143SOL     OW40644   4.948   6.301   8.427 -0.0296  0.0185 -0.1649
13143SOL    HW140645   4.927   6.208   8.416 -1.4804  0.4737 -1.6139
13143SOL    HW240646   4.888   6.330   8.497  0.3622 -0.1052  0.2269
13144SOL     OW40647   4.839   6.463   7.349 -0.0259 -0.1043 -0.6257
13144SOL    HW140648   4.769   6.401   7.368 -0.9860  1.2530  0.4907
13144SOL    HW240649   4.797   6.530   7.295  0.8136 -0.0331 -1.2141
13145SOL     OW40650   4.858   7.148   8.762  0.1748 -0.1011 -0.0290
13145SOL    HW140651   4.776   7.102   8.782  0.8792 -1.0148  0.8817
13145SOL    HW240652   4.898   7.095   8.692 -0.0259  0.3745 -0.5102
13146SOL     OW40653   4.835   7.587   8.503  0.1548  0.0478 -0.6416
13146SOL    HW140654   4.897   7.590   8.576  1.3334 -1.6530 -1.4842
13146SOL    HW240655   4.777   7.513   8.524  0.5469 -0.5005 -1.4196
13147SOL     OW40656   3.916   7.425   8.599 -0.1426  0.1264  0.6436
13147SOL    HW140657   3.867   7.436   8.518 -1.1239  0.4799  1.2631
13147SOL    HW240658   3.987   7.365   8.576  0.0339  0.7858 -0.6409
13148SOL     OW40659   5.459   5.909   7.650  0.4624 -0.2125 -0.9697
13148SOL    HW140660   5.529   5.852   7.617  1.1368 -0.2459  0.4213
13148SOL    HW240661   5.398   5.848   7.692  0.3784 -0.0570 -0.8676
13149SOL     OW40662   4.990   7.581   7.707 -0.2674 -0.0616 -0.3711
13149SOL    HW140663   4.979   7.498   7.660 -0.7812 -0.5166  0.5174
13149SOL    HW240664   4.938   7.570   7.787 -1.0969  1.4554 -0.6622
13150SOL     OW40665   5.447   6.240   8.050  0.4687  0.0002  0.8476
13150SOL    HW140666   5.459   6.161   7.997 -0.9727  0.6751 -0.5756
13150SOL    HW240667   5.534   6.281   8.051  0.9656 -1.0068  0.6359
13151SOL     OW40668   5.148   7.180   7.678 -0.5828  0.2400  0.4468
13151SOL    HW140669   5.123   7.203   7.768 -0.0867 -2.2054  1.2760
13151SOL    HW240670   5.241   7.159   7.684 -0.8895 -1.4637 -0.2728
13152SOL     OW40671   5.010   5.087   8.209  0.3193 -0.5852  0.1831
13152SOL    HW140672   4.914   5.087   8.210  0.2688  1.0621 -0.5472
13152SOL    HW240673   5.033   5.042   8.128  0.0311  1.4531 -1.1105
13153SOL     OW40674   3.563   6.062   8.333  0.1901  0.2151 -0.7129
13153SOL    HW140675   3.642   6.018   8.363 -0.1835 -0.3753 -0.5760
13153SOL    HW240676   3.495   6.036   8.395 -0.0947  0.7886 -0.7735
13154SOL     OW40677   4.701   7.057   7.069 -0.1319  0.2099 -0.0733
13154SOL    HW140678   4.643   6.989   7.102  0.1177  0.2215  0.4030
13154SOL    HW240679   4.738   7.098   7.148  1.4379 -0.5981 -0.3446
13155SOL     OW40680   4.628   6.845   8.640  0.5568 -0.1407  0.2429
13155SOL    HW140681   4.640   6.831   8.547  1.2950 -0.9251  0.4441
13155SOL    HW240682   4.675   6.773   8.682 -0.1772 -0.0786  1.2139
13156SOL     OW40683   5.231   6.712   7.722  0.6360 -0.1098 -0.1800
13156SOL    HW140684   5.258   6.667   7.642 -0.2795 -1.0804  0.0376
13156SOL    HW240685   5.299   6.689   7.786  1.5724  0.9696 -0.7380
13157SOL     OW40686   4.908   6.940   7.265  0.3131  0.2038 -0.1096
13157SOL    HW140687   4.838   6.888   7.304  0.6176  0.3560  0.6507
13157SOL    HW240688   4.955   6.977   7.340  0.6338  0.8610 -0.6280
13158SOL     OW40689   5.054   6.801   0.144 -0.4355 -0.1350 -0.5622
13158SOL    HW140690   5.147   6.804   0.162 -0.6866 -0.9575  1.1129
13158SOL    HW240691   5.041   6.717   0.099 -0.6011 -0.9466  0.9518
13159SOL     OW40692   5.116   6.892   8.075 -0.5922  0.0384 -0.1196
13159SOL    HW140693   5.188   6.954   8.079  0.3835 -1.0878  0.3790
13159SOL    HW240694   5.096   6.883   7.981 -0.5422  0.8506 -0.2118
13160SOL     OW40695   4.972   5.848   8.054  0.3268  0.5697  0.4290
13160SOL    HW140696   4.907   5.804   7.999  0.3087  0.4639  0.5334
13160SOL    HW240697   5.031   5.890   7.993 -0.4438  1.5487  0.3392
13161SOL     OW40698   4.626   7.086   7.743 -0.1095 -0.1116  0.1438
13161SOL    HW140699   4.600   7.148   7.675 -1.3864 -2.0216 -1.2117
13161SOL    HW240700   4.544   7.057   7.782  0.5950  1.7248  3.4125
13162SOL     OW40701   5.092   6.130   0.019 -0.3025 -0.2393  0.4229
13162SOL    HW140702   5.161   6.144  -0.046 -1.3491  0.5623 -0.5632
13162SOL    HW240703   5.104   6.200   0.083 -0.2058 -0.0998  0.2516
13163SOL     OW40704   3.904   7.230   7.482  0.3316 -1.0329  0.1307
13163SOL    HW140705   3.833   7.176   7.448  0.1501 -0.2100 -0.8414
13163SOL    HW240706   3.970   7.166   7.512 -0.1387 -1.7917 -0.4037
13164SOL     OW40707   4.169   5.865   8.763  0.5112 -0.1789 -0.0893
13164SOL    HW140708   4.112   5.805   8.810 -0.1615 -0.0199 -0.6730
13164SOL    HW240709   4.242   5.811   8.733 -0.0757 -0.7110 -0.5890
13165SOL     OW40710   3.388   6.075   7.469  0.5298 -0.1508 -0.6637
13165SOL    HW140711   3.298   6.098   7.446  0.4680 -1.1547 -1.4939
13165SOL    HW240712   3.381   6.032   7.554  0.0582 -1.3174 -1.2769
13166SOL     OW40713   3.065   5.771   7.661 -0.4184  0.0259  0.1452
13166SOL    HW140714   2.990   5.728   7.620 -0.7109  0.0802  0.6264
13166SOL    HW240715   3.139   5.715   7.638 -0.7778 -0.6817  0.6608
13167SOL     OW40716   5.330   6.616   7.511  0.2306  0.2788  0.5632
13167SOL    HW140717   5.265   6.660   7.455 -0.0785 -0.4438  0.3515
13167SOL    HW240718   5.414   6.653   7.484  0.3633 -1.6796 -1.9781
13168SOL     OW40719   4.589   6.176   0.072 -0.3443 -0.5230  0.4228
13168SOL    HW140720   4.559   6.231   0.144 -0.1339  2.9042 -1.8549
13168SOL    HW240721   4.681   6.156   0.093 -0.8146 -1.2522  1.9359
13169SOL     OW40722   4.930   6.973   8.563 -0.2929  0.0375 -0.2597
13169SOL    HW140723   4.987   6.913   8.611  1.4285  1.2690 -0.6562
13169SOL    HW240724   4.962   6.969   8.473  0.6719  2.4023 -0.0735
13170SOL     OW40725   3.840   7.157   0.411 -0.0576 -0.1086  0.3839
13170SOL    HW140726   3.864   7.245   0.381  2.8924 -0.7677  0.5172
13170SOL    HW240727   3.852   7.101   0.335 -1.8568 -0.4713  0.3213
13171SOL     OW40728   5.442   6.256   8.691  0.1697  0.0304  0.0361
13171SOL    HW140729   5.366   6.218   8.647  0.5938 -0.8189  0.0084
13171SOL    HW240730   5.451   6.205   8.772  0.4795  0.3732  0.2185
13172SOL     OW40731   4.423   6.088   7.500  0.7657 -0.3761 -0.1575
13172SOL    HW140732   4.342   6.098   7.550 -0.6398 -0.6281 -2.2688
13172SOL    HW240733   4.448   5.997   7.512 -0.3810 -0.8320 -1.0316
13173SOL     OW40734   4.509   6.398   7.933 -0.3640 -0.1512 -0.2872
13173SOL    HW140735   4.578   6.445   7.885  0.8357 -1.1933  0.3729
13173SOL    HW240736   4.533   6.306   7.926 -1.0355 -0.4401  0.9804
13174SOL     OW40737   5.400   6.495   0.499 -0.1034 -0.1197 -0.0446
13174SOL    HW140738   5.403   6.513   0.405 -0.4348 -0.7732 -0.1895
13174SOL    HW240739   5.373   6.578   0.538  1.9591  0.7339 -0.3232
13175SOL     OW40740   4.345   7.306   8.099  0.4894 -0.2131  0.0202
13175SOL    HW140741   4.385   7.245   8.161 -0.1454 -1.4173 -0.7240
13175SOL    HW240742   4.328   7.253   8.021  0.5992  1.1001 -0.9184
13176SOL     OW40743   4.115   7.199   8.468  0.2879  0.0839 -0.2393
13176SOL    HW140744   4.114   7.122   8.524  1.6209  0.6077  0.5609
13176SOL    HW240745   4.119   7.164   8.379 -1.3433 -0.7544 -0.0331
13177SOL     OW40746   4.405   6.551   8.563  0.2873  0.3550  0.2794
13177SOL    HW140747   4.362   6.635   8.548 -2.6994 -0.9404  0.8406
13177SOL    HW240748   4.370   6.494   8.494  1.3617 -0.7377  0.6071
13178SOL     OW40749   4.991   6.369   7.584 -0.1731  0.8659 -0.2677
13178SOL    HW140750   4.949   6.419   7.515 -0.3954  0.1377 -0.6703
13178SOL    HW240751   5.076   6.344   7.546 -0.5266 -0.0202 -0.5145
13179SOL     OW40752   5.304   6.933   0.002  0.2450 -0.1637  0.4912
13179SOL    HW140753   5.292   6.885  -0.079 -0.6659  0.1544  0.4249
13179SOL    HW240754   5.228   6.991   0.007  0.6023  0.2568  1.2652
13180SOL     OW40755   3.760   6.775   7.899 -0.6369  0.5780 -0.1168
13180SOL    HW140756   3.819   6.715   7.854 -1.2085  0.6723 -1.0098
13180SOL    HW240757   3.812   6.809   7.972  1.2712  2.5620 -2.2539
13181SOL     OW40758   5.088   5.493   8.593 -0.5042  0.1776 -0.2937
13181SOL    HW140759   5.051   5.469   8.678 -0.0210  0.2230 -0.0674
13181SOL    HW240760   5.012   5.495   8.534 -1.1176  1.7636  0.4756
13182SOL     OW40761   3.717   5.925   7.704  0.2749  0.1931  0.8456
13182SOL    HW140762   3.636   5.926   7.653  1.6912 -0.6004 -1.6009
13182SOL    HW240763   3.706   5.853   7.765 -0.8527  0.0639  0.5149
13183SOL     OW40764   5.011   6.579   0.002  0.5941  0.3091 -0.6232
13183SOL    HW140765   4.980   6.492  -0.020  0.4087  0.4399 -0.8891
13183SOL    HW240766   4.941   6.638  -0.026  0.3798  0.4941  0.2415
13184SOL     OW40767   3.754   6.067   8.088  0.3797 -0.2039 -0.1453
13184SOL    HW140768   3.669   6.059   8.047  0.6949 -0.1434 -0.8194
13184SOL    HW240769   3.746   6.019   8.171 -0.1670 -0.5725 -0.4116
13185SOL     OW40770   4.484   7.153   8.265  0.4323  0.3484  0.1579
13185SOL    HW140771   4.579   7.153   8.275  0.3666  0.5342  0.8528
13185SOL    HW240772   4.460   7.061   8.253  0.7985  0.4082 -1.0511
13186SOL     OW40773   5.038   5.524   8.329 -0.6685  0.0356  0.7513
13186SOL    HW140774   5.109   5.559   8.382 -1.1537 -0.3105  1.6481
13186SOL    HW240775   5.080   5.492   8.249 -0.0419  1.3786  0.5124
13187SOL     OW40776   3.950   5.269   8.485  0.4049 -0.3160  0.3472
13187SOL    HW140777   3.888   5.293   8.554 -1.6599  1.0145 -1.7932
13187SOL    HW240778   3.902   5.207   8.430  1.2428  0.1284 -0.9397
13188SOL     OW40779   4.946   6.808   7.819  0.3768 -0.2699  0.1600
13188SOL    HW140780   4.862   6.764   7.809  0.4342 -0.6262  1.1086
13188SOL    HW240781   5.009   6.749   7.778  0.1055  0.2517 -1.0273
13189SOL     OW40782   4.548   7.088   8.721 -0.7935 -0.9484  0.6275
13189SOL    HW140783   4.492   7.109   8.796  0.0430 -1.3117  1.3671
13189SOL    HW240784   4.556   6.993   8.723  0.3901 -0.8580  0.9423
13190SOL     OW40785   5.087   5.650   7.504  0.5889  0.0698 -0.5057
13190SOL    HW140786   5.167   5.654   7.452  0.7135 -0.9240 -0.4244
13190SOL    HW240787   5.017   5.674   7.444  0.7724 -0.7108 -1.0553
13191SOL     OW40788   5.278   6.214   7.772  0.2976  0.3644  0.8267
13191SOL    HW140789   5.309   6.253   7.854 -0.7140  0.6116  1.1077
13191SOL    HW240790   5.357   6.194   7.723  0.8811  1.2563  1.3884
13192SOL     OW40791   5.296   5.325   7.995 -1.2682  0.1865  0.3326
13192SOL    HW140792   5.206   5.306   7.970 -0.6208  1.0459 -3.1332
13192SOL    HW240793   5.341   5.241   7.992 -1.5680  0.0250  0.3514
13193SOL     OW40794   4.282   6.694   7.783  0.6325  0.9032  0.6797
13193SOL    HW140795   4.278   6.620   7.722  0.0847  0.0287  1.7228
13193SOL    HW240796   4.368   6.685   7.825  0.3231  0.4652  1.2449
13194SOL     OW40797   4.875   7.075   7.865 -0.1778  0.1433  0.5775
13194SOL    HW140798   4.794   7.101   7.821  1.1973  0.1124 -2.2266
13194SOL    HW240799   4.886   6.983   7.842  0.1960 -0.1146  1.7328
13195SOL     OW40800   4.102   8.151   0.219 -0.3405  0.2887  0.0549
13195SOL    HW140801   4.072   8.142   0.128 -1.4662  0.0156  0.4410
13195SOL    HW240802   4.077   8.069   0.260 -0.0129  0.4963  0.6780
13196SOL     OW40803   3.729   7.677   0.953  0.6164 -0.1750  0.2503
13196SOL    HW140804   3.746   7.592   0.912  0.1654 -1.2780  2.2193
13196SOL    HW240805   3.644   7.667   0.994 -0.3746  1.9399 -1.0978
13197SOL     OW40806   3.298   7.083   0.774  0.2295 -0.6727 -0.1845
13197SOL    HW140807   3.302   7.014   0.708  0.7078  0.0058 -0.8873
13197SOL    HW240808   3.205   7.097   0.789  0.1252 -1.8034  0.3458
13198SOL     OW40809   4.170   8.796   1.595  0.0484 -0.1358 -0.2472
13198SOL    HW140810   4.148   8.805   1.688 -0.1988 -1.9117 -0.1088
13198SOL    HW240811   4.087   8.813   1.550 -0.4591 -1.7669  0.0149
13199SOL     OW40812   5.535   0.146   0.675  0.1053 -0.0740  0.5476
13199SOL    HW140813   5.473   0.218   0.681  2.7130  2.6341 -1.8921
13199SOL    HW240814   5.514   0.090   0.750 -2.5853  2.7406  2.1293
13200SOL     OW40815   4.902   8.051   0.842 -0.1865 -0.1909 -0.5750
13200SOL    HW140816   4.868   8.131   0.882  0.0878  0.0567 -0.8267
13200SOL    HW240817   4.899   7.986   0.912  0.8282  0.3821  0.0379
13201SOL     OW40818   5.208   7.740   0.611  0.7795  0.1666  0.1293
13201SOL    HW140819   5.220   7.806   0.679  0.1592  1.2750 -0.8151
13201SOL    HW240820   5.254   7.775   0.535  0.1995 -0.3424 -0.4712
13202SOL     OW40821   4.394   8.494   1.209  0.5408 -0.3639 -0.3218
13202SOL    HW140822   4.306   8.463   1.187 -0.4557  2.4487 -0.7201
13202SOL    HW240823   4.384   8.536   1.294  1.2664  0.7340 -0.7576
13203SOL     OW40824   4.371   8.270   1.898  0.4144 -0.1268  0.1885
13203SOL    HW140825   4.305   8.236   1.958 -0.7129  1.3849 -0.1559
13203SOL    HW240826   4.438   8.307   1.955  0.6698 -1.0822  0.5293
13204SOL     OW40827   4.813   8.735   0.944 -0.4606  0.4350 -0.3583
13204SOL    HW140828   4.772   8.738   1.031  0.8133  0.2555  0.2617
13204SOL    HW240829   4.759   8.793   0.891 -2.8130 -1.4048 -0.1506
13205SOL     OW40830   4.110   8.593   2.307 -0.0760  0.0453 -0.0555
13205SOL    HW140831   4.194   8.631   2.330 -0.3350 -0.0576  1.1227
13205SOL    HW240832   4.066   8.579   2.391 -2.0585  1.9019 -0.6925
13206SOL     OW40833   3.775   8.644   0.820 -0.7421  0.6017 -0.0680
13206SOL    HW140834   3.846   8.585   0.845  0.1805  2.1440  1.1407
13206SOL    HW240835   3.702   8.586   0.798 -0.0873 -0.9916  1.6853
13207SOL     OW40836   4.064   7.722   1.553  0.0853  0.0918 -0.2160
13207SOL    HW140837   4.044   7.774   1.631 -0.2184 -1.9632  1.1847
13207SOL    HW240838   4.142   7.672   1.578 -0.5590 -1.2892 -0.8441
13208SOL     OW40839   5.185   7.986   0.778 -0.2145  0.2683 -0.2950
13208SOL    HW140840   5.104   8.022   0.814  1.1622  2.8542  0.4048
13208SOL    HW240841   5.209   8.046   0.708  2.0734  0.7150  0.7813
13209SOL     OW40842   5.077   0.299   1.762  0.1181 -0.1587 -0.2957
13209SOL    HW140843   5.098   0.386   1.728 -1.2839  0.4735  0.3549
13209SOL    HW240844   4.987   0.307   1.793 -0.0116 -1.8340 -0.1487
13210SOL     OW40845   4.412   8.337   0.814  0.6320  0.1179  0.7920
13210SOL    HW140846   4.427   8.397   0.741  2.9882  1.0966  1.9747
13210SOL    HW240847   4.476   8.267   0.802 -1.2006 -1.5560  0.1642
13211SOL     OW40848   4.682   8.352   0.386 -0.1726 -0.4572 -0.4083
13211SOL    HW140849   4.657   8.444   0.387  2.2896  0.3642 -2.7063
13211SOL    HW240850   4.744   8.343   0.459  0.2984 -0.0402 -0.7526
13212SOL     OW40851   5.360   7.146   1.454 -0.5705  0.3503  0.3897
13212SOL    HW140852   5.367   7.052   1.467  2.9887  0.6051  1.2584
13212SOL    HW240853   5.366   7.158   1.359 -1.3315 -0.2859  0.2534
13213SOL     OW40854   4.184   8.360   0.991  0.2363 -0.3735  0.2164
13213SOL    HW140855   4.268   8.376   0.947  0.1665 -0.3068  0.1047
13213SOL    HW240856   4.176   8.264   0.994  0.5669 -0.3886  0.7149
13214SOL     OW40857   5.998   8.679   0.705  0.1760  0.6428  0.1320
13214SOL    HW140858   6.083   8.670   0.663  0.0415 -1.3656  0.1897
13214SOL    HW240859   6.012   8.745   0.774  1.0553  2.0129 -1.2995
13215SOL     OW40860   6.162   8.524   0.992  0.4067  0.6690 -0.2554
13215SOL    HW140861   6.199   8.453   0.939 -0.4181 -0.5559  0.7534
13215SOL    HW240862   6.147   8.485   1.078  0.8066  2.3444  0.6305
13216SOL     OW40863   3.859   7.950   1.200  0.0706 -0.6034 -0.2306
13216SOL    HW140864   3.955   7.952   1.200  0.0743 -0.7138 -0.4884
13216SOL    HW240865   3.837   7.864   1.236  0.0836 -0.9589 -1.0538
13217SOL     OW40866   4.605   8.326   1.219  0.1298  0.0043 -0.4953
13217SOL    HW140867   4.558   8.247   1.245  1.4375 -0.9171 -0.8302
13217SOL    HW240868   4.537   8.392   1.207 -0.8895 -0.7543  0.8984
13218SOL     OW40869   5.065   8.813   1.667 -0.2705 -0.6805  0.3017
13218SOL    HW140870   5.119   8.800   1.745  0.8247  3.9797  0.6234
13218SOL    HW240871   5.116   8.872   1.611 -2.4726 -1.0568 -2.3654
13219SOL     OW40872   4.358   7.467   0.317 -0.3430  0.5737  0.1953
13219SOL    HW140873   4.322   7.555   0.304  0.6032  1.1899  1.4698
13219SOL    HW240874   4.282   7.412   0.333 -0.8382  1.5630  1.4059
13220SOL     OW40875   4.029   8.387   1.380 -0.1473 -0.2610  0.4012
13220SOL    HW140876   3.983   8.368   1.462  0.1566  1.6807  1.0803
13220SOL    HW240877   4.023   8.306   1.329 -2.6283 -0.6848  1.2463
13221SOL     OW40878   5.578   8.751   0.574  0.2758  0.2013  0.3840
13221SOL    HW140879   5.578   8.756   0.478 -0.9291  1.0845  0.4168
13221SOL    HW240880   5.546   8.836   0.603 -0.8077 -0.5625  1.5404
13222SOL     OW40881   4.194   8.126   2.099  0.1839 -0.0786  0.7583
13222SOL    HW140882   4.154   8.044   2.127 -0.7037  0.6592  1.7663
13222SOL    HW240883   4.134   8.194   2.131  0.7483  0.9569 -0.2888
13223SOL     OW40884   5.153   0.251   1.204 -0.9491 -0.6496  0.3326
13223SOL    HW140885   5.088   0.183   1.221 -1.6653  0.4401  2.2764
13223SOL    HW240886   5.237   0.211   1.227 -1.2394 -1.2256  0.3999
13224SOL     OW40887   4.647   8.636   0.649 -0.0130 -0.0455 -0.2442
13224SOL    HW140888   4.641   8.728   0.675  0.5397  0.1364 -0.7343
13224SOL    HW240889   4.726   8.604   0.692  1.2088  0.3993 -2.0187
13225SOL     OW40890   4.996   8.020   1.252 -0.3268  0.9793 -0.0549
13225SOL    HW140891   5.058   8.012   1.179  1.3940  3.1422  1.0670
13225SOL    HW240892   4.911   8.033   1.210 -0.0727 -1.6762 -1.6367
13226SOL     OW40893   4.390   8.138   1.315  0.1488 -0.2715  0.6319
13226SOL    HW140894   4.434   8.146   1.400 -0.5231  3.7417  0.7841
13226SOL    HW240895   4.299   8.116   1.338 -0.0952  1.0624  1.0332
13227SOL     OW40896   5.249   7.948   1.569 -0.7881  0.1112 -0.3865
13227SOL    HW140897   5.220   7.858   1.558  1.6162 -0.6454 -1.1512
13227SOL    HW240898   5.265   7.957   1.663 -0.1182 -0.6143 -0.4158
13228SOL     OW40899   4.557   8.771   1.408 -0.3420 -0.2487 -0.1740
13228SOL    HW140900   4.637   8.762   1.461  0.4668  0.7180 -1.1780
13228SOL    HW240901   4.527   8.681   1.395 -1.0756 -0.5218  2.5894
13229SOL     OW40902   4.774   7.957   1.101  0.1090  0.0365 -0.9351
13229SOL    HW140903   4.734   7.973   1.186  0.2676 -0.8079 -0.6937
13229SOL    HW240904   4.704   7.975   1.038 -0.7189 -1.5285 -0.5157
13230SOL     OW40905   4.472   7.898   0.393  0.0931  0.4175 -0.0805
13230SOL    HW140906   4.563   7.869   0.405  0.2328  0.9823  0.2351
13230SOL    HW240907   4.478   7.991   0.375 -0.2908  0.1113 -2.0851
13231SOL     OW40908   4.016   7.587   1.023  0.9139  0.5131 -0.4524
13231SOL    HW140909   4.012   7.535   1.104 -0.4508 -2.4376 -2.2193
13231SOL    HW240910   3.926   7.619   1.011  0.2498 -1.6803 -2.1918
13232SOL     OW40911   4.298   7.596   0.011 -0.7422 -0.7918  0.3717
13232SOL    HW140912   4.227   7.542  -0.022 -1.1804 -0.8648  1.4006
13232SOL    HW240913   4.339   7.632  -0.067 -1.8195 -0.8678 -0.2494
13233SOL     OW40914   5.276   8.002   1.821 -0.0198  0.0542 -0.5229
13233SOL    HW140915   5.256   8.090   1.853 -0.1875 -0.1237 -0.1382
13233SOL    HW240916   5.305   7.954   1.898 -1.5599 -0.7111 -0.3815
13234SOL     OW40917   5.396   8.585   0.770 -0.1736 -0.1806  0.4938
13234SOL    HW140918   5.443   8.510   0.807 -1.5320 -1.0020  0.6387
13234SOL    HW240919   5.415   8.581   0.677  0.0667 -0.4957  0.5534
13235SOL     OW40920   4.381   7.804   1.167 -0.0792 -0.2434 -0.0373
13235SOL    HW140921   4.403   7.721   1.125 -0.4453 -0.7917  0.8148
13235SOL    HW240922   4.448   7.814   1.235 -0.8211 -0.5442  0.7615
13236SOL     OW40923   5.706   0.001   1.042 -0.3930 -0.4663 -0.3914
13236SOL    HW140924   5.728  -0.084   1.004  0.6118 -0.1710 -0.4997
13236SOL    HW240925   5.667  -0.020   1.127  2.2203 -1.0120  0.7839
13237SOL     OW40926   4.124   8.440   0.267  0.5998 -0.0607  0.4055
13237SOL    HW140927   4.044   8.405   0.307 -0.7902  0.9903 -1.2947
13237SOL    HW240928   4.146   8.378   0.198  1.1617 -0.2564  0.7563
13238SOL     OW40929   5.439   8.363   0.963 -0.4735 -0.3321 -0.0059
13238SOL    HW140930   5.370   8.297   0.970 -1.6807  1.0357  2.3713
13238SOL    HW240931   5.481   8.362   1.049  2.5886 -1.1479 -1.3931
13239SOL     OW40932   4.474   8.440   1.680  0.3514 -0.2717 -0.0377
13239SOL    HW140933   4.466   8.370   1.745  1.0245  0.5645  0.9783
13239SOL    HW240934   4.479   8.520   1.732  0.4799  0.4615 -1.1515
13240SOL     OW40935   3.960   7.489   1.840  0.2963  0.1939 -0.0872
13240SOL    HW140936   3.968   7.497   1.935  0.2960  0.1633 -0.0849
13240SOL    HW240937   3.953   7.395   1.823  4.5120 -0.2347 -0.4485
13241SOL     OW40938   5.809   8.545   0.034 -0.0670  0.3675  0.1496
13241SOL    HW140939   5.806   8.452   0.056 -1.6702  0.8627  2.3768
13241SOL    HW240940   5.835   8.547  -0.058 -2.2804 -2.3875 -0.6867
13242SOL     OW40941   5.053   7.536   0.749 -0.6987  0.4243  0.3657
13242SOL    HW140942   5.028   7.595   0.820  1.2188  0.6487  0.9336
13242SOL    HW240943   5.124   7.583   0.704 -1.0949 -0.2257 -0.9633
13243SOL     OW40944   4.383   8.408   0.503  0.2059  0.0021  0.6252
13243SOL    HW140945   4.469   8.447   0.489 -0.4079  0.3767 -3.1979
13243SOL    HW240946   4.322   8.481   0.496 -0.5744 -0.6456  0.5828
13244SOL     OW40947   5.361   7.618   1.860  0.1432 -0.4751 -0.6733
13244SOL    HW140948   5.329   7.567   1.935 -0.1030 -0.3464 -0.6897
13244SOL    HW240949   5.455   7.626   1.875 -0.2098  1.4653  0.7867
13245SOL     OW40950   4.511   7.803   1.431 -0.0205  0.2469 -0.0722
13245SOL    HW140951   4.437   7.851   1.393  0.0755 -0.0709 -0.6724
13245SOL    HW240952   4.471   7.746   1.496 -0.1908  0.7857  0.3068
13246SOL     OW40953   4.801   8.306   1.540  0.1503 -0.2227 -0.5571
13246SOL    HW140954   4.762   8.299   1.627  0.1440 -0.0769 -0.5481
13246SOL    HW240955   4.853   8.227   1.531  0.8323  0.1611 -0.0799
13247SOL     OW40956   4.686   7.812   0.758  0.4848  0.2253  0.3543
13247SOL    HW140957   4.673   7.885   0.818  1.7330  0.5524  0.2543
13247SOL    HW240958   4.719   7.741   0.813  0.6947  0.2152  0.2175
13248SOL     OW40959   4.129   7.735   0.590  0.4357  0.5819 -0.6792
13248SOL    HW140960   4.161   7.704   0.675 -0.1949  1.0192 -0.2779
13248SOL    HW240961   4.110   7.656   0.541 -0.4900  0.3215  0.0824
13249SOL     OW40962   5.693   8.305   0.797 -0.1927  0.1134  0.3500
13249SOL    HW140963   5.702   8.400   0.805 -1.1781  0.2036  0.5954
13249SOL    HW240964   5.636   8.281   0.871 -0.1829 -0.6257  0.1221
13250SOL     OW40965   4.545   7.581   0.476  0.5213  0.0774  0.4420
13250SOL    HW140966   4.501   7.540   0.402  0.5929 -0.5820  0.7611
13250SOL    HW240967   4.638   7.561   0.463  0.5358 -0.0346  0.7069
13251SOL     OW40968   4.961   8.475   1.043 -0.1573 -0.0895 -0.2432
13251SOL    HW140969   4.974   8.545   0.980 -0.8318 -0.8268 -1.2231
13251SOL    HW240970   4.942   8.520   1.126  1.2573  0.8824 -0.4331
13252SOL     OW40971   5.152   8.770   0.562 -0.1267 -0.2478  0.3193
13252SOL    HW140972   5.114   8.689   0.528 -0.5351  0.2487 -0.4277
13252SOL    HW240973   5.120   8.775   0.652 -1.0969 -0.2937 -0.0188
13253SOL     OW40974   4.434   8.818   1.102 -0.0974 -0.0049  0.0995
13253SOL    HW140975   4.428   8.763   1.024 -0.6640  0.2390 -0.0337
13253SOL    HW240976   4.356   8.795   1.154 -1.7090  2.3268 -1.0615
13254SOL     OW40977   4.621   7.757   0.004 -0.6773  0.6787  0.0590
13254SOL    HW140978   4.554   7.721  -0.054  0.6057 -2.0727  0.1191
13254SOL    HW240979   4.675   7.812  -0.054 -1.1827  0.4325 -0.6601
13255SOL     OW40980   3.757   7.401   0.904 -0.1785 -0.2543  0.1985
13255SOL    HW140981   3.804   7.330   0.947  0.9781  0.9200  0.9393
13255SOL    HW240982   3.667   7.368   0.894 -0.4360 -0.7124  3.2213
13256SOL     OW40983   3.839   7.712   1.346  0.4426 -0.6473  0.5176
13256SOL    HW140984   3.837   7.627   1.302 -1.2598 -1.0214  1.2231
13256SOL    HW240985   3.903   7.701   1.417 -1.6626 -2.3214  2.3224
13257SOL     OW40986   4.410   7.491   0.696  0.7633 -0.5257 -0.8085
13257SOL    HW140987   4.468   7.542   0.639 -0.5968  0.9279 -0.9724
13257SOL    HW240988   4.349   7.556   0.732 -0.5227 -1.9295 -0.3546
13258SOL     OW40989   4.462   7.576   1.023  0.1380  0.2272  0.1838
13258SOL    HW140990   4.416   7.498   0.991 -0.4918  0.1754  1.1722
13258SOL    HW240991   4.521   7.600   0.952 -1.0712 -0.0039 -0.9487
13259SOL     OW40992   5.099   0.042   0.934  0.3122  0.2017  0.3519
13259SOL    HW140993   5.009   0.009   0.938  1.3277 -2.8374  0.4950
13259SOL    HW240994   5.149  -0.018   0.988  2.7819  0.4919 -1.4474
13260SOL     OW40995   5.347   8.259   1.250  0.3228 -0.2213  0.8583
13260SOL    HW140996   5.412   8.203   1.292  1.5545  1.2910  1.0510
13260SOL    HW240997   5.321   8.321   1.318 -0.6281 -0.2171  0.5096
13261SOL     OW40998   5.901   7.919   0.620  0.0500 -0.8157  0.5898
13261SOL    HW140999   5.847   7.869   0.559  1.6601 -1.1233 -0.6440
13261SOL    HW241000   5.877   8.011   0.605 -1.2748 -1.0290  1.2483
13262SOL     OW41001   5.786   0.195   0.593 -0.1765 -0.4825  0.3255
13262SOL    HW141002   5.696   0.164   0.600  0.3584 -2.6088 -1.2050
13262SOL    HW241003   5.779   0.277   0.544 -1.1774 -1.6366 -1.5671
13263SOL     OW41004   5.810   7.809   0.384  0.2580 -0.5472  0.0304
13263SOL    HW141005   5.745   7.835   0.319  1.4741  0.6128 -0.7733
13263SOL    HW241006   5.877   7.761   0.334  1.0736  0.1259  0.4508
13264SOL     OW41007   4.421   7.799   0.656  0.6223 -0.0424  0.0893
13264SOL    HW141008   4.511   7.780   0.681  0.7012  0.5003  0.2218
13264SOL    HW241009   4.425   7.814   0.562  0.7169  0.2479  0.1388
13265SOL     OW41010   5.471   8.534   1.832  0.7136  0.2819  0.2905
13265SOL    HW141011   5.462   8.578   1.916  0.4439 -1.6661  1.3290
13265SOL    HW241012   5.384   8.542   1.792 -0.3171 -1.9312  1.8724
13266SOL     OW41013   4.951   0.057   1.294 -0.5595 -0.6940  0.4844
13266SOL    HW141014   4.869   0.048   1.245 -1.0361  1.1391  0.8568
13266SOL    HW241015   4.926   0.106   1.372  1.0942  0.9605  0.0305
13267SOL     OW41016   5.127   8.439   1.444 -0.4804  0.3978 -0.0899
13267SOL    HW141017   5.073   8.503   1.396 -0.8315  1.2264  1.3571
13267SOL    HW241018   5.068   8.365   1.460 -1.1498  1.1624  1.1986
13268SOL     OW41019   5.390   8.842   0.876  0.2204 -0.8464 -0.0581
13268SOL    HW141020   5.306   8.881   0.852 -0.2643 -1.7363  0.1539
13268SOL    HW241021   5.389   8.756   0.833  1.6526 -0.2899 -1.2849
13269SOL     OW41022   4.727   7.954   1.405 -0.4409  0.1152  0.2494
13269SOL    HW141023   4.653   7.900   1.434  0.1913 -1.7909 -1.5335
13269SOL    HW241024   4.804   7.906   1.433  0.1398  0.7690 -0.2060
13270SOL     OW41025   4.465   8.667   1.842 -0.1679  0.3015  0.2816
13270SOL    HW141026   4.488   8.718   1.920  0.4984  0.4222  0.0144
13270SOL    HW241027   4.516   8.708   1.772 -0.0872 -0.3657 -0.0506
13271SOL     OW41028   4.826   8.465   0.795 -0.4829  0.3141  0.2474
13271SOL    HW141029   4.837   8.387   0.850  1.1361 -0.4503 -1.0854
13271SOL    HW241030   4.859   8.537   0.848 -0.6511 -0.1230  0.9557
13272SOL     OW41031   3.870   7.926   0.928  1.2862 -0.1731 -0.1749
13272SOL    HW141032   3.862   7.958   1.018 -0.3993  0.8676 -0.6472
13272SOL    HW241033   3.824   7.842   0.929  1.8890 -0.5011  0.0936
13273SOL     OW41034   5.000   7.811   1.439  0.1908 -0.3700 -0.2467
13273SOL    HW141035   4.988   7.731   1.387 -1.3743 -1.7081  2.0072
13273SOL    HW241036   5.022   7.879   1.374 -0.1316 -2.2393 -2.4285
13274SOL     OW41037   4.366   8.569   0.180 -0.2353 -0.4803  0.0634
13274SOL    HW141038   4.427   8.523   0.237 -0.2562  1.0725  1.3927
13274SOL    HW241039   4.281   8.529   0.198 -0.0560 -0.7791  0.2430
13275SOL     OW41040   4.306   8.018   0.800 -0.7924 -0.2233 -0.3662
13275SOL    HW141041   4.324   7.932   0.761  0.8492 -0.5820  1.0431
13275SOL    HW241042   4.286   8.074   0.726  1.5222 -1.0332 -1.7155
13276SOL     OW41043   5.276   0.225   0.469  0.0557  0.6385  0.0333
13276SOL    HW141044   5.273   0.131   0.485 -0.7547  0.5110 -0.7646
13276SOL    HW241045   5.284   0.264   0.556  0.9559 -0.1748  0.3346
13277SOL     OW41046   4.887   7.603   0.514 -0.9036 -0.0195  0.6606
13277SOL    HW141047   4.979   7.601   0.540 -0.9159 -0.7270  0.6667
13277SOL    HW241048   4.863   7.695   0.520 -0.9479 -0.1161  3.3485
13278SOL     OW41049   4.368   8.607   1.472 -0.0248  0.4163 -0.2465
13278SOL    HW141050   4.362   8.549   1.548 -1.1250  1.2182  0.3187
13278SOL    HW241051   4.281   8.647   1.466  0.9255  2.6377 -0.0817
13279SOL     OW41052   5.112   8.378   1.782  0.1987 -0.0141  0.3790
13279SOL    HW141053   5.164   8.341   1.710 -0.9577 -0.6033 -0.1861
13279SOL    HW241054   5.115   8.310   1.850 -0.2678 -0.2786  0.1363
13280SOL     OW41055   4.748   7.283   1.846 -0.2848 -0.0272 -0.4802
13280SOL    HW141056   4.772   7.284   1.754  0.7123 -0.2363 -0.2346
13280SOL    HW241057   4.683   7.213   1.853 -1.9148  1.3357 -1.3705
13281SOL     OW41058   4.433   7.335   1.686  0.3991  0.1555  0.3007
13281SOL    HW141059   4.444   7.244   1.714  0.5591  0.3094  0.7353
13281SOL    HW241060   4.455   7.333   1.592  0.9227 -0.1570  0.4243
13282SOL     OW41061   3.980   8.047   1.438  0.8272 -0.6270 -0.7055
13282SOL    HW141062   3.915   8.061   1.370  0.8349  2.3119 -0.2339
13282SOL    HW241063   4.037   7.977   1.404  0.7755  0.6354 -3.6644
13283SOL     OW41064   5.161   8.271   1.026  0.3348 -0.0411 -0.2171
13283SOL    HW141065   5.072   8.294   1.051 -0.2904 -2.2488 -0.1324
13283SOL    HW241066   5.207   8.261   1.110  0.6381  0.9533 -0.2565
13284SOL     OW41067   5.311   7.450   0.103 -0.3689  0.1407  0.3376
13284SOL    HW141068   5.260   7.530   0.095 -3.1412 -1.4443  0.8999
13284SOL    HW241069   5.367   7.449   0.024  0.0432  2.7287  0.5260
13285SOL     OW41070   4.190   7.432   1.268 -0.9664 -0.3225 -0.4572
13285SOL    HW141071   4.207   7.439   1.174  1.8209 -0.0187 -0.0118
13285SOL    HW241072   4.213   7.517   1.303  0.6190 -1.2203  0.8074
13286SOL     OW41073   4.308   0.344   1.645 -0.0260  0.6038 -0.0191
13286SOL    HW141074   4.214   0.358   1.654 -0.6516 -0.8184 -3.0556
13286SOL    HW241075   4.318   0.249   1.638  1.3130  0.8205 -1.9057
13287SOL     OW41076   4.871   8.062   0.544 -0.4427 -0.0741 -0.3086
13287SOL    HW141077   4.944   8.098   0.494  0.4205  0.7886  1.4709
13287SOL    HW241078   4.905   8.054   0.633 -1.9035 -1.5588  0.1671
13288SOL     OW41079   4.930   0.044   2.041  0.2911  0.6794 -0.1269
13288SOL    HW141080   4.925   0.071   1.950  0.8465  1.1742 -0.0159
13288SOL    HW241081   5.017   0.071   2.070  1.2558 -2.0294 -0.2415
13289SOL     OW41082   3.838   7.454   0.635 -0.1560  0.3785  0.4657
13289SOL    HW141083   3.819   7.440   0.728 -1.9414  2.5642  0.5034
13289SOL    HW241084   3.891   7.534   0.633 -1.3780  1.1962 -0.4638
13290SOL     OW41085   5.303   8.101   0.573 -0.2206 -0.2855 -0.4498
13290SOL    HW141086   5.369   8.165   0.546  0.4288 -0.6938  0.1458
13290SOL    HW241087   5.332   8.019   0.532 -2.2277  0.1680 -3.0713
13291SOL     OW41088   4.762   8.272   0.978  0.4230 -0.3588 -0.3259
13291SOL    HW141089   4.764   8.326   1.057  2.2347 -1.7231  0.6416
13291SOL    HW241090   4.682   8.221   0.985  0.6393 -0.5739  0.7306
13292SOL     OW41091   5.427   0.515   1.800 -0.1084 -0.3093 -0.2934
13292SOL    HW141092   5.501   0.501   1.859 -0.5415 -1.6546 -0.0396
13292SOL    HW241093   5.462   0.499   1.712  0.5289  1.6668 -0.4538
13293SOL     OW41094   4.216   8.475   2.046  0.0294 -0.5605  0.4390
13293SOL    HW141095   4.227   8.531   2.123  0.7307 -1.5359  1.0743
13293SOL    HW241096   4.295   8.489   1.994 -0.9388  0.9419 -0.7002
13294SOL     OW41097   4.513   7.421   0.029 -0.6171 -0.1772 -0.7483
13294SOL    HW141098   4.599   7.407   0.068 -0.0600  0.2522 -1.7754
13294SOL    HW241099   4.465   7.472   0.094  0.5024  1.0818 -0.8676
13295SOL     OW41100   5.587   7.460   8.787  0.1370 -0.2008 -0.3012
13295SOL    HW141101   5.585   7.380   8.840  0.4321 -1.3754 -2.0041
13295SOL    HW241102   5.512   7.451   8.728 -2.4552  2.7824  2.1348
13296SOL     OW41103   4.570   8.134   0.665  0.0828 -0.2154  0.6617
13296SOL    HW141104   4.491   8.098   0.625 -1.3511  2.7908  0.4805
13296SOL    HW241105   4.629   8.149   0.591 -0.2465 -0.0536  0.4259
13297SOL     OW41106   4.083   8.450   0.739 -0.2022  0.3951  0.5044
13297SOL    HW141107   4.143   8.396   0.687 -0.5309 -0.7005  1.2342
13297SOL    HW241108   4.110   8.435   0.829  0.0170  1.8645  0.6952
13298SOL     OW41109   5.185   7.638   1.630 -0.1218  0.0607 -0.0527
13298SOL    HW141110   5.094   7.620   1.656 -0.6550  1.7928 -0.6463
13298SOL    HW241111   5.234   7.634   1.713 -0.8152 -0.3582  0.3497
13299SOL     OW41112   5.449   7.599   1.131  1.0130 -0.8854 -0.1780
13299SOL    HW141113   5.451   7.687   1.167  0.1650 -0.9236 -0.0093
13299SOL    HW241114   5.413   7.545   1.201  1.8652 -1.4393 -0.1501
13300SOL     OW41115   4.687   0.002   1.187  0.0289  0.3164  0.3138
13300SOL    HW141116   4.650  -0.033   1.268  0.1389 -2.5748 -0.7480
13300SOL    HW241117   4.611   0.024   1.133 -0.0826  0.0082  0.3427
13301SOL     OW41118   3.913   7.894   0.645  0.3171 -0.2062  0.4591
13301SOL    HW141119   3.904   7.888   0.740 -1.1566 -0.8295  0.3139
13301SOL    HW241120   3.993   7.846   0.626  0.7796  0.1577  1.4033
13302SOL     OW41121   4.027   8.401   1.848 -0.2746  0.3839  0.3073
13302SOL    HW141122   4.060   8.326   1.798 -0.9921  0.7574 -0.7727
13302SOL    HW241123   4.095   8.419   1.912  0.8799  0.1285 -0.8030
13303SOL     OW41124   5.216   8.611   1.837 -0.0117 -0.1775  0.6411
13303SOL    HW141125   5.206   8.644   1.926 -1.8012  1.2470 -0.0057
13303SOL    HW241126   5.164   8.531   1.835 -0.2089 -0.0564  0.8103
13304SOL     OW41127   4.494   8.146   0.354 -0.2586 -0.3233  0.5031
13304SOL    HW141128   4.560   8.212   0.373 -1.0509  0.5517  0.2431
13304SOL    HW241129   4.452   8.175   0.273 -2.6313  0.4759  1.9284
13305SOL     OW41130   5.451   8.081   1.394 -0.1773 -0.3723  0.0496
13305SOL    HW141131   5.381   8.057   1.455 -0.0076  0.1941  0.4792
13305SOL    HW241132   5.530   8.045   1.432  0.2401  1.6512  1.2405
13306SOL     OW41133   4.562   8.018   0.908  0.4194  0.0903 -0.1122
13306SOL    HW141134   4.584   8.072   0.831 -0.3370 -0.0870 -0.4652
13306SOL    HW241135   4.466   8.015   0.908  0.4317 -0.4651  0.4592
13307SOL     OW41136   4.359   8.195   0.118  0.7387  0.1108 -0.1932
13307SOL    HW141137   4.342   8.251   0.043 -0.4736  3.7382  2.4949
13307SOL    HW241138   4.273   8.180   0.157  1.1988 -2.6285 -0.0335
13308SOL     OW41139   3.898   8.589   1.577  0.3110 -0.1671  0.2835
13308SOL    HW141140   3.980   8.559   1.617 -1.1434 -2.9485  1.4362
13308SOL    HW241141   3.855   8.509   1.549 -1.6274  1.2980 -1.2201
13309SOL     OW41142   5.198   8.687   1.087 -0.1856  0.3379  0.0966
13309SOL    HW141143   5.151   8.693   1.171  0.0823  1.1894  0.1996
13309SOL    HW241144   5.282   8.646   1.109 -0.7803 -0.9910 -0.0519
13310SOL     OW41145   4.744   7.878   0.220 -0.0279  0.1063  0.0754
13310SOL    HW141146   4.697   7.835   0.148 -0.8490  0.0735  0.6091
13310SOL    HW241147   4.723   7.825   0.297  1.8038 -0.5502  0.1531
13311SOL     OW41148   3.903   8.413   1.042 -0.1191 -0.2308 -0.0008
13311SOL    HW141149   3.994   8.394   1.020 -0.4281 -0.7860 -0.8518
13311SOL    HW241150   3.874   8.336   1.090 -1.0226 -1.4980 -2.4169
13312SOL     OW41151   4.341   7.215   0.064 -0.4501  0.4722  0.7911
13312SOL    HW141152   4.358   7.186   0.153  0.7624  2.2787  1.2035
13312SOL    HW241153   4.396   7.293   0.053  0.0037 -0.1262 -1.7845
13313SOL     OW41154   4.875   7.256   0.436 -0.2316  0.0997  0.1261
13313SOL    HW141155   4.892   7.162   0.426 -1.4988 -0.2726  1.0710
13313SOL    HW241156   4.839   7.283   0.351  0.4590 -0.1798 -0.2645
13314SOL     OW41157   5.219   8.327   0.742  0.0415  0.0106  0.5323
13314SOL    HW141158   5.282   8.259   0.717  0.3090  0.8769 -1.3693
13314SOL    HW241159   5.196   8.307   0.832  0.2145 -2.5033  0.0930
13315SOL     OW41160   4.824   0.163   1.809 -0.0416  0.0183  0.1544
13315SOL    HW141161   4.743   0.210   1.833 -0.2554  0.4794 -1.3279
13315SOL    HW241162   4.793   0.081   1.771  0.3057 -0.9639  1.9123
13316SOL     OW41163   5.627   7.432   1.011 -0.2590 -0.3669  0.1715
13316SOL    HW141164   5.551   7.475   1.050 -0.9394 -1.3442 -0.0323
13316SOL    HW241165   5.600   7.341   1.000  0.0585 -0.2570 -2.0821
13317SOL     OW41166   4.204   7.631   0.848 -0.1157  0.4079  0.2403
13317SOL    HW141167   4.128   7.597   0.894  0.1077 -1.5435 -0.6897
13317SOL    HW241168   4.259   7.670   0.916 -0.7679 -0.4752  1.3026
13318SOL     OW41169   4.745   8.548   1.427 -0.4806 -0.3655 -0.0143
13318SOL    HW141170   4.702   8.526   1.344 -0.3728  0.9009 -0.4200
13318SOL    HW241171   4.738   8.468   1.479 -2.1634 -0.6073 -0.5576
13319SOL     OW41172   4.887   8.349   0.564  0.7335 -0.1435 -0.3431
13319SOL    HW141173   4.863   8.393   0.645 -1.7164 -1.1047 -0.4776
13319SOL    HW241174   4.937   8.273   0.592 -2.2133 -1.9020  0.5835
13320SOL     OW41175   4.178   0.044   1.262  0.3598  0.0290  0.3764
13320SOL    HW141176   4.140   0.098   1.332 -1.3123 -0.4383 -0.1388
13320SOL    HW241177   4.130  -0.039   1.267 -0.5671  0.3432 -1.9718
13321SOL     OW41178   5.354   8.608   1.457 -0.7462  0.0555  0.1224
13321SOL    HW141179   5.312   8.693   1.442 -0.2620  0.3409  0.3598
13321SOL    HW241180   5.281   8.546   1.463 -1.1048  0.4560 -0.0175
13322SOL     OW41181   5.099   8.634   0.803  0.0600  0.6946  0.3323
13322SOL    HW141182   5.164   8.567   0.784  1.5203  2.0630  0.2581
13322SOL    HW241183   5.135   8.681   0.878 -0.1804  2.3023 -0.5127
13323SOL     OW41184   4.988   7.760   1.042  0.5168  0.2984 -0.0468
13323SOL    HW141185   4.964   7.668   1.031 -0.4646  0.5039  0.2965
13323SOL    HW241186   4.904   7.807   1.047  0.9993  1.1899 -0.0125
13324SOL     OW41187   5.424   7.876   1.200  0.3784  0.1517  0.3163
13324SOL    HW141188   5.355   7.890   1.135  1.2367  0.8754 -0.4684
13324SOL    HW241189   5.394   7.922   1.278  0.4714  1.4012 -0.3686
13325SOL     OW41190   3.723   8.695   1.779  0.6526  0.5920 -0.4267
13325SOL    HW141191   3.747   8.622   1.836  0.3105 -0.0958 -1.1419
13325SOL    HW241192   3.770   8.677   1.697 -0.1028  0.7173 -0.8930
13326SOL     OW41193   4.131   7.922   1.210 -0.5009 -0.1957  0.2433
13326SOL    HW141194   4.190   7.847   1.216  0.4276  0.5547  0.6927
13326SOL    HW241195   4.165   7.974   1.137 -1.3276 -0.3576 -0.2702
13327SOL     OW41196   3.600   8.023   0.905 -0.1990  0.1052  0.3354
13327SOL    HW141197   3.565   7.936   0.883 -0.6845  0.8557 -2.2904
13327SOL    HW241198   3.695   8.009   0.911 -0.2820 -0.6601  0.0992
13328SOL     OW41199   4.973   8.615   1.301 -0.4674 -0.2313 -0.4059
13328SOL    HW141200   4.894   8.581   1.344 -1.3439  1.6007 -0.4835
13328SOL    HW241201   4.963   8.710   1.305  2.0374  0.0643  0.0974
13329SOL     OW41202   3.600   7.434   0.141  0.3730 -1.3568 -0.6189
13329SOL    HW141203   3.549   7.383   0.078 -2.3918  0.8940 -0.4102
13329SOL    HW241204   3.620   7.516   0.095 -0.0800 -0.4273  0.7717
13330SOL     OW41205   4.542   8.125   1.541 -0.1754 -0.3368 -0.0318
13330SOL    HW141206   4.580   8.145   1.626  1.0726 -1.3993 -0.3216
13330SOL    HW241207   4.616   8.106   1.484 -1.0280 -0.4636 -1.1515
13331SOL     OW41208   4.059   8.193   1.665  0.1342 -0.0246  0.1482
13331SOL    HW141209   4.042   8.159   1.577 -0.1226 -1.0761  0.5800
13331SOL    HW241210   4.148   8.164   1.685 -0.1900 -0.7480  0.6332
13332SOL     OW41211   5.267   0.149   1.615 -0.1855  0.3065 -0.2172
13332SOL    HW141212   5.210   0.206   1.667 -0.6571  0.4199 -0.8558
13332SOL    HW241213   5.327   0.111   1.680 -0.5720  0.6750  0.3707
13333SOL     OW41214   5.066   8.160   1.483  0.1452  0.1807  0.0468
13333SOL    HW141215   5.135   8.105   1.521  0.3494 -0.0173 -0.5979
13333SOL    HW241216   5.042   8.116   1.402 -2.4392 -1.0693  1.3621
13334SOL     OW41217   4.761   7.392   0.626  0.5530 -0.2448  0.0025
13334SOL    HW141218   4.787   7.342   0.549  0.6206 -0.0080 -0.1284
13334SOL    HW241219   4.812   7.473   0.621  0.1817 -0.0044  0.0226
13335SOL     OW41220   4.477   8.579   0.943 -0.0927  0.2459  0.1943
13335SOL    HW141221   4.453   8.493   0.910 -0.1952  0.4774 -0.3457
13335SOL    HW241222   4.500   8.564   1.035  2.5780 -0.8557 -0.5430
13336SOL     OW41223   5.634   7.802   1.366 -0.1356  0.1185 -0.4042
13336SOL    HW141224   5.585   7.846   1.297 -0.8241  0.4654  0.2835
13336SOL    HW241225   5.627   7.709   1.345 -0.5586  0.2059 -0.6645
13337SOL     OW41226   5.592   8.562   1.587  0.5638  0.4501  0.4932
13337SOL    HW141227   5.513   8.588   1.540  1.3361  1.9222 -0.0848
13337SOL    HW241228   5.562   8.541   1.675 -0.4840  0.8942  0.2592
13338SOL     OW41229   4.904   0.186   1.526 -0.3001  0.7799 -0.2202
13338SOL    HW141230   4.910   0.190   1.621  0.3437 -0.3967 -0.1986
13338SOL    HW241231   4.852   0.263   1.502 -0.5389  1.0426  1.0811
13339SOL     OW41232   5.495   8.267   0.540  0.9502  0.5267 -0.2394
13339SOL    HW141233   5.445   8.335   0.495  0.7838 -0.3724 -1.4463
13339SOL    HW241234   5.549   8.315   0.603 -0.8395  1.5906  0.5717
13340SOL     OW41235   3.944   8.846   2.224 -0.3820 -0.0457 -0.2710
13340SOL    HW141236   3.872   8.797   2.265  0.2079 -1.4055 -0.8397
13340SOL    HW241237   4.002   8.779   2.188  0.9338  1.0464 -0.2527
13341SOL     OW41238   3.818   0.014   0.971 -0.1812 -0.4434  0.3684
13341SOL    HW141239   3.739   0.029   1.023 -0.1651  0.9546  0.0345
13341SOL    HW241240   3.793  -0.055   0.909 -0.7708 -0.8247  1.0182
13342SOL     OW41241   4.384   8.676   2.278  0.2571 -0.1628 -0.4630
13342SOL    HW141242   4.427   8.711   2.200  4.2701 -0.2785  1.4195
13342SOL    HW241243   4.360   8.753   2.329  0.9410 -0.0787 -0.2566
13343SOL     OW41244   6.050   7.488   1.112  0.3515 -0.4369  0.7431
13343SOL    HW141245   6.006   7.570   1.136  1.6771 -0.0185  1.8485
13343SOL    HW241246   5.990   7.419   1.142  0.1041  0.1219  1.5623
13344SOL     OW41247   4.186   8.178   0.593  0.1913  0.1510  0.2672
13344SOL    HW141248   4.260   8.223   0.552 -0.0506 -0.0386 -0.3824
13344SOL    HW241249   4.119   8.175   0.525 -1.0216  1.7083  1.3270
13345SOL     OW41250   5.795   0.056   1.332 -0.0673  0.4551  0.2542
13345SOL    HW141251   5.829   0.128   1.385  1.7074 -0.1274 -0.0327
13345SOL    HW241252   5.774  -0.013   1.396  1.0658  0.1466  0.3178
13346SOL     OW41253   4.117   8.102   0.967  0.3095 -0.2512  0.4340
13346SOL    HW141254   4.033   8.063   0.942  0.7936 -0.8502 -0.2979
13346SOL    HW241255   4.174   8.086   0.892  0.7098  1.3332  0.3711
13347SOL     OW41256   4.734   7.632   0.953 -0.3496 -0.6212 -0.1379
13347SOL    HW141257   4.790   7.555   0.959  0.0924 -0.3254 -0.3962
13347SOL    HW241258   4.709   7.651   1.043 -0.6342 -1.1851 -0.0906
13348SOL     OW41259   4.834   7.544   1.402 -0.0096 -0.1418  0.0432
13348SOL    HW141260   4.916   7.495   1.391  1.7236  2.3455  0.9651
13348SOL    HW241261   4.801   7.515   1.487  0.8395  0.0724  0.4582
13349SOL     OW41262   5.342   8.512   0.460  0.2542 -0.0841  0.1399
13349SOL    HW141263   5.305   8.579   0.517  2.7727  1.3063  0.2678
13349SOL    HW241264   5.266   8.464   0.428 -1.6186  2.3604  0.5981
13350SOL     OW41265   4.687   7.069   0.183  0.1970 -0.3093  0.3566
13350SOL    HW141266   4.764   7.076   0.240 -0.0149 -1.4728  0.8145
13350SOL    HW241267   4.618   7.114   0.231  0.2957 -0.3038  0.4952
13351SOL     OW41268   4.735   7.834   0.477  0.0681  0.4479 -0.3403
13351SOL    HW141269   4.784   7.914   0.500 -1.0269  0.5964  1.6721
13351SOL    HW241270   4.707   7.798   0.561 -3.7880  0.7044 -1.3466
13352SOL     OW41271   5.217   7.927   1.040 -0.1352 -0.5503  0.1321
13352SOL    HW141272   5.144   7.866   1.041 -0.1637 -0.5115  0.3126
13352SOL    HW241273   5.236   7.940   0.947 -0.9155  0.1096  0.0589
13353SOL     OW41274   4.582   8.592   0.408  0.2009 -0.2622 -0.6918
13353SOL    HW141275   4.611   8.605   0.498 -0.3582 -0.8470 -0.4152
13353SOL    HW241276   4.547   8.677   0.381  1.4128  0.2342 -0.7692
13354SOL     OW41277   3.993   8.315   2.161 -0.6834 -0.1761 -0.8075
13354SOL    HW141278   4.058   8.386   2.165 -1.8200  0.8756 -0.0521
13354SOL    HW241279   3.912   8.355   2.195 -1.7216 -1.4485 -1.6888
13355SOL     OW41280   3.355   7.573   2.755  0.7154  0.2103  0.4161
13355SOL    HW141281   3.352   7.535   2.668 -0.4461  1.9393 -0.3528
13355SOL    HW241282   3.420   7.520   2.802  0.4349 -1.5638 -1.0713
13356SOL     OW41283   3.411   7.927   2.800  0.2842 -0.1167 -0.4177
13356SOL    HW141284   3.463   7.847   2.796 -1.8586 -1.6537  0.6803
13356SOL    HW241285   3.386   7.943   2.709  2.4729  0.6068 -0.9609
13357SOL     OW41286   4.543   8.661   3.267  0.8166  0.1335 -0.2864
13357SOL    HW141287   4.612   8.721   3.294  0.7965 -0.0171  0.1139
13357SOL    HW241288   4.471   8.718   3.240  1.2092  0.2944 -1.0224
13358SOL     OW41289   5.251   8.706   2.629  0.0874 -0.4339 -0.1950
13358SOL    HW141290   5.266   8.692   2.722 -0.0233  0.9488  0.0440
13358SOL    HW241291   5.316   8.772   2.603  0.6103 -1.3343 -1.2715
13359SOL     OW41292   4.870   8.440   2.159  0.1487 -0.5252 -0.4001
13359SOL    HW141293   4.945   8.456   2.216 -0.1555  0.0047 -0.1372
13359SOL    HW241294   4.827   8.525   2.152 -0.5699 -0.8742 -0.3362
13360SOL     OW41295   5.131   8.478   2.259  0.2153  0.1043  0.0171
13360SOL    HW141296   5.112   8.492   2.352 -0.1678 -0.5506  0.0457
13360SOL    HW241297   5.194   8.405   2.258 -0.0711 -0.1422 -0.2511
13361SOL     OW41298   4.286   8.371   2.927 -0.2067  0.1407 -0.4681
13361SOL    HW141299   4.293   8.302   2.992  1.1512 -0.3254 -1.0603
13361SOL    HW241300   4.210   8.423   2.954 -0.0318 -0.3815  1.1277
13362SOL     OW41301   5.100   8.138   3.139 -0.7902  0.6579 -0.4384
13362SOL    HW141302   5.140   8.084   3.071  1.6266  3.2169 -1.2367
13362SOL    HW241303   5.066   8.215   3.092  0.0535  2.0211  1.0644
13363SOL     OW41304   4.509   7.962   2.590  0.0435  0.3706  0.2372
13363SOL    HW141305   4.463   7.977   2.672 -1.0607 -0.2562 -0.2355
13363SOL    HW241306   4.535   7.870   2.594 -0.4801  0.1875 -0.3172
13364SOL     OW41307   4.501   8.674   3.809  0.5401  0.2304 -0.4037
13364SOL    HW141308   4.499   8.618   3.887  0.1455  0.3408 -0.3340
13364SOL    HW241309   4.586   8.718   3.814  0.5346  0.2069 -0.0555
13365SOL     OW41310   4.197   8.639   3.149  0.2266 -0.5127  0.2918
13365SOL    HW141311   4.249   8.719   3.150 -2.2095  1.1793 -0.9035
13365SOL    HW241312   4.173   8.627   3.057 -1.1057 -1.4804  0.7351
13366SOL     OW41313   4.642   7.473   3.074  0.8920  0.1311 -0.2997
13366SOL    HW141314   4.591   7.547   3.108 -2.2250 -2.0068  0.0786
13366SOL    HW241315   4.677   7.430   3.152 -2.1068 -1.9305  0.0529
13367SOL     OW41316   5.175   7.325   2.501 -0.0587 -0.2755 -0.0155
13367SOL    HW141317   5.262   7.338   2.462  0.1881 -0.1280  0.5818
13367SOL    HW241318   5.114   7.353   2.433  0.3880  0.6485 -0.0445
13368SOL     OW41319   4.792   8.653   3.570 -0.5002  0.4903  0.1810
13368SOL    HW141320   4.847   8.652   3.648  0.6653 -0.4112 -0.6179
13368SOL    HW241321   4.702   8.652   3.604 -0.0174  0.2865  1.5080
13369SOL     OW41322   3.997   0.019   2.918  0.0691  0.0833 -0.0926
13369SOL    HW141323   3.948   0.057   2.845  0.0296 -0.5899 -0.4204
13369SOL    HW241324   4.064   0.085   2.939  2.1456 -0.9845 -2.7971
13370SOL     OW41325   4.682   8.408   1.957  0.3864  0.1288  0.3174
13370SOL    HW141326   4.701   8.396   2.050  1.3934 -1.4825 -0.0697
13370SOL    HW241327   4.739   8.479   1.930  0.1503  0.5517  0.8921
13371SOL     OW41328   5.340   7.708   3.091 -0.2620  0.0467 -0.3897
13371SOL    HW141329   5.286   7.636   3.123  0.8334 -1.2659 -1.3730
13371SOL    HW241330   5.420   7.666   3.059  0.8399  1.8097 -0.0803
13372SOL     OW41331   4.047   8.108   2.609 -0.0028 -0.3535  0.3529
13372SOL    HW141332   3.964   8.117   2.561 -0.4076  0.1586  1.1316
13372SOL    HW241333   4.104   8.173   2.569 -0.2757 -0.0596  0.4373
13373SOL     OW41334   5.478   8.419   2.450 -0.5307  0.0167 -0.4650
13373SOL    HW141335   5.493   8.406   2.544 -2.2601  0.3597 -0.1096
13373SOL    HW241336   5.450   8.510   2.442  1.6905  0.6549 -1.6347
13374SOL     OW41337   5.105   8.510   2.540 -0.2156  0.2268 -0.3734
13374SOL    HW141338   5.153   8.429   2.554 -0.6907 -0.2265 -1.2661
13374SOL    HW241339   5.165   8.579   2.568 -0.0588 -0.4467  1.0528
13375SOL     OW41340   4.029   7.866   3.524  0.2231 -0.0187  0.2827
13375SOL    HW141341   3.969   7.892   3.455  0.0950 -0.7819  0.0999
13375SOL    HW241342   3.974   7.819   3.587  0.3082  0.7996  0.9853
13376SOL     OW41343   4.865   8.683   2.411  0.7841 -0.1632 -0.3057
13376SOL    HW141344   4.876   8.758   2.469  1.2072 -1.3190  1.1619
13376SOL    HW241345   4.906   8.610   2.457 -1.9765 -1.9391 -0.3819
13377SOL     OW41346   4.984   8.433   3.106  0.1796 -0.2116  0.2813
13377SOL    HW141347   4.922   8.479   3.048  0.8017  1.6422  1.0002
13377SOL    HW241348   4.963   8.466   3.193  1.3903 -0.4713  0.6798
13378SOL     OW41349   4.125   7.363   2.272 -0.2506  0.0041  0.7149
13378SOL    HW141350   4.181   7.436   2.246 -1.1921 -0.0619 -1.8226
13378SOL    HW241351   4.051   7.404   2.316 -0.2713  0.4973  0.2295
13379SOL     OW41352   3.825   8.136   3.161  0.4561  0.0103 -0.0381
13379SOL    HW141353   3.860   8.224   3.171  0.4957 -0.2417  2.8280
13379SOL    HW241354   3.852   8.110   3.072 -0.9695  3.3885 -1.6287
13380SOL     OW41355   5.110   8.817   2.322  0.5707 -0.4779  0.0453
13380SOL    HW141356   5.169   8.790   2.392  0.7541 -1.9079 -0.6179
13380SOL    HW241357   5.022   8.802   2.358  0.6660 -1.4192 -0.0710
13381SOL     OW41358   4.304   7.800   3.400  0.3841 -0.0164  0.2072
13381SOL    HW141359   4.322   7.827   3.310 -0.2101  1.6941  0.5672
13381SOL    HW241360   4.210   7.813   3.411  0.3065 -0.9654  0.8573
13382SOL     OW41361   4.825   8.553   2.934  0.0793  0.3060 -0.8708
13382SOL    HW141362   4.876   8.587   2.860 -0.8448  0.0761 -1.6366
13382SOL    HW241363   4.735   8.548   2.901 -0.2883 -0.1714  0.1492
13383SOL     OW41364   4.174   7.655   1.987  0.2798 -0.2751  0.4126
13383SOL    HW141365   4.193   7.721   1.920  1.7850  0.1397  1.2048
13383SOL    HW241366   4.210   7.574   1.951  1.7387  0.0926  1.0117
13384SOL     OW41367   4.734   7.698   2.311 -0.0888 -0.3120  0.3961
13384SOL    HW141368   4.669   7.747   2.361  0.6318 -0.2318  1.3005
13384SOL    HW241369   4.693   7.613   2.294 -2.0024  1.0416 -2.6007
13385SOL     OW41370   4.625   7.861   3.401 -0.1585 -0.1577  0.1225
13385SOL    HW141371   4.695   7.819   3.451 -0.3638 -0.2265  0.3520
13385SOL    HW241372   4.571   7.904   3.467  1.1282  2.1229 -0.1976
13386SOL     OW41373   5.313   7.880   3.312 -0.4173  0.7030 -0.3529
13386SOL    HW141374   5.332   7.823   3.387 -1.2853  0.8468 -0.0074
13386SOL    HW241375   5.309   7.821   3.237  0.0632  0.5016 -0.2200
13387SOL     OW41376   4.622   7.891   3.060  0.2918  0.2099 -0.2903
13387SOL    HW141377   4.676   7.914   2.984  1.4428  1.0095  0.7410
13387SOL    HW241378   4.678   7.906   3.136 -0.0127 -2.8318  0.6652
13388SOL     OW41379   4.920   7.667   2.735 -0.2460  0.4259 -0.2699
13388SOL    HW141380   4.872   7.587   2.756 -1.4752  1.4456  0.9275
13388SOL    HW241381   4.855   7.736   2.739  0.4478  1.3463 -2.8405
13389SOL     OW41382   4.829   8.159   2.150 -0.5201 -0.6699  0.0481
13389SOL    HW141383   4.810   8.252   2.161 -1.5849 -0.9697  0.8937
13389SOL    HW241384   4.877   8.154   2.067 -1.1238  0.5477 -0.3963
13390SOL     OW41385   3.805   8.111   2.812  0.0335 -0.1368  0.0429
13390SOL    HW141386   3.787   8.134   2.721 -3.0733  1.8456  1.0052
13390SOL    HW241387   3.885   8.158   2.834  0.5875 -0.3050 -1.5183
13391SOL     OW41388   4.303   8.081   1.685 -0.7357  0.3148  0.3351
13391SOL    HW141389   4.377   8.099   1.627 -2.2360 -0.7692 -2.0666
13391SOL    HW241390   4.316   8.140   1.759  1.3698  1.6852 -1.0061
13392SOL     OW41391   5.581   7.728   3.500  0.2941  0.1366 -1.1237
13392SOL    HW141392   5.486   7.731   3.504  0.3472  0.3106  1.3344
13392SOL    HW241393   5.606   7.806   3.450 -0.8165  0.1937 -1.6145
13393SOL     OW41394   4.764   8.687   2.133  0.1051  0.2753 -0.3499
13393SOL    HW141395   4.765   8.687   2.229 -0.4381 -1.4539 -0.3074
13393SOL    HW241396   4.825   8.756   2.108 -0.9094  1.8051  1.2228
13394SOL     OW41397   4.223   7.798   2.378 -0.3624 -0.1887  0.3993
13394SOL    HW141398   4.297   7.858   2.386 -1.0679  0.8648 -0.7444
13394SOL    HW241399   4.189   7.790   2.467  2.9034 -3.1306  1.6378
13395SOL     OW41400   5.175   8.198   2.685 -0.2904  0.3321 -0.0582
13395SOL    HW141401   5.148   8.199   2.593 -0.5163  1.0708  0.0124
13395SOL    HW241402   5.268   8.177   2.683 -0.1552  0.9534 -0.4941
13396SOL     OW41403   3.876   7.964   1.990 -0.2160  0.0462  0.0355
13396SOL    HW141404   3.901   7.959   1.898  0.7547 -1.2281  0.3525
13396SOL    HW241405   3.943   7.915   2.037 -1.5246 -0.6601  1.2691
13397SOL     OW41406   5.436   8.054   2.684 -0.2283  0.4394  0.2576
13397SOL    HW141407   5.466   7.986   2.744 -1.4658 -0.3102  0.0530
13397SOL    HW241408   5.381   8.008   2.621 -0.2465  1.4752 -0.5072
13398SOL     OW41409   3.998   0.122   3.716 -0.0924  0.2496 -0.2318
13398SOL    HW141410   3.945   0.112   3.638 -0.4719 -1.8234  0.2213
13398SOL    HW241411   3.938   0.155   3.783 -0.7878 -1.7125  0.1735
13399SOL     OW41412   4.507   7.671   3.195 -0.0975  0.1619  0.5305
13399SOL    HW141413   4.524   7.764   3.181  0.9031 -0.2248 -1.1216
13399SOL    HW241414   4.490   7.663   3.289 -0.3401  2.0156  0.6759
13400SOL     OW41415   5.595   0.040   2.105  0.1463  0.4454 -0.0629
13400SOL    HW141416   5.660   0.108   2.120 -1.3481  2.0361 -0.5185
13400SOL    HW241417   5.647  -0.039   2.089  1.9406  1.5204  0.1783
13401SOL     OW41418   5.078   7.544   2.072  0.0070  0.0664 -0.1062
13401SOL    HW141419   5.016   7.604   2.114 -1.9158 -2.4204  0.7892
13401SOL    HW241420   5.143   7.525   2.140 -0.4196 -0.2982  0.1986
13402SOL     OW41421   4.491   8.233   2.131 -0.0321  0.9159 -0.2845
13402SOL    HW141422   4.412   8.178   2.138 -0.7871  2.0178  0.3178
13402SOL    HW241423   4.482   8.295   2.204  1.0736  1.4757 -0.6157
13403SOL     OW41424   5.316   7.683   3.512 -0.1388  0.1772 -0.4124
13403SOL    HW141425   5.244   7.698   3.573 -1.3855 -0.7637 -1.5905
13403SOL    HW241426   5.348   7.595   3.533  0.5942  0.5275  0.0008
13404SOL     OW41427   4.343   7.607   1.583  0.3022  0.0445 -0.0697
13404SOL    HW141428   4.327   7.634   1.673 -1.3326 -0.0915 -0.2957
13404SOL    HW241429   4.376   7.518   1.590  0.6819  0.2172  0.4069
13405SOL     OW41430   4.518   6.937   3.589  0.4365  0.3778 -0.2644
13405SOL    HW141431   4.508   7.023   3.547  1.3351 -0.0300 -1.3808
13405SOL    HW241432   4.596   6.900   3.547  1.2494 -0.1578  1.6420
13406SOL     OW41433   5.018   7.862   2.995 -0.8866 -0.2172 -0.0355
13406SOL    HW141434   4.997   7.852   3.088 -3.1341  1.2173 -0.3006
13406SOL    HW241435   5.056   7.778   2.970  0.7313 -0.3187  2.3577
13407SOL     OW41436   4.912   8.022   2.362  0.7533  0.5776 -0.4522
13407SOL    HW141437   4.866   8.079   2.301  1.0864 -0.9351 -2.2071
13407SOL    HW241438   4.856   8.020   2.440 -0.7613  0.9367 -1.4845
13408SOL     OW41439   4.355   7.110   2.035 -0.1813  0.6493  0.5959
13408SOL    HW141440   4.392   7.179   2.092  0.6213  0.2309  0.6016
13408SOL    HW241441   4.408   7.114   1.955 -0.1460  0.0649  0.5850
13409SOL     OW41442   5.172   0.182   1.989  0.2874  0.8144 -0.3244
13409SOL    HW141443   5.259   0.164   1.954  1.3880  0.6215  2.2734
13409SOL    HW241444   5.129   0.234   1.921  2.3283  0.6952 -1.7881
13410SOL     OW41445   4.267   7.417   1.906  0.2848 -0.7736  0.4657
13410SOL    HW141446   4.310   7.376   1.830  1.2216 -0.7026  0.9390
13410SOL    HW241447   4.261   7.346   1.971  2.3203 -0.1290  1.4562
13411SOL     OW41448   4.816   7.769   1.882 -0.1258 -0.1612 -0.2537
13411SOL    HW141449   4.885   7.774   1.947 -1.5662 -1.2573  1.4557
13411SOL    HW241450   4.858   7.794   1.800  3.7390 -5.6953 -0.5115
13412SOL     OW41451   4.810   7.971   2.828 -0.2131 -0.2173  0.0561
13412SOL    HW141452   4.811   8.058   2.868 -1.9410  0.1833 -0.6576
13412SOL    HW241453   4.867   7.918   2.884 -1.1951  0.7197  2.0779
13413SOL     OW41454   4.914   0.250   2.409  0.1143  0.2553 -0.1402
13413SOL    HW141455   4.995   0.260   2.359  0.1214 -0.2206 -0.2257
13413SOL    HW241456   4.844   0.261   2.345  0.1127  0.5386 -0.0899
13414SOL     OW41457   4.210   8.240   2.412  0.2751 -0.1772 -0.5650
13414SOL    HW141458   4.291   8.290   2.408  0.1931  0.0074  0.0147
13414SOL    HW241459   4.232   8.156   2.372  0.1883  0.5980 -2.3391
13415SOL     OW41460   4.996   7.562   1.816  0.1873 -0.5087  0.2614
13415SOL    HW141461   4.947   7.482   1.793 -0.5181  0.0006 -0.0574
13415SOL    HW241462   5.020   7.549   1.908 -0.3226 -0.8921  0.3499
13416SOL     OW41463   4.038   7.568   3.374  0.1840  0.1582  0.8531
13416SOL    HW141464   4.053   7.621   3.295  0.2013 -1.5314 -0.3490
13416SOL    HW241465   4.041   7.630   3.446  0.6624  1.7060 -0.4414
13417SOL     OW41466   3.844   7.392   2.865 -0.1984 -0.3071 -0.3212
13417SOL    HW141467   3.801   7.457   2.921  0.2469 -2.1233  2.3157
13417SOL    HW241468   3.921   7.436   2.831 -0.4481  0.8641  0.5670
13418SOL     OW41469   4.628   7.944   2.193 -0.6533 -0.0206  0.3398
13418SOL    HW141470   4.663   8.030   2.167  0.0925 -0.9895 -2.2118
13418SOL    HW241471   4.698   7.904   2.244 -0.4652  0.3582  0.3843
13419SOL     OW41472   4.812   7.211   2.607  0.0113  0.0411  0.0261
13419SOL    HW141473   4.733   7.194   2.555 -1.0967 -0.3520  1.7615
13419SOL    HW241474   4.873   7.143   2.581 -0.5120 -0.1471 -0.7515
13420SOL     OW41475   4.978   0.044   2.561 -0.3438 -0.4974 -0.2393
13420SOL    HW141476   4.974   0.121   2.504  1.2314 -0.8262 -0.8591
13420SOL    HW241477   5.043   0.067   2.628 -1.8195 -0.3042  1.1766
13421SOL     OW41478   5.304   7.655   2.766  1.0691  0.1406  0.2227
13421SOL    HW141479   5.279   7.744   2.792 -0.8882 -0.5282  0.7728
13421SOL    HW241480   5.296   7.603   2.846 -1.5930 -1.2483 -0.8278
13422SOL     OW41481   5.202   8.204   1.990  0.2199  0.5246 -0.1576
13422SOL    HW141482   5.187   8.143   2.063 -2.2096  1.6630  0.4302
13422SOL    HW241483   5.288   8.242   2.007 -0.1600  0.5559  2.0262
13423SOL     OW41484   5.463   8.712   2.400 -0.2618 -0.0762  0.2511
13423SOL    HW141485   5.547   8.729   2.441  1.1479 -0.3784 -2.2698
13423SOL    HW241486   5.427   8.799   2.380  1.1789  0.1390 -1.7525
13424SOL     OW41487   4.892   8.576   1.741  0.2962 -0.0443  0.0148
13424SOL    HW141488   4.968   8.633   1.750 -1.3117  2.0309  1.2112
13424SOL    HW241489   4.929   8.488   1.731  2.8363  0.8469  0.8886
13425SOL     OW41490   3.897   7.932   1.729  0.3528 -0.0863  1.2273
13425SOL    HW141491   3.940   8.010   1.693  0.6593 -1.1606 -0.9296
13425SOL    HW241492   3.825   7.915   1.669  0.6472 -1.7710  1.3026
13426SOL     OW41493   4.941   8.288   3.461 -0.1372  0.2543  0.2639
13426SOL    HW141494   4.856   8.260   3.497  0.1796  1.1159  1.7892
13426SOL    HW241495   4.985   8.207   3.436 -0.7741 -0.3252  0.9818
13427SOL     OW41496   4.870   8.511   3.338 -0.3524 -0.1016  0.4459
13427SOL    HW141497   4.862   8.567   3.415 -0.2347  1.4865 -0.6534
13427SOL    HW241498   4.886   8.424   3.374 -3.1881  0.0222  2.2788
13428SOL     OW41499   4.793   0.391   2.904 -0.2301  0.1465  0.4337
13428SOL    HW141500   4.782   0.330   2.977  0.8947 -0.4157  0.1479
13428SOL    HW241501   4.777   0.338   2.826  2.1973 -0.2034  0.1007
13429SOL     OW41502   4.978   8.635   2.752 -0.1310  0.0150 -0.0956
13429SOL    HW141503   5.005   8.588   2.673 -0.2138 -2.0321  1.0172
13429SOL    HW241504   4.988   8.728   2.730 -0.0481 -0.4955 -2.4455
13430SOL     OW41505   4.798   7.452   3.303 -0.0452 -0.2540 -0.3816
13430SOL    HW141506   4.812   7.521   3.368  0.5187  0.3002 -1.0780
13430SOL    HW241507   4.882   7.445   3.257 -0.8193  0.2907 -1.9329
13431SOL     OW41508   4.710   8.209   3.568 -0.4740  0.8759 -0.1614
13431SOL    HW141509   4.649   8.270   3.608 -1.5377 -0.5834  0.5563
13431SOL    HW241510   4.698   8.127   3.617  0.7082  0.0174 -1.2269
13432SOL     OW41511   4.463   8.417   2.357 -0.1959  0.0359  0.6786
13432SOL    HW141512   4.411   8.492   2.327 -0.5877 -0.4099  0.2314
13432SOL    HW241513   4.533   8.456   2.410  0.0237  0.7700 -0.1333
13433SOL     OW41514   4.329   8.206   3.171 -0.6161 -0.3229 -0.1878
13433SOL    HW141515   4.333   8.292   3.213  0.9076 -0.8119  0.7108
13433SOL    HW241516   4.387   8.151   3.222 -0.3148 -1.4894 -1.7184
13434SOL     OW41517   5.127   7.348   2.771  0.4864  0.5325 -0.2274
13434SOL    HW141518   5.134   7.329   2.677  2.5122 -2.5627  0.4143
13434SOL    HW241519   5.035   7.374   2.783  0.0009  0.3657 -2.9241
13435SOL     OW41520   4.096   8.801   2.587 -0.8203 -0.2108 -0.6061
13435SOL    HW141521   4.176   8.759   2.619 -1.7021 -0.6495  1.1625
13435SOL    HW241522   4.036   8.728   2.569 -2.0504  0.1396  1.6279
13436SOL     OW41523   4.068   7.562   2.877 -0.3253  0.4929 -0.0270
13436SOL    HW141524   4.147   7.531   2.921 -0.5071  1.3023  0.9172
13436SOL    HW241525   4.092   7.565   2.784  0.5701  0.2104  0.1807
13437SOL     OW41526   4.639   0.108   2.329 -0.4606 -0.4675 -0.1566
13437SOL    HW141527   4.694   0.160   2.270 -0.4520  1.8522  1.7192
13437SOL    HW241528   4.557   0.097   2.281  0.3315 -0.7261 -1.5132
13438SOL     OW41529   5.129   7.721   2.531  0.4138 -0.1052  0.5367
13438SOL    HW141530   5.186   7.708   2.607  0.7503  1.1430  0.5101
13438SOL    HW241531   5.040   7.715   2.566  0.5504  1.9115  1.3313
13439SOL     OW41532   4.576   8.388   3.743 -0.2973  0.4130 -0.4300
13439SOL    HW141533   4.536   8.473   3.727 -0.9552  0.1016 -0.5129
13439SOL    HW241534   4.626   8.399   3.824 -0.3667  0.8824 -0.4507
13440SOL     OW41535   5.427   8.259   2.969 -0.1079 -0.6861 -0.5009
13440SOL    HW141536   5.338   8.292   2.985  0.2997  0.8112 -1.1965
13440SOL    HW241537   5.460   8.238   3.057 -0.7351 -0.1790 -0.1350
13441SOL     OW41538   4.865   7.235   3.576  0.4749 -0.1394 -0.0654
13441SOL    HW141539   4.939   7.178   3.555  1.3830  0.9497  0.1117
13441SOL    HW241540   4.852   7.287   3.496 -0.1265 -0.3378 -0.1043
13442SOL     OW41541   4.563   7.164   3.444  0.4415 -0.1384 -0.4409
13442SOL    HW141542   4.611   7.171   3.362 -1.2792  1.0536 -1.3956
13442SOL    HW241543   4.628   7.188   3.511  2.1724 -2.1506 -1.2713
13443SOL     OW41544   4.540   8.495   2.895 -0.0210 -0.2285 -0.1055
13443SOL    HW141545   4.449   8.470   2.880 -0.7191  0.6687  2.2805
13443SOL    HW241546   4.560   8.466   2.984  1.4995  1.0105  0.0207
13444SOL     OW41547   5.320   7.927   2.454  0.0127  0.1386  0.4322
13444SOL    HW141548   5.336   7.933   2.360 -0.6253  0.5832  0.3446
13444SOL    HW241549   5.280   7.840   2.466 -0.1636  0.1962  0.2571
13445SOL     OW41550   4.685   8.209   1.783  0.0626  0.0950 -0.1084
13445SOL    HW141551   4.723   8.133   1.826 -0.8964  0.5092  1.5760
13445SOL    HW241552   4.685   8.277   1.850  1.7914  1.9370 -1.8433
13446SOL     OW41553   3.807   7.595   3.121  0.4313 -0.2012 -0.7583
13446SOL    HW141554   3.868   7.611   3.193  0.0570  0.2764 -0.5394
13446SOL    HW241555   3.772   7.508   3.137  1.6820 -0.8373 -1.3490
13447SOL     OW41556   3.400   8.628   3.514  1.1588 -0.0342  0.0499
13447SOL    HW141557   3.428   8.719   3.517 -0.4835  0.5114 -0.1222
13447SOL    HW241558   3.397   8.607   3.420  0.0353  0.2483  0.0108
13448SOL     OW41559   4.107   7.846   2.660 -0.8474 -0.5488 -0.1390
13448SOL    HW141560   4.086   7.832   2.753 -1.4246 -2.0034 -0.4536
13448SOL    HW241561   4.090   7.939   2.645  0.2449 -0.0501  1.4423
13449SOL     OW41562   5.425   8.339   3.799  0.1473 -0.1641 -0.3002
13449SOL    HW141563   5.371   8.418   3.805  2.1411  1.2701 -0.2157
13449SOL    HW241564   5.415   8.310   3.708 -2.5769 -1.3726  0.2935
13450SOL     OW41565   3.846   7.412   2.351 -0.1422 -0.1818  0.0524
13450SOL    HW141566   3.762   7.446   2.317 -0.3148  0.4811  1.1107
13450SOL    HW241567   3.820   7.348   2.417  0.1090  1.9046  2.2966
13451SOL     OW41568   5.265   7.588   2.283 -0.0606  0.3541 -0.0796
13451SOL    HW141569   5.349   7.585   2.328  0.5796  2.2303 -1.0578
13451SOL    HW241570   5.203   7.616   2.351  0.3062  0.0511  0.3810
13452SOL     OW41571   4.381   8.098   2.861 -0.2612 -0.3750  0.4663
13452SOL    HW141572   4.429   8.181   2.860  0.8062 -0.9777 -0.5043
13452SOL    HW241573   4.292   8.122   2.887  0.2292  0.9548  1.0096
13453SOL     OW41574   5.780   0.130   3.135 -0.1188  0.2481  0.0472
13453SOL    HW141575   5.868   0.139   3.098  0.2811  1.1764  1.1485
13453SOL    HW241576   5.792   0.077   3.213 -0.7968 -0.8461 -0.5549
13454SOL     OW41577   4.045   8.511   3.727  0.0526  0.6540 -0.4585
13454SOL    HW141578   4.127   8.470   3.755 -0.5387  0.4048  0.9866
13454SOL    HW241579   4.028   8.578   3.792 -1.5823 -0.2160  0.0635
13455SOL     OW41580   5.565   7.901   2.107 -0.1218  0.1366  0.7908
13455SOL    HW141581   5.595   7.810   2.107  1.5270  0.6385 -0.5995
13455SOL    HW241582   5.546   7.921   2.016 -0.1268  1.3073  1.0303
13456SOL     OW41583   4.749   8.804   1.620 -0.5424  0.1105 -0.1759
13456SOL    HW141584   4.767   8.712   1.639 -0.6262 -0.1644 -1.3963
13456SOL    HW241585   4.832   8.838   1.587 -0.8856  0.1204 -1.0349
13457SOL     OW41586   4.114   8.089   2.906  0.4532 -0.6298  0.4693
13457SOL    HW141587   4.069   8.007   2.925  0.2585 -0.9438 -1.1979
13457SOL    HW241588   4.092   8.108   2.814  1.7792  0.4564  0.3411
13458SOL     OW41589   3.961   7.864   2.918 -0.2506 -0.3679 -0.3152
13458SOL    HW141590   3.883   7.918   2.906  0.1345 -0.1325 -2.0469
13458SOL    HW241591   3.929   7.782   2.956 -1.3221 -0.2241 -0.8910
13459SOL     OW41592   4.845   7.744   3.495 -0.2495  0.1813 -0.2651
13459SOL    HW141593   4.832   7.657   3.531 -2.9440  0.4746 -0.3144
13459SOL    HW241594   4.908   7.786   3.553 -1.4558 -0.7057  1.7732
13460SOL     OW41595   4.862   7.933   3.241 -0.3314  0.1117 -0.0292
13460SOL    HW141596   4.856   7.884   3.323 -0.2272 -0.6854 -0.4934
13460SOL    HW241597   4.878   8.023   3.269  1.4257 -0.4153  0.8032
13461SOL     OW41598   3.728   8.409   2.126  0.2686  0.2828  0.0756
13461SOL    HW141599   3.712   8.428   2.034 -0.3777 -0.2666  0.0637
13461SOL    HW241600   3.643   8.424   2.169 -0.6443 -3.3901 -0.0975
13462SOL     OW41601   4.592   7.653   2.870 -0.0626 -0.1559 -0.0449
13462SOL    HW141602   4.581   7.734   2.919  1.4829 -0.3235  0.6533
13462SOL    HW241603   4.585   7.584   2.936  0.7489 -0.4538 -0.2519
13463SOL     OW41604   3.278   7.879   3.187 -0.0430  0.2148 -0.4949
13463SOL    HW141605   3.327   7.956   3.156 -3.2964  3.3603  1.4155
13463SOL    HW241606   3.253   7.833   3.107  3.0307  0.2876 -1.6453
13464SOL     OW41607   3.893   7.931   3.306 -0.4797  0.3490  0.6826
13464SOL    HW141608   3.879   8.015   3.264  1.0907  0.4959  0.3923
13464SOL    HW241609   3.809   7.885   3.298 -0.5793  0.8346 -1.5758
13465SOL     OW41610   5.183   7.914   2.785 -0.2882 -0.1732 -0.2573
13465SOL    HW141611   5.111   7.915   2.848 -0.4983  0.5746 -0.5051
13465SOL    HW241612   5.195   8.006   2.761 -0.2575 -0.4596 -1.3659
13466SOL     OW41613   4.302   7.815   1.796 -0.4290 -0.5305 -0.7485
13466SOL    HW141614   4.373   7.817   1.860 -0.7417 -0.4797 -0.3976
13466SOL    HW241615   4.306   7.900   1.753 -1.7922  0.4732  0.9675
13467SOL     OW41616   5.032   7.585   2.994  0.3534  0.0597 -0.3471
13467SOL    HW141617   4.998   7.569   2.906  3.3365 -1.4213 -1.3604
13467SOL    HW241618   4.981   7.527   3.051 -0.7075  0.0492 -1.2803
13468SOL     OW41619   4.315   7.507   3.040  0.5908  0.0134 -0.0728
13468SOL    HW141620   4.371   7.576   3.076 -0.8011  1.3262 -0.3124
13468SOL    HW241621   4.336   7.430   3.093  0.1652  1.3291  2.1723
13469SOL     OW41622   4.282   7.587   2.227 -0.2168  0.0878 -0.4630
13469SOL    HW141623   4.265   7.655   2.292  1.4313  0.0860  0.0309
13469SOL    HW241624   4.256   7.626   2.143  1.0978  1.5247 -0.2471
13470SOL     OW41625   3.983   8.618   3.316 -0.2103 -0.5274  0.3346
13470SOL    HW141626   4.017   8.565   3.388 -1.1016 -0.6162  0.7057
13470SOL    HW241627   4.059   8.635   3.260  0.1898 -1.7934  0.4538
13471SOL     OW41628   4.776   8.362   2.611 -0.3198 -0.4100 -0.1454
13471SOL    HW141629   4.744   8.272   2.609  0.0483 -0.5761  1.0648
13471SOL    HW241630   4.869   8.355   2.587 -0.1213 -0.4403  0.6154
13472SOL     OW41631   5.282   7.857   2.077 -0.0200  0.1461  0.2658
13472SOL    HW141632   5.229   7.785   2.110  1.8732 -1.9416 -0.8966
13472SOL    HW241633   5.369   7.842   2.115  0.4190  1.8396  0.0009
13473SOL     OW41634   3.689   8.429   2.949 -0.5155 -0.4616  0.1876
13473SOL    HW141635   3.709   8.444   3.042  1.2766 -0.2268 -0.1933
13473SOL    HW241636   3.626   8.357   2.949 -0.9727 -0.0818  1.6124
13474SOL     OW41637   5.771   7.778   2.374  0.0029  0.5074  0.0591
13474SOL    HW141638   5.676   7.786   2.375 -0.0819 -0.1435 -1.2178
13474SOL    HW241639   5.789   7.690   2.406  0.1457  0.4045 -0.3032
13475SOL     OW41640   5.125   8.211   2.423 -0.1819  0.0472  0.1814
13475SOL    HW141641   5.204   8.200   2.371  0.0861  2.1531  0.0548
13475SOL    HW241642   5.073   8.133   2.405  1.2766 -0.7556 -0.7505
13476SOL     OW41643   4.651   8.382   3.107  0.0094 -0.2103  0.4363
13476SOL    HW141644   4.644   8.292   3.138  1.4810 -0.6368 -0.3995
13476SOL    HW241645   4.705   8.426   3.173  0.7412 -0.3909 -0.0348
13477SOL     OW41646   5.481   7.470   2.643  0.1360 -0.7694  0.2762
13477SOL    HW141647   5.406   7.516   2.679 -0.8195 -1.5947 -0.5920
13477SOL    HW241648   5.447   7.384   2.619  1.1661 -0.8826 -0.8596
13478SOL     OW41649   3.934   7.629   2.619 -0.1255  0.1166  0.2895
13478SOL    HW141650   3.988   7.554   2.594 -1.8038 -1.1985  0.5055
13478SOL    HW241651   3.998   7.696   2.644  1.4128 -1.3202  0.4106
13479SOL     OW41652   4.623   8.136   3.271  0.4371  0.2973 -0.2698
13479SOL    HW141653   4.609   8.043   3.287  2.9729  0.0837  1.2118
13479SOL    HW241654   4.658   8.170   3.353 -2.1143  3.0480 -0.1161
13480SOL     OW41655   4.844   8.051   1.886  0.0678 -0.2967  0.3389
13480SOL    HW141656   4.882   8.020   1.803 -0.1631 -0.2986  0.2326
13480SOL    HW241657   4.794   7.977   1.919 -0.2704 -0.1270  0.2163
13481SOL     OW41658   3.675   8.413   3.499  0.4673 -0.0567  0.9016
13481SOL    HW141659   3.601   8.464   3.532  1.2494  1.0730  0.9620
13481SOL    HW241660   3.724   8.388   3.578  1.3543  1.1045  0.7320
13482SOL     OW41661   5.262   8.370   3.212  0.5217 -0.0269 -0.0297
13482SOL    HW141662   5.201   8.441   3.193  0.1133 -0.5885 -0.8580
13482SOL    HW241663   5.207   8.293   3.224  1.1128 -0.8471 -2.2384
13483SOL     OW41664   4.640   8.613   2.641 -0.0462 -0.1554 -0.5020
13483SOL    HW141665   4.679   8.527   2.628 -1.2571 -0.8053 -0.0131
13483SOL    HW241666   4.573   8.599   2.708 -0.8677  0.9770 -1.0551
13484SOL     OW41667   4.591   7.704   2.608  0.2748 -0.2291  0.2778
13484SOL    HW141668   4.568   7.682   2.698  0.7993  1.9339  0.9788
13484SOL    HW241669   4.632   7.625   2.574 -0.4850 -1.2904  1.7143
13485SOL     OW41670   5.468   8.167   3.241  0.5597 -0.2066 -0.1122
13485SOL    HW141671   5.420   8.223   3.302 -0.9141  0.1487 -1.5325
13485SOL    HW241672   5.434   8.079   3.258 -1.3351  0.1510 -1.6818
13486SOL     OW41673   4.048   8.315   3.211 -0.3130 -0.0663 -0.0664
13486SOL    HW141674   4.120   8.253   3.201  0.4423  0.4083  1.9422
13486SOL    HW241675   4.090   8.399   3.231 -1.3829  0.5308 -0.2104
13487SOL     OW41676   4.493   7.334   2.824  0.0063  0.4722 -0.4640
13487SOL    HW141677   4.536   7.283   2.893 -1.4669 -0.1629  0.0189
13487SOL    HW241678   4.469   7.416   2.867 -1.1413 -0.0260 -0.1279
13488SOL     OW41679   3.648   8.196   1.960 -0.6157 -0.1932 -0.4613
13488SOL    HW141680   3.659   8.250   2.039 -0.3559 -2.0240  0.8302
13488SOL    HW241681   3.720   8.134   1.963 -0.6896 -0.4011 -2.1042
13489SOL     OW41682   5.185   8.397   2.903 -0.7841  0.3990  0.4982
13489SOL    HW141683   5.168   8.325   2.842 -1.2213  1.8964 -1.2529
13489SOL    HW241684   5.104   8.405   2.954 -0.8658 -0.1116  0.4490
13490SOL     OW41685   3.619   7.468   2.098 -0.2918 -0.0523 -0.1168
13490SOL    HW141686   3.643   7.560   2.094  1.6299 -0.2374  3.0740
13490SOL    HW241687   3.668   7.427   2.027 -0.0118  1.1825 -0.6556
13491SOL     OW41688   4.123   8.430   3.469 -0.6756  0.2861 -0.1469
13491SOL    HW141689   4.218   8.442   3.470 -0.7449  1.0543 -1.0603
13491SOL    HW241690   4.094   8.455   3.557 -0.1896  1.5259 -0.3280
13492SOL     OW41691   4.744   7.518   3.628 -0.2265  0.4923 -0.0870
13492SOL    HW141692   4.660   7.481   3.602 -0.6132  0.2512  1.3965
13492SOL    HW241693   4.791   7.444   3.667  0.9692  0.4598 -1.5396
13493SOL     OW41694   5.087   8.054   3.416 -0.3687  0.6759  0.0652
13493SOL    HW141695   5.129   7.969   3.429 -1.3885  0.1758  0.1957
13493SOL    HW241696   5.105   8.076   3.325 -1.1409 -0.2913 -0.3495
13494SOL     OW41697   4.756   8.257   2.880 -0.0547 -0.0460  0.0862
13494SOL    HW141698   4.747   8.304   2.797  1.8679  0.4836  0.1352
13494SOL    HW241699   4.745   8.324   2.948  0.2057 -0.1324  0.2145
13495SOL     OW41700   4.989   7.787   2.194 -0.0918  0.1956 -0.3261
13495SOL    HW141701   4.917   7.749   2.244  0.9527 -0.1896  0.9635
13495SOL    HW241702   4.994   7.877   2.225  0.6144 -0.0685  0.3544
13496SOL     OW41703   4.392   8.050   2.325  0.3607 -0.5296 -0.9267
13496SOL    HW141704   4.423   8.062   2.415  0.1390 -0.2228 -0.8889
13496SOL    HW241705   4.470   8.021   2.277  0.5475 -0.4210 -0.6930
13497SOL     OW41706   6.072   7.535   3.815  0.5817  0.7754  0.7777
13497SOL    HW141707   6.065   7.501   3.904  0.1046  0.1052  0.4895
13497SOL    HW241708   6.070   7.630   3.826  0.7039  0.7025  1.4950
13498SOL     OW41709   5.525   8.459   3.287 -0.6717 -0.0870 -0.2305
13498SOL    HW141710   5.523   8.555   3.279 -1.0298 -0.1637 -1.1840
13498SOL    HW241711   5.447   8.430   3.240  0.3479 -0.9413 -1.4351
13499SOL     OW41712   4.320   0.036   2.431 -0.3869 -0.4100  0.7810
13499SOL    HW141713   4.350   0.126   2.438  0.0786 -0.4150 -0.7255
13499SOL    HW241714   4.246   0.030   2.492  0.1565  0.7112  1.5831
13500SOL     OW41715   4.297   7.940   3.117  0.3989  0.4124 -0.4003
13500SOL    HW141716   4.241   8.011   3.084  0.0397 -1.5621 -4.7157
13500SOL    HW241717   4.379   7.951   3.069  0.4593 -1.7956 -0.9056
13501SOL     OW41718   4.525   8.797   2.066 -0.1894  0.4315  0.0270
13501SOL    HW141719   4.550   8.885   2.038 -0.8135  1.5274  2.5761
13501SOL    HW241720   4.608   8.755   2.089 -0.0090  0.9797  0.3997
13502SOL     OW41721   4.033   0.418   3.492  0.4754 -0.0334  0.7267
13502SOL    HW141722   4.128   0.409   3.486  0.3572 -0.4354 -1.2761
13502SOL    HW241723   4.019   0.487   3.557  2.1062 -0.2916  1.3914
13503SOL     OW41724   3.933   8.606   2.525  0.4056 -0.0889  0.2285
13503SOL    HW141725   3.868   8.616   2.455  1.5617  1.9466 -0.6690
13503SOL    HW241726   3.905   8.530   2.574 -3.6306  1.6124  0.9246
13504SOL     OW41727   4.351   8.439   3.299  0.1401 -0.4493 -0.2460
13504SOL    HW141728   4.292   8.514   3.291 -0.3168 -0.9702 -2.2146
13504SOL    HW241729   4.438   8.475   3.279  0.4620  0.1616  1.9409
13505SOL     OW41730   5.463   7.200   2.611  0.4835  0.4449  0.5146
13505SOL    HW141731   5.510   7.135   2.558 -1.1050  0.1637 -0.6425
13505SOL    HW241732   5.401   7.148   2.663 -0.4596  0.9762 -0.0588
13506SOL     OW41733   3.832   7.797   2.360 -0.0563  0.1809 -0.2831
13506SOL    HW141734   3.844   7.709   2.396 -1.1531  0.0742 -0.1473
13506SOL    HW241735   3.885   7.797   2.280 -0.6684 -0.8785 -0.7190
13507SOL     OW41736   5.332   8.610   2.867  0.2607  0.0805  0.1440
13507SOL    HW141737   5.266   8.542   2.883 -0.7705  1.0001 -0.1073
13507SOL    HW241738   5.355   8.643   2.954 -0.0986  0.2074  0.1917
13508SOL     OW41739   4.132   7.715   3.171 -0.1417 -0.3968  0.3235
13508SOL    HW141740   4.137   7.809   3.153 -0.7591 -0.6187 -1.1942
13508SOL    HW241741   4.215   7.680   3.141 -0.0712 -0.3965  0.5156
13509SOL     OW41742   5.360   7.362   2.912  0.6263  0.7161 -0.3946
13509SOL    HW141743   5.271   7.339   2.885  0.4305  1.8968 -0.8052
13509SOL    HW241744   5.416   7.312   2.853  0.2555 -0.1602 -0.0318
13510SOL     OW41745   4.351   7.297   2.605  0.0517 -0.1691 -0.3672
13510SOL    HW141746   4.403   7.313   2.684 -0.2608  0.7268 -0.3330
13510SOL    HW241747   4.415   7.273   2.538  0.3272 -0.8451  0.1304
13511SOL     OW41748   4.610   0.025   2.607  0.1949  0.0040  0.2407
13511SOL    HW141749   4.649  -0.062   2.615  0.4844  0.1225  0.1399
13511SOL    HW241750   4.602   0.039   2.513 -1.2942 -0.5415  0.2565
13512SOL     OW41751   4.959   7.922   1.681  0.2965 -0.4290 -0.1419
13512SOL    HW141752   4.956   7.895   1.589  0.6806 -0.8898 -0.0240
13512SOL    HW241753   5.052   7.934   1.699  0.1255  1.6133 -0.3572
13513SOL     OW41754   4.758   8.072   2.580 -0.2401 -0.0820 -0.2328
13513SOL    HW141755   4.788   8.060   2.670  1.2167 -0.9877 -0.8022
13513SOL    HW241756   4.669   8.037   2.580 -1.0080  1.6830  1.2617
13514SOL     OW41757   4.845   7.400   2.816 -0.3632 -0.0772  0.2100
13514SOL    HW141758   4.814   7.326   2.763  2.5323 -2.2189  1.2380
13514SOL    HW241759   4.793   7.395   2.897 -0.1923 -1.0224  0.2704
13515SOL     OW41760   3.743   8.691   2.292  0.2321 -0.1300 -0.2619
13515SOL    HW141761   3.705   8.607   2.266 -0.2537 -0.0068  0.0322
13515SOL    HW241762   3.686   8.757   2.251 -0.5381  0.0647  1.0793
13516SOL     OW41763   3.622   7.925   4.086  0.0793  0.3201  0.1622
13516SOL    HW141764   3.679   7.866   4.135 -0.5473  0.2181  0.8003
13516SOL    HW241765   3.681   7.979   4.035  0.7771  0.5855  1.2150
13517SOL     OW41766   3.721   7.789   4.712 -0.0434  0.4169 -0.3744
13517SOL    HW141767   3.694   7.801   4.621  0.3812 -0.4388 -0.6266
13517SOL    HW241768   3.639   7.787   4.762 -0.3732 -0.5507 -0.9270
13518SOL     OW41769   3.638   7.428   4.772  0.0092  0.5163 -0.1039
13518SOL    HW141770   3.625   7.492   4.702 -0.7809 -0.3177 -0.7572
13518SOL    HW241771   3.714   7.377   4.744 -1.0031 -0.5689 -0.9767
13519SOL     OW41772   3.846   8.689   4.775  0.1824 -0.1432 -0.3295
13519SOL    HW141773   3.901   8.740   4.835 -0.1584 -0.0082 -0.1321
13519SOL    HW241774   3.771   8.746   4.757 -0.4296 -0.7545  0.2562
13520SOL     OW41775   4.829   8.840   4.082 -0.9319 -0.4269 -0.3570
13520SOL    HW141776   4.844   8.761   4.135 -0.8073 -0.2621 -0.1486
13520SOL    HW241777   4.734   8.851   4.082 -0.8837  0.0751  0.5641
13521SOL     OW41778   4.803   8.585   4.217  0.0093  0.6110  0.5599
13521SOL    HW141779   4.864   8.585   4.290 -1.0996  1.0167  1.5348
13521SOL    HW241780   4.716   8.579   4.258 -0.7143  2.0090 -0.6454
13522SOL     OW41781   5.780   7.643   3.868  0.0275 -0.4160 -0.3378
13522SOL    HW141782   5.823   7.602   3.942 -1.3847 -0.2251  0.6365
13522SOL    HW241783   5.751   7.728   3.901 -0.9142 -0.4659 -0.9921
13523SOL     OW41784   4.558   8.518   5.036  0.0241  0.0371  0.5314
13523SOL    HW141785   4.533   8.608   5.017  1.0045 -0.1064 -1.7915
13523SOL    HW241786   4.476   8.474   5.057 -0.4985  1.3773  1.4396
13524SOL     OW41787   4.408   7.811   5.655 -0.0407  0.2294 -0.5042
13524SOL    HW141788   4.394   7.826   5.748 -2.9761  0.7629 -0.9548
13524SOL    HW241789   4.422   7.899   5.618  0.5473  0.0697 -0.6856
13525SOL     OW41790   4.328   8.176   4.510 -0.2215  0.3199 -0.3307
13525SOL    HW141791   4.278   8.104   4.472  0.7934 -0.9897  0.6938
13525SOL    HW241792   4.293   8.184   4.599 -0.7687  1.5480 -0.6471
13526SOL     OW41793   4.208   8.429   5.584  0.4409  0.0274 -0.1701
13526SOL    HW141794   4.268   8.464   5.651 -0.4272 -1.6721  1.5802
13526SOL    HW241795   4.257   8.357   5.544 -0.1575 -0.9898  0.8647
13527SOL     OW41796   4.033   8.510   4.634 -0.1411  0.4595  0.0031
13527SOL    HW141797   4.123   8.533   4.660  0.0386 -1.6904  1.4971
13527SOL    HW241798   3.978   8.554   4.698 -0.0500  0.3817  0.1364
13528SOL     OW41799   4.204   7.677   5.317  0.4200 -0.4762  0.4866
13528SOL    HW141800   4.146   7.617   5.269 -1.1932 -1.5156  3.5053
13528SOL    HW241801   4.283   7.625   5.333  0.7596 -0.2956 -0.5193
13529SOL     OW41802   5.614   8.500   4.669 -0.0362 -0.1279  0.4496
13529SOL    HW141803   5.532   8.530   4.709 -0.4405  0.3629 -0.7102
13529SOL    HW241804   5.619   8.407   4.691 -1.3069 -0.3492 -0.1331
13530SOL     OW41805   4.970   8.431   5.784 -0.2095 -0.2425 -0.4257
13530SOL    HW141806   4.940   8.490   5.854  0.1485  0.5447 -0.9245
13530SOL    HW241807   5.024   8.486   5.728  1.5585 -1.4344  0.0089
13531SOL     OW41808   3.919   8.284   4.511 -0.1460  0.2390  0.2283
13531SOL    HW141809   3.870   8.260   4.590  0.3863 -1.1969  0.1463
13531SOL    HW241810   3.977   8.354   4.540  2.3550 -2.3438  2.0246
13532SOL     OW41811   3.959   8.717   3.913 -0.2222  0.8727 -0.4307
13532SOL    HW141812   3.978   8.750   4.001  0.0605 -0.0019 -0.1542
13532SOL    HW241813   3.989   8.786   3.854 -0.2397  1.3858  0.1503
13533SOL     OW41814   5.116   7.234   4.864 -0.1063 -0.5700  0.2523
13533SOL    HW141815   5.143   7.223   4.773  4.2265 -1.2373  1.3760
13533SOL    HW241816   5.130   7.327   4.882 -2.6747 -0.0428 -0.1031
13534SOL     OW41817   3.615   7.555   4.506 -0.3992 -0.9094 -0.1944
13534SOL    HW141818   3.655   7.638   4.478  2.5106 -1.6427  1.3946
13534SOL    HW241819   3.616   7.500   4.428 -0.7076 -0.0627 -0.8097
13535SOL     OW41820   5.363   8.141   3.961  0.7556  0.1195  0.8413
13535SOL    HW141821   5.407   8.223   3.943  0.1427  0.3564  0.3848
13535SOL    HW241822   5.294   8.136   3.895  1.6470 -1.4216 -0.0340
13536SOL     OW41823   5.350   8.240   4.518  0.4732 -0.8211  0.6113
13536SOL    HW141824   5.439   8.263   4.546  0.1904 -0.7732  1.5062
13536SOL    HW241825   5.361   8.204   4.430  1.2851 -0.0989  0.4017
13537SOL     OW41826   3.570   8.718   5.059 -0.1564 -0.0479 -0.2725
13537SOL    HW141827   3.508   8.675   5.000 -1.0134 -0.9014  1.1954
13537SOL    HW241828   3.551   8.811   5.050 -0.2278 -0.1584 -1.3742
13538SOL     OW41829   4.072   0.185   4.645  0.0917  0.3279 -0.3493
13538SOL    HW141830   4.022   0.126   4.589  0.6699  0.3959 -0.9575
13538SOL    HW241831   4.038   0.170   4.733  0.3338 -1.0179 -0.4684
13539SOL     OW41832   4.708   8.115   5.412  0.0905  0.3606  0.1531
13539SOL    HW141833   4.686   8.197   5.367  1.1044 -0.0697 -1.1699
13539SOL    HW241834   4.723   8.141   5.503 -1.2747  1.3604  0.1326
13540SOL     OW41835   4.407   7.519   3.973  0.0580 -0.1478 -0.2905
13540SOL    HW141836   4.411   7.590   3.910 -0.8375  0.6802  0.5505
13540SOL    HW241837   4.383   7.561   4.055  0.2553 -1.3269  0.3930
13541SOL     OW41838   4.241   8.126   4.766  0.4296  0.3968 -0.4012
13541SOL    HW141839   4.165   8.161   4.812  1.0320  0.4743  0.5510
13541SOL    HW241840   4.302   8.099   4.835  1.7577  1.3943 -1.1239
13542SOL     OW41841   5.390   8.650   4.201 -0.2427 -0.0942  0.2505
13542SOL    HW141842   5.480   8.685   4.205 -0.0125 -0.7253  0.8647
13542SOL    HW241843   5.384   8.610   4.115 -0.1897  0.6053 -0.0899
13543SOL     OW41844   3.624   7.623   5.295  0.1938 -0.0836  0.0029
13543SOL    HW141845   3.661   7.548   5.341  0.7951  0.1308 -0.1161
13543SOL    HW241846   3.689   7.645   5.229  0.0094  0.5213  0.0133
13544SOL     OW41847   5.276   8.478   4.645  0.0893 -0.0715  0.4668
13544SOL    HW141848   5.266   8.412   4.576 -2.0272 -0.1247  0.7526
13544SOL    HW241849   5.186   8.503   4.667  0.8044  2.5879  0.6985
13545SOL     OW41850   4.272   8.353   3.763  0.4929 -0.0137 -0.1734
13545SOL    HW141851   4.365   8.369   3.749  0.6233  0.9704  1.5601
13545SOL    HW241852   4.264   8.257   3.765  1.0788 -0.1751 -2.3736
13546SOL     OW41853   5.124   7.363   4.283  0.2156 -0.0928 -0.4757
13546SOL    HW141854   5.089   7.341   4.196  0.2486 -0.5420 -0.3790
13546SOL    HW241855   5.196   7.301   4.296 -0.2938 -0.5574  0.2051
13547SOL     OW41856   4.388   7.692   4.976 -0.1095 -0.4792  0.2563
13547SOL    HW141857   4.333   7.751   5.027 -1.1740 -0.1947 -1.1640
13547SOL    HW241858   4.462   7.672   5.033 -0.0819  1.6644  1.0322
13548SOL     OW41859   4.958   8.035   5.444 -0.0083  0.1751 -0.1349
13548SOL    HW141860   4.918   7.975   5.506 -0.9602  0.5714 -0.3475
13548SOL    HW241861   4.885   8.069   5.392  0.4340  1.8055  0.2319
13549SOL     OW41862   4.750   7.765   5.192 -0.1332 -0.3895  0.2113
13549SOL    HW141863   4.686   7.699   5.165 -1.7776 -0.0660  2.8870
13549SOL    HW241864   4.821   7.716   5.233 -0.4138 -0.5932  0.4528
13550SOL     OW41865   4.482   7.301   4.790 -0.2552  0.4803  0.2867
13550SOL    HW141866   4.431   7.382   4.787 -0.2957  0.4468  0.0043
13550SOL    HW241867   4.445   7.247   4.721  3.2599  2.3618 -3.5803
13551SOL     OW41868   5.164   7.872   3.913  0.1517  0.1276 -0.3461
13551SOL    HW141869   5.173   7.887   3.819  0.1629  0.6325 -0.2698
13551SOL    HW241870   5.121   7.787   3.920 -0.3231  0.3250 -0.8202
13552SOL     OW41871   3.630   7.835   4.462 -0.7254  0.0321  0.1123
13552SOL    HW141872   3.704   7.845   4.403 -0.4531 -0.9747  0.2648
13552SOL    HW241873   3.554   7.860   4.410 -0.3626  0.2693 -0.3054
13553SOL     OW41874   4.398   7.822   3.868 -0.0092  0.4651  0.0987
13553SOL    HW141875   4.486   7.788   3.852  0.0589  0.8377 -0.3223
13553SOL    HW241876   4.340   7.757   3.828  0.1355  1.0600 -1.1220
13554SOL     OW41877   5.220   7.864   5.385  0.1985 -0.4011 -0.8237
13554SOL    HW141878   5.223   7.885   5.479  0.9430  0.2045 -0.9750
13554SOL    HW241879   5.136   7.900   5.355 -1.0568 -2.4247  0.0066
13555SOL     OW41880   4.553   8.498   4.310 -0.0088  0.5198  0.4437
13555SOL    HW141881   4.571   8.404   4.314  1.7949  0.7508 -0.7345
13555SOL    HW241882   4.478   8.511   4.367  0.1469 -1.5278  1.1954
13556SOL     OW41883   4.248   7.362   4.485 -0.3186 -0.0094  0.0690
13556SOL    HW141884   4.321   7.411   4.447  0.5913 -2.3087 -1.3674
13556SOL    HW241885   4.188   7.429   4.518  2.3973  1.9862  1.3276
13557SOL     OW41886   5.269   8.801   4.635  0.1002  0.0743  0.2227
13557SOL    HW141887   5.268   8.709   4.662  1.2309 -0.1874 -0.5354
13557SOL    HW241888   5.350   8.810   4.585 -0.0740  1.4548  0.1569
13558SOL     OW41889   4.023   8.320   4.026  0.0270 -0.0683 -0.2246
13558SOL    HW141890   4.074   8.267   3.965  0.4599  1.3401 -1.1535
13558SOL    HW241891   4.017   8.267   4.106 -1.3676 -2.3913 -1.7584
13559SOL     OW41892   4.928   8.270   4.562 -0.1606  0.4574 -0.1856
13559SOL    HW141893   4.947   8.248   4.471 -0.9797  0.8373 -0.4648
13559SOL    HW241894   4.872   8.199   4.592  0.0638  0.3612  0.0065
13560SOL     OW41895   4.385   8.235   5.498 -0.4266 -0.3871  0.4128
13560SOL    HW141896   4.459   8.253   5.441  1.6039 -3.7951  1.6019
13560SOL    HW241897   4.339   8.163   5.455 -0.9193 -0.6540  1.3622
13561SOL     OW41898   3.828   7.617   5.089  0.3487 -0.2911  0.2112
13561SOL    HW141899   3.779   7.546   5.048  0.8186  0.4268 -1.6909
13561SOL    HW241900   3.917   7.582   5.098  0.7628  0.2321 -1.3996
13562SOL     OW41901   5.297   8.593   3.857  0.2906  0.3251  0.0081
13562SOL    HW141902   5.268   8.591   3.766 -0.1129 -0.6266  0.1372
13562SOL    HW241903   5.229   8.642   3.903 -0.1095 -0.1904 -0.0221
13563SOL     OW41904   5.434   7.122   4.059  0.2200 -0.0843  0.0246
13563SOL    HW141905   5.460   7.211   4.035  0.3560 -0.4683 -1.3057
13563SOL    HW241906   5.391   7.132   4.144 -0.7485  1.4047 -0.5982
13564SOL     OW41907   3.900   8.056   4.071  0.3347  0.3214  0.3700
13564SOL    HW141908   3.867   8.086   3.986 -1.5952 -1.5735  0.3720
13564SOL    HW241909   3.945   7.974   4.052 -0.1757 -0.1579  1.1694
13565SOL     OW41910   4.992   7.628   5.303  0.5113 -0.3093 -0.4038
13565SOL    HW141911   5.032   7.679   5.374  0.0622 -0.3725 -0.0989
13565SOL    HW241912   5.045   7.548   5.298  1.6648  0.4915 -1.3676
13566SOL     OW41913   4.642   7.700   3.812  0.4584  0.2656  0.5019
13566SOL    HW141914   4.659   7.649   3.732  2.6410  0.6620  0.6601
13566SOL    HW241915   4.704   7.666   3.876 -1.3733 -0.1743  2.1557
13567SOL     OW41916   4.757   7.240   5.282 -0.0882 -0.4837  0.2192
13567SOL    HW141917   4.808   7.319   5.265  0.2058 -0.9796 -1.3066
13567SOL    HW241918   4.796   7.203   5.362  2.5142 -1.2299 -1.2824
13568SOL     OW41919   4.816   7.988   4.637  0.0823 -0.0424 -0.2456
13568SOL    HW141920   4.733   8.000   4.683  0.7182  1.1920  0.6402
13568SOL    HW241921   4.791   7.965   4.548 -1.1967 -2.4833  0.6392
13569SOL     OW41922   4.355   7.707   4.168  0.0878  0.3984 -0.0872
13569SOL    HW141923   4.386   7.797   4.178  0.6069  0.1384  0.7897
13569SOL    HW241924   4.381   7.664   4.250 -3.1446  0.2924  1.0216
13570SOL     OW41925   4.110   7.079   4.126 -0.4247 -0.2583  0.0836
13570SOL    HW141926   4.063   7.007   4.168 -1.2539 -0.3263 -0.9140
13570SOL    HW241927   4.157   7.038   4.054  0.0841  0.0288  0.2436
13571SOL     OW41928   4.243   8.523   3.996  0.2878 -0.0506  0.0258
13571SOL    HW141929   4.211   8.475   3.919  0.1499 -0.2205  0.1884
13571SOL    HW241930   4.227   8.464   4.069  1.0134 -0.1532  0.1077
13572SOL     OW41931   3.494   7.564   4.069 -0.2998 -0.1435 -0.0346
13572SOL    HW141932   3.528   7.522   4.148 -1.8435  0.7129  1.1554
13572SOL    HW241933   3.571   7.579   4.015  0.4033 -4.2482 -0.5005
13573SOL     OW41934   5.148   7.526   3.813  0.6217 -0.3386 -0.0973
13573SOL    HW141935   5.060   7.494   3.831  0.1996  0.4878 -0.6502
13573SOL    HW241936   5.178   7.473   3.739  0.0176  0.3725 -0.8577
13574SOL     OW41937   4.883   7.693   4.688  0.1304  0.1329 -0.2586
13574SOL    HW141938   4.794   7.685   4.723  0.7126  0.0908  1.2537
13574SOL    HW241939   4.882   7.775   4.639 -1.0155 -0.3742 -1.1303
13575SOL     OW41940   5.140   0.123   4.408 -0.3831 -0.0160 -0.5561
13575SOL    HW141941   5.185   0.121   4.493 -1.3436 -1.6170 -0.0384
13575SOL    HW241942   5.086   0.202   4.412  0.5511  0.6262 -0.2179
13576SOL     OW41943   3.993   8.197   4.278  0.6681 -0.3362  0.4576
13576SOL    HW141944   3.938   8.245   4.339  1.1751  2.3647 -1.0092
13576SOL    HW241945   3.933   8.140   4.230 -0.0917 -0.6806  1.7602
13577SOL     OW41946   4.716   8.025   3.753  0.3270  0.5777 -0.1602
13577SOL    HW141947   4.689   8.080   3.827  1.2842 -0.0937  0.7157
13577SOL    HW241948   4.707   7.935   3.786 -0.2726  0.2147 -1.2385
13578SOL     OW41949   3.498   8.173   4.780 -0.1236  0.0483 -0.8073
13578SOL    HW141950   3.583   8.134   4.758  0.4070  1.2347 -0.9278
13578SOL    HW241951   3.496   8.175   4.876 -0.1215 -0.1899 -0.8013
13579SOL     OW41952   4.107   7.658   4.923 -0.1087  0.5744  0.0850
13579SOL    HW141953   4.031   7.701   4.884 -0.2733  2.0372  1.8756
13579SOL    HW241954   4.171   7.729   4.935  0.9566 -0.3435  0.0394
13580SOL     OW41955   4.445   7.981   4.213 -0.3113 -0.3289  0.8370
13580SOL    HW141956   4.355   7.986   4.245 -0.2425 -2.6263  1.5841
13580SOL    HW241957   4.439   8.001   4.120 -1.3610  0.8563  1.1317
13581SOL     OW41958   4.572   7.429   4.191  0.3368 -0.1030 -0.0723
13581SOL    HW141959   4.533   7.422   4.104  0.7436 -1.0772 -0.1891
13581SOL    HW241960   4.619   7.347   4.203  0.1800 -0.0368  1.1285
13582SOL     OW41961   5.018   8.507   4.668  0.0804  0.3109 -0.3897
13582SOL    HW141962   5.006   8.412   4.669 -0.2921  0.2528 -3.2643
13582SOL    HW241963   4.946   8.540   4.614  1.1658  2.0400 -0.8583
13583SOL     OW41964   5.169   7.904   4.198 -0.7871 -0.7260  0.4505
13583SOL    HW141965   5.121   7.823   4.212 -0.4598 -1.0205 -0.1300
13583SOL    HW241966   5.177   7.912   4.103 -1.2890  0.2625  0.4735
13584SOL     OW41967   5.879   8.486   4.183 -0.3624  0.4878 -0.0141
13584SOL    HW141968   5.966   8.505   4.218 -0.6054  0.9019  0.3651
13584SOL    HW241969   5.833   8.442   4.255 -0.2880 -0.2371 -0.3959
13585SOL     OW41970   5.382   0.187   4.255 -0.6286  0.4981 -0.2279
13585SOL    HW141971   5.402   0.212   4.345  1.7497  1.1488 -0.8802
13585SOL    HW241972   5.312   0.122   4.263  0.6186 -0.6575  2.2199
13586SOL     OW41973   5.135   8.138   3.762 -0.1709  0.0119  0.1005
13586SOL    HW141974   5.140   8.233   3.753  0.2049 -0.1117 -1.2015
13586SOL    HW241975   5.073   8.124   3.833 -0.2618  1.2281  0.2865
13587SOL     OW41976   4.432   7.932   3.589  0.1560  0.1179  0.0212
13587SOL    HW141977   4.392   7.890   3.665 -0.5730 -0.5636 -0.7150
13587SOL    HW241978   4.382   7.899   3.515  1.4636  0.0175 -0.8454
13588SOL     OW41979   5.149   8.205   5.733  0.1970 -0.3385  0.2674
13588SOL    HW141980   5.122   8.206   5.641  1.5692  0.8091 -0.1641
13588SOL    HW241981   5.085   8.261   5.777 -0.6725 -1.1713  0.0955
13589SOL     OW41982   4.382   8.292   5.093 -0.1200  0.5536 -0.3652
13589SOL    HW141983   4.313   8.331   5.039  0.4670  0.1078 -1.4844
13589SOL    HW241984   4.393   8.204   5.057  0.3569  0.2743  0.4417
13590SOL     OW41985   4.657   8.375   4.606 -0.2972 -0.0521  0.5601
13590SOL    HW141986   4.691   8.347   4.521  2.6479 -0.7621  1.8457
13590SOL    HW241987   4.693   8.462   4.619  0.2148 -0.3982  1.5434
13591SOL     OW41988   4.982   7.919   4.889  0.1844 -0.1704  0.0805
13591SOL    HW141989   4.933   7.956   4.962  0.2511 -0.0292  0.0534
13591SOL    HW241990   4.937   7.951   4.811  1.4124  1.4909  0.0138
13592SOL     OW41991   4.680   7.355   4.511  0.6498  0.1735 -0.3589
13592SOL    HW141992   4.698   7.308   4.429 -1.5541 -0.5667 -0.4695
13592SOL    HW241993   4.672   7.287   4.577  1.7951  0.7314  0.4036
13593SOL     OW41994   4.543   7.894   5.348 -0.1679  0.1118  0.6349
13593SOL    HW141995   4.597   7.968   5.378  0.1695  0.0597  0.1603
13593SOL    HW241996   4.604   7.837   5.301 -0.9003  0.7303 -1.1264
13594SOL     OW41997   4.785   8.437   3.964  0.0260  0.4076 -0.4066
13594SOL    HW141998   4.794   8.491   4.042 -3.7132  1.9695 -0.8624
13594SOL    HW241999   4.708   8.384   3.980  1.8053 -2.6875 -1.2841
13595SOL     OW42000   3.929   7.879   4.848  0.3510 -0.3397 -0.0311
13595SOL    HW142001   3.908   7.962   4.892 -0.3728 -0.7139  0.3330
13595SOL    HW242002   3.849   7.855   4.803  0.7161 -0.5962 -0.5481
13596SOL     OW42003   5.225   7.354   4.623 -0.2346 -0.2771 -0.2334
13596SOL    HW142004   5.283   7.382   4.553 -0.0450 -0.9336 -0.3445
13596SOL    HW242005   5.145   7.404   4.609 -0.9666 -1.8813 -2.1623
13597SOL     OW42006   3.725   8.594   3.994 -0.1109 -0.1833 -0.2430
13597SOL    HW142007   3.816   8.616   3.974 -0.3231  1.3458  0.3427
13597SOL    HW242008   3.683   8.585   3.909  0.2912  0.4582 -0.5156
13598SOL     OW42009   3.933   7.847   3.865 -0.2506 -0.2335 -0.0738
13598SOL    HW142010   3.966   7.757   3.863  0.0328 -0.1539  0.7062
13598SOL    HW242011   3.861   7.848   3.801  1.3951 -0.3355 -2.0254
13599SOL     OW42012   4.453   0.239   4.252  0.7510  0.0532  0.1404
13599SOL    HW142013   4.504   0.247   4.171 -1.6379  3.0506 -1.2899
13599SOL    HW242014   4.398   0.162   4.239  1.6814 -0.5696 -0.2388
13600SOL     OW42015   5.025   8.094   4.330  0.3025  0.1737 -0.3468
13600SOL    HW142016   5.079   8.029   4.284  0.1648  0.2068 -0.5586
13600SOL    HW242017   5.050   8.177   4.290 -1.1437  0.0230 -1.6925
13601SOL     OW42018   4.385   8.084   5.734  0.1581 -0.1590  0.0839
13601SOL    HW142019   4.305   8.111   5.780 -0.5567 -1.8265 -0.1189
13601SOL    HW242020   4.370   8.106   5.643 -0.3876 -1.1431 -0.0687
13602SOL     OW42021   4.917   7.997   5.719  0.2353 -0.8397  0.1806
13602SOL    HW142022   4.830   7.958   5.712 -0.5485  0.2698  2.5830
13602SOL    HW242023   4.902   8.091   5.713  1.1417 -0.5979  1.2592
13603SOL     OW42024   4.467   7.200   5.751  0.1360  0.3489  0.5165
13603SOL    HW142025   4.490   7.118   5.706 -0.1113  0.8590 -0.5826
13603SOL    HW242026   4.542   7.257   5.736  1.1590 -0.2701  2.9189
13604SOL     OW42027   4.059   7.494   5.150 -0.3220  0.4412 -0.0672
13604SOL    HW142028   4.046   7.399   5.144 -1.5349  0.5177  0.9382
13604SOL    HW242029   4.096   7.519   5.066  0.8653 -1.0503 -0.0403
13605SOL     OW42030   4.547   8.206   4.338  0.7192 -0.4351 -0.0099
13605SOL    HW142031   4.542   8.126   4.285 -0.3151 -1.0734  1.0164
13605SOL    HW242032   4.482   8.193   4.407  1.6631  0.6102  1.1082
13606SOL     OW42033   4.655   7.647   4.518 -0.5210 -0.3756 -0.4747
13606SOL    HW142034   4.628   7.645   4.610 -2.8671  0.4754 -1.0757
13606SOL    HW242035   4.672   7.556   4.495 -0.8906 -0.7102  0.5375
13607SOL     OW42036   4.972   7.913   3.655  0.8344 -0.1945  0.6607
13607SOL    HW142037   4.915   7.974   3.702  1.4950  0.3953  0.7177
13607SOL    HW242038   5.052   7.963   3.639  0.8403 -0.5740 -0.5916
13608SOL     OW42039   3.905   7.562   4.713 -0.0477 -0.4149  0.0002
13608SOL    HW142040   3.858   7.638   4.747 -0.1387  0.0255 -1.0617
13608SOL    HW242041   3.892   7.493   4.778 -3.0731 -0.6632 -0.7361
13609SOL     OW42042   4.034   8.249   4.883 -0.2158  0.0370 -0.3856
13609SOL    HW142043   4.007   8.261   4.974  0.5146 -1.1809  0.0214
13609SOL    HW242044   4.086   8.327   4.863  0.2268 -0.0207  0.4881
13610SOL     OW42045   4.293   7.512   4.790  0.9382 -0.8179 -0.1903
13610SOL    HW142046   4.202   7.539   4.798  0.7817 -1.4587  0.2699
13610SOL    HW242047   4.341   7.572   4.847  0.5915 -1.4934  0.8374
13611SOL     OW42048   5.344   7.983   5.595  0.1868  0.4194 -0.7458
13611SOL    HW142049   5.291   8.043   5.647  0.1972  0.8164 -1.1893
13611SOL    HW242050   5.409   8.039   5.553  2.8219 -0.3428  1.9784
13612SOL     OW42051   4.011   7.500   4.463  0.4124 -0.1652 -0.1828
13612SOL    HW142052   3.967   7.531   4.542 -0.5939 -0.6824 -0.5233
13612SOL    HW242053   3.999   7.406   4.464  1.8885 -0.3769 -0.0915
13613SOL     OW42054   5.716   7.881   3.945  0.2963 -0.7175 -0.0918
13613SOL    HW142055   5.741   7.959   3.996 -0.4578 -0.7474  0.3398
13613SOL    HW242056   5.621   7.877   3.952  0.1338 -0.5795 -1.7313
13614SOL     OW42057   4.689   7.890   4.409 -0.2586 -0.2282  0.2696
13614SOL    HW142058   4.598   7.898   4.380 -0.1174 -0.9041 -0.3817
13614SOL    HW242059   4.692   7.806   4.455  0.2984 -0.7898 -0.7583
13615SOL     OW42060   5.570   8.595   5.915 -0.0510 -0.0243  0.2781
13615SOL    HW142061   5.603   8.597   5.825 -0.7015 -0.5712  0.0232
13615SOL    HW242062   5.540   8.505   5.928 -1.4287  0.4480  0.5076
13616SOL     OW42063   4.263   8.020   5.429 -0.3099 -0.0516  0.0149
13616SOL    HW142064   4.315   7.943   5.406 -1.2588 -0.5852 -0.3982
13616SOL    HW242065   4.173   7.992   5.420 -0.6975  1.4157 -1.2319
13617SOL     OW42066   5.651   7.488   3.690  0.0947  0.2208 -0.0892
13617SOL    HW142067   5.704   7.536   3.754 -0.3010 -0.5849  0.8512
13617SOL    HW242068   5.639   7.551   3.618  0.6264  1.1036  0.5694
13618SOL     OW42069   5.099   8.409   3.682  0.3482 -0.9821 -0.0485
13618SOL    HW142070   5.179   8.451   3.650  0.7161 -2.2337 -0.8475
13618SOL    HW242071   5.046   8.394   3.603 -0.3363 -0.8585  0.3797
13619SOL     OW42072   3.920   7.945   4.430  0.2350  0.6340  0.1002
13619SOL    HW142073   3.984   7.924   4.498 -1.5906  1.2046  2.1417
13619SOL    HW242074   3.887   8.031   4.455 -1.5472  0.2151 -0.6567
13620SOL     OW42075   4.070   7.641   4.208  0.4199 -0.4082 -0.4791
13620SOL    HW142076   4.066   7.585   4.286 -1.0534 -1.3841 -1.1910
13620SOL    HW242077   4.163   7.662   4.198  0.5157  0.9825  2.3348
13621SOL     OW42078   5.023   7.662   4.931 -0.5538 -0.6920 -0.0151
13621SOL    HW142079   4.997   7.657   4.839  0.6092  1.3117 -0.5317
13621SOL    HW242080   5.002   7.752   4.957 -1.2204 -1.3179  1.8317
13622SOL     OW42081   4.424   7.178   5.027 -0.3510 -0.2087  0.4461
13622SOL    HW142082   4.411   7.227   4.946 -0.2073  1.2384  1.2602
13622SOL    HW242083   4.408   7.087   5.003 -0.6616  0.2310 -1.1189
13623SOL     OW42084   3.644   0.085   3.861 -0.3833 -0.0371 -0.2993
13623SOL    HW142085   3.715   0.080   3.925 -2.5904  0.1124  2.3652
13623SOL    HW242086   3.636   0.179   3.841 -0.4069  0.0488  0.1105
13624SOL     OW42087   4.456   7.937   4.660  0.3822 -0.2419 -0.6148
13624SOL    HW142088   4.420   8.005   4.603 -0.7779 -0.1605  0.1821
13624SOL    HW242089   4.513   7.985   4.722 -0.7117  0.0857  0.1729
13625SOL     OW42090   3.741   8.444   4.809 -0.1652 -0.6532 -0.6566
13625SOL    HW142091   3.666   8.434   4.751 -0.9389  0.2495  0.1505
13625SOL    HW242092   3.778   8.529   4.784  0.7902 -1.2212 -1.2512
13626SOL     OW42093   3.920   8.292   5.114 -0.1614 -0.1336 -0.0394
13626SOL    HW142094   3.949   8.283   5.205  0.4879 -0.7308 -0.2972
13626SOL    HW242095   3.864   8.370   5.114 -0.8982 -0.6455  1.0501
13627SOL     OW42096   5.152   8.234   5.428 -0.0702 -0.0128 -0.3165
13627SOL    HW142097   5.091   8.160   5.438 -0.4897  0.0886 -1.8846
13627SOL    HW242098   5.208   8.209   5.355  2.1858 -0.3281  1.3904
13628SOL     OW42099   4.403   8.075   3.958  0.4000 -0.7110 -0.1928
13628SOL    HW142100   4.417   7.988   3.919  0.2451 -0.1283 -1.6247
13628SOL    HW242101   4.321   8.105   3.920  1.3367  0.7813 -1.1554
13629SOL     OW42102   5.407   7.670   4.836  0.6709 -0.0640 -0.1092
13629SOL    HW142103   5.432   7.672   4.743 -2.2783 -0.9019 -1.0434
13629SOL    HW242104   5.373   7.758   4.853  2.9020  0.7005  0.8153
13630SOL     OW42105   4.632   7.655   4.782  0.3438  0.1688 -0.0315
13630SOL    HW142106   4.551   7.702   4.803  0.3205  0.4754 -0.8020
13630SOL    HW242107   4.651   7.604   4.862 -1.4561 -1.1315 -0.3569
13631SOL     OW42108   4.154   8.085   3.813 -0.1973  0.3492  0.3169
13631SOL    HW142109   4.102   8.095   3.733  1.3003 -1.2327 -0.9456
13631SOL    HW242110   4.114   8.011   3.858 -0.2321  0.3738  0.3259
13632SOL     OW42111   3.816   8.205   4.750  0.4575 -0.0948  0.4734
13632SOL    HW142112   3.792   8.286   4.796  1.2208 -0.4689  1.5817
13632SOL    HW242113   3.896   8.176   4.794 -0.4415 -2.0796  0.9186
13633SOL     OW42114   4.752   7.995   5.041 -0.2486 -0.4765 -0.0843
13633SOL    HW142115   4.761   7.921   5.102  0.2302  0.2599  0.7690
13633SOL    HW242116   4.777   8.072   5.093 -0.4268  0.2503 -1.0455
13634SOL     OW42117   5.049   8.423   3.946  0.8154 -0.2322 -0.0089
13634SOL    HW142118   5.068   8.429   3.852  1.1138 -1.4285 -0.0453
13634SOL    HW242119   4.954   8.434   3.952  0.4912 -2.1680 -0.7071
13635SOL     OW42120   3.938   8.682   5.233  0.4780  0.4971  0.2583
13635SOL    HW142121   3.920   8.650   5.321  0.4029  1.0609  0.4504
13635SOL    HW242122   3.895   8.620   5.175  1.5025 -0.5472  0.5719
13636SOL     OW42123   5.339   8.144   4.253  0.2445 -0.2751  0.2677
13636SOL    HW142124   5.335   8.147   4.158  3.2519 -0.2417  0.0479
13636SOL    HW242125   5.275   8.078   4.278  0.1863 -1.0825 -1.8699
13637SOL     OW42126   5.087   8.339   4.225  0.2894 -0.3895 -0.0382
13637SOL    HW142127   5.090   8.366   4.134  1.3114 -1.1918 -0.2680
13637SOL    HW242128   5.100   8.419   4.275 -0.9477  0.1594 -0.5631
13638SOL     OW42129   4.634   8.072   4.812  0.1562 -0.9510  0.7149
13638SOL    HW142130   4.635   8.168   4.811 -0.8706 -0.9273 -0.7328
13638SOL    HW242131   4.679   8.049   4.893  1.0185  0.7388  0.7607
13639SOL     OW42132   5.649   7.152   4.266 -0.0052  0.2886 -0.2309
13639SOL    HW142133   5.618   7.116   4.183  1.0637 -0.9675 -0.1134
13639SOL    HW242134   5.692   7.235   4.242  2.5348 -1.2264 -1.3581
13640SOL     OW42135   3.867   7.466   4.109  0.0137 -0.6710 -0.3587
13640SOL    HW142136   3.916   7.418   4.042  0.0929  2.0867 -2.5074
13640SOL    HW242137   3.933   7.519   4.154 -0.3383 -0.8186  0.3418
13641SOL     OW42138   4.709   8.332   4.867 -0.3031 -0.0221 -0.0368
13641SOL    HW142139   4.638   8.373   4.916 -1.0858 -0.3147 -0.8949
13641SOL    HW242140   4.696   8.361   4.777  1.5671  1.1509  0.0012
13642SOL     OW42141   4.931   8.147   3.962 -0.1774 -0.4897  0.6884
13642SOL    HW142142   4.959   8.238   3.970 -0.5958 -0.2983  0.0914
13642SOL    HW242143   4.837   8.153   3.945 -0.0497 -0.9886 -0.2638
13643SOL     OW42144   4.574   8.312   5.292  0.3384  0.1108 -0.0768
13643SOL    HW142145   4.575   8.405   5.316 -2.0587 -0.1786  1.4421
13643SOL    HW242146   4.510   8.306   5.221 -0.0154 -0.4693  0.2854
13644SOL     OW42147   5.070   8.329   5.039 -0.0510 -0.6559 -0.9133
13644SOL    HW142148   5.044   8.407   5.087  1.7763  0.2259 -1.2863
13644SOL    HW242149   4.987   8.287   5.015 -1.0586  0.8835 -0.2842
13645SOL     OW42150   4.765   8.010   4.167 -0.3471 -0.3397  0.1606
13645SOL    HW142151   4.855   8.030   4.141  0.4313 -1.3009  1.9745
13645SOL    HW242152   4.773   7.968   4.252 -2.4411 -1.5412 -0.1645
13646SOL     OW42153   4.418   7.554   4.381  0.1024  0.5504  0.3708
13646SOL    HW142154   4.468   7.587   4.456 -1.3020 -0.7752  1.9999
13646SOL    HW242155   4.481   7.502   4.330  0.4388 -1.3123  2.5038
13647SOL     OW42156   5.037   7.609   4.341 -0.1286  0.4062  0.4081
13647SOL    HW142157   5.069   7.527   4.303  0.1949  1.4856 -1.7941
13647SOL    HW242158   4.946   7.614   4.313  0.1832  1.3380 -0.4905
13648SOL     OW42159   4.384   8.030   4.978  0.5156  0.4081 -0.0910
13648SOL    HW142160   4.326   7.984   5.038  0.5060  0.6490  0.0859
13648SOL    HW242161   4.459   7.972   4.967  0.6301  0.4756  0.3462
13649SOL     OW42162   4.612   7.563   5.091 -0.8271  0.5779 -1.1095
13649SOL    HW142163   4.554   7.501   5.136  0.1036  0.8358  0.5228
13649SOL    HW242164   4.691   7.513   5.072 -0.7071  0.8259 -1.2707
13650SOL     OW42165   3.736   7.813   3.695 -0.4422  0.3756 -0.0786
13650SOL    HW142166   3.705   7.750   3.630 -1.1504 -0.3500  0.9184
13650SOL    HW242167   3.674   7.886   3.689  0.2505  0.9058 -1.0839
13651SOL     OW42168   5.241   7.934   4.812  0.7409  0.4184  0.1661
13651SOL    HW142169   5.228   7.961   4.722 -0.5586  0.5547  0.3788
13651SOL    HW242170   5.155   7.903   4.841  1.4726 -1.0880  0.8834
13652SOL     OW42171   3.395   7.203   3.635 -0.1985 -0.0092  0.2683
13652SOL    HW142172   3.465   7.269   3.637 -0.1203 -0.0923  0.2893
13652SOL    HW242173   3.419   7.146   3.562  0.3547 -0.6933  0.9712
13653SOL     OW42174   4.144   7.930   4.600  0.5885  0.4940 -0.6443
13653SOL    HW142175   4.217   7.876   4.631 -0.5597 -0.6274  0.2562
13653SOL    HW242176   4.104   7.963   4.681 -0.7963 -0.1802 -1.0237
13654SOL     OW42177   4.212   7.869   5.123  0.0338 -0.1350 -0.0257
13654SOL    HW142178   4.232   7.830   5.208  1.0253  0.0344 -0.1698
13654SOL    HW242179   4.117   7.860   5.114 -0.3326  1.2396  1.7951
13655SOL     OW42180   5.380   8.401   5.693  0.5499 -0.4629 -0.1909
13655SOL    HW142181   5.460   8.362   5.729 -0.2081 -0.9795  0.9732
13655SOL    HW242182   5.314   8.332   5.699 -0.1641  0.1757 -0.5047
13656SOL     OW42183   5.306   8.317   4.901 -0.3003 -0.4842 -0.0277
13656SOL    HW142184   5.282   8.302   4.810  0.0543 -2.9603  0.2293
13656SOL    HW242185   5.223   8.325   4.947 -0.4864 -0.0919 -0.4280
13657SOL     OW42186   5.359   7.601   3.962 -0.2739  0.2604 -0.4112
13657SOL    HW142187   5.430   7.539   3.946  2.0069  2.9145 -1.2345
13657SOL    HW242188   5.282   7.560   3.922  1.5432 -1.1673 -2.6721
13658SOL     OW42189   4.191   8.014   4.323 -0.5593  0.0771  0.0709
13658SOL    HW142190   4.124   8.077   4.297 -0.3438 -0.2499 -1.4081
13658SOL    HW242191   4.147   7.956   4.384 -1.5257  0.0879 -0.5874
13659SOL     OW42192   5.201   7.479   4.923  0.5059  0.5310  0.3997
13659SOL    HW142193   5.270   7.525   4.874  0.8353  0.2348  0.5770
13659SOL    HW242194   5.136   7.546   4.942  1.1376  0.9994  0.9364
13660SOL     OW42195   5.418   8.006   5.264  0.3038 -0.5362  0.0140
13660SOL    HW142196   5.489   7.976   5.206 -0.0337  1.9617 -1.8695
13660SOL    HW242197   5.364   7.929   5.278  1.2465 -1.5909 -1.8082
13661SOL     OW42198   4.237   8.801   3.952  0.0339 -0.2367  0.5110
13661SOL    HW142199   4.249   8.708   3.968  1.9610 -0.3032 -0.9495
13661SOL    HW242200   4.218   8.838   4.038 -1.5870 -2.0573  0.9893
13662SOL     OW42201   4.666   8.170   3.970 -0.4916  0.2589 -0.2843
13662SOL    HW142202   4.697   8.138   4.055  1.7647  1.4655 -0.5789
13662SOL    HW242203   4.579   8.131   3.960  0.4635 -2.5303  1.1348
13663SOL     OW42204   4.513   8.571   4.055  0.0884  0.1699 -0.0894
13663SOL    HW142205   4.426   8.538   4.034  0.7326 -0.8102 -1.3413
13663SOL    HW242206   4.536   8.527   4.137 -0.5941  0.4670  0.2734
13664SOL     OW42207   3.828   8.199   5.689  0.1057  0.0609  0.0628
13664SOL    HW142208   3.916   8.173   5.714  0.0607  0.3944  0.5765
13664SOL    HW242209   3.815   8.284   5.730 -0.5521 -0.1020  0.2074
13665SOL     OW42210   3.691   8.843   4.182  0.5417 -0.2385  0.2245
13665SOL    HW142211   3.607   8.851   4.228  1.3915 -1.3486  2.0812
13665SOL    HW242212   3.679   8.769   4.122  0.2817 -0.6259  0.7423
13666SOL     OW42213   4.801   8.248   5.673  0.0689  0.0826 -0.4422
13666SOL    HW142214   4.734   8.222   5.736 -0.6239  2.1744 -0.2433
13666SOL    HW242215   4.844   8.323   5.713  2.1458 -0.8139 -0.8585
13667SOL     OW42216   5.604   7.433   4.867  0.1433  0.1524  0.3358
13667SOL    HW142217   5.643   7.398   4.787 -0.4050  2.6583 -1.1548
13667SOL    HW242218   5.535   7.491   4.835 -0.9603  0.2207  2.7107
13668SOL     OW42219   3.713   7.597   3.894 -0.5465 -0.0613 -0.5858
13668SOL    HW142220   3.727   7.678   3.844 -1.2188  1.0245  0.9099
13668SOL    HW242221   3.800   7.570   3.922 -0.4325  1.0104  0.1564
13669SOL     OW42222   4.785   8.249   5.140  0.0988  0.0368  0.0011
13669SOL    HW142223   4.732   8.296   5.205 -2.1437 -1.0388 -0.9420
13669SOL    HW242224   4.767   8.294   5.058  1.8098  0.5077 -0.1477
13670SOL     OW42225   3.801   7.888   5.160 -0.1846 -0.3327  0.1092
13670SOL    HW142226   3.817   7.799   5.129  1.7150 -0.1791  0.5391
13670SOL    HW242227   3.765   7.934   5.084 -1.8750 -1.5935  0.0682
13671SOL     OW42228   4.769   7.614   4.251 -0.0985  0.0610  0.2382
13671SOL    HW142229   4.746   7.655   4.334 -1.9521  0.8019 -0.5895
13671SOL    HW242230   4.685   7.589   4.212  0.6082  0.9120 -2.0090
13672SOL     OW42231   4.679   7.162   4.231  0.0034 -0.3044  0.0924
13672SOL    HW142232   4.619   7.112   4.286 -0.5591 -0.9753 -1.0674
13672SOL    HW242233   4.746   7.099   4.206 -0.6028 -0.4630 -1.2254
13673SOL     OW42234   4.249   8.356   4.239 -0.5436 -0.4326  0.3204
13673SOL    HW142235   4.297   8.401   4.309 -1.2489  1.4135 -0.3463
13673SOL    HW242236   4.188   8.298   4.285  0.0715 -0.4038  1.1953
13674SOL     OW42237   5.363   7.408   3.502  0.2786 -0.6721  0.4356
13674SOL    HW142238   5.393   7.336   3.559 -1.5820 -1.0266  1.0268
13674SOL    HW242239   5.299   7.368   3.444  1.8219 -0.2065 -1.6871
13675SOL     OW42240   4.836   7.623   3.965  0.0463 -0.1702  0.4259
13675SOL    HW142241   4.817   7.641   4.057  0.1405  2.4600 -0.0065
13675SOL    HW242242   4.877   7.537   3.965  0.3415 -0.0777  2.8739
13676SOL     OW42243   5.443   7.871   3.939 -0.2662 -0.2267 -0.5741
13676SOL    HW142244   5.414   7.962   3.952 -0.8763 -0.2985 -1.3714
13676SOL    HW242245   5.365   7.818   3.956 -0.0796 -0.5587 -0.7399
13677SOL     OW42246   3.536   8.178   4.160  0.1625  0.2562  0.0178
13677SOL    HW142247   3.573   8.090   4.156  1.9991  0.9979 -0.0120
13677SOL    HW242248   3.545   8.212   4.071 -0.7839  0.4009 -0.0356
13678SOL     OW42249   4.057   7.830   5.540  0.1840 -0.8192 -0.7346
13678SOL    HW142250   4.093   7.767   5.478 -1.3306 -1.8460 -0.6249
13678SOL    HW242251   3.969   7.849   5.506 -0.5868 -1.2311  0.9282
13679SOL     OW42252   3.802   7.159   6.546 -0.1996 -0.8575  0.5402
13679SOL    HW142253   3.726   7.157   6.488 -0.6312 -0.5422  1.0715
13679SOL    HW242254   3.872   7.198   6.494 -0.7171 -0.1232  0.3741
13680SOL     OW42255   3.519   8.140   6.355 -0.1586  0.3521  0.1552
13680SOL    HW142256   3.439   8.099   6.322  0.8894 -0.6184 -1.2951
13680SOL    HW242257   3.556   8.185   6.279  1.1914 -0.0738  0.5315
13681SOL     OW42258   3.825   8.567   6.938 -1.0429  0.2564  0.3105
13681SOL    HW142259   3.892   8.503   6.915 -0.1540  0.3164  2.4408
13681SOL    HW242260   3.794   8.602   6.855 -1.0354 -2.3987 -0.8873
13682SOL     OW42261   5.167   8.799   5.922 -0.6308 -0.9424 -0.6748
13682SOL    HW142262   5.140   8.811   6.013  0.6212  0.0409 -0.4069
13682SOL    HW242263   5.091   8.825   5.871 -0.5202  1.0158  0.0601
13683SOL     OW42264   4.700   7.931   5.947  0.9458  0.0722 -0.5471
13683SOL    HW142265   4.712   7.871   5.874 -0.5003 -1.3727  0.3325
13683SOL    HW242266   4.619   7.902   5.989  0.9740  1.7466  0.7944
13684SOL     OW42267   5.385   7.907   6.095  0.2033 -0.1654  0.0222
13684SOL    HW142268   5.368   7.873   6.007 -0.4810 -0.3842  0.2331
13684SOL    HW242269   5.464   7.961   6.085  1.2837 -1.7208 -0.3501
13685SOL     OW42270   3.993   8.341   6.555  0.1015  0.0965  0.5790
13685SOL    HW142271   4.051   8.383   6.492 -0.2404  0.1479  0.2942
13685SOL    HW242272   3.943   8.278   6.503 -1.7841  1.6939  0.3377
13686SOL     OW42273   4.295   8.283   7.115  0.1237 -0.4557  0.8340
13686SOL    HW142274   4.314   8.190   7.127  0.5249 -0.2845  1.5946
13686SOL    HW242275   4.379   8.326   7.130 -0.0438  0.0261  0.4003
13687SOL     OW42276   4.128   8.498   6.303 -0.2237 -0.2834  0.9377
13687SOL    HW142277   4.043   8.541   6.304 -0.3281 -0.4941  1.3652
13687SOL    HW242278   4.189   8.565   6.332 -0.2971 -0.2399  0.9931
13688SOL     OW42279   4.413   8.008   6.934 -0.4877 -0.7448 -0.7393
13688SOL    HW142280   4.349   8.060   6.885 -0.5915  0.3204  0.4919
13688SOL    HW242281   4.373   7.996   7.020  0.3177 -1.3686 -0.4460
13689SOL     OW42282   3.802   8.672   6.681 -0.2181 -0.5315  0.3986
13689SOL    HW142283   3.749   8.751   6.673 -0.3634 -0.6760 -0.1131
13689SOL    HW242284   3.875   8.687   6.621 -0.4300 -0.9327  0.0383
13690SOL     OW42285   4.249   7.928   7.164 -0.1254  0.2711 -0.2695
13690SOL    HW142286   4.156   7.908   7.152  0.0379 -0.2778 -0.6704
13690SOL    HW242287   4.285   7.850   7.205  0.0088  0.7989  0.6290
13691SOL     OW42288   5.349   7.501   6.080 -0.1399 -0.5697  0.0541
13691SOL    HW142289   5.302   7.418   6.090 -0.6143 -0.4259 -0.8504
13691SOL    HW242290   5.307   7.543   6.005  1.2646 -0.3111 -0.6188
13692SOL     OW42291   4.579   8.568   7.110 -0.9709 -0.0609 -0.1297
13692SOL    HW142292   4.637   8.591   7.182 -0.6101  0.6158 -0.6164
13692SOL    HW242293   4.632   8.513   7.052 -0.8504  0.4412 -0.5047
13693SOL     OW42294   3.713   8.404   6.418  0.4166 -0.2773  0.5890
13693SOL    HW142295   3.705   8.393   6.513 -0.0160  0.4587  0.6474
13693SOL    HW242296   3.728   8.315   6.385 -0.3922 -0.6794  1.2553
13694SOL     OW42297   4.191   8.746   5.854 -0.0972 -0.0249  0.4379
13694SOL    HW142298   4.149   8.685   5.915 -0.3680 -0.3838 -0.0989
13694SOL    HW242299   4.264   8.696   5.816 -1.7696 -0.8983 -1.8254
13695SOL     OW42300   5.301   7.933   6.648  0.1577 -0.1348  0.3798
13695SOL    HW142301   5.210   7.905   6.637  0.2443 -0.5328  0.6856
13695SOL    HW242302   5.340   7.867   6.704  1.1097 -0.9188 -1.1365
13696SOL     OW42303   3.810   7.678   5.822 -0.0041  0.1240 -0.0522
13696SOL    HW142304   3.830   7.765   5.786 -2.5651  0.3296 -1.1818
13696SOL    HW242305   3.793   7.624   5.745 -3.1564 -0.0817  0.6655
13697SOL     OW42306   5.709   7.996   6.655 -0.0849  0.2519  0.5524
13697SOL    HW142307   5.725   7.961   6.743 -0.4041  1.0603  0.9389
13697SOL    HW242308   5.794   8.028   6.626 -0.0413  0.2607  0.6899
13698SOL     OW42309   4.952   7.986   6.232  0.2242 -0.3705  0.1426
13698SOL    HW142310   5.031   7.933   6.244  0.1443 -0.7986 -1.0438
13698SOL    HW242311   4.980   8.057   6.174  0.9178  2.3112  3.4974
13699SOL     OW42312   4.298   8.133   7.410  0.4568 -0.2789  0.0843
13699SOL    HW142313   4.270   8.054   7.364  0.8142 -0.6230  0.4492
13699SOL    HW242314   4.390   8.144   7.385  0.2799  0.2941 -0.3409
13700SOL     OW42315   4.618   8.781   5.997  0.0749  0.3993  0.1094
13700SOL    HW142316   4.661   8.795   6.082  1.6125 -1.9637 -0.1938
13700SOL    HW242317   4.658   8.702   5.962 -0.5468  1.2652 -2.8571
13701SOL     OW42318   4.861   0.056   6.711 -0.1681  0.0788 -0.3939
13701SOL    HW142319   4.843  -0.006   6.781  0.2599  0.6834  0.2638
13701SOL    HW242320   4.910   0.127   6.753  0.2341  0.3789 -1.3295
13702SOL     OW42321   4.286   7.057   5.984 -0.4692  0.4476  0.2383
13702SOL    HW142322   4.342   7.097   5.917  0.8162 -0.1687  0.9070
13702SOL    HW242323   4.234   6.992   5.936 -0.1794  0.6128 -0.3068
13703SOL     OW42324   4.106   8.456   7.052 -0.5155 -0.0407 -0.0401
13703SOL    HW142325   4.082   8.437   6.961 -0.7412 -1.9736  0.3823
13703SOL    HW242326   4.182   8.401   7.068  1.0000  2.0359  0.2705
13704SOL     OW42327   5.686   7.768   5.694  0.6881 -0.0691  0.1615
13704SOL    HW142328   5.674   7.856   5.729  0.2074 -0.2933  0.5850
13704SOL    HW242329   5.677   7.778   5.599  1.3173  0.4388  0.1516
13705SOL     OW42330   4.482   7.517   7.407  0.2834  0.1450 -0.2011
13705SOL    HW142331   4.470   7.423   7.395  2.1615  0.0139 -1.6005
13705SOL    HW242332   4.548   7.524   7.476 -1.4533  0.5601  1.5081
13706SOL     OW42333   5.005   8.753   7.040  0.1469  0.1499  0.1623
13706SOL    HW142334   5.001   8.659   7.060 -0.2850  0.0960 -0.1764
13706SOL    HW242335   4.916   8.775   7.013  0.6284  0.3034 -1.3874
13707SOL     OW42336   3.982   8.367   6.100 -0.3636 -0.4962 -0.1232
13707SOL    HW142337   4.030   8.395   6.178 -0.7512  1.2159 -0.4642
13707SOL    HW242338   4.047   8.368   6.030 -0.4810  0.0230 -0.2267
13708SOL     OW42339   4.478   7.694   6.343  0.1085  0.1675 -0.5400
13708SOL    HW142340   4.443   7.776   6.308 -1.6554 -0.6152 -0.7256
13708SOL    HW242341   4.533   7.659   6.273 -3.2653 -1.3186 -2.7401
13709SOL     OW42342   4.495   7.681   6.997 -0.8146 -0.0456  0.0430
13709SOL    HW142343   4.552   7.758   6.995 -0.9439  0.1058  1.2167
13709SOL    HW242344   4.406   7.718   6.998 -0.8676 -0.1273  1.8754
13710SOL     OW42345   5.108   7.798   7.502 -0.1602 -0.2812  0.4840
13710SOL    HW142346   5.024   7.764   7.532 -0.3695 -1.4788 -1.3169
13710SOL    HW242347   5.170   7.770   7.569 -1.0474 -0.0945  1.4180
13711SOL     OW42348   4.353   8.547   6.519 -0.0473  0.2754 -0.2030
13711SOL    HW142349   4.381   8.491   6.446  1.5479  0.5939  0.1239
13711SOL    HW242350   4.374   8.636   6.490 -0.1642  0.4772  0.3245
13712SOL     OW42351   4.461   7.450   6.640  0.3012  0.4665 -0.0378
13712SOL    HW142352   4.509   7.369   6.624  0.1105  0.5565 -1.1413
13712SOL    HW242353   4.402   7.429   6.713  1.1715  0.0099  0.5464
13713SOL     OW42354   3.971   7.918   5.818  0.3681  0.1872 -0.0100
13713SOL    HW142355   4.016   7.999   5.841  0.3538  0.0109  0.6595
13713SOL    HW242356   4.021   7.882   5.745 -0.7168  1.7424 -1.5780
13714SOL     OW42357   4.012   7.587   6.545  0.1181 -0.0267 -0.4406
13714SOL    HW142358   4.050   7.537   6.473 -1.0195 -0.2320 -0.9301
13714SOL    HW242359   4.021   7.679   6.517 -0.4848 -0.1140 -0.9475
13715SOL     OW42360   4.708   7.850   5.643  0.2244  0.4947 -0.5585
13715SOL    HW142361   4.734   7.758   5.648  1.3586  0.8519  0.3317
13715SOL    HW242362   4.623   7.847   5.598 -1.0682 -1.2285  1.7534
13716SOL     OW42363   5.133   7.623   7.305 -0.0970 -0.2786  0.1470
13716SOL    HW142364   5.058   7.615   7.247 -0.6282 -0.3894  0.8392
13716SOL    HW242365   5.103   7.680   7.376  1.5209  2.5260 -1.2509
13717SOL     OW42366   4.717   8.406   6.494  0.3986 -0.2206 -0.4611
13717SOL    HW142367   4.780   8.344   6.457 -0.5135 -0.7425 -1.1562
13717SOL    HW242368   4.671   8.357   6.561  0.5237  0.0813 -0.1497
13718SOL     OW42369   4.326   7.030   6.521 -0.8621  0.3510 -0.8797
13718SOL    HW142370   4.419   7.050   6.512 -0.8391  1.3499  1.0937
13718SOL    HW242371   4.317   6.941   6.486  1.5121 -1.1466  1.9217
13719SOL     OW42372   5.268   8.627   6.910  0.5760 -0.3231  0.3203
13719SOL    HW142373   5.199   8.647   6.973 -0.7536 -0.0007 -1.2025
13719SOL    HW242374   5.223   8.610   6.828  2.2559 -0.9733 -0.5274
13720SOL     OW42375   4.001   8.647   6.071 -0.3493 -0.7942 -0.7357
13720SOL    HW142376   3.943   8.672   5.999 -0.2705 -0.1384 -0.5767
13720SOL    HW242377   3.997   8.551   6.073  0.0739 -0.8637 -1.9732
13721SOL     OW42378   5.189   7.850   6.283  0.0514 -0.5849  0.1514
13721SOL    HW142379   5.271   7.869   6.237  0.4859  0.4468  1.2933
13721SOL    HW242380   5.214   7.791   6.354 -0.2563 -0.5277  0.3099
13722SOL     OW42381   4.360   8.531   7.317  0.0514  0.1172 -0.3040
13722SOL    HW142382   4.310   8.589   7.259 -1.8090  0.1526  1.2400
13722SOL    HW242383   4.445   8.521   7.274 -0.9226  0.8926 -2.5315
13723SOL     OW42384   4.044   7.847   7.628 -0.6634  0.0891  0.0748
13723SOL    HW142385   4.116   7.909   7.641  1.6746 -2.5445  0.4503
13723SOL    HW242386   4.000   7.843   7.712 -0.9471  1.2914  0.0072
13724SOL     OW42387   4.973   8.218   6.068  0.1263  0.2143  0.4781
13724SOL    HW142388   4.888   8.255   6.045  0.6659  0.7546 -0.7819
13724SOL    HW242389   5.028   8.294   6.088  0.1195 -0.1684  2.0542
13725SOL     OW42390   5.020   7.381   6.014 -0.5586 -0.5653 -0.5958
13725SOL    HW142391   4.987   7.291   6.018  1.1181 -1.2304 -0.6640
13725SOL    HW242392   5.078   7.381   5.938 -1.8430  1.0776 -1.6483
13726SOL     OW42393   3.711   8.262   6.168 -0.0897 -0.6736 -0.0252
13726SOL    HW142394   3.797   8.305   6.164  0.1407 -1.1322  0.0014
13726SOL    HW242395   3.722   8.182   6.118 -0.5431 -0.6686 -0.1311
13727SOL     OW42396   5.183   7.659   6.773 -0.2036  0.1998 -0.1263
13727SOL    HW142397   5.202   7.590   6.710  1.7857  0.9639 -0.4417
13727SOL    HW242398   5.092   7.644   6.799  0.0189 -2.2020 -0.5567
13728SOL     OW42399   3.734   7.782   5.493  0.0900  0.5367  0.2612
13728SOL    HW142400   3.722   7.696   5.533  1.0261  0.5835  0.6629
13728SOL    HW242401   3.705   7.771   5.402  2.2312 -0.8133 -0.3293
13729SOL     OW42402   4.403   7.773   7.313 -0.0437  0.4517 -0.1279
13729SOL    HW142403   4.422   7.824   7.392 -1.8821  0.2343  0.5162
13729SOL    HW242404   4.413   7.682   7.340 -0.8194  0.3718 -0.0779
13730SOL     OW42405   4.756   7.836   6.994 -0.1027  0.3598 -0.0494
13730SOL    HW142406   4.765   7.849   7.089 -2.9859 -1.2491  0.5576
13730SOL    HW242407   4.801   7.754   6.977 -1.1411 -0.2949  0.2974
13731SOL     OW42408   4.151   7.548   6.326 -0.1022  0.3256 -0.2473
13731SOL    HW142409   4.131   7.518   6.238 -0.7726  2.1829 -0.7688
13731SOL    HW242410   4.233   7.503   6.348 -0.0155 -0.3043 -1.7274
13732SOL     OW42411   4.415   7.686   5.932 -0.2023  0.6271 -0.1499
13732SOL    HW142412   4.491   7.631   5.913 -0.8170 -0.3026  0.0241
13732SOL    HW242413   4.340   7.632   5.909 -0.8746  0.8422  1.4119
13733SOL     OW42414   4.720   8.313   6.073 -0.0602 -0.0111 -0.2116
13733SOL    HW142415   4.682   8.262   6.002  1.8954 -1.6483 -0.1699
13733SOL    HW242416   4.678   8.279   6.152 -0.2383 -0.1352 -0.3601
13734SOL     OW42417   4.018   7.096   5.795  0.2887  0.2069 -0.4026
13734SOL    HW142418   4.039   7.007   5.824  0.0211  0.1818 -0.2826
13734SOL    HW242419   4.073   7.110   5.719  1.0967  0.3152  0.1845
13735SOL     OW42420   4.973   7.667   6.031  0.1719  0.1798  0.0097
13735SOL    HW142421   5.017   7.587   6.059 -0.7538 -0.6133 -0.7402
13735SOL    HW242422   4.952   7.712   6.112  0.4202 -0.4891  0.4530
13736SOL     OW42423   4.380   7.707   6.733 -0.5238 -0.1406 -0.0302
13736SOL    HW142424   4.397   7.634   6.673 -0.5488 -0.8161  0.7662
13736SOL    HW242425   4.407   7.674   6.819  1.1525  1.4065  0.1034
13737SOL     OW42426   4.496   8.457   6.293 -0.2123  0.0417 -0.0987
13737SOL    HW142427   4.537   8.371   6.286  0.4993  0.3629  0.1242
13737SOL    HW242428   4.562   8.513   6.333 -0.7334  0.6549 -0.0733
13738SOL     OW42429   3.911   8.618   6.366  0.0101  0.3122 -0.1562
13738SOL    HW142430   3.841   8.553   6.375  0.7369 -0.2620  1.8749
13738SOL    HW242431   3.866   8.702   6.358 -0.9213 -0.0510  1.1046
13739SOL     OW42432   4.411   7.536   5.573  0.1615 -0.8042 -0.5508
13739SOL    HW142433   4.469   7.489   5.632  1.1294  0.6037 -0.3144
13739SOL    HW242434   4.413   7.627   5.605 -2.4587 -0.7483 -0.3274
13740SOL     OW42435   3.951   8.108   6.848  0.3851  0.1687  0.2065
13740SOL    HW142436   3.939   8.014   6.831  0.7676  0.2981 -0.8558
13740SOL    HW242437   3.879   8.131   6.908  0.5461 -0.8835  0.8328
13741SOL     OW42438   4.355   7.437   6.890  0.6432  0.4371  0.2530
13741SOL    HW142439   4.305   7.404   6.965  0.1555  1.3474  0.3471
13741SOL    HW242440   4.411   7.506   6.927  0.0924  1.1878 -0.2647
13742SOL     OW42441   3.937   7.745   6.076 -0.0499  0.1749  0.0002
13742SOL    HW142442   3.909   7.778   5.990 -2.7307  1.5569  1.2979
13742SOL    HW242443   3.900   7.657   6.081  0.7204 -0.1908 -0.5042
13743SOL     OW42444   4.708   7.630   5.913  0.6605 -0.3898 -0.1140
13743SOL    HW142445   4.692   7.666   6.001  0.5583  0.3423 -0.4199
13743SOL    HW242446   4.802   7.612   5.912  0.8530  0.5429 -0.1762
13744SOL     OW42447   5.199   8.369   6.546  0.3517  0.7568 -0.0994
13744SOL    HW142448   5.290   8.394   6.562  0.4311 -0.4088  1.5010
13744SOL    HW242449   5.203   8.277   6.520 -0.4502 -0.0710  2.3551
13745SOL     OW42450   5.266   7.664   6.468 -0.2981  0.2176  0.5465
13745SOL    HW142451   5.312   7.725   6.526 -1.1104  2.5223 -1.0902
13745SOL    HW242452   5.332   7.600   6.443  0.2268 -0.5745  3.4738
13746SOL     OW42453   5.570   7.683   6.059  0.2378  0.6466 -0.2986
13746SOL    HW142454   5.492   7.630   6.071  0.5942 -0.0989 -1.0926
13746SOL    HW242455   5.541   7.773   6.068 -0.7896  0.3918 -0.9329
13747SOL     OW42456   5.506   8.476   6.289  0.3858 -0.0176 -0.2808
13747SOL    HW142457   5.546   8.413   6.230 -2.0510 -1.4276 -0.5658
13747SOL    HW242458   5.468   8.423   6.360  1.5266  1.4771  1.5496
13748SOL     OW42459   5.066   7.719   5.552  0.4960  0.0189  0.2563
13748SOL    HW142460   5.006   7.754   5.617  0.4300 -1.0775  0.8133
13748SOL    HW242461   5.138   7.681   5.603  0.8969 -0.0539 -0.3448
13749SOL     OW42462   3.627   8.029   5.621 -0.0247 -0.2299  0.1464
13749SOL    HW142463   3.688   7.957   5.603  0.4535  0.2953 -0.3706
13749SOL    HW242464   3.682   8.096   5.662 -0.0251  0.6535 -1.2453
13750SOL     OW42465   5.116   8.632   7.604 -0.0916  0.0098  0.3043
13750SOL    HW142466   5.190   8.625   7.663  1.1118  0.6849 -1.0800
13750SOL    HW242467   5.064   8.705   7.638  0.5877  0.3914  0.5270
13751SOL     OW42468   4.841   8.664   6.395 -0.4122 -0.1692  0.1475
13751SOL    HW142469   4.869   8.581   6.433 -2.2569 -0.4359  1.0957
13751SOL    HW242470   4.914   8.724   6.411  0.8126 -1.5095 -0.2538
13752SOL     OW42471   4.888   8.201   6.413  0.2487 -0.1092 -0.0680
13752SOL    HW142472   4.981   8.181   6.423 -0.3127 -2.3700  1.4930
13752SOL    HW242473   4.852   8.127   6.365 -0.8180  0.5151 -0.2609
13753SOL     OW42474   5.165   8.121   6.446 -0.0384 -0.1070  0.6396
13753SOL    HW142475   5.223   8.082   6.512  0.9581 -0.4922 -0.4193
13753SOL    HW242476   5.171   8.061   6.371 -0.4408  0.7783 -0.1185
13754SOL     OW42477   4.777   7.226   7.281 -0.0138  0.2244 -0.2457
13754SOL    HW142478   4.869   7.227   7.256  0.2779  0.9508  0.7836
13754SOL    HW242479   4.746   7.315   7.263 -0.5412 -0.0395 -0.6664
13755SOL     OW42480   4.771   8.640   7.311  0.0859 -0.1630 -0.3348
13755SOL    HW142481   4.809   8.723   7.339  0.0112  0.6474 -2.4570
13755SOL    HW242482   4.842   8.577   7.317  0.4434  0.2850  0.2432
13756SOL     OW42483   4.306   8.215   5.977 -0.2819  0.3791 -0.1356
13756SOL    HW142484   4.315   8.134   6.026  0.2176  0.2181 -0.4910
13756SOL    HW242485   4.394   8.252   5.975 -0.5091  0.9563  0.0592
13757SOL     OW42486   3.984   8.374   6.823  0.4597  0.0456  0.1923
13757SOL    HW142487   3.985   8.384   6.728  0.8748 -0.5644  0.1284
13757SOL    HW242488   3.935   8.294   6.839  0.3558  0.1674  0.4979
13758SOL     OW42489   4.373   7.385   6.392 -0.2427 -0.3055  0.4303
13758SOL    HW142490   4.398   7.438   6.468 -0.4072 -0.1225  0.3582
13758SOL    HW242491   4.448   7.391   6.333  0.3745 -1.4135  1.0822
13759SOL     OW42492   4.129   8.820   6.242 -0.0592  0.0074 -0.0692
13759SOL    HW142493   4.145   8.865   6.159  0.2217 -1.5795 -0.9274
13759SOL    HW242494   4.067   8.750   6.220 -2.8687  1.6961  1.8010
13760SOL     OW42495   4.662   7.364   6.200 -0.9971  0.5361  0.1100
13760SOL    HW142496   4.609   7.285   6.198  1.4958 -1.2320 -0.8574
13760SOL    HW242497   4.732   7.348   6.137  2.4684  1.3362  3.3398
13761SOL     OW42498   4.367   8.467   6.050 -0.0701 -0.0722  0.3548
13761SOL    HW142499   4.295   8.423   6.097 -1.7568  2.0921 -0.0591
13761SOL    HW242500   4.426   8.496   6.120 -0.9548  0.3960  0.9328
13762SOL     OW42501   4.714   7.759   6.474  0.4707 -0.1431 -0.3082
13762SOL    HW142502   4.629   7.725   6.446 -1.0180  0.0830  3.3838
13762SOL    HW242503   4.711   7.853   6.453 -0.8783  0.1635  1.1323
13763SOL     OW42504   4.169   8.687   7.171  0.6466 -0.0496 -0.6788
13763SOL    HW142505   4.114   8.681   7.249  1.9904 -0.4789  0.2545
13763SOL    HW242506   4.149   8.607   7.122  0.3238 -0.1131 -0.4500
13764SOL     OW42507   5.334   8.201   7.392 -0.2369  0.3059 -0.3322
13764SOL    HW142508   5.309   8.129   7.335  2.8681 -0.0735 -1.3814
13764SOL    HW242509   5.294   8.180   7.477 -1.1769 -1.4907 -1.1799
13765SOL     OW42510   5.063   7.230   7.245 -0.1387 -0.3311 -0.3142
13765SOL    HW142511   5.116   7.282   7.185  0.3696  0.4523  0.7701
13765SOL    HW242512   5.077   7.139   7.218  3.2298 -0.3286  0.9985
13766SOL     OW42513   4.678   7.390   6.877  0.1780  0.2943  0.0511
13766SOL    HW142514   4.627   7.411   6.798 -0.8628 -1.9949  0.0287
13766SOL    HW242515   4.749   7.334   6.845  0.5208  0.4149  0.5938
13767SOL     OW42516   3.890   8.128   6.386 -0.5918  0.0618 -0.2894
13767SOL    HW142517   3.915   8.041   6.417  2.3764  0.8358 -0.2175
13767SOL    HW242518   3.852   8.113   6.300  0.3851 -1.2636 -0.5255
13768SOL     OW42519   4.795   7.998   6.749 -0.0941  0.0574  0.4141
13768SOL    HW142520   4.810   7.935   6.819  0.3755 -0.4699 -0.1525
13768SOL    HW242521   4.795   7.946   6.669 -1.5550  0.5215  0.0792
13769SOL     OW42522   4.789   7.563   5.539  0.4347 -0.6046 -0.2761
13769SOL    HW142523   4.825   7.474   5.539 -0.2911 -0.9001 -0.0619
13769SOL    HW242524   4.820   7.600   5.456 -1.8819 -2.1586 -1.9666
13770SOL     OW42525   4.202   8.173   6.854  0.1952 -0.1004  0.2521
13770SOL    HW142526   4.196   8.236   6.926 -0.5459 -0.4107  0.4660
13770SOL    HW242527   4.112   8.144   6.840  0.6277 -1.9022  0.8690
13771SOL     OW42528   3.319   8.601   7.009 -0.4961 -0.1510 -0.3327
13771SOL    HW142529   3.376   8.639   7.076 -0.5341  0.5168 -0.6671
13771SOL    HW242530   3.253   8.553   7.058  0.2880 -0.8441  0.0624
13772SOL     OW42531   3.946   7.875   6.505 -0.4541 -0.4196  0.5642
13772SOL    HW142532   4.028   7.897   6.548 -0.4921  0.3568  0.2650
13772SOL    HW242533   3.884   7.860   6.576 -0.6969  1.5396  0.8199
13773SOL     OW42534   5.769   8.745   7.577 -0.3032 -0.4479 -0.5607
13773SOL    HW142535   5.702   8.682   7.551 -0.7694  0.6259 -2.0937
13773SOL    HW242536   5.782   8.800   7.500 -0.3849  1.7556  0.9201
13774SOL     OW42537   3.685   7.318   6.324  0.2777  0.3514  0.3733
13774SOL    HW142538   3.678   7.412   6.344  0.9655  0.2806  0.9936
13774SOL    HW242539   3.779   7.303   6.313  0.1157 -0.1390 -0.3641
13775SOL     OW42540   5.269   7.572   5.738  0.4003  0.1148  0.0537
13775SOL    HW142541   5.351   7.536   5.704  0.7702  1.5566 -0.6247
13775SOL    HW242542   5.296   7.648   5.789 -0.4081 -0.3051  1.1537
13776SOL     OW42543   4.186   7.797   6.197 -0.2906 -0.8028  0.1423
13776SOL    HW142544   4.109   7.775   6.145  0.0291 -0.9682 -0.2616
13776SOL    HW242545   4.203   7.718   6.249 -0.1865 -0.8864 -0.0206
13777SOL     OW42546   5.589   0.438   7.029  0.2952  0.6273  0.1535
13777SOL    HW142547   5.510   0.422   6.977 -0.0462 -1.4056  1.1996
13777SOL    HW242548   5.660   0.400   6.977  0.1891  0.0690  0.4112
13778SOL     OW42549   4.084   8.342   7.301 -0.0506  0.1583 -0.1359
13778SOL    HW142550   4.138   8.379   7.231 -0.1225 -1.1730 -0.9342
13778SOL    HW242551   4.141   8.280   7.345 -0.6199 -0.5591 -0.3776
13779SOL     OW42552   5.373   7.276   5.625  0.2014 -0.0527  0.2894
13779SOL    HW142553   5.411   7.251   5.541  1.6825 -0.6791  1.1160
13779SOL    HW242554   5.421   7.354   5.651  0.4909 -0.4756  1.0470
13780SOL     OW42555   5.077   7.824   5.832 -0.3679 -0.0660 -0.0231
13780SOL    HW142556   5.023   7.893   5.795 -1.7872 -1.6732 -1.1045
13780SOL    HW242557   5.027   7.790   5.906  0.4094  0.1762  0.6323
13781SOL     OW42558   3.807   7.998   6.110 -0.0166 -0.2584 -0.2533
13781SOL    HW142559   3.778   7.932   6.173  0.8447 -0.0924  0.3250
13781SOL    HW242560   3.896   7.972   6.087  0.3541  0.7290  0.0186
13782SOL     OW42561   4.085   7.659   7.143  0.1290  0.2438  0.3630
13782SOL    HW142562   4.124   7.684   7.059  1.6208 -1.4474  0.5023
13782SOL    HW242563   4.098   7.565   7.149  0.6431  0.3966  2.7871
13783SOL     OW42564   4.661   7.469   7.161 -0.2456 -0.1945  0.2416
13783SOL    HW142565   4.593   7.536   7.161 -1.2933 -1.1669 -1.5125
13783SOL    HW242566   4.663   7.438   7.070  0.1072 -2.5990  1.0075
13784SOL     OW42567   4.944   7.561   7.121  0.2697 -0.5251 -0.1507
13784SOL    HW142568   4.863   7.513   7.102  0.2651 -0.2620 -0.8158
13784SOL    HW242569   4.980   7.582   7.035  0.1325  0.8912  0.1120
13785SOL     OW42570   3.777   8.491   5.742 -0.3375 -0.4062  0.7622
13785SOL    HW142571   3.752   8.496   5.650  0.8264 -0.2317  0.4439
13785SOL    HW242572   3.746   8.573   5.780  1.4565  0.7296 -0.0792
13786SOL     OW42573   4.210   7.871   6.599  0.2033 -0.4145 -0.7358
13786SOL    HW142574   4.256   7.953   6.584 -0.1964  0.3917  1.8598
13786SOL    HW242575   4.275   7.803   6.581  1.2493  0.5544 -0.7397
13787SOL     OW42576   3.942   7.856   6.801  0.1674 -0.8909 -0.3503
13787SOL    HW142577   4.036   7.837   6.807 -0.1811 -3.2716 -1.2619
13787SOL    HW242578   3.904   7.816   6.879  0.0232  1.6466  0.9983
13788SOL     OW42579   3.870   8.015   7.446 -0.4215 -0.1153  0.0885
13788SOL    HW142580   3.930   7.942   7.460 -0.5639 -0.1169  0.7127
13788SOL    HW242581   3.882   8.038   7.354 -0.1312 -0.7058 -0.0286
13789SOL     OW42582   4.294   8.118   6.579  0.3234 -0.6485  0.4911
13789SOL    HW142583   4.390   8.120   6.584  0.3021  0.6674  0.9051
13789SOL    HW242584   4.264   8.150   6.664 -0.4140  1.1811 -0.3825
13790SOL     OW42585   4.069   8.183   5.825  0.1928  0.3238 -0.1524
13790SOL    HW142586   4.157   8.165   5.856  0.4296 -2.3774 -2.0377
13790SOL    HW242587   4.069   8.276   5.804  2.7789  0.2907 -0.5849
13791SOL     OW42588   5.234   8.316   6.946 -1.1555  0.3456 -0.0090
13791SOL    HW142589   5.320   8.329   6.907 -1.4723 -0.7901 -1.1669
13791SOL    HW242590   5.222   8.221   6.948 -1.2604  0.3390  2.7216
13792SOL     OW42591   4.520   7.990   6.651  0.6854  0.2442 -0.3535
13792SOL    HW142592   4.601   8.007   6.699 -0.5654  0.4307  1.8014
13792SOL    HW242593   4.472   7.927   6.705 -0.2994 -0.4542 -1.9559
13793SOL     OW42594   3.962   7.404   5.646 -0.0503  0.9204  0.4627
13793SOL    HW142595   4.052   7.374   5.659 -1.0004 -1.4030  2.4014
13793SOL    HW242596   3.924   7.340   5.585 -0.7071  1.2010  0.5700
13794SOL     OW42597   3.725   8.658   7.373  0.0630  0.0247 -0.1479
13794SOL    HW142598   3.711   8.564   7.365  0.8694 -0.0891 -0.3301
13794SOL    HW242599   3.722   8.690   7.283 -0.2184  0.1766 -0.0856
13795SOL     OW42600   4.679   8.240   6.718 -0.1496 -0.5831  0.1457
13795SOL    HW142601   4.732   8.161   6.707  0.0443 -0.4607  0.1744
13795SOL    HW242602   4.744   8.309   6.738 -0.0285  0.1255 -2.3699
13796SOL     OW42603   4.695   7.994   6.267 -0.1955  0.5714  0.0439
13796SOL    HW142604   4.784   7.997   6.232 -0.1574 -0.2969  0.0374
13796SOL    HW242605   4.644   7.952   6.198 -0.2451 -0.5831  0.7562
13797SOL     OW42606   3.697   8.392   6.696 -0.4915  0.0002 -0.3603
13797SOL    HW142607   3.625   8.445   6.732 -1.1753 -0.0220 -1.6535
13797SOL    HW242608   3.770   8.453   6.690 -0.9894  0.5551 -0.9117
13798SOL     OW42609   5.313   7.147   6.024  0.0129  0.5394 -0.0890
13798SOL    HW142610   5.401   7.181   6.008  0.4828 -0.5222  0.1900
13798SOL    HW242611   5.311   7.128   6.118 -0.5286  0.5738 -0.0872
13799SOL     OW42612   4.277   8.048   6.268  0.0424  0.3476  0.1672
13799SOL    HW142613   4.211   7.991   6.230  0.4835  0.6510 -1.1011
13799SOL    HW242614   4.230   8.097   6.336 -1.2972  1.2040 -1.2975
13800SOL     OW42615   4.643   8.654   6.663 -0.2324  0.4852 -0.3558
13800SOL    HW142616   4.652   8.560   6.676  0.8478  0.8526  1.9648
13800SOL    HW242617   4.694   8.672   6.584  0.2682 -0.7450 -0.3313
13801SOL     OW42618   5.569   7.651   6.797  0.1809 -0.1370  0.2749
13801SOL    HW142619   5.572   7.715   6.726  1.6655 -0.3754  0.0814
13801SOL    HW242620   5.476   7.640   6.816 -0.2081  0.3993 -1.1978
13802SOL     OW42621   4.092   7.381   6.119 -0.3498  0.3317  0.5781
13802SOL    HW142622   4.018   7.367   6.060 -1.4500 -1.2553  2.2263
13802SOL    HW242623   4.168   7.355   6.068 -1.1794 -0.2283 -0.4252
13803SOL     OW42624   4.127   8.710   6.592 -0.2459  0.0150 -0.2422
13803SOL    HW142625   4.104   8.722   6.500 -0.6194  3.2003  0.1585
13803SOL    HW242626   4.176   8.628   6.594  1.1610  0.6131 -3.5355
13804SOL     OW42627   4.513   8.187   6.246 -0.3490 -0.0647  0.0441
13804SOL    HW142628   4.424   8.157   6.267 -0.3030  1.1042  2.2070
13804SOL    HW242629   4.570   8.128   6.294 -0.2268  2.4125  3.3522
13805SOL     OW42630   4.007   0.200   7.277 -0.2691 -0.0718 -0.1973
13805SOL    HW142631   3.967   0.277   7.317  1.5326  0.4236  0.7848
13805SOL    HW242632   4.010   0.135   7.347  2.5537  0.6652  0.4887
13806SOL     OW42633   5.035   8.465   7.073 -0.2096 -0.5810 -0.2771
13806SOL    HW142634   5.090   8.398   7.035  0.0518 -1.5161  1.6222
13806SOL    HW242635   5.027   8.440   7.165 -2.1421  0.6356 -0.0513
13807SOL     OW42636   4.645   8.827   6.284  0.1715  0.1091  0.9713
13807SOL    HW142637   4.662   8.907   6.333  0.5838  0.3556  0.4469
13807SOL    HW242638   4.702   8.762   6.325  3.2378  1.1061 -1.2425
13808SOL     OW42639   4.713   7.635   6.205 -0.1814 -0.0514  0.3460
13808SOL    HW142640   4.729   7.540   6.206 -0.7501 -0.1705  2.0271
13808SOL    HW242641   4.786   7.671   6.256  1.6470  0.7843 -2.6339
13809SOL     OW42642   5.704   7.876   6.901  0.1594  0.0898 -0.3873
13809SOL    HW142643   5.642   7.938   6.940 -1.4106  1.0530 -4.0331
13809SOL    HW242644   5.650   7.803   6.871  0.3952  1.4196 -4.6009
13810SOL     OW42645   3.742   0.091   7.445  0.5554 -0.0065 -0.0634
13810SOL    HW142646   3.693   0.143   7.382 -1.4822 -0.7498  0.8129
13810SOL    HW242647   3.712   0.001   7.431 -0.1140 -0.1726  2.0379
13811SOL     OW42648   4.736   7.107   6.780 -0.1548  0.3650  0.4357
13811SOL    HW142649   4.685   7.031   6.752 -1.1894  0.6619  1.4497
13811SOL    HW242650   4.733   7.103   6.875  1.1847  0.7676  0.5071
13812SOL     OW42651   3.527   7.320   5.608 -0.0147 -0.6206 -0.1007
13812SOL    HW142652   3.609   7.279   5.634  0.5492 -0.6247 -1.7790
13812SOL    HW242653   3.481   7.252   5.557  0.0818  0.1722 -1.2902
13813SOL     OW42654   4.866   8.426   6.824 -0.7317  0.4334 -0.2392
13813SOL    HW142655   4.895   8.393   6.909  0.1482  2.3316  0.2529
13813SOL    HW242656   4.943   8.471   6.788  0.0371 -3.0544 -3.6119
13814SOL     OW42657   3.717   7.537   5.608 -0.3309 -0.2781  0.7377
13814SOL    HW142658   3.789   7.475   5.604 -0.8625 -0.8640 -0.0626
13814SOL    HW242659   3.638   7.482   5.605 -0.8075  0.4135  0.3099
13815SOL     OW42660   4.400   8.441   6.762 -0.5329 -0.1116  0.1260
13815SOL    HW142661   4.351   8.359   6.772  2.7952 -2.1819  1.0521
13815SOL    HW242662   4.374   8.474   6.676 -2.9309 -1.3830  0.2517
13816SOL     OW42663   4.536   8.124   7.286  0.1069 -0.2067  0.2046
13816SOL    HW142664   4.618   8.121   7.336  0.0658 -1.4611  0.2301
13816SOL    HW242665   4.545   8.055   7.221 -0.5647  0.2520 -0.3902
13817SOL     OW42666   4.765   8.825   6.946  0.1064  0.3321  0.2604
13817SOL    HW142667   4.713   8.745   6.934  0.0119  0.3485  0.5436
13817SOL    HW242668   4.702   8.889   6.978  0.1748  0.5349 -0.0118
13818SOL     OW42669   5.479   8.126   6.678 -0.2593 -0.3482  0.0727
13818SOL    HW142670   5.560   8.077   6.666 -1.2347 -1.7235 -1.4047
13818SOL    HW242671   5.414   8.059   6.697 -1.2134  0.6229  0.2982
13819SOL     OW42672   4.637   7.447   5.732 -0.1354 -0.1206 -0.0276
13819SOL    HW142673   4.699   7.467   5.662 -0.0692 -0.7404 -0.1581
13819SOL    HW242674   4.663   7.502   5.805  0.5313 -0.3253 -0.1082
13820SOL     OW42675   4.205   7.523   5.862  0.3096  0.0006 -0.1142
13820SOL    HW142676   4.122   7.561   5.833  1.4359  1.4528 -1.6365
13820SOL    HW242677   4.235   7.472   5.787  0.6375 -0.7969  0.5519
13821SOL     OW42678   5.219   7.384   7.445  0.3683 -0.1532  0.8667
13821SOL    HW142679   5.189   7.466   7.404  1.9779 -0.0340 -0.1703
13821SOL    HW242680   5.162   7.317   7.408  0.1331  0.2864  0.4065
13822SOL     OW42681   5.340   8.439   7.202  0.1351  0.2782  0.1399
13822SOL    HW142682   5.353   8.358   7.252 -1.6859  0.0430  0.2933
13822SOL    HW242683   5.327   8.410   7.112 -0.7394  0.3640  0.2302
13823SOL     OW42684   4.648   8.608   5.731 -0.7595  0.3795  0.4017
13823SOL    HW142685   4.710   8.586   5.801 -0.2558  0.7585  0.0868
13823SOL    HW242686   4.703   8.619   5.653 -1.4433 -1.2980 -0.3581
13824SOL     OW42687   5.016   8.444   6.360  0.5068 -0.1511 -0.1200
13824SOL    HW142688   5.094   8.435   6.415  0.1106  0.8095  0.6247
13824SOL    HW242689   4.978   8.356   6.358  2.2015 -0.9201 -1.4329
13825SOL     OW42690   4.605   8.164   5.876  0.0479  0.2456  0.0784
13825SOL    HW142691   4.529   8.124   5.834  1.1996 -0.6470 -1.2662
13825SOL    HW242692   4.647   8.091   5.922  1.3900  0.1474 -1.2182
13826SOL     OW42693   3.318   0.267   7.451 -0.1411 -0.0733  0.5164
13826SOL    HW142694   3.354   0.355   7.439  1.9551 -0.7374  1.4354
13826SOL    HW242695   3.258   0.255   7.377  1.0839  1.3712 -0.7790
13827SOL     OW42696   3.489   8.462   6.277 -0.4209  0.5807  0.5719
13827SOL    HW142697   3.407   8.432   6.316  0.2807 -0.5678  1.2209
13827SOL    HW242698   3.557   8.420   6.329  0.5737 -0.8262 -1.7240
13828SOL     OW42699   4.410   8.689   6.902 -0.2947  0.8228  0.2461
13828SOL    HW142700   4.464   8.652   6.971  0.3331 -0.1841 -0.7581
13828SOL    HW242701   4.407   8.622   6.834 -0.2735  2.0754 -1.0485
13829SOL     OW42702   5.318   7.431   6.672 -0.0313 -0.0691  0.2458
13829SOL    HW142703   5.368   7.421   6.590  2.3240  1.8171  1.3145
13829SOL    HW242704   5.379   7.402   6.740 -1.8238 -1.2661  1.4064
13830SOL     OW42705   3.965   7.280   6.369  0.3295 -0.8530  0.4547
13830SOL    HW142706   3.989   7.371   6.349 -2.5662 -0.1757 -0.3208
13830SOL    HW242707   4.008   7.228   6.301 -0.5625  0.3087 -1.0512
13831SOL     OW42708   5.288   8.655   7.370  0.3757 -0.2950  0.3370
13831SOL    HW142709   5.295   8.588   7.302 -1.6655  0.0353 -0.2829
13831SOL    HW242710   5.317   8.612   7.451  2.3299 -0.8470 -0.6068
13832SOL     OW42711   4.155   7.686   6.885  0.2327  0.0002  0.0565
13832SOL    HW142712   4.216   7.713   6.816  0.8755  1.7083  1.2179
13832SOL    HW242713   4.125   7.600   6.858  1.5689  0.0048 -1.6211
13833SOL     OW42714   4.968   7.535   6.844  0.2038  0.7585 -0.2097
13833SOL    HW142715   5.015   7.461   6.806 -1.1198 -0.9190  1.2363
13833SOL    HW242716   4.882   7.531   6.803 -0.3619  0.5391  0.9639
13834SOL     OW42717   4.581   6.883   6.686  0.6100  0.1994  0.0448
13834SOL    HW142718   4.491   6.872   6.717  0.6820 -0.2051  0.1145
13834SOL    HW242719   4.576   6.869   6.592  0.4673  0.9867 -0.0785
13835SOL     OW42720   4.562   0.014   5.724 -0.0531 -0.2570 -0.5104
13835SOL    HW142721   4.584  -0.079   5.717 -0.0219 -0.2690 -0.2368
13835SOL    HW242722   4.568   0.033   5.817 -0.7092 -0.1401 -0.4860
13836SOL     OW42723   4.964   7.301   5.538  0.2017 -0.2753  0.0105
13836SOL    HW142724   5.020   7.305   5.616 -0.6463  0.8960  0.5735
13836SOL    HW242725   4.917   7.218   5.547  0.4694 -0.3783  0.4966
13837SOL     OW42726   4.472   7.887   6.129  0.7888  0.0180 -0.0606
13837SOL    HW142727   4.415   7.819   6.095  0.4026  0.8936 -1.2436
13837SOL    HW242728   4.415   7.944   6.180  0.5158  1.0084 -1.4117
13838SOL     OW42729   4.944   7.685   6.339  0.4503  0.5518  0.6106
13838SOL    HW142730   4.904   7.679   6.426 -0.4927 -1.5515  0.1053
13838SOL    HW242731   5.036   7.707   6.356  0.3548 -0.1273  2.1753
13839SOL     OW42732   3.596   8.624   6.090 -0.1338  0.0307  0.0553
13839SOL    HW142733   3.563   8.565   6.158  0.8734 -0.2772  0.2826
13839SOL    HW242734   3.672   8.580   6.054  0.4762  1.0557  0.0360
13840SOL     OW42735   4.088   7.799   7.931 -0.4130  0.3390  0.2549
13840SOL    HW142736   4.170   7.752   7.920 -0.1488  0.9605 -0.5133
13840SOL    HW242737   4.022   7.731   7.944  0.0989 -0.1927  0.0960
13841SOL     OW42738   4.130   7.743   8.521 -0.0752 -0.0300  0.8662
13841SOL    HW142739   4.127   7.652   8.550  1.8688 -0.0959  0.9806
13841SOL    HW242740   4.206   7.748   8.463  1.0311  1.8768  2.3316
13842SOL     OW42741   3.362   8.444   8.260 -0.7026 -0.5443  0.2662
13842SOL    HW142742   3.313   8.495   8.196  1.1479 -0.4862 -1.2281
13842SOL    HW242743   3.422   8.507   8.300  0.8422 -1.2619 -0.8071
13843SOL     OW42744   4.530   0.042   0.360 -0.5812  0.6537 -0.1948
13843SOL    HW142745   4.593   0.086   0.417 -0.7172  0.6187 -0.0182
13843SOL    HW242746   4.574   0.039   0.275  0.5254 -1.1390  0.3717
13844SOL     OW42747   5.265   8.723   7.829 -0.7207 -0.1311 -0.2987
13844SOL    HW142748   5.330   8.794   7.821 -1.3744  0.4012 -1.1014
13844SOL    HW242749   5.215   8.745   7.907  0.6585 -1.0674  0.8911
13845SOL     OW42750   4.442   8.299   8.238  0.1996 -0.1875 -0.0452
13845SOL    HW142751   4.453   8.252   8.320 -0.3479  0.1002  0.2014
13845SOL    HW242752   4.484   8.244   8.172  1.0186 -0.2209  0.4841
13846SOL     OW42753   5.178   7.945   7.289  0.2968 -0.5481  0.8057
13846SOL    HW142754   5.157   7.891   7.365 -1.7165 -0.3808  0.4160
13846SOL    HW242755   5.098   7.995   7.272  1.1700  0.4505 -0.5828
13847SOL     OW42756   5.091   8.117   0.383  0.4566 -0.0035 -0.1622
13847SOL    HW142757   5.141   8.199   0.384 -0.8178  0.8016 -0.7890
13847SOL    HW242758   5.154   8.051   0.352  0.9109  1.1487 -1.8329
13848SOL     OW42759   4.197   8.708   8.089  0.6215  0.6948 -0.2236
13848SOL    HW142760   4.195   8.783   8.149  0.6655 -0.4630  1.2980
13848SOL    HW242761   4.107   8.676   8.088  0.0943  1.9974 -2.5952
13849SOL     OW42762   4.689   8.308   8.453  0.4067  0.4400  0.0226
13849SOL    HW142763   4.604   8.331   8.490  0.1983  1.6577 -1.1109
13849SOL    HW242764   4.721   8.237   8.508 -0.4011  1.3587  1.7693
13850SOL     OW42765   3.713   8.067   0.059  0.0002  0.3012 -0.2005
13850SOL    HW142766   3.646   7.999   0.059 -0.6182  0.8598  1.6334
13850SOL    HW242767   3.788   8.027   0.105  0.7598 -0.1373 -1.7672
13851SOL     OW42768   5.293   7.381   8.392 -0.3346 -0.4071  0.5718
13851SOL    HW142769   5.243   7.394   8.312 -0.7095  0.3252  0.9181
13851SOL    HW242770   5.374   7.340   8.364 -0.5179 -0.2676 -0.1621
13852SOL     OW42771   4.473   8.441   8.554 -0.0907 -0.3346  0.2462
13852SOL    HW142772   4.400   8.380   8.547 -0.0389 -0.3980  0.2534
13852SOL    HW242773   4.438   8.525   8.524 -0.4562 -0.1219  1.2611
13853SOL     OW42774   5.024   8.528   7.363  0.1647  0.3940 -0.1126
13853SOL    HW142775   5.072   8.572   7.433 -1.9115  1.0291  1.0087
13853SOL    HW242776   5.001   8.442   7.400  0.0938  0.2629 -0.4609
13854SOL     OW42777   3.650   8.213   8.240 -0.0360 -0.0315  0.2097
13854SOL    HW142778   3.562   8.248   8.227 -0.3421 -1.3122 -1.6492
13854SOL    HW242779   3.701   8.286   8.274 -1.6696  0.8928  0.7602
13855SOL     OW42780   5.220   8.258   8.193 -0.7909 -0.1009  0.4051
13855SOL    HW142781   5.298   8.210   8.165 -0.3018  0.7920  0.2016
13855SOL    HW242782   5.153   8.231   8.130 -0.1111  0.6617 -0.7008
13856SOL     OW42783   6.149   8.773   7.731  0.2620  0.2572 -0.0337
13856SOL    HW142784   6.086   8.840   7.759 -2.3433 -0.8929 -2.6080
13856SOL    HW242785   6.234   8.806   7.762 -1.3808  2.5531  2.5036
13857SOL     OW42786   5.052   8.629   8.463  0.3171  0.1110 -0.2571
13857SOL    HW142787   5.001   8.613   8.542 -0.1952 -1.3336 -0.8518
13857SOL    HW242788   5.013   8.573   8.397  1.6560  0.1867 -1.1600
13858SOL     OW42789   4.773   7.314   8.234  0.1807  0.1338  0.3157
13858SOL    HW142790   4.737   7.267   8.309 -0.5656 -1.2798 -0.8768
13858SOL    HW242791   4.709   7.382   8.215 -0.1024 -0.1147  0.3751
13859SOL     OW42792   4.741   8.381   0.090 -0.4671 -0.7595 -0.5115
13859SOL    HW142793   4.789   8.299   0.073  0.0689 -0.4051 -0.7524
13859SOL    HW242794   4.724   8.379   0.184  1.7681  0.0024 -0.0232
13860SOL     OW42795   4.855   8.282   7.677 -0.3357  0.7682  0.1171
13860SOL    HW142796   4.862   8.349   7.744 -2.0865  1.4746 -0.3577
13860SOL    HW242797   4.761   8.276   7.658 -0.1974 -1.5816 -0.1035
13861SOL     OW42798   5.247   8.333   8.780  0.0802  0.2659  0.3343
13861SOL    HW142799   5.299   8.253   8.785  0.4813  0.5600  1.0168
13861SOL    HW242800   5.162   8.304   8.746 -0.4503 -0.8092  2.3928
13862SOL     OW42801   4.243   8.069   7.697  0.3718  0.7246  0.0866
13862SOL    HW142802   4.256   8.106   7.610  0.5944 -0.1358 -0.2615
13862SOL    HW242803   4.217   8.143   7.752 -0.4805  1.1508 -0.8672
13863SOL     OW42804   5.216   7.732   8.226  0.0015 -0.6958  0.2933
13863SOL    HW142805   5.300   7.745   8.272 -0.4994  0.3299  0.9526
13863SOL    HW242806   5.239   7.734   8.133  0.8262 -1.2798  0.4735
13864SOL     OW42807   3.972   8.119   8.815 -0.1842 -0.3252 -0.1644
13864SOL    HW142808   3.878   8.136   8.827 -0.6310 -0.8734 -2.3202
13864SOL    HW242809   3.977   8.024   8.802  0.9239 -0.5436  1.5178
13865SOL     OW42810   4.973   7.892   8.300 -0.1850  0.2474  0.8163
13865SOL    HW142811   5.022   7.811   8.289 -2.9060 -1.7332  2.1657
13865SOL    HW242812   5.003   7.927   8.384  0.6264  0.4066  0.4703
13866SOL     OW42813   5.016   8.082   8.097  0.4918  0.6556 -0.0042
13866SOL    HW142814   4.982   8.013   8.154 -2.2147  0.2372 -1.9211
13866SOL    HW242815   4.964   8.159   8.119  1.1937  1.1768 -0.1491
13867SOL     OW42816   3.828   8.399   8.226 -0.3004 -0.5403 -0.0735
13867SOL    HW142817   3.914   8.416   8.264  0.2455 -1.1512 -0.9672
13867SOL    HW242818   3.790   8.485   8.211  0.4149 -0.2434 -0.2170
13868SOL     OW42819   4.562   7.386   7.861 -0.1728 -0.2801  0.3981
13868SOL    HW142820   4.478   7.429   7.847 -0.0560 -0.2272 -0.1934
13868SOL    HW242821   4.544   7.293   7.846 -0.1610 -0.2888  0.4376
13869SOL     OW42822   4.766   8.558   7.804 -0.4264 -0.2468 -0.0879
13869SOL    HW142823   4.700   8.498   7.841 -2.0666  0.5593 -1.5549
13869SOL    HW242824   4.731   8.582   7.718  0.2067  2.7466  0.3890
13870SOL     OW42825   4.235   7.407   8.615  0.4643 -0.0109 -0.2612
13870SOL    HW142826   4.218   7.362   8.533  1.2628 -0.4138 -0.2211
13870SOL    HW242827   4.330   7.397   8.628  0.3677  0.1701  0.6306
13871SOL     OW42828   5.737   8.492   7.928 -0.0427 -0.4372 -0.1251
13871SOL    HW142829   5.645   8.514   7.916  0.3764  1.2484 -0.6001
13871SOL    HW242830   5.736   8.407   7.972 -1.8175 -0.3333  0.1225
13872SOL     OW42831   4.245   8.293   7.831  0.2155  0.0397  0.9587
13872SOL    HW142832   4.279   8.327   7.748 -0.2825  0.7780  1.0450
13872SOL    HW242833   4.281   8.351   7.898  1.1312 -0.9349  1.3386
13873SOL     OW42834   5.364   8.032   8.147 -0.1125 -0.3878  0.5793
13873SOL    HW142835   5.434   7.978   8.183  0.5477  1.3481  2.0434
13873SOL    HW242836   5.302   7.970   8.108  2.2944 -1.9675 -0.9695
13874SOL     OW42837   5.679   8.433   7.455  0.2390 -0.1627  0.6277
13874SOL    HW142838   5.656   8.449   7.363 -1.8021 -0.4644  1.0336
13874SOL    HW242839   5.774   8.420   7.454  0.1347 -1.3017 -1.6102
13875SOL     OW42840   5.081   7.937   7.877 -0.0476 -0.0760 -0.2747
13875SOL    HW142841   5.156   7.893   7.917 -0.3816 -0.4722 -0.0759
13875SOL    HW242842   5.060   8.009   7.936  0.3304  0.1894 -0.4597
13876SOL     OW42843   4.107   8.091   8.038 -0.0997  0.3895  0.5166
13876SOL    HW142844   4.195   8.114   8.009  0.3924 -2.0085 -0.0407
13876SOL    HW242845   4.096   7.999   8.013 -2.4282  0.3631  1.3888
13877SOL     OW42846   4.646   7.441   7.599  0.6102  0.0845 -0.1365
13877SOL    HW142847   4.597   7.414   7.676 -1.0456  0.3501 -1.0565
13877SOL    HW242848   4.734   7.407   7.613 -0.0111 -1.0180  1.2419
13878SOL     OW42849   4.970   7.608   8.741 -0.4058 -0.1261  0.2280
13878SOL    HW142850   4.991   7.516   8.726 -0.7619  0.0051 -1.2029
13878SOL    HW242851   4.961   7.615   8.836 -1.0627 -1.7118  0.3100
13879SOL     OW42852   4.260   7.595   8.056 -0.4863  0.0438  0.0880
13879SOL    HW142853   4.171   7.585   8.092  0.5055  1.8950  3.4646
13879SOL    HW242854   4.296   7.506   8.057 -2.1825 -0.7257 -1.2601
13880SOL     OW42855   4.619   8.587   7.579  0.6136  0.1243 -0.1578
13880SOL    HW142856   4.652   8.617   7.494  0.9283  0.8811  0.2211
13880SOL    HW242857   4.539   8.639   7.592  0.0805 -0.6263 -0.3889
13881SOL     OW42858   3.690   7.688   7.498 -0.2309  0.3837 -0.4272
13881SOL    HW142859   3.783   7.668   7.492  0.0130  1.3902 -0.2293
13881SOL    HW242860   3.669   7.676   7.591 -0.5360 -0.7659 -0.6263
13882SOL     OW42861   4.548   7.489   8.138 -0.5076 -0.2508  0.4238
13882SOL    HW142862   4.456   7.471   8.157 -1.1604  0.7258 -1.5731
13882SOL    HW242863   4.555   7.485   8.043  0.5803  3.5830  0.1671
13883SOL     OW42864   5.321   8.540   8.321 -0.1327 -0.4663 -0.2823
13883SOL    HW142865   5.251   8.531   8.257  0.7770  0.3479 -1.4295
13883SOL    HW242866   5.278   8.577   8.398 -0.7561  1.2392 -1.4058
13884SOL     OW42867   4.655   8.806   8.392 -0.5997 -0.1812 -0.4823
13884SOL    HW142868   4.708   8.793   8.314 -0.6423 -0.2719 -0.4949
13884SOL    HW242869   4.569   8.834   8.359 -0.2635  0.9743 -0.4343
13885SOL     OW42870   4.847   7.652   7.456 -0.5130 -0.0360  0.2183
13885SOL    HW142871   4.858   7.664   7.551  1.0625 -0.7977  0.1721
13885SOL    HW242872   4.827   7.559   7.447 -1.5806  0.2209 -0.1518
13886SOL     OW42873   4.371   7.778   8.372 -0.1387 -0.2990 -0.4101
13886SOL    HW142874   4.455   7.738   8.347  0.7832  1.1060  0.3120
13886SOL    HW242875   4.343   7.824   8.293  0.3040  0.0714 -0.3594
13887SOL     OW42876   4.635   8.142   8.005 -0.2489 -0.1383 -0.1212
13887SOL    HW142877   4.560   8.085   7.987  1.2340 -2.2242 -0.1131
13887SOL    HW242878   4.692   8.131   7.928  1.1230 -0.4978  0.9079
13888SOL     OW42879   4.444   7.242   8.512 -0.0301  0.1523  0.1769
13888SOL    HW142880   4.467   7.222   8.421  2.0348  2.0804  0.1693
13888SOL    HW242881   4.474   7.166   8.561  1.8457  0.4106 -0.4657
13889SOL     OW42882   4.587   8.385   7.894 -0.1315 -0.1824 -0.7598
13889SOL    HW142883   4.503   8.419   7.924  0.3375  0.2213  0.0987
13889SOL    HW242884   4.592   8.297   7.931 -0.5502 -0.5459 -1.5290
13890SOL     OW42885   5.564   7.734   8.020  0.8419  0.1327 -0.3204
13890SOL    HW142886   5.613   7.710   8.098  1.7723 -2.4704 -1.6008
13890SOL    HW242887   5.601   7.818   7.993 -1.0278  2.2981  3.1404
13891SOL     OW42888   5.580   8.182   7.506 -0.2927 -0.4626 -0.2930
13891SOL    HW142889   5.495   8.168   7.465 -0.4566  0.6095 -0.3391
13891SOL    HW242890   5.615   8.260   7.463  0.0210  0.0262  0.8249
13892SOL     OW42891   5.731   8.275   8.118 -0.2581  0.3683 -0.4294
13892SOL    HW142892   5.677   8.250   8.193 -0.4507  2.5415  0.2192
13892SOL    HW242893   5.711   8.209   8.051 -1.0738 -0.8566  0.9700
13893SOL     OW42894   4.794   8.217   7.024 -0.5030 -0.1902  0.0644
13893SOL    HW142895   4.794   8.162   6.946 -0.9374  0.2182 -0.2315
13893SOL    HW242896   4.715   8.270   7.016  1.0984  2.2446 -0.9251
13894SOL     OW42897   4.665   8.018   7.744 -0.0021  0.1107 -0.3225
13894SOL    HW142898   4.716   7.944   7.777  1.2042  1.1838  0.2909
13894SOL    HW242899   4.688   8.024   7.652  1.1976  0.7431  0.0079
13895SOL     OW42900   5.850   8.221   8.561  0.4111 -0.1398  0.1761
13895SOL    HW142901   5.857   8.244   8.654 -0.8639  0.5345  0.1292
13895SOL    HW242902   5.853   8.125   8.560 -0.2126 -0.1794  0.9871
13896SOL     OW42903   5.042   8.439   0.161  0.3485  0.4459  0.5640
13896SOL    HW142904   5.102   8.449   0.088  1.1007  0.2263  1.1308
13896SOL    HW242905   4.963   8.400   0.123  0.5043  0.8767 -0.2176
13897SOL     OW42906   4.980   8.289   8.666 -0.0153  0.1873 -0.1503
13897SOL    HW142907   5.004   8.294   8.574  1.4458 -2.7617 -0.0627
13897SOL    HW242908   4.890   8.259   8.666 -0.9867  2.8503 -0.5206
13898SOL     OW42909   5.282   8.033   8.432  0.2739 -0.2125 -0.3735
13898SOL    HW142910   5.301   8.026   8.339  0.5643  0.5714 -0.3830
13898SOL    HW242911   5.241   8.119   8.441  1.9176  0.5259  0.4793
13899SOL     OW42912   3.843   8.212   8.011 -0.3478 -0.7581  0.3628
13899SOL    HW142913   3.839   8.280   8.077  2.5299 -1.6229  1.6227
13899SOL    HW242914   3.935   8.184   8.012 -0.5031 -1.8062 -3.0265
13900SOL     OW42915   4.201   8.300   8.747  0.2313 -0.4530 -0.3309
13900SOL    HW142916   4.239   8.298   8.659  0.2877  0.6229 -0.3434
13900SOL    HW242917   4.129   8.237   8.744  0.1644 -0.3433 -1.1773
13901SOL     OW42918   5.008   7.359   8.668 -0.1535 -0.3318 -0.0548
13901SOL    HW142919   5.017   7.331   8.577 -1.3408  0.2429 -0.3817
13901SOL    HW242920   4.955   7.291   8.709 -1.5672  0.5184 -0.4061
13902SOL     OW42921   3.817   8.357   7.750 -0.2346 -0.1781 -0.0305
13902SOL    HW142922   3.908   8.380   7.736  0.0432 -0.8190  0.6725
13902SOL    HW242923   3.817   8.305   7.830 -1.4016  1.0312  0.8053
13903SOL     OW42924   4.493   8.058   8.404  0.2678 -0.0295  0.2701
13903SOL    HW142925   4.455   8.001   8.337  0.2276  1.5985 -1.1698
13903SOL    HW242926   4.587   8.052   8.390  0.3197 -0.5526  0.8238
13904SOL     OW42927   5.152   8.399   7.822  0.0794 -0.2406 -0.3333
13904SOL    HW142928   5.225   8.409   7.761  0.0498 -0.7117 -0.4534
13904SOL    HW242929   5.092   8.339   7.777  0.7432 -1.7922  0.7745
13905SOL     OW42930   5.031   7.229   8.414 -0.0323  0.2158  0.1565
13905SOL    HW142931   5.013   7.156   8.355  0.2802  2.4793 -2.9886
13905SOL    HW242932   5.125   7.222   8.433 -0.2217 -0.7694  0.8520
13906SOL     OW42933   4.739   7.861   8.560  0.2665 -0.2712 -0.4636
13906SOL    HW142934   4.797   7.787   8.542  0.6039 -0.3724  0.8942
13906SOL    HW242935   4.651   7.827   8.548  0.3923 -1.1180  0.7779
13907SOL     OW42936   5.348   8.051   0.164  0.9509 -0.1659 -0.0211
13907SOL    HW142937   5.313   8.132   0.201  0.1788 -0.3484 -0.3267
13907SOL    HW242938   5.353   8.067   0.070  3.2518  0.4239  0.1502
13908SOL     OW42939   4.808   7.585   7.910  0.0833 -0.3615 -0.2431
13908SOL    HW142940   4.830   7.611   7.999 -2.1541  1.6498 -0.1827
13908SOL    HW242941   4.728   7.533   7.919 -0.6637  0.5888 -1.0896
13909SOL     OW42942   3.978   7.618   0.055  0.3052  0.1474  0.0080
13909SOL    HW142943   3.902   7.609  -0.002  0.8304 -1.3784 -0.4888
13909SOL    HW242944   4.034   7.682   0.011  0.3419 -0.4295 -0.8055
13910SOL     OW42945   4.363   8.751   8.795  0.3865  0.5562  0.1395
13910SOL    HW142946   4.274   8.716   8.792  0.7535 -0.3786 -2.0948
13910SOL    HW242947   4.404   8.709   8.871 -1.2328  1.5071  1.5958
13911SOL     OW42948   4.691   7.964   8.252  0.2694 -0.5421  0.0390
13911SOL    HW142949   4.782   7.951   8.224  0.9742 -0.8485  2.2589
13911SOL    HW242950   4.658   7.875   8.267 -0.1220 -0.3914  0.0810
13912SOL     OW42951   4.003   7.589   8.123  0.1281  0.0455 -0.2995
13912SOL    HW142952   3.933   7.646   8.156 -0.5794 -1.2971  0.6241
13912SOL    HW242953   3.957   7.519   8.077  0.4495 -2.8873  3.3548
13913SOL     OW42954   4.829   7.847   7.829 -0.1711  0.2872  0.0349
13913SOL    HW142955   4.820   7.753   7.845 -1.5900  0.3515 -0.1966
13913SOL    HW242956   4.920   7.868   7.851  0.3281 -1.2426 -0.4978
13914SOL     OW42957   5.324   7.765   8.625  0.0494  0.1896 -0.1946
13914SOL    HW142958   5.318   7.784   8.718 -0.1885 -0.4550 -0.0757
13914SOL    HW242959   5.249   7.810   8.586 -0.6871 -0.7390  0.1263
13915SOL     OW42960   5.546   7.440   7.271 -0.4007  0.3040 -0.2807
13915SOL    HW142961   5.610   7.420   7.203 -1.7058 -1.9775 -0.9186
13915SOL    HW242962   5.462   7.409   7.236 -1.2872 -0.0014  1.9516
13916SOL     OW42963   4.736   7.853   7.275 -0.0812 -0.6705 -0.3196
13916SOL    HW142964   4.653   7.822   7.311  0.7957 -3.2853 -0.3448
13916SOL    HW242965   4.802   7.792   7.309  1.8663  1.3297 -0.2766
13917SOL     OW42966   4.123   8.483   8.277 -0.3216 -0.7549  0.1353
13917SOL    HW142967   4.129   8.387   8.268  0.2545 -0.6003 -1.5872
13917SOL    HW242968   4.208   8.509   8.313  0.7337 -0.6750 -2.2147
13918SOL     OW42969   4.296   8.231   8.484  0.4113 -0.3321 -0.1027
13918SOL    HW142970   4.234   8.217   8.413 -1.3511 -0.9263  1.4604
13918SOL    HW242971   4.362   8.163   8.473  0.6120  0.0706 -1.5770
13919SOL     OW42972   5.041   7.627   0.187  0.0268 -0.2324 -0.2591
13919SOL    HW142973   5.081   7.598   0.269  1.1518  1.8850  0.0187
13919SOL    HW242974   5.064   7.720   0.181 -0.7428 -0.1338 -2.5772
13920SOL     OW42975   3.560   8.785   7.837  0.9730 -0.2216  0.1855
13920SOL    HW142976   3.539   8.823   7.752  0.4662  0.5636  0.6505
13920SOL    HW242977   3.620   8.714   7.817  1.3355  0.3359 -0.7766
13921SOL     OW42978   5.060   7.880   8.614  0.3433 -0.0456  0.0507
13921SOL    HW142979   5.032   7.800   8.658 -1.3759  0.0762 -0.7303
13921SOL    HW242980   4.992   7.944   8.636  1.2487  0.9595 -0.0197
13922SOL     OW42981   3.704   8.578   8.662 -0.4948  0.9046  0.8302
13922SOL    HW142982   3.622   8.602   8.706 -0.6538 -0.6140  1.4071
13922SOL    HW242983   3.711   8.484   8.674  0.6520  0.8054 -0.4245
13923SOL     OW42984   4.423   8.027   7.890  0.3653 -0.4774  0.3329
13923SOL    HW142985   4.343   8.044   7.840  0.0447  1.6991  1.4600
13923SOL    HW242986   4.492   8.027   7.824 -0.5582 -3.4006 -0.8152
13924SOL     OW42987   5.616   7.712   8.665  0.0910  0.5205  0.0214
13924SOL    HW142988   5.526   7.724   8.635 -0.0974 -0.2421  0.2485
13924SOL    HW242989   5.616   7.626   8.707  0.7614  0.8034  0.6359
13925SOL     OW42990   4.426   7.698   8.649  0.3392 -0.0995  0.4821
13925SOL    HW142991   4.486   7.630   8.619 -1.2711 -1.0576 -0.7550
13925SOL    HW242992   4.372   7.718   8.572 -0.1086  1.6149  1.1985
13926SOL     OW42993   4.443   7.858   7.569 -0.6100  0.0613 -0.0436
13926SOL    HW142994   4.436   7.794   7.639 -0.1464 -0.2225 -0.2545
13926SOL    HW242995   4.396   7.935   7.602  1.9367  0.9776  1.8031
13927SOL     OW42996   4.145   8.581   8.793 -0.4530 -0.2438 -0.1221
13927SOL    HW142997   4.062   8.588   8.841 -0.2164 -1.0677  0.4269
13927SOL    HW242998   4.155   8.487   8.778 -0.6750  0.0080 -2.0690
13928SOL     OW42999   5.043   7.896   0.155  0.2151 -0.1618 -0.1956
13928SOL    HW143000   5.030   7.971   0.097  0.6292  0.9802  1.1363
13928SOL    HW243001   4.966   7.896   0.213  0.6475 -0.2206  0.3886
13929SOL     OW43002   4.975   8.111   7.196 -0.1000  0.4214 -0.3482
13929SOL    HW143003   4.921   8.105   7.275  1.3227 -0.3633  0.6163
13929SOL    HW243004   4.914   8.136   7.127 -1.4797  0.6601  0.9006
13930SOL     OW43005   4.395   8.820   8.322 -0.1296  0.1225  0.6005
13930SOL    HW143006   4.328   8.887   8.329  2.7834  3.2700  1.0757
13930SOL    HW243007   4.363   8.747   8.375 -2.3787  2.1298  2.1764
13931SOL     OW43008   5.357   7.405   7.849 -0.5790 -0.7165 -0.1378
13931SOL    HW143009   5.436   7.383   7.898 -0.2894  0.8861  0.1547
13931SOL    HW243010   5.381   7.394   7.758  0.2273  0.4556 -0.0830
13932SOL     OW43011   4.354   8.460   8.017  0.3897  0.1906 -0.0755
13932SOL    HW143012   4.361   8.418   8.103 -1.1973 -0.1865 -0.1007
13932SOL    HW243013   4.330   8.551   8.037  1.0852  0.3820 -0.0971
13933SOL     OW43014   4.883   8.151   0.162  0.1433  0.1395 -0.0489
13933SOL    HW143015   4.925   8.128   0.245  1.5664 -1.2426 -1.0929
13933SOL    HW243016   4.821   8.080   0.146 -0.0120  0.3220 -0.2717
13934SOL     OW43017   5.830   7.397   8.229 -0.5630 -0.7133  0.3288
13934SOL    HW143018   5.822   7.411   8.323  0.6143 -0.0088  0.3473
13934SOL    HW243019   5.838   7.303   8.219 -2.6477 -0.9862  0.7418
13935SOL     OW43020   3.882   7.791   8.212  0.4250 -0.4285  0.2296
13935SOL    HW143021   3.789   7.814   8.216 -0.2427 -2.3397 -2.0925
13935SOL    HW243022   3.920   7.830   8.291 -2.3504  0.3095  1.3070
13936SOL     OW43023   5.269   7.805   0.058 -0.2344  0.4709 -0.3351
13936SOL    HW143024   5.184   7.845   0.076 -1.4849 -1.4630 -1.6244
13936SOL    HW243025   5.330   7.853   0.114 -2.1276  2.0112  0.5220
13937SOL     OW43026   4.728   8.119   7.489 -0.2149  0.4126  0.0194
13937SOL    HW143027   4.810   8.162   7.515  0.1995  1.5644 -2.8764
13937SOL    HW243028   4.660   8.180   7.518  0.0263  0.2931  0.8766
13938SOL     OW43029   4.653   8.583   8.783  1.0441 -0.3203 -0.1778
13938SOL    HW143030   4.638   8.522   8.711  2.4390 -0.2829 -0.5162
13938SOL    HW243031   4.645   8.529   8.862 -1.4776 -0.1798 -0.2363
13939SOL     OW43032   5.522   8.416   0.182  0.6832 -0.3629 -0.1902
13939SOL    HW143033   5.535   8.410   0.087  0.1105  0.2092 -0.3098
13939SOL    HW243034   5.605   8.450   0.215 -0.0632  2.3203 -0.8372
13940SOL     OW43035   4.801   8.275   8.197  0.5436  0.9017  0.0527
13940SOL    HW143036   4.753   8.279   8.279  2.9639 -0.1961  1.6495
13940SOL    HW243037   4.756   8.209   8.145  0.6956 -0.6157  1.7781
13941SOL     OW43038   4.719   7.173   8.455 -0.4376 -0.5221 -0.1169
13941SOL    HW143039   4.691   7.084   8.477 -0.4300 -0.5042 -0.0349
13941SOL    HW243040   4.811   7.176   8.482  0.4234 -1.3857 -2.6494
13942SOL     OW43041   5.390   7.803   0.409  0.5390 -0.1111  0.1330
13942SOL    HW143042   5.430   7.720   0.384  3.6702  1.5846 -0.9668
13942SOL    HW243043   5.438   7.830   0.488 -1.3199  0.1340  1.2565
13943SOL     OW43044   4.266   7.781   0.259  0.0439 -0.3120  0.0737
13943SOL    HW143045   4.357   7.797   0.284  0.4537 -0.0015 -1.5232
13943SOL    HW243046   4.271   7.743   0.171 -1.3846 -0.0813 -0.1390
13944SOL     OW43047   3.448   8.019   7.706 -0.5908 -0.4891 -0.4533
13944SOL    HW143048   3.454   7.940   7.653  0.0925 -0.3439 -0.6072
13944SOL    HW243049   3.355   8.029   7.724 -0.6084 -1.7685  0.2451
13945SOL     OW43050   3.692   7.926   7.926  0.0100 -0.3411 -0.3441
13945SOL    HW143051   3.742   7.948   7.847 -2.0311  1.8320 -1.1628
13945SOL    HW243052   3.720   7.992   7.990 -0.3177 -0.4087 -0.1315
13946SOL     OW43053   4.642   8.093   0.027  0.1359  0.2021  0.6850
13946SOL    HW143054   4.565   8.148   0.040  0.0268 -0.2191  1.9493
13946SOL    HW243055   4.630   8.020   0.088  1.6423  0.2436  1.0600
13947SOL     OW43056   5.628   7.937   0.188 -0.1178 -0.0675  0.0833
13947SOL    HW143057   5.551   7.993   0.199 -1.1818 -1.4839  0.0287
13947SOL    HW243058   5.593   7.848   0.183  1.6965 -0.9959  2.4372
13948SOL     OW43059   4.635   7.689   8.324 -0.0336 -0.2550  0.6512
13948SOL    HW143060   4.706   7.656   8.378 -0.5468 -1.2419  0.7323
13948SOL    HW243061   4.609   7.615   8.270 -0.8842  0.1425  0.4965
13949SOL     OW43062   4.070   8.196   8.301 -0.4265  0.0179 -0.2592
13949SOL    HW143063   4.002   8.137   8.334 -2.8327  1.2916 -2.5835
13949SOL    HW243064   4.085   8.168   8.211  1.6944  0.2146 -0.0083
13950SOL     OW43065   5.979   8.203   8.196  0.5625 -0.0614 -0.6608
13950SOL    HW143066   5.957   8.143   8.267  0.3416  1.1173  0.3087
13950SOL    HW243067   5.896   8.243   8.172  0.5271 -0.9075 -2.0599
13951SOL     OW43068   4.644   0.112   7.229 -0.4310 -0.5873 -0.7794
13951SOL    HW143069   4.661   0.196   7.184  1.8125 -0.9181 -0.6593
13951SOL    HW243070   4.729   0.086   7.264 -0.9714 -3.1637 -1.2005
13952SOL     OW43071   4.762   8.119   8.647  0.2539 -0.1821  0.3921
13952SOL    HW143072   4.714   8.115   8.730  2.1565 -2.3062  1.4868
13952SOL    HW243073   4.747   8.034   8.606  0.8032  0.1834 -0.6135
13953SOL     OW43074   4.530   8.273   6.948  0.0110 -0.2717 -0.7294
13953SOL    HW143075   4.505   8.181   6.947 -0.2697 -0.1933 -1.0080
13953SOL    HW243076   4.524   8.301   6.856 -4.0119  1.1062 -0.2542
13954SOL     OW43077   3.841   8.045   7.714  0.3219  0.4712 -0.6445
13954SOL    HW143078   3.809   8.135   7.710  1.7440  0.9887 -0.7900
13954SOL    HW243079   3.872   8.026   7.625  1.3681  0.3606 -0.2712
13955SOL     OW43080   5.844   7.364   8.713 -0.3410 -0.3409  0.5886
13955SOL    HW143081   5.839   7.269   8.706 -1.3939 -0.1874 -1.7973
13955SOL    HW243082   5.756   7.390   8.739 -0.3765  0.0454  0.0841
13956SOL     OW43083   4.364   7.842   8.110 -0.0622 -0.6774  0.3932
13956SOL    HW143084   4.403   7.894   8.039  0.6546 -0.0113  1.2550
13956SOL    HW243085   4.322   7.769   8.065 -0.1600  0.0681 -0.7676
13957SOL     OW43086   5.437   8.349   8.492 -0.2618  0.4958 -0.0771
13957SOL    HW143087   5.430   8.421   8.430 -0.7318 -0.4176 -1.1110
13957SOL    HW243088   5.347   8.321   8.508 -0.3287  1.8480  2.4429
13958SOL     OW43089   3.665   8.281   8.704 -0.1283  0.3229 -0.0405
13958SOL    HW143090   3.599   8.237   8.757  0.9468 -1.7930 -0.3771
13958SOL    HW243091   3.634   8.271   8.614  0.5707 -0.6018 -0.1920
13959SOL     OW43092   5.207   7.269   0.282 -0.1746 -0.0661 -0.7101
13959SOL    HW143093   5.183   7.347   0.331  0.4349  0.2959 -0.9775
13959SOL    HW243094   5.274   7.299   0.220  1.4361 -1.1672  0.4370
13960SOL     OW43095   4.622   7.442   8.610 -0.1854  0.1695  0.3439
13960SOL    HW143096   4.594   7.386   8.537  0.2661  0.1698  0.1678
13960SOL    HW243097   4.596   7.393   8.689  1.6236 -1.0829  0.2331
13961SOL     OW43098   4.573   8.699   7.963 -0.4981  0.0184 -0.7173
13961SOL    HW143099   4.540   8.616   7.999  0.5671 -0.6576 -1.2313
13961SOL    HW243100   4.665   8.680   7.940  0.1931  1.7367  0.4219
13962SOL     OW43101   5.440   7.461   7.598 -0.0588 -0.1552  0.0988
13962SOL    HW143102   5.494   7.489   7.523  1.4935 -2.0363  0.4441
13962SOL    HW243103   5.370   7.409   7.559 -0.3450  0.4162 -0.1686
13963SOL     OW43104   4.935   7.601   8.170 -0.4134  0.0035  0.8068
13963SOL    HW143105   5.028   7.582   8.179 -0.3141 -0.0030 -0.1674
13963SOL    HW243106   4.892   7.542   8.232  0.2938  0.8190  2.1217
13964SOL     OW43107   5.345   7.499   8.617  0.0789 -0.1207 -0.0028
13964SOL    HW143108   5.317   7.591   8.617 -1.1988 -0.4891 -0.2586
13964SOL    HW243109   5.333   7.471   8.526  0.2848 -0.5930  0.1155
13965SOL     OW43110   3.696   8.585   7.684 -0.0453  0.2281 -0.0996
13965SOL    HW143111   3.723   8.493   7.688 -0.2972  0.0978 -1.0904
13965SOL    HW243112   3.701   8.607   7.591  1.8831  1.7948  0.3244
13966SOL     OW43113   6.039   0.532   0.196 -0.0145 -0.1695  0.0025
13966SOL    HW143114   5.950   0.501   0.181  0.2288 -0.4330 -0.9470
13966SOL    HW243115   6.044   0.614   0.148  0.0478  0.2176  0.6484
13967SOL     OW43116   5.426   0.478   1.215  0.2494 -0.4617  0.4495
13967SOL    HW143117   5.448   0.527   1.136 -0.6286  0.0144  0.5000
13967SOL    HW243118   5.490   0.406   1.217 -0.5024 -1.2424 -1.3958
13968SOL     OW43119   5.273   0.646   0.636  0.3111  0.5369 -0.3607
13968SOL    HW143120   5.226   0.728   0.620  0.4394  0.3458 -1.8058
13968SOL    HW243121   5.334   0.638   0.563  0.3267 -0.8265 -0.2224
13969SOL     OW43122   5.920   1.604   0.720 -0.5254  0.5967  0.2890
13969SOL    HW143123   5.848   1.549   0.750  0.0136  0.5847  1.6533
13969SOL    HW243124   5.885   1.693   0.720 -1.6010  0.2776 -2.5512
13970SOL     OW43125   7.216   1.902   0.362  0.1106  0.5523 -0.4716
13970SOL    HW143126   7.141   1.845   0.345 -0.5471  1.4015 -0.5337
13970SOL    HW243127   7.186   1.960   0.433  1.3244 -0.2147  0.7081
13971SOL     OW43128   6.914   1.041   0.230  0.3034  0.2631  0.1228
13971SOL    HW143129   6.925   1.061   0.323  1.7944  0.4429 -0.0546
13971SOL    HW243130   6.942   0.950   0.222  1.2063  0.5625 -0.2885
13972SOL     OW43131   7.147   0.782   8.774 -0.0752  0.5762  0.6711
13972SOL    HW143132   7.208   0.855   8.761 -0.7143  1.1495  0.8289
13972SOL    HW243133   7.125   0.754   8.685 -2.0988  2.5217  0.4670
13973SOL     OW43134   6.328   1.338   1.176  0.1618 -0.0165  0.7776
13973SOL    HW143135   6.253   1.397   1.187 -0.4784 -0.7965  0.6612
13973SOL    HW243136   6.310   1.291   1.095  0.3220 -0.8720  1.2323
13974SOL     OW43137   6.704   0.072   1.112 -0.2609  0.2690 -0.3503
13974SOL    HW143138   6.715   0.062   1.018  0.5810 -1.4050 -0.1065
13974SOL    HW243139   6.734   0.161   1.131  1.5514 -0.0774 -1.3898
13975SOL     OW43140   6.621   1.108   0.089 -0.3441  0.0529 -0.6492
13975SOL    HW143141   6.707   1.069   0.073 -0.1146  0.2975 -0.0546
13975SOL    HW243142   6.641   1.195   0.123 -0.8446  0.4737 -1.4049
13976SOL     OW43143   6.339   1.165   1.823 -0.1633  0.1700 -0.2838
13976SOL    HW143144   6.286   1.244   1.816  1.4555  1.6217  2.3623
13976SOL    HW243145   6.419   1.185   1.774 -0.3603 -0.4688 -0.8935
13977SOL     OW43146   5.673   1.847   0.524 -0.3795 -0.2953 -0.0755
13977SOL    HW143147   5.669   1.833   0.618 -0.2086  2.3625  0.4080
13977SOL    HW243148   5.584   1.872   0.500 -0.2791 -0.3523 -0.5143
13978SOL     OW43149   6.957   1.847   1.014 -0.9819 -0.4075 -0.1984
13978SOL    HW143150   6.987   1.937   1.013 -0.5625 -0.5357 -1.6555
13978SOL    HW243151   6.863   1.852   1.032 -0.6512  0.1777  1.5202
13979SOL     OW43152   6.084   0.258   1.383  0.0074 -0.0934 -0.2941
13979SOL    HW143153   6.111   0.341   1.344 -0.1113 -0.5591 -1.4262
13979SOL    HW243154   6.044   0.282   1.466  4.6744  0.6044  2.0801
13980SOL     OW43155   7.312   0.363   0.497  0.3156  0.1605  0.4101
13980SOL    HW143156   7.278   0.409   0.574 -2.2115 -2.0732  0.8089
13980SOL    HW243157   7.342   0.279   0.532  0.8145 -0.1935 -0.8223
13981SOL     OW43158   5.802   2.123   0.189 -0.5334  0.3079  0.0659
13981SOL    HW143159   5.850   2.158   0.114 -0.5718 -1.2136 -0.7121
13981SOL    HW243160   5.719   2.170   0.188 -0.9109 -0.3152 -1.4375
13982SOL     OW43161   6.753   1.384   1.277  0.2873  0.5026 -0.7280
13982SOL    HW143162   6.679   1.433   1.313 -0.7833 -0.4090 -1.6231
13982SOL    HW243163   6.715   1.302   1.248  1.7916 -0.2657 -0.5995
13983SOL     OW43164   5.874   0.860   0.360  0.8020 -0.3217 -0.1386
13983SOL    HW143165   5.912   0.866   0.272  1.3918 -1.2118  0.0442
13983SOL    HW243166   5.940   0.899   0.417 -0.4444  2.2054 -0.2710
13984SOL     OW43167   6.176   0.915   0.966 -0.3141  0.2060 -0.6833
13984SOL    HW143168   6.124   0.847   0.923 -0.2152  0.9712 -2.1040
13984SOL    HW243169   6.121   0.945   1.038 -0.4220 -1.2483 -0.1337
13985SOL     OW43170   6.015   1.376   1.745  0.5197 -0.0145  0.2605
13985SOL    HW143171   6.105   1.383   1.777  2.0066 -1.4271 -3.1192
13985SOL    HW243172   6.022   1.391   1.650 -3.0021  0.8607  0.0081
13986SOL     OW43173   5.915   0.923   0.051  0.5707  0.0422 -0.6236
13986SOL    HW143174   5.949   0.859  -0.011  0.0307  0.5318 -1.4345
13986SOL    HW243175   5.824   0.899   0.064  0.6950 -0.0943  0.0352
13987SOL     OW43176   7.164   0.790   1.032 -0.6354 -0.2165  0.2916
13987SOL    HW143177   7.208   0.768   1.114 -0.0676  0.6256  0.2258
13987SOL    HW243178   7.235   0.793   0.967 -1.0974 -1.0646 -0.2896
13988SOL     OW43179   5.613   0.490   0.722  0.4061 -0.3391  0.4494
13988SOL    HW143180   5.533   0.438   0.713 -0.3175  0.9050 -0.7486
13988SOL    HW243181   5.641   0.476   0.813 -2.0338  0.3778  1.3813
13989SOL     OW43182   7.652   2.012   8.673 -0.2037 -0.4652  0.0029
13989SOL    HW143183   7.609   1.955   8.738 -0.3474 -0.5096 -0.1290
13989SOL    HW243184   7.597   2.091   8.671  0.6755  0.1995  1.0814
13990SOL     OW43185   5.715   1.618   0.373 -0.0867 -0.3295  0.2308
13990SOL    HW143186   5.647   1.635   0.308  1.2255 -0.2314 -1.1825
13990SOL    HW243187   5.704   1.687   0.438 -0.8127  0.1804 -0.4159
13991SOL     OW43188   7.134   1.090   0.944  0.5591  1.1056 -0.5597
13991SOL    HW143189   7.221   1.077   0.981 -0.0763  1.6197  1.2343
13991SOL    HW243190   7.119   1.013   0.890  0.1400 -1.6767  3.1544
13992SOL     OW43191   7.172   0.770   0.426  0.0350  0.2803  0.0795
13992SOL    HW143192   7.233   0.823   0.477 -0.7299  2.0711 -0.7880
13992SOL    HW243193   7.090   0.773   0.475  0.1031 -0.5422  0.2676
13993SOL     OW43194   5.539   0.599   0.995 -0.0030  0.3436 -0.1048
13993SOL    HW143195   5.618   0.593   0.942  0.2574  0.2277  0.3007
13993SOL    HW243196   5.558   0.666   1.060 -0.7632  1.3921 -0.9049
13994SOL     OW43197   6.283   1.401   0.117 -0.3702 -0.2151 -0.0052
13994SOL    HW143198   6.378   1.389   0.114 -0.3014  0.3233  0.0140
13994SOL    HW243199   6.261   1.400   0.210 -0.6239 -2.1337 -0.0405
13995SOL     OW43200   6.765   1.736   0.732  0.9823 -0.3959 -0.3123
13995SOL    HW143201   6.674   1.722   0.761  0.4743  2.6627 -0.1592
13995SOL    HW243202   6.772   1.686   0.651 -1.2874  0.3502 -1.0357
13996SOL     OW43203   6.361   0.248   0.286 -0.1863 -0.6643 -0.7367
13996SOL    HW143204   6.437   0.193   0.303  0.2376 -0.6938 -2.4702
13996SOL    HW243205   6.325   0.268   0.372 -0.1237 -3.3204 -0.0241
13997SOL     OW43206   5.909   0.986   1.102 -0.0490  0.4907  0.1734
13997SOL    HW143207   5.815   0.968   1.110 -0.0206  0.0440 -0.3953
13997SOL    HW243208   5.936   1.014   1.189 -0.4911 -0.4102  0.6093
13998SOL     OW43209   7.349   0.930   8.626  0.5519  0.0123 -0.0945
13998SOL    HW143210   7.302   0.996   8.576 -0.7442 -1.4558 -0.8798
13998SOL    HW243211   7.436   0.927   8.587  0.2273  0.3765 -0.8557
13999SOL     OW43212   6.553   1.753   1.586  0.4392 -0.0854  0.3399
13999SOL    HW143213   6.464   1.786   1.587  0.9116  1.4035 -1.6742
13999SOL    HW243214   6.554   1.684   1.653 -0.6912  3.7144  4.8424
14000SOL     OW43215   5.589   0.154   1.708 -0.1222 -0.2100 -0.5637
14000SOL    HW143216   5.661   0.209   1.739 -0.3156  0.8642 -1.9115
14000SOL    HW243217   5.632   0.079   1.667  0.3024  0.7437 -1.9506
14001SOL     OW43218   6.974   1.456   0.470 -0.9464 -0.7089  0.2807
14001SOL    HW143219   6.905   1.412   0.519 -0.9555  0.0898  1.0152
14001SOL    HW243220   7.048   1.395   0.470 -1.1937 -1.0062  0.6639
14002SOL     OW43221   7.301   2.059   0.158  0.1772  0.0431 -0.5332
14002SOL    HW143222   7.307   2.139   0.211 -0.5362 -0.1973 -0.0856
14002SOL    HW243223   7.288   1.989   0.221 -1.2429 -0.1901 -1.0447
14003SOL     OW43224   6.291   0.596   0.339 -0.4902 -0.1505  0.4314
14003SOL    HW143225   6.326   0.660   0.277 -0.0320  0.5918  1.4326
14003SOL    HW243226   6.207   0.570   0.301 -1.1101  1.7036  0.4166
14004SOL     OW43227   6.981   0.628   0.820 -0.0466  0.2002 -0.2250
14004SOL    HW143228   6.913   0.576   0.863  1.2494 -1.0477  0.4048
14004SOL    HW243229   7.045   0.646   0.890 -0.2163  2.2505 -0.5440
14005SOL     OW43230   7.330   1.687   0.517  0.3074  0.4175 -0.3926
14005SOL    HW143231   7.303   1.750   0.449  1.8671  0.3989 -1.0779
14005SOL    HW243232   7.426   1.694   0.519  0.4633 -1.3615  0.0759
14006SOL     OW43233   6.072   0.748   1.312  0.4640 -0.1110  0.1491
14006SOL    HW143234   6.141   0.814   1.315  0.4474 -0.1110  1.2459
14006SOL    HW243235   6.019   0.767   1.390  0.3421 -1.2863  0.3615
14007SOL     OW43236   7.006   0.498   1.216 -0.4247  0.0934  0.2918
14007SOL    HW143237   6.951   0.549   1.275 -0.2225 -0.3671  0.8849
14007SOL    HW243238   7.094   0.508   1.251 -0.3504 -0.4621  0.2668
14008SOL     OW43239   6.378   0.902   1.331  0.3798 -0.0467  0.0759
14008SOL    HW143240   6.472   0.899   1.312  0.3107 -0.9101 -0.2094
14008SOL    HW243241   6.361   0.992   1.359  1.1193  0.3596 -0.7513
14009SOL     OW43242   6.509   0.102   0.895  0.1296 -0.0275 -0.1753
14009SOL    HW143243   6.558   0.147   0.827 -0.7032 -0.7340 -1.2644
14009SOL    HW243244   6.437   0.161   0.917 -1.6469 -1.2133 -2.4263
14010SOL     OW43245   6.759   0.632   8.706 -0.2423  0.1704 -0.1245
14010SOL    HW143246   6.765   0.629   8.802 -1.1160 -0.2416 -0.0688
14010SOL    HW243247   6.704   0.557   8.684 -0.4246  0.5291 -0.9190
14011SOL     OW43248   5.864   0.878   0.710 -0.0466  0.5644  0.1069
14011SOL    HW143249   5.864   0.918   0.797 -1.9278  2.0073 -0.4941
14011SOL    HW243250   5.809   0.801   0.719  1.5744 -0.5747  0.6787
14012SOL     OW43251   5.327   2.225   1.515 -0.0131  0.0027 -0.1328
14012SOL    HW143252   5.308   2.170   1.590  0.3669 -1.1235 -0.8293
14012SOL    HW243253   5.267   2.299   1.523 -0.5027 -0.4809  0.8546
14013SOL     OW43254   6.409   0.356   0.056 -0.1578  0.0049 -0.3336
14013SOL    HW143255   6.323   0.376   0.018 -0.9961 -1.8829  0.4110
14013SOL    HW243256   6.388   0.314   0.140  1.5207  0.0617  0.1435
14014SOL     OW43257   7.230   0.910   1.438  0.0022  0.7807  0.2837
14014SOL    HW143258   7.255   0.875   1.524  1.0835 -1.6611 -0.9298
14014SOL    HW243259   7.138   0.886   1.429 -0.3296  1.7073  1.0271
14015SOL     OW43260   6.585   1.419   0.204 -0.0089 -0.4877  0.3533
14015SOL    HW143261   6.672   1.380   0.196 -0.8782 -2.5520  0.2811
14015SOL    HW243262   6.578   1.478   0.129  1.4588  0.0333  0.5899
14016SOL     OW43263   5.857   8.569   1.050  0.3982 -0.2915  0.0034
14016SOL    HW143264   5.938   8.614   1.072 -0.2885  1.0051 -0.0266
14016SOL    HW243265   5.860   8.559   0.955 -0.3791  1.6308 -0.2649
14017SOL     OW43266   6.984   1.673   0.306 -0.1429  0.0081  0.1834
14017SOL    HW143267   7.016   1.627   0.228 -0.8047  0.2322 -0.2221
14017SOL    HW243268   6.980   1.605   0.373 -1.5744 -0.6675 -0.5416
14018SOL     OW43269   6.169   2.151   0.366  1.0568  0.2188 -0.7180
14018SOL    HW143270   6.085   2.113   0.393  1.7017  0.3404  1.7625
14018SOL    HW243271   6.145   2.224   0.308 -0.5701  0.3253  0.0246
14019SOL     OW43272   6.919   1.229   0.774 -0.1292  0.0412 -0.3424
14019SOL    HW143273   6.948   1.175   0.848  0.5551 -0.8749 -1.2696
14019SOL    HW243274   6.999   1.254   0.729 -0.4349  1.7781 -0.0114
14020SOL     OW43275   6.801   1.694   1.413 -0.3332 -0.7767 -0.4578
14020SOL    HW143276   6.801   1.599   1.399 -1.4893 -0.4792 -3.1445
14020SOL    HW243277   6.719   1.711   1.461  0.0606 -1.1584  0.3569
14021SOL     OW43278   5.724   0.655   0.337 -0.1043 -0.0489  0.1407
14021SOL    HW143279   5.708   0.660   0.243  1.5045 -0.1467 -0.1620
14021SOL    HW243280   5.779   0.730   0.356 -0.4129 -0.0312  1.0209
14022SOL     OW43281   6.955   1.081   0.495  0.1117 -0.3791  0.1442
14022SOL    HW143282   7.006   1.044   0.567 -0.0303  1.5880  1.3012
14022SOL    HW243283   6.864   1.060   0.517  0.0990 -0.1312  0.3291
14023SOL     OW43284   6.288   1.377   1.539  0.6930 -0.3655  0.3608
14023SOL    HW143285   6.229   1.423   1.480  0.4401  0.6359  1.3614
14023SOL    HW243286   6.360   1.437   1.554  0.1508 -0.0635  2.0206
14024SOL     OW43287   6.613   2.093   8.399 -0.2092 -0.4255  0.1829
14024SOL    HW143288   6.633   2.056   8.485  0.6772  0.4107  0.3517
14024SOL    HW243289   6.533   2.145   8.413  1.0244  1.3458  1.0074
14025SOL     OW43290   5.464   0.441   1.538 -0.8770 -0.1842  0.1285
14025SOL    HW143291   5.378   0.469   1.508 -0.3596  0.7417 -0.5551
14025SOL    HW243292   5.459   0.345   1.539 -2.2505 -0.1368  1.1727
14026SOL     OW43293   6.883   1.863   8.397  0.0448  0.0345  1.0748
14026SOL    HW143294   6.874   1.941   8.452 -1.2318  2.1762 -1.9356
14026SOL    HW243295   6.795   1.824   8.397 -0.0843  0.3090  0.2516
14027SOL     OW43296   5.952   2.255   0.008  0.2737 -0.0620  0.3121
14027SOL    HW143297   5.931   2.214  -0.076  3.5906  0.6841 -1.0422
14027SOL    HW243298   5.915   2.343   0.002  1.1875  0.2788 -0.8121
14028SOL     OW43299   7.159   0.096   0.065 -0.0673  0.0062  0.2192
14028SOL    HW143300   7.217   0.110  -0.010 -0.4128  0.3433  0.0099
14028SOL    HW243301   7.203   0.140   0.138 -0.1645  0.4578  0.0107
14029SOL     OW43302   5.716   1.691   1.191  0.3978 -0.2012  0.8260
14029SOL    HW143303   5.768   1.621   1.151  0.8325  1.7943 -2.4001
14029SOL    HW243304   5.779   1.760   1.212 -0.5281  1.0389 -0.3368
14030SOL     OW43305   6.547   1.860   0.577  0.3825 -0.5899 -0.0347
14030SOL    HW143306   6.621   1.829   0.525 -0.9099 -0.7112 -1.9406
14030SOL    HW243307   6.505   1.926   0.521 -1.3131 -1.0180  0.6717
14031SOL     OW43308   6.124   0.824   0.567 -0.0560 -0.0693  0.3617
14031SOL    HW143309   6.041   0.862   0.596  0.7154  2.0855 -0.0606
14031SOL    HW243310   6.145   0.870   0.486  1.0504 -1.3228 -0.1002
14032SOL     OW43311   7.194   0.182   1.358 -0.4361  0.6134 -0.0588
14032SOL    HW143312   7.236   0.266   1.374  2.5740 -0.8942  0.7641
14032SOL    HW243313   7.136   0.169   1.433 -0.6196  1.7503  0.0068
14033SOL     OW43314   6.053   0.241   0.253 -0.0545 -0.5249  0.3292
14033SOL    HW143315   6.020   0.331   0.253 -0.7355 -0.7347 -1.6541
14033SOL    HW243316   6.144   0.249   0.283 -0.5678  0.6008  1.6824
14034SOL     OW43317   6.415   0.256   1.569 -0.2891  0.2843 -0.7709
14034SOL    HW143318   6.333   0.207   1.579 -1.0332  1.0431 -2.6867
14034SOL    HW243319   6.484   0.190   1.582 -1.2279 -0.7681 -0.9308
14035SOL     OW43320   6.526   1.973   0.821 -0.1694  0.1093  0.8151
14035SOL    HW143321   6.435   1.982   0.849 -0.3778  2.2867 -0.3350
14035SOL    HW243322   6.521   1.930   0.736 -0.3812  2.1816 -0.2893
14036SOL     OW43323   6.638   0.883   1.259 -0.0870 -0.0852 -0.0388
14036SOL    HW143324   6.718   0.890   1.207  0.1229  0.4790  0.3471
14036SOL    HW243325   6.650   0.804   1.311 -0.0587 -0.3476 -0.4342
14037SOL     OW43326   6.894   0.334   0.809  0.4409 -0.1179  0.1007
14037SOL    HW143327   6.835   0.363   0.739  0.6065 -0.9336 -0.3844
14037SOL    HW243328   6.904   0.240   0.795  1.6347 -0.0404  0.3611
14038SOL     OW43329   6.251   8.830   0.283 -0.0711 -0.2745 -0.4486
14038SOL    HW143330   6.315   8.851   0.351 -1.8406 -1.5013  1.7327
14038SOL    HW243331   6.263   8.897   0.217  0.6478  2.0335  1.8692
14039SOL     OW43332   6.775   1.462   8.764 -0.0086  0.3671  0.0912
14039SOL    HW143333   6.813   1.452   8.852  0.2989  2.1933  0.1946
14039SOL    HW243334   6.822   1.536   8.726 -0.1739 -0.3741 -1.6197
14040SOL     OW43335   6.078   8.663   0.377  0.3477 -0.1210 -0.0427
14040SOL    HW143336   6.010   8.729   0.391  0.4725 -0.0433  0.2127
14040SOL    HW243337   6.152   8.711   0.340  0.1609 -0.2561 -0.5920
14041SOL     OW43338   6.512   0.485   0.474 -0.9264 -0.3255 -0.0281
14041SOL    HW143339   6.476   0.479   0.562 -0.6199  0.5190  0.1634
14041SOL    HW243340   6.437   0.505   0.418 -1.0504 -0.4326  0.1014
14042SOL     OW43341   6.448   0.784   1.057  0.7550  0.0352  0.2692
14042SOL    HW143342   6.518   0.818   1.113 -0.5807  0.8868  1.5075
14042SOL    HW243343   6.379   0.851   1.062  1.3761  1.3610 -4.2815
14043SOL     OW43344   6.865   2.196   0.744  0.4650 -0.0203  0.2200
14043SOL    HW143345   6.875   2.106   0.713  0.9235  0.0764  0.0830
14043SOL    HW243346   6.865   2.249   0.665  2.4296  0.3004  0.3829
14044SOL     OW43347   6.113   1.095   0.777 -0.5636  0.3362  0.0443
14044SOL    HW143348   6.025   1.116   0.806 -1.1290  0.0645 -1.3772
14044SOL    HW243349   6.148   1.038   0.845 -0.7338  2.0002  1.6039
14045SOL     OW43350   6.975   2.151   0.290 -0.4574  0.0855 -0.0660
14045SOL    HW143351   6.972   2.221   0.355 -2.5756  0.8773 -0.9252
14045SOL    HW243352   7.065   2.150   0.259 -0.4125  2.6118 -0.2136
14046SOL     OW43353   6.387   0.679   8.710 -0.3474 -0.2216 -0.1429
14046SOL    HW143354   6.441   0.601   8.718  1.2087  0.6433 -1.5768
14046SOL    HW243355   6.445   0.751   8.731 -1.1160  0.6983 -1.0437
14047SOL     OW43356   5.624   0.986   1.170 -0.5084  0.1815 -0.1810
14047SOL    HW143357   5.541   1.009   1.128 -0.1291 -0.6183 -1.4444
14047SOL    HW243358   5.616   0.892   1.187  0.7949 -0.2901 -1.9505
14048SOL     OW43359   5.973   0.054   1.122 -0.0592  0.1762 -0.1564
14048SOL    HW143360   6.000   0.145   1.133 -1.6507  0.8413 -1.3274
14048SOL    HW243361   5.891   0.047   1.171  2.3331 -2.0362  4.1118
14049SOL     OW43362   6.715   0.546   0.691  0.0439 -0.0360 -0.1540
14049SOL    HW143363   6.680   0.627   0.727 -0.2541  0.2529 -1.0802
14049SOL    HW243364   6.638   0.495   0.666  0.2101 -0.8580  0.9312
14050SOL     OW43365   6.589   0.242   0.667 -0.3722  0.2365  0.2093
14050SOL    HW143366   6.523   0.311   0.660 -1.6223 -0.9681 -0.5444
14050SOL    HW243367   6.634   0.243   0.582 -0.4553  0.0683  0.1630
14051SOL     OW43368   7.151   1.200   0.064 -0.1647  0.0284 -0.1234
14051SOL    HW143369   7.224   1.187   0.003  0.5251  1.0329  0.4660
14051SOL    HW243370   7.076   1.159   0.020  1.0801 -2.6603  0.0658
14052SOL     OW43371   7.199   0.504   0.709 -0.4568 -0.0247  0.8803
14052SOL    HW143372   7.110   0.510   0.745  0.1173  0.5020  2.3120
14052SOL    HW243373   7.229   0.594   0.702 -1.0579  0.0362 -2.4939
14053SOL     OW43374   7.384   0.950   0.492  0.6176 -0.4549 -0.4761
14053SOL    HW143375   7.413   1.039   0.509 -0.1372 -0.1684 -0.6651
14053SOL    HW243376   7.451   0.914   0.432  1.7035 -0.5169  0.7345
14054SOL     OW43377   6.349   1.384   8.681  0.1313 -0.0771  0.1598
14054SOL    HW143378   6.308   1.372   8.766  0.0658  0.4105  0.2025
14054SOL    HW243379   6.276   1.391   8.619  0.1445  0.5944  0.2087
14055SOL     OW43380   7.075   1.478   0.135 -0.0641 -0.1297 -0.4755
14055SOL    HW143381   7.137   1.450   0.202  0.1813 -0.5727 -0.8816
14055SOL    HW243382   7.101   1.429   0.056  1.0399  1.9838 -1.5089
14056SOL     OW43383   6.947   1.016   8.776 -0.3368  0.1223  0.5062
14056SOL    HW143384   6.933   0.956   8.703 -0.6584  0.6158  0.1533
14056SOL    HW243385   6.996   0.965   8.840  1.6217  0.2476 -0.8302
14057SOL     OW43386   6.160   0.408   8.737 -0.2496  0.3571 -0.2730
14057SOL    HW143387   6.121   0.326   8.768  2.1896 -0.8950 -0.2451
14057SOL    HW243388   6.143   0.471   8.807 -0.5157 -0.6560  0.5955
14058SOL     OW43389   6.940   1.827   1.645  0.5039 -0.2950 -0.3015
14058SOL    HW143390   6.878   1.837   1.718  0.7208  2.0346 -0.3490
14058SOL    HW243391   6.905   1.754   1.594 -1.5006  0.1017  0.3744
14059SOL     OW43392   6.766   1.644   1.145  0.0296 -0.0269 -0.0416
14059SOL    HW143393   6.804   1.644   1.233  1.2288 -0.2497 -0.5273
14059SOL    HW243394   6.744   1.736   1.129  0.5152  0.1426  0.2160
14060SOL     OW43395   6.849   2.176   1.348  0.2833 -0.0192 -0.3408
14060SOL    HW143396   6.874   2.084   1.337 -0.2686 -0.1750 -0.3124
14060SOL    HW243397   6.831   2.207   1.259  1.2744  0.3063 -0.4480
14061SOL     OW43398   6.492   1.617   0.820 -0.2953  0.6084  0.5176
14061SOL    HW143399   6.437   1.649   0.891 -2.4100 -1.6417  0.0414
14061SOL    HW243400   6.548   1.551   0.862 -1.5952 -0.7733  0.1711
14062SOL     OW43401   7.191   1.763   0.781 -0.4649  0.6906 -0.3975
14062SOL    HW143402   7.119   1.725   0.830  0.7322  0.8496  1.5899
14062SOL    HW243403   7.217   1.695   0.719 -1.6227  0.2537 -0.4343
14063SOL     OW43404   6.318   0.086   1.256  0.3913 -0.2041  0.3617
14063SOL    HW143405   6.254   0.119   1.320 -0.4110 -0.8162 -0.1080
14063SOL    HW243406   6.372   0.163   1.235  0.2096  0.1744  1.2242
14064SOL     OW43407   6.295   0.922   1.757 -0.2354  0.5016  0.4101
14064SOL    HW143408   6.293   0.883   1.844 -0.8853  1.7172  0.9579
14064SOL    HW243409   6.326   1.011   1.771 -0.0964  0.6364 -0.6460
14065SOL     OW43410   6.373   0.786   0.163  0.1745 -0.7643  0.4707
14065SOL    HW143411   6.453   0.823   0.123  0.8754 -1.8870  0.7886
14065SOL    HW243412   6.323   0.753   0.089  0.1860 -0.4048  0.2996
14066SOL     OW43413   5.867   0.615   1.201 -0.0604 -0.2305 -0.0375
14066SOL    HW143414   5.871   0.525   1.232  1.1186  0.6166  2.5284
14066SOL    HW243415   5.942   0.658   1.242 -0.8325  2.0269 -0.8239
14067SOL     OW43416   6.914   0.743   1.095 -0.2461  0.2315  0.6467
14067SOL    HW143417   6.903   0.651   1.121 -0.3628 -0.1391 -0.6475
14067SOL    HW243418   7.009   0.757   1.098 -0.2402  0.1467  1.0466
14068SOL     OW43419   5.530   1.630   1.363 -0.6369 -0.4572 -0.6215
14068SOL    HW143420   5.444   1.615   1.324  0.0554 -0.5223 -2.1937
14068SOL    HW243421   5.587   1.648   1.288  0.7153 -0.3943  0.3960
14069SOL     OW43422   6.194   0.929   0.324 -0.1774  0.2461  0.1037
14069SOL    HW143423   6.256   0.864   0.292 -2.8944 -2.8958  0.6447
14069SOL    HW243424   6.202   1.002   0.263  2.2404 -1.0401 -1.2745
14070SOL     OW43425   6.065   0.671   0.855 -0.3342  0.0648 -0.6415
14070SOL    HW143426   6.039   0.579   0.854 -0.0094 -0.0303 -0.4294
14070SOL    HW243427   6.080   0.693   0.763 -0.4839 -0.0723 -0.6984
14071SOL     OW43428   6.843   1.790   8.723 -0.1655  0.0953 -0.9215
14071SOL    HW143429   6.844   1.882   8.694 -0.7143  0.0368 -1.1379
14071SOL    HW243430   6.857   1.739   8.644  1.9621  0.0229 -0.5513
14072SOL     OW43431   6.881   1.956   0.640 -0.1042 -0.0886 -0.4604
14072SOL    HW143432   6.822   1.894   0.682 -1.0721  0.6242 -0.7426
14072SOL    HW243433   6.857   1.953   0.547  1.9790 -1.6216 -1.0260
14073SOL     OW43434   7.101   0.522   0.325  0.4856  0.2955 -0.4119
14073SOL    HW143435   7.113   0.611   0.358  0.2284  0.1103  0.2040
14073SOL    HW243436   7.156   0.468   0.382  0.0940 -0.0242 -0.3318
14074SOL     OW43437   5.897   1.501   1.085 -0.7159  0.2603 -0.0107
14074SOL    HW143438   5.846   1.433   1.128 -2.5457  0.3178 -1.9059
14074SOL    HW243439   5.880   1.487   0.991  2.9761  0.1540 -0.8007
14075SOL     OW43440   5.767   1.143   1.549  0.1327  0.0531  0.0426
14075SOL    HW143441   5.794   1.106   1.633 -0.9830  0.0047  0.3954
14075SOL    HW243442   5.716   1.221   1.572 -0.1305  0.0750 -0.5929
14076SOL     OW43443   7.028   1.260   1.601  0.3574  0.6399  0.3425
14076SOL    HW143444   6.945   1.214   1.590  1.2850 -1.0064 -0.0565
14076SOL    HW243445   7.053   1.286   1.513  0.7193  0.2805  0.3344
14077SOL     OW43446   6.187   0.089   1.615  0.1046  0.0357 -0.0396
14077SOL    HW143447   6.205   0.025   1.685  0.7912  0.6198  0.3283
14077SOL    HW243448   6.145   0.038   1.546 -3.5535 -0.0662  2.0013
14078SOL     OW43449   5.958   0.268   1.622  0.1733 -0.4737  0.2995
14078SOL    HW143450   6.021   0.202   1.651  0.2714 -0.5993 -0.1908
14078SOL    HW243451   5.892   0.271   1.691  1.6983  1.0219  1.7834
14079SOL     OW43452   6.258   0.597   1.053 -0.3753  0.1147  0.2464
14079SOL    HW143453   6.332   0.657   1.055  0.0421 -0.3989  0.6231
14079SOL    HW243454   6.190   0.644   1.005  0.1529  0.6387 -0.0034
14080SOL     OW43455   6.694   1.067   0.523 -0.1177 -0.0489  0.1932
14080SOL    HW143456   6.684   1.032   0.612 -1.0313 -3.1808 -1.0137
14080SOL    HW243457   6.631   1.018   0.471  0.8195  1.2636 -2.3246
14081SOL     OW43458   6.750   0.288   8.393  0.1327  0.0758 -0.0266
14081SOL    HW143459   6.761   0.290   8.488 -2.2003  0.2691  0.3087
14081SOL    HW243460   6.745   0.195   8.371  1.7229 -0.0006 -0.1361
14082SOL     OW43461   5.699   0.491   1.406  0.0180 -0.3506 -0.9302
14082SOL    HW143462   5.673   0.408   1.365 -2.5637  1.0802 -2.4225
14082SOL    HW243463   5.636   0.503   1.477  1.3451 -0.3462  0.2987
14083SOL     OW43464   5.878   1.152   0.872  0.0028  0.3364  0.1940
14083SOL    HW143465   5.874   1.097   0.950 -1.8884  0.2990  0.1200
14083SOL    HW243466   5.789   1.186   0.862  0.3259  0.7596 -1.6532
14084SOL     OW43467   6.460   0.741   0.747  0.0810  0.3197  0.1334
14084SOL    HW143468   6.467   0.747   0.842  0.9685 -0.5353  0.1334
14084SOL    HW243469   6.432   0.829   0.719 -2.0904  0.0855  1.3221
14085SOL     OW43470   7.202   1.016   1.719  0.1253  0.0859  0.2711
14085SOL    HW143471   7.170   1.069   1.647 -0.6490  0.5177  0.9222
14085SOL    HW243472   7.140   1.031   1.790  0.2081 -1.2471  0.6507
14086SOL     OW43473   5.798   0.485   0.521  0.0042  0.2039 -0.6672
14086SOL    HW143474   5.769   0.549   0.456  0.4343  0.5896 -0.4781
14086SOL    HW243475   5.746   0.506   0.599  0.6219  0.7478 -0.3998
14087SOL     OW43476   7.486   0.511   0.353  0.1606 -0.1292 -0.3877
14087SOL    HW143477   7.552   0.445   0.330 -0.4520 -0.8655 -0.0646
14087SOL    HW243478   7.429   0.467   0.416  1.9144  1.8611  2.8702
14088SOL     OW43479   6.692   0.993   0.783  0.1457 -0.3606 -0.2397
14088SOL    HW143480   6.768   1.014   0.837 -0.2345  0.3792  0.0254
14088SOL    HW243481   6.624   1.053   0.813 -0.1347 -0.0673 -1.3948
14089SOL     OW43482   6.574   1.235   1.750 -0.2465 -0.2880 -0.7184
14089SOL    HW143483   6.560   1.322   1.714 -1.0249  0.1037  0.4588
14089SOL    HW243484   6.621   1.251   1.832 -0.8061 -0.9312 -0.2642
14090SOL     OW43485   6.849   2.112   1.603  0.4716  0.3586  0.4490
14090SOL    HW143486   6.872   2.171   1.531 -0.0749  1.5797  1.2422
14090SOL    HW243487   6.873   2.025   1.571  1.8801  1.0614 -0.5302
14091SOL     OW43488   5.971   0.853   1.550  0.2270  0.1089  0.3367
14091SOL    HW143489   5.966   0.946   1.530 -0.1331  0.5584  2.3304
14091SOL    HW243490   5.879   0.826   1.561  0.4004  0.0393  1.8292
14092SOL     OW43491   6.725   0.390   0.080 -0.0420  0.0226  0.4716
14092SOL    HW143492   6.636   0.357   0.094 -0.6539  1.3108 -0.2172
14092SOL    HW243493   6.725   0.477   0.120  1.0405 -0.1317  0.8301
14093SOL     OW43494   6.797   0.874   8.593 -0.1378 -0.0982  0.4725
14093SOL    HW143495   6.768   0.793   8.634 -0.8211 -0.4975 -0.7464
14093SOL    HW243496   6.716   0.920   8.570  0.1774 -0.3417 -1.2736
14094SOL     OW43497   6.603   1.562   0.483  0.3292  0.0649  0.1035
14094SOL    HW143498   6.597   1.533   0.392  1.9566 -0.7364  0.2189
14094SOL    HW243499   6.658   1.496   0.526 -1.8202 -0.5552  2.1233
14095SOL     OW43500   5.790   0.669   0.913 -0.4604 -0.0707 -0.1417
14095SOL    HW143501   5.880   0.681   0.884 -0.2343 -0.9907  0.1406
14095SOL    HW243502   5.795   0.671   1.009 -1.0346  1.8109 -0.1052
14096SOL     OW43503   5.978   0.403   0.849  0.6091  0.1485  0.0187
14096SOL    HW143504   5.902   0.361   0.889  0.8348 -0.3134 -0.0277
14096SOL    HW243505   6.018   0.334   0.796  0.6142  0.6054 -0.5792
14097SOL     OW43506   6.629   0.054   1.582  0.2634  0.5211  0.2084
14097SOL    HW143507   6.712   0.100   1.572 -0.5980  1.8317 -1.5551
14097SOL    HW243508   6.628  -0.009   1.510  0.4797 -0.7454  1.2941
14098SOL     OW43509   6.867   0.278   1.090  0.2220 -0.4287  0.4322
14098SOL    HW143510   6.909   0.294   1.005 -0.3931 -1.4592 -0.0858
14098SOL    HW243511   6.894   0.352   1.144  0.1653  0.5601 -0.8371
14099SOL     OW43512   5.746   1.440   0.852 -1.0637 -0.6899 -0.8147
14099SOL    HW143513   5.700   1.384   0.789 -1.4240 -0.5258 -0.7026
14099SOL    HW243514   5.676   1.486   0.898 -0.7636  0.0336 -1.0686
14100SOL     OW43515   6.195   1.729   0.722  0.4533 -0.2955 -0.2030
14100SOL    HW143516   6.210   1.804   0.779 -0.5598 -0.3115  0.0928
14100SOL    HW243517   6.114   1.690   0.753  0.5102 -1.0097 -0.9031
14101SOL     OW43518   6.488   1.161   0.884  0.6838 -0.7409 -0.1013
14101SOL    HW143519   6.422   1.230   0.875 -0.3471 -1.8872 -1.9472
14101SOL    HW243520   6.509   1.161   0.977  1.2058  2.4545 -0.1038
14102SOL     OW43521   5.407   1.040   1.037  0.1852 -0.1771  0.6008
14102SOL    HW143522   5.317   1.065   1.016  0.1193 -0.6905  0.2370
14102SOL    HW243523   5.451   1.037   0.952  1.1108  2.1090  0.9349
14103SOL     OW43524   5.704   0.863   1.533  0.4662  0.1925  0.6423
14103SOL    HW143525   5.625   0.832   1.487  0.6052  0.0953  0.4697
14103SOL    HW243526   5.703   0.958   1.522  0.6967  0.1379  0.1204
14104SOL     OW43527   6.788   1.179   1.532  0.3121 -0.5612 -0.2016
14104SOL    HW143528   6.765   1.206   1.620  1.7252  0.3767 -0.0884
14104SOL    HW243529   6.718   1.213   1.476 -0.4739 -0.9800  0.5078
14105SOL     OW43530   6.541   0.450   8.699  0.1828 -0.2415 -0.0456
14105SOL    HW143531   6.547   0.368   8.650  1.3525 -1.0640  1.4141
14105SOL    HW243532   6.520   0.424   8.788  0.3352  1.0627  0.3971
14106SOL     OW43533   7.496   0.542   0.968  0.2424  0.3795  0.2913
14106SOL    HW143534   7.406   0.513   0.983  0.1527  0.6624  0.3011
14106SOL    HW243535   7.543   0.521   1.049 -0.1645  1.6132  0.8751
14107SOL     OW43536   5.595   1.467   1.845  0.8386  0.0743 -0.0131
14107SOL    HW143537   5.551   1.381   1.845  2.9236 -1.0584  1.0346
14107SOL    HW243538   5.524   1.530   1.832 -0.8160 -1.7762 -0.4061
14108SOL     OW43539   6.259   0.248   0.939  0.1104 -0.2471 -1.1313
14108SOL    HW143540   6.202   0.318   0.909  1.0359 -0.1664 -2.8413
14108SOL    HW243541   6.207   0.168   0.930 -1.9333  0.2901  3.3428
14109SOL     OW43542   6.518   1.478   1.362 -0.7291 -0.0581 -0.3886
14109SOL    HW143543   6.487   1.568   1.365 -1.4142 -0.3031  1.0501
14109SOL    HW243544   6.460   1.434   1.300 -0.4787  0.4516 -0.9901
14110SOL     OW43545   6.173   0.661   8.846  0.3358 -0.6704 -0.4890
14110SOL    HW143546   6.244   0.681   8.785  0.4360  0.3471 -0.0599
14110SOL    HW243547   6.093   0.675   8.795  0.4277 -1.6144 -0.9107
14111SOL     OW43548   5.884   1.250   1.331 -0.8601  0.4284  0.9698
14111SOL    HW143549   5.841   1.199   1.400  1.6364 -2.4786  0.6201
14111SOL    HW243550   5.824   1.246   1.257 -0.9976 -1.7550  1.1172
14112SOL     OW43551   6.667   1.460   0.974 -0.2032 -0.1537 -0.2174
14112SOL    HW143552   6.704   1.504   1.050 -1.2621 -0.2700  0.3844
14112SOL    HW243553   6.735   1.397   0.948  0.9871  1.2528 -0.6062
14113SOL     OW43554   7.046   0.715   8.542 -0.4952  0.5716 -0.8308
14113SOL    HW143555   7.056   0.757   8.457 -0.2940 -2.3568 -2.3874
14113SOL    HW243556   6.953   0.725   8.562 -0.4577  1.6895 -1.1474
14114SOL     OW43557   7.385   2.143   0.584  0.2331  0.3443  0.2072
14114SOL    HW143558   7.450   2.080   0.616  0.3272 -0.4073 -1.4005
14114SOL    HW243559   7.312   2.089   0.554  0.6651  0.9159 -1.9959
14115SOL     OW43560   6.895   2.378   0.528  0.6505  0.0041 -0.5697
14115SOL    HW143561   6.977   2.427   0.524 -0.1997  1.6019  0.4977
14115SOL    HW243562   6.827   2.445   0.542 -0.6847 -1.3762 -0.0975
14116SOL     OW43563   6.258   1.316   0.886 -0.0535  0.6721 -0.0364
14116SOL    HW143564   6.245   1.408   0.866  0.3365  0.7375 -0.0023
14116SOL    HW243565   6.204   1.269   0.823 -0.9742  0.9445  0.5267
14117SOL     OW43566   6.357   1.707   1.358 -0.0357 -0.2295  0.2391
14117SOL    HW143567   6.264   1.711   1.380 -0.1086  0.9794 -0.2028
14117SOL    HW243568   6.392   1.792   1.387  1.4094 -1.4730  2.4185
14118SOL     OW43569   6.454   8.751   0.075  0.1353  0.2933  0.5482
14118SOL    HW143570   6.402   8.686   0.124  1.1471 -0.8672  0.1348
14118SOL    HW243571   6.394   8.783   0.007 -0.1257 -0.8819  0.1919
14119SOL     OW43572   7.583   0.282   0.197 -0.5594 -0.2213 -0.1637
14119SOL    HW143573   7.554   0.317   0.113 -1.2013 -1.1524 -0.3378
14119SOL    HW243574   7.637   0.206   0.175 -2.1328 -1.5165  0.2784
14120SOL     OW43575   6.835   1.329   0.179 -0.4130  0.4837 -0.7227
14120SOL    HW143576   6.876   1.246   0.154 -1.6216 -0.7177  1.0335
14120SOL    HW243577   6.908   1.383   0.210  0.3672  0.0273 -1.6836
14121SOL     OW43578   5.619   2.213   1.470  0.2244  0.0804  0.3089
14121SOL    HW143579   5.525   2.201   1.480  0.1445  0.4885  0.0444
14121SOL    HW243580   5.641   2.283   1.532  0.3966 -0.1752  0.5430
14122SOL     OW43581   6.699   0.703   0.389 -0.6436 -0.2933 -0.1503
14122SOL    HW143582   6.630   0.638   0.400 -0.8856 -0.1408 -0.7255
14122SOL    HW243583   6.658   0.786   0.411 -0.0299 -0.4382  1.7120
14123SOL     OW43584   6.322   1.683   1.038 -0.2573 -0.7754 -0.8620
14123SOL    HW143585   6.294   1.618   1.103  0.2752 -1.3709 -1.2136
14123SOL    HW243586   6.353   1.757   1.089 -1.3467 -0.5870 -0.4557
14124SOL     OW43587   5.934   1.965   8.728  0.1729 -0.0566  0.0480
14124SOL    HW143588   5.935   1.971   8.633  2.4914 -3.6578 -0.3716
14124SOL    HW243589   6.019   2.000   8.755 -0.7422  1.5840  0.9253
14125SOL     OW43590   6.673   1.886   1.080 -0.0250 -0.3136  0.1443
14125SOL    HW143591   6.636   1.917   0.997 -1.8127 -2.0534  0.1985
14125SOL    HW243592   6.622   1.931   1.147  3.0891  3.0655  0.5074
14126SOL     OW43593   7.420   0.130   0.600 -0.1266  0.2830 -0.4811
14126SOL    HW143594   7.511   0.100   0.600  0.2475  1.3178 -1.4766
14126SOL    HW243595   7.382   0.090   0.678  1.8035  1.6114  1.2695
14127SOL     OW43596   5.775   0.250   0.909 -0.6060  0.0860  0.5707
14127SOL    HW143597   5.737   0.214   0.829 -0.7243  2.5669 -0.6157
14127SOL    HW243598   5.763   0.182   0.975 -0.9779 -1.8548 -1.3822
14128SOL     OW43599   6.633   1.739   8.417 -0.7969  0.2354 -0.0085
14128SOL    HW143600   6.552   1.708   8.458 -0.9707  0.2519 -0.3380
14128SOL    HW243601   6.663   1.666   8.363 -1.3351  0.7000 -0.9723
14129SOL     OW43602   6.337   1.158   1.380 -0.1522 -0.1606  0.1267
14129SOL    HW143603   6.336   1.224   1.310  0.3373  0.6846  0.8953
14129SOL    HW243604   6.322   1.208   1.460 -1.8602 -1.2479  0.5488
14130SOL     OW43605   6.285   1.065   8.689 -0.1787  0.2723 -0.5319
14130SOL    HW143606   6.316   1.138   8.634  1.1840 -0.7169 -1.1401
14130SOL    HW243607   6.216   1.024   8.638  0.0137  0.3060 -0.8243
14131SOL     OW43608   6.861   2.046   8.605 -0.2159  0.1350 -0.3508
14131SOL    HW143609   6.938   2.049   8.662  0.5217 -1.7811 -1.1903
14131SOL    HW243610   6.810   2.123   8.631  2.5273  2.2201 -0.5889
14132SOL     OW43611   5.958   1.470   1.485  0.4803  0.1558  0.1648
14132SOL    HW143612   5.878   1.501   1.529 -0.7225 -1.8189 -0.5107
14132SOL    HW243613   5.929   1.395   1.434  2.8785 -0.8875  0.2364
14133SOL     OW43614   6.977   1.627   0.881 -0.0884  0.2997  0.4338
14133SOL    HW143615   6.932   1.650   0.800  0.4050 -0.2843 -0.0155
14133SOL    HW243616   6.947   1.693   0.945 -2.6346 -0.8680  0.5481
14134SOL     OW43617   6.740   1.346   0.588  0.0580 -0.3574 -0.2211
14134SOL    HW143618   6.767   1.338   0.680 -1.2549 -0.3790  0.1866
14134SOL    HW243619   6.722   1.256   0.561 -2.8361 -0.1285  0.5894
14135SOL     OW43620   6.681   8.742   0.653 -0.1575  0.2791 -0.8026
14135SOL    HW143621   6.598   8.719   0.694  0.4912  1.1972  1.1550
14135SOL    HW243622   6.734   8.663   0.662 -0.0054  0.4775  0.2615
14136SOL     OW43623   6.425   1.672   0.090 -0.2740  0.3550  0.8159
14136SOL    HW143624   6.426   1.669   0.186 -0.3489 -0.4272  0.8028
14136SOL    HW243625   6.333   1.661   0.067 -0.2192  0.2401  0.6510
14137SOL     OW43626   7.601   0.887   1.530 -0.1767  0.5205  0.0054
14137SOL    HW143627   7.530   0.870   1.592  0.3092  0.7547  0.6467
14137SOL    HW243628   7.561   0.937   1.459 -0.8174 -0.0450 -0.0408
14138SOL     OW43629   6.080   1.754   0.312  0.1397  0.4481  0.7184
14138SOL    HW143630   6.018   1.822   0.338 -0.0627 -0.3366  2.4565
14138SOL    HW243631   6.042   1.673   0.346  1.0132 -0.3692 -0.1849
14139SOL     OW43632   5.246   1.485   2.365 -0.7071 -0.3687  0.2582
14139SOL    HW143633   5.306   1.421   2.327  1.0252  0.5900  1.2533
14139SOL    HW243634   5.174   1.491   2.302 -0.6398 -2.8245 -0.1389
14140SOL     OW43635   6.509   0.447   1.389  0.5326  0.3103 -0.0498
14140SOL    HW143636   6.501   0.369   1.444  1.8883 -1.2551 -1.9270
14140SOL    HW243637   6.473   0.420   1.305 -0.4476  2.2707 -0.3191
14141SOL     OW43638   5.817   0.387   0.163  0.3009 -0.0671 -0.0097
14141SOL    HW143639   5.750   0.370   0.229  1.6237 -0.3454  1.3215
14141SOL    HW243640   5.793   0.331   0.090  0.2117 -1.8002  1.2739
14142SOL     OW43641   6.651   1.165   1.168  0.0524 -0.4224 -0.2992
14142SOL    HW143642   6.613   1.085   1.206 -1.2194  0.3769  0.1982
14142SOL    HW243643   6.730   1.135   1.122  0.9424 -1.6260  1.8728
14143SOL     OW43644   6.059   0.166   8.846 -0.3715  0.1391 -0.1271
14143SOL    HW143645   6.034   0.192   8.934  1.5154  1.1464  0.1782
14143SOL    HW243646   6.004   0.090   8.826 -0.1457 -0.7656  2.3205
14144SOL     OW43647   6.398   1.644   8.542  0.3116 -0.1127  0.3160
14144SOL    HW143648   6.316   1.689   8.522  0.3097 -1.0364 -2.0469
14144SOL    HW243649   6.378   1.592   8.619 -0.8746  0.8062  0.6638
14145SOL     OW43650   6.067   1.066   1.374  0.3855  0.3648  0.0086
14145SOL    HW143651   6.159   1.092   1.369  0.2420  0.7831 -0.4330
14145SOL    HW243652   6.018   1.144   1.351 -0.1981  1.0231  2.9919
14146SOL     OW43653   7.211   2.330   0.311  0.1133  0.4537  0.5067
14146SOL    HW143654   7.184   2.382   0.387 -0.8712 -1.0122  1.2231
14146SOL    HW243655   7.215   2.392   0.239  1.2728  1.9411  1.7759
14147SOL     OW43656   6.467   0.280   1.146  1.2444  0.7020 -0.0316
14147SOL    HW143657   6.394   0.307   1.090  1.3506  1.1737  0.0530
14147SOL    HW243658   6.501   0.201   1.104 -0.4818 -0.6407  0.9411
14148SOL     OW43659   7.042   1.479   1.755  0.0081  0.0642 -0.4199
14148SOL    HW143660   7.066   1.399   1.708  0.7601  0.7131 -1.1650
14148SOL    HW243661   7.043   1.548   1.688 -0.0631  0.7996  0.3200
14149SOL     OW43662   6.079   1.721   1.404 -0.1394 -0.0759  0.2392
14149SOL    HW143663   6.021   1.645   1.405 -0.2051 -0.0715 -1.1960
14149SOL    HW243664   6.021   1.796   1.415 -0.1685 -0.1715  0.7806
14150SOL     OW43665   6.860   1.015   1.002  0.5696  0.1635  0.2856
14150SOL    HW143666   6.951   1.041   1.016  1.6279 -2.4470 -1.2632
14150SOL    HW243667   6.860   0.920   1.009 -1.9252  0.0268 -0.5234
14151SOL     OW43668   6.807   0.643   0.137 -0.3644 -0.2281 -0.3600
14151SOL    HW143669   6.757   0.660   0.216  0.7782 -0.2908  0.4137
14151SOL    HW243670   6.887   0.695   0.148  0.1383 -0.8127 -1.1197
14152SOL     OW43671   6.457   0.879   0.442  0.5201 -0.1634 -1.0122
14152SOL    HW143672   6.390   0.925   0.492  2.6070  0.4127  1.4613
14152SOL    HW243673   6.436   0.786   0.452  0.3279 -0.0067  0.1462
14153SOL     OW43674   7.243   0.579   1.287  0.4149  0.0385 -0.4730
14153SOL    HW143675   7.281   0.527   1.358 -2.8533  0.0444  1.4227
14153SOL    HW243676   7.297   0.658   1.284 -0.2147  0.7613  3.1428
14154SOL     OW43677   7.020   1.393   1.305  0.3192  0.8569 -0.3228
14154SOL    HW143678   6.928   1.385   1.282  0.0082 -0.6361  1.2293
14154SOL    HW243679   7.067   1.351   1.233 -0.2387  1.0880 -0.8278
14155SOL     OW43680   6.610   1.344   8.594 -0.7996 -0.1942  0.6035
14155SOL    HW143681   6.522   1.343   8.632 -1.0076  3.1572  0.5589
14155SOL    HW243682   6.665   1.383   8.662  0.3433 -0.8728  0.0942
14156SOL     OW43683   5.774   1.853   0.781  0.4520  0.0316 -0.4388
14156SOL    HW143684   5.711   1.868   0.851 -1.5868  0.1402 -2.2041
14156SOL    HW243685   5.819   1.937   0.771  0.7789  0.0118  0.7110
14157SOL     OW43686   6.368   0.998   0.691  0.2875 -0.1623  0.0628
14157SOL    HW143687   6.417   1.049   0.755 -0.5317  0.2688  0.3565
14157SOL    HW243688   6.276   1.023   0.704 -0.1870 -1.9637  0.4604
14158SOL     OW43689   7.063   1.174   8.567 -0.2722 -0.4089 -0.0726
14158SOL    HW143690   7.009   1.142   8.640 -0.4655  0.6137  0.2492
14158SOL    HW243691   7.011   1.245   8.529  0.1462 -0.4742 -0.7718
14159SOL     OW43692   7.301   1.473   0.331 -0.0647 -0.3430  0.2439
14159SOL    HW143693   7.315   1.531   0.406  1.0343 -1.1753  0.7094
14159SOL    HW243694   7.265   1.393   0.369 -1.8119  0.0879 -0.4248
14160SOL     OW43695   5.834   1.410   1.972  0.5174  0.2096  0.6190
14160SOL    HW143696   5.902   1.422   1.905  0.7595 -1.2410  0.5719
14160SOL    HW243697   5.752   1.427   1.925  0.7075 -0.4491  0.0117
14161SOL     OW43698   6.149   1.323   0.353  0.8828  0.4588  0.4066
14161SOL    HW143699   6.104   1.240   0.366  0.7715  0.6784  1.5006
14161SOL    HW243700   6.086   1.390   0.379  0.4408  0.9987 -1.8535
14162SOL     OW43701   6.091   1.113   1.971  0.4106 -0.1163  0.5594
14162SOL    HW143702   6.150   1.181   2.004  0.2348 -0.2284  1.1144
14162SOL    HW243703   6.144   1.062   1.911  1.1085 -0.6742  1.6154
14163SOL     OW43704   7.193   8.792   0.875  0.2992  0.0434 -0.4342
14163SOL    HW143705   7.181   8.879   0.838  2.1116  0.8162  0.6701
14163SOL    HW243706   7.168   8.800   0.967 -1.8193 -1.2483 -0.8267
14164SOL     OW43707   6.070   0.542   0.541 -0.3219  0.1430 -0.6167
14164SOL    HW143708   5.977   0.529   0.554 -0.0061 -0.4801  1.3122
14164SOL    HW243709   6.080   0.635   0.522 -1.2531  0.3488 -0.0937
14165SOL     OW43710   7.154   1.983   0.629 -0.1491 -0.3296  0.0219
14165SOL    HW143711   7.063   1.958   0.617  0.0430  0.1721 -4.1210
14165SOL    HW243712   7.193   1.910   0.677 -2.5167 -0.8828  1.2389
14166SOL     OW43713   5.622   0.723   1.228 -0.0520  0.3071 -0.5704
14166SOL    HW143714   5.592   0.731   1.318 -0.2082 -0.0397 -0.5896
14166SOL    HW243715   5.698   0.666   1.232 -0.5241 -0.3594 -0.7432
14167SOL     OW43716   6.350   1.766   0.371  0.2458  0.2263  0.0866
14167SOL    HW143717   6.385   1.855   0.363  0.1098  0.2037 -0.8298
14167SOL    HW243718   6.257   1.775   0.353  0.3784 -0.2310 -0.8457
14168SOL     OW43719   7.244   0.468   1.043  0.2802 -0.3420 -0.2989
14168SOL    HW143720   7.227   0.517   1.123  0.1601  0.5374 -0.8580
14168SOL    HW243721   7.180   0.397   1.045 -1.8852  1.4768 -1.1379
14169SOL     OW43722   6.447   0.467   0.735  0.3646  0.4501 -0.0109
14169SOL    HW143723   6.376   0.440   0.793  2.5011 -1.2727  1.9879
14169SOL    HW243724   6.461   0.560   0.755  0.2773  0.1710  1.3891
14170SOL     OW43725   6.355   1.411   0.560  0.0928  0.0684  0.0434
14170SOL    HW143726   6.429   1.349   0.564 -0.5336 -0.6615  0.7864
14170SOL    HW243727   6.294   1.371   0.498  0.0738  0.3979 -0.1531
14171SOL     OW43728   6.284   1.976   0.925  0.6931 -0.7025 -0.1211
14171SOL    HW143729   6.198   1.959   0.887 -0.5474  3.4019  0.3740
14171SOL    HW243730   6.270   1.974   1.020  0.5851  1.7201 -0.0214
14172SOL     OW43731   7.347   0.085   8.722  0.1189  0.3099 -0.2451
14172SOL    HW143732   7.365   0.013   8.782 -0.8785  0.8517  0.7443
14172SOL    HW243733   7.433   0.115   8.693  0.6373  0.1867  1.1015
14173SOL     OW43734   6.936   0.718   0.532  0.1353  0.1153 -0.4047
14173SOL    HW143735   6.850   0.694   0.496  0.9505 -0.2903 -2.1476
14173SOL    HW243736   6.945   0.663   0.610 -0.9310 -0.2527 -0.5223
14174SOL     OW43737   6.891   0.082   0.736 -0.0412 -0.0875 -0.2333
14174SOL    HW143738   6.955   0.038   0.680  0.3607  0.7654 -0.4762
14174SOL    HW243739   6.808   0.072   0.690 -0.1494 -1.4826  0.2455
14175SOL     OW43740   5.985   1.169   0.557 -0.5751  0.2955  0.2527
14175SOL    HW143741   5.908   1.118   0.583  0.2151 -0.3710  1.3658
14175SOL    HW243742   6.047   1.157   0.629  0.7428  0.4452 -0.8182
14176SOL     OW43743   6.517   1.852   8.760 -0.5116 -0.0067 -0.1284
14176SOL    HW143744   6.508   1.782   8.824  0.5701 -1.0590 -1.0685
14176SOL    HW243745   6.599   1.833   8.714 -0.8639  1.1269 -1.3127
14177SOL     OW43746   5.798   0.480   1.958  0.0204  0.1821  0.6357
14177SOL    HW143747   5.704   0.494   1.949 -0.1565  1.0322  3.0527
14177SOL    HW243748   5.820   0.514   2.044  2.4720 -0.5149  0.3925
14178SOL     OW43749   6.155   8.833   2.949 -0.3953  0.3641  0.6356
14178SOL    HW143750   6.128   8.857   3.038 -0.4919 -1.0216  1.0079
14178SOL    HW243751   6.101   8.757   2.928  2.2072 -1.7092  0.8916
14179SOL     OW43752   5.148   0.562   2.585 -0.3664  0.1524 -0.6248
14179SOL    HW143753   5.222   0.523   2.631 -1.5328 -0.3856  0.8694
14179SOL    HW243754   5.174   0.653   2.570  0.3036  0.1657  0.5379
14180SOL     OW43755   6.116   1.667   2.876  0.6409 -0.3455  0.1885
14180SOL    HW143756   6.083   1.578   2.862  0.6616 -0.4844  0.9873
14180SOL    HW243757   6.041   1.724   2.858  0.2595 -0.6032  0.9144
14181SOL     OW43758   6.684   1.219   2.025  0.7622 -0.2800  0.0394
14181SOL    HW143759   6.668   1.142   2.079  0.7148 -0.5142 -0.3053
14181SOL    HW243760   6.614   1.280   2.048  0.0486 -0.8325 -0.5970
14182SOL     OW43761   6.910   0.605   2.342 -0.3954  0.0949 -0.5980
14182SOL    HW143762   7.001   0.624   2.318 -0.8706  3.1525 -0.3561
14182SOL    HW243763   6.858   0.669   2.293 -2.2814 -0.5076  0.5208
14183SOL     OW43764   7.155   0.666   2.249  0.8127  0.2879  0.4446
14183SOL    HW143765   7.180   0.576   2.272  0.8024  0.1657 -0.0148
14183SOL    HW243766   7.220   0.721   2.293  0.9190  0.0487  0.5869
14184SOL     OW43767   6.257   0.876   2.492 -0.5651  0.5020 -0.0372
14184SOL    HW143768   6.244   0.786   2.522 -0.4563  0.5635  0.2028
14184SOL    HW243769   6.352   0.889   2.497 -0.4432  0.2095 -1.3042
14185SOL     OW43770   6.210   0.426   3.704  0.2086  0.5560 -0.3095
14185SOL    HW143771   6.162   0.382   3.634  0.2116  1.8976 -1.1863
14185SOL    HW243772   6.205   0.519   3.682  2.5114  0.8129 -0.0090
14186SOL     OW43773   5.862   0.943   2.018 -0.4840 -0.0315  0.1882
14186SOL    HW143774   5.957   0.947   2.023 -0.5169  3.2117 -0.1917
14186SOL    HW243775   5.845   0.869   1.958  1.8731  0.5674 -1.3748
14187SOL     OW43776   6.381   1.275   3.477  0.5125 -0.0651  0.2825
14187SOL    HW143777   6.379   1.348   3.415  1.1476 -1.2420 -1.1957
14187SOL    HW243778   6.412   1.314   3.559 -1.2953  1.7314  0.1875
14188SOL     OW43779   6.010   1.410   2.840 -0.0959 -0.1723 -0.1467
14188SOL    HW143780   6.022   1.419   2.745 -2.9185  2.5052 -0.3932
14188SOL    HW243781   5.927   1.362   2.849 -1.1492  1.7445  0.8528
14189SOL     OW43782   7.293   1.119   3.107 -0.5898 -0.3629  0.8236
14189SOL    HW143783   7.322   1.113   3.198 -1.1903 -0.4138  1.0161
14189SOL    HW243784   7.318   1.207   3.080  0.8309 -0.7984  0.5894
14190SOL     OW43785   6.049   0.768   3.417 -0.4914 -1.1957  0.1053
14190SOL    HW143786   6.094   0.768   3.333 -1.3590 -0.9515 -0.3726
14190SOL    HW243787   6.109   0.723   3.477  0.0479 -1.5429 -0.6835
14191SOL     OW43788   7.278   0.450   2.327  0.3189  0.2857  0.0651
14191SOL    HW143789   7.323   0.419   2.406 -1.3364 -1.3278  0.4526
14191SOL    HW243790   7.230   0.373   2.295 -2.7516  2.0036  0.1137
14192SOL     OW43791   6.044   1.752   2.010 -0.2148  0.0178  0.0827
14192SOL    HW143792   6.098   1.826   1.983  0.6331 -0.5201  0.2812
14192SOL    HW243793   6.004   1.720   1.929  2.5332 -1.7621 -0.6886
14193SOL     OW43794   6.209   1.106   3.391  0.4238  0.1721  0.6006
14193SOL    HW143795   6.159   1.076   3.468 -0.3369 -0.1094  0.0082
14193SOL    HW243796   6.283   1.154   3.428  0.0007  0.1474  1.5129
14194SOL     OW43797   5.709   1.957   2.334 -0.4757 -0.2414  0.3096
14194SOL    HW143798   5.701   1.877   2.386 -0.5758  0.3660  1.2691
14194SOL    HW243799   5.719   2.027   2.399 -1.3478  0.6383 -0.4598
14195SOL     OW43800   5.895   0.925   2.418  0.7658  0.1296  0.5697
14195SOL    HW143801   5.865   0.973   2.495  1.8239  2.3622 -0.3424
14195SOL    HW243802   5.817   0.879   2.386 -0.9327  3.0527  0.1910
14196SOL     OW43803   5.840   1.803   2.892  0.6067 -0.1571 -0.2391
14196SOL    HW143804   5.821   1.836   2.980  2.1447 -1.3364  0.5952
14196SOL    HW243805   5.777   1.732   2.879 -0.7106  1.0631 -0.8097
14197SOL     OW43806   5.845   1.142   1.790 -0.5594 -0.1352  0.3465
14197SOL    HW143807   5.883   1.065   1.831 -1.6694  0.1667  2.0132
14197SOL    HW243808   5.915   1.208   1.795 -0.2420 -0.4811  0.5853
14198SOL     OW43809   7.097   0.184   3.647 -0.4176  0.5865  0.2227
14198SOL    HW143810   7.020   0.209   3.595 -0.0479 -1.2983 -1.3320
14198SOL    HW243811   7.067   0.111   3.700 -0.1197  0.9134  0.8515
14199SOL     OW43812   5.762   0.399   2.595 -0.1784 -0.1717  0.3781
14199SOL    HW143813   5.684   0.372   2.642 -0.2679 -1.2001 -0.3394
14199SOL    HW243814   5.785   0.325   2.540 -0.9629  1.4954 -2.3847
14200SOL     OW43815   7.102   1.889   1.924 -0.3594 -0.4818  0.3909
14200SOL    HW143816   7.195   1.878   1.904 -0.4495 -0.0253 -0.3030
14200SOL    HW243817   7.058   1.886   1.839 -0.8066  0.9867  0.5345
14201SOL     OW43818   5.610   1.788   1.939 -0.2540  0.3154  0.1454
14201SOL    HW143819   5.662   1.720   1.982  0.6350  0.4220 -0.7116
14201SOL    HW243820   5.521   1.773   1.969  0.0904 -0.5785  0.7788
14202SOL     OW43821   6.978   1.043   1.903 -0.0304  0.1569 -0.7023
14202SOL    HW143822   6.898   1.036   1.955 -0.9016  0.7956 -1.8922
14202SOL    HW243823   7.045   1.071   1.965 -0.1210 -2.6766  0.8427
14203SOL     OW43824   7.341   1.154   2.303 -0.1212  0.5851 -0.6866
14203SOL    HW143825   7.410   1.219   2.318 -1.4920  2.2614 -1.3157
14203SOL    HW243826   7.387   1.080   2.264  1.5927  0.8834  0.6382
14204SOL     OW43827   5.729   0.461   3.105 -0.2839  0.1929  0.1126
14204SOL    HW143828   5.774   0.469   3.190 -1.6226 -0.3450  0.9002
14204SOL    HW243829   5.756   0.538   3.056  0.9091  0.2563  0.8303
14205SOL     OW43830   6.067   1.433   2.571  0.6381  0.2916  0.1403
14205SOL    HW143831   6.020   1.385   2.503 -0.7522  0.2799  1.0711
14205SOL    HW243832   6.083   1.520   2.533 -0.4971  0.4228 -0.0707
14206SOL     OW43833   6.707   0.820   2.961  0.0256  0.1462 -0.0438
14206SOL    HW143834   6.802   0.828   2.954  0.0632  0.4487  0.6956
14206SOL    HW243835   6.681   0.895   3.014 -0.7946  0.8142 -1.3436
14207SOL     OW43836   6.424   8.829   2.422 -0.5656  0.3532  0.3333
14207SOL    HW143837   6.484   8.766   2.462 -0.1097  1.6158  1.7252
14207SOL    HW243838   6.343   8.780   2.408  0.0778 -0.7833  0.4693
14208SOL     OW43839   6.062   1.046   2.896  0.0810 -0.4966  0.7728
14208SOL    HW143840   6.140   0.994   2.913  1.9942  1.9882  0.2593
14208SOL    HW243841   6.036   1.081   2.981  1.0842  0.6642  0.6206
14209SOL     OW43842   6.902   0.886   1.714 -0.3059  0.0735 -0.1457
14209SOL    HW143843   6.949   0.931   1.784 -0.8158 -1.9323  1.5564
14209SOL    HW243844   6.814   0.871   1.750 -0.4713 -1.3161 -1.0664
14210SOL     OW43845   6.540   1.773   3.176  0.1692  0.2051 -0.4288
14210SOL    HW143846   6.470   1.821   3.221  0.1887 -0.5085  0.3955
14210SOL    HW243847   6.497   1.732   3.101 -0.3939 -0.5307  0.2805
14211SOL     OW43848   5.822   0.486   3.824  0.0277  0.0856 -0.2497
14211SOL    HW143849   5.776   0.470   3.907  2.3519 -1.1902  0.9204
14211SOL    HW243850   5.853   0.576   3.831 -0.2200  0.1495  0.0676
14212SOL     OW43851   6.980   0.882   2.892  0.2366  0.6879  0.0637
14212SOL    HW143852   7.026   0.881   2.808  0.6717 -0.7230  0.2777
14212SOL    HW243853   7.006   0.964   2.933  1.5723  0.5146 -0.3727
14213SOL     OW43854   7.406   2.046   2.289 -0.0924  0.0231  0.0411
14213SOL    HW143855   7.480   2.046   2.229 -1.1798 -0.7571 -1.3641
14213SOL    HW243856   7.370   1.957   2.283 -1.9055  0.7362 -0.3105
14214SOL     OW43857   6.261   0.483   1.717  0.7293 -0.2672 -0.3902
14214SOL    HW143858   6.226   0.464   1.804  2.6314 -0.2414  0.4304
14214SOL    HW243859   6.336   0.424   1.708  0.4407 -0.4233 -2.1249
14215SOL     OW43860   7.082   0.272   2.713 -0.1161 -0.0067  0.7673
14215SOL    HW143861   7.018   0.267   2.641  1.2563  0.5880 -0.5638
14215SOL    HW243862   7.044   0.219   2.783 -2.1828  0.5489  0.1422
14216SOL     OW43863   7.458   1.156   1.939  0.1985 -0.1447  0.5494
14216SOL    HW143864   7.491   1.150   1.850  0.5777 -0.6797  0.7252
14216SOL    HW243865   7.493   1.239   1.972 -1.8143  1.2408 -0.5438
14217SOL     OW43866   6.009   0.319   3.227  0.4860  0.0925  1.2049
14217SOL    HW143867   6.048   0.377   3.162 -1.3173 -0.1865 -0.2053
14217SOL    HW243868   5.952   0.376   3.279 -1.8913 -0.3853 -0.6699
14218SOL     OW43869   7.158   0.561   3.517 -0.3653 -0.2509 -0.1196
14218SOL    HW143870   7.085   0.535   3.461 -0.1805 -0.0184 -0.4762
14218SOL    HW243871   7.123   0.630   3.573 -1.1120 -1.8492  1.4614
14219SOL     OW43872   6.544   0.874   2.752 -0.3583 -0.4656  0.5472
14219SOL    HW143873   6.605   0.841   2.818  0.1767 -0.4427  0.0709
14219SOL    HW243874   6.588   0.949   2.714 -0.2419 -1.0429 -0.4851
14220SOL     OW43875   6.542   0.452   3.495  0.0149  0.5962 -0.0008
14220SOL    HW143876   6.531   0.546   3.507 -0.1126  0.5175  0.5411
14220SOL    HW243877   6.507   0.434   3.408  0.1086  1.0596 -0.1353
14221SOL     OW43878   6.656   0.438   1.728  0.2851 -0.1667  0.3045
14221SOL    HW143879   6.683   0.526   1.753  0.9173 -0.6689  1.4425
14221SOL    HW243880   6.562   0.446   1.712  0.6232  1.1006 -1.4618
14222SOL     OW43881   5.818   1.174   2.932  0.0435 -0.0056 -0.5246
14222SOL    HW143882   5.901   1.134   2.905  0.0954  0.3490 -0.8979
14222SOL    HW243883   5.751   1.110   2.908  0.0454  0.4823 -1.9133
14223SOL     OW43884   5.775   1.729   3.463 -0.4429  0.6150 -0.0539
14223SOL    HW143885   5.720   1.654   3.488  1.7645 -1.1830 -0.2840
14223SOL    HW243886   5.813   1.759   3.545  0.1461  0.2152 -0.1686
14224SOL     OW43887   6.773   0.293   2.001  0.1135  0.2015 -0.1757
14224SOL    HW143888   6.857   0.325   1.966  0.4702 -1.8219 -1.2870
14224SOL    HW243889   6.737   0.239   1.931 -1.2507 -0.4596  0.9980
14225SOL     OW43890   7.429   0.657   3.647 -0.1763  0.6499 -0.1477
14225SOL    HW143891   7.420   0.610   3.564 -3.3612  0.5038  0.1470
14225SOL    HW243892   7.498   0.609   3.694 -0.8788 -1.5847 -1.2550
14226SOL     OW43893   6.792   1.098   2.396 -0.2688 -0.2464  0.5470
14226SOL    HW143894   6.888   1.098   2.391 -0.1936  3.3504 -1.9860
14226SOL    HW243895   6.765   1.026   2.338  0.9106 -0.2386 -0.0462
14227SOL     OW43896   6.461   0.064   3.089 -0.3786 -0.1662 -0.3791
14227SOL    HW143897   6.438   0.088   3.179  0.7697  0.3761 -0.2152
14227SOL    HW243898   6.488   0.146   3.049  0.9187 -0.7018 -0.6495
14228SOL     OW43899   6.628   1.613   2.438  0.0293  0.1286 -0.0085
14228SOL    HW143900   6.534   1.630   2.435  0.0034 -0.1016 -0.6565
14228SOL    HW243901   6.636   1.518   2.427  0.3922  0.3042 -1.4350
14229SOL     OW43902   5.553   1.808   2.694 -0.1674 -0.0361 -0.2317
14229SOL    HW143903   5.589   1.727   2.659  1.4625  0.8210 -0.6290
14229SOL    HW243904   5.511   1.850   2.619  1.4925  0.8054 -0.7356
14230SOL     OW43905   7.177   1.103   2.509  0.1005 -0.0986 -0.9485
14230SOL    HW143906   7.133   1.032   2.462  1.5348 -2.0739  0.5173
14230SOL    HW243907   7.254   1.124   2.457  0.5650 -0.8068 -0.5550
14231SOL     OW43908   6.412   0.911   3.289  0.4111 -0.1771  0.0621
14231SOL    HW143909   6.473   0.978   3.258  0.2193 -0.0244  0.0146
14231SOL    HW243910   6.351   0.958   3.346  0.0009 -0.2254 -0.3286
14232SOL     OW43911   6.818   0.559   2.677  0.0097 -0.2172  0.0374
14232SOL    HW143912   6.874   0.515   2.614  0.4887  1.6209 -0.8880
14232SOL    HW243913   6.877   0.585   2.748  0.3831  1.5617 -0.8552
14233SOL     OW43914   5.887   1.330   3.400  0.0032 -0.6332  0.0814
14233SOL    HW143915   5.852   1.247   3.367  1.8695 -1.4686  0.0617
14233SOL    HW243916   5.857   1.395   3.337 -1.7806 -1.2110  0.2827
14234SOL     OW43917   6.479   1.389   2.092 -0.2417  0.0788  0.0627
14234SOL    HW143918   6.485   1.484   2.099  0.3783  0.0217  0.3394
14234SOL    HW243919   6.395   1.367   2.131  0.1767  0.4029  1.1719
14235SOL     OW43920   5.854   0.497   3.364 -0.2153 -0.4857 -1.0081
14235SOL    HW143921   5.870   0.442   3.441 -1.2649 -1.5200 -1.4899
14235SOL    HW243922   5.820   0.579   3.399  0.8462 -0.3192 -0.3074
14236SOL     OW43923   6.727   1.489   1.876  0.4836  0.0651 -0.8014
14236SOL    HW143924   6.764   1.422   1.933 -1.1904  1.0338  1.5555
14236SOL    HW243925   6.762   1.571   1.909  1.1017  0.5455 -2.5374
14237SOL     OW43926   6.253   2.230   2.679 -0.3764  0.4130 -0.1440
14237SOL    HW143927   6.282   2.206   2.591  0.4861 -0.1370  0.2784
14237SOL    HW243928   6.219   2.148   2.716 -3.7790  1.2281 -1.0508
14238SOL     OW43929   7.169   0.062   1.908  0.2506  0.1351  0.0640
14238SOL    HW143930   7.224   0.109   1.846  1.0919 -1.4569 -0.4700
14238SOL    HW243931   7.106   0.014   1.854  0.4284 -0.5824  0.4741
14239SOL     OW43932   5.433   1.875   2.922 -0.2482 -0.1306 -0.4944
14239SOL    HW143933   5.494   1.864   2.849  1.8163  1.3456  0.8632
14239SOL    HW243934   5.452   1.800   2.979  0.2670  0.2741 -0.1211
14240SOL     OW43935   6.360   1.541   2.443 -0.2786 -0.0633 -0.2414
14240SOL    HW143936   6.329   1.581   2.524  0.0980  0.0122 -0.1329
14240SOL    HW243937   6.339   1.605   2.375  0.0545  0.1919 -0.1079
14241SOL     OW43938   6.039   0.690   1.866  0.2825  0.5985 -0.3868
14241SOL    HW143939   5.967   0.633   1.889 -1.1858  1.6044 -2.2152
14241SOL    HW243940   6.071   0.724   1.949 -0.8601 -0.4349  0.4969
14242SOL     OW43941   7.068   8.804   3.819 -0.4912 -0.5772 -0.8617
14242SOL    HW143942   6.993   8.846   3.861  0.3934 -1.2452  1.5243
14242SOL    HW243943   7.029   8.743   3.756 -1.8570  0.8175 -1.4399
14243SOL     OW43944   6.002   0.094   1.988  0.2780 -0.0309  0.5242
14243SOL    HW143945   6.075   0.057   1.938  0.1471  0.5429 -0.1129
14243SOL    HW243946   6.029   0.185   2.005 -0.7100  0.4951 -0.5931
14244SOL     OW43947   6.081   0.379   3.955  0.3191 -1.0902 -0.8316
14244SOL    HW143948   6.130   0.376   3.873  1.3644 -0.3523 -0.2527
14244SOL    HW243949   5.999   0.424   3.933  2.0689  2.4585 -0.7894
14245SOL     OW43950   6.155   1.652   3.143  0.3784 -0.2317 -0.5106
14245SOL    HW143951   6.063   1.648   3.170  0.4793  3.0189  0.6878
14245SOL    HW243952   6.152   1.684   3.053  0.3222  0.1356 -0.3810
14246SOL     OW43953   7.033   8.844   3.160 -0.4806 -0.3286  0.7909
14246SOL    HW143954   7.089   8.878   3.090 -0.0961  0.0166  1.2642
14246SOL    HW243955   7.019   8.919   3.219 -0.1944 -0.8064  1.4745
14247SOL     OW43956   6.134   1.116   2.383  0.1294 -0.1771 -0.1509
14247SOL    HW143957   6.182   1.037   2.408  2.2825  0.2997 -2.3963
14247SOL    HW243958   6.042   1.095   2.401  0.7527 -2.6509  0.6005
14248SOL     OW43959   6.260   0.820   2.030 -0.8793 -0.1248 -0.1946
14248SOL    HW143960   6.221   0.829   2.117  1.2108  1.7551  0.6453
14248SOL    HW243961   6.295   0.731   2.028 -1.3077 -0.3262  0.7214
14249SOL     OW43962   6.121   0.349   2.167  0.1668  0.8019 -0.5813
14249SOL    HW143963   6.093   0.425   2.217 -1.3898 -0.5478  0.7281
14249SOL    HW243964   6.210   0.331   2.199 -0.4861  0.4661  1.1922
14250SOL     OW43965   7.008   1.413   2.011 -0.5018 -0.2807 -0.0180
14250SOL    HW143966   7.063   1.481   2.050 -0.0562 -0.5777 -0.1260
14250SOL    HW243967   7.031   1.414   1.918 -0.4967 -0.5698 -0.0214
14251SOL     OW43968   5.771   0.267   2.165 -0.2607  0.0602  0.3350
14251SOL    HW143969   5.803   0.357   2.164 -2.2312  0.8896  2.6591
14251SOL    HW243970   5.802   0.232   2.249 -0.5164 -1.0303 -0.0121
14252SOL     OW43971   6.771   8.776   2.108 -0.4887 -0.4395 -0.0110
14252SOL    HW143972   6.727   8.825   2.040  0.9458  0.4072 -0.3761
14252SOL    HW243973   6.827   8.840   2.152  1.2242 -1.6467 -0.3147
14253SOL     OW43974   6.321   0.732   3.106  1.3555 -0.2786 -0.3943
14253SOL    HW143975   6.346   0.772   3.190  0.2334  0.0455 -0.2049
14253SOL    HW243976   6.317   0.806   3.045 -1.0565  0.0154  0.0304
14254SOL     OW43977   6.647   1.113   2.638  0.3393 -0.2563 -0.3109
14254SOL    HW143978   6.705   1.143   2.708 -0.1592 -2.3741  1.1005
14254SOL    HW243979   6.701   1.117   2.558  1.9113 -0.5930  0.6874
14255SOL     OW43980   5.697   0.790   2.205  0.0972  0.0571  0.1157
14255SOL    HW143981   5.733   0.844   2.135  0.1157 -0.2365 -0.1026
14255SOL    HW243982   5.610   0.828   2.222  0.0914  0.1261 -0.0680
14256SOL     OW43983   6.657   1.352   2.924 -0.4449 -0.0200 -0.2719
14256SOL    HW143984   6.581   1.297   2.905 -1.2354  0.8194  0.3045
14256SOL    HW243985   6.732   1.304   2.889 -0.9369 -1.9865  1.1841
14257SOL     OW43986   6.169   0.478   1.282  0.0134 -0.0808  0.4083
14257SOL    HW143987   6.146   0.567   1.310  4.8649  1.5631  0.1402
14257SOL    HW243988   6.209   0.490   1.196 -0.2488 -2.8081 -0.1959
14258SOL     OW43989   5.293   0.439   3.187 -0.1303  0.3683  0.2185
14258SOL    HW143990   5.335   0.368   3.235 -0.6738 -0.0950  0.0272
14258SOL    HW243991   5.332   0.518   3.221 -1.8255  0.2055  2.8359
14259SOL     OW43992   6.083   0.060   3.219  0.0677  0.0713  0.6801
14259SOL    HW143993   6.037   0.142   3.235 -0.2540  0.4889 -1.9634
14259SOL    HW243994   6.025  -0.007   3.253 -0.9149  0.7955  0.4664
14260SOL     OW43995   5.843   0.545   2.198 -0.2776  0.3005  0.0416
14260SOL    HW143996   5.906   0.573   2.264 -0.9242  0.2890  0.6894
14260SOL    HW243997   5.771   0.608   2.205 -0.4680  0.1525 -0.4808
14261SOL     OW43998   6.680   8.586   2.320  0.6392  0.2158  0.2082
14261SOL    HW143999   6.731   8.506   2.308  1.6334  0.9097 -0.3097
14261SOL    HW244000   6.682   8.629   2.235  1.5398  1.5976  0.8959
14262SOL     OW44001   6.478   1.005   2.407 -0.7442 -0.4368  0.2394
14262SOL    HW144002   6.529   1.035   2.482  1.0579  0.5292 -1.2985
14262SOL    HW244003   6.428   1.082   2.379 -0.5393 -0.4645 -0.2201
14263SOL     OW44004   7.290   0.759   2.628  0.2001  0.1141 -0.0024
14263SOL    HW144005   7.196   0.764   2.610  0.0761 -1.3510  0.0863
14263SOL    HW244006   7.330   0.746   2.541  0.5122  2.4705 -0.2540
14264SOL     OW44007   7.032   0.721   2.029 -0.0075 -0.1123  0.8026
14264SOL    HW144008   7.051   0.680   1.944  1.4072  1.2403  0.4238
14264SOL    HW244009   7.087   0.674   2.091  0.5949  0.3148  0.5968
14265SOL     OW44010   6.023   1.507   2.157  0.3963  0.1568 -0.0644
14265SOL    HW144011   5.950   1.497   2.096  0.0854 -0.4129  0.3995
14265SOL    HW244012   6.050   1.598   2.146 -1.4540  0.8757  0.9431
14266SOL     OW44013   7.615   1.239   2.408  0.2091 -0.1359  0.3744
14266SOL    HW144014   7.615   1.334   2.398 -0.1548  0.3653  3.9851
14266SOL    HW244015   7.705   1.217   2.434  0.3018 -0.8289 -0.4708
14267SOL     OW44016   6.872   0.665   1.419  0.1521 -0.3772  0.3522
14267SOL    HW144017   6.791   0.705   1.450 -0.2188  2.2769 -3.4188
14267SOL    HW244018   6.939   0.732   1.433  1.1447 -1.4120  0.7414
14268SOL     OW44019   5.799   0.248   1.843 -0.0453 -0.0254 -0.2715
14268SOL    HW144020   5.802   0.205   1.928  1.9620 -0.7946 -0.6658
14268SOL    HW244021   5.805   0.342   1.863 -2.7596  0.0547  0.5139
14269SOL     OW44022   7.357   0.873   3.016 -0.2701  0.1702  0.0633
14269SOL    HW144023   7.315   0.952   3.050  0.7586  0.4138  0.8447
14269SOL    HW244024   7.320   0.862   2.929 -1.1371  0.9734  0.3072
14270SOL     OW44025   6.306   0.887   2.886 -0.0862  0.5024  0.6276
14270SOL    HW144026   6.391   0.872   2.846 -0.5405 -2.9080  0.5952
14270SOL    HW244027   6.244   0.841   2.829 -1.5224  0.3820  2.1844
14271SOL     OW44028   6.939   1.548   3.268 -0.4464 -0.3577  0.5280
14271SOL    HW144029   6.894   1.632   3.256 -0.5285 -0.4199  0.4036
14271SOL    HW244030   6.879   1.483   3.233 -0.8006 -0.5669  1.4766
14272SOL     OW44031   6.628   0.586   2.127 -0.3517  0.0681  0.1667
14272SOL    HW144032   6.636   0.653   2.195 -2.0929  0.2298  0.2463
14272SOL    HW244033   6.593   0.510   2.172  1.5035 -0.9258  0.0503
14273SOL     OW44034   7.240   1.066   2.783  0.3158  0.8224 -0.0158
14273SOL    HW144035   7.175   1.099   2.721  0.7214  2.1638  0.2396
14273SOL    HW244036   7.323   1.106   2.754  0.5004  1.5175  1.4130
14274SOL     OW44037   6.121   0.230   3.473  0.5726  0.1773 -0.3221
14274SOL    HW144038   6.049   0.241   3.536  0.4378  1.7962 -0.7359
14274SOL    HW244039   6.080   0.237   3.387  1.1195  0.4120 -0.5706
14275SOL     OW44040   6.258   0.680   3.570  0.2069 -0.7937 -0.0102
14275SOL    HW144041   6.349   0.704   3.558  0.2707 -0.8066  0.4332
14275SOL    HW244042   6.227   0.737   3.641 -0.7220  0.7009 -1.5465
14276SOL     OW44043   6.293   0.672   1.493 -0.5014 -0.7996  0.3566
14276SOL    HW144044   6.345   0.716   1.424 -0.2590 -0.5493  0.6937
14276SOL    HW244045   6.321   0.581   1.489 -0.2822 -0.7328  0.3033
14277SOL     OW44046   5.896   0.688   3.007  0.1519 -0.6945 -0.1819
14277SOL    HW144047   5.892   0.711   2.915 -0.1381 -0.7476 -0.1831
14277SOL    HW244048   5.817   0.726   3.046  0.8267  0.2815  0.2638
14278SOL     OW44049   6.600   0.277   2.780 -0.3494 -0.0579  0.4036
14278SOL    HW144050   6.695   0.268   2.769 -0.1683  1.3392  0.5740
14278SOL    HW244051   6.567   0.293   2.691 -0.5473 -1.3319  0.2301
14279SOL     OW44052   5.470   1.632   3.057  0.6808  0.2885  0.3580
14279SOL    HW144053   5.412   1.585   2.997  1.9333 -0.4409 -0.3082
14279SOL    HW244054   5.423   1.631   3.141 -0.1839 -0.4426 -0.1211
14280SOL     OW44055   5.430   1.295   2.240  0.2318 -0.1724  0.0558
14280SOL    HW144056   5.399   1.256   2.158  1.5350 -1.3858  0.1077
14280SOL    HW244057   5.481   1.226   2.282  2.3801  1.4558  0.3072
14281SOL     OW44058   5.894   0.787   2.752 -0.2176 -0.2804 -0.2094
14281SOL    HW144059   5.841   0.762   2.677 -0.4489 -1.2415  0.2559
14281SOL    HW244060   5.984   0.792   2.718 -0.3810 -0.2707 -0.6415
14282SOL     OW44061   6.373   1.261   2.432  0.2491 -0.0592  0.0881
14282SOL    HW144062   6.282   1.237   2.416  0.0345  0.4084  0.5772
14282SOL    HW244063   6.371   1.357   2.441  0.7375 -0.0749  0.3968
14283SOL     OW44064   7.027   1.086   3.028 -0.0317  0.1444  0.5230
14283SOL    HW144065   7.007   1.103   3.120  1.4054  2.4092  0.4992
14283SOL    HW244066   7.122   1.097   3.022  0.0022 -0.7928 -1.0891
14284SOL     OW44067   6.989   0.773   2.571 -0.3695  0.0024  0.9469
14284SOL    HW144068   7.007   0.821   2.490 -3.0069  1.3881  1.0671
14284SOL    HW244069   6.935   0.699   2.543  2.0336 -1.8979  1.0209
14285SOL     OW44070   5.732   1.382   3.094  0.2517  0.1401  0.5722
14285SOL    HW144071   5.643   1.366   3.124 -0.2921  0.0527 -0.9836
14285SOL    HW244072   5.758   1.302   3.049  1.9417 -0.6384  2.7498
14286SOL     OW44073   6.118   0.551   3.103  0.1225 -0.0556  0.0980
14286SOL    HW144074   6.185   0.619   3.096 -1.2311  1.1787 -1.7408
14286SOL    HW244075   6.035   0.597   3.092 -0.9028 -1.8323  0.0256
14287SOL     OW44076   7.348   0.803   3.336 -1.0234 -0.8176 -0.4918
14287SOL    HW144077   7.430   0.838   3.371 -1.3420 -0.3858 -0.1742
14287SOL    HW244078   7.296   0.783   3.414 -0.9815 -1.6756 -0.6743
14288SOL     OW44079   6.766   0.037   3.541  0.4445  0.4774  0.0597
14288SOL    HW144080   6.828  -0.035   3.532 -0.8266 -0.4239 -2.5267
14288SOL    HW244081   6.705   0.008   3.609  0.6214 -0.3930 -0.1360
14289SOL     OW44082   6.205   0.106   3.816 -0.0260 -0.3811  0.4713
14289SOL    HW144083   6.226   0.096   3.723  0.1591  0.0195  0.4681
14289SOL    HW244084   6.287   0.088   3.861  0.9008  2.8723  0.3805
14290SOL     OW44085   6.086   0.514   2.392 -0.1558  0.0764  0.4988
14290SOL    HW144086   6.057   0.513   2.483 -0.2746  0.3142  0.4647
14290SOL    HW244087   6.164   0.458   2.391 -0.8316 -0.8988  0.5170
14291SOL     OW44088   6.552   0.332   3.048 -0.7273  0.1344  0.4851
14291SOL    HW144089   6.578   0.312   2.959  1.1243 -1.8225  1.3786
14291SOL    HW244090   6.524   0.423   3.045 -0.7727  0.1033 -2.0730
14292SOL     OW44091   7.023   0.366   1.934  0.0536  0.1926 -0.6303
14292SOL    HW144092   7.069   0.330   2.009  2.5406  3.8672 -0.1472
14292SOL    HW244093   7.076   0.341   1.858  0.2776  0.5472 -0.5931
14293SOL     OW44094   5.575   0.008   3.004 -0.5609  0.0366  0.2372
14293SOL    HW144095   5.657   0.039   3.043  0.6591 -0.1461 -1.9817
14293SOL    HW244096   5.586  -0.087   3.000 -0.6435  0.0593 -0.5546
14294SOL     OW44097   4.942   1.700   3.223 -0.5943  0.3533 -0.0684
14294SOL    HW144098   5.035   1.710   3.247  0.5205 -4.5913 -1.2125
14294SOL    HW244099   4.938   1.731   3.132 -0.1035  0.6677  0.0073
14295SOL     OW44100   6.147   0.675   2.742 -0.0862 -0.1157  0.7229
14295SOL    HW144101   6.236   0.643   2.730 -0.6286 -1.1431 -0.7585
14295SOL    HW244102   6.094   0.596   2.753 -1.0753  0.3817 -0.2981
14296SOL     OW44103   7.544   0.883   3.507  0.5295 -0.3393  0.1399
14296SOL    HW144104   7.486   0.902   3.580 -0.5768  0.7468 -0.9553
14296SOL    HW244105   7.623   0.847   3.547  0.7423  1.9878  2.0158
14297SOL     OW44106   6.434   0.120   2.181 -0.2295 -0.4345  0.3392
14297SOL    HW144107   6.433   0.110   2.276  0.0105 -0.4999  0.3353
14297SOL    HW244108   6.367   0.059   2.150 -0.1987 -0.5286  0.4560
14298SOL     OW44109   7.204   0.310   1.732 -0.8025  0.4598 -0.3386
14298SOL    HW144110   7.172   0.260   1.657 -3.1366  3.8852 -1.9092
14298SOL    HW244111   7.242   0.389   1.694  0.8629  0.9015  2.0288
14299SOL     OW44112   6.911   0.354   2.518 -0.1884 -0.1676 -0.2534
14299SOL    HW144113   6.884   0.266   2.493  0.4133 -0.1445 -0.9835
14299SOL    HW244114   6.885   0.410   2.444  0.9481  0.0073 -0.5310
14300SOL     OW44115   6.534   1.338   3.701 -0.3291 -0.3599 -0.1559
14300SOL    HW144116   6.628   1.344   3.716 -0.3542 -0.5917  0.1146
14300SOL    HW244117   6.502   1.427   3.710 -0.2315 -0.3801  0.4347
14301SOL     OW44118   7.391   1.182   3.353 -0.5421  0.1212  0.4313
14301SOL    HW144119   7.382   1.276   3.335  0.6212 -0.0202 -1.0186
14301SOL    HW244120   7.443   1.178   3.433 -0.6787  0.7050  0.5566
14302SOL     OW44121   5.642   0.764   3.145  0.1623 -0.1282 -0.2965
14302SOL    HW144122   5.647   0.755   3.240 -1.3607  0.5975 -0.1333
14302SOL    HW244123   5.622   0.856   3.130  1.0496 -0.0833 -1.3696
14303SOL     OW44124   7.079   0.518   1.513  0.1557 -0.7484 -0.0691
14303SOL    HW144125   7.017   0.558   1.453  0.3080 -1.8448 -0.9835
14303SOL    HW244126   7.085   0.580   1.586 -1.1890 -0.1276 -0.4568
14304SOL     OW44127   6.958   0.955   1.447  0.0017  0.2009 -0.8338
14304SOL    HW144128   6.922   1.044   1.439 -0.5870  0.0745  0.2621
14304SOL    HW244129   6.935   0.927   1.536 -0.1318 -1.1820 -1.2734
14305SOL     OW44130   6.632   0.787   2.320 -0.0331  0.3593  0.0709
14305SOL    HW144131   6.622   0.733   2.399  0.2202 -0.4306 -0.4265
14305SOL    HW244132   6.561   0.851   2.325  0.4112  0.7769  1.3049
14306SOL     OW44133   5.676   0.915   2.867 -0.1499  0.3986 -0.1229
14306SOL    HW144134   5.764   0.880   2.855  0.5774  1.3140  2.0943
14306SOL    HW244135   5.619   0.837   2.869  0.3277 -0.1371 -2.9332
14307SOL     OW44136   6.145   0.227   2.827  0.0438 -0.2477  0.5689
14307SOL    HW144137   6.118   0.147   2.872  1.2213 -0.1131  1.5638
14307SOL    HW244138   6.198   0.197   2.753  2.0959 -0.4038  2.0197
14308SOL     OW44139   6.344   0.058   3.475  0.6918  0.4202 -0.4930
14308SOL    HW144140   6.268   0.115   3.461  0.9158  0.7460 -0.3720
14308SOL    HW244141   6.419   0.111   3.450  1.0228  0.6583  0.9008
14309SOL     OW44142   6.948   0.486   3.344  0.8190  0.0172  0.0333
14309SOL    HW144143   6.947   0.487   3.249 -1.9823 -1.3275 -0.0458
14309SOL    HW244144   6.856   0.482   3.369  1.5028 -0.6046  2.7860
14310SOL     OW44145   5.416   1.261   1.870 -0.2270 -0.0158 -0.0225
14310SOL    HW144146   5.352   1.272   1.941  0.1266  1.6402  0.0877
14310SOL    HW244147   5.363   1.237   1.794 -0.4904 -3.2694  1.0124
14311SOL     OW44148   5.841   2.261   2.396  0.0036  0.2316 -0.4854
14311SOL    HW144149   5.783   2.211   2.453 -0.9185 -0.4588 -1.9541
14311SOL    HW244150   5.871   2.334   2.450 -1.5765  0.1386  0.5879
14312SOL     OW44151   5.894   1.098   2.659  0.5448 -0.3062  0.6695
14312SOL    HW144152   5.906   1.023   2.717 -0.6798 -1.3500 -0.3472
14312SOL    HW244153   5.954   1.164   2.692  1.9769 -1.8691  1.3589
14313SOL     OW44154   6.404   0.537   2.771  0.2633 -0.2265  0.0985
14313SOL    HW144155   6.448   0.573   2.848 -0.9280  0.3707  0.5262
14313SOL    HW244156   6.388   0.445   2.792 -1.1127  0.2030  1.0937
14314SOL     OW44157   5.368   0.426   2.657  0.2156 -0.3259 -0.1992
14314SOL    HW144158   5.426   0.352   2.640 -0.2650 -0.6305 -0.5530
14314SOL    HW244159   5.376   0.442   2.751 -0.5072 -1.5451  0.0916
14315SOL     OW44160   5.538   0.319   3.271 -0.2490 -0.1124 -0.0960
14315SOL    HW144161   5.563   0.409   3.251  2.0373 -0.1842  1.9185
14315SOL    HW244162   5.603   0.265   3.225 -0.2845 -0.6169  0.4336
14316SOL     OW44163   7.108   0.688   3.099 -0.4469  0.4886  0.2329
14316SOL    HW144164   7.067   0.760   3.051 -2.3139  0.1321  1.2227
14316SOL    HW244165   7.065   0.609   3.067 -0.5504  0.0923  1.3028
14317SOL     OW44166   6.380   0.259   1.950  0.5990 -0.1042 -0.5052
14317SOL    HW144167   6.405   0.178   1.905 -0.2457 -0.2310 -0.7711
14317SOL    HW244168   6.359   0.231   2.039  0.9631 -0.0663 -0.4056
14318SOL     OW44169   7.550   0.182   2.831  0.5730  0.1996 -0.2140
14318SOL    HW144170   7.528   0.268   2.796  1.8161  0.6759  0.1089
14318SOL    HW244171   7.637   0.193   2.869  1.9017 -1.7985 -2.3839
14319SOL     OW44172   5.496   1.590   3.350  0.3760 -0.1794  0.1386
14319SOL    HW144173   5.557   1.557   3.416 -1.6793 -1.4085  1.5232
14319SOL    HW244174   5.464   1.512   3.305 -1.2130  0.2646  0.4226
14320SOL     OW44175   6.360   0.430   3.276 -0.7078  0.2506  0.0119
14320SOL    HW144176   6.271   0.462   3.289  0.0480  2.3939  0.2189
14320SOL    HW244177   6.358   0.391   3.188 -1.8789  0.0238  0.1150
14321SOL     OW44178   6.660   1.246   3.402  0.2641 -0.6649 -0.5999
14321SOL    HW144179   6.586   1.291   3.443  1.3432  1.1140 -0.5000
14321SOL    HW244180   6.703   1.314   3.349  1.7392 -1.6853 -0.7752
14322SOL     OW44181   5.909   0.552   1.550  0.6202  0.1879  0.1275
14322SOL    HW144182   5.917   0.461   1.579 -0.2251  0.4026  1.1061
14322SOL    HW244183   5.824   0.555   1.505  0.1102  0.7105  1.0762
14323SOL     OW44184   5.435   1.354   3.212 -0.6265 -0.4821  0.1528
14323SOL    HW144185   5.401   1.361   3.123 -1.4185 -0.5277  0.4511
14323SOL    HW244186   5.371   1.301   3.259 -2.3724  2.8249  1.8290
14324SOL     OW44187   6.536   0.328   2.504  0.3666 -0.3819  0.2237
14324SOL    HW144188   6.548   0.423   2.501 -1.3184 -0.0631  1.6352
14324SOL    HW244189   6.541   0.300   2.413 -2.3868  1.5639 -0.6576
14325SOL     OW44190   7.026   0.949   2.324  0.7376 -0.2163  0.0667
14325SOL    HW144191   7.096   0.996   2.280  1.3047 -1.2976 -0.2369
14325SOL    HW244192   6.974   0.911   2.253  0.5336 -0.3888  0.3061
14326SOL     OW44193   7.027   1.277   2.648 -0.2635 -0.1104 -0.4669
14326SOL    HW144194   7.089   1.235   2.588  0.2918 -0.7939  0.5426
14326SOL    HW244195   7.019   1.367   2.616  3.6257  0.9984  1.0178
14327SOL     OW44196   6.847   1.179   2.827  0.4426 -0.2727  0.0099
14327SOL    HW144197   6.922   1.220   2.784  0.0177 -0.4166 -0.9044
14327SOL    HW244198   6.885   1.118   2.890  1.0868  1.2281  1.1333
14328SOL     OW44199   5.674   1.552   2.884  0.5350 -0.0072  0.4320
14328SOL    HW144200   5.601   1.597   2.928  0.3079 -0.8498  0.9270
14328SOL    HW244201   5.700   1.483   2.944 -0.7366 -2.1406 -1.3264
14329SOL     OW44202   6.308   1.850   3.310 -0.2637  0.3488 -0.1803
14329SOL    HW144203   6.250   1.811   3.244 -0.2843  0.8965 -0.4976
14329SOL    HW244204   6.249   1.884   3.377 -0.1752 -1.8256  1.0676
14330SOL     OW44205   7.771   0.275   1.936  0.3942 -0.1847 -0.0001
14330SOL    HW144206   7.741   0.250   1.849  1.5768 -0.1652 -0.4294
14330SOL    HW244207   7.710   0.233   1.996  0.2497 -1.1512 -0.8073
14331SOL     OW44208   6.638   1.324   2.367  0.2883  0.0772 -0.3754
14331SOL    HW144209   6.683   1.245   2.397  0.7449  0.2053 -0.7165
14331SOL    HW244210   6.545   1.306   2.385  0.6031  0.5083  1.8903
14332SOL     OW44211   5.645   1.485   3.533  0.2637  0.1777  0.1296
14332SOL    HW144212   5.712   1.419   3.516  1.6718  1.2365  1.3573
14332SOL    HW244213   5.600   1.453   3.612  0.0319  0.0324 -0.0564
14333SOL     OW44214   6.585   0.619   2.541  0.0217  0.0763  0.5090
14333SOL    HW144215   6.673   0.626   2.579  0.2176  0.7529 -0.0500
14333SOL    HW244216   6.528   0.602   2.617  0.6360 -0.4412  0.8642
14334SOL     OW44217   6.338   1.457   3.271 -0.7520 -0.4772  0.6994
14334SOL    HW144218   6.283   1.410   3.207 -0.9310 -1.3584  1.4787
14334SOL    HW244219   6.309   1.548   3.265  0.0243 -0.2909 -1.3027
14335SOL     OW44220   6.221   1.308   2.179  0.2389  0.1539  0.1967
14335SOL    HW144221   6.156   1.377   2.194  1.5969  1.2048  1.4433
14335SOL    HW244222   6.205   1.244   2.248  0.6893  0.5384  0.6589
14336SOL     OW44223   7.268   1.382   2.959 -0.1076  0.5712  0.2884
14336SOL    HW144224   7.193   1.380   2.899 -0.2357 -0.2469  0.4556
14336SOL    HW244225   7.344   1.363   2.904 -0.2824 -0.6770  0.4384
14337SOL     OW44226   7.516   0.465   2.812  0.9387 -0.2789  0.0440
14337SOL    HW144227   7.502   0.476   2.718 -0.8337 -3.2477 -0.1631
14337SOL    HW244228   7.608   0.488   2.826  0.5995  2.7328 -1.8828
14338SOL     OW44229   5.770   8.818   2.645  0.2366 -0.1057 -0.2226
14338SOL    HW144230   5.719   8.738   2.660  1.0578 -0.7684 -0.8371
14338SOL    HW244231   5.860   8.794   2.668  0.8556 -0.0001 -2.3202
14339SOL     OW44232   6.604   0.937   1.830  0.4666 -0.0119 -0.2323
14339SOL    HW144233   6.607   1.027   1.796 -0.0966 -0.2813 -1.0219
14339SOL    HW244234   6.553   0.944   1.911 -0.4678  0.2270 -0.8264
14340SOL     OW44235   6.231   1.354   3.043 -0.7677 -0.2618  0.9372
14340SOL    HW144236   6.160   1.312   3.091 -0.5166 -1.3983  0.3384
14340SOL    HW244237   6.197   1.366   2.954 -0.2113 -0.8175  0.6460
14341SOL     OW44238   6.517   0.708   1.720 -0.0317  0.0888 -0.1574
14341SOL    HW144239   6.430   0.747   1.717 -0.2171 -0.3138 -0.0366
14341SOL    HW244240   6.569   0.769   1.773  0.4310  1.6402 -2.2417
14342SOL     OW44241   6.514   1.531   1.730  0.8792  0.2118 -0.7016
14342SOL    HW144242   6.459   1.574   1.795  0.1946 -0.5832 -0.7382
14342SOL    HW244243   6.590   1.501   1.780  1.2645  1.2669 -0.6389
14343SOL     OW44244   5.593   1.045   3.136  0.3800  0.0501 -0.3137
14343SOL    HW144245   5.559   1.082   3.054  0.7732  0.1659 -0.4266
14343SOL    HW244246   5.525   1.064   3.201  0.3443  0.5053 -0.4796
14344SOL     OW44247   7.053   0.497   2.868  0.3315 -0.7183 -0.8231
14344SOL    HW144248   7.053   0.424   2.806  1.1859 -1.0568 -0.4445
14344SOL    HW244249   7.141   0.532   2.863  0.2267 -0.3650 -0.2461
14345SOL     OW44250   6.821   0.569   1.909  0.4719 -0.3193 -0.4632
14345SOL    HW144251   6.751   0.561   1.975  1.2841 -1.2693  0.3192
14345SOL    HW244252   6.882   0.498   1.931  1.3528  0.0900 -1.5344
14346SOL     OW44253   6.600   0.324   2.204  0.0776  0.3685  0.1899
14346SOL    HW144254   6.650   0.327   2.122 -1.9909  4.1627 -1.2200
14346SOL    HW244255   6.552   0.242   2.200  0.6216  0.0783 -2.0321
14347SOL     OW44256   5.782   1.656   2.391 -0.0628  0.3236  0.0377
14347SOL    HW144257   5.758   1.597   2.462 -0.8286 -0.9702 -1.2248
14347SOL    HW244258   5.878   1.651   2.386 -0.1147 -0.7876 -0.0063
14348SOL     OW44259   7.287   0.483   3.266  0.3252  0.9515  0.1954
14348SOL    HW144260   7.360   0.424   3.287 -0.1022  0.4429  0.2628
14348SOL    HW244261   7.252   0.507   3.352  0.2775  1.0203  0.1560
14349SOL     OW44262   5.607   1.582   2.198  0.5175 -0.2508  0.5521
14349SOL    HW144263   5.601   1.487   2.205  0.5015 -0.1817  1.5574
14349SOL    HW244264   5.670   1.608   2.264  0.6122  0.4339  0.2067
14350SOL     OW44265   5.514   0.680   2.895 -0.4384  0.4572 -0.6790
14350SOL    HW144266   5.500   0.586   2.891 -0.7447  0.5226 -1.2187
14350SOL    HW244267   5.514   0.701   2.989  0.2742 -0.1700 -0.5318
14351SOL     OW44268   5.888   0.353   3.581  0.0461  0.0992  0.2661
14351SOL    HW144269   5.878   0.400   3.664 -0.5761  1.2105 -0.4186
14351SOL    HW244270   5.839   0.272   3.594  0.6772 -0.1433  1.2735
14352SOL     OW44271   5.551   0.463   2.101 -0.4911 -0.4290  0.0601
14352SOL    HW144272   5.465   0.432   2.127 -0.4402 -1.0132 -0.4390
14352SOL    HW244273   5.612   0.397   2.134 -0.3378 -0.6067 -0.5603
14353SOL     OW44274   6.774   0.203   3.138 -0.4033  0.0017 -0.3969
14353SOL    HW144275   6.768   0.179   3.231 -0.0559 -1.8915 -0.8247
14353SOL    HW244276   6.691   0.246   3.119 -0.5353  0.2887  0.7540
14354SOL     OW44277   5.465   0.129   2.325  0.1109 -0.1483 -0.1078
14354SOL    HW144278   5.396   0.191   2.302  1.5589  1.2793 -0.6944
14354SOL    HW244279   5.499   0.098   2.242  0.4524 -0.5559  0.1767
14355SOL     OW44280   6.825   0.880   2.120 -0.0346 -0.1058 -0.2965
14355SOL    HW144281   6.744   0.842   2.086  0.0676  0.2710 -0.9985
14355SOL    HW244282   6.894   0.828   2.080  0.1131  0.9131 -1.4428
14356SOL     OW44283   6.065   1.134   3.164 -0.2459  0.0858  0.3899
14356SOL    HW144284   5.981   1.137   3.209 -0.2326  2.5020  0.3852
14356SOL    HW244285   6.130   1.140   3.235 -0.2092  2.8686  0.2051
14357SOL     OW44286   6.783   1.359   3.163  0.3192 -0.2076  0.5271
14357SOL    HW144287   6.837   1.281   3.172  0.0578 -0.5028 -0.4041
14357SOL    HW244288   6.733   1.345   3.083  0.5463  1.0835  0.1378
14358SOL     OW44289   5.709   0.731   3.446 -0.0220 -0.1702  0.0100
14358SOL    HW144290   5.769   0.795   3.485 -0.5702  0.0027  0.5919
14358SOL    HW244291   5.654   0.703   3.519 -1.6550  0.7956 -0.8052
14359SOL     OW44292   6.899   0.458   3.091 -0.4185  0.5072 -0.4720
14359SOL    HW144293   6.950   0.458   3.010  0.6177  0.9389  0.1712
14359SOL    HW244294   6.859   0.371   3.094 -0.4478  0.4837 -1.4309
14360SOL     OW44295   5.662   1.870   3.248  0.0776  0.2808 -0.1552
14360SOL    HW144296   5.699   1.811   3.313 -0.1657  0.9399  0.6091
14360SOL    HW244297   5.588   1.823   3.211  1.2995 -0.8128 -1.2688
14361SOL     OW44298   7.325   0.640   2.872 -0.2437  0.2090 -0.0218
14361SOL    HW144299   7.300   0.667   2.784 -0.3336  1.0328  0.2551
14361SOL    HW244300   7.400   0.582   2.858  0.0855  0.7611 -0.6094
14362SOL     OW44301   7.366   0.392   2.033 -0.1182  1.0043 -0.0250
14362SOL    HW144302   7.363   0.435   2.119  0.4504 -0.0804  0.5675
14362SOL    HW244303   7.338   0.302   2.051 -0.1999  0.8226 -1.0285
14363SOL     OW44304   6.358   0.546   1.998  0.1744  0.1881  0.0575
14363SOL    HW144305   6.348   0.451   1.986 -1.4288  0.1761  1.1304
14363SOL    HW244306   6.449   0.558   2.023  0.6093 -0.9759 -0.8579
14364SOL     OW44307   7.038   0.232   3.301  0.0269 -0.4898  0.0791
14364SOL    HW144308   7.123   0.277   3.307 -0.5127  1.1843 -2.8009
14364SOL    HW244309   6.973   0.301   3.307 -0.9514 -1.1907 -1.5421
14365SOL     OW44310   6.101   0.793   2.245  0.1783 -0.6908 -0.2789
14365SOL    HW144311   6.069   0.865   2.300  2.8196  0.5382 -0.1906
14365SOL    HW244312   6.087   0.714   2.297 -0.4763  0.0677  0.7136
14366SOL     OW44313   6.068   1.669   2.445  0.5013  0.3686 -0.4555
14366SOL    HW144314   6.089   1.757   2.474 -0.6185  0.5614 -0.1825
14366SOL    HW244315   6.134   1.649   2.379  0.5278  1.5702 -0.8122
14367SOL     OW44316   6.464   1.012   2.054  0.2406  0.4929 -0.4152
14367SOL    HW144317   6.395   0.956   2.090  0.9201  0.6823  1.2659
14367SOL    HW244318   6.416   1.084   2.013 -0.6146 -0.8168 -1.8254
14368SOL     OW44319   6.591   0.702   1.449 -0.0315  0.0478 -0.0035
14368SOL    HW144320   6.559   0.697   1.539  1.3184 -0.4315  0.4682
14368SOL    HW244321   6.582   0.613   1.416  2.2663 -0.4966  0.6811
14369SOL     OW44322   7.108   1.154   2.131  0.5365  0.2527  0.1774
14369SOL    HW144323   7.194   1.161   2.173 -0.8665  0.9213  3.2817
14369SOL    HW244324   7.077   1.244   2.126  0.5215  0.1553 -2.2124
14370SOL     OW44325   5.880   0.923   3.556  0.3429 -0.5366 -0.0822
14370SOL    HW144326   5.938   0.871   3.499  0.2490 -0.4636 -0.2438
14370SOL    HW244327   5.940   0.972   3.612  0.4283 -1.1037  0.3272
14371SOL     OW44328   5.807   1.172   2.188 -0.3943  0.0405 -0.3873
14371SOL    HW144329   5.802   1.249   2.131  1.6736  2.1193  1.9845
14371SOL    HW244330   5.849   1.105   2.135  1.1702  1.7848 -1.4859
14372SOL     OW44331   6.488   1.806   3.582 -0.3393 -0.0608  0.3768
14372SOL    HW144332   6.539   1.748   3.638  0.7953  0.9342  0.4281
14372SOL    HW244333   6.456   1.749   3.511  0.1944 -0.8697  0.7662
14373SOL     OW44334   7.286   0.892   3.689 -0.2046 -0.0815  0.1659
14373SOL    HW144335   7.332   0.809   3.673  1.9615  1.1060 -0.2032
14373SOL    HW244336   7.315   0.917   3.777  1.3875  1.5552 -0.7507
14374SOL     OW44337   5.824   0.178   2.417  0.2874  0.0958  0.0116
14374SOL    HW144338   5.919   0.181   2.405  0.2622  1.0230 -0.0204
14374SOL    HW244339   5.812   0.131   2.500  0.8266  1.0507  0.6448
14375SOL     OW44340   7.454   1.357   2.767  0.0330  0.0240 -0.2645
14375SOL    HW144341   7.416   1.416   2.702  0.2370  0.5055  0.0523
14375SOL    HW244342   7.467   1.275   2.719 -1.2948 -0.1261 -0.4012
14376SOL     OW44343   5.620   0.336   2.861  0.1091 -0.0005  0.0515
14376SOL    HW144344   5.629   0.244   2.887 -0.5216  0.0543  0.5025
14376SOL    HW244345   5.660   0.385   2.934  1.2275  0.0730 -0.5816
14377SOL     OW44346   6.282   1.728   2.260  0.5157 -0.3202  0.4135
14377SOL    HW144347   6.282   1.823   2.264 -2.0246 -0.1426 -1.2025
14377SOL    HW244348   6.355   1.706   2.201 -0.2988  0.8474 -1.1145
14378SOL     OW44349   7.193   8.841   2.416 -0.3458  0.1449 -0.0898
14378SOL    HW144350   7.105   8.805   2.406  0.0267 -0.6987 -0.4656
14378SOL    HW244351   7.249   8.764   2.425  0.2869  0.6837  0.7578
14379SOL     OW44352   6.027   0.420   2.661  0.0192 -0.5207 -0.1326
14379SOL    HW144353   6.051   0.355   2.727 -0.0701 -0.9311 -0.4991
14379SOL    HW244354   5.932   0.416   2.656 -0.0272  0.0465  0.2523
14380SOL     OW44355   5.919   1.351   2.372 -0.2703  0.0419  0.2653
14380SOL    HW144356   5.880   1.267   2.347 -0.8444  0.6002 -0.8208
14380SOL    HW244357   5.948   1.389   2.288 -0.5341  1.1729  0.6754
14381SOL     OW44358   5.855   1.662   3.198 -0.1993 -0.1020 -0.1248
14381SOL    HW144359   5.807   1.582   3.177 -0.8316 -0.2673  1.7345
14381SOL    HW244360   5.847   1.670   3.293  3.1500  0.0722  0.2635
14382SOL     OW44361   6.831   8.188   1.928  0.4770  0.0146 -0.2726
14382SOL    HW144362   6.907   8.165   1.981  0.4812 -0.4284 -0.4688
14382SOL    HW244363   6.868   8.227   1.849  0.5549 -1.3024 -0.9089
14383SOL     OW44364   7.163   0.232   2.201  0.0595 -0.5862  0.6196
14383SOL    HW144365   7.073   0.199   2.203 -1.2110  2.5546  2.2603
14383SOL    HW244366   7.217   0.153   2.211 -2.5694 -2.3858  2.0903
14384SOL     OW44367   7.290   0.218   2.509 -0.8612  0.3606 -0.3033
14384SOL    HW144368   7.238   0.143   2.480  0.3947 -1.2231  1.3397
14384SOL    HW244369   7.238   0.259   2.578 -1.0231  0.2812 -0.3786
14385SOL     OW44370   5.072   1.755   2.702 -0.2241  0.4554  0.2759
14385SOL    HW144371   4.984   1.793   2.702 -0.8954 -1.0360  1.6167
14385SOL    HW244372   5.090   1.734   2.793  1.0139 -0.4616 -0.1499
14386SOL     OW44373   6.230   1.415   1.898 -0.3496  0.1911  0.4414
14386SOL    HW144374   6.203   1.394   1.987  1.5168  1.7300  1.4547
14386SOL    HW244375   6.291   1.488   1.908  0.4478 -0.0314 -2.0487
14387SOL     OW44376   5.413   1.002   3.381 -0.4413 -0.0564  0.5462
14387SOL    HW144377   5.479   1.016   3.449 -0.1040 -1.0801  0.4540
14387SOL    HW244378   5.342   1.063   3.403  0.3815  0.8298  0.8386
14388SOL     OW44379   5.461   0.155   4.932 -0.0607  0.3686 -0.1373
14388SOL    HW144380   5.522   0.119   4.867  2.3796 -0.1914  2.2840
14388SOL    HW244381   5.392   0.089   4.939  0.7551 -0.5611 -0.6369
14389SOL     OW44382   5.065   0.135   4.125  0.4011  0.0830 -0.0624
14389SOL    HW144383   5.092   0.083   4.201 -1.3658  0.3985  0.8375
14389SOL    HW244384   4.971   0.116   4.116  0.5082  0.3060 -1.9850
14390SOL     OW44385   6.273   1.725   4.785  0.0157 -0.3002  0.0298
14390SOL    HW144386   6.218   1.746   4.860 -0.6096  1.7963 -0.9309
14390SOL    HW244387   6.222   1.753   4.709  1.0009 -1.5172 -1.1342
14391SOL     OW44388   6.718   1.116   4.520 -0.0044  0.5041 -0.0073
14391SOL    HW144389   6.661   1.193   4.517  0.8881  1.1782 -0.2241
14391SOL    HW244390   6.789   1.141   4.580 -0.4742 -0.7140  1.0909
14392SOL     OW44391   6.488   0.630   4.345 -0.3594  0.2224  0.0693
14392SOL    HW144392   6.578   0.619   4.313 -0.5706  1.2782 -0.9348
14392SOL    HW244393   6.488   0.717   4.385 -0.8314  0.0477  0.4489
14393SOL     OW44394   7.257   0.441   3.746 -0.0449 -0.3523 -0.7669
14393SOL    HW144395   7.238   0.505   3.677  1.3755 -0.7037 -1.5312
14393SOL    HW244396   7.189   0.375   3.737 -0.0115 -0.2784 -1.7185
14394SOL     OW44397   6.119   0.724   4.957 -0.4808 -0.1269  0.2245
14394SOL    HW144398   6.127   0.714   5.052 -2.8165 -1.4872  0.3486
14394SOL    HW244399   6.059   0.798   4.946 -0.5627 -0.2556 -0.1949
14395SOL     OW44400   6.013   1.355   5.588  0.0114  0.1365 -0.0386
14395SOL    HW144401   5.970   1.388   5.509 -1.2448  2.5876  1.5210
14395SOL    HW244402   6.095   1.318   5.557  0.2127  2.2490 -2.3885
14396SOL     OW44403   6.107   0.486   4.849 -0.6764 -0.3439 -0.0135
14396SOL    HW144404   6.131   0.571   4.887  0.0191 -0.1635 -0.8178
14396SOL    HW244405   6.012   0.492   4.835 -0.5668  0.4645 -0.4465
14397SOL     OW44406   5.943   1.509   5.372  0.0297 -0.7130 -0.0583
14397SOL    HW144407   5.926   1.446   5.303 -0.8156 -0.0162 -0.5111
14397SOL    HW244408   6.013   1.565   5.337  0.2147 -0.8984  0.0136
14398SOL     OW44409   5.471   1.279   4.610 -0.2789 -0.1747 -0.0076
14398SOL    HW144410   5.557   1.317   4.630  0.3765 -0.3851 -2.1780
14398SOL    HW244411   5.442   1.325   4.531 -2.5379  0.4028  1.0684
14399SOL     OW44412   6.888   1.553   5.040 -0.2665 -0.0138 -0.0606
14399SOL    HW144413   6.905   1.625   5.101  0.5170 -0.6470  0.4845
14399SOL    HW244414   6.836   1.490   5.091 -1.5065  0.4232 -0.7268
14400SOL     OW44415   5.788   0.025   5.426  0.0351  0.3861 -0.1453
14400SOL    HW144416   5.734   0.104   5.426 -1.3799 -0.4751 -2.1865
14400SOL    HW244417   5.729  -0.043   5.459  0.1329 -0.3942 -1.5133
14401SOL     OW44418   7.094   0.957   3.985  0.2494 -0.2504  0.1975
14401SOL    HW144419   7.076   1.002   4.068 -0.9731  1.4905 -0.9413
14401SOL    HW244420   7.008   0.941   3.947  0.6874 -3.0232  0.2117
14402SOL     OW44421   5.217   2.027   4.315 -0.1525  0.0200  0.8888
14402SOL    HW144422   5.275   2.040   4.390  1.7573  0.3772 -0.5952
14402SOL    HW244423   5.221   1.933   4.297 -1.1401 -0.1813  1.5840
14403SOL     OW44424   6.700   1.401   5.182 -0.5300  0.3590  0.4707
14403SOL    HW144425   6.615   1.419   5.142 -0.6008  2.2305  1.3401
14403SOL    HW244426   6.690   1.427   5.274  0.6234 -0.5717  0.8937
14404SOL     OW44427   6.085   1.529   4.107 -0.1810 -0.2278  0.0067
14404SOL    HW144428   5.995   1.539   4.078  0.0326 -1.5916 -1.2052
14404SOL    HW244429   6.095   1.435   4.124  0.7731  0.0208  0.9709
14405SOL     OW44430   5.525   0.667   4.464 -0.5594  0.3475 -0.1130
14405SOL    HW144431   5.541   0.591   4.520  0.1417 -1.4801 -2.6329
14405SOL    HW244432   5.438   0.698   4.489 -1.7499 -2.5526 -0.3462
14406SOL     OW44433   5.862   1.753   5.199 -0.0670  0.1281  0.3356
14406SOL    HW144434   5.804   1.702   5.255  1.3806 -0.6900  1.1358
14406SOL    HW244435   5.856   1.711   5.113 -2.4615  1.5173 -0.2685
14407SOL     OW44436   6.541   0.608   3.003  0.3518 -0.4770 -0.2412
14407SOL    HW144437   6.598   0.683   2.987  1.8360 -1.3851  0.6318
14407SOL    HW244438   6.461   0.646   3.039  0.4732  0.7917 -1.2184
14408SOL     OW44439   7.053   8.770   5.486  0.1335  0.0704 -0.1568
14408SOL    HW144440   6.963   8.742   5.502 -0.5114  1.6888 -0.7946
14408SOL    HW244441   7.074   8.735   5.399  1.1840 -2.7142  1.0722
14409SOL     OW44442   5.650   0.319   4.348  0.4687 -0.8549 -0.4594
14409SOL    HW144443   5.735   0.276   4.355  0.4540 -0.7795  0.2360
14409SOL    HW244444   5.599   0.283   4.421  0.2716 -0.0744 -0.1985
14410SOL     OW44445   7.489   1.852   3.994  0.2742  0.4420  0.1917
14410SOL    HW144446   7.420   1.915   3.975  0.9133  0.7929 -1.0981
14410SOL    HW244447   7.569   1.895   3.965  0.6520 -1.2252 -1.4518
14411SOL     OW44448   5.840   1.545   4.001  0.1243  0.4687 -0.0598
14411SOL    HW144449   5.776   1.497   3.947 -0.9654 -0.0276  1.5972
14411SOL    HW244450   5.786   1.596   4.061  1.3002  0.6617  0.8636
14412SOL     OW44451   7.140   1.226   3.781 -0.3240  0.1596  0.0355
14412SOL    HW144452   7.215   1.202   3.728  0.4167  2.6300 -0.1843
14412SOL    HW244453   7.064   1.212   3.724  0.0069 -1.4814 -0.0494
14413SOL     OW44454   6.937   1.486   3.551 -0.8120  0.0107 -0.0778
14413SOL    HW144455   6.941   1.520   3.462 -1.0005 -1.0354 -0.4968
14413SOL    HW244456   7.028   1.487   3.581 -0.7624  0.4740 -0.2396
14414SOL     OW44457   5.534   0.636   5.243 -0.3214 -0.2352  0.0802
14414SOL    HW144458   5.598   0.588   5.296  0.0333  0.1612  0.0097
14414SOL    HW244459   5.584   0.672   5.170 -0.9920 -1.6803 -1.1443
14415SOL     OW44460   6.166   1.162   4.052 -0.3995 -0.1539 -0.3577
14415SOL    HW144461   6.121   1.150   4.135 -0.5631  0.2790 -0.3785
14415SOL    HW244462   6.118   1.234   4.009 -0.7193 -0.7994 -1.1042
14416SOL     OW44463   6.662   0.976   4.886 -0.5130  0.3729  0.0722
14416SOL    HW144464   6.574   0.975   4.849 -0.2955 -0.8745 -0.4470
14416SOL    HW244465   6.673   0.889   4.925  0.3367  0.6548  0.4878
14417SOL     OW44466   6.774   0.201   4.695 -0.1110  0.7582 -0.1318
14417SOL    HW144467   6.811   0.275   4.647  1.1301 -0.1869 -0.6790
14417SOL    HW244468   6.721   0.242   4.764  0.2654  2.1413 -0.6196
14418SOL     OW44469   5.806   0.770   4.749  0.1626  0.0230  0.3521
14418SOL    HW144470   5.890   0.815   4.745  0.2204 -0.0875  0.3159
14418SOL    HW244471   5.826   0.679   4.727 -0.1390  0.2121 -0.7771
14419SOL     OW44472   6.889   0.990   3.575  0.3071 -0.2424  0.2859
14419SOL    HW144473   6.982   1.015   3.578  0.9080 -2.0760 -1.3761
14419SOL    HW244474   6.886   0.915   3.516 -2.2266 -0.3915  0.5070
14420SOL     OW44475   6.608   1.985   5.445  0.2970  0.0893 -0.2294
14420SOL    HW144476   6.635   1.991   5.353  2.8298  1.5564  0.5299
14420SOL    HW244477   6.531   2.042   5.451 -0.3563 -0.5938 -1.5411
14421SOL     OW44478   6.024   0.017   5.567  0.0542 -0.1949  0.5486
14421SOL    HW144479   6.015   0.061   5.651 -0.4228  0.2091  0.2878
14421SOL    HW244480   5.940   0.029   5.524  0.3154 -0.3463 -0.0156
14422SOL     OW44481   6.649   1.244   4.819  0.3726 -0.0604  0.4024
14422SOL    HW144482   6.639   1.150   4.833  1.6948 -0.3498 -0.3925
14422SOL    HW244483   6.743   1.256   4.805  0.0385  1.1268 -1.1740
14423SOL     OW44484   7.108   1.901   3.739  0.3037  0.5156  0.3397
14423SOL    HW144485   7.045   1.886   3.810  0.6222 -0.2852  0.4666
14423SOL    HW244486   7.058   1.950   3.673 -0.4010  0.0530  0.5144
14424SOL     OW44487   6.303   0.962   3.947  0.4735 -0.4352 -0.2024
14424SOL    HW144488   6.329   1.015   3.872  0.3256 -0.7802 -0.4999
14424SOL    HW244489   6.263   1.024   4.008  1.2690 -0.0260 -0.0820
14425SOL     OW44490   6.942   1.034   4.367 -0.0263  0.1796  0.6174
14425SOL    HW144491   6.873   1.058   4.429 -0.4006 -0.1053  0.3188
14425SOL    HW244492   6.898   1.028   4.282  0.3992  0.1624  0.3903
14426SOL     OW44493   6.815   1.823   3.629  0.1661 -0.0561  0.0510
14426SOL    HW144494   6.781   1.788   3.546  0.1920  0.8489 -0.3514
14426SOL    HW244495   6.892   1.769   3.647 -0.8094 -1.3766  0.3878
14427SOL     OW44496   6.206   0.454   5.411  0.2102 -0.2782 -0.3478
14427SOL    HW144497   6.125   0.450   5.361 -0.0325 -0.0703  0.0182
14427SOL    HW244498   6.229   0.362   5.428 -0.8791 -0.3301  0.9977
14428SOL     OW44499   6.540   0.551   5.334 -0.4616 -0.3629 -0.1891
14428SOL    HW144500   6.465   0.507   5.294 -0.7037 -2.6043  2.4623
14428SOL    HW244501   6.517   0.558   5.427  1.9432  0.3623  0.4270
14429SOL     OW44502   5.887   1.078   5.228 -0.2795 -0.6614 -0.3623
14429SOL    HW144503   5.967   1.027   5.214  0.3518 -0.1381  1.1214
14429SOL    HW244504   5.907   1.165   5.194 -0.1788 -0.5122  0.0675
14430SOL     OW44505   6.359   0.386   5.165 -0.2277  0.6865  0.5643
14430SOL    HW144506   6.281   0.340   5.198  0.1943  0.9998  2.0873
14430SOL    HW244507   6.424   0.317   5.152 -0.7713  0.4007 -0.8712
14431SOL     OW44508   6.491   0.621   4.034 -0.2116 -0.0161 -0.0280
14431SOL    HW144509   6.563   0.634   4.095  0.3636  1.6575 -1.0057
14431SOL    HW244510   6.413   0.623   4.089  0.3985 -0.4769  0.8754
14432SOL     OW44511   5.261   0.678   4.544  0.4041 -0.5343  0.5814
14432SOL    HW144512   5.268   0.590   4.580 -0.3909 -1.1822 -0.7886
14432SOL    HW244513   5.169   0.688   4.522  0.2331  1.1271  1.8328
14433SOL     OW44514   5.470   2.174   5.783 -0.1046 -0.2070 -0.6884
14433SOL    HW144515   5.499   2.101   5.728  1.1136 -1.3875  1.4206
14433SOL    HW244516   5.452   2.135   5.868 -1.1034  1.7034  0.0440
14434SOL     OW44517   6.410   0.148   4.019  0.5544  0.8154  0.1105
14434SOL    HW144518   6.332   0.148   4.076 -1.1190  0.5788 -2.0597
14434SOL    HW244519   6.465   0.218   4.055 -0.1538  0.3202  2.3218
14435SOL     OW44520   7.309   0.657   5.347 -0.3534  0.4125  0.4579
14435SOL    HW144521   7.225   0.680   5.307 -0.0739 -0.7738 -0.8948
14435SOL    HW244522   7.369   0.724   5.315 -0.3095 -0.0620 -0.4861
14436SOL     OW44523   7.101   1.327   4.023  0.0271 -0.3181 -0.3929
14436SOL    HW144524   7.128   1.271   3.951 -1.2119 -1.5054  0.0252
14436SOL    HW244525   7.008   1.306   4.036  0.6100 -1.4942  2.6963
14437SOL     OW44526   6.288   8.656   5.226 -0.7602  0.4413 -0.0706
14437SOL    HW144527   6.315   8.564   5.228 -2.5383 -0.1555 -1.2555
14437SOL    HW244528   6.228   8.665   5.300 -0.6060  0.6686  0.0303
14438SOL     OW44529   6.841   1.238   3.968  0.3391  0.0085 -0.0187
14438SOL    HW144530   6.753   1.271   3.985  0.6183  1.1962 -0.7656
14438SOL    HW244531   6.848   1.237   3.872  0.9474 -0.6077  0.0237
14439SOL     OW44532   5.502   1.095   3.890 -0.5355 -0.2413 -0.3537
14439SOL    HW144533   5.415   1.125   3.864 -2.3073 -2.9451  1.9002
14439SOL    HW244534   5.541   1.168   3.937 -1.9081  0.7364 -0.6968
14440SOL     OW44535   7.398   1.466   4.010  0.5864  0.1662  0.1374
14440SOL    HW144536   7.309   1.478   3.976  0.8575  0.6117 -0.4526
14440SOL    HW244537   7.394   1.385   4.060 -0.1955  0.2709  0.2617
14441SOL     OW44538   6.919   1.974   5.202  0.2840 -0.4256 -0.0050
14441SOL    HW144539   6.938   2.059   5.242 -0.4112  0.7391 -2.0204
14441SOL    HW244540   6.824   1.965   5.207  0.3747 -1.2762  0.4914
14442SOL     OW44541   5.774   0.753   4.343  0.2155  0.4144  0.2300
14442SOL    HW144542   5.709   0.691   4.376  0.8170  0.5433  1.7820
14442SOL    HW244543   5.724   0.814   4.290 -0.4744 -1.0522 -0.8723
14443SOL     OW44544   6.617   0.464   3.837 -0.0317 -0.1351 -0.0097
14443SOL    HW144545   6.567   0.523   3.893  0.3730 -0.0989  0.3207
14443SOL    HW244546   6.558   0.392   3.818  0.0100 -0.4389  0.9470
14444SOL     OW44547   5.900   1.354   5.133 -0.7307 -0.1507 -0.4727
14444SOL    HW144548   5.945   1.332   5.052  1.9580 -1.6993  1.2677
14444SOL    HW244549   5.828   1.411   5.106  0.3083 -0.2042 -3.8433
14445SOL     OW44550   6.347   1.925   3.911 -0.2270 -0.5981  0.8546
14445SOL    HW144551   6.314   1.847   3.955 -1.8298 -1.0100 -0.9557
14445SOL    HW244552   6.312   1.920   3.822 -0.4039  2.1746  0.6674
14446SOL     OW44553   5.873   0.281   5.990  0.0070 -0.2846  0.7309
14446SOL    HW144554   5.805   0.326   5.941  0.2626  1.0676  1.5463
14446SOL    HW244555   5.829   0.251   6.070  0.0976 -0.4476  0.7195
14447SOL     OW44556   7.146   1.035   3.489  0.0205  0.0785  0.0028
14447SOL    HW144557   7.178   1.013   3.577 -2.1652  2.7540  1.6330
14447SOL    HW244558   7.224   1.061   3.441  1.3382 -1.8662  0.9619
14448SOL     OW44559   5.920   2.041   3.985  0.2913  0.1722  0.6244
14448SOL    HW144560   5.961   2.057   3.900  1.5227 -0.7445  1.0135
14448SOL    HW244561   5.838   1.998   3.964 -0.1601  1.3546 -0.1530
14449SOL     OW44562   6.611   0.095   3.806 -0.4332 -0.0437  0.4859
14449SOL    HW144563   6.544   0.087   3.873  0.0902 -1.0587  0.9060
14449SOL    HW244564   6.579   0.165   3.749 -2.9770 -1.9153 -0.5976
14450SOL     OW44565   5.615   1.575   4.735  0.7000 -0.0262 -0.1512
14450SOL    HW144566   5.558   1.615   4.669  0.5447 -1.5901 -1.0277
14450SOL    HW244567   5.625   1.484   4.705 -0.3535 -1.1721  2.5903
14451SOL     OW44568   6.536   1.327   4.580  0.0919 -0.4465  0.3071
14451SOL    HW144569   6.533   1.318   4.675 -0.1872 -0.2303  0.3199
14451SOL    HW244570   6.611   1.384   4.563 -0.1693 -0.0624  0.4299
14452SOL     OW44571   5.915   0.269   4.520  0.2592 -0.2355 -0.2958
14452SOL    HW144572   5.996   0.262   4.470 -0.9689  1.9378 -2.8767
14452SOL    HW244573   5.888   0.178   4.535  0.9136 -1.0727 -3.4123
14453SOL     OW44574   6.591   0.309   5.503  0.4835  0.4866  0.2523
14453SOL    HW144575   6.585   0.380   5.566 -1.1733 -0.3039  1.0586
14453SOL    HW244576   6.633   0.348   5.426 -2.0019  2.8927 -0.0445
14454SOL     OW44577   6.152   0.161   4.387  0.3316 -0.1747  0.3431
14454SOL    HW144578   6.228   0.102   4.382 -0.1416 -0.9682  1.7994
14454SOL    HW244579   6.142   0.195   4.298  4.0574  2.1345  0.6134
14455SOL     OW44580   6.259   8.804   5.883  0.7642  0.1866 -0.3895
14455SOL    HW144581   6.195   8.836   5.820  0.0447  0.5139  0.4887
14455SOL    HW244582   6.270   8.712   5.861  0.1014  0.1616 -0.6481
14456SOL     OW44583   6.330   1.241   4.444 -0.4977  0.3680 -0.2170
14456SOL    HW144584   6.394   1.276   4.506 -2.4798  3.2850  0.3680
14456SOL    HW244585   6.340   1.295   4.365 -0.6601 -0.6940 -0.9853
14457SOL     OW44586   6.719   0.991   5.579  0.2201  0.7578  0.1337
14457SOL    HW144587   6.675   1.051   5.519 -1.7341  0.2446  0.9615
14457SOL    HW244588   6.775   0.938   5.523 -0.1173  1.5407 -0.9785
14458SOL     OW44589   6.246   1.474   4.678 -0.4598  0.4851  0.0567
14458SOL    HW144590   6.282   1.492   4.591 -0.8472  1.8490  0.1483
14458SOL    HW244591   6.252   1.558   4.724  1.0501 -0.5557  1.8560
14459SOL     OW44592   6.666   0.335   4.907  0.0009  0.0839  0.3271
14459SOL    HW144593   6.586   0.387   4.900 -0.6922 -1.0021 -0.1976
14459SOL    HW244594   6.672   0.314   5.001 -0.1099  0.5011  0.4296
14460SOL     OW44595   6.170   8.749   4.739 -0.2726  0.1965  0.0664
14460SOL    HW144596   6.084   8.757   4.780 -0.5441 -0.7021 -0.3058
14460SOL    HW244597   6.188   8.836   4.704 -1.4318  0.1677 -0.6534
14461SOL     OW44598   6.907   1.079   3.273  0.2933 -0.3947 -0.0874
14461SOL    HW144599   6.947   1.059   3.358 -0.2929 -0.1389  0.2517
14461SOL    HW244600   6.819   1.041   3.279  0.8980 -2.1376 -1.3114
14462SOL     OW44601   5.687   0.099   3.993  0.0259 -0.1629  0.1842
14462SOL    HW144602   5.744   0.024   3.975  0.2688 -0.0599  0.5193
14462SOL    HW244603   5.676   0.141   3.908  0.6735 -0.0287  0.1566
14463SOL     OW44604   6.594   0.342   4.166 -0.0282 -0.9278 -0.1831
14463SOL    HW144605   6.651   0.412   4.133  1.8867 -1.9453  0.7688
14463SOL    HW244606   6.521   0.387   4.207  1.1836  0.5501  0.4583
14464SOL     OW44607   6.233   0.736   5.262  0.1533 -0.0451 -0.3091
14464SOL    HW144608   6.155   0.694   5.297 -0.7053  0.8030 -1.1424
14464SOL    HW244609   6.272   0.781   5.337 -0.1553 -0.4818  0.1171
14465SOL     OW44610   7.117   1.431   4.293  0.1963 -0.4227 -0.8599
14465SOL    HW144611   7.097   1.349   4.248 -0.9352 -0.7105  0.1112
14465SOL    HW244612   7.088   1.500   4.234  0.4584 -0.7416 -1.3618
14466SOL     OW44613   5.868   0.491   4.700 -0.0569  0.3291  0.8163
14466SOL    HW144614   5.886   0.448   4.616  1.2534  1.3022  0.5785
14466SOL    HW244615   5.822   0.424   4.751  2.2615 -1.5401  0.6062
14467SOL     OW44616   6.627   1.818   3.902 -0.2808  0.1865  0.1849
14467SOL    HW144617   6.572   1.896   3.901 -0.5047  0.1057 -2.8023
14467SOL    HW244618   6.685   1.828   3.826  1.2212 -1.5167  1.0265
14468SOL     OW44619   6.515   0.762   3.491 -0.0769 -0.6695 -0.0472
14468SOL    HW144620   6.564   0.825   3.544  0.8989 -0.6817 -0.9104
14468SOL    HW244621   6.486   0.812   3.414  0.5431 -1.2082 -0.6471
14469SOL     OW44622   5.485   0.135   5.201  0.1880  0.0110 -0.0471
14469SOL    HW144623   5.516   0.150   5.112 -2.8131  1.7118 -0.9304
14469SOL    HW244624   5.440   0.050   5.196 -0.0227  0.1294 -0.1550
14470SOL     OW44625   6.091   8.626   5.437  0.2997 -0.4023  0.5196
14470SOL    HW144626   6.020   8.588   5.385  1.8565 -0.5926 -1.6446
14470SOL    HW244627   6.051   8.698   5.485 -1.4816 -0.9681 -0.0640
14471SOL     OW44628   6.201   0.177   4.651 -0.8369 -0.0767  0.2152
14471SOL    HW144629   6.267   0.246   4.657 -1.0225 -0.0132  2.5174
14471SOL    HW244630   6.185   0.167   4.557  2.6134 -0.3185 -0.4706
14472SOL     OW44631   6.937   0.408   4.845 -0.2260 -0.1096 -0.2037
14472SOL    HW144632   6.990   0.428   4.768 -0.2637 -0.1826 -0.2484
14472SOL    HW244633   6.849   0.394   4.811 -0.6939  1.8653  0.0583
14473SOL     OW44634   6.507   0.909   4.421  0.7034 -0.5901  0.3577
14473SOL    HW144635   6.508   0.982   4.359 -0.6951 -0.5351  0.3592
14473SOL    HW244636   6.557   0.940   4.496 -0.2082  0.5458  0.5261
14474SOL     OW44637   7.244   1.063   4.366  0.7397  0.0972  0.4051
14474SOL    HW144638   7.278   0.974   4.370  0.9106  0.0641 -1.1697
14474SOL    HW244639   7.150   1.055   4.380  0.7149 -0.3697 -0.0274
14475SOL     OW44640   7.311   0.787   4.015 -0.4150  0.3089 -0.1081
14475SOL    HW144641   7.377   0.850   3.988 -0.7122  1.5276  1.8230
14475SOL    HW244642   7.228   0.831   3.999 -0.7269 -0.5992 -1.0696
14476SOL     OW44643   6.011   1.368   3.626  0.5269  0.2758 -0.7154
14476SOL    HW144644   6.074   1.440   3.622  0.2297  0.4743 -2.2946
14476SOL    HW244645   5.995   1.344   3.535  1.7997 -2.8417 -0.2435
14477SOL     OW44646   7.659   1.574   3.977  0.0138 -0.0376 -0.2318
14477SOL    HW144647   7.563   1.573   3.979 -0.0163  0.5784 -1.0279
14477SOL    HW244648   7.681   1.643   3.915  0.9394 -1.6958 -1.8591
14478SOL     OW44649   6.902   0.785   3.385 -0.3049 -0.5151 -0.2807
14478SOL    HW144650   6.917   0.773   3.292 -2.4052 -2.4050 -0.4739
14478SOL    HW244651   6.963   0.726   3.428 -0.9799 -1.4808 -0.6159
14479SOL     OW44652   5.937   8.819   4.360 -0.1166  0.4979  0.2392
14479SOL    HW144653   5.894   8.800   4.277  0.2968 -0.5359  0.2443
14479SOL    HW244654   6.011   8.875   4.337 -0.2976  0.6281 -0.0224
14480SOL     OW44655   7.297   1.316   5.193  0.2151 -0.1212 -0.2577
14480SOL    HW144656   7.392   1.321   5.186  0.2624  0.0540  0.4157
14480SOL    HW244657   7.268   1.407   5.194  0.0236 -0.1748 -0.6148
14481SOL     OW44658   6.484   1.433   4.987 -0.5847 -0.0388 -0.0162
14481SOL    HW144659   6.394   1.405   4.971 -0.3695 -0.6318 -0.2201
14481SOL    HW244660   6.538   1.369   4.941 -0.0773  1.0178 -0.9475
14482SOL     OW44661   7.006   2.121   5.445 -0.2700 -0.7793 -0.2215
14482SOL    HW144662   7.027   2.188   5.511 -1.3486  0.5450 -1.1552
14482SOL    HW244663   7.060   2.046   5.468  2.3036  0.9981 -0.1191
14483SOL     OW44664   6.026   1.318   4.617 -0.1154  0.4263  0.2109
14483SOL    HW144665   6.106   1.367   4.634  0.1254  0.2666 -0.4457
14483SOL    HW244666   6.056   1.232   4.586 -0.5163 -0.4684  2.1575
14484SOL     OW44667   6.999   1.420   4.547  0.0211  0.3275 -0.0244
14484SOL    HW144668   7.050   1.439   4.468  0.4316 -1.1127 -0.1295
14484SOL    HW244669   6.910   1.446   4.525 -0.4728 -2.5400 -2.0480
14485SOL     OW44670   6.523   8.755   5.198 -0.4608  0.0529  0.2382
14485SOL    HW144671   6.433   8.730   5.217  0.0059 -2.2006 -0.2506
14485SOL    HW244672   6.540   8.718   5.112  0.3409  2.1939 -0.5943
14486SOL     OW44673   6.507   1.128   5.174  0.1331  0.7320  0.0604
14486SOL    HW144674   6.490   1.035   5.163  1.8274  0.5341 -1.1966
14486SOL    HW244675   6.434   1.171   5.130  0.0673 -0.0054 -0.5667
14487SOL     OW44676   5.959   0.697   4.163  0.2292  0.7373  0.0778
14487SOL    HW144677   5.936   0.747   4.241 -0.4834  1.5928 -0.6681
14487SOL    HW244678   5.894   0.626   4.160  0.3708  0.5947  0.3550
14488SOL     OW44679   5.707   0.654   5.005  0.0048  0.1006 -0.2763
14488SOL    HW144680   5.691   0.742   5.041 -0.2012 -0.0095 -0.0938
14488SOL    HW244681   5.735   0.670   4.915  0.2847  0.3695 -0.1430
14489SOL     OW44682   6.916   0.904   4.751 -0.2698 -0.8306 -0.9257
14489SOL    HW144683   6.954   0.836   4.806 -1.1640 -0.7702 -0.2143
14489SOL    HW244684   6.857   0.952   4.809 -0.7372 -0.3543 -1.7730
14490SOL     OW44685   5.456   1.414   4.981  0.4291 -0.0993  0.1081
14490SOL    HW144686   5.396   1.366   5.038  1.0309 -1.5244 -0.4140
14490SOL    HW244687   5.398   1.464   4.923 -0.1965  0.5946  1.2931
14491SOL     OW44688   5.633   1.204   4.224 -0.1607 -0.1459  0.0945
14491SOL    HW144689   5.559   1.259   4.200 -0.4048 -0.6521 -0.3377
14491SOL    HW244690   5.701   1.265   4.252 -1.1252  0.2699  1.6266
14492SOL     OW44691   5.979   0.276   5.315  0.4171  0.5287 -0.0006
14492SOL    HW144692   6.063   0.235   5.333 -0.2937 -0.0514  2.3146
14492SOL    HW244693   5.943   0.297   5.402 -1.7993  0.8042 -0.9145
14493SOL     OW44694   6.847   1.266   3.677 -0.5008  0.0730  0.1227
14493SOL    HW144695   6.891   1.345   3.646 -1.4493  1.5842  2.3554
14493SOL    HW244696   6.809   1.227   3.599  1.1726  1.0253 -1.2362
14494SOL     OW44697   6.419   1.635   5.164  0.2235 -0.3545  0.2784
14494SOL    HW144698   6.442   1.705   5.103 -2.8885  0.2416 -0.3882
14494SOL    HW244699   6.467   1.559   5.132 -0.6865  0.1241 -2.5470
14495SOL     OW44700   7.062   0.735   3.676  1.0124 -0.2432 -0.0658
14495SOL    HW144701   7.126   0.804   3.663 -1.3715  2.0102 -0.6770
14495SOL    HW244702   7.006   0.767   3.746 -0.5305 -1.2419 -0.7781
14496SOL     OW44703   5.912   1.802   4.911  0.0312 -0.4857  0.5225
14496SOL    HW144704   5.978   1.820   4.977  0.5596  0.7571 -0.3058
14496SOL    HW244705   5.961   1.791   4.830 -0.6692 -1.0978  0.1607
14497SOL     OW44706   5.925   0.365   5.569  0.2248 -0.2181  0.0950
14497SOL    HW144707   5.893   0.448   5.605 -2.0431 -0.6878 -0.6857
14497SOL    HW244708   5.995   0.338   5.629  0.5007  1.8628  0.7851
14498SOL     OW44709   6.511   0.868   5.733  0.3159 -0.3031 -0.1847
14498SOL    HW144710   6.566   0.879   5.655 -0.3057 -1.6021 -0.8366
14498SOL    HW244711   6.569   0.828   5.797  0.2522 -1.3361 -0.7502
14499SOL     OW44712   6.421   0.158   5.963  1.1045 -0.1264 -0.0465
14499SOL    HW144713   6.514   0.150   5.943  0.7757  0.9746 -2.4510
14499SOL    HW244714   6.387   0.069   5.951  1.5631 -0.1840 -1.0595
14500SOL     OW44715   5.527   0.031   5.596 -0.7380  0.5616  0.3006
14500SOL    HW144716   5.581   0.046   5.673 -2.1161 -0.3382  1.4885
14500SOL    HW244717   5.545  -0.059   5.570 -2.5518 -0.2426  1.5400
14501SOL     OW44718   6.491   0.824   5.166  0.1085  0.3977 -0.1744
14501SOL    HW144719   6.405   0.781   5.173 -0.1959  1.1539  1.1544
14501SOL    HW244720   6.552   0.764   5.208 -0.5627  1.7960  3.1080
14502SOL     OW44721   6.913   0.701   4.539  0.1135  0.2413 -0.4053
14502SOL    HW144722   6.882   0.744   4.618 -1.0474 -0.2598 -0.5759
14502SOL    HW244723   6.895   0.763   4.469 -2.3905 -0.8128 -0.7764
14503SOL     OW44724   6.230   0.561   4.093 -0.0703 -0.0621 -0.0426
14503SOL    HW144725   6.177   0.498   4.043 -1.4713  0.4864  0.6829
14503SOL    HW244726   6.175   0.584   4.168  1.1131  0.7444  0.6120
14504SOL     OW44727   5.629   8.667   5.433 -0.0080 -0.0199 -0.6998
14504SOL    HW144728   5.663   8.627   5.513 -2.8838  0.2958  0.8234
14504SOL    HW244729   5.573   8.600   5.395  0.0331  0.4198 -1.5431
14505SOL     OW44730   5.367   1.074   4.722  0.4075 -0.0083 -0.4566
14505SOL    HW144731   5.420   1.129   4.664  0.7740  0.2638  0.1340
14505SOL    HW244732   5.288   1.126   4.737  0.4659  0.0710 -0.4246
14506SOL     OW44733   6.276   1.182   5.033 -0.5421 -0.0049  0.4467
14506SOL    HW144734   6.222   1.254   5.000 -0.0532  0.6262  0.9750
14506SOL    HW244735   6.214   1.121   5.072 -0.9406  0.2800  0.2689
14507SOL     OW44736   7.485   0.930   5.646  0.3098  0.4152 -0.1387
14507SOL    HW144737   7.580   0.948   5.648  0.4801 -0.4717  1.1986
14507SOL    HW244738   7.455   0.968   5.563  2.1561 -0.9292 -1.5120
14508SOL     OW44739   5.959   8.779   4.085  0.2402  0.8847  0.0777
14508SOL    HW144740   6.050   8.766   4.057  0.1303 -1.0251  0.4454
14508SOL    HW244741   5.907   8.760   4.007  0.1068 -0.2031  0.4047
14509SOL     OW44742   6.875   0.449   3.765 -0.2130 -0.1467 -0.2710
14509SOL    HW144743   6.782   0.471   3.756 -0.0830  0.8112  0.5739
14509SOL    HW244744   6.921   0.530   3.744  0.5401 -1.0766 -2.4443
14510SOL     OW44745   6.364   0.754   4.856 -0.1428 -0.3206  0.7987
14510SOL    HW144746   6.275   0.742   4.888 -1.0911 -1.7557 -1.9737
14510SOL    HW244747   6.365   0.843   4.820 -0.6329 -0.4571  0.4332
14511SOL     OW44748   6.552   1.616   5.423 -0.0501 -0.3846 -0.0783
14511SOL    HW144749   6.503   1.610   5.342 -0.5959 -4.5648  0.3312
14511SOL    HW244750   6.487   1.636   5.490 -0.4044 -1.2850 -0.1449
14512SOL     OW44751   7.624   1.698   4.975  0.2693 -0.3242 -0.4965
14512SOL    HW144752   7.604   1.699   4.881  0.5140  2.5536 -0.6043
14512SOL    HW244753   7.541   1.673   5.017 -0.5372  0.7399 -1.3994
14513SOL     OW44754   5.809   1.028   5.482  0.2493 -0.3124  0.2765
14513SOL    HW144755   5.813   1.029   5.386 -0.2497 -1.2408  0.2270
14513SOL    HW244756   5.898   1.011   5.510  0.0835 -1.9962 -0.1080
14514SOL     OW44757   6.471   0.282   3.691  0.3230 -0.4812 -0.2858
14514SOL    HW144758   6.378   0.304   3.693  0.0200 -1.7012 -0.1430
14514SOL    HW244759   6.507   0.333   3.619 -0.3009  0.5804  0.1423
14515SOL     OW44760   6.618   1.024   3.558 -0.2696 -0.2240 -0.0862
14515SOL    HW144761   6.614   1.093   3.492 -0.2911  0.1844  0.3353
14515SOL    HW244762   6.711   1.019   3.582 -0.2759 -0.3012 -0.0750
14516SOL     OW44763   6.287   1.001   4.534 -0.1190 -0.1282  0.4573
14516SOL    HW144764   6.361   0.946   4.505 -0.1774  0.2197 -0.3921
14516SOL    HW244765   6.298   1.083   4.485  0.6625  1.1315  2.5904
14517SOL     OW44766   5.746   0.335   4.892 -0.0576 -0.8326 -0.0237
14517SOL    HW144767   5.752   0.240   4.894 -1.6902 -0.9426  1.1669
14517SOL    HW244768   5.751   0.362   4.983  0.5933  0.2763 -0.3525
14518SOL     OW44769   6.112   0.209   4.922 -0.1845 -0.5531 -0.0313
14518SOL    HW144770   6.147   0.170   4.842  0.5024 -0.2586  0.1193
14518SOL    HW244771   6.119   0.304   4.908  2.2679 -0.4541  1.3303
14519SOL     OW44772   6.001   0.176   5.785  0.0175 -0.3513 -0.0502
14519SOL    HW144773   6.091   0.208   5.785 -0.2755  0.4895 -0.0989
14519SOL    HW244774   5.958   0.225   5.855 -0.7670  0.3374 -0.9762
14520SOL     OW44775   6.924   0.191   5.238  0.1878 -0.6475 -1.0520
14520SOL    HW144776   6.925   0.284   5.215 -1.9341 -0.1307  0.5887
14520SOL    HW244777   7.004   0.178   5.289 -0.2411  0.6753  0.0145
14521SOL     OW44778   5.823   1.073   3.304  0.6164 -0.3212 -0.1029
14521SOL    HW144779   5.742   1.053   3.258  0.3134  2.6650 -1.0691
14521SOL    HW244780   5.811   1.036   3.391 -1.6167 -0.2915 -0.3534
14522SOL     OW44781   5.791   1.524   4.321  0.4762  0.1083  0.0925
14522SOL    HW144782   5.859   1.581   4.355 -0.0746 -0.5811  2.6063
14522SOL    HW244783   5.729   1.582   4.277 -0.2761  1.6122  2.9136
14523SOL     OW44784   5.817   1.062   4.537  0.2615  0.4140  0.0628
14523SOL    HW144785   5.753   1.132   4.556  0.3424  0.2230  1.0938
14523SOL    HW244786   5.763   0.986   4.514  0.1517  0.5476 -0.1303
14524SOL     OW44787   6.638   0.712   4.893  0.4543 -0.3529 -0.1143
14524SOL    HW144788   6.544   0.731   4.896  0.7262  1.2200 -0.6747
14524SOL    HW244789   6.645   0.623   4.928 -1.5335 -1.5699 -2.4332
14525SOL     OW44790   5.560   0.438   4.698 -0.4691  0.6182 -0.1587
14525SOL    HW144791   5.537   0.518   4.747 -0.1096  0.9750 -0.5644
14525SOL    HW244792   5.608   0.385   4.761 -0.0535  1.0542 -0.1024
14526SOL     OW44793   5.621   0.374   5.824  0.6057  0.2906 -0.6763
14526SOL    HW144794   5.622   0.279   5.816 -1.6792  0.2460 -1.1442
14526SOL    HW244795   5.530   0.395   5.846  1.2804  2.3032  0.4488
14527SOL     OW44796   7.090   0.741   4.916  0.2256  0.3843 -1.2032
14527SOL    HW144797   7.105   0.647   4.913 -0.4347  0.1614  0.8793
14527SOL    HW244798   7.176   0.779   4.931  0.3719  0.0427 -1.1616
14528SOL     OW44799   6.209   0.703   3.851 -0.1561  0.2736 -0.1135
14528SOL    HW144800   6.240   0.653   3.926  3.1803  0.6609 -1.0956
14528SOL    HW244801   6.236   0.793   3.869 -1.4984  0.8278 -0.7099
14529SOL     OW44802   7.176   0.545   4.683 -0.0915 -0.1780  0.7399
14529SOL    HW144803   7.164   0.632   4.645  1.5587 -0.1317  0.2441
14529SOL    HW244804   7.193   0.488   4.608 -0.6756 -0.8434  1.1026
14530SOL     OW44805   5.733   1.583   5.613  0.5559 -0.3158  0.0993
14530SOL    HW144806   5.679   1.511   5.644  1.5290 -1.3323 -0.4945
14530SOL    HW244807   5.792   1.543   5.549  0.9785  1.0497 -0.4079
14531SOL     OW44808   6.445   0.497   4.890  0.4110  0.0868 -0.2738
14531SOL    HW144809   6.433   0.585   4.855 -1.0523 -0.1499 -0.4319
14531SOL    HW244810   6.377   0.487   4.956  0.9406 -0.7176  0.1750
14532SOL     OW44811   6.109   2.014   5.381 -1.1209 -0.1314  0.1374
14532SOL    HW144812   6.061   1.933   5.364 -1.9294  0.2871  0.3625
14532SOL    HW244813   6.101   2.064   5.300  1.7891 -1.3893 -1.0975
14533SOL     OW44814   5.700   0.761   3.729 -0.1555 -0.4890  0.5800
14533SOL    HW144815   5.793   0.777   3.746 -0.2272 -0.4917  1.0049
14533SOL    HW244816   5.658   0.775   3.814 -0.2967 -2.3130  0.8489
14534SOL     OW44817   5.460   1.101   5.002  0.0374  0.1145 -0.2473
14534SOL    HW144818   5.381   1.117   4.950 -1.7499 -1.4425  1.8009
14534SOL    HW244819   5.458   1.166   5.071  0.6933  0.2132 -0.3152
14535SOL     OW44820   6.411   1.032   4.781 -0.6347 -0.6916 -0.5302
14535SOL    HW144821   6.394   1.116   4.823  1.1613  0.3954 -1.8248
14535SOL    HW244822   6.369   1.039   4.695 -0.3481 -1.0267 -0.7017
14536SOL     OW44823   6.595   0.879   3.917 -0.1644 -0.6155  0.5232
14536SOL    HW144824   6.526   0.925   3.868 -0.7938 -1.3784  0.6751
14536SOL    HW244825   6.549   0.806   3.959  0.3532  0.0590  2.3249
14537SOL     OW44826   7.324   1.851   4.466  0.1320  0.8921 -0.6887
14537SOL    HW144827   7.410   1.827   4.431 -0.1993 -1.3036 -0.1842
14537SOL    HW244828   7.265   1.784   4.430 -0.9485  1.0454  0.7178
14538SOL     OW44829   6.733   1.537   4.564 -0.1382  0.2303  0.4390
14538SOL    HW144830   6.741   1.589   4.644  0.9121  2.5778 -1.0821
14538SOL    HW244831   6.669   1.584   4.511  1.2881  0.3869 -1.2482
14539SOL     OW44832   5.587   0.947   4.212 -0.3201 -0.1399  0.3299
14539SOL    HW144833   5.616   1.037   4.229 -0.7329  0.4131 -1.6253
14539SOL    HW244834   5.493   0.955   4.196  0.0755 -0.3855 -2.7315
14540SOL     OW44835   5.631   2.397   5.777  0.2925 -0.5883 -0.1063
14540SOL    HW144836   5.599   2.467   5.719 -0.0265 -0.8534 -0.2558
14540SOL    HW244837   5.566   2.327   5.767 -1.0262  0.1624  2.2499
14541SOL     OW44838   7.419   0.044   4.275  0.2458  0.3520 -0.0642
14541SOL    HW144839   7.438   0.035   4.369 -0.8721  1.6080  0.3133
14541SOL    HW244840   7.493   0.093   4.240  2.2356 -2.6883 -0.5263
14542SOL     OW44841   7.175   1.547   3.869 -0.3679  0.4881 -0.6983
14542SOL    HW144842   7.178   1.554   3.773  0.6163  1.7236 -0.5993
14542SOL    HW244843   7.153   1.455   3.885  0.2780  0.0528 -2.1002
14543SOL     OW44844   5.552   1.927   5.666  0.3674  0.2612 -0.4112
14543SOL    HW144845   5.597   1.869   5.727 -0.8272  1.0896  1.3469
14543SOL    HW244846   5.495   1.869   5.615  0.5258 -0.3140  0.0570
14544SOL     OW44847   6.519   1.082   4.186 -0.3905  0.1589 -0.1557
14544SOL    HW144848   6.540   1.171   4.158 -0.6266  0.5383  0.8397
14544SOL    HW244849   6.439   1.060   4.139 -0.3121  0.4526 -0.4310
14545SOL     OW44850   6.127   1.379   4.903 -0.1097 -0.0770  0.1687
14545SOL    HW144851   6.177   1.422   4.833  1.4016  0.2086  1.3736
14545SOL    HW244852   6.037   1.379   4.871  0.3304  1.2329 -1.2072
14546SOL     OW44853   6.168   1.589   3.643 -0.9310 -0.2182 -0.1184
14546SOL    HW144854   6.124   1.663   3.600  1.8524  0.0463 -2.8613
14546SOL    HW244855   6.214   1.628   3.717 -1.7378  0.2686  0.1352
14547SOL     OW44856   7.333   1.804   5.061  0.1004 -0.3151 -0.3605
14547SOL    HW144857   7.394   1.838   5.126 -0.9427 -1.0181  1.0438
14547SOL    HW244858   7.266   1.872   5.053 -0.0847 -0.4819 -0.2510
14548SOL     OW44859   7.026   0.050   4.572  0.0417  0.2652 -0.1277
14548SOL    HW144860   6.972   0.042   4.493 -0.9387  1.7669  0.3404
14548SOL    HW244861   7.006   0.138   4.605  1.3586  0.1241  1.1206
14549SOL     OW44862   5.648   0.034   4.758 -0.4754 -0.2201  0.2435
14549SOL    HW144863   5.655  -0.061   4.759  0.4518 -0.1764  2.3117
14549SOL    HW244864   5.703   0.061   4.684 -0.4646 -1.2645 -0.1459
14550SOL     OW44865   6.629   1.065   3.203  0.0645 -0.6544  0.2658
14550SOL    HW144866   6.588   1.104   3.126 -0.2240  0.0822  0.7700
14550SOL    HW244867   6.662   1.141   3.252  1.8336 -1.2242 -0.0166
14551SOL     OW44868   5.967   0.956   4.934 -0.2082  0.2414  0.7933
14551SOL    HW144869   5.994   0.953   4.842  0.6473  0.5586  1.0221
14551SOL    HW244870   5.901   1.025   4.937 -1.4731 -0.8815  0.1286
14552SOL     OW44871   6.436   1.074   3.743  0.0714  0.6881 -0.2103
14552SOL    HW144872   6.495   1.031   3.680 -0.3617 -1.1563  0.5707
14552SOL    HW244873   6.462   1.166   3.741  1.7632  0.2393 -1.2053
14553SOL     OW44874   6.780   1.769   3.341  0.4240 -0.2168  0.2347
14553SOL    HW144875   6.696   1.784   3.298  0.1444 -0.8569  0.5499
14553SOL    HW244876   6.824   1.854   3.339  0.1336 -0.0776 -0.7099
14554SOL     OW44877   5.730   1.360   4.545 -0.3660  0.4630  0.1479
14554SOL    HW144878   5.819   1.342   4.574  0.0032 -1.8190 -2.0363
14554SOL    HW244879   5.739   1.430   4.481 -0.2797  0.8464  0.5745
14555SOL     OW44880   7.116   1.106   5.034  0.2204  0.0819 -0.0199
14555SOL    HW144881   7.022   1.127   5.037 -0.4165 -2.4533  0.7620
14555SOL    HW244882   7.157   1.170   5.091 -1.3459  0.0746  1.1987
14556SOL     OW44883   5.937   0.768   3.887  0.2573 -0.3099  0.1675
14556SOL    HW144884   5.950   0.748   3.980  1.8794 -2.4506 -0.4256
14556SOL    HW244885   6.023   0.756   3.848 -0.3680  0.6994 -1.6100
14557SOL     OW44886   6.632   0.200   5.159 -0.3002 -0.8967  0.3672
14557SOL    HW144887   6.593   0.118   5.187  0.3575 -0.8187  1.5835
14557SOL    HW244888   6.724   0.178   5.142 -0.3660 -0.6336 -0.3645
14558SOL     OW44889   6.036   1.243   4.269 -0.0878  0.0137 -0.0964
14558SOL    HW144890   5.955   1.239   4.322  0.7867 -0.5197  1.2561
14558SOL    HW244891   6.105   1.260   4.333  1.0868 -1.0774 -1.0250
14559SOL     OW44892   7.263   0.487   4.963  0.7835  0.1202  0.2389
14559SOL    HW144893   7.240   0.477   4.871  0.9197  0.2192  0.1927
14559SOL    HW244894   7.314   0.568   4.966 -0.2401  0.7819  0.5885
14560SOL     OW44895   6.010   1.055   3.774 -0.0074  0.1437  0.0253
14560SOL    HW144896   5.968   1.007   3.846  0.8816  1.1371  1.2575
14560SOL    HW244897   6.023   1.143   3.809  0.0772  0.7708 -1.5246
14561SOL     OW44898   5.716   1.124   4.906  0.4251  0.8568  0.3166
14561SOL    HW144899   5.720   1.208   4.860  1.1713 -0.4314 -2.1389
14561SOL    HW244900   5.623   1.106   4.916  0.0993  0.1080 -2.9772
14562SOL     OW44901   6.207   0.142   5.395 -0.3418 -0.1113  0.0204
14562SOL    HW144902   6.141   0.087   5.437 -0.8316  0.3416 -0.1439
14562SOL    HW244903   6.291   0.103   5.421 -0.6188  0.1940  1.4787
14563SOL     OW44904   5.574   0.540   3.639  0.1026 -0.4148 -0.0938
14563SOL    HW144905   5.567   0.598   3.715 -1.7796  0.5232 -0.9057
14563SOL    HW244906   5.660   0.500   3.647  0.5608  0.8075  1.7100
14564SOL     OW44907   7.224   1.011   4.805 -0.1457  0.3358 -0.5285
14564SOL    HW144908   7.207   1.029   4.898 -3.0513  1.2125 -1.1054
14564SOL    HW244909   7.291   1.074   4.780 -1.4736  2.2285  0.3598
14565SOL     OW44910   5.416   0.120   3.846 -0.1579  0.0264  0.0478
14565SOL    HW144911   5.388   0.189   3.787  2.0449  0.4824 -0.5384
14565SOL    HW244912   5.444   0.165   3.925 -0.7884 -0.3808  0.5086
14566SOL     OW44913   6.783   1.010   4.147 -0.1521 -0.6615 -0.2438
14566SOL    HW144914   6.690   1.010   4.168 -0.4609  0.4580 -1.4795
14566SOL    HW244915   6.794   1.084   4.087  1.3495 -1.3945 -0.9191
14567SOL     OW44916   6.124   0.991   5.140 -0.1739  0.1865  0.7741
14567SOL    HW144917   6.080   0.953   5.065 -0.1178  1.0218  0.3032
14567SOL    HW244918   6.181   0.921   5.173 -1.8818 -0.9305  1.4503
14568SOL     OW44919   6.695   1.637   4.088 -0.3587  0.4079 -0.0068
14568SOL    HW144920   6.790   1.651   4.080 -0.2704  1.1360  1.8342
14568SOL    HW244921   6.657   1.692   4.020  0.4415  2.5477  1.1554
14569SOL     OW44922   6.026   0.578   5.891 -0.1477 -0.1733 -0.2740
14569SOL    HW144923   6.049   0.670   5.878  1.2547 -0.5131 -0.3631
14569SOL    HW244924   6.105   0.539   5.931 -1.1593 -1.0657  0.9383
14570SOL     OW44925   6.794   1.137   5.088  0.0836  0.3109  0.2938
14570SOL    HW144926   6.756   1.100   5.008 -0.3690  0.5746  0.3793
14570SOL    HW244927   6.725   1.196   5.121  0.4114  0.4779  0.6783
14571SOL     OW44928   5.901   1.769   5.749 -0.1583  0.6618  0.2683
14571SOL    HW144929   5.842   1.745   5.677  0.9942 -0.2911 -0.3785
14571SOL    HW244930   5.935   1.855   5.724 -1.7310  1.5519  0.9752
14572SOL     OW44931   7.551   1.047   4.767  0.1163  0.0042  0.3898
14572SOL    HW144932   7.640   1.083   4.762  0.1177  0.0886  0.9645
14572SOL    HW244933   7.494   1.123   4.762  0.0918 -0.0006  0.6033
14573SOL     OW44934   6.899   0.425   4.572 -0.0515  0.6060  0.2963
14573SOL    HW144935   6.895   0.520   4.584  0.4670  0.5680  0.8107
14573SOL    HW244936   6.947   0.413   4.490  0.0636  0.7817  0.3373
14574SOL     OW44937   6.337   0.405   4.656 -0.0437  0.1580  0.5221
14574SOL    HW144938   6.259   0.461   4.663  0.8691  1.4477  0.7138
14574SOL    HW244939   6.384   0.419   4.739  0.8088  0.0310  0.0696
14575SOL     OW44940   6.924   0.850   5.425 -0.3157 -0.4253 -0.4376
14575SOL    HW144941   6.936   0.771   5.478 -1.5155 -0.8995 -0.8392
14575SOL    HW244942   6.935   0.821   5.335  1.7333  0.3817 -0.5140
14576SOL     OW44943   7.367   0.747   4.981 -0.2264 -0.3465  0.1206
14576SOL    HW144944   7.437   0.724   4.920 -0.0382  0.5294 -0.0000
14576SOL    HW244945   7.395   0.829   5.021 -1.4729  0.3759 -0.4065
14577SOL     OW44946   5.975   1.325   3.882 -0.0764  0.3417  0.1844
14577SOL    HW144947   5.913   1.388   3.916  0.7041  0.7460  0.8792
14577SOL    HW244948   5.985   1.348   3.789 -0.9824  0.2414  0.0579
14578SOL     OW44949   6.295   1.664   3.982 -0.4808  0.5082  0.6481
14578SOL    HW144950   6.233   1.597   4.011 -1.0564  0.2089 -1.1681
14578SOL    HW244951   6.337   1.694   4.063 -2.1801 -0.0757  1.8012
14579SOL     OW44952   6.046   0.897   4.690 -0.4598 -0.3363  0.1952
14579SOL    HW144953   6.131   0.872   4.653  0.2837 -1.6888  2.6148
14579SOL    HW244954   5.997   0.933   4.616  1.4703 -1.4094 -1.6964
14580SOL     OW44955   6.864   0.866   3.818  0.3348  0.8042  0.3655
14580SOL    HW144956   6.777   0.868   3.857  1.2788  1.6803  2.5554
14580SOL    HW244957   6.860   0.930   3.747 -2.0620 -2.3791 -2.7004
14581SOL     OW44958   7.412   1.582   4.422 -0.3033 -0.1112  0.5608
14581SOL    HW144959   7.391   1.622   4.338 -2.6408  0.6547  1.4186
14581SOL    HW244960   7.349   1.510   4.430  0.2040 -0.4656  1.4537
14582SOL     OW44961   5.573   1.368   5.715 -0.1747  0.0601 -0.0789
14582SOL    HW144962   5.478   1.379   5.716 -0.3062 -0.6007 -1.5563
14582SOL    HW244963   5.599   1.366   5.807 -1.5302  0.7066  0.3337
14583SOL     OW44964   5.508   0.543   4.217 -0.0151 -0.3154  0.1362
14583SOL    HW144965   5.524   0.462   4.265  0.5285  0.3914  1.2008
14583SOL    HW244966   5.488   0.607   4.285  0.1165  0.5678 -0.6397
14584SOL     OW44967   6.201   1.661   5.317  0.1057 -0.3662  0.0377
14584SOL    HW144968   6.290   1.671   5.282  0.7716 -1.7260  1.2334
14584SOL    HW244969   6.212   1.665   5.412 -1.3314  0.8324  0.1861
14585SOL     OW44970   6.999   0.445   5.101 -0.0582  0.8050  0.3140
14585SOL    HW144971   6.957   0.415   5.020  0.2029  1.1385  0.0486
14585SOL    HW244972   7.092   0.433   5.085 -0.0443 -0.0005  0.9287
14586SOL     OW44973   5.717   0.034   4.502 -0.0939 -0.4677  0.3115
14586SOL    HW144974   5.789  -0.001   4.449  0.3912 -0.1286  0.7343
14586SOL    HW244975   5.640  -0.018   4.476  1.0044 -3.5114  2.6133
14587SOL     OW44976   7.093   1.562   4.820 -0.1168 -0.0981  0.2661
14587SOL    HW144977   7.040   1.573   4.899  1.3965 -0.5329  1.3861
14587SOL    HW244978   7.047   1.494   4.770 -1.0921  0.1788  0.7522
14588SOL     OW44979   5.751   0.404   5.139 -0.5287  0.2311  0.3240
14588SOL    HW144980   5.786   0.490   5.114  1.5738 -0.8987 -0.9807
14588SOL    HW244981   5.818   0.367   5.196 -0.3805 -1.3280 -0.8004
14589SOL     OW44982   6.595   1.373   4.040  0.3569 -0.3142  0.3845
14589SOL    HW144983   6.500   1.379   4.047  0.5085  0.8623  2.0281
14589SOL    HW244984   6.627   1.461   4.060  1.7892 -0.5835 -0.5375
14590SOL     OW44985   7.161   0.835   4.590  0.3089 -0.0504 -0.3033
14590SOL    HW144986   7.068   0.825   4.570  0.3286  0.6477 -0.7643
14590SOL    HW244987   7.163   0.899   4.661  0.3664 -1.0320  0.6057
14591SOL     OW44988   7.296   8.832   5.021  0.1144  0.0599  0.0221
14591SOL    HW144989   7.326   8.893   5.089 -0.6615  0.1031  0.3399
14591SOL    HW244990   7.370   8.773   5.007 -0.1351 -0.7577  1.8506
14592SOL     OW44991   6.218   0.963   3.627  0.1882  0.0214  0.3358
14592SOL    HW144992   6.296   1.012   3.654  0.4801 -0.5835  0.6106
14592SOL    HW244993   6.146   1.004   3.675  0.0311  1.7631 -1.2712
14593SOL     OW44994   6.177   1.784   5.041  0.2377  0.2762 -0.0680
14593SOL    HW144995   6.207   1.723   5.108  3.3152  0.0911 -1.4512
14593SOL    HW244996   6.212   1.869   5.068  0.9972  0.3045 -1.0649
14594SOL     OW44997   6.872   0.000   4.364 -0.1694  0.3522 -0.1349
14594SOL    HW144998   6.810   0.047   4.309  0.4821 -0.9319 -2.0802
14594SOL    HW244999   6.820  -0.069   4.405 -0.2677  0.0641 -0.7438
14595SOL     OW45000   6.400   0.379   4.372 -0.0840  0.1494 -0.0689
14595SOL    HW145001   6.412   0.472   4.354 -2.1356  0.2865 -0.9751
14595SOL    HW245002   6.378   0.375   4.465  1.1117  0.4103  0.2533
14596SOL     OW45003   7.207   0.389   4.473 -0.4212 -0.3729 -0.1437
14596SOL    HW145004   7.192   0.384   4.379 -0.6098 -1.0094 -0.0809
14596SOL    HW245005   7.254   0.309   4.495  0.0111 -0.0237  0.2344
14597SOL     OW45006   5.767   1.227   3.661  0.6408 -0.2262 -0.2254
14597SOL    HW145007   5.860   1.247   3.664  0.3979  0.8008  1.4391
14597SOL    HW245008   5.763   1.131   3.662  1.6869 -0.3275  2.2029
14598SOL     OW45009   6.472   1.605   3.804  0.4479  0.0381 -0.3602
14598SOL    HW145010   6.417   1.642   3.873 -0.5095  1.1816 -1.6696
14598SOL    HW245011   6.560   1.638   3.823  0.4628 -0.7144  1.0067
14599SOL     OW45012   5.680   0.514   5.469 -0.8096 -0.1650  0.2227
14599SOL    HW145013   5.712   0.521   5.559  0.1224 -0.1500 -0.0890
14599SOL    HW245014   5.659   0.421   5.458 -1.1258 -0.1281  0.5195
14600SOL     OW45015   5.869   8.798   6.672 -0.4125  0.6877 -0.6468
14600SOL    HW145016   5.938   8.750   6.626 -0.4413  0.9128 -0.9355
14600SOL    HW245017   5.860   8.754   6.756 -0.1885  0.4145 -0.7641
14601SOL     OW45018   5.245   0.232   6.224 -0.2044 -0.3002  0.0111
14601SOL    HW145019   5.184   0.278   6.281  0.1952 -1.5757  1.5603
14601SOL    HW245020   5.234   0.272   6.138 -1.2318  1.3285  0.8648
14602SOL     OW45021   5.964   1.364   6.847 -0.5210 -0.3693 -0.0704
14602SOL    HW145022   6.045   1.313   6.836 -0.4502 -0.2849  0.0550
14602SOL    HW245023   5.936   1.383   6.758 -0.5165 -0.5799 -0.1179
14603SOL     OW45024   7.427   1.367   6.164 -0.0918  0.4674  0.0090
14603SOL    HW145025   7.366   1.313   6.214 -0.6805  1.6800  0.6664
14603SOL    HW245026   7.382   1.383   6.081  0.1800 -0.2166 -0.2759
14604SOL     OW45027   6.811   1.006   6.080 -0.1277 -0.2320  0.2684
14604SOL    HW145028   6.865   0.984   6.156 -0.3471  0.7454  0.7227
14604SOL    HW245029   6.736   1.053   6.116  0.8523  2.2143 -0.7178
14605SOL     OW45030   7.723   0.537   5.526 -0.0607  0.1230  0.0022
14605SOL    HW145031   7.652   0.571   5.581 -0.4040  1.2797 -1.1150
14605SOL    HW245032   7.751   0.456   5.570 -3.2748 -1.3990 -0.4340
14606SOL     OW45033   6.345   0.943   6.336 -0.6348 -0.2606 -0.6282
14606SOL    HW145034   6.327   0.962   6.429 -0.1957 -0.5548 -0.4825
14606SOL    HW245035   6.262   0.962   6.292 -0.6622  0.4957 -0.2664
14607SOL     OW45036   7.034   0.660   7.417 -0.4931 -0.0583  0.5557
14607SOL    HW145037   6.985   0.723   7.364 -2.0197 -0.8713  0.9703
14607SOL    HW245038   7.036   0.699   7.505  0.2503  0.3012  0.3943
14608SOL     OW45039   6.269   1.310   5.558 -0.0351  0.4475 -0.8769
14608SOL    HW145040   6.330   1.330   5.487  2.2975 -0.9244  0.5840
14608SOL    HW245041   6.323   1.312   5.637 -1.5964 -2.0402  0.3950
14609SOL     OW45042   6.292   1.243   7.620  0.1254 -0.0167  0.4351
14609SOL    HW145043   6.370   1.266   7.570  0.8725  2.2404  2.4080
14609SOL    HW245044   6.220   1.284   7.572  0.3411 -0.7007 -0.5083
14610SOL     OW45045   6.048   1.027   6.375  0.4855  0.8962 -0.4460
14610SOL    HW145046   5.987   0.978   6.430  0.9490  0.3417 -0.4140
14610SOL    HW245047   6.020   1.007   6.285  0.2587  1.1123 -0.4238
14611SOL     OW45048   7.237   1.505   6.855 -0.0584 -0.3612 -0.2012
14611SOL    HW145049   7.183   1.466   6.786  0.7286 -0.3163 -0.8554
14611SOL    HW245050   7.211   1.458   6.934 -0.7557 -0.6278 -0.5725
14612SOL     OW45051   6.093   0.583   6.898  0.3247 -0.6147 -0.9139
14612SOL    HW145052   6.057   0.671   6.890 -0.3838 -0.6685  1.1735
14612SOL    HW245053   6.188   0.597   6.903  0.1658  0.1554  0.4885
14613SOL     OW45054   7.140   0.827   6.112  0.8651 -0.3541 -0.1780
14613SOL    HW145055   7.134   0.745   6.063 -0.1988 -1.1476  1.2219
14613SOL    HW245056   7.050   0.845   6.140  1.3018  0.5717  0.6768
14614SOL     OW45057   5.667   1.852   6.217 -0.2034  0.1423 -0.5233
14614SOL    HW145058   5.685   1.858   6.311  1.2360 -0.8416 -0.7113
14614SOL    HW245059   5.732   1.908   6.176 -0.9075  0.6684 -0.9429
14615SOL     OW45060   7.130   1.056   7.368 -0.5199 -0.0834 -0.1722
14615SOL    HW145061   7.164   1.096   7.448  0.4285  1.1076 -1.1085
14615SOL    HW245062   7.178   1.101   7.297  0.6826 -2.9186 -1.3410
14616SOL     OW45063   5.479   1.526   5.974 -0.0148  0.3111  0.7080
14616SOL    HW145064   5.531   1.600   5.941  0.7433  0.2136  1.6347
14616SOL    HW245065   5.421   1.565   6.039 -0.8256  0.3484 -0.0192
14617SOL     OW45066   5.384   0.952   6.134 -0.3317  0.4609  0.2439
14617SOL    HW145067   5.395   0.997   6.218 -0.6084 -1.5049  1.4158
14617SOL    HW245068   5.469   0.912   6.117 -0.3406  0.6723 -0.2946
14618SOL     OW45069   6.086   1.716   7.060  0.6727 -0.2399 -0.4002
14618SOL    HW145070   6.036   1.725   7.141  1.4675  0.9488 -0.0112
14618SOL    HW245071   6.077   1.801   7.017  2.3684  0.0212 -0.2960
14619SOL     OW45072   6.168   1.638   6.048  0.3004 -0.4632 -0.2781
14619SOL    HW145073   6.255   1.675   6.058  0.3942 -1.2593  3.4048
14619SOL    HW245074   6.159   1.621   5.954  2.6772  2.8115 -1.2564
14620SOL     OW45075   7.208   0.234   7.190  0.1241 -0.1593 -0.1353
14620SOL    HW145076   7.210   0.326   7.217  1.4294  0.3370 -1.7314
14620SOL    HW245077   7.227   0.186   7.270 -0.8039  0.9334  0.7799
14621SOL     OW45078   6.104   0.694   6.303  0.3109  0.0899  0.3032
14621SOL    HW145079   6.108   0.691   6.399  1.5845  0.5731  0.2864
14621SOL    HW245080   6.172   0.633   6.274  1.1451  1.2524 -0.2643
14622SOL     OW45081   7.481   1.850   5.516  0.2981  0.2139 -0.0053
14622SOL    HW145082   7.520   1.779   5.567 -0.9706 -0.3794  0.1828
14622SOL    HW245083   7.534   1.927   5.537  1.2057 -0.5081  0.4057
14623SOL     OW45084   5.211   1.758   5.957 -0.1280 -0.1324  0.3921
14623SOL    HW145085   5.180   1.668   5.969  0.1334 -0.2241  0.4065
14623SOL    HW245086   5.287   1.765   6.016 -0.5111  0.2875  0.8391
14624SOL     OW45087   7.816   0.948   6.199 -0.4561 -0.7640 -0.0202
14624SOL    HW145088   7.891   0.915   6.248  0.3540  0.7599 -0.1702
14624SOL    HW245089   7.759   0.872   6.187  0.9215 -1.8818  0.3440
14625SOL     OW45090   7.319   1.318   5.638  0.0057 -0.2872 -0.2763
14625SOL    HW145091   7.230   1.341   5.611 -0.1834  0.3391  0.7980
14625SOL    HW245092   7.348   1.253   5.575 -0.5280  0.8380 -1.7300
14626SOL     OW45093   5.632   0.935   7.079  0.0529  0.2645 -0.1466
14626SOL    HW145094   5.591   0.946   7.164 -0.5268  1.2399 -0.5262
14626SOL    HW245095   5.693   1.009   7.072  1.3362 -0.7341  0.0883
14627SOL     OW45096   6.187   1.409   6.218  0.5121  0.3686  0.0805
14627SOL    HW145097   6.187   1.484   6.159  2.3213  2.2571  2.3378
14627SOL    HW245098   6.096   1.403   6.249 -0.8871 -1.5284 -3.6479
14628SOL     OW45099   6.852   1.167   6.930  0.3350 -0.2137 -0.1868
14628SOL    HW145100   6.895   1.222   6.865 -0.4630  1.4121  0.5918
14628SOL    HW245101   6.893   1.193   7.013  0.2516 -1.1208  0.1453
14629SOL     OW45102   6.300   8.577   6.215  0.2383 -0.3372 -0.4392
14629SOL    HW145103   6.250   8.657   6.199  2.3035  0.8443 -1.3999
14629SOL    HW245104   6.364   8.603   6.282  0.1062 -1.5772  0.1888
14630SOL     OW45105   5.861   1.129   7.033 -0.3818  0.2371  0.1992
14630SOL    HW145106   5.886   1.221   7.032 -0.6425  0.3031 -0.6117
14630SOL    HW245107   5.943   1.082   7.022 -0.2584  0.3730  0.5283
14631SOL     OW45108   6.690   1.180   5.841 -0.1725  0.4294  0.2677
14631SOL    HW145109   6.682   1.095   5.798 -0.6787  0.5748  0.0729
14631SOL    HW245110   6.783   1.187   5.863 -0.5599 -1.4319  2.9080
14632SOL     OW45111   6.919   1.314   7.184  0.0634 -0.0625 -0.3467
14632SOL    HW145112   6.824   1.314   7.190  0.0829 -1.2942  0.1292
14632SOL    HW245113   6.950   1.323   7.274  0.4257  1.3930 -0.5822
14633SOL     OW45114   6.134   0.066   7.433  0.0464 -0.1243 -0.1238
14633SOL    HW145115   6.105   0.073   7.342 -0.0755  0.6229 -0.0340
14633SOL    HW245116   6.093   0.140   7.477  0.9739  0.1541  0.3083
14634SOL     OW45117   7.160   1.614   6.285 -0.1004  1.1335 -0.2396
14634SOL    HW145118   7.252   1.597   6.308 -0.1669 -0.3019 -0.9714
14634SOL    HW245119   7.155   1.593   6.191 -1.7583 -1.3721  0.3474
14635SOL     OW45120   7.440   1.601   6.282 -0.2042 -0.0431 -0.0911
14635SOL    HW145121   7.435   1.515   6.241 -0.4032  0.2868 -0.7772
14635SOL    HW245122   7.481   1.657   6.216  0.0884  0.3490  0.4169
14636SOL     OW45123   6.421   0.783   6.075 -0.6648  0.7025 -0.3597
14636SOL    HW145124   6.364   0.858   6.060 -0.2393  1.3011  0.8752
14636SOL    HW245125   6.440   0.785   6.169 -2.2002 -2.0876  0.1171
14637SOL     OW45126   6.916   0.467   6.312  0.5462 -0.7268 -0.8236
14637SOL    HW145127   6.873   0.519   6.380 -0.4378  0.1714 -2.0764
14637SOL    HW245128   6.945   0.388   6.357 -1.0304 -0.6482  0.4241
14638SOL     OW45129   7.090   1.652   5.541  0.8892  0.1141 -0.0818
14638SOL    HW145130   7.137   1.572   5.517 -0.1808 -0.5589  0.0016
14638SOL    HW245131   7.012   1.621   5.586 -0.3150  1.1457 -1.3858
14639SOL     OW45132   6.383   0.935   6.652  0.2380  0.5880 -0.0650
14639SOL    HW145133   6.370   0.956   6.744  0.1295 -0.3366  0.1478
14639SOL    HW245134   6.461   0.880   6.651 -0.7040 -0.8103 -0.2913
14640SOL     OW45135   7.317   0.862   7.403  0.0576  0.1170  0.3064
14640SOL    HW145136   7.359   0.854   7.317 -1.5793 -0.9366 -0.4463
14640SOL    HW245137   7.243   0.920   7.388 -0.6473 -0.6308  0.8291
14641SOL     OW45138   6.794   0.568   6.959 -0.1103  0.9409 -0.0932
14641SOL    HW145139   6.714   0.521   6.937  0.7808 -0.1689 -1.1281
14641SOL    HW245140   6.765   0.656   6.982 -1.4391  1.4424 -3.2099
14642SOL     OW45141   6.291   0.321   6.803  0.3413  0.1691 -0.0505
14642SOL    HW145142   6.199   0.315   6.779 -0.0246 -0.3147  1.4105
14642SOL    HW245143   6.312   0.414   6.795 -0.3843  0.3411  0.0055
14643SOL     OW45144   6.286   0.572   5.994 -0.6067  0.0940  0.3428
14643SOL    HW145145   6.333   0.624   6.059 -2.2122  2.5320 -0.2808
14643SOL    HW245146   6.318   0.604   5.910 -0.4372 -1.1644 -0.0914
14644SOL     OW45147   5.477   0.412   6.253 -0.2402 -0.1079 -0.0757
14644SOL    HW145148   5.544   0.351   6.222 -0.5799  0.2485 -1.5860
14644SOL    HW245149   5.486   0.411   6.349  0.1007 -2.1189 -0.0811
14645SOL     OW45150   5.288   1.931   7.086 -0.1342 -0.4796 -0.2172
14645SOL    HW145151   5.263   1.849   7.043  1.0658 -0.6183 -0.7050
14645SOL    HW245152   5.279   1.914   7.179  0.6594 -1.3714 -0.2934
14646SOL     OW45153   6.246   0.454   6.271 -0.3664  0.2581  0.0260
14646SOL    HW145154   6.189   0.388   6.231  0.5929 -0.2549 -0.5426
14646SOL    HW245155   6.285   0.410   6.347 -0.3199  0.4293  0.1035
14647SOL     OW45156   7.685   0.917   7.231  0.3180  0.0464 -0.0911
14647SOL    HW145157   7.661   1.009   7.222 -1.3445 -0.3657 -0.1435
14647SOL    HW245158   7.617   0.869   7.183 -2.0859 -1.4944  4.2854
14648SOL     OW45159   6.961   1.281   5.846 -0.3790  0.1132 -0.7841
14648SOL    HW145160   6.994   1.193   5.831  0.3395  0.6179 -2.3109
14648SOL    HW245161   7.015   1.315   5.917 -1.4516 -1.0508  0.6748
14649SOL     OW45162   5.620   0.068   6.718 -0.2927 -0.1380  0.1380
14649SOL    HW145163   5.659   0.155   6.711 -1.2186  0.2723  0.0163
14649SOL    HW245164   5.696   0.008   6.722  0.3511  0.6917  0.6544
14650SOL     OW45165   6.418   1.703   5.929  0.0518  0.0283 -0.2804
14650SOL    HW145166   6.456   1.790   5.925 -0.5708  0.3673  0.7843
14650SOL    HW245167   6.484   1.646   5.888  0.3220  1.0185 -1.2674
14651SOL     OW45168   6.075   2.222   6.764  0.0377  0.2880 -0.0006
14651SOL    HW145169   5.991   2.246   6.804  0.2855  0.2428  0.5636
14651SOL    HW245170   6.073   2.263   6.678 -0.7316 -0.0522 -0.1496
14652SOL     OW45171   7.426   0.860   6.194  0.0691  0.5008 -0.5009
14652SOL    HW145172   7.332   0.875   6.203  0.0613  0.0621  0.1930
14652SOL    HW245173   7.449   0.904   6.112 -0.4050  2.1186  0.2032
14653SOL     OW45174   6.465   1.387   6.994 -0.2575  0.2488 -0.3615
14653SOL    HW145175   6.402   1.371   6.924 -0.5150  0.4814 -0.1810
14653SOL    HW245176   6.462   1.482   7.009 -1.2330  0.0446  0.9300
14654SOL     OW45177   6.005   1.126   5.752  0.0397 -0.6188 -0.1322
14654SOL    HW145178   6.093   1.127   5.792  0.1951 -1.0468 -0.4538
14654SOL    HW245179   6.008   1.196   5.687  0.4496 -1.2047 -0.7670
14655SOL     OW45180   7.077   1.030   5.874  0.2776 -0.1583  0.0927
14655SOL    HW145181   7.169   1.049   5.896  1.1055 -2.1723 -1.3565
14655SOL    HW245182   7.038   1.002   5.956  1.8514 -2.3264  0.1866
14656SOL     OW45183   6.084   1.036   7.256  0.1365 -0.0663  0.2957
14656SOL    HW145184   5.990   1.021   7.258  0.2503 -0.9573  3.0702
14656SOL    HW245185   6.096   1.121   7.299  0.6755 -0.6360  1.2912
14657SOL     OW45186   6.752   2.224   5.515  0.2519  0.2593  0.1731
14657SOL    HW145187   6.696   2.147   5.501 -0.7816  1.1524 -0.7887
14657SOL    HW245188   6.839   2.196   5.485 -0.0444 -0.6155  0.0976
14658SOL     OW45189   5.992   0.370   7.051 -0.8915 -0.0002  0.0561
14658SOL    HW145190   5.980   0.420   7.131  0.1775 -0.5481  0.5766
14658SOL    HW245191   6.023   0.434   6.987 -0.3438  0.1657  0.4857
14659SOL     OW45192   7.227   1.566   5.134 -0.1666 -0.8210  0.4137
14659SOL    HW145193   7.137   1.593   5.154 -0.3753 -0.0210 -1.4329
14659SOL    HW245194   7.272   1.647   5.111  1.1504 -1.1745  1.6295
14660SOL     OW45195   5.660   1.702   5.928 -0.5111 -0.2190 -0.5422
14660SOL    HW145196   5.717   1.682   5.854  1.2631 -0.5489  0.8178
14660SOL    HW245197   5.717   1.750   5.989 -2.4927  2.0637 -0.3120
14661SOL     OW45198   7.056   0.262   5.618  0.0055  0.3236 -1.1009
14661SOL    HW145199   7.014   0.185   5.579  1.6072 -1.5466  0.6348
14661SOL    HW245200   6.994   0.292   5.684 -0.4978  0.3740 -1.5814
14662SOL     OW45201   5.975   1.992   6.574 -0.4809  0.4902 -0.3423
14662SOL    HW145202   5.902   2.041   6.614 -1.9403 -3.1058  1.8877
14662SOL    HW245203   6.053   2.030   6.613 -1.4026  1.9673  0.1560
14663SOL     OW45204   6.562   1.920   6.413 -0.1718 -0.0872 -0.2932
14663SOL    HW145205   6.575   1.830   6.443 -2.6284 -0.8612 -1.2505
14663SOL    HW245206   6.604   1.974   6.480  0.7484 -1.9080  0.6891
14664SOL     OW45207   5.993   0.889   6.149  0.0301  0.1154 -0.3363
14664SOL    HW145208   6.017   0.870   6.059  0.6401 -0.3349 -0.0887
14664SOL    HW245209   6.037   0.821   6.201  0.6899  1.0683  0.3968
14665SOL     OW45210   7.410   0.403   7.456 -0.1623  0.3627 -0.5450
14665SOL    HW145211   7.438   0.480   7.505 -1.5569  0.6491 -0.1315
14665SOL    HW245212   7.348   0.437   7.391 -0.9714 -0.4057 -0.2042
14666SOL     OW45213   6.195   0.224   6.103 -0.3849  0.2395  0.2040
14666SOL    HW145214   6.166   0.283   6.034 -1.7789 -0.8949 -0.1988
14666SOL    HW245215   6.285   0.201   6.079 -1.0150 -0.5268 -1.4995
14667SOL     OW45216   6.525   0.291   7.227  0.4854 -0.1236 -0.0790
14667SOL    HW145217   6.461   0.267   7.294 -1.4605 -0.0462 -1.8200
14667SOL    HW245218   6.594   0.336   7.275 -2.4298  3.0262  1.5566
14668SOL     OW45219   6.218   1.274   6.816  0.1302  0.4156  0.6328
14668SOL    HW145220   6.235   1.275   6.722 -1.6047  2.5482  0.2703
14668SOL    HW245221   6.262   1.195   6.847  1.9054  0.3650 -1.7240
14669SOL     OW45222   7.237   0.526   7.287  0.7267 -0.0866 -0.3113
14669SOL    HW145223   7.195   0.572   7.360  3.4776  0.7270  0.8989
14669SOL    HW245224   7.206   0.572   7.209  0.2726  1.2166  0.5916
14670SOL     OW45225   6.433   1.315   6.299  0.2246 -0.0542 -0.6541
14670SOL    HW145226   6.348   1.359   6.289  0.3966  0.6597  0.7878
14670SOL    HW245227   6.447   1.271   6.215 -2.0392 -1.0170 -0.6199
14671SOL     OW45228   6.829   0.618   6.094 -0.0447  0.1270  0.5135
14671SOL    HW145229   6.876   0.561   6.154 -0.2905  1.1828  1.7738
14671SOL    HW245230   6.811   0.697   6.146 -1.4011  0.5608 -0.5509
14672SOL     OW45231   6.442   8.612   6.446 -0.0481  0.7405 -0.3996
14672SOL    HW145232   6.454   8.667   6.523  0.4696  0.6222 -0.3916
14672SOL    HW245233   6.468   8.525   6.473 -0.4428  0.5733 -0.5411
14673SOL     OW45234   7.219   1.121   5.374 -0.2322  0.0256 -0.7684
14673SOL    HW145235   7.124   1.112   5.380 -0.1365 -1.3621 -0.9349
14673SOL    HW245236   7.233   1.184   5.303 -1.0255 -0.2233 -1.1549
14674SOL     OW45237   5.861   8.787   5.870 -0.8004  0.1333 -0.2771
14674SOL    HW145238   5.878   8.772   5.963 -0.7004  0.8143 -0.1834
14674SOL    HW245239   5.900   8.872   5.851 -0.9987  0.0945 -0.8956
14675SOL     OW45240   6.156   0.053   6.475 -0.2891 -0.0867  0.1635
14675SOL    HW145241   6.120  -0.035   6.486 -4.4128  1.4343  0.6963
14675SOL    HW245242   6.198   0.072   6.559  0.3322 -1.3447  0.1713
14676SOL     OW45243   7.144   0.647   7.060 -0.2847 -0.3849  0.1121
14676SOL    HW145244   7.135   0.573   7.000 -1.9922 -0.0534 -0.0997
14676SOL    HW245245   7.073   0.707   7.034 -0.0038  0.5290  1.3755
14677SOL     OW45246   6.605   1.529   5.827 -0.2810  0.1193 -0.5145
14677SOL    HW145247   6.614   1.455   5.767 -0.3974  0.8293 -1.4444
14677SOL    HW245248   6.677   1.587   5.803 -0.5374  0.5693 -0.2028
14678SOL     OW45249   5.646   1.153   6.362 -0.0296 -0.2733 -0.4984
14678SOL    HW145250   5.560   1.168   6.322  0.3643 -0.1860 -1.3379
14678SOL    HW245251   5.706   1.146   6.287  0.5340 -1.3926  0.0325
14679SOL     OW45252   6.488   1.857   6.142  0.1103  0.5212 -0.4641
14679SOL    HW145253   6.580   1.850   6.116 -0.0406  0.1111 -0.9197
14679SOL    HW245254   6.490   1.863   6.238  0.5277 -1.9011 -0.2513
14680SOL     OW45255   6.347   1.127   5.999 -0.1727 -0.1863  0.5704
14680SOL    HW145256   6.414   1.196   5.998 -0.5009  0.1588 -0.8321
14680SOL    HW245257   6.268   1.171   6.032 -0.3577  0.1006 -0.2347
14681SOL     OW45258   5.597   0.735   6.884 -0.1685 -0.3013 -0.3371
14681SOL    HW145259   5.676   0.745   6.830  0.5575  2.2373  1.0032
14681SOL    HW245260   5.585   0.821   6.924 -3.1032 -0.8969  0.2657
14682SOL     OW45261   6.338   8.729   6.908  0.2279 -0.1276  0.7631
14682SOL    HW145262   6.340   8.789   6.982  1.4533  0.1876  0.4935
14682SOL    HW245263   6.245   8.710   6.895  0.0145 -0.9546  2.9795
14683SOL     OW45264   6.451   0.547   6.635  0.3816 -0.0117  0.3310
14683SOL    HW145265   6.479   0.474   6.581 -0.0311  0.3024 -0.3124
14683SOL    HW245266   6.493   0.624   6.595  1.2478  0.0522  1.3118
14684SOL     OW45267   6.356   0.176   6.352  0.2767 -0.1400  0.3787
14684SOL    HW145268   6.270   0.140   6.375  0.5902 -0.3326  1.3182
14684SOL    HW245269   6.398   0.106   6.302 -0.5328  0.3941 -1.1076
14685SOL     OW45270   7.093   1.383   6.049 -0.0159 -0.0624 -0.1357
14685SOL    HW145271   7.154   1.457   6.040  1.2206 -1.0896 -0.4863
14685SOL    HW245272   7.143   1.316   6.096 -1.5460 -0.2387  1.3508
14686SOL     OW45273   7.233   0.960   6.390 -0.2491  0.1445 -0.2424
14686SOL    HW145274   7.234   0.976   6.485 -1.1784  1.0295 -0.3622
14686SOL    HW245275   7.202   0.869   6.382 -2.1066  0.6766  0.2716
14687SOL     OW45276   7.405   0.968   5.924  0.6963 -0.5098  0.5713
14687SOL    HW145277   7.464   0.971   5.848 -0.4964 -0.6108 -0.3873
14687SOL    HW245278   7.348   0.893   5.907 -0.4098  0.2232  0.9372
14688SOL     OW45279   5.936   1.383   6.316 -1.0035  0.1425  0.7625
14688SOL    HW145280   5.884   1.455   6.280 -0.2424  0.1681 -0.3449
14688SOL    HW245281   5.885   1.305   6.298 -0.2728  0.0635 -1.1972
14689SOL     OW45282   7.314   1.219   5.898  0.6245 -0.5264  0.4483
14689SOL    HW145283   7.379   1.149   5.908  1.8278  0.4050 -0.4524
14689SOL    HW245284   7.345   1.269   5.822 -0.6922  0.4521  0.5271
14690SOL     OW45285   6.240   0.332   5.848 -0.3855 -0.1570 -0.1437
14690SOL    HW145286   6.314   0.278   5.879 -0.1613  0.2277 -0.0069
14690SOL    HW245287   6.280   0.415   5.823 -1.1485  1.4297  3.2483
14691SOL     OW45288   6.113   1.212   6.064 -0.2758  0.1053 -0.4298
14691SOL    HW145289   6.129   1.266   6.141 -0.7845 -0.6689  0.2385
14691SOL    HW245290   6.029   1.170   6.080  0.1346 -0.9468 -0.8711
14692SOL     OW45291   7.188   1.229   6.550 -0.0379  0.1696 -0.5041
14692SOL    HW145292   7.127   1.157   6.542 -1.0445  0.9150  0.2309
14692SOL    HW245293   7.236   1.212   6.631  1.4107 -0.8795 -1.5212
14693SOL     OW45294   6.561   1.130   6.968 -0.4262  0.5714  0.1234
14693SOL    HW145295   6.532   1.216   6.999 -0.0180  0.6234  0.3762
14693SOL    HW245296   6.649   1.146   6.934 -1.0339  0.6094 -1.5052
14694SOL     OW45297   7.406   1.285   6.731  0.1918 -0.1321  0.2999
14694SOL    HW145298   7.418   1.318   6.820 -0.1242 -0.1049  0.3329
14694SOL    HW245299   7.495   1.276   6.697  0.3289 -0.3945  0.7110
14695SOL     OW45300   6.827   1.063   6.475  0.0745  0.4489 -0.7964
14695SOL    HW145301   6.733   1.068   6.492  0.2642 -1.1522  1.0580
14695SOL    HW245302   6.851   1.151   6.446 -2.0081  0.8345 -1.5184
14696SOL     OW45303   7.210   1.206   6.261  0.6490  0.0011 -0.5775
14696SOL    HW145304   7.216   1.233   6.352  0.1955  2.1803 -1.1354
14696SOL    HW245305   7.242   1.115   6.260  2.0085  0.4047  1.4859
14697SOL     OW45306   7.018   8.339   6.617 -0.2020 -0.1868  1.1685
14697SOL    HW145307   6.927   8.320   6.594  0.1452 -1.1384  0.5258
14697SOL    HW245308   7.068   8.265   6.582  0.9708  0.9028  0.4594
14698SOL     OW45309   6.460   1.200   7.342 -0.2789 -0.4025 -0.1939
14698SOL    HW145310   6.380   1.241   7.307 -1.0504 -1.1593  0.6192
14698SOL    HW245311   6.431   1.114   7.371  1.0225 -0.9865 -0.5869
14699SOL     OW45312   6.533   1.290   5.669  0.2912  0.3256 -0.3072
14699SOL    HW145313   6.602   1.240   5.712  0.6743 -0.2171 -1.5076
14699SOL    HW245314   6.551   1.280   5.575 -1.4996  0.0333 -0.6529
14700SOL     OW45315   5.682   0.881   6.210  0.3723 -0.0531 -0.0144
14700SOL    HW145316   5.695   0.806   6.151 -0.6066 -0.3417  0.1150
14700SOL    HW245317   5.730   0.952   6.169  2.1712 -0.9878  0.3703
14701SOL     OW45318   6.803   0.511   6.576 -0.1814 -0.1456 -0.4591
14701SOL    HW145319   6.886   0.467   6.596 -0.1310  0.5024  0.8683
14701SOL    HW245320   6.737   0.444   6.595  0.0259 -0.8841 -2.1507
14702SOL     OW45321   6.282   1.385   7.288  0.3014  0.7765 -0.1655
14702SOL    HW145322   6.208   1.420   7.338  0.9499  1.3984  0.3720
14702SOL    HW245323   6.313   1.458   7.235 -0.3857  0.1179 -1.5260
14703SOL     OW45324   5.791   1.137   6.116  0.1514 -0.2088 -0.4768
14703SOL    HW145325   5.739   1.207   6.077 -0.0475  0.2073  0.4882
14703SOL    HW245326   5.812   1.078   6.044  1.4031  1.5000 -1.5761
14704SOL     OW45327   5.946   0.449   6.375 -0.3031 -0.1721 -0.4685
14704SOL    HW145328   5.859   0.476   6.344 -0.1276 -0.3322 -1.0954
14704SOL    HW245329   5.961   0.504   6.452 -1.9540 -1.7214  1.0719
14705SOL     OW45330   6.516   1.332   6.016  0.3539  0.3034 -0.3921
14705SOL    HW145331   6.551   1.418   5.996 -0.5255  0.3128 -2.0346
14705SOL    HW245332   6.569   1.272   5.964  0.8047 -0.1478  0.5566
14706SOL     OW45333   6.545   1.685   6.562 -0.3529  0.2984 -0.1381
14706SOL    HW145334   6.595   1.682   6.643 -0.9078  0.5400  0.2188
14706SOL    HW245335   6.545   1.595   6.530 -1.4751 -0.1269  0.9674
14707SOL     OW45336   7.028   0.715   5.659  0.7914  0.0047 -0.7343
14707SOL    HW145337   6.977   0.748   5.733  1.9833  0.4208 -0.0719
14707SOL    HW245338   7.074   0.792   5.626  0.7116 -0.2896 -1.5524
14708SOL     OW45339   5.664   1.653   6.780  0.0411  0.1192  0.1023
14708SOL    HW145340   5.722   1.632   6.854  1.9770 -0.3983 -1.4810
14708SOL    HW245341   5.705   1.611   6.705 -1.6315  1.0047 -1.3769
14709SOL     OW45342   5.927   0.789   7.060 -0.4680 -0.0207 -0.1359
14709SOL    HW145343   5.856   0.839   7.101  0.1590 -0.2431  1.2450
14709SOL    HW245344   5.888   0.702   7.043 -0.5698 -0.0920  0.4647
14710SOL     OW45345   7.528   1.035   7.489  0.2529 -0.3173  0.2216
14710SOL    HW145346   7.478   1.052   7.409  1.6313  0.3364 -0.5347
14710SOL    HW245347   7.497   0.949   7.519 -0.3720 -0.5178 -0.9283
14711SOL     OW45348   6.741   0.432   7.361 -0.2827  0.4236  0.4257
14711SOL    HW145349   6.744   0.524   7.335 -0.5485  0.8866  1.9612
14711SOL    HW245350   6.820   0.419   7.413 -0.9270  0.1628  1.3693
14712SOL     OW45351   5.800   8.687   6.918  0.3304 -0.7043 -0.0667
14712SOL    HW145352   5.831   8.612   6.969 -1.8593 -0.9913  0.9541
14712SOL    HW245353   5.783   8.755   6.982 -0.6572 -0.4190 -0.6053
14713SOL     OW45354   6.086   0.858   6.650 -0.1043  0.3180  0.5185
14713SOL    HW145355   6.165   0.909   6.669 -1.5295  2.0404  2.2200
14713SOL    HW245356   6.114   0.767   6.654  1.8251  0.8865  0.8161
14714SOL     OW45357   6.927   0.847   6.287  0.3578 -0.3466 -0.3179
14714SOL    HW145358   6.882   0.892   6.358  0.1211 -0.2564 -0.5251
14714SOL    HW245359   7.008   0.816   6.327  0.2159 -0.3181 -0.0017
14715SOL     OW45360   6.297   0.593   5.716 -0.1827 -0.2761  0.4182
14715SOL    HW145361   6.294   0.688   5.706 -2.3647 -0.2745  0.5711
14715SOL    HW245362   6.266   0.559   5.633  0.6421 -0.8819  0.3430
14716SOL     OW45363   5.897   8.458   7.036  0.2760  0.0265  0.0041
14716SOL    HW145364   5.897   8.373   6.993 -0.1801  0.2649 -0.4777
14716SOL    HW245365   5.978   8.459   7.088  1.3387  0.0988 -1.5808
14717SOL     OW45366   5.856   1.609   6.940 -0.0906  0.3085 -0.4204
14717SOL    HW145367   5.886   1.528   6.900 -0.2299 -0.1450  0.3585
14717SOL    HW245368   5.935   1.651   6.973 -0.2217 -0.9231  1.7016
14718SOL     OW45369   6.342   0.713   6.912  0.1231 -0.0135 -0.2134
14718SOL    HW145370   6.312   0.791   6.959  1.2301  0.9875 -1.0912
14718SOL    HW245371   6.369   0.652   6.981  0.6703  0.9820  0.4739
14719SOL     OW45372   7.421   1.111   7.255  0.1909  0.3079 -0.4433
14719SOL    HW145373   7.440   1.203   7.272  0.9410  0.1563 -0.4282
14719SOL    HW245374   7.477   1.088   7.181 -0.2248 -0.0559 -0.6502
14720SOL     OW45375   5.346   8.658   6.167  0.1026 -0.0495 -0.0975
14720SOL    HW145376   5.310   8.599   6.101  3.1569 -0.6434 -1.4040
14720SOL    HW245377   5.410   8.605   6.215 -0.0698  1.1275  1.5351
14721SOL     OW45378   7.392   0.562   5.597 -0.5097  0.0182 -0.6871
14721SOL    HW145379   7.359   0.634   5.650  1.7209  1.7083 -1.4544
14721SOL    HW245380   7.345   0.568   5.514 -0.1065  0.8245 -0.8627
14722SOL     OW45381   6.640   0.768   6.603 -0.1032  0.1281  0.2912
14722SOL    HW145382   6.671   0.835   6.663 -0.4836  0.7369 -0.1801
14722SOL    HW245383   6.709   0.702   6.602  0.3119  0.5556  0.6959
14723SOL     OW45384   6.652   1.394   7.229  0.6352 -0.5925  0.0818
14723SOL    HW145385   6.616   1.408   7.141  1.4409 -0.0867 -0.1877
14723SOL    HW245386   6.597   1.327   7.267 -0.1914 -0.2894 -0.5371
14724SOL     OW45387   7.627   1.482   7.046 -0.5192  0.1852  0.1366
14724SOL    HW145388   7.629   1.520   6.958 -1.0233 -0.2364 -0.0605
14724SOL    HW245389   7.708   1.431   7.052 -0.3153  0.4992  0.0456
14725SOL     OW45390   6.220   0.980   7.680 -0.7184  0.0603 -0.4336
14725SOL    HW145391   6.289   0.971   7.745 -0.7475  0.6671 -0.3118
14725SOL    HW245392   6.225   1.072   7.653 -0.9792 -0.0813 -0.9824
14726SOL     OW45393   6.550   0.555   5.628  0.2009 -0.6555 -0.3186
14726SOL    HW145394   6.631   0.566   5.677  0.2024 -0.2289 -0.4175
14726SOL    HW245395   6.481   0.576   5.691  0.1661 -0.9887 -0.2429
14727SOL     OW45396   6.938   1.118   5.376 -0.3925 -0.2914  0.2239
14727SOL    HW145397   6.927   1.026   5.399 -1.8674  0.0302  0.9084
14727SOL    HW245398   6.899   1.126   5.289 -0.1590 -0.3300  0.1145
14728SOL     OW45399   6.821   1.462   6.420 -0.1026 -0.0146  0.3906
14728SOL    HW145400   6.795   1.511   6.343 -0.8642 -0.6011  0.2608
14728SOL    HW245401   6.897   1.509   6.454  0.4178  0.1029 -0.8684
14729SOL     OW45402   5.750   0.623   6.045  0.1169  0.4737  0.6547
14729SOL    HW145403   5.836   0.608   6.004 -0.5981  1.2799 -1.2842
14729SOL    HW245404   5.752   0.571   6.125  2.4613  0.5772  0.7291
14730SOL     OW45405   5.878   0.198   6.563  0.5281 -0.2644 -0.4677
14730SOL    HW145406   5.903   0.111   6.595 -0.5919 -0.5593 -0.3343
14730SOL    HW245407   5.860   0.185   6.470  0.5475 -0.1326 -0.4894
14731SOL     OW45408   6.709   0.137   6.970  0.3035 -0.0227 -0.2296
14731SOL    HW145409   6.781   0.196   6.990  0.5780 -0.6518  0.7688
14731SOL    HW245410   6.648   0.148   7.043  0.2942 -0.8401 -0.0936
14732SOL     OW45411   6.584   0.432   6.842  0.2932 -0.1941  0.0367
14732SOL    HW145412   6.537   0.349   6.836 -0.4678  0.1644  0.7731
14732SOL    HW245413   6.546   0.486   6.773  0.0925 -0.1249  0.2019
14733SOL     OW45414   5.567   1.117   5.593 -0.0759  0.2492 -0.1564
14733SOL    HW145415   5.643   1.084   5.544 -0.3769 -1.7610  0.6475
14733SOL    HW245416   5.599   1.197   5.635  2.5840 -1.9152  2.4060
14734SOL     OW45417   5.785   2.157   6.681 -0.4527  0.2583  0.2420
14734SOL    HW145418   5.771   2.195   6.768 -1.0051 -0.6861  0.5820
14734SOL    HW245419   5.726   2.206   6.624 -1.6459 -0.5118  0.7943
14735SOL     OW45420   6.147   1.526   6.585  0.2360 -0.1918 -0.0460
14735SOL    HW145421   6.171   1.548   6.675  1.4006 -0.5486 -0.2534
14735SOL    HW245422   6.166   1.433   6.577 -0.8202 -0.3855 -0.3717
14736SOL     OW45423   6.638   0.811   6.946 -0.5657 -0.2588  0.1612
14736SOL    HW145424   6.545   0.789   6.942 -0.2209 -1.9254  0.6803
14736SOL    HW245425   6.645   0.893   6.897 -2.3279  0.0118  0.2830
14737SOL     OW45426   5.604   8.782   6.477  0.1353  0.0532 -0.6664
14737SOL    HW145427   5.588   8.838   6.553 -0.7618 -1.5053  0.3534
14737SOL    HW245428   5.534   8.805   6.415  0.4009  0.7660 -0.7197
14738SOL     OW45429   6.525   0.882   7.319 -0.1223  0.0046 -0.4295
14738SOL    HW145430   6.594   0.817   7.305  0.7996  0.7214  0.5400
14738SOL    HW245431   6.465   0.841   7.381  0.7476  0.2377  0.6091
14739SOL     OW45432   7.365   0.667   7.591 -0.0802  0.2404  0.6133
14739SOL    HW145433   7.341   0.736   7.529  0.7277 -0.2279 -0.2601
14739SOL    HW245434   7.286   0.653   7.643 -0.9656  0.3222 -0.6413
14740SOL     OW45435   6.509   0.433   6.148 -0.3064 -0.1547  0.6310
14740SOL    HW145436   6.414   0.420   6.147 -0.2602 -0.5287  0.8285
14740SOL    HW245437   6.524   0.495   6.220 -0.4717  0.5172  0.0938
14741SOL     OW45438   7.119   0.703   6.455  0.6658 -0.2283  0.0963
14741SOL    HW145439   7.054   0.633   6.467  0.4382 -0.0625 -0.1520
14741SOL    HW245440   7.200   0.657   6.434  0.0701 -0.3903 -2.1470
14742SOL     OW45441   5.950   1.549   7.904 -0.0924  0.3310 -0.1389
14742SOL    HW145442   6.022   1.498   7.868 -1.1769 -1.3449 -0.0863
14742SOL    HW245443   5.889   1.559   7.831 -0.1836  1.0174  0.0255
14743SOL     OW45444   6.047   0.368   6.669  0.7166  0.3981 -0.6405
14743SOL    HW145445   5.988   0.438   6.697  1.1097  0.1277  0.9379
14743SOL    HW245446   5.989   0.303   6.629 -0.2063 -0.2099  1.5561
14744SOL     OW45447   6.579   1.417   6.520 -0.0816  0.1141 -0.0940
14744SOL    HW145448   6.671   1.439   6.502  0.5500 -1.6287  0.8322
14744SOL    HW245449   6.545   1.387   6.436  0.7893 -1.1324 -0.0298
14745SOL     OW45450   5.959   0.633   5.388  0.1158 -0.0968  0.0585
14745SOL    HW145451   5.952   0.541   5.413 -0.9057 -1.1744 -3.5323
14745SOL    HW245452   5.870   0.658   5.362  0.1342  2.3236  1.9214
14746SOL     OW45453   5.798   0.997   7.369 -0.2345 -0.0508  1.4816
14746SOL    HW145454   5.707   1.001   7.342  0.9688  0.3843 -3.4856
14746SOL    HW245455   5.822   0.905   7.358  0.6549  0.3860 -0.5594
14747SOL     OW45456   6.538   1.144   6.543 -0.4170  0.6666 -0.4337
14747SOL    HW145457   6.533   1.235   6.515 -0.5518  0.7809 -0.0352
14747SOL    HW245458   6.450   1.123   6.574  0.4197  1.4974  2.8987
14748SOL     OW45459   7.170   0.932   5.618 -0.2027  0.0975 -0.2089
14748SOL    HW145460   7.166   0.961   5.709 -0.8806  0.4837 -0.3561
14748SOL    HW245461   7.181   1.013   5.567 -0.7205 -0.0210 -0.5235
14749SOL     OW45462   7.254   1.761   6.578  0.1282  0.6944 -0.0129
14749SOL    HW145463   7.344   1.769   6.544  0.3458  0.5630  0.5164
14749SOL    HW245464   7.265   1.758   6.673 -0.4302  0.5288  0.0476
14750SOL     OW45465   7.205   1.917   6.196 -0.0774 -0.0163  0.2331
14750SOL    HW145466   7.188   1.879   6.282  0.1355  0.5784  0.5492
14750SOL    HW245467   7.154   1.864   6.135  0.1878 -0.7655  0.6611
14751SOL     OW45468   5.645   0.920   6.513  1.1221  0.2177  0.4699
14751SOL    HW145469   5.550   0.904   6.513  0.7620  1.8879  2.3467
14751SOL    HW245470   5.657   0.992   6.452  0.9858  0.7743  1.0835
14752SOL     OW45471   6.220   1.640   7.423 -0.1519  0.0519 -0.1581
14752SOL    HW145472   6.247   1.723   7.384  1.7050 -0.8498 -0.9039
14752SOL    HW245473   6.297   1.609   7.469  0.1429 -2.5744 -2.1946
14753SOL     OW45474   7.183   0.634   5.861  0.0733 -0.5394 -0.2890
14753SOL    HW145475   7.199   0.540   5.850 -1.1487 -0.7008 -0.7831
14753SOL    HW245476   7.121   0.656   5.792  1.9235  1.0870 -1.5363
14754SOL     OW45477   7.419   1.580   5.782 -0.1779  0.1611 -0.3758
14754SOL    HW145478   7.512   1.585   5.756 -0.5299 -1.2305 -2.0860
14754SOL    HW245479   7.381   1.516   5.722 -2.3697  1.0313  0.0003
14755SOL     OW45480   5.934   1.756   7.317  0.0233 -0.0321 -0.4070
14755SOL    HW145481   6.008   1.719   7.366 -1.0658 -0.6135  0.8828
14755SOL    HW245482   5.928   1.846   7.348 -0.3568 -0.2534  0.1780
14756SOL     OW45483   6.813   1.422   6.121 -0.1099  0.1246 -0.0385
14756SOL    HW145484   6.897   1.385   6.093  0.8716  0.4548  2.1790
14756SOL    HW245485   6.750   1.352   6.108  1.0219 -1.0783  0.6735
14757SOL     OW45486   6.187   0.880   7.054  0.4854 -0.2671  0.0164
14757SOL    HW145487   6.188   0.923   7.139  0.1566 -1.9430  0.9200
14757SOL    HW245488   6.094   0.859   7.039  0.4420  0.5965 -1.0904
14758SOL     OW45489   6.122   1.583   5.741  0.0508  0.4589 -0.2098
14758SOL    HW145490   6.058   1.645   5.776  2.0520  1.4204  2.0214
14758SOL    HW245491   6.069   1.512   5.705 -2.2733  1.3449  1.2320
14759SOL     OW45492   6.940   1.384   6.783 -0.3712 -0.5302  0.1959
14759SOL    HW145493   6.969   1.409   6.695  2.6583  1.5726  1.6263
14759SOL    HW245494   6.929   1.467   6.829 -0.0940 -1.6064  2.3094
14760SOL     OW45495   7.218   0.259   6.397  0.0907  0.4908  1.1454
14760SOL    HW145496   7.223   0.164   6.410  1.3262  0.3701  0.0095
14760SOL    HW245497   7.176   0.269   6.312  1.1568  0.8908  0.6406
14761SOL     OW45498   6.176   8.816   6.176 -0.2893 -0.0029 -0.4464
14761SOL    HW145499   6.227   8.823   6.096  0.1372 -1.5234 -0.3438
14761SOL    HW245500   6.157   8.907   6.201 -1.1318  0.4880 -2.6747
14762SOL     OW45501   6.706   1.404   5.473  0.1663 -0.6586  0.0625
14762SOL    HW145502   6.651   1.482   5.475  0.2174 -0.6371  1.4428
14762SOL    HW245503   6.770   1.418   5.543  1.4453 -1.0433 -0.9952
14763SOL     OW45504   6.322   1.024   6.886  0.2814  0.3645 -0.3240
14763SOL    HW145505   6.408   1.018   6.928 -0.1467  0.1990  0.5544
14763SOL    HW245506   6.264   0.974   6.943 -0.4966  0.8949 -0.6312
14764SOL     OW45507   6.280   0.964   5.800  0.3303 -0.2146 -0.0495
14764SOL    HW145508   6.359   0.928   5.760  0.6285 -0.2781  0.5871
14764SOL    HW245509   6.312   1.019   5.871 -0.1005  1.3801 -1.0248
14765SOL     OW45510   7.031   1.731   5.241 -0.0801 -0.1044 -0.6310
14765SOL    HW145511   7.101   1.744   5.305  1.7336 -0.0226 -2.5180
14765SOL    HW245512   6.997   1.818   5.224  1.7278  0.3491 -2.1749
14766SOL     OW45513   6.305   1.870   7.277  0.3866  0.0889  0.2776
14766SOL    HW145514   6.285   1.848   7.186 -0.8290 -1.7163  0.9193
14766SOL    HW245515   6.329   1.963   7.275 -1.0945  0.4904 -1.6601
14767SOL     OW45516   7.012   0.994   6.664 -0.1779  0.0279 -0.4698
14767SOL    HW145517   6.942   1.030   6.610 -1.0502 -0.6753  0.1506
14767SOL    HW245518   6.997   0.899   6.663  0.1442 -0.0480  0.4977
14768SOL     OW45519   6.564   1.082   6.233 -0.1808 -0.1201  0.2080
14768SOL    HW145520   6.506   1.009   6.254 -0.3791 -0.1119 -0.3035
14768SOL    HW245521   6.559   1.140   6.310 -1.6839  0.4110 -0.2719
14769SOL     OW45522   6.518   0.315   6.505 -0.7774  0.3832 -0.5444
14769SOL    HW145523   6.469   0.273   6.435  1.4617  1.6616 -3.0545
14769SOL    HW245524   6.558   0.243   6.554  0.9722 -0.6156 -3.2155
14770SOL     OW45525   6.016   1.745   6.248 -0.1279  0.1763  0.3763
14770SOL    HW145526   6.065   1.827   6.256 -1.0741  0.9317 -1.1176
14770SOL    HW245527   6.061   1.697   6.179 -0.3716  0.0249  0.3234
14771SOL     OW45528   7.468   0.254   6.723 -0.1153 -0.8837 -0.0320
14771SOL    HW145529   7.376   0.262   6.697 -0.2307 -0.9862  0.3311
14771SOL    HW245530   7.516   0.255   6.641 -0.4800 -1.3467 -0.2604
14772SOL     OW45531   5.675   1.376   6.070 -0.3050 -0.0019 -0.0454
14772SOL    HW145532   5.605   1.426   6.028 -1.1744 -0.6874  0.5482
14772SOL    HW245533   5.717   1.438   6.130 -0.4952  0.3790 -0.3048
14773SOL     OW45534   5.921   0.757   7.354  0.1566  0.3074 -0.1932
14773SOL    HW145535   5.979   0.741   7.429  0.4990  2.2274  0.0036
14773SOL    HW245536   5.981   0.777   7.282 -0.0739  4.3986  0.4839
14774SOL     OW45537   6.330   0.134   7.023 -0.1224 -0.1906 -0.4052
14774SOL    HW145538   6.378   0.185   7.088 -0.9683 -1.2224  1.0941
14774SOL    HW245539   6.314   0.195   6.951  0.0825  1.2576  0.7351
14775SOL     OW45540   5.607   0.224   5.428 -0.1284  0.2177 -0.4345
14775SOL    HW145541   5.550   0.214   5.351 -0.8235  1.8371 -0.1813
14775SOL    HW245542   5.576   0.157   5.490 -2.4832  1.6573  0.0709
14776SOL     OW45543   6.685   1.012   6.738  0.4885 -0.3838  0.2179
14776SOL    HW145544   6.762   1.061   6.766 -0.6900  0.4028  2.2644
14776SOL    HW245545   6.641   1.069   6.675  1.5209 -0.8411 -0.9704
14777SOL     OW45546   5.797   0.556   5.722 -0.0640 -0.1003  0.8981
14777SOL    HW145547   5.737   0.488   5.753 -0.4660  0.5405  1.5593
14777SOL    HW245548   5.864   0.561   5.791 -0.1652  0.3271  0.9692
14778SOL     OW45549   7.066   1.366   5.550  0.8933  0.3148 -0.1317
14778SOL    HW145550   6.987   1.404   5.590  0.3647  1.4829 -2.1205
14778SOL    HW245551   7.032   1.307   5.483  1.6997  0.9157 -1.0878
14779SOL     OW45552   5.778   0.821   6.720 -0.1184 -0.2504  0.0617
14779SOL    HW145553   5.728   0.845   6.643  0.1233 -0.8576 -0.2984
14779SOL    HW245554   5.861   0.868   6.711 -0.9861  1.6269  1.2105
14780SOL     OW45555   7.064   1.554   6.573  0.6225  0.1721  0.8887
14780SOL    HW145556   7.119   1.630   6.596 -0.3854  1.8773 -1.8937
14780SOL    HW245557   7.118   1.503   6.513 -0.4398  1.4182 -1.2029
14781SOL     OW45558   6.868   0.330   7.082 -0.6795 -0.1640  0.1017
14781SOL    HW145559   6.859   0.407   7.026 -0.7996  1.9892  2.8077
14781SOL    HW245560   6.824   0.355   7.164 -0.2119 -2.9275  1.3183
14782SOL     OW45561   6.949   0.892   6.967 -0.5372 -0.2488  0.5466
14782SOL    HW145562   6.882   0.959   6.981 -0.4041 -0.0241  0.1361
14782SOL    HW245563   7.031   0.934   6.995 -0.2303  0.2938 -1.0653
14783SOL     OW45564   6.232   1.586   6.864 -0.1527  0.5363 -0.5231
14783SOL    HW145565   6.324   1.608   6.883 -0.1844  0.8505 -0.7398
14783SOL    HW245566   6.183   1.619   6.939  0.1151 -1.2698  0.5043
14784SOL     OW45567   7.289   0.948   6.698  0.4898 -0.5959  0.4648
14784SOL    HW145568   7.302   0.855   6.677 -1.3766 -0.2850 -2.9039
14784SOL    HW245569   7.195   0.955   6.715  0.5635  0.6931  0.4044
14785SOL     OW45570   6.629   0.560   5.909 -0.1179 -0.2448 -1.0259
14785SOL    HW145571   6.695   0.572   5.977  0.1842  0.9534 -1.4959
14785SOL    HW245572   6.576   0.486   5.939 -0.4183  0.6662  0.8605
14786SOL     OW45573   6.161   0.596   6.597 -0.3626  0.1636  0.4097
14786SOL    HW145574   6.114   0.517   6.623  0.4973 -0.6332 -0.3912
14786SOL    HW245575   6.252   0.578   6.618 -0.3344  1.5584  1.6315
14787SOL     OW45576   7.491   0.541   7.161  0.1319 -0.0969  0.0785
14787SOL    HW145577   7.408   0.516   7.202 -1.4601  2.0661 -1.5884
14787SOL    HW245578   7.511   0.468   7.102 -1.0620 -0.2943 -0.1162
14788SOL     OW45579   7.396   0.803   7.122  0.0405 -0.2093  0.0777
14788SOL    HW145580   7.310   0.767   7.100 -0.2459  1.0586 -0.9780
14788SOL    HW245581   7.457   0.732   7.106 -0.5908 -0.4756 -1.2336
14789SOL     OW45582   6.624   1.168   5.423  0.0567  0.3159  0.1281
14789SOL    HW145583   6.594   1.175   5.333  1.3634 -0.3440 -0.3807
14789SOL    HW245584   6.678   1.245   5.437  0.7308 -0.1228 -0.0140
14790SOL     OW45585   6.304   1.878   6.769  0.1381 -0.3656  0.5530
14790SOL    HW145586   6.315   1.928   6.688  0.5901 -1.2484  0.0528
14790SOL    HW245587   6.255   1.800   6.743 -1.0403  0.0680  1.4267
14791SOL     OW45588   6.511   0.696   6.340  0.1530 -0.2484  0.0503
14791SOL    HW145589   6.586   0.739   6.382  0.4186  0.6329 -1.2729
14791SOL    HW245590   6.435   0.741   6.377  0.2811 -0.7458  0.9562
14792SOL     OW45591   6.397   0.923   5.430  0.4363  0.1725 -0.2365
14792SOL    HW145592   6.468   0.957   5.375 -1.4163 -0.2115 -3.0686
14792SOL    HW245593   6.426   0.940   5.520  2.8452  2.5236 -1.3145
14793SOL     OW45594   7.639   1.324   6.316 -0.0914  0.3290 -0.5725
14793SOL    HW145595   7.578   1.304   6.244 -0.8546  0.8998 -0.1072
14793SOL    HW245596   7.690   1.398   6.284  1.4370 -1.1002 -1.5601
14794SOL     OW45597   5.905   1.278   7.382  0.1473  0.2198 -0.5063
14794SOL    HW145598   5.861   1.196   7.360 -0.8184  0.7371 -0.5744
14794SOL    HW245599   5.892   1.333   7.304  0.4956  0.5570 -0.3302
14795SOL     OW45600   6.059   0.859   5.880  0.7046 -0.6524  0.1779
14795SOL    HW145601   6.132   0.905   5.840  1.1242 -0.7838  0.7836
14795SOL    HW245602   5.981   0.907   5.851  1.2254  2.1405  2.9063
14796SOL     OW45603   6.223   1.260   6.522 -0.7237  0.4296 -0.0688
14796SOL    HW145604   6.164   1.198   6.479 -0.5681 -0.6322  1.2136
14796SOL    HW245605   6.292   1.275   6.457 -0.5023 -1.1245 -0.2270
14797SOL     OW45606   7.131   0.397   6.941  0.0868  0.1802 -0.0393
14797SOL    HW145607   7.122   0.344   7.019  0.3929  0.0607 -0.0840
14797SOL    HW245608   7.205   0.359   6.894  0.9763  1.2602  0.4318
14798SOL     OW45609   5.886   0.164   6.294  0.2788  0.3367  0.0105
14798SOL    HW145610   5.960   0.107   6.310  0.3555  0.5644  0.5085
14798SOL    HW245611   5.924   0.251   6.281  0.3556 -0.0518 -3.0677
14799SOL     OW45612   7.491   1.568   6.564 -0.2104 -0.5926  0.4712
14799SOL    HW145613   7.419   1.504   6.571 -1.5403  0.9053  1.0475
14799SOL    HW245614   7.494   1.591   6.472 -1.0932  0.0039  0.5828
14800SOL     OW45615   5.825   0.514   6.717  0.4934  0.4784 -0.5987
14800SOL    HW145616   5.769   0.460   6.773 -1.8602 -1.1635 -4.1935
14800SOL    HW245617   5.776   0.595   6.705  1.1213  0.9385 -0.1549
14801SOL     OW45618   6.286   1.774   6.497 -0.2607  0.5896  0.2054
14801SOL    HW145619   6.230   1.712   6.451  0.9924  0.9120 -1.8554
14801SOL    HW245620   6.355   1.721   6.535  0.6697  0.6273 -1.3445
14802SOL     OW45621   6.954   0.712   6.750  0.0419 -0.3444  0.1078
14802SOL    HW145622   6.942   0.627   6.792 -1.6990 -0.6048 -0.8253
14802SOL    HW245623   6.942   0.775   6.821  0.7548 -0.8590  0.6946
14803SOL     OW45624   6.496   8.719   6.672  0.2609 -0.1338  0.1194
14803SOL    HW145625   6.425   8.720   6.736  0.4335 -1.7118  0.3644
14803SOL    HW245626   6.573   8.693   6.722  0.6335 -0.2584 -0.5155
14804SOL     OW45627   6.342   1.660   5.569  0.5572  0.2944  0.6560
14804SOL    HW145628   6.273   1.606   5.608  0.2755 -0.6530 -1.0330
14804SOL    HW245629   6.378   1.710   5.642 -0.1811 -1.0955  2.0348
14805SOL     OW45630   6.483   1.643   7.032  0.3229 -0.2827  0.1800
14805SOL    HW145631   6.569   1.675   7.060 -0.1371  0.3210  0.9517
14805SOL    HW245632   6.423   1.716   7.050 -0.2514 -0.4449 -0.9651
14806SOL     OW45633   6.859   0.288   5.849 -0.4593  0.1049 -0.6136
14806SOL    HW145634   6.803   0.214   5.871  0.9200 -0.0802  2.9851
14806SOL    HW245635   6.816   0.364   5.889  1.0980  0.1676  1.0660
14807SOL     OW45636   6.861   0.790   5.849  0.0471  0.2385 -0.4774
14807SOL    HW145637   6.809   0.759   5.924  2.5076 -0.9440  0.8652
14807SOL    HW245638   6.849   0.885   5.849 -2.4123  0.0011 -0.5432
14808SOL     OW45639   7.321   0.496   6.456  0.3836  0.4237 -0.3510
14808SOL    HW145640   7.298   0.412   6.416 -0.3717  0.9077 -0.9599
14808SOL    HW245641   7.415   0.504   6.445  0.1864  0.5803 -2.1179
14809SOL     OW45642   5.791   1.031   5.869  0.0732 -0.4718  0.4081
14809SOL    HW145643   5.876   1.069   5.847  0.8178 -2.2586  0.0758
14809SOL    HW245644   5.762   0.988   5.789 -1.7496  1.0965  0.1504
14810SOL     OW45645   6.520   1.865   5.722 -0.2665 -0.8854  0.5019
14810SOL    HW145646   6.451   1.928   5.744  0.7809  0.1193  1.0327
14810SOL    HW245647   6.561   1.900   5.643  1.0839 -0.2302  1.4570
14811SOL     OW45648   5.946   0.493   7.274 -0.3850  0.6724  0.2780
14811SOL    HW145649   5.948   0.574   7.325 -1.1633  0.3053  0.8993
14811SOL    HW245650   5.855   0.464   7.277 -0.2267  0.0774 -0.4246
14812SOL     OW45651   5.864   0.276   8.198  0.8560 -0.3048  0.2101
14812SOL    HW145652   5.921   0.199   8.189  1.3195 -0.1862  1.8644
14812SOL    HW245653   5.811   0.257   8.275  0.6516  0.8267  0.3581
14813SOL     OW45654   5.755   0.247   7.756  0.1000  0.4102 -0.3447
14813SOL    HW145655   5.796   0.294   7.683  2.1861  0.2211  0.6178
14813SOL    HW245656   5.822   0.185   7.785 -1.3213 -0.7393  0.6460
14814SOL     OW45657   6.162   1.717   0.040 -0.1551 -0.4699 -0.0471
14814SOL    HW145658   6.105   1.653  -0.003 -0.2657  0.3706 -1.1766
14814SOL    HW245659   6.129   1.722   0.130  0.6046 -2.8883  0.4541
14815SOL     OW45660   6.888   1.719   8.027  0.0992  0.1353  0.1146
14815SOL    HW145661   6.982   1.708   8.046  0.2601  0.2358 -0.5991
14815SOL    HW245662   6.845   1.662   8.090  0.4714  2.2553  2.4118
14816SOL     OW45663   6.443   0.585   8.168 -0.4994  0.6824 -0.6840
14816SOL    HW145664   6.496   0.514   8.203 -0.3059  1.2687  0.2391
14816SOL    HW245665   6.473   0.663   8.214 -1.0229  1.2941 -1.3519
14817SOL     OW45666   7.622   0.721   7.725 -0.4189  0.1495  1.0243
14817SOL    HW145667   7.548   0.728   7.665  1.9877  2.2690 -1.9554
14817SOL    HW245668   7.646   0.628   7.723 -1.3946 -0.0987 -0.0122
14818SOL     OW45669   6.096   0.972   8.521 -0.2733  0.5696 -0.7850
14818SOL    HW145670   6.008   0.994   8.552  0.5750 -1.1634  3.6320
14818SOL    HW245671   6.093   0.877   8.507  0.5391  0.7309 -2.2080
14819SOL     OW45672   6.616   0.959   7.729  0.1226 -0.1774 -0.0250
14819SOL    HW145673   6.560   1.035   7.715 -0.9139 -1.1006 -1.1297
14819SOL    HW245674   6.575   0.910   7.800  0.2563 -0.2005  0.0380
14820SOL     OW45675   6.003   1.580   8.709  0.2994  0.7732 -0.1025
14820SOL    HW145676   5.970   1.513   8.769  1.9382  0.2146  0.2009
14820SOL    HW245677   5.924   1.615   8.667 -0.6490 -0.7523  0.3434
14821SOL     OW45678   5.873   8.820   0.117  0.3942 -0.0344 -0.2382
14821SOL    HW145679   5.911   8.822   0.205  0.1913 -0.6039 -0.1330
14821SOL    HW245680   5.853   8.728   0.102 -0.0908  0.1365 -0.6557
14822SOL     OW45681   7.133   0.777   8.272 -0.5756  0.2168 -0.1253
14822SOL    HW145682   7.216   0.768   8.225 -0.6455 -0.9821 -0.0439
14822SOL    HW245683   7.110   0.870   8.263  0.5110  0.4528 -0.5811
14823SOL     OW45684   6.046   2.086   7.966 -0.0683  0.3198 -0.4664
14823SOL    HW145685   6.025   2.122   7.880 -0.9302 -0.7171 -0.7090
14823SOL    HW245686   6.035   1.991   7.956  1.6251  0.0049  0.2919
14824SOL     OW45687   5.581   1.482   7.827  1.0848  0.0734  0.5336
14824SOL    HW145688   5.648   1.541   7.793  2.4013 -0.2209  2.4654
14824SOL    HW245689   5.627   1.399   7.843  0.5447  0.1275  2.7364
14825SOL     OW45690   5.645   0.637   8.162 -0.2307 -0.2224  0.4342
14825SOL    HW145691   5.580   0.641   8.092  1.5198  0.9514 -1.2299
14825SOL    HW245692   5.606   0.685   8.235 -0.5411  2.0859 -1.1674
14826SOL     OW45693   6.531   2.013   0.130  0.3965 -0.0795  0.3298
14826SOL    HW145694   6.512   1.982   0.042 -0.5207  1.4105 -0.0487
14826SOL    HW245695   6.627   2.022   0.133  0.3436  1.8026 -1.2773
14827SOL     OW45696   6.467   0.520   7.064 -0.2902 -0.1663  0.3836
14827SOL    HW145697   6.511   0.501   6.981  0.8760  2.1566  0.3859
14827SOL    HW245698   6.489   0.446   7.120 -0.7397 -1.5721 -1.2099
14828SOL     OW45699   6.000   0.437   7.734  1.0986 -0.4440 -0.4418
14828SOL    HW145700   6.082   0.387   7.740  0.0070 -2.1386  2.4330
14828SOL    HW245701   5.967   0.440   7.824 -1.4196  1.2320 -1.3108
14829SOL     OW45702   7.670   1.482   7.846 -0.7614  0.0734 -0.1163
14829SOL    HW145703   7.626   1.567   7.840  0.5154  0.7248 -0.5018
14829SOL    HW245704   7.756   1.501   7.881 -0.9281 -1.2603  1.1129
14830SOL     OW45705   5.783   1.624   7.695  0.0006 -0.0186  0.0638
14830SOL    HW145706   5.787   1.719   7.683  2.1728 -0.0842 -0.2493
14830SOL    HW245707   5.758   1.590   7.609  2.9845  0.1644 -1.0116
14831SOL     OW45708   7.034   1.047   8.298  0.0935 -0.0587 -0.7343
14831SOL    HW145709   6.939   1.037   8.293 -0.4057  3.4849 -1.3056
14831SOL    HW245710   7.047   1.113   8.366  2.1672 -0.4595 -0.6790
14832SOL     OW45711   7.878   1.045   7.972  0.2815 -0.2362 -0.2817
14832SOL    HW145712   7.928   1.024   7.893 -0.0406  0.6795 -0.7364
14832SOL    HW245713   7.922   0.995   8.041  1.4137  0.0221 -0.7900
14833SOL     OW45714   5.964   1.184   8.027 -0.7073 -0.8811 -0.6546
14833SOL    HW145715   5.963   1.089   8.018 -1.2480 -0.7974 -1.5424
14833SOL    HW245716   5.939   1.217   7.941  0.2872  0.0860 -0.5932
14834SOL     OW45717   6.780   8.621   7.921 -0.5857  0.0232 -0.1128
14834SOL    HW145718   6.759   8.698   7.869  0.7581 -0.0343 -0.7861
14834SOL    HW245719   6.851   8.649   7.979 -0.0257 -0.6927 -0.4199
14835SOL     OW45720   5.653   0.858   0.063  0.1726 -0.2032 -0.3070
14835SOL    HW145721   5.597   0.911   0.120  1.2127 -0.3552  0.9010
14835SOL    HW245722   5.632   0.767   0.087  1.8492 -0.2647  1.1678
14836SOL     OW45723   7.366   1.188   7.899 -0.4281 -0.3722  0.5256
14836SOL    HW145724   7.276   1.198   7.932 -1.0516 -0.0322 -1.1771
14836SOL    HW245725   7.403   1.277   7.904 -0.4496 -0.3628  0.5185
14837SOL     OW45726   7.142   1.824   8.355 -0.2064  0.0814  0.2333
14837SOL    HW145727   7.055   1.841   8.390  0.2356 -0.5575  1.7066
14837SOL    HW245728   7.126   1.791   8.267 -1.3662  1.3102 -0.0599
14838SOL     OW45729   7.169   1.708   8.082  0.0900 -0.2012  0.0972
14838SOL    HW145730   7.169   1.661   7.998  1.4695 -0.2848  0.1241
14838SOL    HW245731   7.158   1.800   8.058  0.1427 -0.2596 -0.1628
14839SOL     OW45732   6.354   0.301   7.480  0.0787  0.3855  0.4353
14839SOL    HW145733   6.260   0.305   7.493  0.0945 -1.0228  1.0873
14839SOL    HW245734   6.387   0.381   7.521 -0.7674  0.5902  0.7415
14840SOL     OW45735   6.461   0.866   8.312  0.8117 -0.2921  0.4003
14840SOL    HW145736   6.463   0.956   8.346  1.7000  0.1119 -0.6706
14840SOL    HW245737   6.434   0.813   8.387  1.4539  0.7277  1.3882
14841SOL     OW45738   7.137   1.653   7.815  0.2445 -0.1379 -0.5084
14841SOL    HW145739   7.138   1.576   7.758 -0.9073 -0.4453 -0.1545
14841SOL    HW245740   7.152   1.727   7.756  0.8601 -0.5894 -0.9252
14842SOL     OW45741   6.403   0.610   8.457  0.3524  0.1726  0.2330
14842SOL    HW145742   6.394   0.640   8.548  3.3248  0.4908  0.5183
14842SOL    HW245743   6.340   0.538   8.449  0.5903 -0.4247  2.8239
14843SOL     OW45744   6.895   0.029   0.026  0.7451  0.9124 -0.1844
14843SOL    HW145745   6.991   0.038   0.024  0.6812  2.2483  0.8192
14843SOL    HW245746   6.868   0.086   0.098 -0.7371 -0.2500  0.2164
14844SOL     OW45747   6.498   0.623   7.882  0.0059 -0.0741 -0.3156
14844SOL    HW145748   6.480   0.636   7.975 -0.2921  2.3998 -0.6673
14844SOL    HW245749   6.589   0.652   7.870 -1.1026  3.4590 -1.3724
14845SOL     OW45750   6.063   0.185   8.428 -0.2059 -0.2729  0.3055
14845SOL    HW145751   6.107   0.115   8.477 -0.1621 -0.8280 -0.5036
14845SOL    HW245752   6.077   0.162   8.336 -1.2638  0.1252  0.0290
14846SOL     OW45753   5.668   2.067   8.776 -0.1256 -0.1417  0.4251
14846SOL    HW145754   5.746   2.017   8.752  0.0335 -1.3874  3.0974
14846SOL    HW245755   5.626   2.013   8.844 -1.9010  1.7285  0.9002
14847SOL     OW45756   6.930   0.108   7.508 -0.0315 -0.3416  0.1669
14847SOL    HW145757   7.002   0.065   7.462  0.6991  0.7593  0.2568
14847SOL    HW245758   6.944   0.202   7.493 -0.9019 -0.0654  0.9879
14848SOL     OW45759   6.905   1.453   8.144  0.3995 -0.0728 -0.0236
14848SOL    HW145760   6.939   1.413   8.064  1.3560  1.2815 -0.3294
14848SOL    HW245761   6.969   1.429   8.211 -0.0293 -0.6224  0.1910
14849SOL     OW45762   6.457   8.808   7.810 -0.1122 -0.4052  0.1944
14849SOL    HW145763   6.544   8.837   7.837  0.0047  0.0200 -0.6145
14849SOL    HW245764   6.471   8.762   7.728 -0.2639 -3.0089  1.5074
14850SOL     OW45765   6.981   1.358   7.893  0.3126 -0.3887 -0.5087
14850SOL    HW145766   6.913   1.419   7.864 -0.7434 -1.1009  0.3755
14850SOL    HW245767   7.043   1.355   7.821  0.3169  1.6100 -0.6357
14851SOL     OW45768   5.566   1.566   8.691 -0.0420  0.4225 -0.1975
14851SOL    HW145769   5.512   1.639   8.723  0.2435 -0.1116  1.6202
14851SOL    HW245770   5.645   1.608   8.657  0.0275  0.9896  0.6316
14852SOL     OW45771   7.289   0.586   7.930  0.2477 -0.1715  0.8138
14852SOL    HW145772   7.309   0.658   7.990  0.6588  1.8451 -1.5556
14852SOL    HW245773   7.375   0.552   7.905  0.2127  0.5362 -0.3259
14853SOL     OW45774   6.045   0.792   7.605  0.0436 -0.8563  0.3239
14853SOL    HW145775   6.109   0.864   7.607  1.0462 -1.7230  0.3834
14853SOL    HW245776   6.073   0.733   7.674 -0.6351 -1.4225  0.1249
14854SOL     OW45777   7.149   1.191   8.058 -0.3455 -0.0197 -0.7145
14854SOL    HW145778   7.102   1.273   8.044 -1.0698 -0.5796 -1.7363
14854SOL    HW245779   7.118   1.160   8.143  0.1482  0.8906 -0.1876
14855SOL     OW45780   7.155   1.378   7.640 -0.0287  0.0707 -0.0827
14855SOL    HW145781   7.078   1.396   7.586  0.4905 -2.6026 -1.8918
14855SOL    HW245782   7.177   1.287   7.622  3.0534  0.4536  1.0689
14856SOL     OW45783   7.466   1.393   7.238 -0.0490 -0.1550  0.3376
14856SOL    HW145784   7.519   1.441   7.174 -1.3262  1.1567  0.2011
14856SOL    HW245785   7.493   1.427   7.323 -0.1532 -0.0115  0.3144
14857SOL     OW45786   6.631   1.842   7.283  0.3316  0.3345  0.1070
14857SOL    HW145787   6.587   1.915   7.240 -0.9822 -1.1055 -1.1610
14857SOL    HW245788   6.596   1.842   7.373 -0.5728  0.5569 -0.2335
14858SOL     OW45789   6.892   0.431   7.802  0.4654  0.0899  0.0479
14858SOL    HW145790   6.894   0.373   7.878 -1.1694 -1.4933 -1.0576
14858SOL    HW245791   6.982   0.431   7.770  0.9427 -0.0855  1.3455
14859SOL     OW45792   6.138   1.734   8.512 -0.5110 -0.3089 -0.2397
14859SOL    HW145793   6.120   1.710   8.603  1.1147  0.7780  0.4283
14859SOL    HW245794   6.116   1.827   8.507 -3.4371 -0.9647 -1.8343
14860SOL     OW45795   6.565   1.490   7.845 -0.3128 -0.1717 -0.2036
14860SOL    HW145796   6.526   1.508   7.930 -2.8081  0.8277 -1.4464
14860SOL    HW245797   6.650   1.535   7.847 -0.3209 -0.1970  1.7348
14861SOL     OW45798   6.226   0.651   7.759  0.0549 -0.0299  0.1417
14861SOL    HW145799   6.230   0.556   7.761 -0.7164 -0.0570  0.8220
14861SOL    HW245800   6.314   0.680   7.781  0.5384 -0.5799 -1.0081
14862SOL     OW45801   6.762   8.711   7.440  0.0740  0.5871 -0.1591
14862SOL    HW145802   6.844   8.722   7.488  0.5966  1.8207 -1.2920
14862SOL    HW245803   6.720   8.796   7.444 -1.8091 -0.3210  1.4524
14863SOL     OW45804   6.150   1.353   8.107 -0.0687 -0.0286  0.3866
14863SOL    HW145805   6.154   1.391   8.019 -0.4175  0.7031  0.6825
14863SOL    HW245806   6.069   1.302   8.108 -0.7955  1.1144  0.7342
14864SOL     OW45807   6.113   1.411   8.430  0.6021  0.5908  0.2393
14864SOL    HW145808   6.052   1.424   8.358  0.4008 -1.0192  0.0868
14864SOL    HW245809   6.074   1.461   8.503 -1.1269 -0.6863  0.2555
14865SOL     OW45810   6.276   0.072   8.003 -0.5271 -0.1893  0.0549
14865SOL    HW145811   6.326   0.033   7.932 -0.1465  1.1201 -0.4261
14865SOL    HW245812   6.341   0.100   8.067 -0.6373  1.2340 -0.4257
14866SOL     OW45813   6.391   8.549   7.950  0.0658 -0.5015 -0.0534
14866SOL    HW145814   6.412   8.493   7.875 -0.2106 -0.8456  0.1252
14866SOL    HW245815   6.405   8.638   7.918  0.0336 -0.6505 -0.4868
14867SOL     OW45816   7.189   0.989   7.029  0.8411  0.2979 -0.4850
14867SOL    HW145817   7.216   0.967   6.939  0.2864 -0.8421 -0.3859
14867SOL    HW245818   7.270   1.016   7.072  1.7432 -2.1728 -0.4592
14868SOL     OW45819   6.239   8.662   7.423  0.1806 -0.2894 -0.8787
14868SOL    HW145820   6.288   8.660   7.505  2.2607 -1.0562 -2.0709
14868SOL    HW245821   6.202   8.750   7.420 -1.7864 -0.8998  1.8462
14869SOL     OW45822   6.716   0.333   8.129  0.3205  0.7035 -0.2072
14869SOL    HW145823   6.701   0.294   8.215  0.6359  0.4683 -0.2574
14869SOL    HW245824   6.811   0.346   8.124  0.5708 -1.1376 -1.2912
14870SOL     OW45825   6.806   1.603   7.774 -0.0291  0.1509 -0.6265
14870SOL    HW145826   6.879   1.612   7.714  0.6140 -3.6387 -0.6522
14870SOL    HW245827   6.824   1.666   7.844  1.3998  1.6867 -2.2813
14871SOL     OW45828   5.968   0.921   8.014  0.3680  0.2785 -0.3811
14871SOL    HW145829   5.914   0.856   7.970 -0.8878  1.2671 -0.3484
14871SOL    HW245830   6.046   0.872   8.042 -1.2657 -1.6214  1.1410
14872SOL     OW45831   6.974   2.256   7.387  0.2452  0.1617 -0.0787
14872SOL    HW145832   7.057   2.213   7.410  0.1690 -0.9048 -1.6292
14872SOL    HW245833   6.909   2.185   7.389 -0.7981  1.0894  1.6873
14873SOL     OW45834   7.035   0.090   6.981 -0.3668 -0.5722 -0.0088
14873SOL    HW145835   6.965   0.143   7.016 -0.5985 -1.2277  0.5480
14873SOL    HW245836   7.107   0.099   7.044 -0.9043 -2.0277  0.8785
14874SOL     OW45837   6.060   0.070   8.173  0.4775 -0.6965  0.0801
14874SOL    HW145838   6.065  -0.010   8.224 -0.9071 -1.6471 -1.1798
14874SOL    HW245839   6.121   0.056   8.100 -0.4947 -1.0560 -0.6877
14875SOL     OW45840   6.531   0.334   7.923  0.0300 -0.0546 -0.1277
14875SOL    HW145841   6.518   0.428   7.938  2.2796  0.5292 -1.3634
14875SOL    HW245842   6.579   0.304   8.000  1.1804  0.3216 -0.6723
14876SOL     OW45843   7.000   8.694   8.081  0.0675  0.0770 -0.1499
14876SOL    HW145844   7.084   8.738   8.065 -0.2973  0.4016 -1.3440
14876SOL    HW245845   6.997   8.680   8.175  0.6442  1.7491  0.1501
14877SOL     OW45846   7.158   1.407   8.307  0.0796 -0.1154  0.0666
14877SOL    HW145847   7.220   1.383   8.238 -0.8884  1.6464 -1.5025
14877SOL    HW245848   7.204   1.474   8.357 -1.0026  2.3818 -2.0763
14878SOL     OW45849   6.753   0.672   7.843 -0.2508  0.0489  0.2444
14878SOL    HW145850   6.783   0.700   7.930  2.7237 -1.3017 -0.2357
14878SOL    HW245851   6.801   0.591   7.825 -1.7401 -0.4098 -2.1595
14879SOL     OW45852   7.821   0.840   7.472  0.2133  0.3208 -0.1968
14879SOL    HW145853   7.753   0.804   7.530  0.7402 -1.4662 -0.6202
14879SOL    HW245854   7.773   0.874   7.397 -0.3406  0.8433  0.3826
14880SOL     OW45855   6.085   1.402   7.539 -0.2086 -0.3194  0.1630
14880SOL    HW145856   6.022   1.368   7.475 -0.5439  0.6985 -0.0628
14880SOL    HW245857   6.062   1.494   7.549  2.7166  0.7575 -1.7259
14881SOL     OW45858   7.406   1.405   8.093 -0.1759  0.5112 -0.1847
14881SOL    HW145859   7.485   1.402   8.039 -0.7361  1.8324 -1.1416
14881SOL    HW245860   7.404   1.494   8.128 -0.8084  0.2317  0.5217
14882SOL     OW45861   7.596   0.844   7.988 -0.0276 -0.5261  0.4895
14882SOL    HW145862   7.591   0.798   7.904 -0.5686 -1.7138  1.1449
14882SOL    HW245863   7.681   0.888   7.987 -0.0071 -0.5693 -0.6464
14883SOL     OW45864   6.473   8.676   7.578 -0.2693  0.6077  0.0369
14883SOL    HW145865   6.508   8.740   7.516 -2.1254  1.7291  0.0707
14883SOL    HW245866   6.487   8.592   7.536  1.9263  1.0182 -0.1712
14884SOL     OW45867   7.162   1.234   0.341  0.2659 -0.1447 -0.0508
14884SOL    HW145868   7.156   1.225   0.246  1.2289  1.9182 -0.3616
14884SOL    HW245869   7.083   1.191   0.374 -0.8706  0.4241 -1.8828
14885SOL     OW45870   6.490   1.387   8.104  0.0078 -0.1019 -0.1911
14885SOL    HW145871   6.448   1.405   8.188  0.5074 -0.4771  0.1480
14885SOL    HW245872   6.419   1.357   8.048 -0.2400 -0.4096  0.2766
14886SOL     OW45873   7.401   0.734   8.168 -0.0337  0.1856 -0.2594
14886SOL    HW145874   7.479   0.766   8.124 -0.4795  1.1644 -0.3598
14886SOL    HW245875   7.434   0.669   8.231  0.8695  0.6749 -0.2129
14887SOL     OW45876   6.338   0.710   7.488 -0.4529 -0.4220  0.4512
14887SOL    HW145877   6.270   0.743   7.547  0.0615  1.6695 -0.0427
14887SOL    HW245878   6.392   0.653   7.543 -1.3905 -0.4401  1.3702
14888SOL     OW45879   5.968   0.712   8.677 -0.6882 -0.6053  0.0867
14888SOL    HW145880   5.886   0.695   8.629 -0.2552  0.8869 -1.2843
14888SOL    HW245881   6.037   0.695   8.613 -0.0892  1.2323  0.1722
14889SOL     OW45882   6.684   0.537   8.350  0.0227 -0.0150  0.4988
14889SOL    HW145883   6.627   0.532   8.427 -0.1167 -1.3168  0.3369
14889SOL    HW245884   6.711   0.447   8.335  0.5661  0.3167 -0.6069
14890SOL     OW45885   5.431   1.529   0.316 -0.0087 -1.2484  0.0182
14890SOL    HW145886   5.485   1.540   0.237  1.1079 -0.5560  0.8499
14890SOL    HW245887   5.393   1.615   0.332 -1.3978 -1.7262 -0.5483
14891SOL     OW45888   5.770   1.077   7.652 -0.4849 -0.8085 -0.0922
14891SOL    HW145889   5.849   1.106   7.697 -0.5076 -2.0722  0.8106
14891SOL    HW245890   5.801   1.018   7.584 -0.6264 -1.2877  0.2475
14892SOL     OW45891   5.973   0.447   8.015  0.4983  0.3144 -0.1490
14892SOL    HW145892   6.067   0.442   8.035  0.3562  0.1529  0.4777
14892SOL    HW245893   5.932   0.386   8.076 -0.0148  0.3476 -0.4565
14893SOL     OW45894   6.866   1.053   7.539 -0.1855 -0.5094 -0.6807
14893SOL    HW145895   6.933   1.010   7.486 -0.8847 -1.0958 -1.1150
14893SOL    HW245896   6.816   0.981   7.578  0.4977 -0.0937  1.0371
14894SOL     OW45897   7.344   1.582   8.466 -0.3207  0.5083  0.1323
14894SOL    HW145898   7.428   1.538   8.455 -0.3753  0.9959 -3.5165
14894SOL    HW245899   7.365   1.675   8.470 -0.6125  0.5623  0.4357
14895SOL     OW45900   7.881   0.613   7.958  0.2077  0.1727 -0.5635
14895SOL    HW145901   7.950   0.611   8.025 -0.3377 -2.0652  0.0308
14895SOL    HW245902   7.800   0.596   8.006 -0.5538  1.1290 -1.4736
14896SOL     OW45903   5.836   1.811   0.100 -0.1018  0.4600  0.1019
14896SOL    HW145904   5.881   1.838   0.020  1.5791 -0.1992  0.7704
14896SOL    HW245905   5.830   1.891   0.152  2.4379  0.2053  0.9503
14897SOL     OW45906   6.094   0.700   8.453  0.2064  0.0673  0.4237
14897SOL    HW145907   6.181   0.675   8.421 -0.6043 -0.5485 -1.4229
14897SOL    HW245908   6.034   0.670   8.385 -1.4536  0.6432  1.5758
14898SOL     OW45909   6.770   1.065   8.266 -0.2871 -0.0489 -0.0404
14898SOL    HW145910   6.686   1.049   8.308  0.8998 -0.7342  2.2203
14898SOL    HW245911   6.747   1.087   8.175 -2.9693  1.2732  0.8355
14899SOL     OW45912   6.967   0.378   7.509  0.5790  0.1470 -0.0747
14899SOL    HW145913   7.008   0.368   7.595 -0.9920  0.2729  0.7176
14899SOL    HW245914   7.005   0.459   7.474  0.4211  0.6980  0.9837
14900SOL     OW45915   6.225   0.394   8.474  0.0800  0.2590  0.1181
14900SOL    HW145916   6.215   0.386   8.568  0.0726 -1.2909  0.0025
14900SOL    HW245917   6.169   0.326   8.437 -0.1022  0.9950 -1.0211
14901SOL     OW45918   5.560   1.377   0.019 -0.3282  0.6344 -0.3870
14901SOL    HW145919   5.610   1.394   0.099 -2.2958 -0.9512  1.2989
14901SOL    HW245920   5.552   1.463  -0.022  2.4578  1.1758 -0.0252
14902SOL     OW45921   6.344   0.938   7.905  0.3714 -0.4314 -0.5644
14902SOL    HW145922   6.291   0.876   7.954  1.4900 -1.3918 -0.5445
14902SOL    HW245923   6.343   1.018   7.958 -0.6666 -0.5835 -0.3483
14903SOL     OW45924   6.116   8.586   8.078  0.4108 -0.2121  0.3422
14903SOL    HW145925   6.196   8.601   8.029 -0.3043 -3.2356 -2.1028
14903SOL    HW245926   6.143   8.532   8.153  1.0349  1.6444  1.5244
14904SOL     OW45927   6.941   0.901   7.277  0.2133  0.0608 -0.3618
14904SOL    HW145928   7.033   0.922   7.259  0.5707 -0.0977  1.1815
14904SOL    HW245929   6.892   0.977   7.243  1.1399  1.3748  1.1135
14905SOL     OW45930   6.603   0.863   8.081 -0.3962  0.2458 -0.2326
14905SOL    HW145931   6.615   0.955   8.056 -1.7660  0.7861  0.9500
14905SOL    HW245932   6.526   0.864   8.138  0.6571 -1.3579  1.3263
14906SOL     OW45933   7.126   0.112   7.761 -0.4810  0.2334 -0.2552
14906SOL    HW145934   7.098   0.047   7.697  1.8183 -0.7013 -0.4286
14906SOL    HW245935   7.067   0.100   7.835 -0.7740 -1.3237 -0.7059
14907SOL     OW45936   7.241   1.124   7.629  0.1141 -0.5907 -0.1072
14907SOL    HW145937   7.201   1.047   7.669  0.1390 -0.1926  0.7089
14907SOL    HW245938   7.301   1.157   7.696 -0.4984  0.6080 -0.1149
14908SOL     OW45939   6.654   1.553   8.203 -0.9316 -0.0007 -0.1477
14908SOL    HW145940   6.736   1.510   8.178 -1.1981 -0.6733  0.0997
14908SOL    HW245941   6.586   1.492   8.175 -1.3402  0.4912 -0.2270
14909SOL     OW45942   5.805   0.964   8.299 -0.0205 -0.0422 -0.0903
14909SOL    HW145943   5.898   0.978   8.314 -0.3092  0.7752  1.1666
14909SOL    HW245944   5.798   0.939   8.207  1.2125  2.2483 -0.8949
14910SOL     OW45945   5.901   0.619   8.295 -0.7245  0.3065 -0.4768
14910SOL    HW145946   5.860   0.539   8.328 -0.7322  0.3834 -0.2968
14910SOL    HW245947   5.833   0.661   8.242 -2.2178  2.2715  2.6840
14911SOL     OW45948   6.689   8.694   8.813 -0.8301 -0.0087  0.1591
14911SOL    HW145949   6.613   8.716   8.867  0.0797 -1.8518  2.3527
14911SOL    HW245950   6.758   8.751   8.845 -0.6609 -0.0525 -0.1285
14912SOL     OW45951   5.663   1.571   7.443 -0.0725  0.2174  0.3361
14912SOL    HW145952   5.581   1.523   7.446  2.1663 -4.0466  2.3310
14912SOL    HW245953   5.693   1.563   7.352 -0.9842  0.2396  0.0275
14913SOL     OW45954   5.489   1.444   8.444  0.2883  0.6101 -0.2278
14913SOL    HW145955   5.418   1.387   8.474 -0.3439  0.9915 -0.9573
14913SOL    HW245956   5.546   1.454   8.521  0.6081 -1.2687 -0.1885
14914SOL     OW45957   5.875   1.392   8.240  0.0251 -0.3019 -0.0840
14914SOL    HW145958   5.809   1.325   8.222  0.4428 -0.5461 -0.7731
14914SOL    HW245959   5.917   1.407   8.155 -0.7297  1.5707 -0.1662
14915SOL     OW45960   6.505   0.933   8.760  0.1909  0.2231  0.4522
14915SOL    HW145961   6.426   0.978   8.728  0.0967 -0.4918 -0.3606
14915SOL    HW245962   6.552   1.000   8.809 -1.1556  0.5516  1.3704
14916SOL     OW45963   5.854   0.226   8.604 -0.7651 -0.1114  0.2188
14916SOL    HW145964   5.938   0.218   8.559 -0.7165 -2.3396  0.5521
14916SOL    HW245965   5.834   0.319   8.603  1.2645  0.3665 -0.6753
14917SOL     OW45966   6.738   0.729   7.306 -0.5962  0.1340 -0.5327
14917SOL    HW145967   6.802   0.775   7.251 -0.0845  0.0047 -0.0522
14917SOL    HW245968   6.768   0.744   7.395 -1.3217  0.1878 -0.2903
14918SOL     OW45969   7.071   0.451   8.583 -0.3329 -0.0859  0.9111
14918SOL    HW145970   6.987   0.411   8.605 -0.0730 -0.7831  0.6782
14918SOL    HW245971   7.055   0.546   8.588 -1.3982 -0.1899 -0.0891
14919SOL     OW45972   6.253   0.402   8.080 -0.2717 -0.4249 -0.6309
14919SOL    HW145973   6.307   0.475   8.111  0.6564  0.0083 -3.0369
14919SOL    HW245974   6.272   0.330   8.140  3.4870 -0.4552 -1.5971
14920SOL     OW45975   7.081   2.449   8.199  0.1133  0.6068  0.7520
14920SOL    HW145976   6.995   2.478   8.167  0.3256  1.2810  0.7932
14920SOL    HW245977   7.063   2.410   8.284 -0.2192  0.2981  0.5462
14921SOL     OW45978   6.562   0.093   7.494 -0.0820 -0.5950  0.2933
14921SOL    HW145979   6.471   0.122   7.489  0.3314  0.8423  0.7134
14921SOL    HW245980   6.606   0.160   7.546  1.4785 -0.6224 -0.9082
14922SOL     OW45981   6.011   1.378   0.046 -0.3475 -0.5929 -0.1896
14922SOL    HW145982   6.089   1.411   0.090 -0.3272 -1.6496  0.6306
14922SOL    HW245983   6.019   1.283   0.055 -0.8543 -0.7820 -1.6352
14923SOL     OW45984   6.838   1.308   8.426  0.2359 -0.7666  0.2304
14923SOL    HW145985   6.839   1.246   8.353  0.6402 -0.2009 -0.2482
14923SOL    HW245986   6.760   1.285   8.476 -0.2251 -0.9393 -0.5629
14924SOL     OW45987   6.642   1.238   7.540 -0.1201 -0.2628 -0.4576
14924SOL    HW145988   6.614   1.219   7.451  0.7729  0.8230 -0.9996
14924SOL    HW245989   6.682   1.156   7.571  0.5778 -0.3163 -1.4703
14925SOL     OW45990   7.633   1.601   8.601 -0.2862  0.0218 -0.4387
14925SOL    HW145991   7.550   1.572   8.639 -0.4090  0.9176  0.0117
14925SOL    HW245992   7.654   1.535   8.535 -1.6276  0.0735 -0.9298
14926SOL     OW45993   6.446   1.755   8.086  0.1943 -0.4198  0.1715
14926SOL    HW145994   6.527   1.742   8.135  0.3953 -0.6369 -0.2199
14926SOL    HW245995   6.377   1.749   8.153  0.5069 -0.0596  0.5291
14927SOL     OW45996   5.872   1.093   8.591 -0.3368  0.2981 -0.0637
14927SOL    HW145997   5.820   1.079   8.671 -1.3211 -0.3238 -0.7888
14927SOL    HW245998   5.851   1.183   8.564  1.1018  1.0428  1.1241
14928SOL     OW45999   7.149   0.428   7.721  0.1811 -0.0004 -0.5611
14928SOL    HW146000   7.200   0.486   7.777  1.2573 -0.5458 -0.9234
14928SOL    HW246001   7.183   0.340   7.740  0.0182 -0.2807 -1.4788
14929SOL     OW46002   7.470   2.189   7.457  0.1953  0.0928 -0.1479
14929SOL    HW146003   7.509   2.119   7.404 -2.2490 -1.9694  0.6190
14929SOL    HW246004   7.397   2.148   7.502 -3.6573  3.8423 -2.2437
14930SOL     OW46005   6.647   1.122   8.024 -0.4574 -0.1774  0.2219
14930SOL    HW146006   6.603   1.189   8.077  0.3782  0.3405  0.2865
14930SOL    HW246007   6.626   1.146   7.933 -0.0713  0.2494  0.2394
14931SOL     OW46008   7.001   1.769   7.198  0.3185  0.5688  0.3525
14931SOL    HW146009   7.063   1.754   7.127  0.8090  1.5199  0.5687
14931SOL    HW246010   6.921   1.725   7.169  0.4725  1.0441 -0.8357
14932SOL     OW46011   7.326   0.444   8.467  0.1946 -0.3037 -0.3571
14932SOL    HW146012   7.230   0.448   8.467  0.2294  1.3887 -1.1173
14932SOL    HW246013   7.353   0.532   8.494  1.5137  0.0591 -2.6087
14933SOL     OW46014   5.968   0.106   7.844 -0.1131  0.5195  0.1046
14933SOL    HW146015   6.002   0.163   7.914 -0.5261  1.4109 -0.4104
14933SOL    HW246016   5.943   0.026   7.890  1.3078  0.3792  0.7145
14934SOL     OW46017   7.189   2.075   7.453  0.2497 -0.5538 -0.4844
14934SOL    HW146018   7.186   1.989   7.412  2.2464 -0.5974 -0.6671
14934SOL    HW246019   7.140   2.065   7.535 -1.3941 -1.2363 -1.5070
14935SOL     OW46020   6.503   1.137   8.377 -0.0939 -0.2739 -0.2991
14935SOL    HW146021   6.557   1.192   8.433 -0.4564 -1.4091  1.2513
14935SOL    HW246022   6.413   1.167   8.392 -0.0315  0.7939 -1.9152
14936SOL     OW46023   7.139   0.971   7.854 -0.0322 -0.2741 -0.1203
14936SOL    HW146024   7.053   0.965   7.896  0.0166  1.1781  0.2140
14936SOL    HW246025   7.191   1.026   7.912  1.4770 -1.9423  0.2128
14937SOL     OW46026   7.391   1.523   7.684  0.0615 -0.6360  0.0195
14937SOL    HW146027   7.416   1.522   7.777 -0.3192 -0.1706  0.1336
14937SOL    HW246028   7.304   1.483   7.683 -0.1985 -0.0738 -0.0508
14938SOL     OW46029   7.420   1.164   8.286  0.5645 -0.1873 -0.1977
14938SOL    HW146030   7.367   1.105   8.233  0.0245  0.9959 -1.0221
14938SOL    HW246031   7.447   1.234   8.225  2.1328 -0.1577  0.4649
14939SOL     OW46032   6.346   1.143   8.079  0.2747 -0.0715  0.4527
14939SOL    HW146033   6.275   1.207   8.085 -1.0559 -1.5338  0.9903
14939SOL    HW246034   6.363   1.117   8.170 -0.1923 -1.5014  0.1550
14940SOL     OW46035   6.390   0.182   8.271  0.1224 -0.3482  0.0761
14940SOL    HW146036   6.417   0.091   8.280  0.4289 -0.1699  1.1984
14940SOL    HW246037   6.391   0.216   8.361 -0.5759  0.5933 -0.2547
14941SOL     OW46038   6.013   1.221   7.738  0.1136 -0.5140  0.3782
14941SOL    HW146039   6.102   1.201   7.767 -0.1636 -0.5217  1.2455
14941SOL    HW246040   6.023   1.292   7.674  0.5275  1.7786  2.8083
14942SOL     OW46041   6.826   0.313   8.667 -0.8336  0.6974 -0.2723
14942SOL    HW146042   6.792   0.351   8.748 -3.3526 -0.1510 -0.8438
14942SOL    HW246043   6.844   0.222   8.688 -3.4639 -0.0894 -1.0739
14943SOL     OW46044   6.213   1.460   7.846  0.0427  0.5877 -0.1731
14943SOL    HW146045   6.253   1.417   7.771  0.3577 -0.3025  0.4911
14943SOL    HW246046   6.222   1.554   7.828  0.1611  0.3842 -1.2119
14944SOL     OW46047   6.030   0.307   7.479  0.0696 -0.3093  0.4779
14944SOL    HW146048   6.002   0.359   7.404  2.0001 -0.3961 -0.3605
14944SOL    HW246049   5.993   0.352   7.555 -0.0215  1.0923 -0.3659
14945SOL     OW46050   5.804   0.075   7.374 -0.4297  0.1245 -0.3976
14945SOL    HW146051   5.734   0.130   7.338 -0.3717  0.7670  0.4632
14945SOL    HW246052   5.879   0.133   7.382 -0.2562 -0.1742  0.1589
14946SOL     OW46053   6.925   1.321   7.484  0.0597 -0.0395  0.3633
14946SOL    HW146054   6.910   1.235   7.523 -2.4149 -0.7453 -1.8028
14946SOL    HW246055   6.847   1.371   7.507 -0.1138  0.4518 -1.1649
14947SOL     OW46056   6.089   1.117   0.099 -0.1239 -0.4971  0.6100
14947SOL    HW146057   6.026   1.045   0.093  0.9707 -1.3968 -0.5435
14947SOL    HW246058   6.146   1.105   0.024 -0.4792  2.1632 -0.1747
14948SOL     OW46059   6.605   1.854   7.867 -0.1556 -0.6495 -0.6510
14948SOL    HW146060   6.603   1.943   7.902  0.6490 -0.4149 -1.1787
14948SOL    HW246061   6.564   1.800   7.935 -1.2046  0.1991 -0.5829
14949SOL     OW46062   6.029   2.003   8.464  0.4687 -0.4020 -0.1462
14949SOL    HW146063   5.981   1.994   8.382  0.0534  0.7538 -0.0465
14949SOL    HW246064   6.112   2.044   8.438  0.7361 -0.9220 -0.1123
14950SOL     OW46065   7.738   0.609   8.218  0.1882 -1.0560  0.4732
14950SOL    HW146066   7.701   0.691   8.252 -2.1189 -1.3748 -0.9923
14950SOL    HW246067   7.722   0.545   8.287  1.1357 -0.4868  1.2402
14951SOL     OW46068   7.121   0.720   7.725 -0.1928 -0.3948 -0.1228
14951SOL    HW146069   7.146   0.671   7.803 -1.9627 -2.1536 -0.5748
14951SOL    HW246070   7.119   0.811   7.753 -1.1180 -1.0090  1.9978
14952SOL     OW46071   6.256   0.375   7.804  0.5484  0.6486 -0.2282
14952SOL    HW146072   6.254   0.351   7.896 -0.6744  0.0779 -0.3790
14952SOL    HW246073   6.327   0.323   7.767 -0.6407 -1.1511 -0.1043
14953SOL     OW46074   7.033   0.792   0.197 -0.4658  0.0933 -0.3710
14953SOL    HW146075   7.097   0.760   0.133  1.1372 -1.2018  1.7216
14953SOL    HW246076   7.083   0.802   0.278 -2.4751  1.2752  0.8083
14954SOL     OW46077   6.492   1.491   7.579 -0.4735  0.6291 -0.1133
14954SOL    HW146078   6.532   1.406   7.560 -1.3045 -0.0128  0.8921
14954SOL    HW246079   6.509   1.505   7.672 -0.6695  1.3898 -0.1900
14955SOL     OW46080   5.885   1.674   8.268 -0.2386  0.1569  0.2580
14955SOL    HW146081   5.826   1.616   8.220  0.4502 -0.2689 -0.0845
14955SOL    HW246082   5.967   1.671   8.220  0.1184  0.6252  0.8179
14956SOL     OW46083   6.182   0.750   8.052 -0.5894  0.0158 -0.5003
14956SOL    HW146084   6.213   0.692   8.121 -0.7375  0.8740  0.3008
14956SOL    HW246085   6.190   0.698   7.972  1.8193 -0.2126 -0.1810
14957SOL     OW46086   6.712   1.027   7.193 -0.0384 -0.7835 -0.2277
14957SOL    HW146087   6.654   1.051   7.122 -0.4346  0.3537  0.4492
14957SOL    HW246088   6.655   0.992   7.261  0.1938 -0.7738 -0.0236
14958SOL     OW46089   7.497   1.930   8.035  0.3318  0.0306  0.2299
14958SOL    HW146090   7.456   2.002   8.083  2.2368  1.0554  0.4559
14958SOL    HW246091   7.488   1.955   7.943  0.7145  0.4089  0.2930
14959SOL     OW46092   5.666   1.225   8.145 -0.8895  0.3933 -0.0288
14959SOL    HW146093   5.635   1.136   8.159  0.9622 -0.8203 -2.7835
14959SOL    HW246094   5.675   1.233   8.050  0.0804  3.1514  0.1971
14960SOL     OW46095   7.557   0.214   8.587  0.8597  0.3828  0.0432
14960SOL    HW146096   7.607   0.171   8.518 -0.1284 -0.6262 -0.0633
14960SOL    HW246097   7.499   0.274   8.542 -0.4853 -0.9851 -0.1148
14961SOL     OW46098   6.479   0.502   7.635 -0.8343 -0.0576 -0.1847
14961SOL    HW146099   6.505   0.547   7.715  0.7745 -0.6610 -0.3283
14961SOL    HW246100   6.559   0.457   7.605 -1.5388 -0.3187 -1.8104
14962SOL     OW46101   7.144   1.573   8.685  0.0945 -0.4677  0.2291
14962SOL    HW146102   7.073   1.579   8.622  0.4505  0.0042 -0.1324
14962SOL    HW246103   7.155   1.662   8.718  0.6564 -0.4974  0.1256
14963SOL     OW46104   5.739   0.205   8.843 -0.3192 -0.2362  0.0044
14963SOL    HW146105   5.806   0.214   8.776  1.0388 -0.4953  1.2593
14963SOL    HW246106   5.758   0.121   8.885 -1.3453 -0.2466  0.4804
14964SOL     OW46107   6.063   1.818   7.964  0.1135 -0.3203  0.0432
14964SOL    HW146108   6.044   1.731   7.930  1.8645 -0.1539 -1.4859
14964SOL    HW246109   6.109   1.801   8.047 -0.3609 -0.8155  0.2135
14965SOL     OW46110   6.799   0.686   8.167  0.0116 -0.2677  0.6923
14965SOL    HW146111   6.747   0.764   8.149 -0.9110 -1.0625 -0.2388
14965SOL    HW246112   6.757   0.646   8.244  0.0530 -0.2259  0.7364
14966SOL     OW46113   6.754   0.009   8.410  0.1977 -0.2533 -0.1401
14966SOL    HW146114   6.743  -0.062   8.474  1.8367  0.0337  0.5225
14966SOL    HW246115   6.792  -0.034   8.333  1.4003 -0.0819  0.3434
14967SOL     OW46116   6.547   1.236   7.796 -0.4460 -0.0619  0.7040
14967SOL    HW146117   6.550   1.230   7.700 -3.8338 -0.8830  0.5247
14967SOL    HW246118   6.570   1.327   7.815  2.2819 -0.3620 -0.6474
14968SOL     OW46119   6.352   1.508   8.296 -0.6755 -0.8007 -0.5231
14968SOL    HW146120   6.269   1.465   8.317 -1.1739 -0.3188 -1.4150
14968SOL    HW246121   6.376   1.554   8.377 -1.5435 -0.5377 -0.4013
14969SOL     OW46122   6.917   0.119   7.928  0.2214 -0.3574  0.4748
14969SOL    HW146123   6.856   0.076   7.867  0.4180 -0.3923  0.3024
14969SOL    HW246124   6.886   0.092   8.014 -0.1866 -0.1402  0.4032
14970SOL     OW46125   6.785   0.763   7.576  0.5366  1.0291 -0.4272
14970SOL    HW146126   6.861   0.720   7.617 -0.7296 -1.6138 -0.6318
14970SOL    HW246127   6.724   0.777   7.648  0.4280  1.3317 -0.5785
14971SOL     OW46128   6.945   0.884   8.038  0.0044 -0.1578 -0.5006
14971SOL    HW146129   6.935   0.795   8.071  0.6628 -0.0570  0.0009
14971SOL    HW246130   6.869   0.931   8.073 -1.0031 -0.7900 -1.7788
14972SOL     OW46131   5.780   0.779   7.728 -0.5776 -0.4580  1.0636
14972SOL    HW146132   5.866   0.781   7.685 -0.6807 -2.0405  0.7086
14972SOL    HW246133   5.797   0.734   7.811 -1.0126 -0.5558  1.0996
14973SOL     OW46134   7.019   1.637   7.547  0.1480 -0.0253 -0.0177
14973SOL    HW146135   6.952   1.615   7.482 -0.6169 -0.7985  0.9888
14973SOL    HW246136   7.094   1.668   7.496  0.1376 -2.0586 -1.3547
14974SOL     OW46137   6.087   2.373   0.231 -0.2817 -0.2742  0.4858
14974SOL    HW146138   6.096   2.463   0.198  0.8811 -1.2520 -2.1745
14974SOL    HW246139   6.032   2.329   0.167  0.0661 -1.7351  1.1399
14975SOL     OW46140   5.435   2.482   1.079 -0.3087 -0.1095 -0.3694
14975SOL    HW146141   5.466   2.544   1.145 -2.6638  1.8739 -1.0129
14975SOL    HW246142   5.381   2.420   1.127  0.0179 -0.1922 -0.1019
14976SOL     OW46143   5.190   2.321   0.161  0.1915 -0.0796  0.2086
14976SOL    HW146144   5.143   2.316   0.244 -0.4689 -2.0383 -0.2221
14976SOL    HW246145   5.166   2.240   0.115  0.3819  1.0280 -1.9792
14977SOL     OW46146   6.133   3.092   1.551  0.0557 -0.2621 -0.5858
14977SOL    HW146147   6.099   3.139   1.627  1.3329 -1.6097  0.8893
14977SOL    HW246148   6.149   3.160   1.485  0.1834  1.1155  0.8273
14978SOL     OW46149   7.024   3.072   0.846 -0.4166 -0.3152  0.1878
14978SOL    HW146150   7.092   3.005   0.836 -0.2103  0.0379 -0.9102
14978SOL    HW246151   7.028   3.096   0.938  0.6621 -0.6030  0.2312
14979SOL     OW46152   6.050   2.206   0.643 -0.4524  0.1215 -0.2233
14979SOL    HW146153   6.026   2.280   0.587  0.9818  1.8084  1.2541
14979SOL    HW246154   6.146   2.203   0.638 -0.4208 -0.8676  0.6971
14980SOL     OW46155   7.400   2.189   8.596  0.1369 -0.2519  0.1263
14980SOL    HW146156   7.326   2.247   8.612  1.8174  2.3767 -1.0450
14980SOL    HW246157   7.386   2.155   8.508  0.7161  0.9689 -0.4603
14981SOL     OW46158   5.966   2.677   1.175  0.0635 -0.0558 -0.2126
14981SOL    HW146159   6.002   2.739   1.238  0.1193 -0.1145 -0.1863
14981SOL    HW246160   6.039   2.656   1.117  0.8350 -2.1958  1.4109
14982SOL     OW46161   6.293   2.297   1.887  0.0533 -0.2562 -0.1887
14982SOL    HW146162   6.320   2.380   1.927  1.1045 -0.4940 -0.3885
14982SOL    HW246163   6.200   2.310   1.867  0.1757  0.8364 -0.1282
14983SOL     OW46164   6.142   2.939   0.792 -0.2968 -0.2445  0.2591
14983SOL    HW146165   6.139   3.034   0.791 -1.3671 -0.2432 -1.6761
14983SOL    HW246166   6.063   2.913   0.840 -0.4045 -0.1479  0.1347
14984SOL     OW46167   5.819   3.143   1.840  0.3909 -0.4421 -0.6914
14984SOL    HW146168   5.782   3.231   1.837  1.0400 -0.1523 -0.5011
14984SOL    HW246169   5.913   3.158   1.847  0.4025 -1.1231  1.1020
14985SOL     OW46170   5.877   4.156   0.907  0.4407  0.2277  0.1736
14985SOL    HW146171   5.883   4.154   0.812  1.8362  0.0787  0.2361
14985SOL    HW246172   5.916   4.240   0.932  3.2451 -1.1246  0.7307
14986SOL     OW46173   6.914   2.913   2.190 -0.2794  0.7382  0.1435
14986SOL    HW146174   6.934   2.970   2.265 -0.8210  3.4925 -1.6271
14986SOL    HW246175   6.909   2.974   2.116 -0.4388 -1.7667 -2.0200
14987SOL     OW46176   5.887   1.960   1.166 -0.4196 -0.2379  0.2435
14987SOL    HW146177   5.972   1.994   1.138 -0.3065 -1.9042 -1.6593
14987SOL    HW246178   5.866   2.010   1.245  0.5981  2.8122 -1.2764
14988SOL     OW46179   6.890   2.785   0.155  0.0697 -0.1580 -0.6143
14988SOL    HW146180   6.867   2.762   0.064  1.3697 -0.0775 -0.9801
14988SOL    HW246181   6.824   2.850   0.180 -0.5159 -0.4362 -1.3697
14989SOL     OW46182   5.608   3.239   0.721  0.0514 -0.2788 -0.1972
14989SOL    HW146183   5.648   3.324   0.703  0.1994 -0.1589  0.6751
14989SOL    HW246184   5.587   3.204   0.634  1.7696 -0.2102 -0.6783
14990SOL     OW46185   6.662   2.871   2.299 -0.5989  0.4592  0.2478
14990SOL    HW146186   6.697   2.806   2.360 -0.3186  0.8581  0.5272
14990SOL    HW246187   6.739   2.900   2.249 -0.5932  1.0606  0.5942
14991SOL     OW46188   5.867   2.996   0.099  0.1521 -0.5525 -0.5244
14991SOL    HW146189   5.892   2.964   0.012  1.5646 -2.4828  0.5328
14991SOL    HW246190   5.790   2.945   0.123 -0.1937 -0.0719 -0.5887
14992SOL     OW46191   5.730   3.155   1.139 -0.4245  0.3175 -0.0424
14992SOL    HW146192   5.807   3.144   1.195  0.3368  1.0664 -0.9079
14992SOL    HW246193   5.655   3.150   1.199  0.2785 -0.6687  0.7746
14993SOL     OW46194   6.058   3.648   1.428  0.2129 -0.3146 -0.8584
14993SOL    HW146195   6.009   3.576   1.465 -0.4247  0.5233 -0.0382
14993SOL    HW246196   6.141   3.648   1.476  0.9277 -1.5192 -2.0147
14994SOL     OW46197   6.178   3.017   0.086 -0.0486 -0.1455 -0.7769
14994SOL    HW146198   6.131   2.990   0.007  0.8780  1.3562 -1.9132
14994SOL    HW246199   6.113   3.064   0.138 -0.6048 -0.9230 -0.7497
14995SOL     OW46200   6.709   2.549   1.139  0.2505  0.4595 -0.4240
14995SOL    HW146201   6.730   2.565   1.231  2.2322  0.8611 -0.8962
14995SOL    HW246202   6.730   2.631   1.095  1.1843 -0.3121 -1.4888
14996SOL     OW46203   5.639   2.448   0.532  0.4104  0.4549  0.0237
14996SOL    HW146204   5.653   2.507   0.606 -1.3327  1.1620 -0.1706
14996SOL    HW246205   5.567   2.487   0.482 -0.7040 -1.7077 -0.2116
14997SOL     OW46206   7.352   3.531   8.771  0.4003 -0.2242 -0.4533
14997SOL    HW146207   7.371   3.564   8.683 -0.9359 -0.6577 -0.9417
14997SOL    HW246208   7.370   3.605   8.829 -0.7813  0.8004 -1.3330
14998SOL     OW46209   5.508   3.162   0.485 -0.0260  0.2303 -0.1098
14998SOL    HW146210   5.497   3.076   0.443 -0.3085  1.2273 -2.1848
14998SOL    HW246211   5.443   3.162   0.555  0.4767 -1.5080  0.4251
14999SOL     OW46212   7.199   2.794   0.214  0.3323 -0.3856 -0.3869
14999SOL    HW146213   7.122   2.762   0.167  0.4237 -0.6927 -0.3223
14999SOL    HW246214   7.234   2.863   0.158 -0.9337  0.9062  0.3301
15000SOL     OW46215   7.306   2.971   0.038  0.2965 -0.1937 -0.3506
15000SOL    HW146216   7.370   3.022   0.087  0.2097 -1.1883  0.8695
15000SOL    HW246217   7.355   2.935  -0.036  0.3786  1.5152 -1.1850
15001SOL     OW46218   5.648   2.431   1.617  0.3271 -0.1971  0.0780
15001SOL    HW146219   5.635   2.506   1.674 -2.8278 -2.3348  2.5236
15001SOL    HW246220   5.730   2.392   1.647 -0.5509 -0.4670  2.3158
15002SOL     OW46221   6.201   2.679   0.752  0.4137  0.4392  0.5011
15002SOL    HW146222   6.236   2.655   0.666 -1.1792  0.8595 -0.3245
15002SOL    HW246223   6.230   2.769   0.765  0.8014  0.3176  0.4821
15003SOL     OW46224   6.520   3.080   1.945  0.0346 -0.5876  0.4501
15003SOL    HW146225   6.556   3.004   1.899  0.5522  0.5292 -1.0898
15003SOL    HW246226   6.439   3.048   1.984  0.1340 -1.8680 -0.3215
15004SOL     OW46227   6.810   1.865   0.380 -0.3846 -0.3608 -0.3275
15004SOL    HW146228   6.861   1.789   0.353 -0.2375  0.1640 -1.5999
15004SOL    HW246229   6.798   1.916   0.300 -0.5257  0.9352  0.4826
15005SOL     OW46230   5.639   2.833   1.215 -0.5725 -0.2378 -0.3061
15005SOL    HW146231   5.677   2.792   1.138  0.6907  0.6432 -0.1783
15005SOL    HW246232   5.590   2.908   1.181 -0.1707  0.0424 -0.2639
15006SOL     OW46233   6.878   2.636   8.511 -0.4484 -0.1123  0.3047
15006SOL    HW146234   6.839   2.554   8.479  0.1262 -0.3777  0.2697
15006SOL    HW246235   6.829   2.705   8.467 -1.1057 -0.4294  0.5207
15007SOL     OW46236   7.354   3.597   1.836  0.1242 -0.0637 -0.0963
15007SOL    HW146237   7.412   3.671   1.820  0.1049 -0.0091  0.0882
15007SOL    HW246238   7.383   3.530   1.773 -0.3855  0.3911 -0.8216
15008SOL     OW46239   6.030   2.360   1.922  0.1760  0.4211  0.2411
15008SOL    HW146240   5.977   2.416   1.979 -2.6297 -1.2242 -0.5623
15008SOL    HW246241   6.029   2.274   1.966  0.7137 -0.0736 -0.6890
15009SOL     OW46242   7.051   2.979   1.229  0.2359 -0.2442 -0.2659
15009SOL    HW146243   7.053   3.060   1.177 -0.7984  1.1439  1.6878
15009SOL    HW246244   6.965   2.981   1.272  1.0240 -1.2766  1.4648
15010SOL     OW46245   7.414   3.321   0.581 -0.4340 -0.3737  0.1801
15010SOL    HW146246   7.331   3.329   0.629 -0.9763  0.2467 -0.8352
15010SOL    HW246247   7.453   3.241   0.615 -1.8543 -1.1398  0.0741
15011SOL     OW46248   5.768   2.768   8.699 -0.3222 -0.3715  0.1822
15011SOL    HW146249   5.686   2.760   8.747 -1.4954 -0.0795 -1.6996
15011SOL    HW246250   5.760   2.706   8.627  1.2809 -0.6033  0.1635
15012SOL     OW46251   6.601   2.329   0.724  0.1231 -0.5428 -0.4665
15012SOL    HW146252   6.682   2.278   0.731  0.7114  0.3342 -0.7645
15012SOL    HW246253   6.595   2.353   0.632  0.2104  0.4928 -0.2168
15013SOL     OW46254   6.982   3.442   0.605  0.3695  0.5478 -0.6419
15013SOL    HW146255   6.918   3.512   0.619 -1.5075 -1.4075  1.4347
15013SOL    HW246256   6.943   3.387   0.537 -0.8287 -1.1800  1.2906
15014SOL     OW46257   6.160   2.098   1.529  0.6394  0.1055  0.3086
15014SOL    HW146258   6.077   2.051   1.525  0.3048  0.7401 -0.9934
15014SOL    HW246259   6.225   2.036   1.496  0.4258  0.0888 -0.0883
15015SOL     OW46260   6.836   2.478   1.636  0.0502  0.4790 -0.1639
15015SOL    HW146261   6.903   2.539   1.666  2.3764 -1.0977 -1.8033
15015SOL    HW246262   6.860   2.395   1.677 -0.3215 -0.3266 -1.5419
15016SOL     OW46263   6.397   2.500   1.640 -0.3544  0.2569 -0.2833
15016SOL    HW146264   6.345   2.546   1.706 -0.3413 -1.1073  0.7071
15016SOL    HW246265   6.477   2.475   1.686  0.8767  1.6064 -1.5679
15017SOL     OW46266   6.480   2.073   1.181 -0.1276  0.1454  0.1545
15017SOL    HW146267   6.439   2.140   1.236  1.7188  2.3612 -1.0284
15017SOL    HW246268   6.500   2.117   1.099 -0.1744 -2.2974 -1.2798
15018SOL     OW46269   6.668   2.458   0.016  0.6374 -0.2407  0.7205
15018SOL    HW146270   6.573   2.446   0.006  0.9842 -2.0417 -1.1358
15018SOL    HW246271   6.685   2.442   0.108 -0.7955 -0.3649  0.9879
15019SOL     OW46272   5.640   2.841   0.599 -0.1290 -0.3031  0.2155
15019SOL    HW146273   5.594   2.878   0.674 -3.2561 -2.0446 -0.6617
15019SOL    HW246274   5.673   2.757   0.630  0.2111 -0.2091  0.1180
15020SOL     OW46275   5.576   3.971   1.789  0.1269  0.4576  0.2217
15020SOL    HW146276   5.602   4.049   1.837  1.4230 -0.0320  0.3448
15020SOL    HW246277   5.512   3.929   1.847 -0.3663  1.2706  0.2818
15021SOL     OW46278   6.729   2.446   8.365  0.2538  0.2432 -0.4334
15021SOL    HW146279   6.660   2.439   8.299  0.2005 -0.5517 -0.2993
15021SOL    HW246280   6.786   2.371   8.347 -0.0949 -0.3385  0.8098
15022SOL     OW46281   7.371   2.523   1.903 -0.1328 -0.1889  0.1909
15022SOL    HW146282   7.358   2.561   1.990 -0.6666  1.2533 -0.4991
15022SOL    HW246283   7.405   2.594   1.850  0.5718 -1.1589 -0.7142
15023SOL     OW46284   6.758   2.986   1.233 -0.2082  0.3669  0.4897
15023SOL    HW146285   6.768   3.078   1.255  2.8606  0.3592 -0.3302
15023SOL    HW246286   6.684   2.983   1.172  0.2460  2.4622 -0.2324
15024SOL     OW46287   5.653   1.966   1.023 -0.1817  0.8664 -0.1939
15024SOL    HW146288   5.743   1.953   1.054 -0.4637  0.9973  0.7281
15024SOL    HW246289   5.608   2.004   1.098 -1.1577  0.2350 -0.4439
15025SOL     OW46290   6.501   3.402   0.484 -0.4376  0.0793  0.1412
15025SOL    HW146291   6.491   3.312   0.453  0.5370  0.6490 -2.0455
15025SOL    HW246292   6.527   3.393   0.576 -0.9654 -1.8265  0.1579
15026SOL     OW46293   5.770   3.657   0.815  0.0801 -0.1964 -0.0535
15026SOL    HW146294   5.836   3.696   0.873 -0.1702 -1.9308  1.4779
15026SOL    HW246295   5.739   3.730   0.761 -0.2056  1.6817  2.5037
15027SOL     OW46296   7.172   2.935   0.556 -0.2602 -0.2130 -0.9374
15027SOL    HW146297   7.252   2.912   0.510 -0.0604  0.1301 -0.7613
15027SOL    HW246298   7.107   2.872   0.524 -0.0594 -0.1444 -1.4914
15028SOL     OW46299   7.027   3.090   2.370 -0.3793  0.2682 -0.4931
15028SOL    HW146300   7.029   3.184   2.352  0.6821  0.2544 -0.4686
15028SOL    HW246301   7.033   3.083   2.465  0.2484  0.1605 -0.5379
15029SOL     OW46302   6.298   2.735   8.691  0.5366  0.0182 -0.7461
15029SOL    HW146303   6.335   2.701   8.610  1.1854 -0.8549 -0.1035
15029SOL    HW246304   6.215   2.776   8.664  0.5701 -0.5572 -1.7934
15030SOL     OW46305   6.760   2.642   0.606  0.2080  0.6267  0.2268
15030SOL    HW146306   6.727   2.616   0.692 -1.4263 -0.9696 -0.8027
15030SOL    HW246307   6.685   2.682   0.563  0.4375 -0.2923 -1.0927
15031SOL     OW46308   6.073   3.270   1.748  0.0259 -0.3336  0.4383
15031SOL    HW146309   6.135   3.272   1.821 -1.1840  0.2510  1.4637
15031SOL    HW246310   6.107   3.335   1.687 -0.9644  1.9494  2.1882
15032SOL     OW46311   6.129   3.625   0.380  0.1127  0.3959 -0.0150
15032SOL    HW146312   6.123   3.536   0.345 -1.7182  0.7925 -0.8311
15032SOL    HW246313   6.222   3.636   0.402  0.0948 -2.3988  1.9954
15033SOL     OW46314   5.917   1.695   1.751  0.3735 -0.4052  0.4306
15033SOL    HW146315   5.892   1.787   1.756  2.4205  0.1861  0.8177
15033SOL    HW246316   5.852   1.655   1.693 -1.7316  0.8275  1.8055
15034SOL     OW46317   7.099   3.933   0.242  0.0864  0.6252  0.5355
15034SOL    HW146318   7.006   3.911   0.238  0.3365 -1.7907  4.0029
15034SOL    HW246319   7.108   3.987   0.320  1.5827  1.1639  0.0278
15035SOL     OW46320   5.991   3.207   0.246 -0.0766  0.2597  0.3269
15035SOL    HW146321   5.934   3.234   0.318 -0.8738  0.8263 -0.4916
15035SOL    HW246322   5.951   3.126   0.214  0.1231  0.1525  0.3497
15036SOL     OW46323   6.966   2.525   0.219 -0.1487  0.1204  0.4633
15036SOL    HW146324   6.922   2.610   0.212 -2.1693 -0.9563 -1.5440
15036SOL    HW246325   6.999   2.508   0.131  0.6685 -0.9640  0.9556
15037SOL     OW46326   5.868   3.868   1.289  0.3232  0.2740 -0.2856
15037SOL    HW146327   5.924   3.822   1.352  0.3722  1.0975  0.2786
15037SOL    HW246328   5.782   3.869   1.329 -0.3918 -1.8634 -1.5856
15038SOL     OW46329   6.554   3.212   1.578 -0.5480 -0.0682 -0.2330
15038SOL    HW146330   6.634   3.173   1.610 -1.4456 -1.0403  0.8983
15038SOL    HW246331   6.512   3.143   1.526 -2.0495 -0.6450  1.6241
15039SOL     OW46332   5.474   2.715   0.829 -0.7916  0.0128 -0.3890
15039SOL    HW146333   5.493   2.795   0.879 -1.0023 -0.6263  0.7548
15039SOL    HW246334   5.558   2.669   0.825 -0.6080  0.4079 -1.2877
15040SOL     OW46335   7.247   2.306   1.228 -0.5967  0.3918  0.3292
15040SOL    HW146336   7.254   2.256   1.310 -0.2803 -1.3642 -0.7106
15040SOL    HW246337   7.163   2.352   1.235 -0.7415 -0.0123  1.4857
15041SOL     OW46338   6.527   1.896   1.967 -0.0957 -0.4560 -0.1847
15041SOL    HW146339   6.516   1.976   1.916 -0.1639 -1.3868 -1.6796
15041SOL    HW246340   6.524   1.925   2.058 -0.5701  1.1711 -0.6911
15042SOL     OW46341   6.325   2.817   1.198 -0.0386  0.4857  0.0868
15042SOL    HW146342   6.296   2.750   1.135  0.8864  0.8125 -0.7172
15042SOL    HW246343   6.358   2.766   1.272 -0.8004  0.0850  0.1607
15043SOL     OW46344   6.986   2.121   0.996  0.0390 -0.4624 -0.8300
15043SOL    HW146345   6.964   2.133   0.904 -0.6142 -0.4663 -0.6768
15043SOL    HW246346   6.945   2.195   1.041  1.2504  0.1469 -0.6643
15044SOL     OW46347   6.236   2.629   1.008  0.1761 -0.0791 -0.0742
15044SOL    HW146348   6.308   2.566   1.014 -0.1710 -0.6715 -1.6882
15044SOL    HW246349   6.222   2.641   0.914 -1.0988  0.8898  0.2126
15045SOL     OW46350   6.006   2.404   0.955 -0.1154 -1.0196  0.0227
15045SOL    HW146351   6.008   2.462   0.879  1.0399  0.5817  1.1925
15045SOL    HW246352   6.094   2.367   0.958  0.2188 -0.1837  1.1888
15046SOL     OW46353   6.159   1.974   0.016 -0.1491  0.1091 -0.4629
15046SOL    HW146354   6.161   1.882   0.042  0.0746  0.1936 -0.1753
15046SOL    HW246355   6.105   2.017   0.082  0.4383  0.3274 -0.1154
15047SOL     OW46356   6.927   3.287   0.058 -0.6550  0.5370  0.2223
15047SOL    HW146357   6.958   3.231  -0.014  1.4039  0.8806  0.7750
15047SOL    HW246358   6.969   3.250   0.136  1.3354  3.1731  0.5255
15048SOL     OW46359   6.326   2.499   0.312 -0.3595  0.1083  0.0321
15048SOL    HW146360   6.271   2.437   0.264 -1.1776  1.3147 -0.6489
15048SOL    HW246361   6.382   2.539   0.245 -1.7641  2.0744 -0.0604
15049SOL     OW46362   6.696   2.869   1.471 -0.3048 -0.1179 -0.2567
15049SOL    HW146363   6.610   2.826   1.476  0.3817 -1.5017  0.2489
15049SOL    HW246364   6.702   2.900   1.380 -0.9866 -0.7854 -0.5444
15050SOL     OW46365   6.604   3.337   0.996  0.0283 -0.5993 -0.1293
15050SOL    HW146366   6.643   3.367   0.914  1.5200  1.1062  1.1309
15050SOL    HW246367   6.532   3.397   1.013 -1.9367 -2.4536 -1.3606
15051SOL     OW46368   5.919   3.323   0.520 -0.2342 -0.4422 -0.3297
15051SOL    HW146369   5.979   3.374   0.573  1.0813 -1.0491 -1.1838
15051SOL    HW246370   5.833   3.362   0.536  0.0488 -0.7569  2.3841
15052SOL     OW46371   7.097   3.204   1.088  0.1782 -0.4824  0.2316
15052SOL    HW146372   7.026   3.257   1.124  0.1851  0.3487 -0.9304
15052SOL    HW246373   7.160   3.267   1.053  0.4641 -1.2290 -0.6677
15053SOL     OW46374   7.182   2.730   8.740 -0.1180 -0.1035 -0.3342
15053SOL    HW146375   7.278   2.731   8.734 -0.1879  0.0351 -1.8604
15053SOL    HW246376   7.159   2.822   8.754  0.0289 -0.3601  1.8582
15054SOL     OW46377   5.569   2.472   1.356  0.2142  0.0108 -0.0858
15054SOL    HW146378   5.632   2.407   1.324 -0.4008 -0.6365 -0.0143
15054SOL    HW246379   5.564   2.457   1.450  0.1755  0.2637 -0.0461
15055SOL     OW46380   6.141   1.524   1.208 -0.7392  0.0754  0.1932
15055SOL    HW146381   6.145   1.612   1.245  1.2108  1.2356 -2.4243
15055SOL    HW246382   6.054   1.519   1.168 -0.3529  1.4271 -0.8872
15056SOL     OW46383   6.046   1.963   0.829  0.8430 -0.7677 -0.0675
15056SOL    HW146384   5.984   1.993   0.896 -1.1113 -2.5196 -0.9738
15056SOL    HW246385   6.029   2.020   0.754 -0.0450 -1.5166 -0.4600
15057SOL     OW46386   6.426   2.023   0.368 -0.0822 -0.8313 -0.0648
15057SOL    HW146387   6.448   2.019   0.275  1.1844  0.1999  0.1510
15057SOL    HW246388   6.337   2.057   0.370 -0.2779 -1.2639 -0.9050
15058SOL     OW46389   6.997   2.754   0.482 -0.1429  0.1849 -0.7110
15058SOL    HW146390   6.973   2.742   0.390 -0.3099 -0.9045 -0.5363
15058SOL    HW246391   6.914   2.743   0.530  0.1222 -0.2678 -0.3559
15059SOL     OW46392   7.144   2.503   0.535  0.1835 -0.1255  0.1524
15059SOL    HW146393   7.111   2.591   0.520 -0.5089 -0.4848 -0.4917
15059SOL    HW246394   7.160   2.498   0.630 -0.0172  0.5967  0.2223
15060SOL     OW46395   7.545   2.869   0.306 -0.1552  0.1506  0.0934
15060SOL    HW146396   7.486   2.815   0.358  0.5733 -0.8533 -0.1044
15060SOL    HW246397   7.588   2.808   0.247 -1.4049  1.3132 -2.1635
15061SOL     OW46398   6.194   3.001   8.481  0.0760  0.0623 -0.4270
15061SOL    HW146399   6.288   2.993   8.468  0.2113 -1.5407  1.2096
15061SOL    HW246400   6.155   2.945   8.414  0.2668  0.6981 -1.0812
15062SOL     OW46401   7.062   3.159   0.272  0.5233  0.0911  0.3431
15062SOL    HW146402   7.153   3.182   0.290  0.3627  1.3986 -0.4564
15062SOL    HW246403   7.013   3.191   0.347  0.4602  1.3644 -0.2149
15063SOL     OW46404   7.207   2.551   8.452  0.5166 -0.4643 -0.5032
15063SOL    HW146405   7.197   2.457   8.438  0.9313 -0.3153 -1.9841
15063SOL    HW246406   7.298   2.570   8.429  0.3220  0.3692 -0.6449
15064SOL     OW46407   6.032   2.462   0.476  0.3052 -0.0832 -0.3416
15064SOL    HW146408   6.079   2.545   0.488  0.6143 -0.3452  0.2936
15064SOL    HW246409   6.047   2.439   0.384 -0.3656  0.9115 -0.7193
15065SOL     OW46410   7.570   3.078   2.057  0.2180 -0.5973  0.4338
15065SOL    HW146411   7.665   3.065   2.055  0.2259 -0.7478  1.2393
15065SOL    HW246412   7.557   3.153   2.116 -0.0701  0.5986 -1.0866
15066SOL     OW46413   6.471   2.701   1.416  0.2846 -0.1414  0.4660
15066SOL    HW146414   6.420   2.774   1.452  0.2263  0.0727 -0.0419
15066SOL    HW246415   6.442   2.625   1.467  2.0355  0.5257  2.6350
15067SOL     OW46416   7.339   3.094   1.877  0.1419  0.2155 -0.1041
15067SOL    HW146417   7.415   3.059   1.924 -1.4382 -1.5184  1.3189
15067SOL    HW246418   7.337   3.187   1.901  0.9909 -0.0338  1.0334
15068SOL     OW46419   6.764   3.060   1.659  0.3968  0.2285  0.1489
15068SOL    HW146420   6.820   3.125   1.616  1.7464 -0.1110  1.3058
15068SOL    HW246421   6.751   2.992   1.594 -0.0358  1.0737 -0.6739
15069SOL     OW46422   7.247   2.823   0.907 -0.0515 -0.2696 -0.0832
15069SOL    HW146423   7.177   2.765   0.938 -0.1802  0.3966  0.8856
15069SOL    HW246424   7.312   2.821   0.977  1.3628 -1.6028 -1.3566
15070SOL     OW46425   6.414   1.974   1.425  0.2179 -0.0090  0.3891
15070SOL    HW146426   6.452   1.989   1.338  0.9651 -0.2336  0.6782
15070SOL    HW246427   6.450   2.044   1.479 -1.5003  1.1322  0.1683
15071SOL     OW46428   6.422   2.827   1.836 -1.1285 -0.3161  0.0807
15071SOL    HW146429   6.380   2.743   1.821  0.0518 -0.6764 -1.3809
15071SOL    HW246430   6.358   2.876   1.890 -2.0847 -1.8858  0.4401
15072SOL     OW46431   5.972   2.531   0.728 -0.4684 -0.4788 -0.2933
15072SOL    HW146432   6.046   2.591   0.714 -0.5246 -0.7069 -1.7352
15072SOL    HW246433   5.981   2.465   0.659 -2.1875 -0.3349 -0.7001
15073SOL     OW46434   5.670   2.708   1.511 -0.2006  1.2151  0.1836
15073SOL    HW146435   5.696   2.680   1.423 -1.3316 -0.0136  0.2194
15073SOL    HW246436   5.746   2.687   1.566 -0.5200 -0.6033 -0.0313
15074SOL     OW46437   6.791   2.289   1.091 -0.0696  0.2140 -0.0460
15074SOL    HW146438   6.765   2.382   1.089 -1.5835 -0.1672  0.6047
15074SOL    HW246439   6.717   2.243   1.049  0.3397 -0.7688  0.2950
15075SOL     OW46440   5.231   2.920   1.525 -0.0567  0.3060 -0.6048
15075SOL    HW146441   5.248   3.002   1.478  1.0987 -0.8436 -2.3005
15075SOL    HW246442   5.315   2.896   1.563  0.3836 -1.5267 -2.5747
15076SOL     OW46443   5.602   2.995   0.855 -0.5989  0.2641  0.5610
15076SOL    HW146444   5.577   2.999   0.947 -2.0281 -0.9339  0.2544
15076SOL    HW246445   5.572   3.078   0.818 -1.2894  0.1674  0.8925
15077SOL     OW46446   5.719   2.618   0.746  0.2569 -0.1795 -0.2756
15077SOL    HW146447   5.729   2.608   0.841  0.2095  3.8648  0.2997
15077SOL    HW246448   5.807   2.603   0.711  0.2196 -1.9891  0.2831
15078SOL     OW46449   6.395   2.988   0.625 -0.1314 -0.5698 -0.0898
15078SOL    HW146450   6.303   2.970   0.643 -0.4169  0.5121 -0.4088
15078SOL    HW246451   6.416   3.063   0.681  1.2574 -2.2978  1.8562
15079SOL     OW46452   6.909   3.255   1.577 -0.2193 -0.5531 -0.0806
15079SOL    HW146453   6.973   3.301   1.631 -0.2443 -0.0459 -0.4703
15079SOL    HW246454   6.900   3.311   1.499 -1.5289 -0.3307  0.2084
15080SOL     OW46455   7.143   2.484   8.843  0.0839  0.1017 -0.2744
15080SOL    HW146456   7.168   2.556   8.786  1.9078 -2.4372 -2.9556
15080SOL    HW246457   7.223   2.459   8.888 -0.8279  0.5328  1.7235
15081SOL     OW46458   6.084   3.003   1.195 -0.1818  0.2097  0.0719
15081SOL    HW146459   6.128   3.086   1.216  0.2803  0.3917 -1.5380
15081SOL    HW246460   6.152   2.937   1.207 -0.6738 -0.0305  1.8162
15082SOL     OW46461   6.147   2.362   1.571  0.1767 -0.2243 -0.1254
15082SOL    HW146462   6.185   2.275   1.563 -0.1164 -0.5810  1.8763
15082SOL    HW246463   6.214   2.414   1.616 -0.2147  0.1920 -0.0142
15083SOL     OW46464   7.107   2.934   1.883 -0.7654  0.1635  0.2398
15083SOL    HW146465   7.180   2.994   1.898  0.6535 -0.6185 -2.7461
15083SOL    HW246466   7.127   2.857   1.936  1.0133 -0.2973 -1.0052
15084SOL     OW46467   6.542   1.662   2.116 -0.1826 -0.5778  0.2915
15084SOL    HW146468   6.637   1.674   2.121 -0.2359 -0.7436  2.3220
15084SOL    HW246469   6.516   1.715   2.041  1.3302  0.6207  0.5621
15085SOL     OW46470   6.175   1.687   1.670  0.0999 -0.4580  0.0648
15085SOL    HW146471   6.086   1.684   1.705 -0.4836 -1.4053 -1.3803
15085SOL    HW246472   6.164   1.718   1.580  0.9465 -2.4853 -0.8045
15086SOL     OW46473   6.413   2.296   1.352  0.2509 -0.2022 -0.0107
15086SOL    HW146474   6.336   2.336   1.389 -0.3856 -0.7458 -0.7005
15086SOL    HW246475   6.477   2.294   1.423 -0.9219 -1.2322  1.0687
15087SOL     OW46476   6.797   2.785   1.040  0.5290 -0.3378 -0.1481
15087SOL    HW146477   6.801   2.838   1.119 -0.7848 -2.3859  1.4270
15087SOL    HW246478   6.728   2.825   0.987  1.1498  0.8251 -0.0998
15088SOL     OW46479   6.685   2.277   8.639  0.0791 -0.1304 -0.1507
15088SOL    HW146480   6.678   2.330   8.559 -1.0323  1.0606  0.6923
15088SOL    HW246481   6.726   2.336   8.702  1.4164 -1.2291  0.0395
15089SOL     OW46482   5.466   2.031   1.225 -0.5237 -0.4402 -0.2975
15089SOL    HW146483   5.456   1.973   1.301  1.5161 -0.3111  0.1345
15089SOL    HW246484   5.415   2.109   1.248 -0.0872 -0.4773  0.8719
15090SOL     OW46485   5.520   3.638   1.199  0.0874  0.1791  0.1756
15090SOL    HW146486   5.441   3.690   1.187 -0.7330 -1.5917 -3.5323
15090SOL    HW246487   5.494   3.570   1.263 -0.6205  0.9485  0.7293
15091SOL     OW46488   5.805   2.390   1.128  0.1694 -0.1908  0.3498
15091SOL    HW146489   5.877   2.402   1.066  0.6722 -0.2346  0.9235
15091SOL    HW246490   5.846   2.359   1.209 -0.5846 -1.1102  0.4107
15092SOL     OW46491   7.868   2.404   2.127  0.2818 -0.3437  0.2429
15092SOL    HW146492   7.825   2.424   2.211  0.3399 -0.8569  0.3967
15092SOL    HW246493   7.921   2.482   2.109 -0.3804  0.1239  0.2593
15093SOL     OW46494   5.903   1.982   0.404  0.1565 -0.1568  0.0604
15093SOL    HW146495   5.857   2.041   0.344 -0.9194  1.7985  2.6161
15093SOL    HW246496   5.834   1.929   0.443  0.7623 -1.0054  0.0048
15094SOL     OW46497   7.067   2.048   8.794  0.1158  0.1199 -0.6375
15094SOL    HW146498   7.127   1.997   8.739 -1.4606 -4.0766  1.0859
15094SOL    HW246499   7.106   2.045   8.881 -1.1442 -0.2094 -0.0585
15095SOL     OW46500   6.460   2.450   1.087 -0.2586 -0.1499  0.4694
15095SOL    HW146501   6.545   2.495   1.093  0.7204 -1.4746 -1.8987
15095SOL    HW246502   6.465   2.379   1.151  1.3796 -1.5339 -1.0854
15096SOL     OW46503   6.745   3.541   1.863 -0.5557  0.4696 -0.5976
15096SOL    HW146504   6.677   3.474   1.865 -1.2847  1.1930 -0.5413
15096SOL    HW246505   6.701   3.619   1.828  0.2031  0.9864 -0.4238
15097SOL     OW46506   7.699   3.401   2.033 -0.4096  0.1538  0.3432
15097SOL    HW146507   7.771   3.415   2.094 -0.8089  1.5764  0.5194
15097SOL    HW246508   7.728   3.328   1.979  1.1523  0.6686  0.4333
15098SOL     OW46509   5.885   2.652   1.650  0.0102  0.0732 -0.2654
15098SOL    HW146510   5.853   2.563   1.662 -2.0629  0.6907 -0.7576
15098SOL    HW246511   5.903   2.684   1.738 -1.9800  0.0741  0.1901
15099SOL     OW46512   7.006   2.298   8.679 -0.7371  0.1031  0.3334
15099SOL    HW146513   7.022   2.375   8.734  1.1920 -0.1604  0.2092
15099SOL    HW246514   7.049   2.226   8.726  1.6849  0.0141 -1.8619
15100SOL     OW46515   6.747   3.262   1.239 -0.0449  0.6010  0.6610
15100SOL    HW146516   6.703   3.283   1.157 -0.6415  0.8248  1.0363
15100SOL    HW246517   6.765   3.347   1.280 -1.0578  0.4612  1.4424
15101SOL     OW46518   5.735   2.670   1.038  0.4182 -0.6798  0.1449
15101SOL    HW146519   5.827   2.687   1.056  0.2989  0.7179 -0.4255
15101SOL    HW246520   5.719   2.583   1.075  1.9778 -0.9913  0.1591
15102SOL     OW46521   5.622   2.328   0.916  0.0468  0.0818 -0.0969
15102SOL    HW146522   5.556   2.377   0.965  0.8639  1.5661 -0.4325
15102SOL    HW246523   5.699   2.330   0.972 -0.0167 -1.2148  0.0679
15103SOL     OW46524   6.777   2.584   1.398  0.2593  0.0327 -0.2168
15103SOL    HW146525   6.736   2.668   1.418 -0.8566 -0.2767 -1.1557
15103SOL    HW246526   6.803   2.550   1.484  0.2260  1.0696  0.2250
15104SOL     OW46527   6.347   1.669   1.880  0.2431 -0.4000 -0.2081
15104SOL    HW146528   6.378   1.744   1.930  1.1359 -0.9069  0.0154
15104SOL    HW246529   6.287   1.706   1.816  3.0103  0.9517 -2.1897
15105SOL     OW46530   5.725   3.940   0.953 -0.0574 -0.1876  0.0502
15105SOL    HW146531   5.786   4.013   0.943  0.6035 -1.0176 -2.9462
15105SOL    HW246532   5.774   3.875   1.003  1.5363 -0.7637 -2.1334
15106SOL     OW46533   5.983   3.484   1.113  0.5169 -0.0353 -0.6070
15106SOL    HW146534   5.958   3.455   1.201  0.7107  1.3070 -0.0825
15106SOL    HW246535   5.942   3.420   1.054 -0.5518 -0.3322  0.4079
15107SOL     OW46536   6.554   2.921   1.047 -0.1638  0.2585 -0.1220
15107SOL    HW146537   6.487   2.869   1.091 -0.1542  2.5962  3.0447
15107SOL    HW246538   6.506   2.996   1.011  0.1991 -0.4215 -2.1779
15108SOL     OW46539   5.237   2.486   0.886  0.1754  0.3648  0.5687
15108SOL    HW146540   5.186   2.528   0.955  0.0075  0.2487  0.5154
15108SOL    HW246541   5.327   2.491   0.916  0.0241 -0.4149  1.1849
15109SOL     OW46542   5.863   2.131   1.388 -0.3249  0.2180  0.1196
15109SOL    HW146543   5.904   2.216   1.403 -0.2812  0.1021  0.6710
15109SOL    HW246544   5.774   2.140   1.420 -0.2713  0.0067  0.3310
15110SOL     OW46545   6.899   2.679   2.044  0.3228 -0.3925  0.1715
15110SOL    HW146546   6.815   2.701   2.005  0.2367 -0.6283  0.2258
15110SOL    HW246547   6.913   2.747   2.111  0.1521 -0.3854  0.2008
15111SOL     OW46548   6.433   2.598   0.069 -0.2839  0.0599 -0.3066
15111SOL    HW146549   6.481   2.662   0.017 -0.8713  0.4544 -0.3731
15111SOL    HW246550   6.341   2.623   0.060 -0.6301 -1.3550 -1.1401
15112SOL     OW46551   7.041   2.682   1.022 -0.6764  0.1361 -0.0258
15112SOL    HW146552   6.951   2.713   1.029 -2.0894 -3.3785 -0.5222
15112SOL    HW246553   7.054   2.627   1.099  1.5297  1.4156  0.6318
15113SOL     OW46554   5.593   3.135   1.647  0.3109 -0.2276  0.2503
15113SOL    HW146555   5.603   3.183   1.565 -0.5993 -1.2236 -0.4651
15113SOL    HW246556   5.680   3.101   1.666  0.8668  1.2615  0.5144
15114SOL     OW46557   6.576   2.201   0.955  0.0137  0.0482  0.1667
15114SOL    HW146558   6.553   2.116   0.918 -1.8084 -0.6769  2.6999
15114SOL    HW246559   6.578   2.261   0.880  0.0909 -1.9464 -1.4938
15115SOL     OW46560   6.315   3.412   1.795  0.2262  0.3426 -0.1091
15115SOL    HW146561   6.291   3.456   1.877  0.8563  0.8445 -0.1840
15115SOL    HW246562   6.407   3.389   1.807 -0.2249 -1.4385  0.1265
15116SOL     OW46563   6.153   2.716   0.133  0.1351  0.2594  0.5623
15116SOL    HW146564   6.084   2.750   0.191 -0.4652  1.5208 -0.8155
15116SOL    HW246565   6.177   2.791   0.078  0.8563 -0.8104 -0.6445
15117SOL     OW46566   5.851   3.027   1.403  0.0640 -0.1657 -0.7117
15117SOL    HW146567   5.945   3.029   1.387  0.6360 -2.4370  1.6187
15117SOL    HW246568   5.823   2.942   1.370 -0.9546  0.0563 -0.4688
15118SOL     OW46569   7.169   2.781   1.431 -0.1167 -0.2186 -0.1206
15118SOL    HW146570   7.251   2.780   1.381  0.5433  2.3364  0.7691
15118SOL    HW246571   7.140   2.872   1.429 -1.8774 -0.6794  1.2903
15119SOL     OW46572   6.606   2.925   0.241 -0.0930 -0.5353  0.0722
15119SOL    HW146573   6.538   2.880   0.191  1.5146 -1.1641 -1.6669
15119SOL    HW246574   6.629   3.001   0.187  0.7757 -0.4964  0.4798
15120SOL     OW46575   7.414   3.299   0.939  0.8713  0.3147  0.1472
15120SOL    HW146576   7.454   3.212   0.945  0.4993  0.0789 -0.5837
15120SOL    HW246577   7.353   3.292   0.865 -1.8953  0.1113  2.2559
15121SOL     OW46578   6.805   3.494   1.372  0.5259 -0.1686  0.7458
15121SOL    HW146579   6.800   3.555   1.299 -0.0823  1.3456  2.0064
15121SOL    HW246580   6.883   3.521   1.422 -0.7013  0.7439  2.2607
15122SOL     OW46581   5.559   3.104   1.364 -0.3178 -0.0050 -0.7840
15122SOL    HW146582   5.465   3.091   1.359 -0.1106 -1.1241 -2.8316
15122SOL    HW246583   5.595   3.016   1.380  0.3351  0.7020  2.3125
15123SOL     OW46584   5.934   3.677   1.732 -0.3982  0.4112  0.5877
15123SOL    HW146585   6.012   3.728   1.711 -0.3603  0.1563  0.1032
15123SOL    HW246586   5.864   3.715   1.678 -0.3746 -0.0315  0.2452
15124SOL     OW46587   6.832   2.197   8.300 -0.7482 -0.1622 -0.2612
15124SOL    HW146588   6.752   2.148   8.320 -1.5979  0.8967 -0.9799
15124SOL    HW246589   6.852   2.176   8.209  0.3893 -1.2165  0.2112
15125SOL     OW46590   6.901   1.594   8.523  0.0394 -0.5114 -0.2217
15125SOL    HW146591   6.910   1.645   8.442 -0.6451  0.3194  0.2115
15125SOL    HW246592   6.878   1.506   8.493 -1.4133  0.0798 -0.9181
15126SOL     OW46593   6.946   3.089   0.541  0.3412 -0.2523 -0.0239
15126SOL    HW146594   7.032   3.050   0.525 -0.8213 -2.5118 -1.3249
15126SOL    HW246595   6.936   3.086   0.636  1.1393 -1.3469  0.0497
15127SOL     OW46596   5.219   3.985   1.914 -0.0154  0.2796  0.2324
15127SOL    HW146597   5.246   3.894   1.928 -1.9402 -0.3352  0.2950
15127SOL    HW246598   5.204   4.019   2.003 -2.2272 -0.3492  0.1582
15128SOL     OW46599   6.592   2.829   0.540 -0.5687 -0.0257 -0.8655
15128SOL    HW146600   6.599   2.849   0.447 -1.7688  0.3570 -0.8937
15128SOL    HW246601   6.544   2.903   0.578  0.3358  0.0689  0.1566
15129SOL     OW46602   6.125   3.298   2.008 -0.0233  0.1169  0.0118
15129SOL    HW146603   6.071   3.245   2.066 -0.1352  0.0131 -0.1873
15129SOL    HW246604   6.195   3.332   2.065 -0.4553  0.4873  0.3365
15130SOL     OW46605   6.197   3.401   0.238  0.0474 -0.3021  0.2406
15130SOL    HW146606   6.271   3.362   0.191 -0.0469 -1.2037  0.8076
15130SOL    HW246607   6.135   3.329   0.250 -0.7992  0.3780  0.0300
15131SOL     OW46608   7.194   3.367   1.992 -0.1781  0.0344  0.7309
15131SOL    HW146609   7.123   3.423   2.025  0.3817  0.4732  1.2317
15131SOL    HW246610   7.207   3.302   2.061  1.3042  1.2272  1.6498
15132SOL     OW46611   7.571   2.187   0.813  0.4356 -0.8977  0.2731
15132SOL    HW146612   7.515   2.228   0.878  0.3335 -1.1975  0.3732
15132SOL    HW246613   7.513   2.171   0.738  0.9778  1.3841 -0.7576
15133SOL     OW46614   5.491   2.109   0.831 -0.0929 -0.1662 -0.1960
15133SOL    HW146615   5.521   2.199   0.826 -0.2808 -0.1596 -2.1103
15133SOL    HW246616   5.556   2.064   0.885  1.6947  0.5015 -1.7064
15134SOL     OW46617   6.677   3.850   0.600  0.2522 -0.3332 -0.2263
15134SOL    HW146618   6.665   3.939   0.565  2.8975  0.0329 -0.3969
15134SOL    HW246619   6.631   3.793   0.539  0.8988  0.7048 -1.7372
15135SOL     OW46620   5.978   2.717   1.896  0.4965  0.2920 -0.1936
15135SOL    HW146621   6.035   2.739   1.970 -0.4620 -1.5005  1.1440
15135SOL    HW246622   5.892   2.750   1.922  0.5214  1.3446 -1.3854
15136SOL     OW46623   6.290   2.691   0.492  0.1041 -0.1666  0.7706
15136SOL    HW146624   6.301   2.627   0.421  0.3602  2.8133 -2.0966
15136SOL    HW246625   6.379   2.723   0.508 -0.3156  1.2346  0.3591
15137SOL     OW46626   7.106   3.497   0.330 -0.3186 -0.4280  0.0544
15137SOL    HW146627   7.143   3.567   0.384 -2.0533  0.2938  0.3848
15137SOL    HW246628   7.178   3.470   0.273  0.9711  0.2315  1.2835
15138SOL     OW46629   6.089   2.758   1.434 -0.1558  0.0034 -0.1406
15138SOL    HW146630   6.030   2.737   1.507  0.9579  0.2255  0.8468
15138SOL    HW246631   6.168   2.793   1.475  0.6502 -0.2022 -1.4368
15139SOL     OW46632   6.827   3.026   1.943 -0.3400  0.3728 -0.0307
15139SOL    HW146633   6.923   3.019   1.938 -0.1563  1.9317  0.8252
15139SOL    HW246634   6.800   3.043   1.853  0.2293  0.4158 -0.2013
15140SOL     OW46635   6.196   3.215   0.471  0.7175  0.7532  0.1260
15140SOL    HW146636   6.101   3.225   0.465  0.3777 -1.4990  0.8078
15140SOL    HW246637   6.219   3.258   0.553 -0.1251 -0.7975  1.2261
15141SOL     OW46638   6.255   2.275   0.916 -0.1017 -0.0051 -0.3246
15141SOL    HW146639   6.340   2.295   0.954 -0.1117 -0.2327 -0.1774
15141SOL    HW246640   6.271   2.269   0.822  0.2847 -1.2042 -0.2029
15142SOL     OW46641   5.923   2.824   0.604  1.0568 -0.1955  0.8646
15142SOL    HW146642   5.993   2.851   0.664  0.7235  1.2875  0.6223
15142SOL    HW246643   5.842   2.850   0.648  0.7264 -0.5329  0.4684
15143SOL     OW46644   7.071   2.542   1.255 -0.1099 -0.0401 -0.5731
15143SOL    HW146645   6.998   2.494   1.296 -0.7111  0.2872 -1.2342
15143SOL    HW246646   7.097   2.606   1.321 -0.4936 -0.0936 -0.3666
15144SOL     OW46647   6.003   2.872   0.352  0.1015  0.0645  0.1618
15144SOL    HW146648   5.980   2.859   0.444 -0.1149  0.2647  0.1346
15144SOL    HW246649   6.018   2.966   0.343  1.0542 -0.0754  0.2073
15145SOL     OW46650   5.638   2.633   1.835 -0.3128 -0.3211 -0.6022
15145SOL    HW146651   5.596   2.655   1.918  1.1389 -1.4070  0.4871
15145SOL    HW246652   5.660   2.717   1.796 -1.2313  0.2123 -0.0045
15146SOL     OW46653   6.111   2.131   1.112 -0.5552 -0.1990 -0.2788
15146SOL    HW146654   6.125   2.194   1.182  1.2295  0.2992 -1.0378
15146SOL    HW246655   6.148   2.171   1.035 -1.4827 -1.2196 -1.3035
15147SOL     OW46656   5.833   2.514   8.820  0.8968  0.0906  0.8512
15147SOL    HW146657   5.854   2.603   8.792 -1.5075  0.4167 -0.1422
15147SOL    HW246658   5.791   2.524   8.905 -0.9509  0.1604 -0.0111
15148SOL     OW46659   6.311   2.877   1.554 -0.5950  0.2865 -0.3003
15148SOL    HW146660   6.357   2.905   1.633 -1.6683  0.1429  0.3819
15148SOL    HW246661   6.246   2.946   1.538  1.8134  2.1765 -3.0652
15149SOL     OW46662   5.683   2.177   0.539  0.0652  0.1759  0.2535
15149SOL    HW146663   5.669   2.269   0.563  1.7163  0.2273  1.2069
15149SOL    HW246664   5.764   2.153   0.585 -0.9823 -2.1250  1.0003
15150SOL     OW46665   6.752   3.232   0.385  0.1716 -0.2484 -0.2684
15150SOL    HW146666   6.683   3.201   0.325  1.2649  0.4261 -1.9475
15150SOL    HW246667   6.782   3.153   0.430 -2.0941 -0.4748  0.9805
15151SOL     OW46668   6.250   2.623   1.806  0.3508 -0.6693  0.3267
15151SOL    HW146669   6.160   2.649   1.825  0.2851 -0.5538 -0.1272
15151SOL    HW246670   6.278   2.575   1.884  0.6344  1.1268  1.4024
15152SOL     OW46671   7.041   3.543   1.493  0.1216  0.5854  0.0268
15152SOL    HW146672   7.084   3.628   1.488 -1.6533  1.7855  2.6612
15152SOL    HW246673   7.094   3.493   1.555  1.1640 -0.3251 -1.5194
15153SOL     OW46674   6.384   1.982   2.222  0.0819  0.3855  0.8342
15153SOL    HW146675   6.348   2.068   2.200  2.4933  1.1567 -0.5101
15153SOL    HW246676   6.444   2.000   2.295 -0.0253 -0.3071  1.0950
15154SOL     OW46677   7.235   2.855   2.175 -0.4495 -0.5406  0.3491
15154SOL    HW146678   7.185   2.917   2.228  0.0962 -0.4271  0.7363
15154SOL    HW246679   7.185   2.774   2.179 -0.2978 -0.5904  1.2088
15155SOL     OW46680   5.757   3.559   1.450 -0.2990  0.2821  0.5444
15155SOL    HW146681   5.752   3.644   1.406 -0.0522  1.0966  2.0190
15155SOL    HW246682   5.667   3.530   1.457 -0.4486  0.7613  0.6550
15156SOL     OW46683   6.664   2.770   1.934  0.0643  0.4390  0.2572
15156SOL    HW146684   6.720   2.845   1.916  1.7025 -1.0659 -1.2780
15156SOL    HW246685   6.588   2.782   1.876 -0.6187  1.8125  1.3875
15157SOL     OW46686   6.746   2.320   0.272 -0.0108 -0.7175 -0.1742
15157SOL    HW146687   6.836   2.352   0.264  0.0936 -1.4521 -2.4891
15157SOL    HW246688   6.752   2.226   0.256 -1.2301 -0.7335 -0.6574
15158SOL     OW46689   5.736   2.764   0.322  0.1497 -0.1724 -0.4626
15158SOL    HW146690   5.830   2.780   0.330 -0.0666  1.4305 -0.7004
15158SOL    HW246691   5.698   2.805   0.400 -0.4848  0.8181 -1.2571
15159SOL     OW46692   7.076   2.661   1.664 -0.3594  0.1582  0.3219
15159SOL    HW146693   7.062   2.753   1.688 -0.4057  0.3255 -0.3229
15159SOL    HW246694   7.111   2.665   1.575  0.5042 -0.4066  0.6192
15160SOL     OW46695   7.483   2.963   1.675 -0.4343 -0.4602  0.4563
15160SOL    HW146696   7.488   2.870   1.695  0.7336 -0.6746 -0.7034
15160SOL    HW246697   7.412   2.996   1.730 -2.9048 -2.5730 -1.2113
15161SOL     OW46698   6.372   3.231   0.085  0.7615 -0.2866 -0.0061
15161SOL    HW146699   6.421   3.197   0.159  2.0497  2.4681  0.5400
15161SOL    HW246700   6.311   3.161   0.062  1.7287 -2.0149  2.3196
15162SOL     OW46701   6.292   3.410   0.905  0.3126  0.4791  0.0203
15162SOL    HW146702   6.282   3.462   0.985 -0.1143 -1.0362  1.0015
15162SOL    HW246703   6.321   3.473   0.839 -1.2293  2.1610  0.8605
15163SOL     OW46704   5.882   2.969   0.858  0.9148 -0.3674 -0.5481
15163SOL    HW146705   5.789   2.975   0.836  0.9564  0.5565 -0.5053
15163SOL    HW246706   5.887   2.996   0.950  1.1360 -1.1881 -0.3055
15164SOL     OW46707   6.667   3.142   0.077 -0.3817 -0.0717 -0.0207
15164SOL    HW146708   6.723   3.219   0.066 -0.7987  0.2940  0.4110
15164SOL    HW246709   6.650   3.112  -0.013  1.3404 -0.8103 -0.1313
15165SOL     OW46710   7.607   3.058   0.931  0.6385 -0.2159 -0.2716
15165SOL    HW146711   7.601   3.057   0.836 -1.4098  2.3995 -0.2955
15165SOL    HW246712   7.612   2.966   0.956 -0.2225 -1.0443 -2.8348
15166SOL     OW46713   5.880   3.309   1.348  0.2256 -0.0692 -0.2769
15166SOL    HW146714   5.795   3.351   1.360  0.1709 -0.5410  1.2436
15166SOL    HW246715   5.873   3.228   1.399  1.5281 -0.1752 -0.2455
15167SOL     OW46716   5.412   2.709   1.311  0.0404 -0.0953 -0.3551
15167SOL    HW146717   5.482   2.775   1.311 -0.1917  0.1669 -1.6259
15167SOL    HW246718   5.455   2.629   1.344  0.5360  0.4511  0.3761
15168SOL     OW46719   6.742   3.214   2.140  0.1031  0.3820 -0.5060
15168SOL    HW146720   6.778   3.170   2.063  1.4048 -1.4150  1.0131
15168SOL    HW246721   6.668   3.160   2.167  0.3976  0.3049  0.1707
15169SOL     OW46722   7.467   2.000   1.411  0.3247  0.1101  0.2245
15169SOL    HW146723   7.482   1.953   1.493 -0.8607 -1.6491 -0.5045
15169SOL    HW246724   7.371   2.000   1.401  0.0448  4.2084  0.9822
15170SOL     OW46725   5.828   2.163   0.813 -0.2506  0.0979  0.3382
15170SOL    HW146726   5.764   2.234   0.813 -0.0834  0.2694 -0.4526
15170SOL    HW246727   5.899   2.195   0.757 -0.1349 -0.6624  0.0308
15171SOL     OW46728   7.176   3.222   1.366  0.1673 -0.0235  0.1618
15171SOL    HW146729   7.178   3.147   1.307  3.4184 -0.2561  0.3851
15171SOL    HW246730   7.156   3.184   1.452  2.8666 -0.9785  0.4897
15172SOL     OW46731   5.922   2.430   1.373 -0.3006  0.3633 -0.1926
15172SOL    HW146732   6.011   2.404   1.392 -0.0178  1.4936  0.1076
15172SOL    HW246733   5.925   2.526   1.366 -0.8682  0.2760 -3.2755
15173SOL     OW46734   6.428   3.164   0.821 -0.6019 -0.2872  0.2295
15173SOL    HW146735   6.335   3.178   0.839 -0.5626  0.3635 -0.0383
15173SOL    HW246736   6.468   3.250   0.833 -0.3678 -0.1044 -1.5939
15174SOL     OW46737   7.130   2.495   0.849 -0.9491  0.1941  0.4940
15174SOL    HW146738   7.202   2.449   0.892  2.1150  2.8977 -1.2880
15174SOL    HW246739   7.099   2.558   0.913  0.7328  1.3499  0.2367
15175SOL     OW46740   6.327   2.247   0.600 -0.4047  0.4290 -0.1606
15175SOL    HW146741   6.312   2.211   0.512  0.3814  0.3231 -0.2642
15175SOL    HW246742   6.404   2.303   0.590  0.0284 -0.0202  0.5699
15176SOL     OW46743   6.453   3.134   0.386  0.1866 -0.0391  0.2186
15176SOL    HW146744   6.364   3.170   0.390  0.1030  0.2159 -2.2871
15176SOL    HW246745   6.452   3.061   0.448 -1.2657  0.9671  1.4447
15177SOL     OW46746   6.171   3.230   1.327 -0.1849 -0.4541 -0.0837
15177SOL    HW146747   6.228   3.295   1.286  0.6640 -1.3074 -0.2863
15177SOL    HW246748   6.083   3.263   1.312  0.2548  1.9738  2.0490
15178SOL     OW46749   6.804   2.010   0.145  0.4498  0.2432 -0.5535
15178SOL    HW146750   6.864   2.056   0.203  0.1937 -2.4924  2.1342
15178SOL    HW246751   6.858   1.987   0.069  1.5634  1.6096 -0.2120
15179SOL     OW46752   6.570   2.393   0.460  0.2214  0.1112 -0.2287
15179SOL    HW146753   6.494   2.423   0.411 -0.0372 -0.9816 -0.5181
15179SOL    HW246754   6.637   2.377   0.394  0.2312 -0.3044 -0.1226
15180SOL     OW46755   7.348   2.713   0.417 -0.6401 -0.5865  0.2558
15180SOL    HW146756   7.352   2.619   0.404 -0.7114 -0.8189  1.7383
15180SOL    HW246757   7.282   2.743   0.355  0.0620 -1.3622 -0.8967
15181SOL     OW46758   5.353   2.330   0.484  0.1210  0.2529  0.2020
15181SOL    HW146759   5.417   2.318   0.554  1.4728 -0.6798 -1.1310
15181SOL    HW246760   5.358   2.423   0.462 -0.6935  0.6675  1.6500
15182SOL     OW46761   6.105   3.479   0.627 -0.2381 -0.3729  0.1958
15182SOL    HW146762   6.193   3.502   0.656 -0.1084 -0.2451 -0.2835
15182SOL    HW246763   6.084   3.544   0.561 -0.2532 -1.0482 -0.4848
15183SOL     OW46764   5.985   2.825   2.180 -0.1691 -0.5335  0.4226
15183SOL    HW146765   5.985   2.771   2.259 -3.1925 -2.5710 -0.8098
15183SOL    HW246766   5.995   2.915   2.213 -0.0724 -1.4012  2.9672
15184SOL     OW46767   5.760   2.227   2.958  0.1646  0.1008 -0.0110
15184SOL    HW146768   5.692   2.167   2.991  0.7717  0.3523  1.7883
15184SOL    HW246769   5.712   2.306   2.933 -0.3456 -0.1728  0.0877
15185SOL     OW46770   5.927   2.153   2.121 -0.0671  0.6941 -0.0413
15185SOL    HW146771   5.898   2.195   2.202 -0.8541 -0.4448  0.3065
15185SOL    HW246772   5.954   2.065   2.148  0.4557  0.5850 -0.8933
15186SOL     OW46773   5.788   2.716   2.849  0.1320 -0.0042  0.8955
15186SOL    HW146774   5.814   2.808   2.846 -1.0037  0.3191  0.0603
15186SOL    HW246775   5.727   2.711   2.923 -2.2336  0.6583 -0.8713
15187SOL     OW46776   7.092   3.462   2.451  0.4853 -0.7423 -0.0434
15187SOL    HW146777   7.006   3.421   2.439  1.0558 -2.2410  0.7010
15187SOL    HW246778   7.118   3.490   2.363 -1.0171  0.3116 -0.1825
15188SOL     OW46779   6.831   2.148   2.562  0.0229  0.3776 -0.1372
15188SOL    HW146780   6.774   2.224   2.575 -0.7807  0.1909 -2.1287
15188SOL    HW246781   6.799   2.083   2.625 -2.0500  0.2791 -1.1880
15189SOL     OW46782   7.559   2.446   2.253  0.0366 -0.7477 -0.2743
15189SOL    HW146783   7.499   2.372   2.259 -0.7778 -0.0286  0.9420
15189SOL    HW246784   7.617   2.436   2.328  1.2485 -1.2527 -1.2563
15190SOL     OW46785   6.398   2.802   3.034  0.1515 -0.2705 -0.2299
15190SOL    HW146786   6.367   2.886   3.000 -0.2013 -0.8061 -1.2366
15190SOL    HW246787   6.318   2.756   3.061  0.2144 -0.8594 -1.0184
15191SOL     OW46788   6.290   2.185   3.695 -0.0832 -0.4176 -0.4042
15191SOL    HW146789   6.289   2.218   3.785  0.2954 -0.2303 -0.4663
15191SOL    HW246790   6.341   2.250   3.646 -0.9224 -0.1261 -0.9064
15192SOL     OW46791   5.996   2.779   2.455 -0.1376 -0.2543 -0.2744
15192SOL    HW146792   5.929   2.713   2.472 -0.4914  0.1364 -0.1386
15192SOL    HW246793   6.041   2.791   2.539  0.2904 -0.7160 -0.4313
15193SOL     OW46794   6.627   2.668   3.628 -0.0159  0.0680  0.1436
15193SOL    HW146795   6.624   2.753   3.584  2.3781  0.7479  1.0909
15193SOL    HW246796   6.720   2.655   3.647 -0.5375 -1.9296  1.6489
15194SOL     OW46797   5.760   3.239   3.246 -0.0987  0.2740  0.5909
15194SOL    HW146798   5.746   3.162   3.190 -2.8039  0.5914  0.7060
15194SOL    HW246799   5.677   3.252   3.290 -0.1835  4.0491 -0.3613
15195SOL     OW46800   6.638   3.035   3.693 -0.3505 -0.0788  0.0139
15195SOL    HW146801   6.638   2.987   3.611  0.3094 -0.3326  0.1552
15195SOL    HW246802   6.546   3.038   3.719 -0.4858 -0.5994 -0.3833
15196SOL     OW46803   5.588   1.927   4.275  0.0942 -0.3127 -0.1217
15196SOL    HW146804   5.610   2.006   4.226  0.7310 -0.1805  0.3643
15196SOL    HW246805   5.530   1.957   4.346  3.0906  0.3816  2.2488
15197SOL     OW46806   7.252   2.169   2.484 -0.5375 -0.5357  0.2550
15197SOL    HW146807   7.320   2.140   2.422 -1.2255 -0.1324 -0.7023
15197SOL    HW246808   7.299   2.225   2.545  0.1771 -1.0091  0.1634
15198SOL     OW46809   5.722   3.846   2.108 -0.2771  0.1817  0.2743
15198SOL    HW146810   5.814   3.831   2.089 -0.8533  0.3992 -3.1924
15198SOL    HW246811   5.713   3.941   2.112 -0.2362  0.1520  1.5683
15199SOL     OW46812   6.180   3.153   3.439  0.0503  0.2713 -0.0496
15199SOL    HW146813   6.225   3.237   3.432  1.4233 -0.4032  0.3671
15199SOL    HW246814   6.233   3.103   3.501 -0.5176 -1.0571 -0.6107
15200SOL     OW46815   5.904   3.489   2.290  0.3561 -0.2502  0.4019
15200SOL    HW146816   5.861   3.404   2.291 -0.7681  0.2620 -1.0108
15200SOL    HW246817   5.966   3.484   2.218 -0.3727  0.4093 -0.2921
15201SOL     OW46818   5.834   2.980   2.831 -0.1205  0.2258  0.0557
15201SOL    HW146819   5.780   2.985   2.752  0.0364  0.1046 -0.0565
15201SOL    HW246820   5.842   3.071   2.860 -0.5005  0.2328  0.1496
15202SOL     OW46821   5.344   3.478   3.364 -0.2344 -0.1495  0.4027
15202SOL    HW146822   5.302   3.393   3.348 -1.0324  0.3783 -0.4284
15202SOL    HW246823   5.385   3.469   3.450 -1.1443 -1.0501  0.7650
15203SOL     OW46824   6.264   2.999   2.009 -0.5987 -0.0835  0.8444
15203SOL    HW146825   6.290   2.955   2.090 -0.9516  1.2920  1.7274
15203SOL    HW246826   6.169   3.003   2.013 -0.5989  0.2716  0.5162
15204SOL     OW46827   7.031   1.897   2.584  0.0244  0.1446  0.0929
15204SOL    HW146828   7.121   1.869   2.602 -0.2455 -2.6825 -2.1339
15204SOL    HW246829   7.038   1.948   2.503 -0.2570  1.2207  0.7279
15205SOL     OW46830   5.661   2.761   2.113  0.3608 -0.1453  0.3429
15205SOL    HW146831   5.671   2.762   2.208  1.6011 -1.5950  0.2647
15205SOL    HW246832   5.611   2.682   2.095 -0.7832  0.6756 -0.1586
15206SOL     OW46833   7.229   3.726   2.077 -0.4231  0.5957 -0.2188
15206SOL    HW146834   7.249   3.685   1.993 -1.6272 -0.9069  0.1845
15206SOL    HW246835   7.150   3.778   2.060 -1.7095 -1.1059  0.3373
15207SOL     OW46836   5.412   3.494   1.706  0.3663 -0.0571  0.0056
15207SOL    HW146837   5.453   3.524   1.787  2.3366  1.7106 -1.5087
15207SOL    HW246838   5.331   3.544   1.699  1.4550  1.7317 -0.3157
15208SOL     OW46839   7.523   2.622   2.577 -0.8152 -0.1020 -0.2276
15208SOL    HW146840   7.489   2.606   2.665  1.0340  2.1392  1.0161
15208SOL    HW246841   7.464   2.574   2.519 -2.7428 -0.7714  2.1290
15209SOL     OW46842   7.261   2.567   2.416  0.0748 -0.0076 -0.4519
15209SOL    HW146843   7.224   2.579   2.329 -1.1867  3.4261  0.4086
15209SOL    HW246844   7.189   2.532   2.469  0.5220 -1.0499 -0.5066
15210SOL     OW46845   5.649   2.113   3.744  0.3938  0.1629  0.2597
15210SOL    HW146846   5.734   2.099   3.702 -0.4319  1.2647 -1.9007
15210SOL    HW246847   5.627   2.027   3.780  2.7597  0.0406  1.6432
15211SOL     OW46848   6.203   3.259   2.615 -0.1034  0.4954  0.0585
15211SOL    HW146849   6.155   3.342   2.608  0.9445  1.1996  0.8358
15211SOL    HW246850   6.154   3.198   2.560 -0.0212  2.0295 -1.8063
15212SOL     OW46851   7.005   2.714   3.539 -0.6285  0.2739 -1.1038
15212SOL    HW146852   7.086   2.752   3.574 -0.0918 -0.7471 -1.2211
15212SOL    HW246853   7.007   2.735   3.446 -1.5845  2.1393 -0.7674
15213SOL     OW46854   5.677   1.536   2.614 -0.3589 -0.4281 -0.6264
15213SOL    HW146855   5.660   1.442   2.616  2.4880 -1.0525  2.9907
15213SOL    HW246856   5.672   1.563   2.705  1.5930  2.3966 -1.2514
15214SOL     OW46857   5.239   2.304   3.281  0.2320 -0.2526 -0.2671
15214SOL    HW146858   5.174   2.372   3.295 -0.6934 -0.9092 -1.1875
15214SOL    HW246859   5.265   2.314   3.189  1.0669 -0.3162 -0.0488
15215SOL     OW46860   7.142   2.576   2.134 -0.4214 -0.0798  0.3965
15215SOL    HW146861   7.066   2.570   2.076  1.0426  0.6225 -1.6976
15215SOL    HW246862   7.171   2.486   2.145 -0.0200 -0.1382 -0.9822
15216SOL     OW46863   6.765   3.366   3.393  0.4238  0.0522  0.0677
15216SOL    HW146864   6.678   3.339   3.422  1.6198 -2.7674  1.4387
15216SOL    HW246865   6.778   3.320   3.310  1.4476 -1.5962  1.0763
15217SOL     OW46866   6.012   2.066   3.699  0.6107 -0.6240  0.0781
15217SOL    HW146867   6.026   2.158   3.674  1.8526 -1.0121 -0.7286
15217SOL    HW246868   6.092   2.021   3.671  0.3862 -1.8091  1.2500
15218SOL     OW46869   7.392   2.960   3.251 -0.0983  0.1335  0.2588
15218SOL    HW146870   7.466   2.996   3.201  0.0744 -0.6067 -0.0232
15218SOL    HW246871   7.393   3.011   3.333  0.0470  0.8745 -0.1884
15219SOL     OW46872   7.280   3.590   2.295 -0.4869 -0.0451 -0.1169
15219SOL    HW146873   7.338   3.537   2.240 -0.8849 -0.4336 -0.1638
15219SOL    HW246874   7.262   3.668   2.242 -0.9866 -0.4865 -0.5995
15220SOL     OW46875   6.634   2.366   2.537 -0.2484 -0.5105 -0.6346
15220SOL    HW146876   6.633   2.415   2.454 -1.3532  1.2743  0.3544
15220SOL    HW246877   6.553   2.316   2.537 -1.1655  0.9167  0.1154
15221SOL     OW46878   6.796   1.958   2.742  0.0013 -0.4587 -0.3721
15221SOL    HW146879   6.849   1.898   2.691  0.2572 -0.3718 -0.2099
15221SOL    HW246880   6.798   1.923   2.831  0.6160  0.0916 -0.1591
15222SOL     OW46881   7.267   3.150   2.164  0.3147 -0.0520  0.1085
15222SOL    HW146882   7.341   3.090   2.151  0.5390  0.1408  0.4912
15222SOL    HW246883   7.270   3.171   2.257  0.0180  0.2723  0.0434
15223SOL     OW46884   6.265   2.394   3.338  0.2999 -0.0083  0.0572
15223SOL    HW146885   6.282   2.473   3.286  2.2476 -1.2034 -1.2384
15223SOL    HW246886   6.205   2.343   3.284  1.6313 -0.8549 -0.6656
15224SOL     OW46887   7.312   2.185   2.952  0.0115  0.5850 -0.4052
15224SOL    HW146888   7.341   2.265   2.996  2.1711 -0.7142  0.7477
15224SOL    HW246889   7.256   2.141   3.016  0.8070  0.0644 -0.0447
15225SOL     OW46890   6.822   2.378   3.805 -0.1272  0.0259  0.6511
15225SOL    HW146891   6.862   2.394   3.719 -0.1502  2.4618  1.0250
15225SOL    HW246892   6.783   2.291   3.797 -0.0772  0.1498 -1.7817
15226SOL     OW46893   6.680   2.071   3.351 -0.0318  0.1468  0.5785
15226SOL    HW146894   6.772   2.048   3.344  0.1407  0.6897  0.9911
15226SOL    HW246895   6.659   2.060   3.444 -0.4089 -0.0676  0.4709
15227SOL     OW46896   6.693   2.079   2.154  0.2056 -0.0012  0.5058
15227SOL    HW146897   6.699   2.090   2.249  1.0213 -0.6832  0.5465
15227SOL    HW246898   6.755   2.008   2.134 -1.1554 -1.0108 -0.3340
15228SOL     OW46899   5.704   3.015   2.587 -0.1898 -0.0809  0.4239
15228SOL    HW146900   5.630   3.069   2.616 -0.3167  0.4849 -0.8901
15228SOL    HW246901   5.666   2.958   2.519  0.4124 -0.3170  0.2840
15229SOL     OW46902   5.718   3.679   3.214  0.2488 -0.4777  0.3506
15229SOL    HW146903   5.624   3.694   3.220  0.2415 -0.3582 -0.0354
15229SOL    HW246904   5.756   3.739   3.278  0.1261  0.1652 -0.1728
15230SOL     OW46905   6.511   2.131   1.832 -0.5089  0.2748  0.2298
15230SOL    HW146906   6.435   2.188   1.832  0.2868  1.5402 -2.8208
15230SOL    HW246907   6.584   2.187   1.858 -0.1543 -0.1250  0.1183
15231SOL     OW46908   7.556   2.199   3.637 -0.0062  0.2944  0.0552
15231SOL    HW146909   7.554   2.290   3.607 -0.3996  0.4699  0.6045
15231SOL    HW246910   7.627   2.159   3.586  0.1051  0.8802 -0.2611
15232SOL     OW46911   7.001   2.684   2.784  0.3344  0.0768  0.3876
15232SOL    HW146912   6.984   2.747   2.714 -0.9526 -0.3701  0.2728
15232SOL    HW246913   6.920   2.634   2.791  0.3621  0.2326  2.3127
15233SOL     OW46914   5.848   2.055   2.770  0.1552 -0.0201  0.3968
15233SOL    HW146915   5.847   2.123   2.837  3.8985 -0.7440  1.4106
15233SOL    HW246916   5.820   1.975   2.815  1.2306 -0.2144  0.7403
15234SOL     OW46917   6.850   3.373   2.350  0.4618 -0.4742  0.3785
15234SOL    HW146918   6.824   3.301   2.293 -0.0173  0.7149 -0.9668
15234SOL    HW246919   6.791   3.445   2.328  2.1089  0.9487  0.2937
15235SOL     OW46920   6.064   3.523   2.916 -0.3319 -0.3799  0.2225
15235SOL    HW146921   5.997   3.520   2.985  0.2932  1.6226  1.0037
15235SOL    HW246922   6.131   3.462   2.945 -0.4934 -0.2320  0.9379
15236SOL     OW46923   7.191   2.807   2.943  0.3521 -0.6406 -0.0607
15236SOL    HW146924   7.133   2.765   2.879  1.5150  0.1428 -1.6887
15236SOL    HW246925   7.240   2.872   2.892  0.6113  0.7312  1.8355
15237SOL     OW46926   6.512   3.096   3.321  0.3453 -0.3937  0.6016
15237SOL    HW146927   6.524   3.169   3.382 -0.1370 -1.8724  2.5825
15237SOL    HW246928   6.571   3.116   3.248 -0.6770  2.5412  0.4671
15238SOL     OW46929   6.328   2.650   2.420  0.1436  0.7355 -0.0038
15238SOL    HW146930   6.364   2.679   2.504  0.9864  0.1328 -0.1389
15238SOL    HW246931   6.392   2.587   2.387 -1.2983 -0.7625 -0.0379
15239SOL     OW46932   7.054   2.455   2.961  0.1943 -0.0338  0.6649
15239SOL    HW146933   7.083   2.502   2.883  0.1868  1.4114  1.4780
15239SOL    HW246934   6.981   2.401   2.931 -2.1250  3.0572  0.2105
15240SOL     OW46935   6.047   3.113   3.166  0.4682  0.2765  0.3047
15240SOL    HW146936   6.080   3.088   3.252  0.2635 -1.2693 -0.0363
15240SOL    HW246937   5.980   3.048   3.145  0.7216  0.4379 -1.1546
15241SOL     OW46938   6.189   4.031   2.358 -0.1645 -0.2116  0.2032
15241SOL    HW146939   6.197   4.107   2.414 -0.4804  0.3391 -0.4844
15241SOL    HW246940   6.095   4.014   2.353 -0.1551 -0.1432 -0.3022
15242SOL     OW46941   5.870   2.105   3.373 -0.1993  0.3457  0.4434
15242SOL    HW146942   5.777   2.088   3.390 -0.1177 -0.2530  0.2964
15242SOL    HW246943   5.871   2.191   3.331 -0.7280  0.1836  0.0913
15243SOL     OW46944   7.236   2.762   2.614  0.1161  0.1500  0.9995
15243SOL    HW146945   7.254   2.699   2.545 -0.4970 -0.3373  1.2812
15243SOL    HW246946   7.248   2.848   2.572 -1.0948 -0.1188  0.0418
15244SOL     OW46947   5.840   3.404   1.796 -0.2930  0.2154 -0.1284
15244SOL    HW146948   5.820   3.468   1.728 -1.5803 -0.9473 -0.9120
15244SOL    HW246949   5.915   3.355   1.761 -0.5609  0.0234 -0.4440
15245SOL     OW46950   6.902   1.433   2.270  0.5262  0.2974 -0.1558
15245SOL    HW146951   6.819   1.392   2.294 -0.2450  2.6958  1.6611
15245SOL    HW246952   6.907   1.424   2.175  0.0109 -3.0223  0.0084
15246SOL     OW46953   6.247   3.427   3.316  0.3578 -0.0757  0.2849
15246SOL    HW146954   6.213   3.517   3.321 -0.0449 -0.1825 -0.3425
15246SOL    HW246955   6.341   3.437   3.306  0.3744  0.2648  0.7725
15247SOL     OW46956   6.677   3.547   2.599  0.2809 -0.4122 -0.0938
15247SOL    HW146957   6.695   3.499   2.518 -1.4598 -1.2870 -0.0188
15247SOL    HW246958   6.595   3.592   2.582  1.1194  1.3689  0.3850
15248SOL     OW46959   6.470   2.402   2.310 -0.1696 -0.2536  0.1474
15248SOL    HW146960   6.473   2.336   2.241 -2.2681  0.1337 -0.3887
15248SOL    HW246961   6.522   2.475   2.276 -2.2100  0.4602 -1.7086
15249SOL     OW46962   7.259   1.819   3.285  0.2503 -0.3671 -0.0458
15249SOL    HW146963   7.219   1.733   3.272  0.7179 -0.6353  0.2629
15249SOL    HW246964   7.353   1.803   3.276  0.2574  0.4540 -1.9380
15250SOL     OW46965   6.355   2.509   2.027  0.2790  0.0428  0.2165
15250SOL    HW146966   6.423   2.561   2.070  0.2598 -1.0324  1.6408
15250SOL    HW246967   6.292   2.490   2.096 -1.5108  1.0040 -1.0734
15251SOL     OW46968   6.267   1.914   3.637 -0.3810 -0.1561  0.3882
15251SOL    HW146969   6.281   2.008   3.628 -1.6940  0.0022 -0.2071
15251SOL    HW246970   6.351   1.876   3.609  0.1973  0.8193  0.7189
15252SOL     OW46971   5.995   3.206   3.624  0.3088  0.0574  0.2603
15252SOL    HW146972   5.990   3.289   3.577  2.2171  1.1956  1.9321
15252SOL    HW246973   6.074   3.163   3.591 -0.3920 -0.9037 -0.2346
15253SOL     OW46974   6.923   1.991   3.326 -0.0692 -0.2800  0.2579
15253SOL    HW146975   6.966   1.975   3.242  1.2388 -1.1917  1.0620
15253SOL    HW246976   6.987   2.043   3.375 -0.4528 -0.5106  1.0000
15254SOL     OW46977   6.357   3.285   2.842  0.3316 -0.1529 -0.0995
15254SOL    HW146978   6.281   3.283   2.784  0.2382 -0.7645  0.0387
15254SOL    HW246979   6.321   3.266   2.929  0.3883  1.2666  0.2658
15255SOL     OW46980   6.437   1.930   2.678 -0.3458 -0.4862 -0.3887
15255SOL    HW146981   6.364   1.966   2.729  1.2018 -0.8500  2.2748
15255SOL    HW246982   6.432   1.836   2.692 -0.5409 -0.7143 -1.9020
15256SOL     OW46983   6.055   1.895   2.647 -0.4097  0.1196  0.2420
15256SOL    HW146984   6.113   1.953   2.598 -0.0014 -0.9198 -0.5377
15256SOL    HW246985   5.968   1.931   2.634 -0.4526 -0.6635 -2.1171
15257SOL     OW46986   6.889   2.895   2.636  0.0055 -0.3834 -0.2680
15257SOL    HW146987   6.821   2.957   2.607 -0.3448 -1.2666 -1.4176
15257SOL    HW246988   6.964   2.951   2.657 -0.8403  0.5549  0.3516
15258SOL     OW46989   5.797   1.936   1.767  0.2172  0.3476  0.6420
15258SOL    HW146990   5.707   1.906   1.776  0.6819 -0.7243  2.4193
15258SOL    HW246991   5.801   2.017   1.818  0.4745 -0.1829  1.4933
15259SOL     OW46992   6.817   1.669   2.120  0.7293  0.1936  0.2284
15259SOL    HW146993   6.844   1.613   2.193  1.5789  0.7797  0.3832
15259SOL    HW246994   6.883   1.739   2.118 -0.2788  1.1556 -0.0002
15260SOL     OW46995   6.865   2.271   2.919  0.1468 -0.2692  0.4254
15260SOL    HW146996   6.927   2.225   2.862 -0.9123 -0.7727 -0.3633
15260SOL    HW246997   6.828   2.202   2.975 -1.1458 -0.3539 -0.4819
15261SOL     OW46998   6.737   3.446   2.845  0.0280 -0.0242 -0.0583
15261SOL    HW146999   6.707   3.476   2.759  2.6383  0.1648 -0.9839
15261SOL    HW247000   6.745   3.527   2.896  1.4831  0.2622 -0.6892
15262SOL     OW47001   6.192   3.018   2.931 -0.1030  0.2910  0.5647
15262SOL    HW147002   6.129   3.069   2.879  0.6717  0.0677 -0.6177
15262SOL    HW247003   6.165   3.033   3.022 -1.8514  0.2140  0.0918
15263SOL     OW47004   6.659   3.827   2.402  0.0963 -0.1369 -0.0539
15263SOL    HW147005   6.574   3.866   2.380  0.6773  1.5909  0.5679
15263SOL    HW247006   6.672   3.851   2.494  1.4659  0.0568 -0.2874
15264SOL     OW47007   6.571   2.124   1.570 -0.4374  0.1231 -0.0199
15264SOL    HW147008   6.561   2.105   1.664 -1.0357  0.1433 -0.0761
15264SOL    HW247009   6.666   2.125   1.556 -0.3510 -0.3574  0.4870
15265SOL     OW47010   5.833   2.401   3.639  0.0264 -0.4633  0.0159
15265SOL    HW147011   5.782   2.359   3.569  1.1220  0.4529 -1.3741
15265SOL    HW247012   5.924   2.384   3.616  0.5667  2.8859 -0.8043
15266SOL     OW47013   6.558   2.002   2.945  0.2423 -0.1299 -0.5949
15266SOL    HW147014   6.606   1.971   2.868 -0.3162 -0.0997 -0.9658
15266SOL    HW247015   6.468   1.973   2.929  0.2349 -0.6287  0.3331
15267SOL     OW47016   6.214   1.985   1.945 -0.4115  0.2377 -0.6243
15267SOL    HW147017   6.266   1.985   1.865 -0.2499  1.6520 -0.5471
15267SOL    HW247018   6.274   2.013   2.014 -0.8005  0.0068 -0.1816
15268SOL     OW47019   6.817   1.687   2.606  0.1857 -0.0933  0.3670
15268SOL    HW147020   6.739   1.673   2.551  0.0100  0.4921  0.4635
15268SOL    HW247021   6.792   1.654   2.692 -0.3303  1.0291  0.6692
15269SOL     OW47022   6.876   3.065   2.929  0.7605 -0.3009  0.1207
15269SOL    HW147023   6.785   3.042   2.948  1.0850 -2.4848 -0.6318
15269SOL    HW247024   6.920   2.980   2.915  2.4469  0.7599 -1.5885
15270SOL     OW47025   7.444   2.394   3.054 -0.4983  0.5821 -0.2531
15270SOL    HW147026   7.462   2.475   3.006  2.0178 -0.2204 -0.7907
15270SOL    HW247027   7.438   2.421   3.145  2.6686  1.1974 -0.1138
15271SOL     OW47028   7.834   2.711   2.861  0.3099  0.1432  1.0591
15271SOL    HW147029   7.809   2.762   2.784 -2.1322  1.6255  2.6896
15271SOL    HW247030   7.871   2.630   2.826  1.2106  1.6197 -1.6318
15272SOL     OW47031   6.083   3.541   1.924  0.1357 -0.7276  0.4032
15272SOL    HW147032   6.023   3.571   1.856 -0.1398 -1.4746  0.3090
15272SOL    HW247033   6.067   3.447   1.931 -0.0444 -0.6264  1.6978
15273SOL     OW47034   7.090   3.130   2.635  0.0534 -0.1797 -0.0211
15273SOL    HW147035   7.176   3.126   2.678  0.0060 -0.5381  0.0432
15273SOL    HW247036   7.034   3.175   2.697  0.3068  0.4610 -0.2504
15274SOL     OW47037   6.927   2.265   1.808  0.1175  0.1665  0.0091
15274SOL    HW147038   6.991   2.221   1.864 -0.7077 -0.1454  0.7352
15274SOL    HW247039   6.910   2.202   1.738  1.2536  0.6122 -0.6793
15275SOL     OW47040   5.763   2.587   2.379 -0.4794 -0.4056  0.4790
15275SOL    HW147041   5.726   2.607   2.465 -1.3103 -2.3741  0.6078
15275SOL    HW247042   5.719   2.508   2.351 -0.9370  0.7094 -2.2346
15276SOL     OW47043   7.429   3.043   3.880 -0.3069  0.0358 -0.8522
15276SOL    HW147044   7.490   3.117   3.887  0.5450 -0.8074  1.8265
15276SOL    HW247045   7.351   3.072   3.927  0.2020 -0.8490  0.6137
15277SOL     OW47046   6.613   3.079   2.953 -0.1246  0.3413 -0.2601
15277SOL    HW147047   6.619   3.175   2.956  0.2603  0.3001  1.9373
15277SOL    HW247048   6.533   3.061   2.904 -0.2420  1.7806 -0.6485
15278SOL     OW47049   7.517   3.675   3.500  0.2422  0.3483 -0.8283
15278SOL    HW147050   7.517   3.686   3.405 -1.3832  5.2588 -0.5096
15278SOL    HW247051   7.585   3.735   3.531 -0.3166  0.0176  1.1670
15279SOL     OW47052   6.567   3.341   3.047  0.0361 -0.4125  0.2318
15279SOL    HW147053   6.616   3.404   2.993  0.9661 -1.6449 -0.4299
15279SOL    HW247054   6.550   3.387   3.129 -1.8250  1.7013 -1.2229
15280SOL     OW47055   7.351   3.072   3.546  0.3482  0.0211  0.2822
15280SOL    HW147056   7.420   3.082   3.613  0.5854  1.4717 -0.1492
15280SOL    HW247057   7.283   3.133   3.573  0.2454  0.2831 -0.5441
15281SOL     OW47058   6.513   1.555   3.444 -0.0230  0.1520 -0.3988
15281SOL    HW147059   6.431   1.556   3.395 -0.4069  0.3759  0.2341
15281SOL    HW247060   6.581   1.559   3.377 -0.5411  0.9225 -0.8971
15282SOL     OW47061   6.830   2.562   4.033  0.3474  0.0974 -0.1179
15282SOL    HW147062   6.792   2.495   3.975  0.2364 -0.3055  0.4153
15282SOL    HW247063   6.860   2.630   3.973 -0.0060 -0.1918 -0.6380
15283SOL     OW47064   6.540   3.113   2.328 -0.1760  0.4381  0.6217
15283SOL    HW147065   6.570   3.120   2.419 -0.5938  0.4342  0.7639
15283SOL    HW247066   6.558   3.022   2.304 -0.4245  0.3279  0.8362
15284SOL     OW47067   5.664   2.640   3.662 -0.3184  0.5003 -0.2662
15284SOL    HW147068   5.717   2.568   3.627 -2.6030 -0.2684 -2.4436
15284SOL    HW247069   5.593   2.597   3.708 -1.9126  1.2843 -1.8906
15285SOL     OW47070   6.795   1.810   2.970 -0.2641 -0.0589 -0.4604
15285SOL    HW147071   6.725   1.807   3.035 -0.6547 -1.2918 -0.9048
15285SOL    HW247072   6.875   1.824   3.021 -0.7255  0.4049  0.1410
15286SOL     OW47073   5.577   3.273   3.442  0.7020  0.7600 -0.6903
15286SOL    HW147074   5.574   3.367   3.461  1.5396  0.5546  0.6097
15286SOL    HW247075   5.617   3.234   3.520  3.0122 -0.3636 -2.3244
15287SOL     OW47076   5.976   3.124   2.180  0.4035 -0.3356  0.2879
15287SOL    HW147077   5.887   3.134   2.147  0.7761  1.5157 -0.2529
15287SOL    HW247078   5.967   3.124   2.275 -0.1427  0.2719  0.2385
15288SOL     OW47079   6.244   1.956   2.850 -0.0330  0.0705 -0.0395
15288SOL    HW147080   6.203   1.964   2.936  0.0860  1.9578 -0.1092
15288SOL    HW247081   6.171   1.942   2.790 -0.2631  0.2337  0.1994
15289SOL     OW47082   6.379   2.913   2.619 -0.1171 -0.1232  0.0763
15289SOL    HW147083   6.436   2.990   2.613 -0.3783  0.2782  2.1300
15289SOL    HW247084   6.439   2.839   2.624  0.1752  0.1022 -0.0789
15290SOL     OW47085   7.200   3.183   3.005 -0.2208 -0.3228  0.3955
15290SOL    HW147086   7.181   3.100   3.047  0.1493 -1.1246 -0.9596
15290SOL    HW247087   7.114   3.223   2.990 -0.4270 -0.6843  0.6063
15291SOL     OW47088   7.244   2.343   2.215 -0.1210  0.2188  0.3937
15291SOL    HW147089   7.311   2.304   2.159 -0.3001  0.6198 -0.1174
15291SOL    HW247090   7.215   2.272   2.272  0.5167 -0.0343  0.4046
15292SOL     OW47091   5.875   2.896   3.163  0.6340  0.1168  0.2376
15292SOL    HW147092   5.855   2.844   3.086  1.2256  0.7181 -0.3358
15292SOL    HW247093   5.819   2.859   3.232 -0.1383 -0.2231 -0.5456
15293SOL     OW47094   6.281   2.835   3.688 -0.2468  0.0262  0.7806
15293SOL    HW147095   6.308   2.851   3.598  1.0208 -2.6235  0.5833
15293SOL    HW247096   6.190   2.866   3.692  0.3417  2.1528 -0.7492
15294SOL     OW47097   7.688   2.495   3.665  0.0418  0.5630  0.6768
15294SOL    HW147098   7.718   2.496   3.573  0.6021 -1.5321  0.7966
15294SOL    HW247099   7.610   2.550   3.665  0.0591  0.6529 -1.0483
15295SOL     OW47100   6.874   2.450   3.516  0.1784  0.5244  0.6495
15295SOL    HW147101   6.864   2.427   3.423  0.3995 -0.5596  0.8740
15295SOL    HW247102   6.946   2.513   3.518  0.8251 -0.1863  0.1728
15296SOL     OW47103   6.035   1.901   3.405  0.0152  0.1374 -0.6450
15296SOL    HW147104   5.973   1.835   3.436  0.3307  0.6374  1.1584
15296SOL    HW247105   5.984   1.982   3.401  0.3114  0.3696  0.0100
15297SOL     OW47106   5.978   2.538   3.102  0.0529 -0.4670 -0.0981
15297SOL    HW147107   6.014   2.539   3.013  0.4720 -3.0138 -0.0388
15297SOL    HW247108   6.024   2.609   3.146  0.8145  0.0105 -1.5679
15298SOL     OW47109   6.622   2.701   2.939 -0.4281 -0.4325 -0.0460
15298SOL    HW147110   6.588   2.616   2.968 -1.0230  0.0015  0.5395
15298SOL    HW247111   6.550   2.762   2.952  0.5985  0.5454  1.3771
15299SOL     OW47112   6.725   2.302   1.991 -1.2153 -0.0411  0.1228
15299SOL    HW147113   6.813   2.317   1.955 -1.3683  1.9876  0.4838
15299SOL    HW247114   6.736   2.228   2.050 -0.0840 -0.7999 -0.9766
15300SOL     OW47115   6.115   1.958   3.106  0.4558  0.1573  0.3925
15300SOL    HW147116   6.106   2.053   3.096 -1.1789 -0.1819 -2.4418
15300SOL    HW247117   6.062   1.938   3.184 -0.3960  1.4390  0.1889
15301SOL     OW47118   5.409   2.989   3.374 -0.2777  0.2882 -0.2392
15301SOL    HW147119   5.320   3.022   3.383  0.3345  1.7702  0.6465
15301SOL    HW247120   5.459   3.034   3.442  0.6138 -2.5859  1.1697
15302SOL     OW47121   5.563   2.852   2.431  0.2825 -0.2015 -0.2387
15302SOL    HW147122   5.478   2.816   2.406  0.5324 -1.4072  0.5719
15302SOL    HW247123   5.590   2.799   2.506  1.6417  0.3164 -0.3413
15303SOL     OW47124   7.347   2.508   3.877  1.2058  0.4128 -0.2653
15303SOL    HW147125   7.261   2.479   3.909  1.8576 -1.1780  0.1029
15303SOL    HW247126   7.353   2.600   3.905 -0.3437  0.5360 -0.2560
15304SOL     OW47127   6.185   2.040   2.441  0.0035 -0.5324  0.7550
15304SOL    HW147128   6.111   2.015   2.386  0.2878  2.1175 -1.0422
15304SOL    HW247129   6.263   2.011   2.392  0.2152 -0.3522  0.9802
15305SOL     OW47130   7.079   2.181   2.012  0.2656 -0.0490 -0.4493
15305SOL    HW147131   7.155   2.147   1.965  0.8824  0.5643  0.0746
15305SOL    HW247132   7.116   2.224   2.089 -0.5760  0.6920 -0.4418
15306SOL     OW47133   6.250   2.389   2.892 -0.0677  0.0405  0.2423
15306SOL    HW147134   6.259   2.349   2.805 -2.5744  0.9428 -0.5283
15306SOL    HW247135   6.170   2.442   2.885 -1.5006 -1.4205  3.6917
15307SOL     OW47136   6.782   3.222   3.173 -0.4145  0.1064 -0.4929
15307SOL    HW147137   6.741   3.247   3.091 -1.9817 -1.3115 -0.2012
15307SOL    HW247138   6.850   3.159   3.148 -1.2530 -0.7436 -0.6986
15308SOL     OW47139   7.717   3.434   3.162  0.1735  0.4315 -0.3077
15308SOL    HW147140   7.748   3.387   3.239 -1.4360  1.1542  0.8162
15308SOL    HW247141   7.797   3.462   3.117  1.1997 -2.5038 -0.5383
15309SOL     OW47142   6.007   2.909   3.681 -0.8808  0.4292 -0.0730
15309SOL    HW147143   5.951   2.980   3.649 -2.5825  0.1708  2.0629
15309SOL    HW247144   6.002   2.916   3.776  0.8953 -1.0898  0.1922
15310SOL     OW47145   7.201   2.421   1.698  0.2264  0.5096 -0.4453
15310SOL    HW147146   7.144   2.496   1.685 -1.6010 -0.7224  0.0854
15310SOL    HW247147   7.259   2.447   1.770 -0.5276  1.3318 -0.1211
15311SOL     OW47148   6.600   2.463   1.802 -0.4292 -0.0672  0.2821
15311SOL    HW147149   6.638   2.438   1.887  1.3558 -0.6380 -0.6415
15311SOL    HW247150   6.661   2.526   1.766 -1.2837  0.3223 -0.5162
15312SOL     OW47151   6.564   2.741   2.630 -0.5059  0.1011 -0.0163
15312SOL    HW147152   6.593   2.717   2.718  0.5375  1.8435  0.1576
15312SOL    HW247153   6.635   2.712   2.572 -0.5681  0.1783 -0.1330
15313SOL     OW47154   6.047   2.595   2.840 -0.3271  0.0157 -0.2889
15313SOL    HW147155   5.955   2.616   2.855 -0.6905 -1.1565 -0.7928
15313SOL    HW247156   6.079   2.664   2.782 -0.6464  0.9087  0.5718
15314SOL     OW47157   6.090   2.222   3.049  0.1604 -0.1804 -0.2621
15314SOL    HW147158   6.032   2.295   3.071  1.4821  0.9612 -0.3579
15314SOL    HW247159   6.153   2.260   2.987 -0.2551 -1.9283 -1.8344
15315SOL     OW47160   6.813   1.555   2.855  0.5381 -0.4152 -0.1851
15315SOL    HW147161   6.806   1.642   2.894 -0.0441 -0.5541  0.0188
15315SOL    HW247162   6.736   1.508   2.885  1.0232 -1.1199 -0.0105
15316SOL     OW47163   6.645   2.024   3.619  0.1528 -0.3671  0.2991
15316SOL    HW147164   6.717   1.970   3.651 -0.1461 -0.2030  1.2786
15316SOL    HW247165   6.576   1.962   3.597  0.8049 -0.5785 -1.2805
15317SOL     OW47166   5.703   3.007   2.152 -0.1676  0.3952  0.1610
15317SOL    HW147167   5.651   3.037   2.226 -1.0975  0.9146 -0.6927
15317SOL    HW247168   5.692   2.911   2.153 -0.6176  0.4469  0.3629
15318SOL     OW47169   5.593   3.857   2.786 -1.1475 -0.1649  0.3883
15318SOL    HW147170   5.528   3.802   2.830 -0.4464 -1.9119 -0.6482
15318SOL    HW247171   5.677   3.823   2.816 -0.6477 -1.1747 -1.9320
15319SOL     OW47172   6.168   3.339   3.068  0.0586  0.1759 -0.3752
15319SOL    HW147173   6.226   3.358   3.142  0.4453 -1.3600 -0.2526
15319SOL    HW247174   6.109   3.270   3.100 -0.6123  0.3976 -1.0985
15320SOL     OW47175   6.874   2.755   3.042 -0.1559  0.1083 -0.4657
15320SOL    HW147176   6.782   2.738   3.020  0.2299 -1.0994 -1.2305
15320SOL    HW247177   6.923   2.702   2.980  1.0583 -0.2832  0.7972
15321SOL     OW47178   5.463   2.917   3.128 -0.1332  0.4738  0.7320
15321SOL    HW147179   5.442   2.945   3.216  0.7869 -1.3866  1.6074
15321SOL    HW247180   5.531   2.851   3.139 -0.5989 -0.4495 -1.3079
15322SOL     OW47181   5.971   2.641   3.503  0.9639  0.0044 -0.8654
15322SOL    HW147182   5.977   2.719   3.558  0.0826 -1.1198  0.9600
15322SOL    HW247183   6.034   2.579   3.541 -0.8465 -1.3971  0.0273
15323SOL     OW47184   7.127   2.419   3.217 -0.7125 -0.1914 -0.0703
15323SOL    HW147185   7.132   2.435   3.123 -0.5251 -0.9675 -0.2011
15323SOL    HW247186   7.038   2.385   3.231 -0.1349 -1.8836 -0.2785
15324SOL     OW47187   6.545   2.051   2.461 -0.5576  0.5427 -0.5008
15324SOL    HW147188   6.527   2.025   2.551  1.2512  2.3015  0.4603
15324SOL    HW247189   6.625   2.005   2.437 -2.5688 -2.2828 -2.4159
15325SOL     OW47190   7.367   2.330   2.690  0.3994  0.4356  0.0407
15325SOL    HW147191   7.373   2.268   2.762 -3.0376 -0.0963  0.0277
15325SOL    HW247192   7.373   2.416   2.732  2.4518  0.1938  0.3750
15326SOL     OW47193   5.946   3.577   3.605  0.0566  0.4425 -0.2573
15326SOL    HW147194   5.921   3.502   3.550  1.4910 -0.1387 -0.1588
15326SOL    HW247195   5.882   3.576   3.676 -0.5319 -0.0953 -0.7827
15327SOL     OW47196   6.619   2.222   3.122  0.0725  0.7803  0.4654
15327SOL    HW147197   6.582   2.157   3.062  0.2423  0.8430  0.2896
15327SOL    HW247198   6.642   2.172   3.201 -0.6419  0.7929  0.6838
15328SOL     OW47199   6.830   3.688   2.993 -0.1036 -0.0479  0.1017
15328SOL    HW147200   6.833   3.695   3.088  0.6610 -1.0854  0.1660
15328SOL    HW247201   6.743   3.722   2.970 -0.9836 -1.3447  1.3270
15329SOL     OW47202   6.313   2.892   2.249  0.0630  0.1052 -0.3629
15329SOL    HW147203   6.281   2.807   2.277  1.4251 -0.5017 -0.5441
15329SOL    HW247204   6.314   2.945   2.329  0.6367 -0.5283  0.0542
15330SOL     OW47205   5.748   2.742   3.376 -0.9468 -0.4881  0.2028
15330SOL    HW147206   5.827   2.698   3.408 -1.5079 -2.0581 -0.4633
15330SOL    HW247207   5.683   2.728   3.445 -0.9808 -0.2237  0.2258
15331SOL     OW47208   7.137   3.012   3.186 -0.0994  0.3878  0.5292
15331SOL    HW147209   7.084   2.935   3.206  1.3661 -0.4691  1.3058
15331SOL    HW247210   7.225   2.989   3.217  0.2512  2.6132  1.3483
15332SOL     OW47211   6.841   2.469   2.306  0.0386  0.7285 -0.0360
15332SOL    HW147212   6.876   2.542   2.256  3.1618 -0.3008  0.3904
15332SOL    HW247213   6.828   2.399   2.242  2.9919 -0.2286  0.2323
15333SOL     OW47214   7.645   3.692   2.809  0.6639  0.5508 -0.1226
15333SOL    HW147215   7.699   3.613   2.803  0.1972  0.1390  0.8683
15333SOL    HW247216   7.696   3.752   2.863 -0.5203 -0.4666  2.2894
15334SOL     OW47217   7.005   3.738   2.792  0.0638  0.1745  0.1995
15334SOL    HW147218   6.993   3.832   2.784  2.4252  0.4882 -0.4390
15334SOL    HW247219   6.974   3.717   2.880 -0.4038  1.5730  0.3836
15335SOL     OW47220   5.645   2.658   3.085 -0.4393  0.3317 -0.0531
15335SOL    HW147221   5.649   2.577   3.035  1.9146  0.5101 -0.2578
15335SOL    HW247222   5.674   2.635   3.173  2.0265  1.1731 -0.5529
15336SOL     OW47223   6.185   3.681   3.593 -0.0462  0.0537 -0.1470
15336SOL    HW147224   6.176   3.685   3.498 -1.1940  0.0100 -0.0579
15336SOL    HW247225   6.099   3.652   3.624  0.7693 -1.4551  0.8146
15337SOL     OW47226   7.457   2.229   2.067  0.9439  0.0925  0.4112
15337SOL    HW147227   7.509   2.295   2.021  0.6657 -0.6568 -1.0417
15337SOL    HW247228   7.518   2.157   2.082  0.1853 -1.2445 -2.2636
15338SOL     OW47229   6.766   3.147   2.562 -0.3966 -0.1281 -0.7644
15338SOL    HW147230   6.710   3.186   2.629  0.8461 -0.2433  0.3723
15338SOL    HW247231   6.813   3.221   2.524  0.0288 -0.2381 -0.4460
15339SOL     OW47232   5.553   3.536   3.568 -0.1249 -0.1856  0.0506
15339SOL    HW147233   5.498   3.517   3.644 -0.1011 -0.5554 -0.0216
15339SOL    HW247234   5.631   3.577   3.605 -0.5884  0.6483  0.1230
15340SOL     OW47235   6.811   2.501   2.721  0.1547 -0.3900  0.3468
15340SOL    HW147236   6.798   2.462   2.807  0.0484 -2.0459 -0.3830
15340SOL    HW247237   6.750   2.455   2.664  0.9557 -0.0497 -0.8203
15341SOL     OW47238   6.118   2.745   3.217  0.2826  0.5189  0.5297
15341SOL    HW147239   6.058   2.816   3.240 -0.2312 -0.6410  3.1417
15341SOL    HW247240   6.193   2.758   3.275  0.8263 -0.2517  0.0189
15342SOL     OW47241   6.664   3.564   2.309  0.1431  0.4444 -0.1701
15342SOL    HW147242   6.595   3.558   2.242  2.4692  1.0232 -2.8125
15342SOL    HW247243   6.657   3.653   2.343 -1.1779  0.0906  0.5658
15343SOL     OW47244   7.144   3.297   3.295 -0.2253 -0.6765 -0.2968
15343SOL    HW147245   7.236   3.310   3.273 -0.0924  0.2749  0.7689
15343SOL    HW247246   7.130   3.203   3.283  1.3892 -1.1714  1.2898
15344SOL     OW47247   7.309   1.508   2.585 -0.4678 -0.4953 -0.3784
15344SOL    HW147248   7.226   1.477   2.550 -1.5293 -0.3706  1.8648
15344SOL    HW247249   7.286   1.579   2.645  1.3933  0.4878 -0.7402
15345SOL     OW47250   5.952   2.401   2.617 -0.3514  0.0733 -0.7025
15345SOL    HW147251   6.014   2.328   2.611  0.6487  1.0276 -3.4496
15345SOL    HW247252   5.961   2.432   2.707 -1.1828 -3.3906  0.7567
15346SOL     OW47253   6.961   3.483   2.059  0.8774 -0.0571  0.0372
15346SOL    HW147254   6.926   3.552   2.003  2.1477 -0.9628 -1.9789
15346SOL    HW247255   6.895   3.413   2.056  0.1196  0.5760  1.1687
15347SOL     OW47256   6.615   2.885   3.459 -0.3682  0.4183 -0.4298
15347SOL    HW147257   6.617   2.818   3.391 -1.2003  1.0191 -1.0774
15347SOL    HW247258   6.623   2.968   3.411  1.5173  0.7815  0.4239
15348SOL     OW47259   6.772   2.699   2.470 -0.1873  0.1696  0.0291
15348SOL    HW147260   6.819   2.623   2.435 -0.3653  0.1451 -0.1634
15348SOL    HW247261   6.836   2.744   2.526 -0.7248 -1.3627  1.9965
15349SOL     OW47262   6.982   3.782   1.916  0.1344  0.0606 -0.0926
15349SOL    HW147263   6.930   3.740   1.848 -1.8578  2.7585 -0.4081
15349SOL    HW247264   6.919   3.834   1.966  2.0936  1.0366  1.5105
15350SOL     OW47265   5.713   3.191   3.698 -0.5440  0.7439  0.3536
15350SOL    HW147266   5.679   3.103   3.711 -0.4808  0.7909  0.8623
15350SOL    HW247267   5.807   3.178   3.680 -0.8634  0.5850 -1.4473
15351SOL     OW47268   7.202   2.864   3.709  0.1833 -0.6525  0.6472
15351SOL    HW147269   7.258   2.925   3.661  0.4368 -2.5100 -1.5846
15351SOL    HW247270   7.251   2.844   3.789  0.4440  1.3664  1.0449
15352SOL     OW47271   5.947   3.062   2.439  0.4448 -0.1146 -0.0929
15352SOL    HW147272   5.874   3.048   2.499  0.6254 -0.7902 -0.0224
15352SOL    HW247273   5.983   2.974   2.424  2.0994  0.3565  0.9665
15353SOL     OW47274   6.332   1.662   2.670 -0.0986 -0.3280 -0.1066
15353SOL    HW147275   6.396   1.645   2.740  0.2212 -2.5116 -0.8660
15353SOL    HW247276   6.247   1.654   2.713  0.0885  0.6498  0.4888
15354SOL     OW47277   6.418   3.387   2.493  0.7643  0.5286  0.2451
15354SOL    HW147278   6.390   3.475   2.469 -0.2716  0.9138  2.6045
15354SOL    HW247279   6.341   3.347   2.533  1.4490 -1.1837 -0.0677
15355SOL     OW47280   7.947   2.291   3.221 -0.1505  0.3369  0.1346
15355SOL    HW147281   7.880   2.275   3.155 -0.2869 -0.6811  0.4988
15355SOL    HW247282   7.905   2.345   3.287 -1.2181 -1.7194  1.2496
15356SOL     OW47283   5.729   2.901   1.852 -0.2515 -0.7667 -0.2916
15356SOL    HW147284   5.729   2.898   1.948  0.7159  0.7286 -0.2016
15356SOL    HW247285   5.762   2.988   1.831 -2.3659 -0.2975 -1.9928
15357SOL     OW47286   5.661   2.905   3.752 -0.2585 -0.0056  0.3842
15357SOL    HW147287   5.675   2.826   3.700 -0.3180 -0.5510  1.1631
15357SOL    HW247288   5.715   2.891   3.830  1.7784  1.8898 -0.5910
15358SOL     OW47289   6.383   1.665   2.949  0.3084 -0.1281  0.0925
15358SOL    HW147290   6.291   1.679   2.928  0.3741 -1.1395 -1.0036
15358SOL    HW247291   6.383   1.587   3.004  0.4226  0.6230  1.1895
15359SOL     OW47292   5.923   1.908   1.516 -0.5114 -0.5551  0.2551
15359SOL    HW147293   5.889   1.918   1.605 -0.6166 -0.5159  0.2110
15359SOL    HW247294   5.893   1.986   1.470  2.5358  1.2621  1.1020
15360SOL     OW47295   6.841   2.397   3.233 -0.0308  0.1671 -0.3582
15360SOL    HW147296   6.857   2.417   3.140 -0.8778  1.2178 -0.2923
15360SOL    HW247297   6.746   2.389   3.240 -0.0020  0.4535  0.4864
15361SOL     OW47298   5.328   2.119   2.258  0.2804  0.5416 -0.0526
15361SOL    HW147299   5.267   2.047   2.241  1.5693 -0.4049 -0.8886
15361SOL    HW247300   5.392   2.114   2.187  1.3835  1.4269  0.8331
15362SOL     OW47301   7.044   2.467   2.560  0.6027  0.2301  0.0708
15362SOL    HW147302   7.024   2.388   2.510  0.3175 -0.2058  0.8752
15362SOL    HW247303   6.968   2.482   2.615  0.7064  1.0016  0.0263
15363SOL     OW47304   6.510   2.683   3.317 -0.3544  0.7148 -0.5117
15363SOL    HW147305   6.518   2.647   3.229 -1.2724  0.4523 -0.4991
15363SOL    HW247306   6.549   2.617   3.374 -2.3101 -0.4791 -0.4562
15364SOL     OW47307   7.169   3.532   2.775 -0.0596  0.5857 -0.0159
15364SOL    HW147308   7.106   3.464   2.798  1.6037 -0.5715  1.3821
15364SOL    HW247309   7.116   3.610   2.761 -1.7104  0.0936  2.7488
15365SOL     OW47310   6.096   2.378   3.573 -0.3035 -0.1149  0.5067
15365SOL    HW147311   6.138   2.378   3.487  0.4734  2.6016  0.7802
15365SOL    HW247312   6.168   2.385   3.636 -0.9661  0.6489  1.2166
15366SOL     OW47313   7.171   3.204   3.705  0.1569  0.6829 -0.0483
15366SOL    HW147314   7.155   3.184   3.797 -2.0581 -2.2622 -0.9215
15366SOL    HW247315   7.087   3.237   3.672  0.4229  0.1018 -1.3839
15367SOL     OW47316   5.446   3.928   3.227 -0.0104 -0.0216 -0.1223
15367SOL    HW147317   5.361   3.958   3.195  0.5653  2.3677  0.3774
15367SOL    HW247318   5.439   3.833   3.228 -2.6222  0.0937 -0.2511
15368SOL     OW47319   7.030   2.739   3.264  0.1065 -0.3123 -0.3799
15368SOL    HW147320   7.054   2.647   3.272  0.1757 -0.2179  0.5524
15368SOL    HW247321   6.985   2.744   3.180  0.5077 -1.1056 -0.6571
15369SOL     OW47322   6.947   1.948   2.135  0.4323  0.2707  0.3007
15369SOL    HW147323   6.972   2.015   2.198 -0.1093  0.1049  0.7047
15369SOL    HW247324   7.011   1.955   2.065  0.7615  0.7760  0.6478
15370SOL     OW47325   6.529   2.453   3.015 -0.1542  0.2378  0.0605
15370SOL    HW147326   6.563   2.379   3.065  0.9225  2.0974  2.2346
15370SOL    HW247327   6.453   2.417   2.968  1.0410 -2.5018  0.0122
15371SOL     OW47328   7.644   2.199   3.071  0.1242 -0.4114  0.0628
15371SOL    HW147329   7.588   2.272   3.043 -0.6183  0.2497  2.8878
15371SOL    HW247330   7.610   2.123   3.023 -3.2656 -0.0123  1.5168
15372SOL     OW47331   7.297   2.683   3.374 -0.0861  0.3160 -0.0425
15372SOL    HW147332   7.313   2.652   3.285 -1.3388 -0.4805 -0.0155
15372SOL    HW247333   7.279   2.777   3.363 -1.5080 -0.0193 -0.8164
15373SOL     OW47334   6.363   3.278   2.227 -0.7153  0.3698  0.0536
15373SOL    HW147335   6.319   3.313   2.304 -0.9949 -1.1299  0.6038
15373SOL    HW247336   6.417   3.206   2.260  1.3854  1.4916 -0.7649
15374SOL     OW47337   5.722   4.332   2.299  0.0001  0.0219 -0.3858
15374SOL    HW147338   5.687   4.249   2.332 -2.5547  1.1373 -0.0927
15374SOL    HW247339   5.713   4.326   2.204 -1.5779  0.4748 -0.2977
15375SOL     OW47340   6.144   2.807   2.726  0.2427  0.0613  0.0723
15375SOL    HW147341   6.223   2.831   2.678  1.8665 -1.2614  1.9400
15375SOL    HW247342   6.148   2.858   2.807  0.2188 -1.3719  1.0245
15376SOL     OW47343   6.551   2.660   2.164  0.1455 -0.0009  0.4064
15376SOL    HW147344   6.543   2.739   2.218 -0.6215 -0.8840  1.6188
15376SOL    HW247345   6.595   2.690   2.085 -0.3960  1.7037  0.7182
15377SOL     OW47346   7.392   3.370   2.711  0.2643  0.4671  0.1835
15377SOL    HW147347   7.307   3.413   2.703 -0.5389 -1.0419  0.2159
15377SOL    HW247348   7.416   3.381   2.803 -0.1904  0.3718  0.3137
15378SOL     OW47349   5.768   3.426   3.836  0.2900 -0.0332  0.8568
15378SOL    HW147350   5.737   3.344   3.798  1.2496 -0.0673  0.1003
15378SOL    HW247351   5.725   3.432   3.921 -1.7407 -0.0684 -0.1234
15379SOL     OW47352   5.791   3.326   2.593 -0.1305  0.2088 -0.2125
15379SOL    HW147353   5.717   3.386   2.603  0.5899  0.7706  2.5792
15379SOL    HW247354   5.792   3.275   2.674  2.8751  0.6878  0.1820
15380SOL     OW47355   6.385   3.099   3.785  0.4093  0.1491  0.1602
15380SOL    HW147356   6.329   3.173   3.808  2.0531  1.4772  0.1139
15380SOL    HW247357   6.349   3.026   3.833 -0.2323  1.3880  1.6485
15381SOL     OW47358   7.535   2.450   3.316 -0.2684 -0.2346  0.2736
15381SOL    HW147359   7.618   2.405   3.332  0.3696  1.0636  0.7983
15381SOL    HW247360   7.561   2.539   3.291 -1.5048  0.1591  0.3295
15382SOL     OW47361   6.286   2.214   2.137  0.2292  0.1122 -0.1922
15382SOL    HW147362   6.230   2.278   2.181 -0.9301 -0.1353 -1.2776
15382SOL    HW247363   6.295   2.246   2.048  0.9932 -0.3959 -0.3100
15383SOL     OW47364   6.976   3.297   2.840 -0.0032 -0.1864  0.0326
15383SOL    HW147365   6.939   3.218   2.879  0.4762  0.0689  1.0248
15383SOL    HW247366   6.900   3.354   2.827 -0.0300  0.2585  1.8790
15384SOL     OW47367   5.861   2.335   3.229  0.1551  0.0091  0.6839
15384SOL    HW147368   5.894   2.416   3.191  1.4436 -0.3253  1.0395
15384SOL    HW247369   5.796   2.304   3.166 -0.6906  1.5320  0.7684
15385SOL     OW47370   6.356   3.622   2.369 -0.5108 -0.8226  0.0388
15385SOL    HW147371   6.302   3.641   2.293 -0.1965 -1.0150 -0.2333
15385SOL    HW247372   6.348   3.700   2.424 -0.5799 -0.6037 -0.2782
15386SOL     OW47373   7.082   2.168   2.788 -0.1228  0.3634 -0.2278
15386SOL    HW147374   7.151   2.214   2.836 -0.4594  1.2134 -0.5370
15386SOL    HW247375   7.126   2.134   2.711 -0.2827  2.1210 -1.1650
15387SOL     OW47376   6.449   1.130   3.003 -0.6033  0.0334  0.1345
15387SOL    HW147377   6.431   1.071   2.931  0.8151 -0.2650 -0.0072
15387SOL    HW247378   6.377   1.192   3.002 -0.3791  0.3316 -1.8546
15388SOL     OW47379   6.506   3.170   2.643 -0.0361  0.0320  0.9783
15388SOL    HW147380   6.438   3.188   2.708 -0.2606  1.3225  0.4141
15388SOL    HW247381   6.526   3.255   2.605  0.7052 -0.5813 -0.0524
15389SOL     OW47382   6.476   3.566   3.212  0.4391  0.2660 -0.3252
15389SOL    HW147383   6.452   3.640   3.157 -1.6256  0.5861  0.8890
15389SOL    HW247384   6.527   3.604   3.284 -2.4158  0.9867  1.4745
15390SOL     OW47385   6.784   1.849   1.879  0.2110 -0.0922 -0.6490
15390SOL    HW147386   6.833   1.874   1.957 -0.2349  0.6143 -0.5858
15390SOL    HW247387   6.692   1.848   1.907  0.1740 -1.4530 -0.7477
15391SOL     OW47388   7.007   2.117   2.362 -0.3470  0.1391 -0.3004
15391SOL    HW147389   7.086   2.130   2.414 -0.0222 -0.2096 -0.7010
15391SOL    HW247390   6.936   2.140   2.421 -0.0049 -0.6671  0.4546
15392SOL     OW47391   6.726   1.890   2.365 -0.0853  0.0600 -0.1863
15392SOL    HW147392   6.809   1.863   2.405  0.1156  0.9621  0.0306
15392SOL    HW247393   6.674   1.809   2.360  1.0373 -0.6482 -0.9040
15393SOL     OW47394   6.195   2.472   2.237 -0.0388  0.0151  0.1087
15393SOL    HW147395   6.200   2.509   2.326 -1.0786 -0.7336  0.5023
15393SOL    HW247396   6.110   2.501   2.204 -0.9463 -2.0370  0.4712
15394SOL     OW47397   6.365   3.857   2.509  0.4090 -0.3083 -0.0366
15394SOL    HW147398   6.335   3.890   2.593 -1.2482 -0.8471 -0.3736
15394SOL    HW247399   6.301   3.890   2.446  0.8487 -1.0180 -0.8795
15395SOL     OW47400   5.589   2.141   3.411 -0.7890 -0.0269 -0.0068
15395SOL    HW147401   5.588   2.190   3.493 -1.4159 -0.4093  0.2286
15395SOL    HW247402   5.517   2.077   3.421 -0.4374 -0.5226 -0.5768
15396SOL     OW47403   5.418   2.056   4.475  0.6227 -0.5257 -0.2043
15396SOL    HW147404   5.402   2.038   4.568 -2.1691 -0.5724 -0.6056
15396SOL    HW247405   5.429   2.151   4.470  2.3606 -0.6651  0.3162
15397SOL     OW47406   5.440   2.334   4.504  0.8016 -0.1488  1.0400
15397SOL    HW147407   5.508   2.356   4.440  1.2702 -0.2798  1.4865
15397SOL    HW247408   5.357   2.352   4.459  0.9752 -3.2104 -0.7791
15398SOL     OW47409   6.005   3.667   4.226 -0.0350 -0.0477  0.3835
15398SOL    HW147410   6.021   3.597   4.290  0.5272  0.2238  0.5528
15398SOL    HW247411   5.942   3.630   4.165 -0.4123 -0.3903  0.9711
15399SOL     OW47412   7.376   3.270   4.199  0.6906  0.5226  0.0818
15399SOL    HW147413   7.357   3.180   4.227  0.4810  0.2884 -0.7755
15399SOL    HW247414   7.316   3.324   4.250 -0.5924 -0.0045 -0.8151
15400SOL     OW47415   6.689   2.604   4.619 -0.0094 -0.4567 -0.2382
15400SOL    HW147416   6.667   2.564   4.703 -0.3011 -0.1809 -0.1826
15400SOL    HW247417   6.643   2.688   4.619 -0.1925 -0.5534 -0.7667
15401SOL     OW47418   7.702   2.068   3.912 -0.0150 -0.1457  0.0144
15401SOL    HW147419   7.663   2.120   3.841  0.3385 -0.1495 -0.1858
15401SOL    HW247420   7.787   2.041   3.878  1.0588  1.5744  1.1946
15402SOL     OW47421   5.848   2.630   5.003 -0.5645 -0.4435  0.8370
15402SOL    HW147422   5.789   2.558   5.025  0.3030 -0.8531  1.8887
15402SOL    HW247423   5.814   2.704   5.054  0.5460 -1.0105  2.5025
15403SOL     OW47424   6.337   2.745   6.044  0.4922  0.1336  0.2077
15403SOL    HW147425   6.315   2.653   6.034 -1.4826  0.4209  1.3295
15403SOL    HW247426   6.433   2.746   6.048  0.5538 -1.9010  0.5092
15404SOL     OW47427   6.408   3.010   4.243 -0.2311  0.2803  0.3042
15404SOL    HW147428   6.405   3.106   4.251  1.3744  0.2977  1.0546
15404SOL    HW247429   6.468   2.994   4.171 -1.5821 -0.1770 -0.7639
15405SOL     OW47430   5.955   2.953   5.886 -0.3749 -0.0378  0.2727
15405SOL    HW147431   5.896   2.994   5.948 -0.8324 -0.7384  0.3196
15405SOL    HW247432   6.040   2.952   5.930  0.3702  3.4056 -0.8322
15406SOL     OW47433   6.283   2.952   4.471  0.5926  0.1905 -0.6973
15406SOL    HW147434   6.308   2.976   4.382  0.0942  0.3191 -0.8067
15406SOL    HW247435   6.187   2.949   4.469  0.6064 -0.7889 -0.4188
15407SOL     OW47436   6.513   3.291   5.388 -0.1634  0.6653 -0.0735
15407SOL    HW147437   6.596   3.274   5.344  0.3604  0.9339  0.7734
15407SOL    HW247438   6.538   3.327   5.474 -1.1184  4.1402 -1.0706
15408SOL     OW47439   6.076   2.335   5.539  0.3808  0.2383 -0.5015
15408SOL    HW147440   6.009   2.279   5.579  1.0398  1.2251  2.2062
15408SOL    HW247441   6.031   2.417   5.520  0.7163  0.8488  1.1796
15409SOL     OW47442   5.739   3.693   3.754  0.0572 -1.1915 -0.0544
15409SOL    HW147443   5.734   3.606   3.794 -0.9137 -1.0804  0.0828
15409SOL    HW247444   5.660   3.738   3.784  0.5388 -0.2630 -0.1404
15410SOL     OW47445   6.802   3.094   5.528 -0.0950  0.2457  0.6618
15410SOL    HW147446   6.876   3.034   5.520  1.9904  2.6635  0.3760
15410SOL    HW247447   6.748   3.057   5.598  1.8368 -1.1804  1.4887
15411SOL     OW47448   6.186   3.548   4.435 -0.4045 -0.2595 -0.5268
15411SOL    HW147449   6.251   3.535   4.365 -0.9729 -0.1527 -1.0878
15411SOL    HW247450   6.212   3.630   4.477  0.5607 -0.8553  0.0890
15412SOL     OW47451   6.381   2.540   4.256  0.0747  0.0838  0.0681
15412SOL    HW147452   6.386   2.449   4.227  0.8428 -0.3363  1.4353
15412SOL    HW247453   6.328   2.537   4.336 -0.5797  0.9556 -0.3227
15413SOL     OW47454   6.238   3.050   4.746  0.2566  0.3588 -0.1873
15413SOL    HW147455   6.226   3.016   4.657 -0.5318 -0.4193  0.1990
15413SOL    HW247456   6.268   3.140   4.733  0.3383  0.1969 -1.2384
15414SOL     OW47457   6.392   2.460   3.653 -0.2188 -0.0054 -0.1248
15414SOL    HW147458   6.426   2.439   3.566  1.3218 -0.6238  0.5836
15414SOL    HW247459   6.463   2.509   3.695 -1.5935  1.7960  0.2284
15415SOL     OW47460   7.137   1.989   4.989 -0.0415  1.0197 -0.1040
15415SOL    HW147461   7.117   2.079   4.967 -0.7803  0.2136 -3.1462
15415SOL    HW247462   7.059   1.958   5.036 -0.5515  1.4623 -0.6481
15416SOL     OW47463   5.719   2.224   4.980 -0.6092  0.2322 -0.3302
15416SOL    HW147464   5.687   2.135   4.995  1.9831 -1.0824 -1.8926
15416SOL    HW247465   5.679   2.251   4.898 -1.4309  0.5690  0.1665
15417SOL     OW47466   7.728   3.817   4.340  0.4875 -0.5734 -0.3798
15417SOL    HW147467   7.694   3.873   4.410  2.1721 -0.5215  0.4223
15417SOL    HW247468   7.669   3.835   4.266  0.8767  2.1919 -0.1383
15418SOL     OW47469   5.096   3.206   4.261 -0.1834 -0.0382  0.5674
15418SOL    HW147470   5.053   3.279   4.305 -0.5900  0.2178 -0.2428
15418SOL    HW247471   5.142   3.246   4.188 -1.3045 -0.7158 -0.5382
15419SOL     OW47472   6.642   2.893   4.626 -0.1841 -0.2424  0.3435
15419SOL    HW147473   6.597   2.973   4.598  1.0874  0.6096  0.6409
15419SOL    HW247474   6.706   2.923   4.691 -0.0845 -1.5872  0.8901
15420SOL     OW47475   7.006   3.155   4.210  0.2765  0.0594  0.7375
15420SOL    HW147476   6.974   3.066   4.197  1.4207 -0.4073  0.9813
15420SOL    HW247477   6.928   3.206   4.233 -1.4580  0.3056 -4.3482
15421SOL     OW47478   5.408   2.603   4.920 -0.6921 -0.7644  0.3473
15421SOL    HW147479   5.502   2.589   4.934  0.2728  2.6578 -1.4976
15421SOL    HW247480   5.372   2.515   4.910  2.3114 -2.2198  1.0988
15422SOL     OW47481   6.177   3.167   4.093  0.6288 -0.1358  0.0205
15422SOL    HW147482   6.210   3.081   4.068  0.6028  0.0460 -0.6579
15422SOL    HW247483   6.222   3.187   4.175  1.8271 -0.1256 -0.6066
15423SOL     OW47484   6.226   2.687   5.042  0.0709  0.5575 -0.0738
15423SOL    HW147485   6.144   2.714   5.001 -1.3661 -3.2000 -0.0551
15423SOL    HW247486   6.288   2.679   4.969 -0.5054  0.3566 -0.5459
15424SOL     OW47487   6.315   1.580   4.443 -0.3422  0.4673 -0.8237
15424SOL    HW147488   6.407   1.603   4.446 -0.2167 -0.0495 -0.3936
15424SOL    HW247489   6.282   1.621   4.363  0.3377  0.3588 -1.1680
15425SOL     OW47490   5.681   2.808   5.099  0.7123  0.1935 -0.0825
15425SOL    HW147491   5.661   2.892   5.140  0.0021  0.1309 -0.2754
15425SOL    HW247492   5.624   2.806   5.022 -0.8608 -1.3579  1.0438
15426SOL     OW47493   6.963   2.909   3.821  0.4548 -0.0126  0.0051
15426SOL    HW147494   6.912   2.828   3.813  0.1925  0.1611 -0.0866
15426SOL    HW247495   7.039   2.894   3.765  0.6762 -0.4030  0.3998
15427SOL     OW47496   6.968   3.340   5.669  0.0805 -0.9716 -0.0755
15427SOL    HW147497   7.026   3.264   5.661  0.8683 -0.5041  1.0245
15427SOL    HW247498   6.967   3.378   5.581  0.4131 -1.7194 -0.4149
15428SOL     OW47499   5.305   2.516   5.324 -0.3566  0.4472 -0.0164
15428SOL    HW147500   5.278   2.538   5.413 -0.0188  0.3543  0.1110
15428SOL    HW247501   5.294   2.598   5.275  0.3069  0.7447  0.3165
15429SOL     OW47502   7.178   3.422   4.299  0.1482  0.2055  1.0568
15429SOL    HW147503   7.250   3.448   4.357 -0.7768  1.8501  1.5126
15429SOL    HW247504   7.103   3.411   4.357  0.1041 -2.0926  0.6689
15430SOL     OW47505   7.796   4.304   4.157 -0.2604  0.3137 -0.1802
15430SOL    HW147506   7.768   4.347   4.238 -0.1187  0.5118 -0.2336
15430SOL    HW247507   7.736   4.231   4.146  1.0384 -1.0259  1.2508
15431SOL     OW47508   6.129   2.413   4.250 -0.5326 -0.1614 -0.4029
15431SOL    HW147509   6.198   2.353   4.278 -0.8095 -0.7560 -0.9657
15431SOL    HW247510   6.095   2.450   4.331 -0.5483 -0.9880 -0.0172
15432SOL     OW47511   6.277   2.053   4.965 -0.4456 -0.6326  0.0666
15432SOL    HW147512   6.266   2.058   5.060 -1.0741  0.3654 -0.0422
15432SOL    HW247513   6.342   1.984   4.952 -0.6559 -1.0674  1.1955
15433SOL     OW47514   7.477   3.424   3.541  0.4329 -0.2430 -0.0676
15433SOL    HW147515   7.440   3.415   3.629  1.0443  1.2612  0.3934
15433SOL    HW247516   7.500   3.517   3.535 -0.3858 -0.1373 -2.1464
15434SOL     OW47517   6.592   2.575   5.482 -0.9214  0.3129  0.4486
15434SOL    HW147518   6.499   2.562   5.499 -0.8360 -2.1275 -0.5869
15434SOL    HW247519   6.632   2.573   5.569 -1.7340  0.4403  0.8382
15435SOL     OW47520   7.053   2.391   5.336 -0.4050 -0.0119  0.0952
15435SOL    HW147521   7.074   2.441   5.257  0.3943  0.5225  0.6273
15435SOL    HW247522   7.048   2.300   5.306  0.6307  0.0938 -0.4425
15436SOL     OW47523   6.358   2.866   5.535  0.3778  0.1398 -0.2941
15436SOL    HW147524   6.319   2.836   5.453 -0.0901 -0.4039  0.1168
15436SOL    HW247525   6.311   2.817   5.603  1.9184 -0.7024  0.2134
15437SOL     OW47526   6.420   2.457   5.155  0.1075 -0.2320 -0.3084
15437SOL    HW147527   6.370   2.423   5.230 -0.1191 -1.0676 -0.8238
15437SOL    HW247528   6.381   2.543   5.138 -0.3431 -0.3593  0.0526
15438SOL     OW47529   6.553   2.493   4.036 -0.3644 -0.7233  0.2620
15438SOL    HW147530   6.539   2.560   3.970  1.3559 -0.0734  0.5104
15438SOL    HW247531   6.490   2.514   4.105 -1.9460 -1.2152 -0.9662
15439SOL     OW47532   6.070   2.550   4.617  0.1528 -0.6643 -0.7588
15439SOL    HW147533   6.013   2.590   4.551 -1.5846 -0.4914  0.7643
15439SOL    HW247534   6.110   2.623   4.663 -0.5121 -0.7027 -0.0895
15440SOL     OW47535   5.908   3.467   5.257  0.4677  0.3406 -0.8980
15440SOL    HW147536   5.935   3.461   5.349  3.2192  0.8350 -1.5622
15440SOL    HW247537   5.813   3.473   5.260  0.2383 -2.2421  1.7650
15441SOL     OW47538   6.186   2.376   3.986  0.1821 -0.2439 -0.3089
15441SOL    HW147539   6.148   2.446   3.933 -1.7264 -0.4948  0.6544
15441SOL    HW247540   6.157   2.395   4.075 -1.5569 -2.9470 -0.1950
15442SOL     OW47541   6.812   2.412   4.994  0.4859  0.3157 -0.2900
15442SOL    HW147542   6.724   2.427   4.958  0.1281  1.0415  0.8374
15442SOL    HW247543   6.797   2.389   5.086  1.4500 -0.0207 -0.2050
15443SOL     OW47544   6.849   3.144   4.551 -0.8602  0.3887  0.2491
15443SOL    HW147545   6.861   3.070   4.493  2.3419  0.9130  0.0695
15443SOL    HW247546   6.858   3.108   4.639 -0.8630  0.3151  0.2188
15444SOL     OW47547   6.393   2.030   4.478  0.0174  0.6505  0.6184
15444SOL    HW147548   6.327   2.013   4.545  0.3350 -0.8413  0.5751
15444SOL    HW247549   6.474   1.992   4.512  0.4338  0.8263 -0.1390
15445SOL     OW47550   6.652   3.493   3.964  0.0096  0.3024 -0.2344
15445SOL    HW147551   6.635   3.536   3.881  0.7253  1.2291  0.0776
15445SOL    HW247552   6.694   3.560   4.018 -1.0122 -0.0869  1.1000
15446SOL     OW47553   5.936   3.483   4.533  0.1014  0.0751 -0.4263
15446SOL    HW147554   6.028   3.503   4.515 -0.3860  2.5662 -0.4667
15446SOL    HW247555   5.909   3.549   4.596 -1.8085 -0.2606 -0.8476
15447SOL     OW47556   7.376   3.106   4.665  0.1143 -0.1754 -0.3477
15447SOL    HW147557   7.326   3.025   4.668 -0.3102  0.0995  0.5720
15447SOL    HW247558   7.381   3.134   4.757 -0.9350  1.5532 -0.7615
15448SOL     OW47559   6.333   3.124   5.592  0.3969  0.0930  0.0052
15448SOL    HW147560   6.386   3.165   5.524 -0.2745  0.1233 -0.5040
15448SOL    HW247561   6.336   3.031   5.572  0.9304  0.0098  0.4585
15449SOL     OW47562   5.862   2.330   4.184  0.8906 -0.4070  0.1738
15449SOL    HW147563   5.842   2.379   4.105  0.7894 -2.4377 -1.1223
15449SOL    HW247564   5.952   2.299   4.172  0.8676 -0.7517  0.8300
15450SOL     OW47565   6.837   2.945   4.811 -0.1309  0.3312 -0.3227
15450SOL    HW147566   6.841   2.854   4.840  0.4957  0.5806  0.3893
15450SOL    HW247567   6.843   2.996   4.891  1.2597  1.0233 -0.8359
15451SOL     OW47568   5.700   3.065   5.660  0.3111  0.0631 -0.1875
15451SOL    HW147569   5.743   2.980   5.649 -0.3887 -0.4035  0.5856
15451SOL    HW247570   5.621   3.046   5.711  1.8577  1.6631  3.0512
15452SOL     OW47571   6.518   3.301   3.504 -0.1738  0.1491 -0.1844
15452SOL    HW147572   6.466   3.374   3.538  1.5637  0.6631  1.5513
15452SOL    HW247573   6.521   3.239   3.576  1.8816  0.3053 -0.0687
15453SOL     OW47574   5.404   2.068   4.733  0.4519 -0.1341  0.0557
15453SOL    HW147575   5.392   2.150   4.781  0.0553  0.6424 -1.3219
15453SOL    HW247576   5.485   2.031   4.769  0.8442  1.0398  0.4313
15454SOL     OW47577   7.169   3.126   3.973  0.1219 -0.0166 -0.1414
15454SOL    HW147578   7.086   3.083   3.992  1.4163 -1.9607  1.5705
15454SOL    HW247579   7.165   3.208   4.024  0.1528 -1.2339  1.9296
15455SOL     OW47580   6.199   4.128   4.213 -0.3597  0.4007 -0.1474
15455SOL    HW147581   6.135   4.199   4.208 -1.3519 -0.5323 -1.4235
15455SOL    HW247582   6.182   4.086   4.297 -1.1941  0.3878 -0.3131
15456SOL     OW47583   6.721   2.325   4.434 -0.4003 -0.1454  0.2422
15456SOL    HW147584   6.730   2.291   4.345  1.5837  0.9459 -0.0253
15456SOL    HW247585   6.755   2.255   4.490  3.4810  1.0877 -0.2877
15457SOL     OW47586   5.917   3.097   5.247  0.6008  0.0408 -0.1587
15457SOL    HW147587   5.995   3.120   5.197  1.0930  3.3591  1.8378
15457SOL    HW247588   5.845   3.144   5.205  0.1371 -0.8773 -0.4228
15458SOL     OW47589   6.930   3.387   4.445  0.3937 -0.1635  0.0068
15458SOL    HW147590   6.870   3.377   4.371 -0.0100  0.1280  0.2940
15458SOL    HW247591   6.930   3.300   4.487  0.0577 -0.1246  0.0915
15459SOL     OW47592   6.019   2.877   3.957 -0.0776  0.1869 -0.3235
15459SOL    HW147593   5.935   2.880   4.003  0.8316  2.8224  1.3767
15459SOL    HW247594   6.077   2.830   4.017  0.0928 -0.1497 -0.7480
15460SOL     OW47595   7.228   2.269   5.014 -0.0157  0.4960  0.2095
15460SOL    HW147596   7.302   2.216   5.045  0.2678  0.0515 -1.1643
15460SOL    HW247597   7.256   2.360   5.027  0.2053  0.3260  0.9613
15461SOL     OW47598   5.847   2.446   3.925 -0.4042 -0.0819 -0.0743
15461SOL    HW147599   5.919   2.508   3.911  0.0249 -0.5547  0.0084
15461SOL    HW247600   5.812   2.429   3.837 -0.8962  0.7145 -0.0370
15462SOL     OW47601   5.821   2.236   5.623 -0.3231  0.0573 -0.3479
15462SOL    HW147602   5.754   2.283   5.673 -0.6876 -2.0733  1.2920
15462SOL    HW247603   5.798   2.251   5.532 -1.8726  0.9913  0.1656
15463SOL     OW47604   6.350   3.083   5.243  0.1165  0.4923 -0.3918
15463SOL    HW147605   6.266   3.105   5.202  0.2387 -1.0303 -1.5534
15463SOL    HW247606   6.370   3.158   5.299 -1.6649  1.1968 -0.6446
15464SOL     OW47607   6.634   2.012   5.170  0.6944  0.4869  0.0571
15464SOL    HW147608   6.637   1.954   5.094  1.5673  0.9528 -0.2771
15464SOL    HW247609   6.594   2.093   5.137  2.8866  1.4264 -0.4506
15465SOL     OW47610   6.508   3.110   4.558  0.2977  0.0544 -0.2868
15465SOL    HW147611   6.429   3.094   4.507 -0.5594  1.5262  0.5124
15465SOL    HW247612   6.547   3.187   4.519  0.5266  0.2177  0.2457
15466SOL     OW47613   6.339   2.695   4.526 -0.2429 -0.3751  0.4199
15466SOL    HW147614   6.313   2.710   4.617 -2.0107  0.7679 -0.2107
15466SOL    HW247615   6.335   2.782   4.485  2.2471 -0.5647 -0.3760
15467SOL     OW47616   5.647   1.692   4.148 -0.8258  0.1894 -0.2202
15467SOL    HW147617   5.557   1.658   4.148 -1.6253  2.2113  0.2589
15467SOL    HW247618   5.641   1.776   4.192  1.4311  0.1242  0.3219
15468SOL     OW47619   6.874   2.926   4.409 -0.7700  0.0405  0.1382
15468SOL    HW147620   6.792   2.904   4.366 -0.7313 -0.5339  0.3495
15468SOL    HW247621   6.911   2.842   4.435 -0.2634  0.3126  0.3164
15469SOL     OW47622   5.719   1.851   3.924 -0.5399 -0.6121  0.0023
15469SOL    HW147623   5.731   1.778   3.984  3.0410  1.3185  1.9234
15469SOL    HW247624   5.630   1.883   3.942 -0.7293 -2.0851  1.9027
15470SOL     OW47625   6.063   1.794   4.630 -0.6882  0.2119 -0.4378
15470SOL    HW147626   6.016   1.876   4.616 -2.4475 -0.7886 -0.6466
15470SOL    HW247627   6.035   1.738   4.558  3.6268  0.6364 -2.8445
15471SOL     OW47628   6.582   2.468   4.818  0.3712 -0.0370  0.7923
15471SOL    HW147629   6.496   2.475   4.860  0.8207  0.7158  1.6193
15471SOL    HW247630   6.579   2.385   4.771  0.2177 -1.4983  3.2004
15472SOL     OW47631   7.172   3.420   3.988 -0.2823 -0.2800  0.7031
15472SOL    HW147632   7.077   3.430   3.987 -0.5942 -2.7047  1.5819
15472SOL    HW247633   7.195   3.412   4.080  0.4980 -1.8178  0.3987
15473SOL     OW47634   6.019   2.938   4.532 -0.0043  0.1258 -0.2659
15473SOL    HW147635   5.942   2.982   4.495  0.0151  2.1236  1.8917
15473SOL    HW247636   5.982   2.872   4.591 -0.0210 -0.7592 -1.2356
15474SOL     OW47637   7.299   3.952   4.588 -0.4869  0.4394  0.3157
15474SOL    HW147638   7.256   4.008   4.652 -2.8003 -2.1779  1.2630
15474SOL    HW247639   7.232   3.935   4.522  0.6640  0.1045 -0.8118
15475SOL     OW47640   6.551   2.385   3.394  0.2286 -0.2667 -0.1422
15475SOL    HW147641   6.606   2.308   3.408 -0.5917 -0.8649 -0.1316
15475SOL    HW247642   6.468   2.350   3.360 -0.5722  0.4990  0.9339
15476SOL     OW47643   5.208   2.455   4.751  0.6469  0.4315 -0.2321
15476SOL    HW147644   5.258   2.419   4.679  1.5170  0.4865  0.3281
15476SOL    HW247645   5.116   2.438   4.728  0.9793 -1.1544 -0.5024
15477SOL     OW47646   5.866   2.332   5.328 -0.2063  0.3565  0.0373
15477SOL    HW147647   5.926   2.325   5.254  0.8905 -3.8067  1.0704
15477SOL    HW247648   5.779   2.328   5.289  0.2027  2.4081 -1.2106
15478SOL     OW47649   6.363   2.246   4.253  0.4508 -0.3627  0.0131
15478SOL    HW147650   6.357   2.172   4.314 -1.0427  0.7646  1.3248
15478SOL    HW247651   6.384   2.206   4.169 -0.7631 -2.3450  0.5892
15479SOL     OW47652   6.248   2.047   4.694  0.4395  0.0107 -0.7639
15479SOL    HW147653   6.154   2.062   4.686  0.1731 -1.6115 -1.0387
15479SOL    HW247654   6.265   2.046   4.788 -0.4584 -2.9424 -0.5448
15480SOL     OW47655   6.621   2.817   4.358 -0.4066 -0.4356  0.5274
15480SOL    HW147656   6.556   2.867   4.308 -1.0960 -0.2751  1.5543
15480SOL    HW247657   6.609   2.847   4.448  0.9880 -0.5388  0.7572
15481SOL     OW47658   6.359   2.392   4.540  0.5815  0.1190 -0.4542
15481SOL    HW147659   6.287   2.413   4.599 -0.4160  0.4398 -1.7159
15481SOL    HW247660   6.358   2.297   4.532  1.4818 -0.0294  0.9199
15482SOL     OW47661   6.893   2.036   3.939 -0.3733 -0.2519 -0.0872
15482SOL    HW147662   6.934   2.024   4.024 -0.9894 -0.2239  0.2185
15482SOL    HW247663   6.843   2.117   3.948 -0.2275 -0.1047 -0.5625
15483SOL     OW47664   5.890   3.777   3.400 -0.0706 -0.2951 -0.1409
15483SOL    HW147665   5.927   3.706   3.451 -1.9575 -1.7291 -0.6389
15483SOL    HW247666   5.865   3.844   3.464  0.2379 -0.7961  0.4996
15484SOL     OW47667   7.220   3.107   4.369 -0.6984  0.2176  0.0502
15484SOL    HW147668   7.157   3.158   4.317 -0.7776 -0.3715 -0.4523
15484SOL    HW247669   7.191   3.118   4.459  0.2672  2.4185  0.1585
15485SOL     OW47670   7.277   2.055   3.183  0.1221 -0.3609 -0.0467
15485SOL    HW147671   7.288   2.110   3.261 -0.2165  0.0869 -0.3106
15485SOL    HW247672   7.265   1.966   3.218 -3.0253  0.2142  0.6230
15486SOL     OW47673   5.906   1.981   4.356  0.6727  0.5594  0.2492
15486SOL    HW147674   5.940   2.011   4.440 -0.4218 -0.0682  0.9399
15486SOL    HW247675   5.819   2.019   4.350 -0.1656 -1.2147  0.4769
15487SOL     OW47676   7.384   2.915   5.408  0.3518 -0.3546  0.2650
15487SOL    HW147677   7.331   2.860   5.466  0.1341  0.3000  0.7006
15487SOL    HW247678   7.413   2.987   5.464 -1.0763  1.0782 -0.7660
15488SOL     OW47679   6.546   3.201   4.829  0.3075  0.3344 -0.1819
15488SOL    HW147680   6.537   3.161   4.742  0.8091 -3.5825  1.3508
15488SOL    HW247681   6.463   3.246   4.843 -0.5598 -0.6176 -1.9318
15489SOL     OW47682   7.161   3.365   5.270 -0.2886 -0.1855 -0.2248
15489SOL    HW147683   7.080   3.409   5.294  0.1717  0.2350  0.5928
15489SOL    HW247684   7.189   3.320   5.349  2.1866  2.6858  0.7446
15490SOL     OW47685   6.301   2.778   4.792 -0.4655  0.2402 -0.1442
15490SOL    HW147686   6.265   2.866   4.801  0.5710  0.6476  0.2052
15490SOL    HW247687   6.387   2.783   4.834  0.1977 -0.5641 -1.3479
15491SOL     OW47688   6.940   3.382   4.923  0.8164 -0.6447 -0.2905
15491SOL    HW147689   6.959   3.450   4.858 -0.2906 -0.5867 -0.5742
15491SOL    HW247690   6.991   3.306   4.894  2.5056  0.2121  0.3450
15492SOL     OW47691   6.330   1.955   5.221  0.4336 -0.5675 -0.3413
15492SOL    HW147692   6.418   1.991   5.223  0.4958 -0.6887 -0.7828
15492SOL    HW247693   6.290   1.984   5.303  0.5875  0.2277 -0.5393
15493SOL     OW47694   6.342   3.103   5.848 -0.5603  0.2193  0.2905
15493SOL    HW147695   6.327   3.195   5.870  0.4194  0.0811  1.6319
15493SOL    HW247696   6.335   3.100   5.752  1.5761  2.1189 -0.0012
15494SOL     OW47697   6.223   2.775   4.140 -0.1185  0.1891 -0.9775
15494SOL    HW147698   6.250   2.683   4.138 -3.0367 -0.7645 -0.5459
15494SOL    HW247699   6.274   2.813   4.211 -2.7456 -2.5700  2.7594
15495SOL     OW47700   5.992   2.854   5.367  0.3449  0.0444 -0.2763
15495SOL    HW147701   6.015   2.864   5.459 -0.6164 -1.7565  0.2010
15495SOL    HW247702   5.948   2.936   5.344 -0.0794  0.2204  1.0957
15496SOL     OW47703   6.495   2.202   5.063  0.0489 -0.7673 -0.5777
15496SOL    HW147704   6.477   2.295   5.077 -3.6400 -1.3158 -0.4629
15496SOL    HW247705   6.473   2.187   4.971 -0.4680 -1.6873 -0.3179
15497SOL     OW47706   5.290   3.869   4.537 -0.1530  0.2306  0.3454
15497SOL    HW147707   5.215   3.875   4.596 -1.8179 -0.8708 -1.4984
15497SOL    HW247708   5.255   3.898   4.452  1.1102 -1.5221 -0.8549
15498SOL     OW47709   5.756   2.925   4.043 -0.5180 -0.2954  0.4995
15498SOL    HW147710   5.663   2.948   4.049 -0.8423 -1.8325  1.9732
15498SOL    HW247711   5.802   3.006   4.065 -1.4906  0.4340 -0.0734
15499SOL     OW47712   6.011   2.268   5.114 -0.1408 -0.2858 -0.1696
15499SOL    HW147713   6.010   2.292   5.022 -0.6992 -0.2615 -0.1616
15499SOL    HW247714   5.971   2.181   5.117 -3.6651  1.1968  0.4214
15500SOL     OW47715   6.880   2.930   4.110 -0.3018 -0.5625  0.3067
15500SOL    HW147716   6.919   2.881   4.037 -2.0220 -1.2106 -0.2173
15500SOL    HW247717   6.786   2.916   4.101 -0.5927 -0.2488  2.3758
15501SOL     OW47718   6.544   3.574   4.698 -0.2903 -0.6369  0.0652
15501SOL    HW147719   6.520   3.532   4.781  0.6039 -0.5953  0.3511
15501SOL    HW247720   6.622   3.625   4.718 -0.7330  0.3162 -0.5318
15502SOL     OW47721   6.858   2.046   4.454  0.2977 -0.0415  0.3768
15502SOL    HW147722   6.862   2.021   4.361  0.8302  0.9372  0.1172
15502SOL    HW247723   6.944   2.021   4.489 -0.0536 -0.8033  0.7294
15503SOL     OW47724   6.138   3.199   5.108  0.0339  0.1486  0.0724
15503SOL    HW147725   6.138   3.293   5.095 -2.3005  0.0449 -1.1530
15503SOL    HW247726   6.097   3.164   5.029  2.3793 -2.0713 -0.3200
15504SOL     OW47727   6.276   2.699   5.732 -0.2828  0.1077  0.2487
15504SOL    HW147728   6.233   2.613   5.735 -0.8427  0.1538 -3.0779
15504SOL    HW247729   6.369   2.678   5.730 -0.4227 -0.5088 -1.0667
15505SOL     OW47730   6.519   2.841   5.239  0.2006  0.2258  0.6356
15505SOL    HW147731   6.451   2.778   5.260 -0.0438  0.5486  0.8235
15505SOL    HW247732   6.478   2.926   5.253  0.3546  0.4379 -0.1430
15506SOL     OW47733   6.024   1.991   5.644 -0.4040 -0.0651 -0.0046
15506SOL    HW147734   6.084   2.004   5.571 -0.5481  0.9380  0.0435
15506SOL    HW247735   5.970   2.070   5.644 -0.3389 -0.0124  1.2428
15507SOL     OW47736   5.237   1.873   5.237 -0.1149 -0.5722 -0.6299
15507SOL    HW147737   5.247   1.878   5.332  2.1978 -1.6120 -0.7498
15507SOL    HW247738   5.204   1.959   5.211  0.3616  0.1233  0.9840
15508SOL     OW47739   5.744   2.989   4.760  0.0044 -0.9209 -0.5208
15508SOL    HW147740   5.758   3.078   4.727  1.1203 -0.6546  0.5980
15508SOL    HW247741   5.649   2.977   4.757 -0.2681  0.7074  0.2639
15509SOL     OW47742   6.547   2.214   4.695 -0.1455  0.1506 -0.7163
15509SOL    HW147743   6.620   2.168   4.655 -0.2525 -0.6951  0.0284
15509SOL    HW247744   6.469   2.167   4.663 -0.2899  0.1676 -0.3874
15510SOL     OW47745   6.353   1.804   4.233 -0.8267  0.5727 -0.0155
15510SOL    HW147746   6.413   1.855   4.288 -0.2200 -1.6730  1.5689
15510SOL    HW247747   6.294   1.869   4.195 -0.4493  2.4019  2.2825
15511SOL     OW47748   5.876   1.505   4.856  0.1178 -0.3300  0.0963
15511SOL    HW147749   5.803   1.544   4.809 -0.3937  0.0677  1.1820
15511SOL    HW247750   5.929   1.580   4.884 -0.0005 -0.5026  0.7989
15512SOL     OW47751   5.506   2.889   4.864 -1.0528  0.1628  0.0955
15512SOL    HW147752   5.441   2.871   4.796 -0.5397 -0.4884 -0.2363
15512SOL    HW247753   5.462   2.949   4.924 -1.8971 -0.1325 -0.2123
15513SOL     OW47754   5.926   2.572   5.464  0.1570  0.0493  0.1956
15513SOL    HW147755   5.897   2.506   5.400  1.8215 -1.7024  1.1272
15513SOL    HW247756   5.914   2.656   5.419 -1.3614 -0.9132 -1.3285
15514SOL     OW47757   7.228   2.314   5.659  0.1073 -0.1878 -0.2330
15514SOL    HW147758   7.277   2.340   5.581 -1.0146  0.8650 -0.6051
15514SOL    HW247759   7.175   2.391   5.682 -1.7449 -1.4437 -0.1331
15515SOL     OW47760   5.691   1.946   4.592  0.3193  0.2632  0.0893
15515SOL    HW147761   5.611   1.915   4.550 -1.7748  3.2896  1.4391
15515SOL    HW247762   5.701   1.889   4.668  0.3572 -1.0858 -0.8921
15516SOL     OW47763   7.299   2.287   3.356 -0.1147 -0.2712 -0.3399
15516SOL    HW147764   7.245   2.330   3.290 -1.1315  0.0239  0.6613
15516SOL    HW247765   7.378   2.342   3.362 -0.0057 -0.3147 -1.3053
15517SOL     OW47766   6.296   2.430   4.904 -0.0754 -0.0170  0.6830
15517SOL    HW147767   6.312   2.429   4.998 -1.1330 -0.6964  0.8693
15517SOL    HW247768   6.203   2.411   4.895 -0.6157  2.6216 -0.3936
15518SOL     OW47769   6.051   3.152   5.580  0.1529 -0.3765  0.0406
15518SOL    HW147770   6.053   3.089   5.653  1.4750 -0.4010  0.0083
15518SOL    HW247771   6.133   3.135   5.532 -0.4812 -0.0486 -1.1881
15519SOL     OW47772   7.219   3.443   5.011  0.3590 -0.2206 -0.2118
15519SOL    HW147773   7.161   3.518   4.996  0.8537  0.1096 -0.5017
15519SOL    HW247774   7.200   3.416   5.101 -0.7185 -0.5405 -0.5231
15520SOL     OW47775   6.047   2.688   5.963  0.2207  0.2482  0.0528
15520SOL    HW147776   6.042   2.778   5.994 -0.5085  0.6410 -1.1087
15520SOL    HW247777   6.092   2.694   5.879  1.4510 -0.6729  0.6213
15521SOL     OW47778   7.076   2.164   3.472 -0.4551  0.4678 -0.1953
15521SOL    HW147779   7.132   2.228   3.428 -1.9958  2.1037  0.1412
15521SOL    HW247780   7.062   2.200   3.559 -1.1397 -0.4637  0.0992
15522SOL     OW47781   7.221   2.499   3.615 -0.2689  0.2231  0.6245
15522SOL    HW147782   7.235   2.550   3.536 -0.5153 -1.4983 -0.5891
15522SOL    HW247783   7.282   2.536   3.679 -0.2346  1.7927 -0.2749
15523SOL     OW47784   6.893   3.364   3.982  0.5827 -0.1867  0.0286
15523SOL    HW147785   6.884   3.285   3.928  2.0377  0.3737 -1.1239
15523SOL    HW247786   6.816   3.416   3.962  1.0473 -0.0339 -1.5185
15524SOL     OW47787   5.688   2.549   4.743 -0.1949  0.0419 -0.2574
15524SOL    HW147788   5.735   2.619   4.789  1.2471 -0.9045 -0.2355
15524SOL    HW247789   5.640   2.595   4.673 -0.1194  1.1520  0.3823
15525SOL     OW47790   5.597   1.926   5.121  0.4945  0.0276  0.7734
15525SOL    HW147791   5.576   1.884   5.038  1.3890  2.3331 -0.7179
15525SOL    HW247792   5.599   1.854   5.184 -4.7669 -1.3153 -0.1501
15526SOL     OW47793   6.693   2.460   5.253 -0.2276 -0.1500  0.4230
15526SOL    HW147794   6.615   2.436   5.202  0.1605  0.4164 -0.4425
15526SOL    HW247795   6.658   2.479   5.340 -1.2741  1.4530 -0.2940
15527SOL     OW47796   6.415   2.186   5.442  0.7291 -0.4264  0.9455
15527SOL    HW147797   6.381   2.254   5.384 -0.2687 -1.4318  0.2785
15527SOL    HW247798   6.420   2.227   5.528  0.0607  0.4563  0.5797
15528SOL     OW47799   5.384   3.127   4.354 -0.2105  0.4202 -0.1884
15528SOL    HW147800   5.303   3.177   4.351 -0.5659 -0.1817 -1.0026
15528SOL    HW247801   5.453   3.193   4.366 -0.7713  0.9786 -0.0106
15529SOL     OW47802   5.762   3.504   4.181 -0.2714 -0.1769 -0.1407
15529SOL    HW147803   5.693   3.570   4.175 -0.3881 -0.2641  0.1958
15529SOL    HW247804   5.720   3.430   4.226 -0.2791 -0.6603 -0.9165
15530SOL     OW47805   6.326   3.347   4.727 -0.1995  0.2444  0.3351
15530SOL    HW147806   6.364   3.374   4.643 -1.3759  0.8392 -0.0177
15530SOL    HW247807   6.261   3.414   4.747  0.2233  0.2382  1.8548
15531SOL     OW47808   5.899   2.775   4.748 -0.1201  0.1216 -0.5600
15531SOL    HW147809   5.898   2.739   4.837  1.1290 -1.2753 -1.0731
15531SOL    HW247810   5.839   2.849   4.752 -0.4739 -0.2084  1.3215
15532SOL     OW47811   5.573   2.300   4.752  0.3212  0.2576 -0.1161
15532SOL    HW147812   5.504   2.311   4.686  0.0786  0.4115  0.1646
15532SOL    HW247813   5.649   2.345   4.714  0.8386 -1.4858 -1.2739
15533SOL     OW47814   5.652   2.649   5.373 -0.3593  0.2468 -0.4283
15533SOL    HW147815   5.653   2.619   5.282  1.0374  0.9231 -0.6728
15533SOL    HW247816   5.603   2.731   5.370  1.6014  1.4767 -1.0512
15534SOL     OW47817   6.782   2.681   5.130 -0.1644 -0.1351 -0.4898
15534SOL    HW147818   6.782   2.593   5.167 -0.4749  0.1588  0.2343
15534SOL    HW247819   6.700   2.686   5.081  0.4908 -0.7063 -1.7156
15535SOL     OW47820   6.120   1.961   4.159  0.0247 -0.5057  0.5698
15535SOL    HW147821   6.061   2.000   4.093  1.4033  0.1690 -0.3041
15535SOL    HW247822   6.073   1.972   4.242 -1.5593 -0.9718 -0.2202
15536SOL     OW47823   6.911   2.330   4.676 -0.3090  0.2851  0.1183
15536SOL    HW147824   6.864   2.390   4.617 -0.9308  0.6634  0.9805
15536SOL    HW247825   6.991   2.308   4.629 -0.3550  1.3201 -0.4737
15537SOL     OW47826   5.802   3.283   5.486 -0.4286  0.0558  0.1802
15537SOL    HW147827   5.765   3.229   5.556  0.2780  0.1501  0.6368
15537SOL    HW247828   5.873   3.230   5.449  0.1116  0.5613  0.4691
15538SOL     OW47829   6.213   2.337   5.287 -0.4938  0.3241 -0.0405
15538SOL    HW147830   6.134   2.318   5.237 -0.7177  1.6051 -0.2188
15538SOL    HW247831   6.184   2.344   5.378 -0.6615  1.1839 -0.1567
15539SOL     OW47832   6.676   3.423   4.925  0.4616  0.2985 -0.5160
15539SOL    HW147833   6.660   3.335   4.890 -0.5065  0.2737 -0.0394
15539SOL    HW247834   6.770   3.423   4.945  0.1074 -1.4270  1.5326
15540SOL     OW47835   5.902   2.312   4.462  0.4445  0.6507  0.2659
15540SOL    HW147836   5.885   2.301   4.369  3.4300  0.4448 -0.3547
15540SOL    HW247837   5.888   2.406   4.478 -0.4749  0.6181 -0.2459
15541SOL     OW47838   5.489   2.876   5.344  0.0462  0.7369 -0.0721
15541SOL    HW147839   5.424   2.833   5.289  1.7561 -2.0315 -0.1490
15541SOL    HW247840   5.523   2.947   5.289 -1.5627  1.0258 -0.7374
15542SOL     OW47841   6.509   2.827   4.963 -1.0811 -0.1382  0.1402
15542SOL    HW147842   6.552   2.836   5.048 -0.5901 -2.6133  0.2408
15542SOL    HW247843   6.494   2.917   4.934  1.0807  0.8112  1.6586
15543SOL     OW47844   7.089   2.450   3.938  0.3943 -0.2924  0.6478
15543SOL    HW147845   7.086   2.522   4.001  0.2226  0.0839  0.2177
15543SOL    HW247846   6.999   2.444   3.905  0.5089 -0.4061  0.3513
15544SOL     OW47847   6.862   3.561   5.137 -0.6679  0.0483  0.2582
15544SOL    HW147848   6.769   3.580   5.128 -0.6825  1.0102  2.0565
15544SOL    HW247849   6.884   3.511   5.058 -2.5147  0.4638 -0.5651
15545SOL     OW47850   6.988   3.562   4.681 -0.5000  0.0882  0.1869
15545SOL    HW147851   6.987   3.515   4.598  1.5507 -2.1051  1.2776
15545SOL    HW247852   7.080   3.582   4.697 -0.0185 -3.6746  3.9227
15546SOL     OW47853   5.790   3.079   4.411  0.0491  0.3512  0.1120
15546SOL    HW147854   5.743   3.126   4.479  3.1823  1.2525  1.8506
15546SOL    HW247855   5.778   3.132   4.332 -0.8074  1.1909  0.7861
15547SOL     OW47856   6.013   3.467   5.529 -0.6736 -0.1229 -0.2822
15547SOL    HW147857   5.993   3.518   5.608 -0.0398  0.1207 -0.2675
15547SOL    HW247858   5.967   3.384   5.541  0.2022 -0.4788  0.8069
15548SOL     OW47859   7.259   2.037   3.955 -0.0199  0.4084  0.8501
15548SOL    HW147860   7.295   2.126   3.954  0.8653  0.0584  0.3756
15548SOL    HW247861   7.206   2.031   3.876  1.6380 -0.1409 -0.2782
15549SOL     OW47862   7.359   3.502   4.502  0.2185 -0.3485 -0.3231
15549SOL    HW147863   7.427   3.458   4.552 -1.5921 -0.4167  2.2800
15549SOL    HW247864   7.373   3.595   4.517 -1.4315 -0.4095  2.0543
15550SOL     OW47865   5.794   3.607   5.706 -0.0980  0.3851  0.1925
15550SOL    HW147866   5.708   3.567   5.700  0.1165  0.0326 -0.6252
15550SOL    HW247867   5.792   3.679   5.643 -0.0417  0.8555  0.7169
15551SOL     OW47868   6.716   2.581   4.285 -0.6195 -0.3623  0.0056
15551SOL    HW147869   6.695   2.674   4.296  2.7609  0.4189  0.9407
15551SOL    HW247870   6.744   2.573   4.194  0.4248 -0.1132  0.2913
15552SOL     OW47871   5.705   3.335   4.841 -0.6234  0.0177  0.5851
15552SOL    HW147872   5.749   3.356   4.758  0.9475  1.5018  1.7170
15552SOL    HW247873   5.612   3.342   4.820 -0.2721  0.3803 -1.0543
15553SOL     OW47874   6.250   3.332   3.830  0.2231 -0.5037 -0.0979
15553SOL    HW147875   6.190   3.382   3.885 -0.9345 -0.1359 -1.6327
15553SOL    HW247876   6.263   3.386   3.752  0.6149 -1.6679 -0.8669
15554SOL     OW47877   6.908   3.489   5.397 -0.0888  0.9836 -0.0431
15554SOL    HW147878   6.919   3.530   5.311  2.5967  1.4189  0.3922
15554SOL    HW247879   6.875   3.559   5.453  0.6595  1.4574 -0.1781
15555SOL     OW47880   6.999   1.668   4.036 -0.6664 -0.2720 -0.5914
15555SOL    HW147881   7.045   1.747   4.065  0.2024 -1.2642  0.8505
15555SOL    HW247882   7.062   1.622   3.981 -0.0815 -1.3507  0.9207
15556SOL     OW47883   5.645   1.832   4.855  0.0126  0.0862  0.0328
15556SOL    HW147884   5.607   1.744   4.843  1.7106 -0.7954  0.7285
15556SOL    HW247885   5.728   1.816   4.899  0.1617  2.1125  0.5897
15557SOL     OW47886   6.319   2.870   3.393 -0.2185  0.2902 -0.1257
15557SOL    HW147887   6.394   2.812   3.409  0.2198  1.2540  1.5323
15557SOL    HW247888   6.357   2.946   3.350 -0.1990  0.8115  0.7827
15558SOL     OW47889   6.234   2.767   5.301 -0.0321 -0.2390  0.0216
15558SOL    HW147890   6.144   2.790   5.327 -0.0336 -0.7372  0.4695
15558SOL    HW247891   6.224   2.730   5.214 -0.2662 -0.3296  0.0854
15559SOL     OW47892   6.773   2.261   4.149  0.0200 -0.0221  0.2121
15559SOL    HW147893   6.733   2.294   4.069 -0.8355  1.0172  1.0288
15559SOL    HW247894   6.841   2.325   4.170  1.3872 -1.1669 -0.5415
15560SOL     OW47895   6.854   3.149   3.808 -0.1789  0.4023  0.8944
15560SOL    HW147896   6.905   3.070   3.827  1.2220  0.4283 -2.2108
15560SOL    HW247897   6.782   3.118   3.753 -0.9577  1.0162  1.5487
15561SOL     OW47898   5.768   2.770   5.610  0.9188 -0.1272  0.4546
15561SOL    HW147899   5.854   2.728   5.599 -0.1944 -2.6375  0.6363
15561SOL    HW247900   5.717   2.739   5.535  0.0968  1.2135  0.4355
15562SOL     OW47901   6.721   3.067   5.045 -0.1354  0.6386 -0.4933
15562SOL    HW147902   6.734   3.117   5.125 -0.1478  1.2348 -0.8627
15562SOL    HW247903   6.651   3.113   4.998 -0.0979  0.3228 -0.8674
15563SOL     OW47904   6.052   2.626   3.846 -0.8627  0.4710  0.0898
15563SOL    HW147905   6.125   2.655   3.791 -1.3452  0.7329 -0.4317
15563SOL    HW247906   5.998   2.704   3.858 -1.4097  0.1354 -0.1061
15564SOL     OW47907   5.887   2.014   5.146  0.1576  0.4701  0.2474
15564SOL    HW147908   5.923   1.925   5.144 -0.2490  0.3164 -0.4864
15564SOL    HW247909   5.794   2.003   5.126 -0.1988  0.9333  1.5106
15565SOL     OW47910   6.512   3.230   4.013 -0.1315 -0.2963 -0.9586
15565SOL    HW147911   6.540   3.320   3.998 -2.9894  0.9629  0.3879
15565SOL    HW247912   6.430   3.222   3.964  0.5728 -2.5785 -1.9123
15566SOL     OW47913   6.979   1.815   4.788 -0.0861  0.0291 -0.1824
15566SOL    HW147914   7.036   1.837   4.861 -0.0816 -0.0283 -0.1690
15566SOL    HW247915   7.029   1.839   4.710  0.4431 -1.1232 -0.2223
15567SOL     OW47916   5.609   3.244   4.037 -0.6195 -0.5803  0.4918
15567SOL    HW147917   5.600   3.179   3.967  2.3247 -0.6481  0.0321
15567SOL    HW247918   5.621   3.193   4.117 -0.8758 -0.5566  0.5457
15568SOL     OW47919   5.765   3.046   6.035  0.4525 -0.4851  0.1342
15568SOL    HW147920   5.715   2.992   6.097 -0.4216 -0.8041 -0.8289
15568SOL    HW247921   5.698   3.087   5.980  1.1188  1.1734  0.4882
15569SOL     OW47922   5.605   2.177   5.394 -0.0457  0.0681 -0.3143
15569SOL    HW147923   5.513   2.189   5.370  0.2153  2.0604 -0.5636
15569SOL    HW247924   5.611   2.088   5.427 -2.2135  0.1293  0.3855
15570SOL     OW47925   5.039   2.479   3.280  0.5226  0.5888 -0.3743
15570SOL    HW147926   4.965   2.462   3.338  1.6910  1.0648  1.3511
15570SOL    HW247927   5.000   2.519   3.202 -1.1408 -0.3980 -0.1009
15571SOL     OW47928   7.182   2.621   4.754  0.3008 -0.1248 -0.2271
15571SOL    HW147929   7.164   2.533   4.722 -0.3056  0.8528 -2.7838
15571SOL    HW247930   7.123   2.631   4.829  0.1447 -1.7533 -0.0907
15572SOL     OW47931   5.910   1.795   3.683 -0.2646  0.0020  0.0759
15572SOL    HW147932   5.839   1.798   3.747  0.0407  0.6971  0.3891
15572SOL    HW247933   5.963   1.872   3.702  0.0312  0.0223 -0.7873
15573SOL     OW47934   7.339   3.398   3.769 -0.0846  0.0575 -0.4472
15573SOL    HW147935   7.299   3.423   3.852  1.0429 -0.9745  0.4459
15573SOL    HW247936   7.278   3.334   3.732 -1.1905  1.4062 -1.0234
15574SOL     OW47937   6.053   2.850   5.649 -0.2319  0.7796  0.1055
15574SOL    HW147938   6.136   2.827   5.692  0.4366  2.8998  0.0643
15574SOL    HW247939   6.000   2.889   5.719 -0.0306  2.1217 -0.4636
15575SOL     OW47940   7.123   3.717   4.936 -0.1306  0.3246  0.2264
15575SOL    HW147941   7.154   3.788   4.992  0.2030  0.0406  0.4041
15575SOL    HW247942   7.034   3.743   4.912  0.1125  0.9770 -0.0040
15576SOL     OW47943   6.316   2.559   5.477  0.0133 -0.6635 -1.1014
15576SOL    HW147944   6.284   2.632   5.425 -1.8048 -2.1989 -2.2555
15576SOL    HW247945   6.239   2.504   5.493  1.2537 -2.2207 -0.0709
15577SOL     OW47946   6.941   2.913   5.173  0.8115 -0.4753  0.1223
15577SOL    HW147947   6.889   2.972   5.118  1.8986  0.0696 -0.3363
15577SOL    HW247948   6.881   2.841   5.193  0.0278 -0.1058 -0.8022
15578SOL     OW47949   6.041   3.404   4.818  0.5473  0.3275  0.0238
15578SOL    HW147950   5.955   3.418   4.779  1.1799  0.0603 -1.5385
15578SOL    HW247951   6.047   3.310   4.831  0.2475  0.4347  1.0452
15579SOL     OW47952   7.448   2.582   4.705 -0.6558 -0.2911  0.3428
15579SOL    HW147953   7.486   2.549   4.786  1.5215 -1.2391 -0.9681
15579SOL    HW247954   7.358   2.607   4.728  0.2647  0.6274  3.2800
15580SOL     OW47955   6.384   2.169   3.983 -0.3986 -0.1547  0.7374
15580SOL    HW147956   6.351   2.082   3.960 -1.5503  1.1094 -3.2304
15580SOL    HW247957   6.306   2.224   3.985  0.6347  1.5230 -1.2712
15581SOL     OW47958   6.049   2.359   4.837  0.0359 -0.1952  0.1446
15581SOL    HW147959   6.044   2.436   4.780 -0.7011  0.7104  1.3738
15581SOL    HW247960   5.958   2.329   4.844  0.1720 -0.5174  0.5517
15582SOL     OW47961   6.747   1.943   4.889  0.2384  0.2502 -0.1573
15582SOL    HW147962   6.788   2.029   4.902  1.1950 -0.3730  1.0869
15582SOL    HW247963   6.818   1.887   4.859 -0.2340 -0.2766 -0.2972
15583SOL     OW47964   7.007   2.614   4.963  0.2227  0.3399 -0.0629
15583SOL    HW147965   6.953   2.539   4.939  0.9426 -0.3018  0.2622
15583SOL    HW247966   6.958   2.656   5.034  0.6296 -0.8570  0.9715
15584SOL     OW47967   6.476   2.667   3.842 -0.6009  0.1894 -0.1685
15584SOL    HW147968   6.541   2.664   3.771  1.5168  1.0737  1.6417
15584SOL    HW247969   6.404   2.718   3.805  0.4711  0.6981 -1.6805
15585SOL     OW47970   6.150   3.641   4.845  0.0999 -0.0953 -0.2710
15585SOL    HW147971   6.112   3.553   4.839 -0.5586  0.0861  0.9043
15585SOL    HW247972   6.076   3.697   4.868  0.3327  0.9375 -1.9157
15586SOL     OW47973   6.376   3.268   4.311  0.1023 -0.2315  0.0707
15586SOL    HW147974   6.353   3.346   4.261  0.5369 -1.2086 -1.7445
15586SOL    HW247975   6.427   3.301   4.384  2.9222  1.0535 -2.2571
15587SOL     OW47976   6.877   2.666   3.753  0.4244 -0.1191  0.0277
15587SOL    HW147977   6.940   2.679   3.682  1.4290  0.3522  0.9815
15587SOL    HW247978   6.845   2.577   3.740 -1.3476  0.7760 -2.5036
15588SOL     OW47979   7.555   3.283   4.638 -0.3093 -0.1691  0.5696
15588SOL    HW147980   7.632   3.233   4.611 -0.4174  0.0393 -0.1420
15588SOL    HW247981   7.481   3.229   4.613 -0.4251  0.3122 -0.1588
15589SOL     OW47982   5.258   3.095   5.804  0.6129  0.2922 -0.4035
15589SOL    HW147983   5.318   3.061   5.739 -0.9382 -0.2724 -1.5959
15589SOL    HW247984   5.236   3.019   5.859  2.3960  0.8867  1.2534
15590SOL     OW47985   5.859   2.629   4.423  0.2069  0.3209 -0.5006
15590SOL    HW147986   5.792   2.622   4.491  2.1438  0.4291  1.5156
15590SOL    HW247987   5.830   2.702   4.369 -1.7317 -0.1884 -0.2333
15591SOL     OW47988   5.993   3.106   4.867 -0.2562  0.1664 -0.3101
15591SOL    HW147989   5.931   3.033   4.861  0.5751 -0.5011 -1.3181
15591SOL    HW247990   6.072   3.073   4.824  0.6759  1.1179  0.6253
15592SOL     OW47991   7.324   2.127   4.415  0.6586  0.1695 -0.2022
15592SOL    HW147992   7.366   2.042   4.404  0.3442  0.0458 -0.4356
15592SOL    HW247993   7.388   2.178   4.465  0.0009 -0.8579  1.8241
15593SOL     OW47994   5.974   2.063   4.590 -0.4107 -0.0394  0.5354
15593SOL    HW147995   5.879   2.052   4.587 -0.6771  2.0430 -1.9836
15593SOL    HW247996   5.987   2.158   4.592  1.6103 -0.2437 -0.6689
15594SOL     OW47997   7.303   3.153   5.006 -0.2538  0.0681 -0.3734
15594SOL    HW147998   7.240   3.082   5.017  0.1746 -0.3778 -0.7522
15594SOL    HW247999   7.253   3.233   5.024 -0.5323 -0.3789  0.9615
15595SOL     OW48000   5.598   2.458   5.114 -0.7396  0.3185  0.4961
15595SOL    HW148001   5.514   2.442   5.157 -0.2579 -0.1089  1.3020
15595SOL    HW248002   5.623   2.373   5.078 -0.4609  0.3451  0.6220
15596SOL     OW48003   5.842   3.774   4.529 -0.0443  0.2465 -0.3757
15596SOL    HW148004   5.791   3.703   4.568  0.6571 -0.5586 -0.9175
15596SOL    HW248005   5.777   3.842   4.511 -0.6188  0.0205  0.7493
15597SOL     OW48006   6.775   1.635   4.801 -0.7206 -0.4737  0.0840
15597SOL    HW148007   6.853   1.689   4.791 -1.3918  0.5248  0.0766
15597SOL    HW248008   6.799   1.570   4.867  0.6293 -1.1854 -1.0723
15598SOL     OW48009   6.495   1.831   4.948  0.4922 -0.0876  0.6021
15598SOL    HW148010   6.586   1.850   4.928  0.0479  1.5798  0.0000
15598SOL    HW248011   6.465   1.777   4.875  0.6356  0.4888  0.1181
15599SOL     OW48012   6.592   2.926   4.055 -0.4853 -0.2021 -0.3069
15599SOL    HW148013   6.572   2.891   3.967  1.1371 -2.3678  0.0915
15599SOL    HW248014   6.612   3.018   4.040 -0.8021 -0.3809 -2.1318
15600SOL     OW48015   6.537   3.395   4.495  0.0211 -0.2702 -0.3972
15600SOL    HW148016   6.557   3.453   4.569 -0.4157 -0.1454 -0.3729
15600SOL    HW248017   6.609   3.408   4.434  1.0994 -1.3814  0.5951
15601SOL     OW48018   6.654   2.188   3.830  0.8543 -0.1853  0.4956
15601SOL    HW148019   6.628   2.121   3.767 -0.6336  0.2159  0.6609
15601SOL    HW248020   6.573   2.213   3.873  1.2929  2.0595  0.1145
15602SOL     OW48021   6.580   1.640   4.372  0.0797  0.2347 -0.0176
15602SOL    HW148022   6.593   1.732   4.393 -0.3113  0.1312  0.7070
15602SOL    HW248023   6.616   1.630   4.284 -0.3839  1.1984 -0.3309
15603SOL     OW48024   6.653   1.935   4.626 -0.4583 -0.0490  0.3268
15603SOL    HW148025   6.684   1.943   4.716  0.9609 -4.3280  0.4517
15603SOL    HW248026   6.728   1.962   4.572 -0.3181 -0.1922  0.4514
15604SOL     OW48027   5.342   2.807   4.341  0.4739 -0.1782  0.0766
15604SOL    HW148028   5.265   2.751   4.352  0.3620 -0.4496 -1.7160
15604SOL    HW248029   5.309   2.895   4.356 -0.3893 -0.2259 -1.3148
15605SOL     OW48030   6.803   3.387   3.690  0.3909 -0.0122 -0.0934
15605SOL    HW148031   6.836   3.307   3.731  0.3628  0.3152  0.5814
15605SOL    HW248032   6.768   3.358   3.606  2.5512 -0.3372 -0.9355
15606SOL     OW48033   5.762   2.599   5.927 -0.6960  0.2383 -0.1773
15606SOL    HW148034   5.732   2.558   5.846  0.4805  1.1376 -1.1048
15606SOL    HW248035   5.855   2.617   5.912 -0.5378  0.7261  1.2519
15607SOL     OW48036   5.844   2.304   6.896 -0.4848  0.0939  0.3266
15607SOL    HW148037   5.761   2.272   6.931 -0.6688  0.3071  0.0850
15607SOL    HW248038   5.876   2.365   6.963 -0.4207 -0.1463  0.5157
15608SOL     OW48039   5.407   2.342   6.337  0.0913  0.3202 -0.4471
15608SOL    HW148040   5.466   2.276   6.300  0.8995  0.8462 -0.1268
15608SOL    HW248041   5.322   2.297   6.344  0.4089 -0.3998 -1.0670
15609SOL     OW48042   6.084   3.297   6.952  0.2309 -0.3327 -0.3266
15609SOL    HW148043   6.158   3.357   6.960 -0.4719  0.5466 -0.2488
15609SOL    HW248044   6.122   3.210   6.968  1.3386  0.0351 -0.8285
15610SOL     OW48045   7.396   3.185   6.034  0.5087 -0.6706 -0.2520
15610SOL    HW148046   7.464   3.126   6.002  1.0191 -0.3717  0.2528
15610SOL    HW248047   7.318   3.129   6.044  0.0068 -0.5821 -2.9212
15611SOL     OW48048   6.605   2.517   6.060 -0.5210  0.1541 -0.1279
15611SOL    HW148049   6.694   2.551   6.055 -0.8445  0.9842 -0.6753
15611SOL    HW248050   6.584   2.518   6.153  0.1128 -0.2413  0.0234
15612SOL     OW48051   6.998   2.312   5.922 -0.1042 -0.0249  0.4937
15612SOL    HW148052   6.944   2.235   5.902 -0.5636  0.1758  0.9360
15612SOL    HW248053   7.074   2.276   5.967 -0.2143 -0.2456  0.5088
15613SOL     OW48054   6.350   3.145   6.899 -0.4626  0.2484 -0.4401
15613SOL    HW148055   6.275   3.102   6.859 -0.8822  0.9033 -0.3660
15613SOL    HW248056   6.399   3.181   6.824 -1.0983  1.2316 -0.3906
15614SOL     OW48057   6.692   2.457   7.069 -0.0615 -0.7631  0.3603
15614SOL    HW148058   6.724   2.516   7.000 -2.8294 -0.5518 -0.8745
15614SOL    HW248059   6.688   2.512   7.147 -0.7591  0.1801 -0.3141
15615SOL     OW48060   6.166   2.897   6.659 -0.7093 -0.5379  0.5486
15615SOL    HW148061   6.084   2.913   6.706 -1.3959 -0.5916 -0.5849
15615SOL    HW248062   6.149   2.929   6.570 -1.4749 -5.4607 -1.3811
15616SOL     OW48063   6.271   3.136   7.397  0.0036 -0.0112 -0.1104
15616SOL    HW148064   6.279   3.230   7.414 -2.5315  0.2032  0.3663
15616SOL    HW248065   6.201   3.130   7.331 -1.4388 -1.6043  1.4579
15617SOL     OW48066   5.939   2.923   6.802 -0.2171 -0.0998  0.3306
15617SOL    HW148067   5.889   2.965   6.732  2.6721  0.8393 -1.3734
15617SOL    HW248068   5.918   2.974   6.881 -0.2417  1.7399 -0.7995
15618SOL     OW48069   6.859   3.631   7.135 -0.0323  0.6374  0.1030
15618SOL    HW148070   6.833   3.617   7.044 -0.0006  0.8316  0.0634
15618SOL    HW248071   6.776   3.631   7.184  0.1124 -2.4440  0.4994
15619SOL     OW48072   6.017   2.722   6.945 -0.0974  0.7652  0.2002
15619SOL    HW148073   6.066   2.661   6.890  0.6336 -0.5335  2.1983
15619SOL    HW248074   5.988   2.790   6.884  2.9234  0.8467 -1.3543
15620SOL     OW48075   7.037   2.062   6.383  0.3613 -0.2673 -0.5163
15620SOL    HW148076   7.026   1.981   6.333 -1.6614  0.8827 -2.0852
15620SOL    HW248077   7.037   2.034   6.474  0.3261 -2.0742 -1.0249
15621SOL     OW48078   5.842   3.375   6.298 -0.3869 -0.6226  0.0955
15621SOL    HW148079   5.786   3.383   6.220 -0.7319 -2.1463  0.1636
15621SOL    HW248080   5.900   3.302   6.278 -0.2912 -0.8482  1.1725
15622SOL     OW48081   6.524   3.074   7.212 -0.1275  0.6128  0.0334
15622SOL    HW148082   6.510   3.167   7.193 -3.3596  0.3347  0.3823
15622SOL    HW248083   6.537   3.070   7.307 -1.5602  0.6406  0.2534
15623SOL     OW48084   5.517   3.058   6.532 -0.1455  0.1337 -0.0138
15623SOL    HW148085   5.447   3.062   6.597 -0.8989  1.5782 -0.8687
15623SOL    HW248086   5.473   3.060   6.448  0.9052  1.3057 -0.5760
15624SOL     OW48087   5.934   2.430   7.160  0.1883  0.2773  0.1551
15624SOL    HW148088   5.865   2.495   7.149  1.4340  1.8545  1.2698
15624SOL    HW248089   6.015   2.479   7.152  1.1751 -1.0065  1.7189
15625SOL     OW48090   5.922   3.518   7.276 -0.4778 -0.4715  0.1041
15625SOL    HW148091   5.891   3.468   7.201 -1.9812 -1.2954  1.2180
15625SOL    HW248092   5.849   3.576   7.297 -0.1695 -0.4251  1.0844
15626SOL     OW48093   5.919   2.863   6.394 -0.6573  0.3405 -0.0509
15626SOL    HW148094   5.859   2.861   6.319  0.0096 -0.2621 -0.5846
15626SOL    HW248095   5.874   2.916   6.459 -0.5712  2.2417 -1.4634
15627SOL     OW48096   7.164   2.002   6.892  0.8669 -0.1364 -0.6309
15627SOL    HW148097   7.149   1.928   6.951 -1.2401  0.6222 -0.1435
15627SOL    HW248098   7.252   2.033   6.915  0.3002 -0.1503  1.8040
15628SOL     OW48099   5.493   2.589   5.984  0.1628 -0.1224  0.3583
15628SOL    HW148100   5.474   2.495   5.986  0.5119 -0.1839  1.3375
15628SOL    HW248101   5.587   2.594   5.967  0.3708 -0.0004  1.4547
15629SOL     OW48102   7.298   3.491   5.577 -0.2319 -0.1816 -0.1862
15629SOL    HW148103   7.319   3.563   5.518 -0.0364  1.4558  1.7823
15629SOL    HW248104   7.377   3.479   5.630 -0.4088 -1.5869 -0.2101
15630SOL     OW48105   5.269   3.267   6.351 -0.8306  0.2525 -0.2252
15630SOL    HW148106   5.181   3.228   6.346 -0.2109 -1.1299 -0.6725
15630SOL    HW248107   5.281   3.289   6.443 -0.5270 -2.2516  0.3817
15631SOL     OW48108   7.253   2.505   6.198  0.3416  0.6927 -0.0376
15631SOL    HW148109   7.301   2.514   6.116 -1.0983  0.2452 -0.9521
15631SOL    HW248110   7.321   2.507   6.265  1.6578 -0.0375 -1.2912
15632SOL     OW48111   7.252   2.969   6.175 -0.0073  0.2962 -1.0830
15632SOL    HW148112   7.331   2.972   6.227 -0.5109  0.7459 -0.3279
15632SOL    HW248113   7.210   2.886   6.198 -0.0725  0.3482 -1.0153
15633SOL     OW48114   5.669   2.537   7.168 -0.8575  0.2958 -0.3161
15633SOL    HW148115   5.637   2.448   7.156  0.9883 -0.4905  0.2307
15633SOL    HW248116   5.629   2.566   7.250 -0.6005 -0.4798  0.0978
15634SOL     OW48117   6.612   3.127   6.337  0.3050 -0.2216 -0.3914
15634SOL    HW148118   6.631   3.216   6.308  0.7127 -0.2478 -0.2174
15634SOL    HW248119   6.517   3.123   6.343  0.0688 -0.7090 -3.2545
15635SOL     OW48120   6.830   2.809   7.063  0.0676 -0.0400 -0.0415
15635SOL    HW148121   6.792   2.769   7.141  0.7551  0.1637  0.4070
15635SOL    HW248122   6.755   2.844   7.015 -0.2857  0.9679  1.1771
15636SOL     OW48123   5.829   1.806   6.434 -0.1204  0.5510  0.2363
15636SOL    HW148124   5.870   1.867   6.495  2.0301  1.0544 -1.5934
15636SOL    HW248125   5.895   1.791   6.367 -1.8771 -1.0738 -1.2421
15637SOL     OW48126   5.447   3.265   6.927 -0.3912 -0.5166 -0.1089
15637SOL    HW148127   5.532   3.225   6.914  0.0547  0.4123 -0.1266
15637SOL    HW248128   5.386   3.208   6.880  0.4313 -0.3275 -1.4601
15638SOL     OW48129   7.332   2.668   5.853  0.0120 -0.1792  0.5460
15638SOL    HW148130   7.373   2.621   5.926 -1.1278 -0.2502  1.1767
15638SOL    HW248131   7.253   2.617   5.834  0.6260 -0.5491 -1.2152
15639SOL     OW48132   7.085   3.612   7.273  0.7875 -0.0771  0.6002
15639SOL    HW148133   7.140   3.669   7.219 -1.1463 -0.0310 -1.4459
15639SOL    HW248134   6.998   3.617   7.233 -0.6508 -0.5244  3.4005
15640SOL     OW48135   6.290   2.155   7.119  0.0169 -0.0916  0.0892
15640SOL    HW148136   6.306   2.191   7.031  0.3110 -0.8441 -0.1669
15640SOL    HW248137   6.237   2.077   7.104 -2.0766  1.1009  0.7623
15641SOL     OW48138   6.835   3.019   6.496  0.2182 -0.0016 -0.7919
15641SOL    HW148139   6.752   3.044   6.455 -0.3077  0.2600  0.4059
15641SOL    HW248140   6.900   3.035   6.427 -0.4916  1.5429 -1.1709
15642SOL     OW48141   7.264   3.963   6.044 -0.1658 -0.2765  0.4447
15642SOL    HW148142   7.261   3.919   6.129  2.1708 -0.6874  0.3727
15642SOL    HW248143   7.259   3.892   5.980  1.8365 -0.3531  0.3160
15643SOL     OW48144   6.195   2.280   6.231 -0.1536  0.1974  0.8157
15643SOL    HW148145   6.154   2.318   6.153  1.3536  2.2594  0.9455
15643SOL    HW248146   6.122   2.247   6.283 -1.2163 -1.2202 -1.4089
15644SOL     OW48147   7.016   2.080   6.675 -0.0926 -0.2790 -0.2002
15644SOL    HW148148   7.059   2.156   6.637 -0.9194  0.0656 -0.4666
15644SOL    HW248149   7.077   2.049   6.742  0.1835  0.7094  0.0200
15645SOL     OW48150   7.156   3.522   6.053 -0.3826 -0.0260  0.3141
15645SOL    HW148151   7.207   3.446   6.081  0.0678  0.2620  0.2997
15645SOL    HW248152   7.077   3.486   6.014  1.1954 -0.6492 -2.5877
15646SOL     OW48153   6.187   2.603   6.767 -0.2394  0.0460 -0.3394
15646SOL    HW148154   6.230   2.689   6.769  0.7988 -0.4539  1.0962
15646SOL    HW248155   6.256   2.541   6.790 -1.3626 -0.9682  0.4787
15647SOL     OW48156   7.400   2.446   7.370  0.1967 -0.2675  0.1886
15647SOL    HW148157   7.307   2.460   7.386  0.4567 -1.0719  2.8557
15647SOL    HW248158   7.409   2.351   7.364  1.1292 -0.3724  2.4720
15648SOL     OW48159   6.427   2.497   6.895 -0.1416 -0.1037 -0.0239
15648SOL    HW148160   6.520   2.487   6.915 -0.1957 -1.1701 -0.2450
15648SOL    HW248161   6.411   2.433   6.826 -1.3288 -0.8408  0.9133
15649SOL     OW48162   6.912   1.833   6.660  0.3098  0.0752  0.0687
15649SOL    HW148163   6.969   1.910   6.661  0.6551 -0.1769 -0.2410
15649SOL    HW248164   6.905   1.809   6.568  0.8464 -0.7370  0.2314
15650SOL     OW48165   6.635   2.364   5.848  0.0658  0.3976  0.3892
15650SOL    HW148166   6.660   2.278   5.880 -0.4924  0.1111  0.0574
15650SOL    HW248167   6.622   2.416   5.928  0.9545  0.3520  0.5817
15651SOL     OW48168   5.778   3.017   6.573  0.1008  0.1819 -0.3926
15651SOL    HW148169   5.686   3.003   6.552  0.5033 -0.1370 -2.1504
15651SOL    HW248170   5.785   3.111   6.590 -0.2852  0.5361 -1.9577
15652SOL     OW48171   5.342   3.765   7.401 -0.1714  0.1975  0.1027
15652SOL    HW148172   5.371   3.713   7.327  0.0353  0.3561  0.0694
15652SOL    HW248173   5.251   3.739   7.416 -0.8823  1.6048 -1.4771
15653SOL     OW48174   6.225   1.964   6.179 -0.0144 -0.1080 -0.2226
15653SOL    HW148175   6.312   1.943   6.143  0.1515  1.1166 -0.5881
15653SOL    HW248176   6.175   1.994   6.103 -0.2803  0.6273  0.2354
15654SOL     OW48177   7.440   2.374   7.032 -0.0331 -1.0454  0.1431
15654SOL    HW148178   7.437   2.468   7.011  0.8106 -0.7485  1.2620
15654SOL    HW248179   7.352   2.343   7.011 -0.3579  0.0124 -0.1587
15655SOL     OW48180   7.310   2.928   5.894  0.3229 -0.1890 -0.1385
15655SOL    HW148181   7.294   2.913   5.987  1.3910  0.1328  0.1123
15655SOL    HW248182   7.323   2.840   5.858  0.6809 -0.2686  0.1763
15656SOL     OW48183   6.361   2.292   6.555  0.1742  0.2507  0.3301
15656SOL    HW148184   6.318   2.222   6.506  0.9403 -0.0990  0.1327
15656SOL    HW248185   6.297   2.363   6.557  0.0984  0.2573 -1.1506
15657SOL     OW48186   6.427   3.889   6.095 -0.0613 -0.0952  0.5447
15657SOL    HW148187   6.368   3.933   6.156 -0.4589 -0.8296  0.7003
15657SOL    HW248188   6.370   3.860   6.024  0.4138  0.8552 -0.2486
15658SOL     OW48189   6.334   3.087   6.348 -0.0818  0.1723 -0.4021
15658SOL    HW148190   6.320   2.994   6.328 -1.1301  0.1728  0.2738
15658SOL    HW248191   6.296   3.134   6.274 -0.7245  0.0847 -0.1349
15659SOL     OW48192   7.655   2.677   6.163 -0.2123 -0.1937  0.0333
15659SOL    HW148193   7.712   2.723   6.225  0.9809 -0.7812 -0.5961
15659SOL    HW248194   7.595   2.627   6.218  1.5723 -1.6167  0.7441
15660SOL     OW48195   7.366   3.514   6.958  0.3679 -0.2208 -0.1714
15660SOL    HW148196   7.424   3.479   6.890 -0.2130 -0.4421 -0.5599
15660SOL    HW248197   7.278   3.484   6.932  0.0464  0.3333  0.2620
15661SOL     OW48198   5.398   3.024   6.299 -0.3459 -0.1439  0.2303
15661SOL    HW148199   5.406   3.120   6.296  1.7651 -0.2872 -0.4374
15661SOL    HW248200   5.316   3.005   6.255 -0.9767  1.3742  0.6843
15662SOL     OW48201   7.028   2.340   6.273 -0.3274  0.1512 -0.1403
15662SOL    HW148202   7.115   2.371   6.250  0.9082 -0.5732  3.0811
15662SOL    HW248203   7.039   2.246   6.289 -1.1059  0.4318  2.4730
15663SOL     OW48204   6.008   3.126   7.306  0.1756 -0.1829 -0.0747
15663SOL    HW148205   5.933   3.181   7.284  0.1469  0.1575  0.8621
15663SOL    HW248206   5.974   3.062   7.368  0.6902  0.0580  0.4590
15664SOL     OW48207   6.447   4.088   5.871  0.2241  0.4728  0.0601
15664SOL    HW148208   6.367   4.112   5.824  0.0570  0.8466  0.5276
15664SOL    HW248209   6.416   4.049   5.952  0.5177  0.6694  0.2687
15665SOL     OW48210   5.617   2.171   7.175  0.0910 -0.1958 -0.4002
15665SOL    HW148211   5.557   2.234   7.215 -0.5372  0.2585 -1.9906
15665SOL    HW248212   5.571   2.087   7.183 -0.7466  0.1294 -1.4903
15666SOL     OW48213   7.448   3.076   5.640  0.0542 -0.3898  0.1794
15666SOL    HW148214   7.533   3.111   5.667 -0.6092  0.8071  0.7859
15666SOL    HW248215   7.414   3.033   5.719 -0.3943  0.1286  0.2705
15667SOL     OW48216   6.284   3.375   5.888  0.2174  0.0455  0.3616
15667SOL    HW148217   6.304   3.401   5.798 -1.1825  1.3010  0.3779
15667SOL    HW248218   6.241   3.452   5.926  0.5123 -0.5722  2.0142
15668SOL     OW48219   6.777   1.766   5.812 -0.1155  0.1720  0.5741
15668SOL    HW148220   6.769   1.844   5.866 -0.4189  1.2259 -0.9074
15668SOL    HW248221   6.699   1.769   5.755  0.9000 -0.0802 -0.8877
15669SOL     OW48222   6.095   4.078   6.572  0.0013 -0.3187  0.0846
15669SOL    HW148223   6.043   4.069   6.652  0.4401 -0.3381  0.3748
15669SOL    HW248224   6.033   4.062   6.501 -0.4295 -0.1336  0.4149
15670SOL     OW48225   6.899   3.417   5.919 -0.4698  0.2391  0.4478
15670SOL    HW148226   6.935   3.421   5.830 -2.1025  0.3717 -0.2605
15670SOL    HW248227   6.874   3.325   5.930 -2.5550  0.6409 -0.2750
15671SOL     OW48228   5.814   2.316   5.976  0.0800 -0.1919  0.1659
15671SOL    HW148229   5.775   2.353   6.056 -0.1402  0.4425 -0.2306
15671SOL    HW248230   5.753   2.341   5.906  1.9614  2.2153 -0.7383
15672SOL     OW48231   7.187   1.744   6.978  0.8716  0.2983 -0.3746
15672SOL    HW148232   7.187   1.685   6.903  0.2436 -0.2790  0.0532
15672SOL    HW248233   7.247   1.703   7.040  1.1203  0.5846 -0.4278
15673SOL     OW48234   6.075   1.939   5.937  0.0581  0.0742  0.4854
15673SOL    HW148235   6.029   1.887   5.870  1.1123  0.6949 -0.7678
15673SOL    HW248236   6.154   1.970   5.893  1.6647 -0.8888  2.5388
15674SOL     OW48237   6.709   2.051   6.902 -0.0769  0.9107 -0.2420
15674SOL    HW148238   6.741   2.140   6.892 -0.3366  1.2671  1.6285
15674SOL    HW248239   6.711   2.014   6.814  2.5091  1.9011 -0.6802
15675SOL     OW48240   7.030   3.180   6.763 -0.1871 -0.0622 -0.1844
15675SOL    HW148241   7.019   3.186   6.858  1.4986  0.7715  0.0035
15675SOL    HW248242   7.004   3.266   6.731  0.8850  0.2617 -0.2485
15676SOL     OW48243   7.177   2.325   6.910  0.5080  0.0134 -0.1566
15676SOL    HW148244   7.092   2.307   6.949  0.4903  1.7366  0.6948
15676SOL    HW248245   7.160   2.327   6.815 -0.8658  2.2179  0.0501
15677SOL     OW48246   6.699   3.023   6.733 -0.5621 -0.1249  0.3281
15677SOL    HW148247   6.760   3.003   6.662  0.2017  0.0280  0.9218
15677SOL    HW248248   6.637   3.085   6.695 -0.0274  0.1280 -0.1431
15678SOL     OW48249   6.230   2.536   6.363 -0.4455 -0.4137 -0.5917
15678SOL    HW148250   6.322   2.512   6.374 -0.1490  0.1512 -1.7152
15678SOL    HW248251   6.190   2.458   6.323 -0.6764 -0.9977  0.7124
15679SOL     OW48252   5.930   2.204   6.357 -0.1480 -0.0710  0.8812
15679SOL    HW148253   5.896   2.124   6.317  0.2549  1.3153 -2.5619
15679SOL    HW248254   5.858   2.266   6.351  0.7128  0.8833 -0.1109
15680SOL     OW48255   7.316   2.505   5.464  0.5608 -0.4796 -0.1586
15680SOL    HW148256   7.247   2.491   5.399 -1.2334  3.8129  0.5084
15680SOL    HW248257   7.395   2.520   5.412 -0.2742  0.2664 -1.2497
15681SOL     OW48258   5.787   1.589   6.221 -0.1057 -0.4718  0.3520
15681SOL    HW148259   5.870   1.632   6.241  0.8260 -2.5576  1.2030
15681SOL    HW248260   5.721   1.656   6.238  1.3166  0.8504  0.8808
15682SOL     OW48261   6.291   2.040   6.457  0.2158 -0.0814  0.2849
15682SOL    HW148262   6.314   1.948   6.467 -0.5312 -0.1922  1.0971
15682SOL    HW248263   6.245   2.045   6.373  0.2249 -0.4455  0.2590
15683SOL     OW48264   6.817   2.580   6.816  0.3460  0.2767 -0.7728
15683SOL    HW148265   6.899   2.625   6.840  0.0750 -0.3933  1.7620
15683SOL    HW248266   6.768   2.644   6.766  0.6331  2.3001  1.3817
15684SOL     OW48267   7.041   3.061   5.788 -0.5785  0.2667 -0.0992
15684SOL    HW148268   7.128   3.026   5.808 -0.3569  0.5558 -0.5485
15684SOL    HW248269   7.009   3.007   5.716 -1.1201 -0.3702  0.5993
15685SOL     OW48270   6.301   3.236   6.591 -0.3501  0.1834 -0.6048
15685SOL    HW148271   6.206   3.244   6.597 -0.3761 -0.9971  1.6653
15685SOL    HW248272   6.315   3.169   6.523 -1.3778 -2.1489  1.3163
15686SOL     OW48273   6.579   3.843   5.816 -0.3041 -0.0369 -0.0897
15686SOL    HW148274   6.510   3.776   5.819 -0.4157  0.0769 -0.0883
15686SOL    HW248275   6.531   3.926   5.818 -0.1484  0.0417  0.3118
15687SOL     OW48276   6.060   2.413   6.016  0.1365 -0.6241  0.3700
15687SOL    HW148277   5.972   2.383   5.993  0.1903 -1.7612  1.4776
15687SOL    HW248278   6.048   2.505   6.040 -0.9722 -1.0159  1.4916
15688SOL     OW48279   5.439   2.732   6.496 -0.3276 -0.3090  0.1706
15688SOL    HW148280   5.360   2.693   6.533 -0.3110  1.1733  1.8943
15688SOL    HW248281   5.418   2.824   6.482  0.6943 -0.1627 -0.5721
15689SOL     OW48282   6.321   2.204   6.855  0.2234  0.9191  0.5537
15689SOL    HW148283   6.231   2.223   6.827  0.2130  2.0744  1.3000
15689SOL    HW248284   6.369   2.189   6.774 -0.6900  0.0032  0.1555
15690SOL     OW48285   6.383   2.183   6.038  0.2493 -0.8678 -0.8420
15690SOL    HW148286   6.317   2.224   6.095 -0.4945 -1.8662 -0.9675
15690SOL    HW248287   6.450   2.151   6.098  0.4832 -0.1267 -0.6908
15691SOL     OW48288   6.513   2.175   6.282 -0.4292  0.1441 -0.3581
15691SOL    HW148289   6.447   2.201   6.346  1.5298  1.8430  1.0926
15691SOL    HW248290   6.541   2.088   6.310  0.7417  1.0553  1.4983
15692SOL     OW48291   7.111   3.421   6.894  0.4140 -0.2428  0.7540
15692SOL    HW148292   7.058   3.389   6.966  1.5817  0.8548  2.1883
15692SOL    HW248293   7.051   3.473   6.840 -0.7025 -1.9320  0.3007
15693SOL     OW48294   7.465   2.579   6.341  0.3277 -0.3625  0.1001
15693SOL    HW148295   7.505   2.517   6.401  1.0348  0.0203  0.0316
15693SOL    HW248296   7.415   2.638   6.397  1.1993  0.1552  0.3584
15694SOL     OW48297   7.490   2.510   6.027  0.7238  0.2878  0.3864
15694SOL    HW148298   7.548   2.578   6.061  0.6107  1.2221 -1.2136
15694SOL    HW248299   7.547   2.434   6.015  0.6125 -0.4295  3.4086
15695SOL     OW48300   6.580   3.376   6.016 -0.3420 -0.1231 -0.4776
15695SOL    HW148301   6.527   3.433   5.959 -1.8222 -0.0249  0.9272
15695SOL    HW248302   6.654   3.351   5.962 -1.5133  0.2275 -2.3524
15696SOL     OW48303   7.147   3.249   6.449  0.5392 -0.4955 -0.0348
15696SOL    HW148304   7.078   3.256   6.383 -0.0635 -3.1140  0.2052
15696SOL    HW248305   7.227   3.234   6.398  0.2642 -1.3209 -0.2454
15697SOL     OW48306   7.077   2.089   5.733  0.0035  0.1149  0.0275
15697SOL    HW148307   7.129   2.169   5.733  1.5032 -0.8065 -1.2029
15697SOL    HW248308   7.141   2.019   5.746 -0.8173 -1.0836 -1.8716
15698SOL     OW48309   5.843   2.021   6.084  0.4037 -0.5810  0.1382
15698SOL    HW148310   5.915   1.974   6.043 -0.0142  0.0315 -1.3493
15698SOL    HW248311   5.851   2.111   6.053  0.2993  0.0171  1.7380
15699SOL     OW48312   7.522   3.108   7.404 -0.4770  0.0922  0.0796
15699SOL    HW148313   7.456   3.052   7.365 -0.5251 -0.4490  0.9128
15699SOL    HW248314   7.475   3.186   7.432 -0.3427  0.7661 -1.4473
15700SOL     OW48315   6.707   3.219   6.965  0.0859 -0.0058 -0.6737
15700SOL    HW148316   6.683   3.191   6.876  1.0328  4.4557 -2.6038
15700SOL    HW248317   6.627   3.253   7.002 -0.3427 -2.0052  0.3806
15701SOL     OW48318   7.534   3.455   7.194 -0.0106  0.1223  0.6649
15701SOL    HW148319   7.476   3.445   7.119  1.4148 -0.0543 -0.4547
15701SOL    HW248320   7.475   3.466   7.269 -1.4506  1.3463 -0.6005
15702SOL     OW48321   6.966   2.833   6.732 -0.1234 -0.5503 -0.6380
15702SOL    HW148322   6.913   2.871   6.802 -0.4831 -1.9871 -0.0910
15702SOL    HW248323   6.975   2.903   6.667  1.1160  1.1636  1.2970
15703SOL     OW48324   6.940   3.008   6.172  0.7466  0.1194 -0.7311
15703SOL    HW148325   6.966   3.097   6.151  0.7129  0.5042  0.7856
15703SOL    HW248326   7.022   2.961   6.187  0.7122  0.3575  0.2391
15704SOL     OW48327   6.873   1.616   6.880 -0.2561 -0.0640 -0.8606
15704SOL    HW148328   6.830   1.684   6.932 -0.7672  0.2091 -1.6252
15704SOL    HW248329   6.896   1.659   6.798 -0.2053 -0.7070 -1.1882
15705SOL     OW48330   6.375   2.877   7.460 -0.3386  0.3022  0.0490
15705SOL    HW148331   6.439   2.938   7.495 -0.9110  0.2491  1.2315
15705SOL    HW248332   6.338   2.922   7.383  1.4584  0.1019 -0.9884
15706SOL     OW48333   6.159   2.947   6.046  0.2867  0.7481  0.6172
15706SOL    HW148334   6.196   2.870   6.089  0.4663  0.9929  0.9037
15706SOL    HW248335   6.231   2.983   5.995 -0.4554 -0.7693 -1.6721
15707SOL     OW48336   5.978   2.597   6.601 -0.2385 -0.1042 -0.2113
15707SOL    HW148337   5.971   2.685   6.564 -0.2080 -0.6050 -1.4657
15707SOL    HW248338   6.059   2.599   6.652 -0.3202  0.6318 -0.0982
15708SOL     OW48339   7.082   2.154   7.151 -0.1947  0.1775  0.2465
15708SOL    HW148340   7.053   2.129   7.063 -1.1367  3.3298 -0.4718
15708SOL    HW248341   7.001   2.176   7.197  0.2521 -1.7016  2.1128
15709SOL     OW48342   5.479   3.537   6.840 -0.0798  0.0918 -0.4204
15709SOL    HW148343   5.439   3.452   6.863  2.1782 -1.1369 -0.8111
15709SOL    HW248344   5.531   3.519   6.762  1.9026  1.3822  0.5338
15710SOL     OW48345   6.197   2.810   6.347 -0.3808  0.4759  0.4456
15710SOL    HW148346   6.105   2.819   6.371 -0.6545 -0.9119  0.0186
15710SOL    HW248347   6.212   2.716   6.344  1.3403  0.6605  1.5298
15711SOL     OW48348   6.591   2.409   6.522  0.4567 -0.3380  0.0887
15711SOL    HW148349   6.501   2.385   6.541  0.7290 -1.2276  0.2745
15711SOL    HW248350   6.584   2.467   6.446 -0.1624 -1.7426 -0.9766
15712SOL     OW48351   7.021   2.874   5.577 -0.5397  0.3378 -0.0098
15712SOL    HW148352   6.967   2.815   5.524  0.2509 -1.8241  1.4410
15712SOL    HW248353   7.105   2.829   5.585 -0.7552  0.2507  3.4413
15713SOL     OW48354   7.227   3.016   6.601  0.3203  0.0807  0.2079
15713SOL    HW148355   7.242   3.100   6.558 -0.6820 -0.5333 -1.4473
15713SOL    HW248356   7.148   3.031   6.654 -1.4032 -0.4139 -2.0580
15714SOL     OW48357   6.761   1.966   6.007  0.5864  0.4354 -0.0878
15714SOL    HW148358   6.770   2.039   6.069 -1.6723  1.2246 -0.5724
15714SOL    HW248359   6.770   2.007   5.921  0.1679 -0.0121 -0.3489
15715SOL     OW48360   5.980   3.505   6.757  0.0945 -0.1651  0.4258
15715SOL    HW148361   6.009   3.419   6.787 -1.6481 -1.2423 -0.8255
15715SOL    HW248362   5.959   3.493   6.665  0.0398  1.6755  0.1618
15716SOL     OW48363   6.103   2.636   7.169 -0.0173  0.2947 -0.5484
15716SOL    HW148364   6.198   2.649   7.179 -0.2197  1.0770  0.5246
15716SOL    HW248365   6.082   2.679   7.086  0.6399 -0.3193 -1.0490
15717SOL     OW48366   7.412   2.633   6.900  0.0030 -0.2073 -0.1937
15717SOL    HW148367   7.349   2.706   6.903 -1.7049 -1.4311 -2.5339
15717SOL    HW248368   7.489   2.670   6.858 -0.0447  0.7330  0.5082
15718SOL     OW48369   6.759   1.820   7.043 -0.2482  0.3509 -0.2054
15718SOL    HW148370   6.743   1.904   6.999  1.5392  0.1294 -1.3686
15718SOL    HW248371   6.725   1.833   7.132  0.1648  2.3766 -0.3000
15719SOL     OW48372   5.958   1.995   7.427 -0.2177 -0.6351  0.4400
15719SOL    HW148373   6.008   2.009   7.507 -0.6086  1.0073  0.4361
15719SOL    HW248374   5.986   2.066   7.368  0.1093 -1.8360 -0.9199
15720SOL     OW48375   6.594   2.873   6.936  0.2378 -0.0638  0.2084
15720SOL    HW148376   6.623   2.937   6.872  0.3427  0.8646  1.1649
15720SOL    HW248377   6.523   2.917   6.983 -0.3716 -1.0234  0.2191
15721SOL     OW48378   6.886   2.573   6.352  0.0838  0.1021  0.1961
15721SOL    HW148379   6.917   2.487   6.323 -1.3852 -0.9825  1.6776
15721SOL    HW248380   6.794   2.575   6.328 -0.0484  1.0107  0.7213
15722SOL     OW48381   6.429   2.324   5.673 -0.5477 -0.4460 -0.6354
15722SOL    HW148382   6.355   2.384   5.676 -0.5638 -0.4740 -0.4247
15722SOL    HW248383   6.487   2.354   5.743 -0.4413 -0.5270 -0.6891
15723SOL     OW48384   5.779   2.012   6.962 -0.1457  0.2191 -0.2458
15723SOL    HW148385   5.761   2.025   7.055  0.8952  0.3626 -0.0528
15723SOL    HW248386   5.702   1.966   6.929  0.0543 -1.0840  0.9934
15724SOL     OW48387   5.723   3.000   7.018  0.3696  0.5083  0.3442
15724SOL    HW148388   5.759   3.070   7.072  0.3323  0.4411  0.4540
15724SOL    HW248389   5.692   3.045   6.939  1.0187  0.5286  0.0907
15725SOL     OW48390   6.750   2.337   6.735  0.1084  0.3629 -0.9413
15725SOL    HW148391   6.684   2.348   6.666  0.4206  1.0630 -1.1385
15725SOL    HW248392   6.783   2.426   6.751 -3.1902  1.1403  3.4085
15726SOL     OW48393   7.306   3.195   7.106 -0.1542 -0.2460 -0.5768
15726SOL    HW148394   7.382   3.214   7.050  0.3529  0.1488  0.2252
15726SOL    HW248395   7.233   3.189   7.045  0.1138  1.6072 -1.1595
15727SOL     OW48396   5.549   2.315   6.581 -0.5635  0.0202 -0.1616
15727SOL    HW148397   5.523   2.322   6.489 -0.7903 -0.6852 -0.1596
15727SOL    HW248398   5.598   2.395   6.598 -4.4942  2.5783  0.4215
15728SOL     OW48399   7.073   1.818   5.968  0.2821 -0.1664 -0.2961
15728SOL    HW148400   6.993   1.864   5.993  0.3576  0.3904 -1.0444
15728SOL    HW248401   7.112   1.874   5.901  0.4589 -1.2533 -1.1089
15729SOL     OW48402   7.127   2.349   6.627  0.7274 -0.5443 -0.5007
15729SOL    HW148403   7.075   2.419   6.666  0.2896 -0.3713 -1.3787
15729SOL    HW248404   7.124   2.366   6.533  0.1402 -2.0652 -0.7796
15730SOL     OW48405   6.647   3.764   7.285  0.6734  0.4336 -0.4132
15730SOL    HW148406   6.580   3.753   7.217  0.5556  1.1804 -0.4193
15730SOL    HW248407   6.603   3.740   7.366 -0.5977  3.8576  0.0533
15731SOL     OW48408   7.861   3.277   6.817 -0.0891  0.0224  0.1875
15731SOL    HW148409   7.846   3.320   6.733  1.8877  0.5913  0.0914
15731SOL    HW248410   7.848   3.345   6.882 -0.1971 -0.0574  0.2499
15732SOL     OW48411   5.933   2.705   7.422  0.3708 -0.7154  0.0888
15732SOL    HW148412   6.018   2.703   7.466  0.1030  0.4020  0.6947
15732SOL    HW248413   5.952   2.679   7.332  1.2822 -0.8995  0.3235
15733SOL     OW48414   7.258   1.886   5.773  0.0314  0.1466 -0.9069
15733SOL    HW148415   7.353   1.880   5.780 -0.1063 -1.6924  0.0460
15733SOL    HW248416   7.240   1.864   5.682  0.6429  3.5219 -1.9476
15734SOL     OW48417   6.937   2.444   5.586  0.3899 -0.9591  0.2962
15734SOL    HW148418   6.855   2.398   5.571 -0.4135  0.1651  1.0300
15734SOL    HW248419   6.966   2.471   5.499 -1.7911  1.5143  0.2093
15735SOL     OW48420   6.695   3.358   6.261  0.3317 -0.0852 -0.1549
15735SOL    HW148421   6.667   3.369   6.170  1.2468  1.3885 -0.2910
15735SOL    HW248422   6.654   3.431   6.308  1.6808  0.5141  0.1506
15736SOL     OW48423   6.083   2.335   6.535  0.1623  0.3015  0.3894
15736SOL    HW148424   6.019   2.279   6.491 -0.4658  0.8897  0.5255
15736SOL    HW248425   6.047   2.423   6.526  0.8467  0.6151  0.6741
15737SOL     OW48426   5.692   2.629   6.372  0.0882 -0.6574  0.2350
15737SOL    HW148427   5.612   2.679   6.386  0.0347 -0.5219 -0.5385
15737SOL    HW248428   5.711   2.591   6.458 -0.9265 -0.8822  0.3701
15738SOL     OW48429   6.997   2.542   7.181  0.5142 -0.1459  0.1196
15738SOL    HW148430   6.938   2.610   7.213  0.9303  0.3431 -0.1208
15738SOL    HW248431   6.976   2.465   7.232  0.3273  0.2850  0.7001
15739SOL     OW48432   6.872   1.997   7.334 -0.5344  0.0265  0.5533
15739SOL    HW148433   6.908   1.942   7.264  3.1734 -1.5839  3.4038
15739SOL    HW248434   6.784   1.964   7.348 -1.5640  0.5689 -3.3176
15740SOL     OW48435   5.294   3.198   5.466  0.3265  0.1379  0.4675
15740SOL    HW148436   5.384   3.226   5.450  0.4045  0.1064  0.8436
15740SOL    HW248437   5.293   3.105   5.443  0.1974  0.3124 -0.2720
15741SOL     OW48438   6.037   3.188   6.485  0.4712 -0.2674  0.5218
15741SOL    HW148439   6.015   3.134   6.410  2.5549 -0.5468  0.0541
15741SOL    HW248440   6.036   3.278   6.452  1.6658 -0.4121  0.0664
15742SOL     OW48441   6.503   3.308   6.744 -0.1785  1.0122  0.4789
15742SOL    HW148442   6.425   3.295   6.690 -0.4917  2.5626  0.4964
15742SOL    HW248443   6.538   3.392   6.714  2.9309 -0.7114 -1.2729
15743SOL     OW48444   6.619   2.726   6.671 -0.1658 -0.1888  0.0627
15743SOL    HW148445   6.604   2.758   6.760 -0.5088 -1.1758  0.3772
15743SOL    HW248446   6.531   2.713   6.635 -0.0325 -0.3604 -0.2046
15744SOL     OW48447   5.196   2.594   6.102 -0.9232  0.1734  0.2588
15744SOL    HW148448   5.286   2.566   6.119 -0.9816 -0.1083  0.1045
15744SOL    HW248449   5.149   2.575   6.184 -0.8748  0.1768  0.2870
15745SOL     OW48450   6.016   2.390   7.528 -0.4615 -0.5002  0.2058
15745SOL    HW148451   6.065   2.469   7.548 -0.2945 -0.8307  1.1593
15745SOL    HW248452   6.061   2.353   7.452  0.3122 -0.3951  0.5965
15746SOL     OW48453   7.233   2.837   6.965 -0.0927  0.0123 -0.2348
15746SOL    HW148454   7.194   2.887   7.037  1.9106  0.4859  0.5778
15746SOL    HW248455   7.166   2.771   6.943 -0.9466  0.1508  1.7389
15747SOL     OW48456   6.185   2.445   5.762  0.1837 -1.0593  0.2442
15747SOL    HW148457   6.160   2.384   5.693 -0.1212 -0.3707 -0.2757
15747SOL    HW248458   6.132   2.419   5.837 -2.0041  0.1851 -0.7506
15748SOL     OW48459   8.007   2.022   6.305 -0.2236 -0.2783 -0.6555
15748SOL    HW148460   8.009   2.056   6.394  1.6308 -1.4698 -0.1866
15748SOL    HW248461   7.946   1.948   6.309  1.3254 -1.5703  0.1688
15749SOL     OW48462   5.784   3.218   7.165  0.0954 -0.3675  0.2367
15749SOL    HW148463   5.757   3.290   7.108  0.5768 -1.5186 -1.5492
15749SOL    HW248464   5.708   3.202   7.221  0.2223  1.9324  1.1687
15750SOL     OW48465   6.719   2.066   6.583  0.2242 -0.3807 -0.0205
15750SOL    HW148466   6.797   2.023   6.618  1.4278  1.4059 -0.3715
15750SOL    HW248467   6.747   2.156   6.566 -1.6295  0.0283 -1.1672
15751SOL     OW48468   6.406   3.714   7.094 -0.2199 -0.4368 -0.2389
15751SOL    HW148469   6.327   3.725   7.147 -0.2295  0.5406 -0.4273
15751SOL    HW248470   6.374   3.715   7.004  0.0248  0.2485 -0.3253
15752SOL     OW48471   5.514   2.559   5.603 -0.3494 -0.5316 -0.2368
15752SOL    HW148472   5.577   2.586   5.537 -1.2691  0.5332 -0.7223
15752SOL    HW248473   5.429   2.583   5.565 -1.2248 -3.4810 -0.3805
15753SOL     OW48474   5.596   2.746   6.999  0.0422 -0.2097 -0.5552
15753SOL    HW148475   5.606   2.826   7.052 -0.3979 -0.3764 -0.2115
15753SOL    HW248476   5.637   2.677   7.052  1.0336 -0.0934 -1.1619
15754SOL     OW48477   6.624   2.641   6.310  0.1108  0.8786  0.1738
15754SOL    HW148478   6.631   2.708   6.243  2.0351 -0.5575 -1.1765
15754SOL    HW248479   6.617   2.689   6.392 -0.9006  2.6813 -0.9053
15755SOL     OW48480   6.813   2.127   5.771 -0.0644  0.8002  0.5734
15755SOL    HW148481   6.782   2.182   5.699 -1.4810  0.1095  0.6115
15755SOL    HW248482   6.906   2.113   5.753 -0.0992  1.7172 -0.3970
15756SOL     OW48483   7.289   3.724   7.126 -0.2031 -0.6247  0.2070
15756SOL    HW148484   7.367   3.775   7.146 -0.4437 -0.0610 -0.2710
15756SOL    HW248485   7.319   3.655   7.067 -0.0563 -0.4226  0.0434
15757SOL     OW48486   6.975   3.308   6.219 -0.5115  0.1133  0.0922
15757SOL    HW148487   6.969   3.386   6.275  0.8640  0.5845 -0.3808
15757SOL    HW248488   6.910   3.322   6.151  0.8084  1.6472 -0.9145
15758SOL     OW48489   5.640   3.135   6.812 -0.2307  0.3282  0.0046
15758SOL    HW148490   5.672   3.213   6.767  1.0809 -0.7321 -0.9725
15758SOL    HW248491   5.611   3.077   6.742  0.7741 -0.8902  0.5635
15759SOL     OW48492   6.148   3.752   7.244 -0.4507 -0.0927 -0.4102
15759SOL    HW148493   6.174   3.768   7.334 -1.0940  0.5032 -0.3219
15759SOL    HW248494   6.101   3.669   7.246 -1.3454  0.4131 -0.0124
15760SOL     OW48495   7.237   1.600   5.996  0.5867  0.1423 -0.0195
15760SOL    HW148496   7.292   1.589   5.918  2.7164 -2.3394  1.6173
15760SOL    HW248497   7.191   1.682   5.982  3.0468  1.2646 -2.5938
15761SOL     OW48498   6.817   3.721   5.815 -1.1659  0.1417 -0.0263
15761SOL    HW148499   6.803   3.655   5.884 -0.2948  1.4591  1.4756
15761SOL    HW248500   6.742   3.780   5.822 -0.6949  0.7087  0.3241
15762SOL     OW48501   5.654   3.653   7.376  0.6360 -0.0462  0.2979
15762SOL    HW148502   5.603   3.694   7.446  0.1456 -1.0002  0.5084
15762SOL    HW248503   5.602   3.668   7.297  0.2319 -0.6631  0.4477
15763SOL     OW48504   6.882   2.514   6.031 -0.6961 -0.0464  0.0620
15763SOL    HW148505   6.911   2.437   5.982  0.2135  0.1162  0.3317
15763SOL    HW248506   6.962   2.552   6.066 -1.2952  0.0675  1.3586
15764SOL     OW48507   6.515   3.353   7.129 -0.1920  0.1897  0.7456
15764SOL    HW148508   6.567   3.418   7.082 -0.0477  1.3360  2.3735
15764SOL    HW248509   6.426   3.365   7.097  0.1850 -0.3200 -0.5260
15765SOL     OW48510   6.002   3.345   5.801 -0.0365 -0.0942  0.5114
15765SOL    HW148511   6.066   3.381   5.862  0.5342  2.0762 -1.2414
15765SOL    HW248512   6.053   3.287   5.744 -0.4631 -1.6488  1.6363
15766SOL     OW48513   7.054   3.921   7.091  0.0509 -0.0799  0.0191
15766SOL    HW148514   6.992   3.850   7.072  0.8746 -1.1600  1.1689
15766SOL    HW248515   7.099   3.935   7.007 -1.8843  0.9411 -0.9243
15767SOL     OW48516   7.514   1.939   6.541  0.3135  0.6191  0.2895
15767SOL    HW148517   7.592   1.943   6.596  0.4795 -1.4418  0.2883
15767SOL    HW248518   7.457   2.008   6.574  0.9247  0.2427  2.2263
15768SOL     OW48519   5.718   2.559   6.666  0.3384 -0.0065  0.0506
15768SOL    HW148520   5.812   2.558   6.680  0.3766  0.5726 -0.1295
15768SOL    HW248521   5.686   2.632   6.719 -0.1504 -0.8160  0.9102
15769SOL     OW48522   7.259   2.737   5.598 -0.7255  0.0199 -0.1453
15769SOL    HW148523   7.289   2.707   5.684  2.2848 -0.4646 -1.2709
15769SOL    HW248524   7.258   2.658   5.544 -4.3065 -0.0245 -0.2622
15770SOL     OW48525   6.344   2.915   7.087 -0.3102 -0.3411 -0.1164
15770SOL    HW148526   6.401   2.981   7.125 -0.1530 -0.9699  0.7684
15770SOL    HW248527   6.274   2.965   7.044 -0.0200  0.3999  0.2541
15771SOL     OW48528   6.525   2.595   5.765 -0.3685 -0.0624  0.7369
15771SOL    HW148529   6.588   2.655   5.805 -0.6700 -0.0429  1.1809
15771SOL    HW248530   6.558   2.507   5.786  1.0625 -0.1128 -1.4083
15772SOL     OW48531   6.668   3.378   5.637  0.4275  0.0652  0.0848
15772SOL    HW148532   6.724   3.444   5.597 -0.5555  0.3915 -0.8231
15772SOL    HW248533   6.723   3.301   5.645  1.3589  0.7430  0.4047
15773SOL     OW48534   5.731   3.441   7.023 -0.5350  0.1173 -0.2679
15773SOL    HW148535   5.651   3.448   6.970 -1.3251  0.3892  0.9272
15773SOL    HW248536   5.764   3.530   7.029 -2.1895  0.6675  2.2479
15774SOL     OW48537   7.537   3.222   6.945  0.2653 -0.1716 -0.4786
15774SOL    HW148538   7.603   3.183   7.002 -0.7955  0.0228  0.9411
15774SOL    HW248539   7.570   3.309   6.925 -1.0837  1.3880  3.2183
15775SOL     OW48540   6.575   2.924   5.863 -0.1253  0.3760 -0.1989
15775SOL    HW148541   6.593   2.919   5.769  1.1128  1.3480 -0.0506
15775SOL    HW248542   6.495   2.975   5.870 -2.1010 -2.4346 -0.8242
15776SOL     OW48543   6.938   1.795   6.373  0.3662  0.2045 -0.1880
15776SOL    HW148544   7.003   1.725   6.362 -0.8877 -0.8370 -1.3001
15776SOL    HW248545   6.873   1.778   6.306 -0.8953  1.4260  0.6715
15777SOL     OW48546   5.977   3.144   6.213 -0.3429  0.3948  0.0411
15777SOL    HW148547   6.058   3.117   6.170  0.0984  0.4589  0.8151
15777SOL    HW248548   5.908   3.123   6.149  0.1226 -1.1111 -0.0118
15778SOL     OW48549   7.476   1.989   6.938  0.0866  0.0331 -0.2654
15778SOL    HW148550   7.498   1.896   6.935  0.2736  0.0975 -1.3294
15778SOL    HW248551   7.509   2.019   7.022 -2.0932 -1.3652  1.1938
15779SOL     OW48552   6.219   3.464   6.299 -0.1466 -0.2806  0.2328
15779SOL    HW148553   6.166   3.529   6.252 -2.5391 -1.6662  0.8542
15779SOL    HW248554   6.244   3.401   6.232 -0.5370 -0.3858  0.1834
15780SOL     OW48555   5.851   2.950   7.479 -0.2156 -0.4499 -0.1993
15780SOL    HW148556   5.766   2.949   7.522 -0.5552 -0.1904 -0.8493
15780SOL    HW248557   5.866   2.859   7.453 -1.0117 -0.2595 -1.4322
15781SOL     OW48558   6.373   1.900   7.011  0.4365 -0.1106  0.3791
15781SOL    HW148559   6.444   1.963   7.012 -1.3756  2.0616  0.0315
15781SOL    HW248560   6.344   1.898   6.919 -0.0042 -0.9213  0.5214
15782SOL     OW48561   5.414   1.998   6.011 -0.1756 -0.2652  0.2694
15782SOL    HW148562   5.413   1.927   6.076 -1.8243  0.7644  1.4540
15782SOL    HW248563   5.339   1.979   5.954 -0.5132  0.3958  0.4814
15783SOL     OW48564   7.053   2.608   6.621  0.4388 -0.2883  0.3761
15783SOL    HW148565   7.000   2.608   6.541  0.8887 -1.5238  0.0488
15783SOL    HW248566   7.016   2.678   6.674 -0.5478 -0.1341 -0.4757
15784SOL     OW48567   5.559   2.172   6.217 -0.1303  0.0920  1.2087
15784SOL    HW148568   5.613   2.093   6.212  2.1112  1.5894 -0.3687
15784SOL    HW248569   5.508   2.170   6.136  0.7997  0.7859  0.5828
15785SOL     OW48570   6.781   2.770   5.448 -0.1550 -0.1491 -0.1515
15785SOL    HW148571   6.701   2.787   5.397  0.0814 -1.2966 -0.9467
15785SOL    HW248572   6.777   2.676   5.468 -0.3002  0.2766  2.1108
15786SOL     OW48573   6.437   2.658   7.117  0.4695 -0.5987 -0.2515
15786SOL    HW148574   6.420   2.748   7.089  1.5765  0.0709  1.1534
15786SOL    HW248575   6.437   2.608   7.035 -0.5764  0.5867 -1.0192
15787SOL     OW48576   6.875   3.509   6.775 -0.0773  0.7562  0.1058
15787SOL    HW148577   6.843   3.483   6.689  0.3059  2.2587 -0.5240
15787SOL    HW248578   6.812   3.471   6.837 -0.1920 -0.5844 -0.8070
15788SOL     OW48579   6.882   2.282   6.973 -1.0359  0.0148 -0.1341
15788SOL    HW148580   6.818   2.332   7.024 -0.0136  1.1419  0.1204
15788SOL    HW248581   6.862   2.303   6.882  0.0036  1.8016 -0.0094
15789SOL     OW48582   6.976   3.133   7.046 -0.1550  0.2657  0.5521
15789SOL    HW148583   6.883   3.127   7.022  0.2905 -2.7547 -0.8730
15789SOL    HW248584   6.992   3.057   7.101  1.6277  0.3277  0.1775
15790SOL     OW48585   5.558   3.824   6.880  0.1775 -0.2027 -0.0844
15790SOL    HW148586   5.502   3.891   6.918 -0.0577  0.2667 -1.2095
15790SOL    HW248587   5.502   3.748   6.869  0.5711 -0.7830  1.6640
15791SOL     OW48588   7.339   2.141   6.599  0.7645 -0.2210 -0.1609
15791SOL    HW148589   7.394   2.166   6.674  1.0042  0.1141 -0.4465
15791SOL    HW248590   7.256   2.186   6.615  0.4108 -1.0663  0.4898
15792SOL     OW48591   6.317   2.067   5.813  0.0989 -0.9488 -0.6957
15792SOL    HW148592   6.321   2.151   5.768 -0.0559 -2.1022 -3.0528
15792SOL    HW248593   6.356   2.083   5.899  1.3244  1.2040 -1.5727
15793SOL     OW48594   6.366   2.732   6.569  0.0451 -0.3206  0.2247
15793SOL    HW148595   6.324   2.704   6.487 -1.3219  1.8354  0.1078
15793SOL    HW248596   6.311   2.803   6.601  1.8934  0.5117  1.7733
15794SOL     OW48597   7.299   1.979   7.213  0.3221 -0.0499  0.1669
15794SOL    HW148598   7.230   2.045   7.215  0.5284  0.1631  0.3579
15794SOL    HW248599   7.258   1.902   7.173  0.0623  0.1720  0.0035
15795SOL     OW48600   7.320   2.742   6.547  0.6682 -0.0619 -0.0981
15795SOL    HW148601   7.304   2.835   6.562  1.7043  0.2798 -0.9944
15795SOL    HW248602   7.237   2.699   6.571  0.2456  1.0547  0.5074
15796SOL     OW48603   6.119   3.489   5.113 -0.1780  0.1825 -0.0233
15796SOL    HW148604   6.047   3.485   5.176  0.9352 -0.0399  1.2987
15796SOL    HW248605   6.088   3.547   5.043 -0.2841  3.1812  2.3189
15797SOL     OW48606   6.523   3.527   6.411  0.4281 -0.0317 -0.2756
15797SOL    HW148607   6.508   3.610   6.366 -3.0815 -0.8521 -0.8998
15797SOL    HW248608   6.441   3.509   6.456  1.6860 -2.3596  1.3076
15798SOL     OW48609   6.597   2.872   6.171  0.1654 -0.5287  0.0648
15798SOL    HW148610   6.581   2.901   6.081  1.1113  0.2850  0.1521
15798SOL    HW248611   6.606   2.953   6.221  2.0684 -0.9398  0.4507
15799SOL     OW48612   6.618   2.903   5.610  0.1975 -0.3378 -0.6422
15799SOL    HW148613   6.683   2.867   5.549 -0.8187 -1.2040 -1.2421
15799SOL    HW248614   6.534   2.881   5.571 -0.4845  1.5766 -0.3624
15800SOL     OW48615   6.966   3.527   6.379 -0.2672 -0.4812 -0.1679
15800SOL    HW148616   6.891   3.501   6.433 -0.1148 -2.0749 -0.6502
15800SOL    HW248617   6.931   3.592   6.318 -1.9992 -2.9865 -2.0909
15801SOL     OW48618   5.937   3.238   7.642 -0.3597  0.2294  0.2660
15801SOL    HW148619   5.850   3.275   7.626 -1.0957 -0.7385  1.7660
15801SOL    HW248620   5.934   3.151   7.603  0.4857  0.7516 -1.0142
15802SOL     OW48621   5.637   2.862   6.183  0.1752 -0.2049 -0.5645
15802SOL    HW148622   5.637   2.766   6.188  1.5420 -0.1636  0.8699
15802SOL    HW248623   5.566   2.889   6.240 -0.4003 -0.3474 -1.1945
15803SOL     OW48624   6.069   3.004   7.067 -0.2074 -0.1923  0.0213
15803SOL    HW148625   6.021   3.066   7.122 -2.5982 -1.0942 -0.9101
15803SOL    HW248626   6.027   2.920   7.083  1.8296 -1.3013 -0.0578
15804SOL     OW48627   7.684   1.786   6.282  0.1199 -0.1348 -0.0029
15804SOL    HW148628   7.674   1.855   6.348  0.0787 -0.6129  0.4985
15804SOL    HW248629   7.623   1.811   6.212 -0.1590  0.1459  0.3352
15805SOL     OW48630   5.739   2.412   6.221  0.2037 -0.5403  0.4081
15805SOL    HW148631   5.758   2.497   6.262  1.3710 -1.4673  1.8909
15805SOL    HW248632   5.644   2.411   6.211  0.1526  0.8381  0.5824
15806SOL     OW48633   7.473   2.965   6.950  0.0463  0.6005  0.5918
15806SOL    HW148634   7.473   3.061   6.940 -0.5135  0.4313 -1.3974
15806SOL    HW248635   7.387   2.938   6.921  0.7008 -0.6224 -0.2861
15807SOL     OW48636   6.064   1.990   6.972 -0.5244  0.1126 -0.1425
15807SOL    HW148637   6.083   2.040   6.893 -1.3474  0.7536  0.0505
15807SOL    HW248638   5.983   2.028   7.006 -0.6103 -0.6758  0.5780
15808SOL     OW48639   6.350   3.263   6.128  0.6115  0.1795 -0.3543
15808SOL    HW148640   6.318   3.282   6.040  1.0301 -0.0143 -0.5547
15808SOL    HW248641   6.423   3.324   6.140  0.6758  0.0761 -0.2177
15809SOL     OW48642   7.367   2.137   6.282 -0.6302  0.7026  0.4848
15809SOL    HW148643   7.327   2.054   6.254  1.6706 -0.2795 -0.1377
15809SOL    HW248644   7.376   2.128   6.376  0.4409 -0.1963  0.3209
15810SOL     OW48645   6.811   1.693   6.156  0.2117 -0.1589  0.1679
15810SOL    HW148646   6.830   1.611   6.112  0.5851 -0.5307  0.9929
15810SOL    HW248647   6.759   1.744   6.093  0.7137 -0.6731 -0.6697
15811SOL     OW48648   6.853   3.153   5.951 -0.2338  0.1334  0.0280
15811SOL    HW148649   6.832   3.088   6.017 -1.0009 -0.6607 -0.9666
15811SOL    HW248650   6.906   3.106   5.886 -0.1218  0.7052 -0.3120
15812SOL     OW48651   6.272   3.525   6.858 -0.1400 -0.0687 -0.5564
15812SOL    HW148652   6.223   3.608   6.861  2.4928  1.5892 -0.2253
15812SOL    HW248653   6.282   3.506   6.765 -1.9872 -0.8740 -0.6379
15813SOL     OW48654   6.872   1.496   5.691  0.4976  0.2248  0.6389
15813SOL    HW148655   6.896   1.433   5.760  2.0972  0.9378  0.7885
15813SOL    HW248656   6.869   1.580   5.735  1.2052  0.6429 -0.0893
15814SOL     OW48657   6.761   2.209   6.165  0.0367  0.3124 -0.3918
15814SOL    HW148658   6.804   2.294   6.177  0.3584  0.0824  0.1159
15814SOL    HW248659   6.680   2.217   6.215  0.7612 -0.1839  0.9185
15815SOL     OW48660   7.629   2.146   6.259 -0.3546  0.3677 -0.0193
15815SOL    HW148661   7.640   2.205   6.333  1.1492 -1.2430  1.1169
15815SOL    HW248662   7.535   2.138   6.248 -0.6283  3.2088 -0.4647
15816SOL     OW48663   5.604   2.849   5.858 -0.6142 -0.0023  0.6601
15816SOL    HW148664   5.686   2.799   5.854 -0.6341 -0.1390  1.7203
15816SOL    HW248665   5.568   2.829   5.944 -0.6880  1.7476  1.0558
15817SOL     OW48666   6.274   3.486   5.653 -0.3634  0.1422  0.2979
15817SOL    HW148667   6.207   3.482   5.584  2.2059  1.1236 -2.4452
15817SOL    HW248668   6.276   3.578   5.679  0.1768  0.1843  0.1027
15818SOL     OW48669   6.144   2.242   7.357  0.2054 -0.0959  0.0253
15818SOL    HW148670   6.071   2.229   7.298  1.5354 -0.3046 -1.6457
15818SOL    HW248671   6.219   2.260   7.300  1.3625  0.6645  1.6789
15819SOL     OW48672   5.589   1.707   7.980  0.1322 -0.3682 -0.0885
15819SOL    HW148673   5.527   1.714   8.053  1.7487 -2.4209  1.6212
15819SOL    HW248674   5.579   1.617   7.949  1.5415 -0.4180 -0.4406
15820SOL     OW48675   5.785   2.213   8.033  0.1319 -0.0021  0.2410
15820SOL    HW148676   5.702   2.244   7.997  0.4257  0.1332 -0.3290
15820SOL    HW248677   5.780   2.117   8.027 -0.0393  0.0007  0.3431
15821SOL     OW48678   6.194   3.275   8.595  0.4894 -0.0239  0.7609
15821SOL    HW148679   6.166   3.190   8.562  0.8862 -0.5397  1.7180
15821SOL    HW248680   6.275   3.294   8.547  1.0982 -0.7987  1.4647
15822SOL     OW48681   7.260   4.000   8.065  0.2727  0.0457 -0.2751
15822SOL    HW148682   7.205   4.006   8.143 -0.6383  0.7118 -0.9363
15822SOL    HW248683   7.287   4.091   8.048 -1.7502  0.3571 -2.2303
15823SOL     OW48684   6.492   2.664   7.660  0.1588  0.0207  0.4085
15823SOL    HW148685   6.550   2.712   7.600 -0.5298  0.6125  0.1986
15823SOL    HW248686   6.498   2.573   7.632  2.0518 -0.1629  1.2594
15824SOL     OW48687   7.774   2.262   7.329  0.1370 -0.4311 -0.2362
15824SOL    HW148688   7.752   2.260   7.423  0.3530  1.7621 -0.0904
15824SOL    HW248689   7.856   2.214   7.323  0.6277  0.2231  0.8705
15825SOL     OW48690   6.355   2.820   8.207  0.5038 -0.3063  0.1383
15825SOL    HW148691   6.397   2.825   8.121 -0.9659 -2.0214 -0.7408
15825SOL    HW248692   6.264   2.797   8.189 -0.5462  1.9147  2.0551
15826SOL     OW48693   6.053   2.610   8.185  0.3617  0.5908  0.0739
15826SOL    HW148694   6.103   2.537   8.223 -1.6417 -0.6360  0.4946
15826SOL    HW248695   5.961   2.588   8.202 -0.3702  2.6194 -0.9015
15827SOL     OW48696   5.540   3.030   8.562  0.5097 -0.3981 -0.6706
15827SOL    HW148697   5.522   2.940   8.591 -0.9861 -0.4658 -1.7455
15827SOL    HW248698   5.614   3.057   8.616 -0.1319 -1.6524  0.9291
15828SOL     OW48699   6.315   2.367   8.733  0.3125 -0.4817 -0.0615
15828SOL    HW148700   6.363   2.442   8.768  0.1227 -0.2793 -0.2322
15828SOL    HW248701   6.348   2.292   8.783 -0.5153 -0.0919  1.1001
15829SOL     OW48702   6.714   2.303   7.698 -0.0561  0.8601 -0.7654
15829SOL    HW148703   6.676   2.230   7.747  0.9863 -0.1059 -1.3615
15829SOL    HW248704   6.648   2.325   7.632  0.2001 -0.5339 -1.5297
15830SOL     OW48705   5.769   3.537   7.765  0.0684  0.0073 -0.5236
15830SOL    HW148706   5.691   3.563   7.813  0.0598 -0.2796 -0.3801
15830SOL    HW248707   5.827   3.613   7.769 -0.2448  0.2557 -0.7179
15831SOL     OW48708   5.779   3.272   8.222  0.2045  0.5700 -0.0532
15831SOL    HW148709   5.806   3.215   8.150  0.6723  0.6599  0.0441
15831SOL    HW248710   5.784   3.360   8.186 -0.8033  0.5418 -0.2928
15832SOL     OW48711   5.819   2.501   8.284 -0.3207 -0.3112 -0.2475
15832SOL    HW148712   5.804   2.407   8.287 -2.7543  0.0271  0.1566
15832SOL    HW248713   5.770   2.536   8.358  0.8202  1.2715 -0.1752
15833SOL     OW48714   6.370   3.637   0.085 -0.4294  0.1719 -0.2755
15833SOL    HW148715   6.343   3.553   0.122  1.1772 -0.4709 -0.4727
15833SOL    HW248716   6.438   3.614   0.022 -1.8108  1.3920 -2.3204
15834SOL     OW48717   6.132   2.900   7.670  0.4881  0.2067  0.5990
15834SOL    HW148718   6.163   2.944   7.591  0.1201  0.9448  0.8595
15834SOL    HW248719   6.168   2.811   7.664  0.2984  0.1944 -0.4966
15835SOL     OW48720   5.470   2.519   8.323 -0.1989 -0.0762 -0.3060
15835SOL    HW148721   5.460   2.425   8.337  0.1983 -0.4857 -2.4035
15835SOL    HW248722   5.420   2.537   8.243 -0.3286  1.5226  0.1002
15836SOL     OW48723   7.018   3.731   7.780  0.7677 -0.6971 -0.1720
15836SOL    HW148724   7.012   3.820   7.815  0.5845 -1.2419  1.2408
15836SOL    HW248725   7.048   3.743   7.690 -1.2237  0.9195 -0.6918
15837SOL     OW48726   5.496   3.738   7.618 -0.5003  0.2264  0.4813
15837SOL    HW148727   5.423   3.753   7.559 -1.1344  1.7931  1.5968
15837SOL    HW248728   5.482   3.649   7.651 -0.7510 -0.2443 -0.8411
15838SOL     OW48729   7.061   3.052   7.690 -0.4786  0.1147 -0.3868
15838SOL    HW148730   6.979   3.102   7.685  0.4628  1.7588 -0.2544
15838SOL    HW248731   7.129   3.117   7.670  0.8329 -1.0793  0.0744
15839SOL     OW48732   6.778   3.346   7.511  0.9241  0.8120  0.2184
15839SOL    HW148733   6.781   3.358   7.416 -0.5556  0.7455  0.1404
15839SOL    HW248734   6.707   3.404   7.540  0.8373  0.2481  1.1830
15840SOL     OW48735   6.161   2.876   7.967  0.2547  0.3919  0.6238
15840SOL    HW148736   6.124   2.894   7.880 -0.1210  0.5158  0.8081
15840SOL    HW248737   6.175   2.963   8.004  1.3973  0.3692  0.2809
15841SOL     OW48738   6.584   1.750   7.552 -0.0713  0.7406 -0.4599
15841SOL    HW148739   6.649   1.747   7.623  1.4244  1.5189 -1.7360
15841SOL    HW248740   6.555   1.659   7.542  0.8158  0.3800  0.1397
15842SOL     OW48741   6.010   3.180   8.358 -0.2958  0.2475 -0.5786
15842SOL    HW148742   5.957   3.163   8.280  2.2995  0.4504 -2.5101
15842SOL    HW248743   6.058   3.099   8.374  0.4103  0.7192 -0.2018
15843SOL     OW48744   7.315   2.983   7.303  0.0038 -0.0924 -0.3330
15843SOL    HW148745   7.227   2.948   7.289 -1.2490  2.3641  0.7521
15843SOL    HW248746   7.325   3.049   7.234  0.3415  0.7542  0.5199
15844SOL     OW48747   7.079   3.183   8.168  0.0400 -0.1754 -0.1135
15844SOL    HW148748   7.031   3.226   8.098 -1.3536 -0.7093  0.4932
15844SOL    HW248749   7.030   3.203   8.247  0.2696 -1.5025  0.3958
15845SOL     OW48750   7.054   3.991   7.838 -0.0420  0.1808 -0.0417
15845SOL    HW148751   7.123   4.006   7.903 -0.4599  0.4864  0.3339
15845SOL    HW248752   6.986   4.055   7.860 -0.4624 -0.1459 -0.3901
15846SOL     OW48753   6.533   2.387   7.510  0.2895  0.3714  0.2137
15846SOL    HW148754   6.620   2.407   7.476  1.1102 -1.4500  1.1338
15846SOL    HW248755   6.473   2.423   7.445  1.7455 -0.4177 -1.6401
15847SOL     OW48756   6.980   2.137   7.713  0.4393 -0.6063 -0.6828
15847SOL    HW148757   6.907   2.199   7.715  1.5436  0.7754 -1.7530
15847SOL    HW248758   6.939   2.052   7.732 -1.1339  0.3868  0.6891
15848SOL     OW48759   7.063   3.771   7.489 -0.1465  0.2777 -0.0019
15848SOL    HW148760   7.006   3.830   7.439 -1.2561 -0.8315 -0.1081
15848SOL    HW248761   7.096   3.709   7.424 -2.3579 -1.7698  0.6783
15849SOL     OW48762   6.811   2.670   8.776 -0.2268  0.8449 -0.1775
15849SOL    HW148763   6.838   2.641   8.689 -0.0185  1.6931 -0.3964
15849SOL    HW248764   6.758   2.597   8.810 -0.3656  0.5412 -1.0336
15850SOL     OW48765   6.598   2.753   8.469  0.7166  0.3778  0.4130
15850SOL    HW148766   6.550   2.833   8.487  0.1269 -0.0874  0.9480
15850SOL    HW248767   6.534   2.683   8.482  1.6623 -0.2879  1.6661
15851SOL     OW48768   6.712   2.832   7.517  0.2353  0.0053 -0.0201
15851SOL    HW148769   6.739   2.829   7.609 -0.9953  0.5531  0.3930
15851SOL    HW248770   6.708   2.925   7.496  0.6427 -0.1209 -0.6739
15852SOL     OW48771   5.680   2.745   8.181  0.4283 -0.1476  0.2667
15852SOL    HW148772   5.714   2.779   8.264  1.5830 -1.0350  0.1700
15852SOL    HW248773   5.664   2.652   8.197  0.2845 -0.2427 -0.4027
15853SOL     OW48774   5.559   3.460   0.152  0.0192 -0.2196 -0.0788
15853SOL    HW148775   5.469   3.428   0.152 -0.0704  0.0030 -1.1527
15853SOL    HW248776   5.610   3.388   0.190 -0.4632 -0.7911 -0.4964
15854SOL     OW48777   6.551   2.111   7.219 -0.1519 -0.3074  0.1249
15854SOL    HW148778   6.602   2.192   7.221  0.8358 -0.9230  0.9571
15854SOL    HW248779   6.460   2.140   7.213  0.2064  0.8563  0.1197
15855SOL     OW48780   6.972   2.782   7.697 -0.2575  0.1184  0.1389
15855SOL    HW148781   7.004   2.871   7.686  0.4793  0.0878  1.7457
15855SOL    HW248782   7.029   2.743   7.764 -1.2910 -1.1682  0.3304
15856SOL     OW48783   6.311   1.937   8.386  0.2644 -0.1946 -0.1514
15856SOL    HW148784   6.300   1.987   8.466  0.3653  0.0926 -0.3186
15856SOL    HW248785   6.402   1.906   8.388  0.0601 -0.8026  0.1989
15857SOL     OW48786   6.551   3.293   7.949  0.0441  0.1659 -0.4121
15857SOL    HW148787   6.620   3.338   7.998 -0.4977 -1.0852  1.5929
15857SOL    HW248788   6.487   3.268   8.015 -1.7910  0.2401 -2.0575
15858SOL     OW48789   5.490   3.283   8.275 -0.4055  0.0357 -0.2186
15858SOL    HW148790   5.584   3.265   8.285 -0.1879  0.8519 -0.7024
15858SOL    HW248791   5.448   3.198   8.288  0.4840 -0.5502 -1.0006
15859SOL     OW48792   7.378   2.874   8.324  0.8392 -0.4253  0.5129
15859SOL    HW148793   7.355   2.939   8.259 -0.1732 -0.5132  0.7725
15859SOL    HW248794   7.350   2.791   8.287 -0.4699 -0.3939  1.3682
15860SOL     OW48795   5.753   2.506   7.529 -0.5452 -0.1719 -0.5661
15860SOL    HW148796   5.781   2.592   7.498  0.8635 -0.2923  0.2618
15860SOL    HW248797   5.832   2.453   7.527 -0.6578 -0.5651  1.8108
15861SOL     OW48798   7.138   2.637   7.871 -0.4188 -0.0595  0.1600
15861SOL    HW148799   7.231   2.619   7.860  0.4139  2.8075  1.3135
15861SOL    HW248800   7.095   2.553   7.861  2.1837 -1.3113 -1.4682
15862SOL     OW48801   6.811   4.032   7.545  0.3822 -0.1977 -0.4757
15862SOL    HW148802   6.772   3.958   7.591  0.2836  0.8368  1.2083
15862SOL    HW248803   6.843   3.996   7.463 -0.6377 -1.8675 -0.1795
15863SOL     OW48804   7.320   3.342   7.350 -0.4153 -0.1810  0.4924
15863SOL    HW148805   7.317   3.281   7.275 -0.1478 -0.6148  0.8300
15863SOL    HW248806   7.229   3.347   7.380 -0.5317  0.0280  0.1149
15864SOL     OW48807   5.792   3.521   8.139 -0.4598  0.2158 -0.1799
15864SOL    HW148808   5.764   3.582   8.071 -0.9420  0.9275  0.6435
15864SOL    HW248809   5.843   3.575   8.200 -1.8123  0.0447  1.1361
15865SOL     OW48810   7.159   1.986   7.978 -0.2636  0.0222  0.0913
15865SOL    HW148811   7.159   2.010   7.886  0.5449 -0.4250 -0.0325
15865SOL    HW248812   7.201   2.060   8.023 -0.4259  0.1266  0.0723
15866SOL     OW48813   6.102   3.432   8.810 -0.2139  0.1191  0.1045
15866SOL    HW148814   6.112   3.362   8.745 -1.9155  0.7608 -0.9408
15866SOL    HW248815   6.043   3.395   8.876 -3.1115  1.1927 -1.6676
15867SOL     OW48816   6.381   3.561   8.158  0.1103 -0.3040 -0.0592
15867SOL    HW148817   6.324   3.501   8.207  1.0609 -1.1826  0.0174
15867SOL    HW248818   6.337   3.572   8.073 -0.6224 -0.2408  0.3235
15868SOL     OW48819   6.150   2.531   7.909 -0.1565  0.1145  0.7546
15868SOL    HW148820   6.118   2.610   7.952  1.2532  1.2858 -0.2553
15868SOL    HW248821   6.079   2.468   7.919 -2.5936  2.4062 -0.9671
15869SOL     OW48822   6.828   1.581   7.356 -0.2728 -0.3807  0.0456
15869SOL    HW148823   6.787   1.512   7.304  0.8247 -0.9869 -0.0588
15869SOL    HW248824   6.778   1.660   7.335 -0.8659 -0.9309 -0.6846
15870SOL     OW48825   6.498   3.397   8.728 -0.0118 -0.6985 -0.6229
15870SOL    HW148826   6.428   3.348   8.770 -0.4342 -0.7493 -1.3712
15870SOL    HW248827   6.465   3.416   8.640  0.3939  0.3929 -0.5538
15871SOL     OW48828   6.368   3.239   8.177  0.0419 -0.3759  0.8620
15871SOL    HW148829   6.324   3.298   8.239 -0.2226  1.5003 -1.0091
15871SOL    HW248830   6.304   3.227   8.106  1.3338 -0.2228 -0.3616
15872SOL     OW48831   6.613   2.127   7.920 -0.5723  0.3523  0.4774
15872SOL    HW148832   6.559   2.193   7.963  0.5813  2.2111 -0.8040
15872SOL    HW248833   6.703   2.148   7.948 -0.0287  0.3118 -1.1730
15873SOL     OW48834   6.261   1.712   7.737  0.0701  0.1475  0.3256
15873SOL    HW148835   6.240   1.797   7.775 -0.0657  0.2755 -0.0291
15873SOL    HW248836   6.350   1.722   7.703  0.4191 -0.1498  1.1248
15874SOL     OW48837   7.060   2.899   7.197 -0.7836 -0.4441 -0.3095
15874SOL    HW148838   7.059   2.846   7.277 -0.1833 -1.3997 -0.9219
15874SOL    HW248839   6.988   2.865   7.144  0.3235 -1.4834 -1.2082
15875SOL     OW48840   5.842   1.972   7.721  0.0106  0.3919  0.2583
15875SOL    HW148841   5.859   2.065   7.705  0.3910  0.5585  1.5258
15875SOL    HW248842   5.921   1.928   7.692  0.4873  0.6364  1.1563
15876SOL     OW48843   6.415   1.941   7.631 -0.1771  0.1366 -0.3821
15876SOL    HW148844   6.446   1.928   7.720  0.6722 -1.8355 -0.9099
15876SOL    HW248845   6.474   1.889   7.577 -1.3170  0.4175 -1.9922
15877SOL     OW48846   6.675   3.591   8.123 -0.2448  0.2069  0.4167
15877SOL    HW148847   6.580   3.583   8.137 -0.2919 -1.2561 -0.5538
15877SOL    HW248848   6.688   3.684   8.104 -1.4929  0.4239  0.5281
15878SOL     OW48849   5.857   3.113   8.023 -0.0097 -0.0346  0.2105
15878SOL    HW148850   5.934   3.057   8.012 -0.7371 -0.9145 -0.4716
15878SOL    HW248851   5.826   3.129   7.934  1.7654  3.7929  0.0489
15879SOL     OW48852   6.817   3.836   8.057 -0.5150 -0.4445  0.2807
15879SOL    HW148853   6.865   3.753   8.053 -0.6654 -0.5268  0.1416
15879SOL    HW248854   6.860   3.886   8.126  0.1877 -0.2545 -0.2825
15880SOL     OW48855   6.760   2.452   7.408  0.3632  0.4501  0.5278
15880SOL    HW148856   6.816   2.528   7.393  0.1875  0.3069 -0.9662
15880SOL    HW248857   6.820   2.377   7.410  0.6062  0.6448  2.5902
15881SOL     OW48858   6.152   1.661   8.179  0.0700 -0.2053  0.0693
15881SOL    HW148859   6.154   1.714   8.258 -0.7200 -0.5278  0.3140
15881SOL    HW248860   6.202   1.582   8.201 -2.1607 -1.4162  1.1004
15882SOL     OW48861   6.558   2.524   8.142  0.4928 -0.3628  0.1033
15882SOL    HW148862   6.591   2.613   8.129 -0.1068 -0.1329  0.1385
15882SOL    HW248863   6.573   2.480   8.059 -0.5155  0.1940 -0.3841
15883SOL     OW48864   6.288   2.044   8.634 -0.1778 -0.4265  0.5304
15883SOL    HW148865   6.234   2.069   8.708 -0.3242 -0.1188  0.3233
15883SOL    HW248866   6.357   1.989   8.671  1.7355  2.3592  1.4807
15884SOL     OW48867   6.813   3.399   8.023 -0.0568  0.0005 -0.8126
15884SOL    HW148868   6.831   3.414   7.930  2.2116  0.4189 -0.3597
15884SOL    HW248869   6.764   3.476   8.051  0.2220  0.3968 -1.4036
15885SOL     OW48870   7.054   2.818   8.059  0.0956 -0.0182 -0.8519
15885SOL    HW148871   7.131   2.874   8.064 -0.5211  0.8072 -0.5493
15885SOL    HW248872   7.073   2.758   7.986  1.0379  0.1465 -0.7471
15886SOL     OW48873   7.889   2.621   7.487 -0.5641 -0.4353  0.4122
15886SOL    HW148874   7.922   2.558   7.423 -0.4868 -0.1999  0.2199
15886SOL    HW248875   7.845   2.688   7.435  0.2325  0.2039  0.5370
15887SOL     OW48876   6.093   3.399   7.455  0.0324  0.1025 -0.6286
15887SOL    HW148877   6.034   3.430   7.386 -0.9495  1.8980  0.9503
15887SOL    HW248878   6.040   3.337   7.506 -0.3203  1.2302  0.4069
15888SOL     OW48879   6.806   3.174   7.753 -0.0296  0.6166  0.5246
15888SOL    HW148880   6.719   3.180   7.793 -0.6077 -0.1978 -0.5302
15888SOL    HW248881   6.811   3.250   7.695 -1.1345 -0.6450 -1.3528
15889SOL     OW48882   7.584   2.540   7.518  0.5601  0.5733 -0.5381
15889SOL    HW148883   7.513   2.513   7.459  1.4313  0.3841 -1.5452
15889SOL    HW248884   7.663   2.505   7.476  1.1211 -0.4728  1.3102
15890SOL     OW48885   6.139   1.983   7.628 -0.1997  0.0778 -0.1040
15890SOL    HW148886   6.162   2.065   7.672 -1.9733  2.0008 -2.4947
15890SOL    HW248887   6.223   1.946   7.601  0.6286  1.1839  0.8613
15891SOL     OW48888   7.312   3.259   8.838  0.1015  0.0421 -0.0399
15891SOL    HW148889   7.280   3.278   8.927  1.0169  0.9294  0.1229
15891SOL    HW248890   7.319   3.345   8.797 -2.0541 -0.4622 -1.6339
15892SOL     OW48891   6.430   3.416   8.480 -0.3920 -0.0489  0.1104
15892SOL    HW148892   6.378   3.444   8.404  0.3823 -0.4697 -0.5900
15892SOL    HW248893   6.519   3.409   8.447  0.5473  2.6734  1.7757
15893SOL     OW48894   7.108   3.276   8.647 -0.3097 -0.5563  0.1605
15893SOL    HW148895   7.174   3.218   8.685 -1.5340 -1.6303  0.7330
15893SOL    HW248896   7.099   3.245   8.556  0.8018  0.3780 -0.2983
15894SOL     OW48897   6.214   2.627   7.649  0.4209  0.4499 -0.4203
15894SOL    HW148898   6.190   2.592   7.735 -0.1436  0.5862 -0.5184
15894SOL    HW248899   6.309   2.618   7.645  0.4572  0.4866  0.2395
15895SOL     OW48900   6.324   2.658   8.439  0.2544 -0.5467 -1.0184
15895SOL    HW148901   6.309   2.582   8.384 -1.5362 -0.8114 -0.2348
15895SOL    HW248902   6.341   2.730   8.378  0.2650 -1.2277 -1.8236
15896SOL     OW48903   7.009   2.851   8.314 -0.1617  0.2565 -0.3726
15896SOL    HW148904   7.025   2.828   8.222  0.4754  0.1679 -0.2421
15896SOL    HW248905   6.919   2.882   8.315  0.3650  1.9914 -1.3734
15897SOL     OW48906   5.592   3.733   0.104 -0.3101  0.4515 -0.1446
15897SOL    HW148907   5.660   3.750   0.039 -0.0810 -0.4090 -0.1422
15897SOL    HW248908   5.574   3.639   0.096 -1.2059  0.5843  0.1405
15898SOL     OW48909   5.876   2.873   7.792  0.3218 -0.8178 -0.1692
15898SOL    HW148910   5.823   2.947   7.765  1.9839  0.7606  0.6803
15898SOL    HW248911   5.945   2.868   7.726 -0.4009 -2.3789 -0.8607
15899SOL     OW48912   6.093   2.358   8.553 -1.2974  0.4127  0.1060
15899SOL    HW148913   6.093   2.447   8.517  0.3343  0.2630 -0.3381
15899SOL    HW248914   6.165   2.358   8.616 -1.4245 -0.5411  0.2600
15900SOL     OW48915   7.069   3.390   7.471  0.2642 -0.2067 -0.2739
15900SOL    HW148916   6.981   3.384   7.510  0.6877  2.5787  1.3595
15900SOL    HW248917   7.066   3.468   7.416  1.3670 -0.8745 -1.3438
15901SOL     OW48918   6.679   3.413   8.385 -0.3763 -0.3219 -0.1526
15901SOL    HW148919   6.709   3.413   8.476 -0.9724  0.8317  0.0663
15901SOL    HW248920   6.730   3.481   8.343 -1.8956  0.9468 -0.0257
15902SOL     OW48921   7.540   2.831   7.181  0.3329  1.0362  0.1221
15902SOL    HW148922   7.462   2.792   7.220  0.8963 -0.4572 -0.1819
15902SOL    HW248923   7.509   2.874   7.102 -0.4269  1.9344  0.8816
15903SOL     OW48924   5.830   3.354   0.020 -0.2826  0.1628  0.0217
15903SOL    HW148925   5.767   3.365   0.092  0.1808  0.0153  0.4579
15903SOL    HW248926   5.816   3.430  -0.036 -1.1555 -0.0990 -0.1229
15904SOL     OW48927   6.481   2.983   8.477  0.6276  0.3028 -0.1262
15904SOL    HW148928   6.517   3.036   8.406  1.1820  0.5979  0.3721
15904SOL    HW248929   6.488   3.037   8.555  3.1064 -1.1878  0.8024
15905SOL     OW48930   6.592   3.176   8.297 -0.4199  0.0918 -0.6524
15905SOL    HW148931   6.505   3.183   8.257  0.6118  1.0983 -2.8870
15905SOL    HW248932   6.623   3.267   8.300  1.0903 -0.3829 -1.2088
15906SOL     OW48933   7.132   2.493   7.502 -0.1823  0.0826  0.0414
15906SOL    HW148934   7.083   2.411   7.495  0.5604 -0.1961 -2.5847
15906SOL    HW248935   7.183   2.483   7.582  0.2688 -2.2396 -0.4669
15907SOL     OW48936   5.725   1.712   8.508 -0.1765 -0.0338  0.2493
15907SOL    HW148937   5.686   1.787   8.464  0.7257 -0.1402 -0.7706
15907SOL    HW248938   5.800   1.689   8.454 -0.2607 -1.4855  0.7243
15908SOL     OW48939   5.577   2.993   0.104 -0.7753 -0.1852  0.3030
15908SOL    HW148940   5.606   2.904   0.085  0.5691  0.4983 -1.0743
15908SOL    HW248941   5.492   2.982   0.147 -1.3592 -2.0739 -1.1798
15909SOL     OW48942   6.233   2.158   8.152  0.2085  0.6741 -0.3843
15909SOL    HW148943   6.257   2.073   8.187 -0.2665  0.7875  0.2379
15909SOL    HW248944   6.171   2.138   8.082 -0.3251  0.5279  0.1229
15910SOL     OW48945   5.927   1.961   8.219 -0.1165 -0.0555 -0.4067
15910SOL    HW148946   5.885   1.879   8.192  0.5888 -0.0286 -1.6637
15910SOL    HW248947   5.960   1.999   8.138 -0.6617  1.6316  0.1262
15911SOL     OW48948   7.722   2.358   7.051  0.1952 -0.3421  0.2112
15911SOL    HW148949   7.745   2.330   7.140  1.2095  1.0149  0.4080
15911SOL    HW248950   7.627   2.350   7.047 -0.0758  1.1928  2.0325
15912SOL     OW48951   6.827   2.935   7.933 -0.0662  0.5660 -0.0845
15912SOL    HW148952   6.900   2.924   7.994 -0.0223  1.0927 -0.0358
15912SOL    HW248953   6.854   3.009   7.878 -0.3247  0.4113 -0.4214
15913SOL     OW48954   7.166   1.407   7.095  0.4308 -0.0571 -0.2216
15913SOL    HW148955   7.078   1.376   7.114  1.4319 -3.3912 -0.4066
15913SOL    HW248956   7.221   1.366   7.161  1.8862  2.0988  0.0009
15914SOL     OW48957   7.106   2.583   6.941 -0.1749  0.3742 -0.2271
15914SOL    HW148958   7.184   2.528   6.940  0.8913  1.8192 -0.7915
15914SOL    HW248959   7.055   2.552   7.016 -0.2649 -2.1774 -1.2556
15915SOL     OW48960   6.410   3.452   7.789  0.0874  0.2394  0.9387
15915SOL    HW148961   6.329   3.443   7.841 -0.7860 -1.4416 -0.5840
15915SOL    HW248962   6.473   3.395   7.833 -0.4385 -0.6412  0.5779
15916SOL     OW48963   6.020   2.905   8.303  0.4374 -0.1444 -0.1758
15916SOL    HW148964   6.011   2.818   8.265 -0.9997  0.5602 -1.5934
15916SOL    HW248965   5.933   2.924   8.339  1.7641 -0.8502  3.8066
15917SOL     OW48966   5.668   2.136   8.414 -0.0435 -0.8300  0.1867
15917SOL    HW148967   5.702   2.161   8.500 -1.0794  0.5941  0.2111
15917SOL    HW248968   5.737   2.159   8.352 -0.8546  2.1742  0.2195
15918SOL     OW48969   7.259   1.923   8.636 -0.1194  0.5556  0.0240
15918SOL    HW148970   7.347   1.960   8.643 -0.1692  0.6639  0.0664
15918SOL    HW248971   7.249   1.903   8.543 -0.6950  2.1140 -0.2824
15919SOL     OW48972   5.625   3.224   7.760 -0.1829  0.4739 -0.3571
15919SOL    HW148973   5.632   3.261   7.672 -1.0075  0.1522 -0.5658
15919SOL    HW248974   5.613   3.300   7.817 -1.0026  0.6045 -0.6849
15920SOL     OW48975   5.104   3.121   8.176 -0.7537  0.2955 -0.1278
15920SOL    HW148976   5.159   3.123   8.254 -1.1774  0.5876  0.1712
15920SOL    HW248977   5.115   3.033   8.141  1.3657  0.8938 -1.1497
15921SOL     OW48978   5.847   3.379   8.490  0.1971  0.7546 -0.2165
15921SOL    HW148979   5.883   3.299   8.451 -0.0690  1.3135 -1.6551
15921SOL    HW248980   5.818   3.431   8.416 -1.1579  1.4803  0.7803
15922SOL     OW48981   6.759   2.956   8.279  0.2615  0.1069 -0.3669
15922SOL    HW148982   6.702   3.033   8.271 -0.3265 -0.2023  0.7172
15922SOL    HW248983   6.699   2.881   8.277  0.2698 -0.1601  3.2019
15923SOL     OW48984   5.464   2.802   8.670  0.3080  0.7383  0.2101
15923SOL    HW148985   5.390   2.812   8.730 -0.1475  0.7558 -0.3486
15923SOL    HW248986   5.462   2.710   8.645  1.1163  0.4889  0.9991
15924SOL     OW48987   6.421   2.378   7.884  0.3878  0.2848  0.1723
15924SOL    HW148988   6.391   2.350   7.798  3.2455 -0.7644 -0.5949
15924SOL    HW248989   6.354   2.440   7.914 -2.3795 -1.7763 -1.3184
15925SOL     OW48990   7.314   2.615   8.107 -0.0903  0.4641 -0.8052
15925SOL    HW148991   7.338   2.537   8.157  0.1814  0.8897 -0.2620
15925SOL    HW248992   7.219   2.617   8.109 -0.0924  0.2327 -0.6827
15926SOL     OW48993   6.400   2.277   8.475  0.2804 -0.1442 -0.4381
15926SOL    HW148994   6.347   2.261   8.553  0.6766  1.2384  0.1419
15926SOL    HW248995   6.339   2.313   8.411  0.0398 -0.8964 -0.6471
15927SOL     OW48996   6.638   3.667   0.408 -0.4074 -0.5169  0.0392
15927SOL    HW148997   6.575   3.597   0.425  0.6974 -1.5774 -0.0901
15927SOL    HW248998   6.719   3.621   0.386  0.3738  0.8127  0.0525
15928SOL     OW48999   6.321   2.219   7.646  1.1540 -0.0255  0.6914
15928SOL    HW149000   6.408   2.195   7.615  0.8236 -0.6509  0.2346
15928SOL    HW249001   6.266   2.214   7.568  0.6925  0.2854  0.9974
15929SOL     OW49002   6.036   2.898   8.728 -0.1420  0.7349 -0.1612
15929SOL    HW149003   6.053   2.942   8.645 -0.1484 -1.5916 -1.4738
15929SOL    HW249004   5.964   2.838   8.709  0.1114 -0.1222  1.4324
15930SOL     OW49005   6.915   2.939   8.625  0.3516 -0.6967 -0.1831
15930SOL    HW149006   6.942   2.955   8.716  0.9935 -1.8434 -0.1558
15930SOL    HW249007   6.820   2.931   8.630  0.4933 -2.3666  0.6836
15931SOL     OW49008   7.033   2.754   7.423 -0.3947  0.6448 -0.3136
15931SOL    HW149009   6.994   2.748   7.510 -1.3815  1.6045 -0.6593
15931SOL    HW249010   7.092   2.679   7.418 -2.5354 -1.1884  0.0933
15932SOL     OW49011   7.064   4.054   8.292 -0.2055  0.1592  0.8657
15932SOL    HW149012   7.110   4.026   8.371  1.8965  0.2105 -0.2492
15932SOL    HW249013   6.982   4.005   8.294  0.3686 -0.8552  2.4043
15933SOL     OW49014   6.634   3.653   8.750 -0.3048  0.0071 -0.2173
15933SOL    HW149015   6.582   3.578   8.722 -0.8313  0.0502  0.6147
15933SOL    HW249016   6.709   3.615   8.795  0.4532 -0.0569 -1.4586
15934SOL     OW49017   5.678   3.549   8.697 -0.7326  0.2949 -0.0548
15934SOL    HW149018   5.731   3.509   8.628 -1.3129  0.1927 -0.4499
15934SOL    HW249019   5.588   3.542   8.665 -0.9602  0.7259  0.4741
15935SOL     OW49020   7.553   1.929   7.322 -0.1211 -0.3568  0.1673
15935SOL    HW149021   7.585   1.842   7.298 -0.7791 -0.8204  0.9383
15935SOL    HW249022   7.492   1.952   7.252  0.2366 -0.4041 -0.1660
15936SOL     OW49023   6.836   3.513   7.771 -0.3732 -0.4131  0.4493
15936SOL    HW149024   6.787   3.525   7.690  0.5254 -2.0547 -0.4011
15936SOL    HW249025   6.902   3.583   7.770 -1.6505  0.8451  0.8377
15937SOL     OW49026   6.590   3.001   7.781 -0.3224  0.1305 -0.1210
15937SOL    HW149027   6.671   2.998   7.832  0.8011 -0.8640 -1.8850
15937SOL    HW249028   6.527   2.950   7.833  0.3208  0.4761  1.0206
15938SOL     OW49029   6.192   3.614   7.572  0.3946 -0.2139  0.0564
15938SOL    HW149030   6.266   3.558   7.593  0.6307 -0.0122 -0.2264
15938SOL    HW249031   6.122   3.554   7.547  0.7738 -0.3657 -0.6413
15939SOL     OW49032   7.345   2.038   8.324  0.2311  0.6253 -0.1212
15939SOL    HW149033   7.412   1.971   8.330  1.4659  1.7123 -1.0418
15939SOL    HW249034   7.263   1.990   8.310  1.0771 -0.6647 -0.7952
15940SOL     OW49035   5.880   2.234   8.286  0.2027  0.4660  0.1533
15940SOL    HW149036   5.861   2.223   8.193 -0.7123  0.7333  0.2937
15940SOL    HW249037   5.973   2.216   8.294  0.4172  1.0004 -0.9112
15941SOL     OW49038   7.227   3.331   7.690  0.1687 -0.0144 -0.1811
15941SOL    HW149039   7.230   3.419   7.728 -0.8728  0.1915 -0.5339
15941SOL    HW249040   7.198   3.345   7.600  3.7448 -0.3738 -1.5196
15942SOL     OW49041   7.033   3.028   0.021  0.5547 -0.1411  0.1571
15942SOL    HW149042   7.129   3.035   0.024  0.4793  0.9675  0.4494
15942SOL    HW249043   7.004   3.075   0.099 -0.1960 -1.6694  0.8552
15943SOL     OW49044   6.696   2.700   7.264  0.8703  0.2398  0.0336
15943SOL    HW149045   6.602   2.703   7.248  1.1511  0.6756 -1.7603
15943SOL    HW249046   6.706   2.737   7.352 -0.6829 -0.6090  0.6126
15944SOL     OW49047   7.393   3.555   7.526  0.1911 -0.0571  0.1082
15944SOL    HW149048   7.320   3.563   7.587  0.9967 -2.5109  1.5304
15944SOL    HW249049   7.355   3.511   7.449 -0.5160  1.7966 -0.6654
15945SOL     OW49050   6.847   3.546   0.015 -0.0375 -0.3193 -0.0817
15945SOL    HW149051   6.879   3.467   0.058 -0.8999  0.3923  1.9752
15945SOL    HW249052   6.918   3.609   0.024  0.5315 -0.7281 -1.4574
15946SOL     OW49053   6.935   3.155   8.441  0.6607 -0.6687  0.0191
15946SOL    HW149054   6.956   3.100   8.516 -0.4629 -2.4348 -0.8798
15946SOL    HW249055   6.894   3.095   8.378  0.8937  0.8903 -1.7054
15947SOL     OW49056   6.851   2.615   8.169  0.1350  0.6468 -0.3314
15947SOL    HW149057   6.818   2.681   8.108 -1.3125 -2.1830 -2.8448
15947SOL    HW249058   6.780   2.602   8.232  0.8351  2.1014  0.8357
15948SOL     OW49059   6.185   3.234   7.971 -0.1725  0.0273  0.0126
15948SOL    HW149060   6.244   3.218   7.898  0.3084  0.3274  0.3266
15948SOL    HW249061   6.118   3.293   7.935 -0.0297  0.0459 -0.2271
15949SOL     OW49062   6.870   2.148   8.036 -0.5035  0.2743 -0.4820
15949SOL    HW149063   6.947   2.204   8.044 -1.2662  1.2457  0.1794
15949SOL    HW249064   6.898   2.079   7.975  0.8866  0.5971 -0.2527
15950SOL     OW49065   6.013   3.430   7.809  0.0531 -0.0767 -0.7750
15950SOL    HW149066   6.011   3.358   7.745  0.0097  0.2600 -1.1567
15950SOL    HW249067   5.924   3.465   7.807  0.0267 -0.1284 -0.4538
15951SOL     OW49068   6.446   2.290   0.135  0.3716  0.4037  0.5274
15951SOL    HW149069   6.498   2.215   0.106  1.2338  1.4372 -0.6973
15951SOL    HW249070   6.438   2.278   0.229  2.7672  0.1350  0.7708
15952SOL     OW49071   5.437   2.325   7.314 -0.0497  0.5597 -0.6407
15952SOL    HW149072   5.440   2.415   7.348  2.4478  0.2140  0.2893
15952SOL    HW249073   5.388   2.276   7.380  3.7213  0.1429  2.1734
15953SOL     OW49074   5.533   1.923   7.338 -0.6468 -0.0463 -0.1081
15953SOL    HW149075   5.596   1.860   7.304 -0.3124  0.4886 -0.4972
15953SOL    HW249076   5.467   1.869   7.382  0.8850 -0.5240  1.7021
15954SOL     OW49077   6.613   3.112   7.520 -0.4623 -0.8529 -0.4039
15954SOL    HW149078   6.607   3.099   7.615 -1.4028  0.1239 -0.3122
15954SOL    HW249079   6.672   3.186   7.510 -1.1909 -0.2818 -0.5232
15955SOL     OW49080   6.411   2.903   0.024  0.2220  0.0338 -0.0611
15955SOL    HW149081   6.368   2.834  -0.027 -0.4602 -2.0273  3.0294
15955SOL    HW249082   6.339   2.954   0.061  0.5510 -0.3163  1.1111
15956SOL     OW49083   7.609   4.221   8.224 -0.1132 -0.0453  0.0573
15956SOL    HW149084   7.603   4.303   8.174  1.9907  0.4197  0.4485
15956SOL    HW249085   7.604   4.152   8.157 -0.3300  0.4586 -0.4561
15957SOL     OW49086   5.658   3.226   0.250  0.0980 -0.0579  0.1806
15957SOL    HW149087   5.599   3.200   0.321 -1.4728 -0.7249 -1.2947
15957SOL    HW249088   5.664   3.149   0.194 -1.3682  1.4102 -2.1518
15958SOL     OW49089   7.262   2.936   8.586 -0.6960  0.4621 -0.0560
15958SOL    HW149090   7.326   2.912   8.520  0.1239 -0.2704  0.9677
15958SOL    HW249091   7.308   2.997   8.643  0.6222 -3.0238  3.0443
15959SOL     OW49092   7.210   2.300   7.748 -0.4334 -1.1496  0.4709
15959SOL    HW149093   7.219   2.299   7.843  1.6034 -1.7087  0.3197
15959SOL    HW249094   7.123   2.263   7.732 -1.6578  0.7964  2.1407
15960SOL     OW49095   6.285   2.431   8.231 -0.4651 -0.1203 -0.0846
15960SOL    HW149096   6.374   2.455   8.207 -0.9664 -0.0836 -2.0888
15960SOL    HW249097   6.275   2.341   8.199 -1.1984 -0.0602 -0.0396
15961SOL     OW49098   7.451   2.705   8.773 -0.6158 -0.3388 -0.0266
15961SOL    HW149099   7.467   2.615   8.747 -0.6012  0.1644 -1.8981
15961SOL    HW249100   7.538   2.743   8.785 -0.6035 -0.2927 -0.2658
15962SOL     OW49101   6.293   3.189   7.709  0.2283 -0.4303 -0.7111
15962SOL    HW149102   6.371   3.140   7.683 -0.5848 -2.5559  0.6295
15962SOL    HW249103   6.259   3.224   7.626  0.6821 -2.4143 -1.8169
15963SOL     OW49104   6.467   3.773   8.322  0.4538  0.0102 -0.1123
15963SOL    HW149105   6.424   3.853   8.292 -1.1478 -0.6677  0.3148
15963SOL    HW249106   6.426   3.702   8.273  1.5033 -0.6216 -0.1255
15964SOL     OW49107   6.640   2.771   8.056 -0.0947 -0.2090  0.5018
15964SOL    HW149108   6.570   2.780   7.992  0.5637 -0.0449 -0.2073
15964SOL    HW249109   6.704   2.837   8.032  1.5336 -2.0218 -0.4796
15965SOL     OW49110   6.381   2.589   7.394 -0.3534 -0.1928 -0.2387
15965SOL    HW149111   6.365   2.677   7.430  0.3015  0.4407 -1.4124
15965SOL    HW249112   6.365   2.599   7.300 -1.2289 -1.5974 -0.2566
15966SOL     OW49113   7.238   3.705   8.096  0.3868  0.1076 -0.1992
15966SOL    HW149114   7.235   3.798   8.074  0.9580  0.0174 -0.6567
15966SOL    HW249115   7.146   3.678   8.099  0.2531  0.3438 -1.5301
15967SOL     OW49116   5.750   3.172   8.650 -0.2752  0.2440 -0.1812
15967SOL    HW149117   5.772   3.236   8.583  2.1293 -0.6959 -0.3897
15967SOL    HW249118   5.797   3.201   8.728  0.6360 -1.0687 -0.2030
15968SOL     OW49119   7.068   2.279   8.423 -0.1267  0.6608  0.1121
15968SOL    HW149120   7.068   2.293   8.518 -0.5786 -0.4671  0.2942
15968SOL    HW249121   6.980   2.247   8.403 -0.1967  1.3675 -0.7687
15969SOL     OW49122   5.702   2.644   7.880 -0.3796  0.0034 -0.1786
15969SOL    HW149123   5.677   2.711   7.944  1.5891  0.1864  0.4585
15969SOL    HW249124   5.775   2.683   7.831  0.7331 -1.6151  0.1196
15970SOL     OW49125   6.948   3.632   8.418 -0.6139  0.3337  0.3958
15970SOL    HW149126   6.865   3.670   8.446 -0.4133  0.8237  0.3320
15970SOL    HW249127   6.980   3.583   8.494 -1.2112 -0.2960  0.2532
15971SOL     OW49128   5.812   2.320   8.605  0.1484 -0.5481  0.0995
15971SOL    HW149129   5.903   2.348   8.602  1.0028 -2.6317  2.7888
15971SOL    HW249130   5.772   2.374   8.673 -0.3019 -0.5096 -0.1912
15972SOL     OW49131   6.196   3.411   8.316  0.3755  0.1917  0.3267
15972SOL    HW149132   6.170   3.491   8.362  0.0367  1.1010 -1.3763
15972SOL    HW249133   6.132   3.346   8.345 -2.2105  1.6697 -1.5846
15973SOL     OW49134   6.873   1.941   7.866 -0.5102  0.5836 -0.0771
15973SOL    HW149135   6.891   1.877   7.934  0.8492 -0.5046 -1.3955
15973SOL    HW249136   6.787   1.918   7.832 -1.0223  0.8942  0.9642
15974SOL     OW49137   6.247   1.173   8.429  0.1622 -0.4537 -0.1122
15974SOL    HW149138   6.186   1.106   8.459 -1.5832  0.3671 -1.5882
15974SOL    HW249139   6.194   1.252   8.421  1.9046  0.8520  0.4735
15975SOL     OW49140   6.437   2.802   7.877 -0.0936  0.0346  0.3404
15975SOL    HW149141   6.457   2.751   7.799 -0.0344 -0.4069  0.6362
15975SOL    HW249142   6.346   2.779   7.897 -0.1038  0.1361  0.4104
15976SOL     OW49143   6.117   3.654   8.434 -0.2155  0.1602  0.2608
15976SOL    HW149144   6.152   3.717   8.496  0.3622 -2.3856  2.7160
15976SOL    HW249145   6.053   3.703   8.383  1.4798  3.1029  0.7559
15977SOL     OW49146   7.197   1.761   7.380 -0.0894  0.6643 -0.1352
15977SOL    HW149147   7.122   1.782   7.324 -0.0054  0.2323 -0.4109
15977SOL    HW249148   7.257   1.712   7.324  0.0934  0.4066  0.2773
15978SOL     OW49149   6.932   2.442   7.772 -0.0570  0.0033 -0.5263
15978SOL    HW149150   6.908   2.531   7.748 -0.8938 -0.5616 -1.9286
15978SOL    HW249151   6.849   2.394   7.769  0.6483 -1.2184 -1.7448
15979SOL     OW49152   7.478   1.998   7.741 -0.2022  0.1894 -0.0049
15979SOL    HW149153   7.565   1.995   7.702 -0.2169  0.4212 -0.0595
15979SOL    HW249154   7.425   1.940   7.686  0.1312 -0.6931  0.5902
15980SOL     OW49155   5.412   2.791   7.617  0.2279 -0.0360 -0.1603
15980SOL    HW149156   5.324   2.792   7.655 -0.2094  1.0718 -1.1383
15980SOL    HW249157   5.438   2.699   7.619 -1.4153 -0.5437 -0.8870
15981SOL     OW49158   6.506   3.801   7.570  0.3166  0.2652 -0.3194
15981SOL    HW149159   6.419   3.838   7.561  0.6555  0.9228 -0.9598
15981SOL    HW249160   6.543   3.843   7.647  1.3125  2.5844 -1.9447
15982SOL     OW49161   5.639   4.470   0.254 -0.4003  0.4333  0.3719
15982SOL    HW149162   5.544   4.477   0.239 -0.2191  0.8068 -0.7352
15982SOL    HW249163   5.662   4.385   0.215 -0.5430 -0.5173  2.2497
15983SOL     OW49164   5.679   4.150   1.531 -0.3057  0.2929 -0.0967
15983SOL    HW149165   5.685   4.100   1.612  0.2500  3.0075  1.6615
15983SOL    HW249166   5.589   4.185   1.530 -0.3975  0.0601 -0.8120
15984SOL     OW49167   5.598   4.178   0.567 -0.3847  0.1380  0.5050
15984SOL    HW149168   5.617   4.266   0.535  0.8630 -0.7853 -1.4445
15984SOL    HW249169   5.503   4.174   0.573 -0.6354  0.7166 -2.2278
15985SOL     OW49170   6.175   4.921   0.912 -0.0643  0.2173 -0.4216
15985SOL    HW149171   6.243   4.937   0.978 -0.5914  0.1117  0.1548
15985SOL    HW249172   6.153   5.008   0.878 -1.2923  0.5237  1.0669
15986SOL     OW49173   7.197   5.268   0.300 -0.0604 -0.2837 -0.1923
15986SOL    HW149174   7.107   5.246   0.275  0.3146  0.3677 -2.2544
15986SOL    HW249175   7.235   5.185   0.327 -1.0468 -0.7041 -0.0514
15987SOL     OW49176   6.941   4.202   0.646  0.3477 -0.0802 -0.1464
15987SOL    HW149177   6.856   4.235   0.675  0.3861  0.9155 -1.0910
15987SOL    HW249178   7.005   4.255   0.692  0.4283  0.3201 -0.7123
15988SOL     OW49179   7.378   4.764   0.088 -0.0308  0.6244  0.8982
15988SOL    HW149180   7.288   4.732   0.081 -1.4012  4.1430  0.7115
15988SOL    HW249181   7.420   4.736   0.007 -1.3081  0.0234  0.4166
15989SOL     OW49182   6.459   4.676   1.109 -0.2356 -0.2647  0.2455
15989SOL    HW149183   6.454   4.626   1.027 -1.6259  0.8045 -0.3685
15989SOL    HW249184   6.520   4.747   1.090  1.7548 -1.6345  1.1246
15990SOL     OW49185   5.889   4.660   2.068 -0.0762  0.2128  0.3025
15990SOL    HW149186   5.959   4.637   2.128 -0.3772 -0.9055  0.2594
15990SOL    HW249187   5.814   4.608   2.097 -0.3457 -0.0358 -0.7731
15991SOL     OW49188   6.030   4.367   0.639  0.0828 -0.5974 -0.0269
15991SOL    HW149189   6.075   4.364   0.555  0.1244 -0.4013 -0.0123
15991SOL    HW249190   5.989   4.454   0.641  0.2177 -0.5381  0.2220
15992SOL     OW49191   6.251   4.800   1.752  0.5707 -0.0595  0.0584
15992SOL    HW149192   6.206   4.750   1.685 -0.5611 -0.1863  0.8922
15992SOL    HW249193   6.188   4.808   1.823  1.0297  1.8068  0.3020
15993SOL     OW49194   5.920   4.798   0.850 -0.1686  0.5193 -0.5831
15993SOL    HW149195   5.864   4.860   0.896 -0.8832 -0.3831 -0.2109
15993SOL    HW249196   6.006   4.810   0.890 -0.1671  1.6358 -0.8877
15994SOL     OW49197   7.068   5.410   1.244 -0.8131  0.4423 -0.4299
15994SOL    HW149198   7.033   5.498   1.253  1.7133  1.4566  0.3795
15994SOL    HW249199   7.044   5.367   1.327 -2.1188  0.2872 -0.8587
15995SOL     OW49200   6.230   4.108   1.506 -0.1742  0.2909  0.4385
15995SOL    HW149201   6.143   4.119   1.545 -0.0457  0.4358  0.6908
15995SOL    HW249202   6.230   4.168   1.431  0.0755  1.0801  1.0621
15996SOL     OW49203   7.301   4.452   1.048 -0.4205 -0.0287  0.1822
15996SOL    HW149204   7.235   4.433   1.114  0.9941  2.3368  2.4759
15996SOL    HW249205   7.378   4.402   1.076  0.4592  1.6593  0.9244
15997SOL     OW49206   5.145   5.160   0.175 -0.2992 -0.1407 -0.3964
15997SOL    HW149207   5.224   5.166   0.121 -0.1096 -0.2814 -0.1345
15997SOL    HW249208   5.159   5.084   0.231 -0.9997 -0.6939 -0.9508
15998SOL     OW49209   6.583   5.059   1.583  0.1996  0.1684 -0.2450
15998SOL    HW149210   6.638   5.045   1.660  1.2307  0.4652 -0.8927
15998SOL    HW249211   6.646   5.067   1.511 -0.7954 -1.7359 -1.3824
15999SOL     OW49212   5.176   4.842   8.829  0.1759 -0.4827  0.3063
15999SOL    HW149213   5.110   4.772   8.828 -1.0088  0.3813 -4.0931
15999SOL    HW249214   5.126   4.921   8.848  1.0199 -0.3492  2.2808
16000SOL     OW49215   6.013   4.712   1.275  0.3818 -0.6174 -0.0843
16000SOL    HW149216   5.929   4.666   1.271  0.2434 -0.2715 -2.3325
16000SOL    HW249217   6.067   4.671   1.208  2.7442 -2.0304  2.4407
16001SOL     OW49218   5.896   5.232   1.001  0.1533  0.3505  0.1737
16001SOL    HW149219   5.801   5.220   1.008 -0.2925  3.0510 -0.2703
16001SOL    HW249220   5.927   5.150   0.962 -2.3474  0.2702 -1.9782
16002SOL     OW49221   6.119   4.355   0.391  0.4589 -0.1419 -0.6411
16002SOL    HW149222   6.098   4.275   0.344 -1.5553 -0.4154  0.6029
16002SOL    HW249223   6.082   4.425   0.337 -2.1708 -0.4793  0.5766
16003SOL     OW49224   7.055   3.923   1.569  0.3090  0.1327  0.0943
16003SOL    HW149225   7.068   3.980   1.645  0.6360 -0.9673  0.8864
16003SOL    HW249226   6.963   3.896   1.575  0.6025 -0.7659  0.6934
16004SOL     OW49227   5.772   4.483   1.180  0.3490 -0.4482 -0.3561
16004SOL    HW149228   5.826   4.432   1.119  3.3676  1.9725  0.0260
16004SOL    HW249229   5.786   4.440   1.265  2.0754  0.3046 -0.2060
16005SOL     OW49230   7.249   5.679   8.792 -0.0638 -0.6199  0.0814
16005SOL    HW149231   7.297   5.606   8.831  0.2389 -0.2272  0.4459
16005SOL    HW249232   7.159   5.647   8.784  0.3812 -1.6432 -1.3087
16006SOL     OW49233   5.238   4.909   8.509 -0.1624 -0.1175 -0.4747
16006SOL    HW149234   5.168   4.865   8.461  0.0007 -1.3156  0.3303
16006SOL    HW249235   5.317   4.859   8.488  0.2459  0.5081 -0.4565
16007SOL     OW49236   7.295   5.403   0.773 -0.5131 -1.0657  0.4372
16007SOL    HW149237   7.315   5.453   0.852 -0.6083 -0.5575  0.1427
16007SOL    HW249238   7.354   5.438   0.706 -0.3654 -1.5584  0.2998
16008SOL     OW49239   7.290   4.787   0.676 -0.6869  0.2973 -0.0188
16008SOL    HW149240   7.230   4.862   0.673 -0.3710  0.5459 -0.1611
16008SOL    HW249241   7.281   4.753   0.765 -0.9140  0.4321  0.0119
16009SOL     OW49242   5.675   4.222   1.865  0.7149  1.2672 -0.1891
16009SOL    HW149243   5.735   4.294   1.845  1.7569  0.4216 -0.1862
16009SOL    HW249244   5.619   4.257   1.935 -0.0700  2.7113 -1.4624
16010SOL     OW49245   6.189   4.861   0.625 -0.1010 -0.2970  0.0943
16010SOL    HW149246   6.163   4.924   0.692  0.2488 -0.2084  0.1514
16010SOL    HW249247   6.107   4.826   0.592 -0.2737 -0.5117  0.7320
16011SOL     OW49248   6.711   4.682   1.422 -0.1785  0.0096 -0.1738
16011SOL    HW149249   6.648   4.720   1.483  1.2056  2.1388  0.0570
16011SOL    HW249250   6.783   4.652   1.478 -1.0719 -2.8740 -0.3766
16012SOL     OW49251   6.135   3.208   0.777  0.0078  0.9812 -0.0168
16012SOL    HW149252   6.162   3.285   0.825 -0.0605 -0.7352  3.0461
16012SOL    HW249253   6.048   3.230   0.742  0.1799  2.4012  0.4269
16013SOL     OW49254   5.620   4.850   1.724  0.4406  0.0236 -0.1015
16013SOL    HW149255   5.575   4.786   1.779  0.1897 -1.6545 -2.1132
16013SOL    HW249256   5.573   4.932   1.739 -3.4665 -1.5895 -2.0157
16014SOL     OW49257   6.854   4.292   0.906 -0.0205  0.4064  0.2892
16014SOL    HW149258   6.870   4.386   0.915  2.2711 -0.0702  2.5713
16014SOL    HW249259   6.767   4.279   0.944 -0.9415  1.6957 -1.2400
16015SOL     OW49260   6.515   5.232   1.294 -0.8407  0.2730 -0.3394
16015SOL    HW149261   6.564   5.311   1.273  2.0717 -0.9668  1.2767
16015SOL    HW249262   6.581   5.167   1.317 -3.2188 -1.7203  1.5115
16016SOL     OW49263   6.186   3.670   2.141 -0.2343  0.0314 -0.8026
16016SOL    HW149264   6.257   3.723   2.104 -0.6960  0.9457 -0.4333
16016SOL    HW249265   6.158   3.612   2.070  0.8567 -0.3165 -0.9575
16017SOL     OW49266   7.099   5.392   0.584 -0.5425  0.6259 -0.1251
16017SOL    HW149267   7.178   5.367   0.631 -0.9629 -0.2409  0.1379
16017SOL    HW249268   7.112   5.360   0.495 -0.0988  1.5450 -0.4097
16018SOL     OW49269   6.764   5.743   8.774  0.1158 -0.0930  0.3204
16018SOL    HW149270   6.738   5.734   8.682  0.3489  0.3241  0.2118
16018SOL    HW249271   6.687   5.717   8.824  0.5912 -2.2488  0.0279
16019SOL     OW49272   6.092   4.139   0.250  0.2797  0.1502  1.0892
16019SOL    HW149273   6.113   4.085   0.326  0.5230 -1.5012 -0.0998
16019SOL    HW249274   5.997   4.140   0.246  0.2662  0.2536  1.4134
16020SOL     OW49275   6.936   4.216   1.443  0.7878  0.4165  0.6277
16020SOL    HW149276   6.870   4.264   1.393  0.5121  1.8525  2.2881
16020SOL    HW249277   6.891   4.187   1.522  1.7610  0.0988  1.0810
16021SOL     OW49278   7.502   5.197   0.335  0.5672  0.3044 -0.0915
16021SOL    HW149279   7.501   5.109   0.297  1.4699 -0.1147  0.7961
16021SOL    HW249280   7.550   5.250   0.272  0.2984  0.0831 -0.4818
16022SOL     OW49281   6.487   4.336   1.308 -0.2697  0.5959  0.5784
16022SOL    HW149282   6.428   4.263   1.326  1.4374 -1.1992 -0.6221
16022SOL    HW249283   6.451   4.409   1.358 -2.8184 -0.6889  0.7780
16023SOL     OW49284   7.201   4.617   1.512  0.9137 -0.6297 -0.2205
16023SOL    HW149285   7.146   4.553   1.558  0.5696  0.5206  1.0077
16023SOL    HW249286   7.252   4.660   1.581  0.8960  0.6500 -0.9745
16024SOL     OW49287   6.312   5.080   1.154 -0.1640 -0.4694 -0.1729
16024SOL    HW149288   6.360   5.136   1.215  0.3581  0.2215 -1.1921
16024SOL    HW249289   6.245   5.039   1.208 -0.0485  0.5156  0.7670
16025SOL     OW49290   6.310   3.440   1.284  0.1827  0.3318  0.2795
16025SOL    HW149291   6.314   3.525   1.240 -1.3569 -0.1919 -0.9371
16025SOL    HW249292   6.370   3.449   1.358  0.3080  2.3578 -0.0142
16026SOL     OW49293   6.936   4.308   0.333 -0.1352  0.3445 -0.2488
16026SOL    HW149294   6.943   4.284   0.425 -0.5064  0.7660 -0.1070
16026SOL    HW249295   6.847   4.282   0.309 -0.1700  0.5926 -0.3848
16027SOL     OW49296   5.403   4.256   1.446 -0.5465  0.0030 -0.1285
16027SOL    HW149297   5.362   4.274   1.531  0.0662 -0.9484  0.3798
16027SOL    HW249298   5.333   4.217   1.394 -0.6441 -0.4110  0.3038
16028SOL     OW49299   5.807   5.525   1.738 -0.1598 -0.6614  0.0544
16028SOL    HW149300   5.766   5.473   1.669  0.2577 -0.3092 -0.4718
16028SOL    HW249301   5.757   5.505   1.816 -1.3466 -0.2045 -0.5754
16029SOL     OW49302   6.606   4.011   8.764 -0.2455 -0.0709  0.2513
16029SOL    HW149303   6.628   3.918   8.757  1.6827  0.4420 -1.2495
16029SOL    HW249304   6.532   4.022   8.704 -1.2507 -0.8010  1.2978
16030SOL     OW49305   7.304   4.543   1.846  0.6955 -0.3468  0.2259
16030SOL    HW149306   7.308   4.615   1.784 -1.1585 -0.0610  0.3569
16030SOL    HW249307   7.323   4.465   1.794  1.3326  0.0923 -0.2112
16031SOL     OW49308   6.936   5.128   0.546 -0.2833  0.0438 -0.4127
16031SOL    HW149309   6.912   5.195   0.482 -2.5820 -0.1823  0.1065
16031SOL    HW249310   6.922   5.170   0.631  0.6591 -0.3281 -0.0689
16032SOL     OW49311   6.585   3.920   0.867 -0.1257  1.1413  0.0949
16032SOL    HW149312   6.639   3.958   0.936 -0.3378  0.1308  0.8532
16032SOL    HW249313   6.642   3.917   0.790  0.7956  0.4129  0.7887
16033SOL     OW49314   6.476   5.470   0.452 -0.2887  0.2667  0.3577
16033SOL    HW149315   6.400   5.463   0.394 -0.8559  0.1203  1.0996
16033SOL    HW249316   6.446   5.433   0.535  0.1255  1.5472  1.1053
16034SOL     OW49317   5.479   5.135   0.563 -0.2544 -0.0153 -0.3027
16034SOL    HW149318   5.408   5.192   0.594 -0.3401 -0.3295  0.0846
16034SOL    HW249319   5.444   5.046   0.574  0.8149 -0.2565  1.4523
16035SOL     OW49320   7.740   4.780   0.912 -0.1729 -0.2078  0.3820
16035SOL    HW149321   7.689   4.843   0.860 -1.2318 -2.3654 -1.3486
16035SOL    HW249322   7.675   4.720   0.947  0.9430 -1.4051  0.4693
16036SOL     OW49323   7.019   5.196   1.428  0.0110 -1.0770  0.2163
16036SOL    HW149324   7.086   5.164   1.368  1.2742 -0.3705  1.2035
16036SOL    HW249325   6.953   5.127   1.430 -0.5642 -0.7095 -2.7022
16037SOL     OW49326   5.758   4.725   0.306  0.4420  0.4372 -0.8480
16037SOL    HW149327   5.685   4.664   0.293  0.4994  0.3159 -0.5993
16037SOL    HW249328   5.717   4.808   0.329  0.3825  0.3606 -0.6779
16038SOL     OW49329   7.526   4.628   0.988  0.5852  0.1766 -0.0651
16038SOL    HW149330   7.477   4.549   0.966 -0.2381  0.8359 -0.6697
16038SOL    HW249331   7.461   4.686   1.028  1.0697  0.7234 -0.0630
16039SOL     OW49332   5.807   5.076   1.876  0.1981 -0.0617  0.4018
16039SOL    HW149333   5.818   4.999   1.931 -1.2959 -0.4707  0.1664
16039SOL    HW249334   5.895   5.095   1.843  0.8866 -0.6201  1.8148
16040SOL     OW49335   6.076   5.491   0.401  0.1597  0.0404 -0.1181
16040SOL    HW149336   5.984   5.466   0.411  0.0778  0.6755  0.8150
16040SOL    HW249337   6.106   5.510   0.490  1.0228  0.4338 -0.4811
16041SOL     OW49338   6.003   4.470   1.635  0.5768 -0.0793 -0.1221
16041SOL    HW149339   6.037   4.534   1.573  1.5140 -0.0416  0.4112
16041SOL    HW249340   6.054   4.484   1.715 -0.2989 -0.4265  0.5152
16042SOL     OW49341   7.302   5.041   0.439 -0.1711  0.1113  0.3294
16042SOL    HW149342   7.290   5.026   0.533 -0.0105  1.0051  0.5066
16042SOL    HW249343   7.377   5.100   0.434 -0.0580 -0.0876 -0.3737
16043SOL     OW49344   5.784   5.522   0.388 -0.3787 -0.1920  0.7374
16043SOL    HW149345   5.794   5.562   0.474  1.3182 -1.3079  1.1102
16043SOL    HW249346   5.700   5.478   0.391 -0.7881  0.6165  1.4593
16044SOL     OW49347   6.853   3.667   0.690 -0.4844 -0.0652 -0.5392
16044SOL    HW149348   6.919   3.714   0.740 -0.0684 -1.6370  0.4557
16044SOL    HW249349   6.808   3.735   0.640  1.7054  1.0639 -1.0679
16045SOL     OW49350   5.810   5.648   1.108  0.8478 -0.3936 -0.0219
16045SOL    HW149351   5.848   5.720   1.159  0.1499  0.6268 -0.8957
16045SOL    HW249352   5.871   5.575   1.121  0.4281 -0.3634  2.6749
16046SOL     OW49353   6.677   5.510   0.848  0.4109 -0.2651 -0.0616
16046SOL    HW149354   6.755   5.529   0.795 -0.2354  1.7398 -0.3736
16046SOL    HW249355   6.666   5.415   0.840  3.4155 -0.7984  0.8836
16047SOL     OW49356   6.011   4.414   1.020  0.0176  0.0579  0.6364
16047SOL    HW149357   6.082   4.360   0.985 -0.4387 -0.8941  1.1276
16047SOL    HW249358   6.052   4.498   1.039  0.8765 -0.2821  0.3492
16048SOL     OW49359   6.806   4.138   1.673  0.1330 -0.4660 -0.3679
16048SOL    HW149360   6.874   4.128   1.740 -0.1627  0.1772  0.0304
16048SOL    HW249361   6.779   4.048   1.654 -0.7998 -0.6036  1.4404
16049SOL     OW49362   6.350   4.076   1.911 -0.2024 -0.2740  0.2194
16049SOL    HW149363   6.371   4.026   1.990  2.3031  0.5919  0.2081
16049SOL    HW249364   6.312   4.157   1.944  2.4249  0.8490  0.7805
16050SOL     OW49365   6.779   4.853   1.003 -0.3077  0.0639 -0.2341
16050SOL    HW149366   6.699   4.894   1.036 -0.6196 -1.3353  0.8380
16050SOL    HW249367   6.776   4.763   1.037  0.4400 -0.8105 -2.3249
16051SOL     OW49368   6.721   4.428   1.748 -0.3822 -0.2654  0.1507
16051SOL    HW149369   6.753   4.342   1.720  0.1826 -0.8389  2.3418
16051SOL    HW249370   6.626   4.421   1.744 -0.3511 -1.1896  0.8067
16052SOL     OW49371   6.363   4.581   0.853 -0.0852 -0.2153  0.0995
16052SOL    HW149372   6.292   4.599   0.793  0.3042 -1.2331 -0.7039
16052SOL    HW249373   6.411   4.509   0.812  1.7121  0.7776  0.3573
16053SOL     OW49374   6.566   3.801   1.386 -0.5393 -0.6186  0.8211
16053SOL    HW149375   6.496   3.785   1.449  1.7746 -0.3396  3.7077
16053SOL    HW249376   6.547   3.887   1.349 -0.6699  0.4364  3.1703
16054SOL     OW49377   5.387   3.609   0.380 -0.7560  0.3031  0.3069
16054SOL    HW149378   5.312   3.550   0.389 -0.6449  0.2651  1.0855
16054SOL    HW249379   5.437   3.575   0.306 -1.1866 -0.0288  0.1683
16055SOL     OW49380   6.876   5.309   0.342 -0.4073 -0.0429 -0.4312
16055SOL    HW149381   6.858   5.235   0.284  1.1377  1.1300 -2.5844
16055SOL    HW249382   6.805   5.371   0.323 -0.6209 -0.1708 -0.0672
16056SOL     OW49383   6.342   3.617   0.704 -0.5727  0.2134  0.0299
16056SOL    HW149384   6.341   3.655   0.616 -1.6184  0.5028  0.1540
16056SOL    HW249385   6.320   3.690   0.762 -0.9063 -0.2034  0.4356
16057SOL     OW49386   6.479   4.813   1.568 -0.0678  0.0035  0.2388
16057SOL    HW149387   6.407   4.841   1.625  0.0557 -0.1295  0.4636
16057SOL    HW249388   6.514   4.894   1.532  1.9506  0.4479  2.8782
16058SOL     OW49389   6.700   5.514   0.275  0.0053 -0.4508 -0.6742
16058SOL    HW149390   6.656   5.539   0.194  1.5029 -0.2607 -1.4773
16058SOL    HW249391   6.630   5.503   0.339 -1.2926 -1.4090 -2.1991
16059SOL     OW49392   5.795   4.140   0.357  0.3236 -0.3627 -0.3530
16059SOL    HW149393   5.740   4.065   0.380  1.1651 -0.8823 -0.0099
16059SOL    HW249394   5.735   4.201   0.313 -0.6767 -0.5946  0.6639
16060SOL     OW49395   6.733   5.696   0.513  0.2363 -0.2900  0.0746
16060SOL    HW149396   6.717   5.618   0.458 -0.2087 -0.4248  0.3935
16060SOL    HW249397   6.795   5.666   0.579 -1.4798 -0.9532  1.4436
16061SOL     OW49398   6.836   4.119   0.050 -0.2292 -0.5430 -0.1474
16061SOL    HW149399   6.767   4.102  -0.014 -0.3544  2.3081 -0.9370
16061SOL    HW249400   6.794   4.173   0.116  0.6153 -1.0399  0.8152
16062SOL     OW49401   5.952   4.186   1.649  0.0933  0.1444 -0.3912
16062SOL    HW149402   5.933   4.275   1.681 -2.3708  0.2870 -1.9942
16062SOL    HW249403   5.869   4.140   1.656  1.1336 -1.8241 -0.3946
16063SOL     OW49404   6.167   3.799   1.676  0.5671  0.0345 -0.3890
16063SOL    HW149405   6.200   3.888   1.687 -1.1510  0.7652 -0.7451
16063SOL    HW249406   6.245   3.744   1.675  1.6957  1.5735 -0.5917
16064SOL     OW49407   6.583   4.393   0.533 -0.2087  0.0241 -0.4404
16064SOL    HW149408   6.659   4.444   0.505 -0.0566  1.3163  2.0222
16064SOL    HW249409   6.508   4.435   0.490 -0.0948  2.4868  1.5306
16065SOL     OW49410   6.628   3.492   0.726  0.0630 -0.2870 -0.2468
16065SOL    HW149411   6.578   3.568   0.696  0.0656 -1.0867 -2.4573
16065SOL    HW249412   6.707   3.530   0.766 -0.4623  0.8728 -0.2503
16066SOL     OW49413   7.211   5.040   0.705  0.1918  0.2042  0.4620
16066SOL    HW149414   7.137   5.084   0.664  0.4347  0.1696 -0.0234
16066SOL    HW249415   7.176   5.006   0.788 -0.9593 -1.7142 -0.7162
16067SOL     OW49416   7.630   4.535   1.385  0.5475 -0.6690 -0.1659
16067SOL    HW149417   7.578   4.469   1.433 -0.8682  0.3978 -0.1648
16067SOL    HW249418   7.577   4.614   1.390  2.6675  0.7759  0.6755
16068SOL     OW49419   7.761   4.723   0.277 -0.0767  0.5213 -0.1941
16068SOL    HW149420   7.807   4.643   0.250 -2.0709 -0.7672  0.0383
16068SOL    HW249421   7.760   4.719   0.373  0.7585  1.4326 -0.1232
16069SOL     OW49422   6.430   4.682   0.348 -0.0742 -0.1501  0.0526
16069SOL    HW149423   6.350   4.726   0.319  0.6546  0.3037 -1.3783
16069SOL    HW249424   6.408   4.589   0.348 -1.6668  0.0763  3.1943
16070SOL     OW49425   7.443   5.212   0.907 -0.5026 -0.4976 -0.1699
16070SOL    HW149426   7.486   5.154   0.844 -0.4543 -0.1893 -0.4202
16070SOL    HW249427   7.388   5.270   0.854 -1.3705 -0.9924  0.1539
16071SOL     OW49428   7.255   5.052   0.021  0.0346  0.3304  0.3723
16071SOL    HW149429   7.218   4.989  -0.041 -1.7866  0.3840  1.3579
16071SOL    HW249430   7.237   5.014   0.107 -0.4034  1.8232  0.9603
16072SOL     OW49431   6.129   3.985   0.488  0.7953  0.4917 -0.3009
16072SOL    HW149432   6.069   4.027   0.549  0.4836  1.0685 -0.9917
16072SOL    HW249433   6.181   3.925   0.543 -0.8520 -0.5440  0.2102
16073SOL     OW49434   7.434   4.727   1.409 -0.8260  0.1739  0.4145
16073SOL    HW149435   7.421   4.757   1.319 -1.4581 -1.0870  0.0591
16073SOL    HW249436   7.348   4.695   1.437 -0.6698  0.6502  1.5130
16074SOL     OW49437   6.395   4.622   1.384  0.1131  0.2342 -0.1751
16074SOL    HW149438   6.415   4.643   1.292 -1.0091  1.8534 -0.0899
16074SOL    HW249439   6.430   4.696   1.433  1.0940 -0.8338  0.7729
16075SOL     OW49440   7.237   5.037   1.581  0.1715  0.4177  0.0955
16075SOL    HW149441   7.264   5.043   1.489 -0.7826  1.6214 -0.1424
16075SOL    HW249442   7.141   5.034   1.578  0.0997  1.0674  1.0535
16076SOL     OW49443   6.610   4.414   1.054 -0.1214 -0.8224  0.3223
16076SOL    HW149444   6.584   4.412   0.962  0.5197 -1.9983  0.1529
16076SOL    HW249445   6.528   4.405   1.103 -0.6612  1.2808 -0.0589
16077SOL     OW49446   7.433   4.822   1.147 -0.0546  0.2291 -0.3628
16077SOL    HW149447   7.381   4.902   1.144  0.0826  0.2975 -1.3501
16077SOL    HW249448   7.523   4.851   1.159 -0.1988  0.1248  1.0622
16078SOL     OW49449   6.598   3.325   1.832  0.2250  0.2783  0.3069
16078SOL    HW149450   6.567   3.252   1.886 -1.4023  1.6490  1.3464
16078SOL    HW249451   6.595   3.292   1.742 -2.0805 -0.4299  0.5898
16079SOL     OW49452   6.927   4.905   1.445  0.4017 -0.2515  0.0958
16079SOL    HW149453   6.942   4.884   1.537  0.2357 -0.8346 -0.0082
16079SOL    HW249454   6.999   4.864   1.398  0.7839  0.4945  0.0098
16080SOL     OW49455   6.329   4.095   0.679 -0.1270 -0.2793 -0.0482
16080SOL    HW149456   6.408   4.077   0.628  0.2023  1.0547 -0.0281
16080SOL    HW249457   6.316   4.015   0.731  3.0338  0.5471  2.3417
16081SOL     OW49458   5.878   4.770   1.630 -0.2846 -0.1529  0.2984
16081SOL    HW149459   5.849   4.684   1.600 -0.9348 -0.5570  1.9716
16081SOL    HW249460   5.800   4.825   1.625 -0.2619 -0.0814  0.7132
16082SOL     OW49461   6.785   3.854   1.573  0.2933 -0.6676 -0.0449
16082SOL    HW149462   6.744   3.808   1.646 -1.2641  1.4238  0.4735
16082SOL    HW249463   6.732   3.831   1.497 -0.1547 -0.1603  0.1133
16083SOL     OW49464   5.515   5.180   1.390 -0.6726 -0.2050  0.2292
16083SOL    HW149465   5.556   5.097   1.416 -0.6961 -0.6246 -1.0299
16083SOL    HW249466   5.445   5.155   1.330 -1.0737  0.6897  0.3109
16084SOL     OW49467   6.002   4.800   0.444  0.2097  0.4990  0.3275
16084SOL    HW149468   6.062   4.766   0.378 -0.7661 -0.9049  0.1213
16084SOL    HW249469   5.915   4.793   0.405 -0.1248  2.8133  0.4872
16085SOL     OW49470   6.688   4.241   0.252 -0.0120  0.0380 -0.1654
16085SOL    HW149471   6.630   4.171   0.222  0.2319 -0.2556  0.0384
16085SOL    HW249472   6.633   4.319   0.254 -0.7983 -0.5145  1.4210
16086SOL     OW49473   6.852   4.851   0.411 -0.0251 -0.0076 -0.3457
16086SOL    HW149474   6.920   4.790   0.383  0.2224  0.9166 -1.8925
16086SOL    HW249475   6.897   4.911   0.470  0.3971  0.3054 -0.9784
16087SOL     OW49476   6.901   5.173   0.794  0.2165  0.2063  0.1827
16087SOL    HW149477   6.943   5.207   0.873  0.8464  0.6659 -0.3463
16087SOL    HW249478   6.881   5.081   0.816  1.4766 -0.0183  0.4447
16088SOL     OW49479   7.516   4.410   0.708 -0.0706 -0.5382 -0.2637
16088SOL    HW149480   7.493   4.335   0.763  1.3744 -1.2690 -0.5980
16088SOL    HW249481   7.444   4.417   0.646 -1.0246 -0.6023  0.7916
16089SOL     OW49482   5.777   4.987   0.982 -0.2139 -0.5153 -0.2820
16089SOL    HW149483   5.692   4.962   0.947 -2.0299  3.7512  0.4785
16089SOL    HW249484   5.770   4.970   1.076 -0.2590 -0.0768 -0.2053
16090SOL     OW49485   6.171   4.263   1.303  0.8979 -0.7599  0.0826
16090SOL    HW149486   6.124   4.212   1.237 -0.2131  0.4959 -0.1334
16090SOL    HW249487   6.189   4.347   1.261  0.2009  0.0558  1.3255
16091SOL     OW49488   7.047   4.085   1.226 -0.5003 -0.3060  0.5509
16091SOL    HW149489   7.007   4.126   1.304  1.0664 -0.5033  1.5037
16091SOL    HW249490   7.015   3.995   1.228  1.0112 -0.8748  2.1292
16092SOL     OW49491   6.414   3.747   2.024 -0.2942 -0.4141  0.4586
16092SOL    HW149492   6.445   3.657   2.018  0.4742 -0.1680  0.5973
16092SOL    HW249493   6.494   3.799   2.039 -0.6392  0.3670 -0.3400
16093SOL     OW49494   5.586   3.556   1.942  0.1098  0.7417  0.2194
16093SOL    HW149495   5.669   3.571   1.897  0.8846 -1.5266  0.7627
16093SOL    HW249496   5.610   3.513   2.024 -1.6092 -0.3304  0.2191
16094SOL     OW49497   6.163   4.638   1.071  0.0161 -0.1607 -0.2449
16094SOL    HW149498   6.151   4.702   1.001 -0.9902  0.5410  0.5444
16094SOL    HW249499   6.256   4.642   1.092  0.0861  0.5536 -0.6715
16095SOL     OW49500   7.213   4.686   0.914 -0.2983  0.5140 -0.2336
16095SOL    HW149501   7.261   4.615   0.956  0.1632  0.8099 -0.2546
16095SOL    HW249502   7.232   4.764   0.967 -0.2546  0.7559 -0.5988
16096SOL     OW49503   7.204   4.529   0.107 -0.1800  0.7276  0.5814
16096SOL    HW149504   7.184   4.437   0.092  1.3732  0.4140  0.2770
16096SOL    HW249505   7.290   4.529   0.151  0.9725  2.0707 -1.4854
16097SOL     OW49506   5.748   3.852   1.630 -0.1878  0.4599  0.3076
16097SOL    HW149507   5.682   3.871   1.697 -0.1507 -1.4397  0.9224
16097SOL    HW249508   5.699   3.850   1.548 -0.7263  0.0755  0.6344
16098SOL     OW49509   5.806   5.132   1.590  0.0650  0.3879  0.3938
16098SOL    HW149510   5.883   5.076   1.581  0.3639  0.5916  1.5260
16098SOL    HW249511   5.756   5.094   1.663  0.6526  1.9787  1.7017
16099SOL     OW49512   6.291   3.981   1.115 -0.3504 -0.0301 -0.0859
16099SOL    HW149513   6.200   4.009   1.123 -1.2999 -2.7536 -0.2690
16099SOL    HW249514   6.333   4.010   1.196 -1.4015  1.1340  0.0641
16100SOL     OW49515   7.314   4.787   1.702 -0.3813  0.1193 -0.0210
16100SOL    HW149516   7.377   4.847   1.662  0.9324 -0.6059  0.9108
16100SOL    HW249517   7.286   4.831   1.782 -1.1517  0.4663 -0.4603
16101SOL     OW49518   5.488   3.729   0.635  0.0196 -0.3155 -0.1853
16101SOL    HW149519   5.560   3.787   0.612  1.2278 -1.6786  0.0288
16101SOL    HW249520   5.460   3.692   0.551 -2.1173  2.0006 -0.6143
16102SOL     OW49521   7.413   4.600   0.337  0.8190  0.0506 -0.2565
16102SOL    HW149522   7.484   4.536   0.346  1.1588  0.2838 -1.2240
16102SOL    HW249523   7.442   4.660   0.269 -0.0139  0.5589 -0.1845
16103SOL     OW49524   6.521   4.041   1.282  0.4702 -0.1429  0.0988
16103SOL    HW149525   6.571   4.092   1.219 -0.8829  0.5692 -0.4316
16103SOL    HW249526   6.541   4.082   1.367 -0.2501  1.0104 -0.2676
16104SOL     OW49527   6.816   5.087   1.768  0.6069 -0.2154  0.2108
16104SOL    HW149528   6.864   5.170   1.772  0.4587 -0.1360  0.3691
16104SOL    HW249529   6.749   5.095   1.837  0.3218 -0.2958 -0.0540
16105SOL     OW49530   7.584   5.303   1.377 -0.1034  0.0801  0.5258
16105SOL    HW149531   7.525   5.313   1.303 -1.6872 -0.5007  1.6600
16105SOL    HW249532   7.527   5.298   1.453  1.4332 -0.1659  1.7179
16106SOL     OW49533   5.819   4.451   1.858  0.3987 -0.5646  0.2972
16106SOL    HW149534   5.807   4.540   1.892  0.1753 -0.9109  1.1584
16106SOL    HW249535   5.907   4.451   1.820  0.8251 -0.2603  1.2429
16107SOL     OW49536   7.048   3.977   8.818 -0.0022  0.1685  0.3932
16107SOL    HW149537   6.963   4.006   8.850  0.0654  0.7833  0.0315
16107SOL    HW249538   7.087   3.931   8.892 -0.3891  0.4268  0.7625
16108SOL     OW49539   6.830   4.764   0.029  0.2207  0.0618  0.3308
16108SOL    HW149540   6.848   4.672   0.011 -0.1110  0.1679 -0.5849
16108SOL    HW249541   6.753   4.763   0.086  0.9935 -0.2624  1.4030
16109SOL     OW49542   6.500   5.267   0.771  0.4894  0.3888 -0.5627
16109SOL    HW149543   6.438   5.284   0.841  0.4583 -1.1072 -0.1974
16109SOL    HW249544   6.446   5.249   0.694  0.4606 -0.4322 -0.3602
16110SOL     OW49545   5.734   4.553   1.538  0.0730  0.3726  0.7063
16110SOL    HW149546   5.668   4.513   1.594 -0.1826  1.0416  0.8857
16110SOL    HW249547   5.788   4.479   1.509  0.3298  0.0300  1.9776
16111SOL     OW49548   6.326   3.869   0.849 -0.2372 -0.1396 -0.6879
16111SOL    HW149549   6.421   3.876   0.846 -0.1078 -0.2245  1.5655
16111SOL    HW249550   6.306   3.843   0.939 -2.4328  0.4728 -0.9276
16112SOL     OW49551   6.448   3.928   1.651 -0.0233 -0.5937 -0.0237
16112SOL    HW149552   6.427   3.971   1.568 -0.8893  0.6135  0.7735
16112SOL    HW249553   6.422   3.992   1.718  1.0433 -1.3636  1.1700
16113SOL     OW49554   6.647   3.795   1.814  0.0142  0.0944 -0.0210
16113SOL    HW149555   6.570   3.833   1.771  0.4387  0.9782 -0.0225
16113SOL    HW249556   6.654   3.842   1.897  0.7568  0.2821 -0.1820
16114SOL     OW49557   5.660   5.327   0.830  0.3110  0.1066  0.0128
16114SOL    HW149558   5.663   5.423   0.835  1.1002  0.0350  2.6086
16114SOL    HW249559   5.578   5.304   0.872  0.4489 -0.3655  0.0271
16115SOL     OW49560   5.578   5.357   0.415  0.0987  0.4969  0.3723
16115SOL    HW149561   5.568   5.326   0.325 -0.6101  1.4015  0.1194
16115SOL    HW249562   5.571   5.278   0.468 -0.5843  0.0848 -0.3082
16116SOL     OW49563   6.557   4.141   1.516  0.4737 -0.2190  0.0941
16116SOL    HW149564   6.489   4.188   1.565 -1.4358 -0.4158 -2.1835
16116SOL    HW249565   6.639   4.168   1.558 -0.8680  1.2958  1.9629
16117SOL     OW49566   5.502   4.050   1.272 -1.0679 -0.2412 -0.2526
16117SOL    HW149567   5.573   3.998   1.309 -0.2333  1.0637  0.0418
16117SOL    HW249568   5.503   4.132   1.323 -1.6912  0.4647 -1.3399
16118SOL     OW49569   5.515   4.505   1.691  0.0079  0.4561 -0.1354
16118SOL    HW149570   5.442   4.444   1.700  0.0901  0.4617  0.6601
16118SOL    HW249571   5.518   4.551   1.775  2.5270 -1.3457  0.9048
16119SOL     OW49572   7.196   4.329   1.501  0.0782  0.3392 -0.3953
16119SOL    HW149573   7.177   4.360   1.413 -2.0853 -1.4877 -0.6541
16119SOL    HW249574   7.114   4.290   1.531  1.3372 -0.9548  1.6227
16120SOL     OW49575   6.265   3.881   0.213 -0.0867  0.1669 -0.0660
16120SOL    HW149576   6.170   3.866   0.211 -0.0378 -0.0681 -0.6890
16120SOL    HW249577   6.301   3.815   0.154  0.3028  1.4948 -1.3791
16121SOL     OW49578   7.127   4.371   1.224  0.2980  0.1102  0.1426
16121SOL    HW149579   7.073   4.445   1.198  0.4530  0.2199  0.1307
16121SOL    HW249580   7.064   4.301   1.243  0.0780  0.5945  1.3028
16122SOL     OW49581   5.625   5.452   1.927 -0.2178 -0.1702  0.0110
16122SOL    HW149582   5.553   5.405   1.886 -1.0623 -0.3521  1.6295
16122SOL    HW249583   5.656   5.394   1.997  1.3264  0.0310 -0.4525
16123SOL     OW49584   6.263   3.615   1.087 -0.1731 -0.0243 -0.6085
16123SOL    HW149585   6.176   3.576   1.098  0.1136 -0.5171  0.0439
16123SOL    HW249586   6.256   3.701   1.128  0.9265 -1.8976  4.2818
16124SOL     OW49587   6.716   5.021   1.354 -0.1861  0.3900  0.3259
16124SOL    HW149588   6.676   4.972   1.282  0.3888 -0.6997  0.7275
16124SOL    HW249589   6.792   4.968   1.380 -0.9167  0.2503  2.3589
16125SOL     OW49590   6.257   4.136   8.837 -0.4171  0.1083 -0.0852
16125SOL    HW149591   6.251   4.077   8.912  2.1274 -0.4340 -0.2404
16125SOL    HW249592   6.169   4.173   8.829 -1.4048 -1.6863  1.6141
16126SOL     OW49593   6.056   4.993   1.543 -0.5790  0.3582  0.3616
16126SOL    HW149594   6.018   4.909   1.568  0.7341 -0.2690  0.3077
16126SOL    HW249595   6.071   4.985   1.449 -1.5893  1.1332  0.1135
16127SOL     OW49596   7.205   5.023   1.303  0.0629  0.6169  0.3307
16127SOL    HW149597   7.243   5.039   1.216 -1.9285  2.2235 -0.3328
16127SOL    HW249598   7.164   4.937   1.296  2.0150 -0.3761  0.5237
16128SOL     OW49599   6.717   4.718   0.692  0.0750 -0.0759 -0.0838
16128SOL    HW149600   6.656   4.759   0.631  0.7285  0.1424 -0.6027
16128SOL    HW249601   6.675   4.727   0.778 -0.2461  0.7973 -0.3186
16129SOL     OW49602   7.125   5.823   0.687 -0.4666 -0.0956  0.1108
16129SOL    HW149603   7.115   5.824   0.592 -0.0679  4.1815 -0.0856
16129SOL    HW249604   7.218   5.807   0.702 -0.5857 -1.1172 -0.1321
16130SOL     OW49605   6.917   5.521   0.740 -0.5121 -0.0474  0.0495
16130SOL    HW149606   6.970   5.557   0.811  0.6181 -0.6019 -0.4954
16130SOL    HW249607   6.980   5.480   0.681 -1.3024  1.2641 -1.8080
16131SOL     OW49608   5.643   4.724   1.235 -0.3194 -0.2424 -0.4354
16131SOL    HW149609   5.564   4.740   1.184 -1.2129  0.3483  1.0879
16131SOL    HW249610   5.668   4.634   1.213 -0.9664 -0.1874 -1.4858
16132SOL     OW49611   6.305   5.166   1.567 -0.2237  0.1439  0.4856
16132SOL    HW149612   6.234   5.104   1.551 -0.2573  0.3785 -0.3387
16132SOL    HW249613   6.384   5.112   1.568 -0.2423  0.0937 -0.3217
16133SOL     OW49614   7.126   4.259   0.139 -0.1769 -0.1972  0.6553
16133SOL    HW149615   7.096   4.169   0.142  2.0230 -0.9930  0.9638
16133SOL    HW249616   7.083   4.301   0.214 -1.2069 -0.9803  0.5197
16134SOL     OW49617   6.844   3.501   0.345  0.0649 -0.5129  0.1149
16134SOL    HW149618   6.831   3.407   0.338  0.0348 -0.4638 -0.5334
16134SOL    HW249619   6.939   3.512   0.352  0.1509 -0.5407 -0.8351
16135SOL     OW49620   7.321   5.539   0.345 -0.2354  0.4494 -0.7415
16135SOL    HW149621   7.248   5.600   0.336  0.1992  0.8325 -1.9605
16135SOL    HW249622   7.280   5.453   0.346 -0.8007  0.7193  0.1745
16136SOL     OW49623   5.409   5.600   2.233  0.2981  0.1609 -0.1656
16136SOL    HW149624   5.446   5.620   2.147  0.6950  0.9600  0.1794
16136SOL    HW249625   5.484   5.596   2.292 -0.0347  0.4128  0.2861
16137SOL     OW49626   7.138   4.318   0.781 -0.2889  0.6392 -0.3243
16137SOL    HW149627   7.194   4.349   0.853 -1.3891  0.9770  0.4145
16137SOL    HW249628   7.198   4.274   0.721  0.7705  1.0180  0.4297
16138SOL     OW49629   6.551   4.965   1.087  0.2786 -0.4478  0.3482
16138SOL    HW149630   6.553   4.978   0.992  0.4246  0.7256  0.5010
16138SOL    HW249631   6.479   5.020   1.117 -0.0236 -1.1247  0.8803
16139SOL     OW49632   6.297   5.241   0.569  0.1397  0.1205 -0.1885
16139SOL    HW149633   6.233   5.240   0.640 -0.2503 -3.7548 -0.4034
16139SOL    HW249634   6.251   5.202   0.495  1.7916  0.2253 -1.3057
16140SOL     OW49635   7.370   5.424   1.220 -0.7836 -0.1104 -0.5204
16140SOL    HW149636   7.274   5.424   1.227 -0.7934  2.8840  0.4011
16140SOL    HW249637   7.387   5.449   1.129 -0.7788 -2.3830 -1.2180
16141SOL     OW49638   7.064   3.738   0.956 -0.6884 -0.1012  0.3785
16141SOL    HW149639   7.125   3.688   0.902 -0.7408  0.2712 -0.0376
16141SOL    HW249640   7.040   3.813   0.901  1.2716  1.7344  1.8465
16142SOL     OW49641   5.678   3.917   0.689  0.3663  0.3457 -0.2262
16142SOL    HW149642   5.665   4.002   0.646  2.4661  0.7208 -0.2416
16142SOL    HW249643   5.703   3.938   0.778 -0.4490 -0.3230  0.1715
16143SOL     OW49644   6.883   5.059   0.215 -0.5319 -0.4194  0.1701
16143SOL    HW149645   6.833   4.978   0.226 -1.1401 -0.0732 -0.0357
16143SOL    HW249646   6.862   5.089   0.127  1.3559 -1.1533 -0.5917
16144SOL     OW49647   6.179   4.649   1.528  0.2380 -0.0897  1.0041
16144SOL    HW149648   6.253   4.617   1.476  1.1066  2.8292  0.2140
16144SOL    HW249649   6.112   4.669   1.463  0.4558  1.3947  1.1979
16145SOL     OW49650   6.388   4.426   0.342 -0.3570 -0.0090  0.3527
16145SOL    HW149651   6.412   4.412   0.250  0.2449  0.7129  0.3862
16145SOL    HW249652   6.311   4.371   0.356 -0.6292  0.0961 -0.6648
16146SOL     OW49653   6.325   5.360   8.842 -0.3920 -0.0822  0.0058
16146SOL    HW149654   6.268   5.290   8.808 -1.8879  1.0373  0.0971
16146SOL    HW249655   6.395   5.368   8.777 -1.2828 -0.3449 -1.0244
16147SOL     OW49656   6.079   4.982   1.261 -0.7108  0.0838 -0.2072
16147SOL    HW149657   5.987   5.009   1.249 -0.0883  2.0855 -1.0046
16147SOL    HW249658   6.079   4.889   1.241 -2.1859  0.5065 -2.7223
16148SOL     OW49659   7.246   5.075   1.029  0.3859 -0.1027  0.8313
16148SOL    HW149660   7.179   5.142   1.014  0.1585 -0.1151  1.7390
16148SOL    HW249661   7.328   5.116   1.003 -0.0941 -0.5276 -1.5586
16149SOL     OW49662   7.033   4.878   0.898  0.3321 -0.1848  0.6369
16149SOL    HW149663   6.946   4.873   0.938 -0.2551  0.5532 -0.4943
16149SOL    HW249664   7.063   4.787   0.896 -0.8681 -0.5983  0.0965
16150SOL     OW49665   6.685   3.679   1.179  0.2707 -0.2644 -0.5402
16150SOL    HW149666   6.637   3.717   1.105 -0.3722 -1.1762 -0.6013
16150SOL    HW249667   6.644   3.717   1.257  0.2870 -0.0759 -0.6238
16151SOL     OW49668   6.111   5.063   0.432  0.1353 -0.3062 -0.3206
16151SOL    HW149669   6.026   5.098   0.459  0.5730  0.0829  0.5925
16151SOL    HW249670   6.102   4.968   0.443 -0.4052 -0.3311 -0.9049
16152SOL     OW49671   7.314   4.028   1.185 -0.0615 -0.0279 -0.5123
16152SOL    HW149672   7.224   4.045   1.213  0.3440 -1.0502  1.5982
16152SOL    HW249673   7.308   3.946   1.136 -0.6270  1.2771 -2.7789
16153SOL     OW49674   6.217   4.803   0.257  1.1337  0.1232  0.9484
16153SOL    HW149675   6.177   4.764   0.179 -0.8712  0.7891  1.5537
16153SOL    HW249676   6.248   4.888   0.227 -1.8611  1.4819  1.2481
16154SOL     OW49677   5.801   4.961   2.159 -0.3698 -0.1740 -0.0331
16154SOL    HW149678   5.769   4.990   2.244  1.1312  0.0467  0.4915
16154SOL    HW249679   5.814   4.867   2.168 -0.4949 -0.1980 -0.1088
16155SOL     OW49680   6.304   3.577   1.545 -0.7264  0.9009 -0.0755
16155SOL    HW149681   6.310   3.541   1.634  0.8175  1.2927  0.0018
16155SOL    HW249682   6.383   3.545   1.501 -0.1055  2.8847 -0.4870
16156SOL     OW49683   5.981   3.833   0.297  0.5082  0.4982  1.2326
16156SOL    HW149684   6.006   3.746   0.329  0.6076  0.1792  0.3441
16156SOL    HW249685   5.991   3.891   0.372  0.6232 -0.2295  1.7911
16157SOL     OW49686   6.742   4.296   1.262  0.0104  0.2506 -0.2962
16157SOL    HW149687   6.664   4.313   1.314  0.5519 -1.2714  1.0970
16157SOL    HW249688   6.719   4.325   1.174 -2.1599 -0.2732  0.0565
16158SOL     OW49689   5.731   3.690   0.360  0.1123 -0.1878 -0.0347
16158SOL    HW149690   5.809   3.718   0.312 -0.2235 -0.8409 -1.0182
16158SOL    HW249691   5.657   3.722   0.307 -0.4619  3.3294  2.5256
16159SOL     OW49692   6.925   4.589   0.839  0.2806  0.5110  0.4462
16159SOL    HW149693   7.017   4.588   0.813  0.2661  1.5571  0.2978
16159SOL    HW249694   6.883   4.647   0.775 -1.2617 -2.8060 -1.8581
16160SOL     OW49695   6.449   4.316   1.755  0.0540  0.0102 -0.0958
16160SOL    HW149696   6.397   4.379   1.804 -0.7038  1.3523 -2.4613
16160SOL    HW249697   6.429   4.232   1.795  0.2040  1.1044  2.4249
16161SOL     OW49698   7.046   5.645   0.944  0.2738 -0.4964  0.2141
16161SOL    HW149699   7.033   5.626   1.037  1.7424 -0.5186  0.4328
16161SOL    HW249700   7.068   5.739   0.941 -2.8654  0.3402 -0.4607
16162SOL     OW49701   6.008   4.073   1.121  0.6695 -0.7638 -0.7335
16162SOL    HW149702   5.953   4.087   1.044 -0.2966 -0.0005  0.0825
16162SOL    HW249703   5.952   4.026   1.183  0.0016  2.2285  1.1113
16163SOL     OW49704   7.121   4.760   1.280 -0.0339  0.8834 -0.0685
16163SOL    HW149705   7.143   4.698   1.349  0.9580  0.7715 -0.4709
16163SOL    HW249706   7.095   4.706   1.206  4.5915  0.5972 -1.8049
16164SOL     OW49707   5.704   5.390   1.525 -0.3156 -0.0641 -0.5205
16164SOL    HW149708   5.637   5.334   1.487  0.2639  0.2141 -2.0410
16164SOL    HW249709   5.763   5.329   1.570 -0.3793 -0.5408 -1.0719
16165SOL     OW49710   6.738   4.640   1.165 -1.1557 -0.2329  0.2321
16165SOL    HW149711   6.736   4.660   1.259 -0.0944 -0.3138  0.2813
16165SOL    HW249712   6.655   4.596   1.149 -2.0620  1.1726  0.8078
16166SOL     OW49713   7.343   4.060   0.032 -0.4921  0.8265  0.3911
16166SOL    HW149714   7.310   4.109   0.107 -1.5399 -1.0028  1.1872
16166SOL    HW249715   7.306   4.105  -0.044 -2.4120  0.6059  1.1500
16167SOL     OW49716   6.196   4.284   0.837 -1.2975  0.4174  0.5835
16167SOL    HW149717   6.237   4.206   0.798 -0.3932  0.7596  0.8164
16167SOL    HW249718   6.157   4.330   0.763 -2.5298 -0.6515  0.5433
16168SOL     OW49719   7.227   4.224   1.976 -0.2178  0.0163  0.4145
16168SOL    HW149720   7.295   4.179   2.027 -1.4461 -0.3704  1.7633
16168SOL    HW249721   7.273   4.256   1.899  1.1728 -1.6020  0.5156
16169SOL     OW49722   7.638   4.963   1.211 -0.2214  0.2615 -0.4962
16169SOL    HW149723   7.683   5.042   1.183 -0.7704  0.7460 -0.0606
16169SOL    HW249724   7.705   4.895   1.213  0.6019  1.0699  0.6183
16170SOL     OW49725   6.666   4.776   0.219 -0.0253  0.2061  0.4394
16170SOL    HW149726   6.721   4.800   0.294 -1.1388  1.5935  0.8538
16170SOL    HW249727   6.587   4.738   0.258 -0.1707 -0.0350 -0.0755
16171SOL     OW49728   6.116   5.156   0.782  0.2807 -0.1071 -0.0303
16171SOL    HW149729   6.155   5.218   0.844  0.9854 -0.3127 -0.2573
16171SOL    HW249730   6.033   5.197   0.756 -0.4873 -0.4265  1.7348
16172SOL     OW49731   6.524   4.314   0.801 -0.3173 -0.0938  0.1977
16172SOL    HW149732   6.555   4.324   0.711 -1.1589  0.2153 -0.0748
16172SOL    HW249733   6.448   4.256   0.794 -1.5766  1.4304  0.4137
16173SOL     OW49734   6.413   4.335   0.095  0.6656  0.5187  0.1388
16173SOL    HW149735   6.359   4.261   0.068 -1.3482  1.5155  1.1573
16173SOL    HW249736   6.437   4.379   0.014  0.9941 -0.6211 -0.4019
16174SOL     OW49737   7.456   5.540   0.615  0.0989  0.1820  0.1471
16174SOL    HW149738   7.519   5.608   0.638  1.2304 -0.0196 -2.0205
16174SOL    HW249739   7.437   5.556   0.522 -0.3233 -1.8731 -0.1686
16175SOL     OW49740   5.341   5.543   1.633  0.1833  0.2020 -0.5109
16175SOL    HW149741   5.353   5.580   1.546  0.5205  0.8762 -0.1875
16175SOL    HW249742   5.358   5.450   1.623  0.2181  0.2779 -1.1644
16176SOL     OW49743   5.890   4.618   0.649  0.4340  0.1038 -0.6698
16176SOL    HW149744   5.874   4.680   0.720 -0.4505  1.1239 -1.7288
16176SOL    HW249745   5.919   4.671   0.576  0.7551 -0.8604 -1.2637
16177SOL     OW49746   6.072   5.153   1.787  0.6404 -0.1517 -0.3889
16177SOL    HW149747   6.056   5.100   1.708 -0.0620  0.2365 -0.5128
16177SOL    HW249748   6.066   5.243   1.757  0.1782  0.0003  0.1505
16178SOL     OW49749   6.930   3.847   1.168  0.1533  0.0170  0.3184
16178SOL    HW149750   6.855   3.792   1.190  0.4472 -0.3271  0.4662
16178SOL    HW249751   6.961   3.813   1.084  0.2334  0.0718  0.3261
16179SOL     OW49752   5.920   4.113   0.625 -0.2552  0.1090 -0.4477
16179SOL    HW149753   5.947   4.203   0.643  0.3793 -0.1894  0.1667
16179SOL    HW249754   5.866   4.119   0.546 -1.1002  1.1594  0.1840
16180SOL     OW49755   7.108   5.325   0.996  0.3139 -0.1201  0.3820
16180SOL    HW149756   7.124   5.409   0.953 -1.8673  0.3689  0.3937
16180SOL    HW249757   7.088   5.349   1.087  0.8868 -0.7862  0.6953
16181SOL     OW49758   5.833   4.328   1.387  0.0806  0.2405  0.3139
16181SOL    HW149759   5.913   4.276   1.387 -0.7194 -1.1059 -1.7970
16181SOL    HW249760   5.765   4.267   1.416 -0.7017  0.3450 -1.1874
16182SOL     OW49761   6.586   5.005   0.824  0.2628  0.0968  0.5801
16182SOL    HW149762   6.578   5.097   0.797  3.2992  0.3847  0.3074
16182SOL    HW249763   6.558   4.955   0.748  2.1769  0.8863 -0.7259
16183SOL     OW49764   6.802   4.035   1.004 -0.0592 -0.2938  0.4458
16183SOL    HW149765   6.876   4.084   0.969 -0.4917 -0.2513 -0.4149
16183SOL    HW249766   6.841   3.978   1.071  0.5699  0.5703  0.8267
16184SOL     OW49767   6.525   3.443   1.443  0.0337 -0.2876 -0.3369
16184SOL    HW149768   6.532   3.361   1.492  0.8137  0.3771  0.7184
16184SOL    HW249769   6.613   3.479   1.444 -0.7814  1.9370  1.7560
16185SOL     OW49770   6.464   4.851   0.595  0.5380 -0.0676  0.1234
16185SOL    HW149771   6.465   4.797   0.516  1.3073  0.7474 -0.4393
16185SOL    HW249772   6.371   4.870   0.610  0.3909 -0.1958 -0.6033
16186SOL     OW49773   5.825   5.178   0.670  0.1139  0.0160 -0.2058
16186SOL    HW149774   5.801   5.086   0.683  0.6556 -0.0204  0.6065
16186SOL    HW249775   5.763   5.227   0.724  0.6477  0.0343  0.4104
16187SOL     OW49776   6.609   4.110   0.500  0.0179  0.0682  0.4487
16187SOL    HW149777   6.586   4.194   0.539 -0.6041  0.4152 -0.6233
16187SOL    HW249778   6.647   4.132   0.415 -3.7888 -0.7873 -1.6748
16188SOL     OW49779   6.986   4.582   1.132  0.8662 -0.1561  0.1803
16188SOL    HW149780   6.995   4.568   1.038  1.6526 -0.7166  0.3336
16188SOL    HW249781   6.895   4.609   1.144  0.6432 -0.5192 -0.6889
16189SOL     OW49782   6.984   3.904   0.755  0.3563  0.0265  0.1353
16189SOL    HW149783   6.998   3.987   0.802 -2.0759 -0.4606  1.9364
16189SOL    HW249784   6.938   3.930   0.675  0.6194  0.5132  0.1382
16190SOL     OW49785   5.343   4.762   0.220 -0.6870  0.4623 -0.1667
16190SOL    HW149786   5.399   4.835   0.245  1.0615 -0.5440 -0.8962
16190SOL    HW249787   5.288   4.796   0.150  0.4071  0.9961 -0.7952
16191SOL     OW49788   6.529   5.673   0.083 -0.1011  0.3987 -0.5550
16191SOL    HW149789   6.460   5.611   0.107 -0.1675  0.3295 -0.9163
16191SOL    HW249790   6.491   5.723   0.010  0.0888  0.6161 -0.5051
16192SOL     OW49791   5.254   4.766   1.965 -0.2955 -0.4101 -0.2124
16192SOL    HW149792   5.166   4.781   1.931  0.2290  0.7823 -1.1156
16192SOL    HW249793   5.252   4.801   2.054  0.2598  3.3272 -1.5098
16193SOL     OW49794   5.585   3.869   2.515 -0.4209  0.1074 -0.3949
16193SOL    HW149795   5.636   3.796   2.479  1.4512  0.9760  0.3269
16193SOL    HW249796   5.579   3.851   2.609 -1.9923 -0.2610 -0.5406
16194SOL     OW49797   5.958   4.486   3.129 -0.2637 -0.0533  0.4062
16194SOL    HW149798   5.873   4.530   3.132  0.6166  2.0935 -2.0379
16194SOL    HW249799   5.940   4.403   3.086 -1.1596  0.4138 -0.1596
16195SOL     OW49800   6.856   5.178   2.514 -0.5256  0.4674 -0.6171
16195SOL    HW149801   6.904   5.196   2.594 -0.9685  1.5500 -0.5825
16195SOL    HW249802   6.764   5.188   2.539 -0.6734  0.6057 -1.2097
16196SOL     OW49803   7.028   4.243   2.135 -0.3737 -0.7502 -0.1764
16196SOL    HW149804   7.046   4.284   2.220 -0.3730 -2.1223  0.5210
16196SOL    HW249805   7.104   4.264   2.081  0.7574 -1.7932  0.9315
16197SOL     OW49806   7.311   4.729   2.425  0.0050  0.1704 -0.2415
16197SOL    HW149807   7.292   4.781   2.346 -0.7557 -1.3395 -1.0828
16197SOL    HW249808   7.230   4.731   2.475 -0.7055 -1.7902 -1.2298
16198SOL     OW49809   6.219   4.608   3.403 -0.6519 -0.4508  0.1099
16198SOL    HW149810   6.155   4.670   3.371 -0.3301 -0.1257  0.0904
16198SOL    HW249811   6.192   4.590   3.493 -3.3442 -3.6745 -1.1225
16199SOL     OW49812   6.573   4.068   3.624 -0.4164 -0.2215 -0.5342
16199SOL    HW149813   6.523   4.021   3.691 -1.0507  0.5527 -0.4422
16199SOL    HW249814   6.589   4.155   3.662  2.3857 -0.9326  0.0751
16200SOL     OW49815   5.962   5.002   3.230  0.1312  0.3898  0.4165
16200SOL    HW149816   6.013   4.935   3.275 -1.4604  0.1328  1.9216
16200SOL    HW249817   5.871   4.972   3.234 -0.1976  0.5902 -2.6294
16201SOL     OW49818   6.147   4.609   3.650 -0.1111  0.5346 -0.8617
16201SOL    HW149819   6.122   4.685   3.703 -1.2698 -0.0771 -0.4914
16201SOL    HW249820   6.076   4.546   3.664  0.4650 -0.3347 -1.7394
16202SOL     OW49821   6.583   4.667   3.060  0.1694 -0.2057 -0.3303
16202SOL    HW149822   6.511   4.605   3.050 -0.5861  0.8653 -2.1064
16202SOL    HW249823   6.603   4.666   3.154 -2.1366 -0.5648  0.2190
16203SOL     OW49824   7.025   5.031   3.375 -0.3899 -0.0881  0.3329
16203SOL    HW149825   6.982   5.079   3.446 -1.6909  0.2453 -0.6423
16203SOL    HW249826   6.975   5.054   3.297  1.8164  0.6472 -0.9626
16204SOL     OW49827   5.748   4.017   3.080 -0.5361 -0.1135  0.0786
16204SOL    HW149828   5.724   4.037   3.170 -1.1618 -1.2913  0.1996
16204SOL    HW249829   5.667   4.025   3.031 -0.8761 -2.2698  0.1577
16205SOL     OW49830   7.114   4.130   2.397  0.4178  0.8388 -0.0015
16205SOL    HW149831   7.114   4.136   2.493  0.4943 -0.9610  0.1532
16205SOL    HW249832   7.032   4.083   2.376  0.2226  1.5399 -0.8512
16206SOL     OW49833   5.488   5.439   2.449 -0.2935 -0.3630 -0.0393
16206SOL    HW149834   5.448   5.390   2.377 -1.4347 -0.8162  0.8746
16206SOL    HW249835   5.426   5.432   2.521  1.1417 -0.5259  1.2392
16207SOL     OW49836   6.602   5.151   3.473  0.0341 -0.1240 -0.7698
16207SOL    HW149837   6.586   5.242   3.499 -0.2928  0.0506 -1.5506
16207SOL    HW249838   6.519   5.106   3.486  0.2940 -0.4130 -0.0262
16208SOL     OW49839   5.674   5.231   2.099  0.0912  0.3360  0.4912
16208SOL    HW149840   5.755   5.206   2.142  0.0890  0.9068  0.8389
16208SOL    HW249841   5.626   5.149   2.089 -0.0959  0.2283  1.9761
16209SOL     OW49842   5.945   4.891   2.759  0.5014 -0.3311  0.0945
16209SOL    HW149843   5.866   4.855   2.718  0.1939  1.1145 -0.6292
16209SOL    HW249844   5.979   4.818   2.811 -0.7036 -1.3211 -0.4309
16210SOL     OW49845   6.460   5.826   3.501  0.1777 -0.0039 -0.0453
16210SOL    HW149846   6.530   5.762   3.510  0.6024  0.5073  0.4186
16210SOL    HW249847   6.380   5.775   3.505  0.4715 -0.3926  1.6961
16211SOL     OW49848   5.997   4.840   1.877 -0.1669  0.1351  0.4408
16211SOL    HW149849   5.962   4.782   1.945  0.1042 -0.6450 -0.0732
16211SOL    HW249850   5.945   4.820   1.799  1.0019 -0.6109 -0.1723
16212SOL     OW49851   6.920   3.996   2.755 -0.0814  0.1494  0.3795
16212SOL    HW149852   6.832   4.034   2.743  0.1647  0.0092 -2.5681
16212SOL    HW249853   6.969   4.065   2.800 -0.6285  1.9897 -1.6459
16213SOL     OW49854   5.546   4.768   2.347 -0.3979  0.3668 -0.1641
16213SOL    HW149855   5.614   4.719   2.393 -0.2111  2.4891  2.0512
16213SOL    HW249856   5.464   4.724   2.370 -0.0044 -0.8102 -0.9339
16214SOL     OW49857   7.482   5.418   2.026 -0.2053 -0.2270 -0.0813
16214SOL    HW149858   7.389   5.396   2.019  0.1612 -1.4812 -1.8909
16214SOL    HW249859   7.521   5.345   2.073 -0.3609  1.2023  2.4185
16215SOL     OW49860   5.534   5.688   1.985 -0.0739  0.4275  0.0198
16215SOL    HW149861   5.608   5.748   1.994  0.5506 -0.5639  2.1757
16215SOL    HW249862   5.574   5.601   1.976 -0.9626  0.0107 -0.0025
16216SOL     OW49863   7.094   4.734   2.551  0.4539 -0.4673  0.2553
16216SOL    HW149864   7.102   4.780   2.635  2.2697  1.7531 -1.0335
16216SOL    HW249865   7.001   4.712   2.545  0.1205  0.1060  2.4269
16217SOL     OW49866   6.916   4.807   2.153  0.5097  0.0892  0.3490
16217SOL    HW149867   6.989   4.754   2.187  0.5141  0.1045  0.3631
16217SOL    HW249868   6.838   4.759   2.180  0.4200  1.3336  2.5077
16218SOL     OW49869   5.662   4.169   3.301  0.2184  0.0643 -0.3162
16218SOL    HW149870   5.634   4.246   3.252 -3.1028 -0.5383  0.4426
16218SOL    HW249871   5.585   4.113   3.306  0.8502 -0.7972  3.9074
16219SOL     OW49872   6.096   5.613   2.908 -0.3303 -0.2689 -0.5161
16219SOL    HW149873   6.019   5.641   2.957 -0.2652 -0.3131 -0.3868
16219SOL    HW249874   6.082   5.520   2.890  0.8349 -0.9542  1.7317
16220SOL     OW49875   6.653   4.763   3.621 -0.0540  0.5072  0.9269
16220SOL    HW149876   6.666   4.669   3.636  0.0508  0.3998  0.1601
16220SOL    HW249877   6.725   4.805   3.669  1.2005  0.0837 -0.5103
16221SOL     OW49878   5.933   3.845   2.451 -0.2933  0.1881  0.0774
16221SOL    HW149879   5.916   3.815   2.362  0.1722  3.1581 -1.1204
16221SOL    HW249880   5.891   3.780   2.507 -2.8429 -0.4417 -2.3486
16222SOL     OW49881   5.610   5.538   3.088 -0.0920  0.3167 -0.2673
16222SOL    HW149882   5.529   5.588   3.073  0.0182  1.1270  1.4855
16222SOL    HW249883   5.581   5.450   3.110 -0.5267  0.5962  0.3152
16223SOL     OW49884   7.008   4.860   1.718 -0.2821 -0.2471 -0.0227
16223SOL    HW149885   7.085   4.864   1.776 -1.0262 -0.1626  0.9818
16223SOL    HW249886   6.941   4.911   1.763 -1.2122 -1.0461 -0.4584
16224SOL     OW49887   6.847   5.185   3.570 -0.0368 -0.1566  0.3356
16224SOL    HW149888   6.803   5.224   3.646 -0.4221 -1.2920  0.7222
16224SOL    HW249889   6.779   5.133   3.527  0.0873  0.7322 -1.0073
16225SOL     OW49890   5.998   4.078   3.305 -0.0678  0.8692 -0.3073
16225SOL    HW149891   6.023   4.102   3.215  2.4695  1.4338  0.4680
16225SOL    HW249892   5.975   3.986   3.300  1.7370  0.4186 -1.2906
16226SOL     OW49893   6.530   5.131   2.989 -0.8196  0.6618  0.0917
16226SOL    HW149894   6.545   5.133   3.084 -0.8532 -0.1323  0.1271
16226SOL    HW249895   6.513   5.038   2.970 -2.7947  1.0713 -0.3814
16227SOL     OW49896   7.606   5.495   2.358  0.8601 -0.0679  0.2812
16227SOL    HW149897   7.666   5.425   2.382  0.7499 -0.1050  0.4560
16227SOL    HW249898   7.520   5.464   2.389  0.8643  0.2925  0.6696
16228SOL     OW49899   5.619   4.613   2.138  0.3557  0.3180  0.6703
16228SOL    HW149900   5.584   4.524   2.149  0.1833  0.1852 -0.7050
16228SOL    HW249901   5.616   4.651   2.225 -1.5812 -0.2979  0.9185
16229SOL     OW49902   6.571   4.098   2.464 -0.2608 -0.0262 -0.0712
16229SOL    HW149903   6.505   4.168   2.463  0.1404  0.3635 -1.7021
16229SOL    HW249904   6.564   4.060   2.552 -2.1305  0.4963  0.0554
16230SOL     OW49905   7.282   5.241   2.243 -0.0814 -0.2955 -0.1394
16230SOL    HW149906   7.325   5.278   2.320  0.9684  0.2337 -0.9359
16230SOL    HW249907   7.190   5.235   2.266 -0.2323  2.4193  0.2062
16231SOL     OW49908   6.498   3.897   3.314 -0.1492 -0.2530 -0.3482
16231SOL    HW149909   6.429   3.950   3.354  1.8036  2.7521 -0.6146
16231SOL    HW249910   6.542   3.855   3.387 -1.5051 -1.2835 -0.0909
16232SOL     OW49911   6.725   3.828   3.562  0.3716  0.6117  0.0484
16232SOL    HW149912   6.674   3.906   3.585  1.4398  0.9434  1.3779
16232SOL    HW249913   6.803   3.863   3.520 -0.9345  0.0665 -3.1218
16233SOL     OW49914   6.501   4.550   3.464 -0.4123 -0.1244 -0.1192
16233SOL    HW149915   6.408   4.544   3.441 -0.2741 -2.8515 -0.3838
16233SOL    HW249916   6.502   4.558   3.559 -0.9293  0.4320 -0.1594
16234SOL     OW49917   6.415   4.184   2.858  0.1291 -0.0000 -0.1478
16234SOL    HW149918   6.485   4.246   2.878  0.8828 -1.4616  2.2218
16234SOL    HW249919   6.336   4.238   2.853  0.7394  1.1887  1.9460
16235SOL     OW49920   6.307   4.707   2.292 -0.6997 -0.0711 -0.2109
16235SOL    HW149921   6.276   4.791   2.326  0.4732 -0.8477  3.1360
16235SOL    HW249922   6.389   4.728   2.246 -0.1802  0.6090  0.9820
16236SOL     OW49923   5.491   4.883   2.632 -0.2014  0.0826  0.5911
16236SOL    HW149924   5.447   4.954   2.584 -1.6143 -0.7307  0.6023
16236SOL    HW249925   5.425   4.813   2.636  0.3325 -0.3791  2.5589
16237SOL     OW49926   5.703   5.690   3.337  0.8210 -0.2843  0.1730
16237SOL    HW149927   5.607   5.686   3.333  0.7917 -0.1882  0.6717
16237SOL    HW249928   5.732   5.666   3.249  0.2830  2.1728 -0.7560
16238SOL     OW49929   6.417   4.044   2.188 -0.0867 -0.2698  0.5470
16238SOL    HW149930   6.458   4.109   2.245 -0.1887  1.0991 -0.8401
16238SOL    HW249931   6.330   4.030   2.226 -0.0944  0.4963  0.8333
16239SOL     OW49932   7.441   3.951   3.701  0.5411  0.2589  0.1486
16239SOL    HW149933   7.519   3.939   3.646  0.1472  0.0236 -0.3710
16239SOL    HW249934   7.401   3.864   3.706 -0.5424  0.6611 -0.9089
16240SOL     OW49935   6.686   4.712   2.237 -0.1770 -0.0982  0.1800
16240SOL    HW149936   6.643   4.670   2.163  0.3076 -0.2613 -0.0147
16240SOL    HW249937   6.644   4.798   2.244 -1.5390 -0.7851  0.9019
16241SOL     OW49938   6.152   3.697   2.723  0.1633  0.1460  0.2687
16241SOL    HW149939   6.114   3.645   2.794 -0.5825  0.7108  0.2974
16241SOL    HW249940   6.077   3.717   2.667  0.4802  1.0285  0.1537
16242SOL     OW49941   6.367   5.161   2.240  0.0826 -0.2659 -0.7448
16242SOL    HW149942   6.330   5.182   2.155  0.6201  0.6460 -0.7736
16242SOL    HW249943   6.436   5.227   2.253  1.0316 -1.3121 -0.2780
16243SOL     OW49944   5.868   5.632   3.090  0.2165 -0.1984 -0.6655
16243SOL    HW149945   5.902   5.558   3.140 -0.7449  0.3849  0.9505
16243SOL    HW249946   5.788   5.599   3.049 -0.3579 -0.0157  0.2734
16244SOL     OW49947   7.763   4.575   2.810  0.0192 -0.5565 -0.2469
16244SOL    HW149948   7.693   4.542   2.754  0.0102 -0.4627 -0.2912
16244SOL    HW249949   7.734   4.556   2.899 -1.0523  1.3646 -0.1377
16245SOL     OW49950   6.586   5.411   3.541  0.4097  0.3043 -0.6059
16245SOL    HW149951   6.658   5.464   3.509  1.4281 -0.5417  0.2389
16245SOL    HW249952   6.568   5.444   3.629 -1.3809  1.6148 -1.3795
16246SOL     OW49953   5.633   5.015   2.376  0.0898 -0.5808  0.8544
16246SOL    HW149954   5.559   5.049   2.426 -0.8575 -2.2403  0.6615
16246SOL    HW249955   5.613   4.922   2.364  0.0798 -0.2778 -2.8040
16247SOL     OW49956   7.181   4.465   2.499  0.0488 -0.6442 -0.2788
16247SOL    HW149957   7.169   4.425   2.585 -1.6517 -0.8633 -0.5701
16247SOL    HW249958   7.192   4.559   2.517 -0.0073 -0.7265  0.1879
16248SOL     OW49959   5.605   4.742   3.456  0.4302  0.0242 -0.1409
16248SOL    HW149960   5.540   4.745   3.525 -0.2084  0.6102 -0.7482
16248SOL    HW249961   5.556   4.720   3.377  0.9373  0.6067 -0.6344
16249SOL     OW49962   7.009   5.350   1.689 -0.1360 -0.5407  0.5550
16249SOL    HW149963   7.013   5.301   1.606  0.5142 -0.0741  0.3031
16249SOL    HW249964   6.919   5.380   1.694  0.1490  0.5911 -0.6803
16250SOL     OW49965   5.441   3.670   3.188 -0.0702 -0.4788  0.1299
16250SOL    HW149966   5.412   3.588   3.229 -1.5857  1.0008  2.2804
16250SOL    HW249967   5.379   3.684   3.117  2.4076 -2.9283 -2.7658
16251SOL     OW49968   7.647   4.903   1.510  0.6724  0.2449 -0.0219
16251SOL    HW149969   7.588   4.842   1.465  1.2975 -0.4820  0.1186
16251SOL    HW249970   7.711   4.928   1.442  1.5055 -0.7063  0.3867
16252SOL     OW49971   6.229   5.188   1.999  0.1654 -1.4428  0.3185
16252SOL    HW149972   6.185   5.144   1.926  0.3137 -2.6354  0.9249
16252SOL    HW249973   6.202   5.280   1.991 -0.1095 -1.6133 -1.0110
16253SOL     OW49974   7.457   3.505   2.101 -0.0328  0.0871 -0.1786
16253SOL    HW149975   7.536   3.480   2.052 -0.3702 -2.9997  0.6062
16253SOL    HW249976   7.391   3.523   2.034  0.8707  1.0711 -0.8303
16254SOL     OW49977   5.987   5.867   3.148 -0.4308  0.5594  0.4340
16254SOL    HW149978   5.993   5.825   3.234  0.5397 -0.1329  0.0522
16254SOL    HW249979   5.936   5.805   3.096 -0.0804  0.4548  0.2138
16255SOL     OW49980   6.450   5.834   2.743  0.3127  0.2407 -0.0760
16255SOL    HW149981   6.370   5.870   2.704  0.9717  1.0886 -0.6776
16255SOL    HW249982   6.481   5.771   2.678  0.6382  0.5994 -0.2678
16256SOL     OW49983   5.987   4.676   2.491 -0.0888 -0.2623 -0.8454
16256SOL    HW149984   6.064   4.619   2.496 -0.6041 -0.8808  1.6920
16256SOL    HW249985   6.022   4.764   2.504  0.1615 -0.6272  1.2879
16257SOL     OW49986   7.146   3.633   3.208 -0.6039  0.4925 -0.9748
16257SOL    HW149987   7.100   3.607   3.288  0.6809  0.8926 -0.0817
16257SOL    HW249988   7.155   3.551   3.159 -2.3634  0.4280 -1.2524
16258SOL     OW49989   6.463   3.473   2.071 -0.5142 -0.4282  0.0707
16258SOL    HW149990   6.528   3.417   2.028  2.0195 -0.4143  3.4673
16258SOL    HW249991   6.417   3.414   2.130 -0.6914  0.3478  0.7113
16259SOL     OW49992   6.266   3.886   3.803 -0.3032 -0.0781 -0.9055
16259SOL    HW149993   6.235   3.946   3.735  1.1700 -0.2787 -1.8053
16259SOL    HW249994   6.242   3.799   3.772  1.1425 -0.2418 -1.6528
16260SOL     OW49995   6.412   4.882   2.924 -0.3379  0.6770 -0.1204
16260SOL    HW149996   6.318   4.899   2.917 -0.4094  0.0676 -0.8289
16260SOL    HW249997   6.419   4.806   2.982 -0.3506  0.1675 -0.7755
16261SOL     OW49998   6.610   4.006   2.700 -0.5814  0.1347  0.4200
16261SOL    HW149999   6.610   3.915   2.731 -0.6346 -0.3653 -0.9989
16261SOL    HW250000   6.566   4.055   2.770 -3.0445 -1.3485  0.0064
16262SOL     OW50001   6.876   4.986   2.884 -0.4158 -0.5390  0.3161
16262SOL    HW150002   6.864   4.971   2.978 -0.9609  1.0098  0.5153
16262SOL    HW250003   6.816   4.923   2.843 -0.6719 -0.7720  1.0202
16263SOL     OW50004   6.422   4.590   2.711 -0.0688 -0.0602 -0.0756
16263SOL    HW150005   6.367   4.589   2.789 -0.0951 -0.3454 -0.0970
16263SOL    HW250006   6.469   4.673   2.716 -0.3931  0.1175  0.0171
16264SOL     OW50007   5.906   4.101   2.323  0.2526 -0.2322  0.2163
16264SOL    HW150008   5.849   4.027   2.343 -2.4971  1.4334 -0.8115
16264SOL    HW250009   5.873   4.135   2.240  1.8287  1.7651  0.3227
16265SOL     OW50010   7.210   4.874   1.919  0.6716  0.0848  0.7750
16265SOL    HW150011   7.191   4.811   1.989  0.0592  0.5715  1.0555
16265SOL    HW250012   7.204   4.959   1.961  0.2713  0.3854  0.1241
16266SOL     OW50013   5.683   3.659   2.352 -0.7362  0.3621 -0.0076
16266SOL    HW150014   5.751   3.606   2.310 -0.1072  2.2414 -1.4876
16266SOL    HW250015   5.667   3.731   2.291 -0.7352  2.5314  2.3635
16267SOL     OW50016   6.381   4.364   2.261  0.0783 -0.1677 -0.4795
16267SOL    HW150017   6.444   4.425   2.223  1.0678 -1.0491 -0.3053
16267SOL    HW250018   6.405   4.358   2.353 -1.2438  0.6568 -0.0650
16268SOL     OW50019   6.648   4.416   3.274 -0.1653 -0.4182  0.2877
16268SOL    HW150020   6.595   4.469   3.334  0.2554  1.5054 -0.9450
16268SOL    HW250021   6.586   4.380   3.212 -0.2102  0.9920 -0.5399
16269SOL     OW50022   6.334   5.380   2.652  0.1635  0.2857  0.5164
16269SOL    HW150023   6.335   5.474   2.633 -0.7105  0.5510  1.6758
16269SOL    HW250024   6.359   5.374   2.744 -0.9803 -0.5173  0.7899
16270SOL     OW50025   5.724   4.786   2.648 -0.5368  0.4089 -0.5182
16270SOL    HW150026   5.632   4.812   2.650 -0.3882  0.9336  1.1922
16270SOL    HW250027   5.723   4.695   2.616 -1.6705  0.3151 -0.2562
16271SOL     OW50028   6.913   5.432   2.192  0.0491 -0.1228 -0.3959
16271SOL    HW150029   6.907   5.379   2.112  1.7533  0.6791 -1.1236
16271SOL    HW250030   6.928   5.369   2.262 -1.4361 -0.8377 -0.7066
16272SOL     OW50031   6.622   3.945   2.023 -0.1716  0.8594  0.1608
16272SOL    HW150032   6.555   3.978   2.083  1.0990 -0.4670  2.4431
16272SOL    HW250033   6.699   4.000   2.041  0.3629  0.1418  0.0990
16273SOL     OW50034   5.545   4.594   2.847  0.6561 -0.8761 -0.4632
16273SOL    HW150035   5.565   4.536   2.773  0.2429 -0.7297 -0.6961
16273SOL    HW250036   5.450   4.589   2.855  0.6541 -0.4906 -0.2691
16274SOL     OW50037   6.465   3.808   3.069  0.5078  0.3983  0.0879
16274SOL    HW150038   6.476   3.848   3.156 -1.3312 -0.7181  0.9008
16274SOL    HW250039   6.383   3.845   3.036  0.5479 -0.1310 -0.6181
16275SOL     OW50040   6.000   3.803   3.133 -0.2579 -0.6286 -0.2379
16275SOL    HW150041   5.940   3.795   3.207  0.8692 -2.3973  0.5506
16275SOL    HW250042   5.943   3.813   3.057 -1.4958 -0.6014  0.6593
16276SOL     OW50043   6.260   4.202   2.547 -0.0549  0.7394 -0.1324
16276SOL    HW150044   6.312   4.269   2.592 -0.1608 -0.6380  2.2142
16276SOL    HW250045   6.192   4.179   2.610  0.2462 -1.8546 -0.6621
16277SOL     OW50046   7.310   4.756   3.048 -0.1754  0.2002  0.2986
16277SOL    HW150047   7.321   4.678   3.103 -1.7670 -1.3414 -1.3880
16277SOL    HW250048   7.373   4.819   3.082  0.3003 -1.3578  2.5630
16278SOL     OW50049   6.771   4.398   2.634  0.1043  0.3955  0.3429
16278SOL    HW150050   6.736   4.364   2.716  0.7392  0.2016  0.5403
16278SOL    HW250051   6.861   4.423   2.654 -0.1770  1.6812  0.0525
16279SOL     OW50052   7.112   4.851   2.791  0.2575 -0.4304 -0.0901
16279SOL    HW150053   7.037   4.890   2.836  0.8338  1.0289 -0.3479
16279SOL    HW250054   7.174   4.831   2.861 -0.5270 -2.1015  0.1805
16280SOL     OW50055   5.989   5.154   2.165 -0.5425  0.1622 -0.4795
16280SOL    HW150056   5.931   5.078   2.158 -1.5618  0.8329  0.2428
16280SOL    HW250057   6.046   5.149   2.089 -2.0786 -0.1167 -1.6650
16281SOL     OW50058   7.012   5.176   2.278  0.1099 -0.0989  0.0502
16281SOL    HW150059   6.971   5.121   2.211 -0.3742  0.1256  0.1566
16281SOL    HW250060   6.966   5.154   2.358  1.6808 -1.4631  0.6348
16282SOL     OW50061   7.169   4.653   2.080 -0.3265  0.0390  0.2764
16282SOL    HW150062   7.124   4.598   2.144 -1.6262  0.3980 -0.2980
16282SOL    HW250063   7.182   4.597   2.004 -1.6107  0.4631 -0.2924
16283SOL     OW50064   6.221   4.270   2.061  0.1071  0.3259 -0.2775
16283SOL    HW150065   6.289   4.295   2.124  0.2506 -0.5877 -0.0671
16283SOL    HW250066   6.139   4.283   2.108  0.2177 -0.4715  0.1470
16284SOL     OW50067   7.198   4.668   3.607 -0.1686 -0.3677  0.7282
16284SOL    HW150068   7.119   4.695   3.560  0.1379  0.5361  0.7128
16284SOL    HW250069   7.216   4.580   3.574 -0.4529 -0.0937 -0.2141
16285SOL     OW50070   6.650   4.751   3.330  0.0175 -0.1350  0.0706
16285SOL    HW150071   6.679   4.827   3.382 -0.2522 -0.2409  0.3833
16285SOL    HW250072   6.633   4.684   3.396  3.4813 -1.6316 -0.3483
16286SOL     OW50073   6.970   4.770   3.450  0.2722  0.4529 -0.0356
16286SOL    HW150074   7.001   4.842   3.395  0.4412  1.0024  0.7556
16286SOL    HW250075   6.924   4.813   3.522  1.7804 -0.1177  1.3427
16287SOL     OW50076   6.794   4.928   3.110  0.2261  0.1083 -0.3924
16287SOL    HW150077   6.719   4.872   3.093  0.4718 -0.2776 -0.2160
16287SOL    HW250078   6.860   4.869   3.147  1.3563  0.0359 -2.4133
16288SOL     OW50079   7.162   5.112   3.009  0.1744 -0.5448 -0.4979
16288SOL    HW150080   7.171   5.054   3.085 -0.1011 -1.6682 -1.2878
16288SOL    HW250081   7.079   5.158   3.024  1.4539  1.3953  1.2393
16289SOL     OW50082   6.731   3.633   3.282  0.0368 -0.2359 -0.0524
16289SOL    HW150083   6.738   3.542   3.312 -1.4721 -0.8306 -1.3752
16289SOL    HW250084   6.762   3.685   3.356  1.6069 -1.8387  0.4766
16290SOL     OW50085   6.389   4.844   3.670 -0.1007 -0.4301  0.3533
16290SOL    HW150086   6.329   4.769   3.669 -1.3977  0.5644  0.5136
16290SOL    HW250087   6.475   4.806   3.654 -0.8095 -1.8747 -0.2437
16291SOL     OW50088   6.227   4.947   2.357 -0.2486  0.0807  0.9254
16291SOL    HW150089   6.268   5.022   2.314 -2.2661  0.1354 -1.0972
16291SOL    HW250090   6.198   4.981   2.442  0.0351  1.2257  0.5826
16292SOL     OW50091   5.717   4.890   3.167  0.1246 -0.0967  0.3586
16292SOL    HW150092   5.700   4.796   3.161 -0.5828 -0.0660  1.5738
16292SOL    HW250093   5.632   4.931   3.149 -0.2662  0.1970  2.6145
16293SOL     OW50094   6.301   4.588   2.960 -0.8172  0.6320 -0.1415
16293SOL    HW150095   6.281   4.503   2.999 -0.4412  0.9516  0.7584
16293SOL    HW250096   6.218   4.618   2.923 -0.6194 -0.9013 -2.0292
16294SOL     OW50097   5.978   5.347   3.476 -0.1797 -0.3078 -0.4885
16294SOL    HW150098   5.892   5.317   3.507 -0.2019  1.4460  1.3802
16294SOL    HW250099   5.972   5.345   3.381 -2.1048 -0.7451 -0.3933
16295SOL     OW50100   5.917   5.424   2.142 -0.1294 -0.5697 -0.1624
16295SOL    HW150101   5.951   5.340   2.173  0.7286 -0.3418 -0.4752
16295SOL    HW250102   5.959   5.437   2.057  0.3383  0.5417  0.2222
16296SOL     OW50103   6.079   4.327   2.295  0.3903 -0.4767 -0.5506
16296SOL    HW150104   6.121   4.311   2.379 -1.6700  0.2748  0.7015
16296SOL    HW250105   5.993   4.285   2.302 -0.4303  0.9190 -1.6627
16297SOL     OW50106   6.868   5.603   2.565 -0.1822 -0.1247  0.5623
16297SOL    HW150107   6.843   5.694   2.582 -0.7377 -0.2630  0.4764
16297SOL    HW250108   6.908   5.605   2.478 -1.3516 -0.1726  0.0040
16298SOL     OW50109   6.763   5.239   2.833 -0.6135 -0.6360 -0.7836
16298SOL    HW150110   6.702   5.245   2.907 -0.6376 -0.3454 -0.8250
16298SOL    HW250111   6.803   5.153   2.842 -0.8124 -0.7097 -0.5837
16299SOL     OW50112   7.055   4.500   2.265  0.1307 -0.2259 -0.1779
16299SOL    HW150113   7.125   4.491   2.331 -0.6209  0.3702  0.7260
16299SOL    HW250114   6.981   4.453   2.304 -0.5140  0.6665 -0.3131
16300SOL     OW50115   5.985   5.395   3.182 -0.6157 -0.0304 -0.0385
16300SOL    HW150116   6.066   5.350   3.204  0.7855  1.3866 -1.9693
16300SOL    HW250117   5.942   5.338   3.118 -1.0459 -0.6400  0.7684
16301SOL     OW50118   5.953   4.201   3.041  0.3157 -0.5030 -0.2593
16301SOL    HW150119   5.994   4.171   2.960 -3.0157  1.0742 -2.7859
16301SOL    HW250120   5.879   4.141   3.054  0.2246 -0.1344  1.0973
16302SOL     OW50121   6.947   3.931   3.164  0.1957 -0.3037  0.5645
16302SOL    HW150122   6.989   3.852   3.130  0.0521 -1.0917  2.1449
16302SOL    HW250123   6.937   3.987   3.087  1.8020 -1.1285 -0.3096
16303SOL     OW50124   6.393   3.500   3.605 -0.8016 -0.2244  0.0122
16303SOL    HW150125   6.445   3.559   3.659  0.8057 -0.4291 -1.2268
16303SOL    HW250126   6.314   3.549   3.583 -0.0215  1.0411 -0.0374
16304SOL     OW50127   5.821   4.010   3.530  0.2144 -0.1277  0.2544
16304SOL    HW150128   5.751   4.037   3.590  0.1108 -0.6758  0.3837
16304SOL    HW250129   5.818   4.074   3.459  0.7072  0.8835  1.1037
16305SOL     OW50130   6.025   4.680   2.921  0.5128 -0.4044  0.2913
16305SOL    HW150131   6.000   4.634   3.001 -2.3389  0.6960  0.1208
16305SOL    HW250132   5.989   4.626   2.850 -0.1318  0.4612 -0.0543
16306SOL     OW50133   6.891   4.612   2.813 -0.4251 -0.0202  0.3511
16306SOL    HW150134   6.958   4.663   2.859 -0.5338 -0.6732  1.2687
16306SOL    HW250135   6.831   4.677   2.777 -0.1939  0.5172  0.9211
16307SOL     OW50136   6.759   4.438   2.039  0.0113 -0.2327 -0.2522
16307SOL    HW150137   6.825   4.380   2.077  0.2364 -0.1012 -0.4359
16307SOL    HW250138   6.791   4.455   1.950 -0.2056 -0.0655 -0.2985
16308SOL     OW50139   5.833   3.453   3.071  0.0539 -0.5999  0.3844
16308SOL    HW150140   5.829   3.359   3.087  0.0094 -0.4451  1.3411
16308SOL    HW250141   5.790   3.492   3.147 -0.3964  0.1727 -0.2551
16309SOL     OW50142   5.465   4.967   3.200  0.1237  0.0035  0.0751
16309SOL    HW150143   5.482   5.009   3.284  0.0089 -1.3781  0.8132
16309SOL    HW250144   5.379   4.927   3.210 -1.0763  1.9786 -1.6138
16310SOL     OW50145   6.078   4.068   2.844 -0.0191 -0.5662  0.1850
16310SOL    HW150146   6.031   4.047   2.764  0.4284 -2.1404  0.2967
16310SOL    HW250147   6.131   3.990   2.862 -0.4131 -0.4201  2.2321
16311SOL     OW50148   7.255   4.400   3.552 -0.0432 -0.6395 -0.3493
16311SOL    HW150149   7.210   4.329   3.506  0.5020 -0.7801 -0.6792
16311SOL    HW250150   7.279   4.362   3.637 -0.5514 -0.5590 -0.1669
16312SOL     OW50151   5.856   3.695   2.670  0.4084 -0.5912 -0.2473
16312SOL    HW150152   5.885   3.606   2.649 -0.9562 -1.0540 -0.2552
16312SOL    HW250153   5.821   3.689   2.759 -1.6089 -0.5655 -0.9943
16313SOL     OW50154   6.856   4.331   2.375 -0.4007  0.2553  0.3555
16313SOL    HW150155   6.808   4.261   2.331 -0.2729  1.1613 -1.3109
16313SOL    HW250156   6.797   4.360   2.445 -1.8623  0.6027 -0.9574
16314SOL     OW50157   6.645   4.396   2.899  0.4815  0.0964 -0.0537
16314SOL    HW150158   6.723   4.394   2.953  0.0360 -0.4133  0.5855
16314SOL    HW250159   6.602   4.479   2.922  0.6120  0.1761 -0.0946
16315SOL     OW50160   6.699   5.694   3.582  0.2796  0.0446 -0.3261
16315SOL    HW150161   6.780   5.743   3.598  0.9199 -0.6745 -1.1995
16315SOL    HW250162   6.647   5.707   3.661  0.3871  2.1601 -0.5453
16316SOL     OW50163   7.390   5.125   3.857  0.3032  1.0570 -0.2439
16316SOL    HW150164   7.464   5.087   3.810 -0.3642  0.4559 -0.8254
16316SOL    HW250165   7.425   5.144   3.944  0.8779 -0.1723 -0.1777
16317SOL     OW50166   5.701   4.548   3.894  0.4327 -0.0429  0.4712
16317SOL    HW150167   5.638   4.618   3.915  0.8760 -0.4106  3.5380
16317SOL    HW250168   5.671   4.473   3.945  0.0667 -2.1928 -2.6091
16318SOL     OW50169   6.891   4.027   2.059  0.1652  0.1151  0.4318
16318SOL    HW150170   6.924   4.115   2.078  1.6722 -0.1595 -0.7986
16318SOL    HW250171   6.901   3.980   2.142  0.8937  0.6432  0.6572
16319SOL     OW50172   6.503   4.576   2.077 -0.4460  0.1025 -0.0404
16319SOL    HW150173   6.583   4.531   2.048  0.5218  1.3140  0.6437
16319SOL    HW250174   6.450   4.584   1.997 -0.0605 -1.0254 -0.4354
16320SOL     OW50175   6.587   5.265   2.581 -0.0227  0.1462 -0.3318
16320SOL    HW150176   6.628   5.276   2.667 -0.0559 -0.6535 -0.2088
16320SOL    HW250177   6.494   5.259   2.599 -0.0214 -0.1253 -0.4162
16321SOL     OW50178   5.874   4.310   2.544  0.3662  0.1349  0.3557
16321SOL    HW150179   5.848   4.309   2.452  2.1035 -1.2970 -0.1698
16321SOL    HW250180   5.899   4.220   2.563  0.4709  0.5052  2.0990
16322SOL     OW50181   5.866   4.011   2.653  0.3210  0.2671 -1.1637
16322SOL    HW150182   5.888   3.962   2.574 -0.2232 -0.4274 -0.8883
16322SOL    HW250183   5.778   3.981   2.676  0.5849  0.2596 -0.1425
16323SOL     OW50184   6.439   4.301   3.144 -0.2991 -0.7596 -0.2545
16323SOL    HW150185   6.390   4.252   3.077 -1.0089 -0.4994  0.0595
16323SOL    HW250186   6.376   4.312   3.215  0.5285 -1.2587  0.5686
16324SOL     OW50187   6.590   3.769   2.847 -0.0138 -0.3003 -0.0852
16324SOL    HW150188   6.537   3.792   2.923  1.4459 -1.4251  1.3208
16324SOL    HW250189   6.536   3.707   2.798 -1.2880  1.0245 -0.4539
16325SOL     OW50190   5.418   5.130   2.509  0.2686  0.0501  0.2726
16325SOL    HW150191   5.327   5.109   2.528  0.3137  0.2088  0.6609
16325SOL    HW250192   5.415   5.214   2.465  0.1410 -0.4396 -0.6855
16326SOL     OW50193   5.471   5.199   2.855  0.3786  0.1065  0.0519
16326SOL    HW150194   5.520   5.116   2.858 -0.9105 -0.7315 -0.9329
16326SOL    HW250195   5.470   5.230   2.946  1.7519 -0.4166  0.2712
16327SOL     OW50196   6.364   5.349   2.926  0.2734  0.2297  0.9780
16327SOL    HW150197   6.391   5.257   2.930  2.7649  0.7256 -1.5183
16327SOL    HW250198   6.380   5.382   3.014  2.7513 -0.9409  1.0446
16328SOL     OW50199   6.177   4.342   2.844  0.0140  0.8162  0.1702
16328SOL    HW150200   6.107   4.392   2.801  0.2633  2.3108  1.3907
16328SOL    HW250201   6.145   4.252   2.845 -0.4887  0.9074 -2.0533
16329SOL     OW50202   5.745   4.592   2.435 -0.0527  0.5000  0.1028
16329SOL    HW150203   5.833   4.615   2.466 -0.4535  1.0990  0.8040
16329SOL    HW250204   5.759   4.515   2.379  0.9586  0.7917 -0.0629
16330SOL     OW50205   5.691   4.614   3.098 -0.3452  0.2322  0.1581
16330SOL    HW150206   5.651   4.532   3.128  0.9924  0.0392  1.5152
16330SOL    HW250207   5.636   4.642   3.024 -2.8981 -0.0832  1.8189
16331SOL     OW50208   6.909   4.150   2.993  0.0114 -0.7967 -0.4418
16331SOL    HW150209   6.910   4.246   3.001  1.2040 -0.6222 -2.2661
16331SOL    HW250210   6.816   4.127   2.993 -0.2922  0.3574 -0.1352
16332SOL     OW50211   6.126   4.510   1.902 -0.2261  0.4355  0.0796
16332SOL    HW150212   6.144   4.427   1.947  1.6327  0.1880 -1.0241
16332SOL    HW250213   6.148   4.577   1.967 -2.1496  0.1267  1.1296
16333SOL     OW50214   6.641   4.080   3.007  0.1653 -0.7840  0.3693
16333SOL    HW150215   6.648   4.013   3.074 -1.5972 -2.1525 -0.7261
16333SOL    HW250216   6.557   4.123   3.024  1.3152  1.2720  1.1178
16334SOL     OW50217   6.135   5.682   3.741  0.2260  0.3072 -0.0269
16334SOL    HW150218   6.049   5.651   3.711 -0.3081  1.7679 -0.0464
16334SOL    HW250219   6.116   5.750   3.805  1.3802 -0.5429  1.2855
16335SOL     OW50220   6.151   4.963   2.968  0.2970 -0.5734  0.1142
16335SOL    HW150221   6.155   5.042   3.021 -0.2157 -0.5742  0.1639
16335SOL    HW250222   6.073   4.917   2.999  1.2058 -1.6690  0.8608
16336SOL     OW50223   6.651   5.231   3.228  0.5152  0.3968  0.2293
16336SOL    HW150224   6.678   5.320   3.252  0.6570  0.3562  0.2248
16336SOL    HW250225   6.638   5.187   3.312  0.9325  0.2786  0.2369
16337SOL     OW50226   5.510   4.675   1.912  0.8312 -0.4120 -0.4817
16337SOL    HW150227   5.555   4.657   1.995  0.5026 -0.8940 -0.4039
16337SOL    HW250228   5.422   4.703   1.939  0.0837 -2.3696 -0.6879
16338SOL     OW50229   5.358   4.446   3.437 -0.1976 -0.0169 -0.1649
16338SOL    HW150230   5.413   4.417   3.510  0.4406  0.4682 -0.4388
16338SOL    HW250231   5.288   4.381   3.432 -0.0771 -0.2221  0.6825
16339SOL     OW50232   6.735   4.807   2.714  0.1783  0.5827 -0.2594
16339SOL    HW150233   6.657   4.858   2.689  0.1828  0.8754  0.2957
16339SOL    HW250234   6.785   4.798   2.633 -0.7540 -0.1766 -0.7616
16340SOL     OW50235   6.910   4.593   1.608  0.2181 -0.6786  0.2090
16340SOL    HW150236   6.854   4.549   1.671  0.9114 -0.6115  0.8895
16340SOL    HW250237   6.929   4.678   1.648 -0.3658 -0.1113 -0.6765
16341SOL     OW50238   6.925   5.175   3.150 -0.6821  0.3879  0.0412
16341SOL    HW150239   6.854   5.112   3.163  0.2073 -0.1737  3.0706
16341SOL    HW250240   6.883   5.261   3.154 -1.6937  0.0765 -2.5673
16342SOL     OW50241   6.798   5.454   3.127 -0.1556  0.5259  0.4810
16342SOL    HW150242   6.766   5.534   3.169  0.2319  0.8301  0.1983
16342SOL    HW250243   6.788   5.471   3.034  3.1259  1.6519  0.2075
16343SOL     OW50244   5.845   5.158   3.037  0.0170 -0.6241 -0.8166
16343SOL    HW150245   5.905   5.118   3.100 -1.3619 -0.2481  0.8039
16343SOL    HW250246   5.803   5.084   2.993 -1.7763 -1.0547  1.4461
16344SOL     OW50247   6.186   5.317   3.636 -0.3598 -0.4054 -0.7345
16344SOL    HW150248   6.236   5.397   3.622  0.4757 -0.8415 -0.3520
16344SOL    HW250249   6.101   5.333   3.595 -1.3703  1.8415  1.9041
16345SOL     OW50250   7.329   4.286   2.345  0.6415 -0.2375  0.2053
16345SOL    HW150251   7.242   4.247   2.348 -0.1838  1.5227  1.0750
16345SOL    HW250252   7.324   4.360   2.407  2.2051  0.9271 -0.9747
16346SOL     OW50253   6.767   5.050   2.222 -0.2771 -0.0995 -0.4276
16346SOL    HW150254   6.823   4.972   2.216 -0.4484 -0.2909  0.2631
16346SOL    HW250255   6.685   5.017   2.258 -0.3949  0.3798 -0.2495
16347SOL     OW50256   5.079   5.396   3.421  0.3754  0.0169 -0.0538
16347SOL    HW150257   5.021   5.324   3.449 -0.4808  0.5317 -0.4651
16347SOL    HW250258   5.034   5.475   3.449  0.1705  0.4918 -1.6062
16348SOL     OW50259   6.832   4.665   2.498 -0.3443  0.4014  0.1510
16348SOL    HW150260   6.805   4.579   2.530  1.3750 -0.5845 -0.8602
16348SOL    HW250261   6.797   4.669   2.409  2.5211 -0.8940 -1.1789
16349SOL     OW50262   6.109   4.873   3.408 -0.4782 -0.1103 -0.4140
16349SOL    HW150263   6.092   4.937   3.478 -3.1219  1.0793 -2.0182
16349SOL    HW250264   6.202   4.885   3.388 -0.8524  3.4019 -0.7090
16350SOL     OW50265   6.174   5.481   2.024  0.0938 -0.2782  0.1929
16350SOL    HW150266   6.257   5.515   2.059 -0.3592  0.9792  0.0912
16350SOL    HW250267   6.179   5.499   1.930 -0.5789  0.4195  0.2897
16351SOL     OW50268   7.403   5.218   3.541  0.2758 -0.6957  0.2654
16351SOL    HW150269   7.403   5.227   3.636  0.1273 -0.2430  0.2268
16351SOL    HW250270   7.319   5.254   3.513  0.1887 -1.1099 -0.0144
16352SOL     OW50271   7.366   3.706   2.799 -0.2928  0.0884  0.1884
16352SOL    HW150272   7.317   3.625   2.814  0.0925 -0.3152 -0.6375
16352SOL    HW250273   7.457   3.680   2.810 -0.0818  0.0969 -1.2670
16353SOL     OW50274   5.608   4.070   2.326 -0.7724 -0.1605 -1.0473
16353SOL    HW150275   5.608   4.001   2.392  0.0032  0.7249 -0.0726
16353SOL    HW250276   5.525   4.060   2.280 -3.1023  1.3387  2.4021
16354SOL     OW50277   6.935   5.277   1.966 -0.5901 -0.1785  0.4764
16354SOL    HW150278   7.013   5.223   1.977  0.1245  0.8363  0.4904
16354SOL    HW250279   6.956   5.336   1.893 -0.2203  1.9755  2.2217
16355SOL     OW50280   5.921   4.440   3.657 -0.1431 -0.8989  0.0767
16355SOL    HW150281   5.960   4.378   3.595  1.5596  0.8190 -0.6726
16355SOL    HW250282   5.829   4.445   3.630  0.1085 -1.7040 -1.0203
16356SOL     OW50283   6.118   4.556   2.168  0.4838  0.1394  0.3001
16356SOL    HW150284   6.112   4.475   2.219  0.0920 -0.9196 -1.3595
16356SOL    HW250285   6.183   4.608   2.214  0.4957 -0.9670  1.6043
16357SOL     OW50286   7.124   6.124   1.625 -0.2639  0.2782 -0.1116
16357SOL    HW150287   7.036   6.146   1.595 -0.2454  1.2662  0.4983
16357SOL    HW250288   7.179   6.196   1.593  0.2864 -0.2159 -0.3026
16358SOL     OW50289   6.074   5.027   3.632 -0.7009  0.5651 -0.1493
16358SOL    HW150290   6.080   4.969   3.707 -1.8285 -0.8353 -1.0978
16358SOL    HW250291   6.020   5.100   3.662 -1.5420 -0.2149  0.2603
16359SOL     OW50292   7.298   4.551   3.220 -0.7932 -0.3022 -0.3831
16359SOL    HW150293   7.342   4.571   3.303 -1.3912  2.0619 -0.5688
16359SOL    HW250294   7.267   4.461   3.231 -0.7526 -0.1069  1.9399
16360SOL     OW50295   6.462   4.890   2.661  0.3053 -0.2575 -0.1492
16360SOL    HW150296   6.456   4.891   2.756 -1.9692 -0.3409 -0.2240
16360SOL    HW250297   6.403   4.960   2.632 -2.0572 -2.6098 -1.5079
16361SOL     OW50298   6.214   3.831   2.967  0.0487 -0.0831  0.5365
16361SOL    HW150299   6.151   3.796   3.030 -2.7626  0.5395 -1.7624
16361SOL    HW250300   6.217   3.766   2.897  1.3823  0.3054  0.1952
16362SOL     OW50301   5.362   5.273   2.270  0.3639 -0.4529  0.2104
16362SOL    HW150302   5.272   5.240   2.259 -0.2912  0.6979  1.7468
16362SOL    HW250303   5.411   5.232   2.199 -1.8639  0.6165 -2.1185
16363SOL     OW50304   7.203   3.812   3.004 -0.1050  0.0572 -0.2097
16363SOL    HW150305   7.168   3.752   3.070  0.9432 -0.3539 -0.0102
16363SOL    HW250306   7.264   3.759   2.953 -1.8566  0.0026 -2.4059
16364SOL     OW50307   6.222   5.076   2.599  0.5491  0.7778  0.2851
16364SOL    HW150308   6.271   5.158   2.609 -0.1058  1.2415 -0.2073
16364SOL    HW250309   6.131   5.101   2.618  0.3721  0.1206  0.3063
16365SOL     OW50310   5.774   5.086   3.640 -0.1216  0.1714  0.0425
16365SOL    HW150311   5.794   5.094   3.733  0.1970 -1.0340  0.0950
16365SOL    HW250312   5.821   5.007   3.612 -0.8265  0.0876 -0.9639
16366SOL     OW50313   6.165   3.703   3.325 -0.0790 -0.2051  0.6900
16366SOL    HW150314   6.115   3.710   3.244  2.0085 -2.0841 -0.8914
16366SOL    HW250315   6.197   3.791   3.342 -2.6359  0.7540  0.9945
16367SOL     OW50316   6.056   4.053   1.884  0.3278 -0.5439 -0.2724
16367SOL    HW150317   6.141   4.095   1.878  0.4181 -0.5472  0.7432
16367SOL    HW250318   6.023   4.051   1.794  1.5677 -0.9107 -0.7407
16368SOL     OW50319   7.030   4.730   3.115 -0.2142 -0.7472  0.8471
16368SOL    HW150320   7.125   4.722   3.119 -0.2017 -0.2211  2.0583
16368SOL    HW250321   6.997   4.656   3.166 -0.5221 -1.7708 -0.7642
16369SOL     OW50322   5.458   3.829   2.017 -0.0895  0.1072  0.1767
16369SOL    HW150323   5.444   3.904   2.076  0.8095  1.5422 -1.3371
16369SOL    HW250324   5.538   3.788   2.050 -0.1630  0.2727  0.5674
16370SOL     OW50325   6.550   4.940   2.365  0.2061 -0.1208 -0.0573
16370SOL    HW150326   6.542   4.903   2.453  1.0360 -1.7808 -0.6274
16370SOL    HW250327   6.462   4.973   2.345 -0.3714 -1.0229  0.8536
16371SOL     OW50328   5.958   4.527   2.710  0.2645  0.3887 -0.1177
16371SOL    HW150329   5.965   4.592   2.640  0.6672  0.9071  0.3938
16371SOL    HW250330   5.919   4.451   2.668  1.6039  0.2543 -1.1997
16372SOL     OW50331   7.131   5.288   3.542  0.2317 -0.2703 -0.2538
16372SOL    HW150332   7.056   5.250   3.587  0.3880  0.9247  1.0963
16372SOL    HW250333   7.095   5.327   3.462 -0.5766  0.1515  0.3041
16373SOL     OW50334   6.257   3.969   3.411 -0.0916 -0.1473  0.1245
16373SOL    HW150335   6.214   3.974   3.496 -0.6794 -1.5642 -0.0643
16373SOL    HW250336   6.208   4.031   3.356 -0.5695 -0.2155  0.4677
16374SOL     OW50337   6.904   4.534   3.266 -0.0552 -0.2019 -0.0451
16374SOL    HW150338   6.913   4.574   3.353 -0.5940 -0.5490  0.1780
16374SOL    HW250339   6.819   4.489   3.269  1.0703 -2.4887  0.1898
16375SOL     OW50340   5.918   5.626   3.573 -0.1426 -0.3593 -0.0731
16375SOL    HW150341   5.848   5.651   3.513  1.1924  0.5951 -1.2890
16375SOL    HW250342   5.925   5.531   3.562 -0.8091 -0.3767 -0.4194
16376SOL     OW50343   6.898   4.418   3.016 -0.1736 -0.4024 -0.5766
16376SOL    HW150344   6.917   4.480   3.087  2.5927  0.1191 -1.6566
16376SOL    HW250345   6.890   4.473   2.938 -0.3213 -1.2175 -1.1465
16377SOL     OW50346   6.500   4.384   2.540  0.0940  0.1112 -0.1416
16377SOL    HW150347   6.595   4.374   2.547 -0.0766 -0.6262  2.1847
16377SOL    HW250348   6.478   4.451   2.605 -1.2035 -1.7559  1.4575
16378SOL     OW50349   6.213   4.567   2.510 -0.2749  0.2640  0.0236
16378SOL    HW150350   6.276   4.570   2.582 -0.3183 -0.7478  0.1151
16378SOL    HW250351   6.253   4.619   2.441  1.4219 -1.6145 -0.4929
16379SOL     OW50352   7.282   4.048   3.068 -0.1365  0.1996 -0.1487
16379SOL    HW150353   7.375   4.025   3.068 -0.2876 -0.4896 -1.2816
16379SOL    HW250354   7.238   3.967   3.042 -1.2848 -0.2133  2.6885
16380SOL     OW50355   7.404   4.311   2.924  0.5354  0.4682 -0.0954
16380SOL    HW150356   7.352   4.275   2.995 -1.2021  2.0061 -0.5271
16380SOL    HW250357   7.493   4.281   2.943 -0.0480 -0.0960  2.0864
16381SOL     OW50358   6.442   4.920   2.032  0.5744  0.3559  0.2075
16381SOL    HW150359   6.446   4.859   1.959 -1.6243 -0.7592  0.9301
16381SOL    HW250360   6.357   4.964   2.021  1.3580  2.0822  0.6719
16382SOL     OW50361   6.181   6.004   2.540 -0.1503  0.0399 -0.1855
16382SOL    HW150362   6.262   5.991   2.490  0.8391  1.2920  0.9963
16382SOL    HW250363   6.159   5.917   2.573  1.8429 -0.0498  1.0849
16383SOL     OW50364   6.204   4.358   3.263  0.4660 -0.4018 -0.3101
16383SOL    HW150365   6.126   4.372   3.210  1.5121  0.7293 -1.6087
16383SOL    HW250366   6.213   4.438   3.315  0.8299 -0.4768 -0.2532
16384SOL     OW50367   6.421   4.605   1.807 -0.2603 -0.6202  0.1360
16384SOL    HW150368   6.354   4.664   1.772 -1.0092 -2.9014 -2.6793
16384SOL    HW250369   6.497   4.619   1.749  1.0571  0.4320  2.0121
16385SOL     OW50370   7.464   4.945   2.667  0.0355 -0.1232  0.2250
16385SOL    HW150371   7.449   4.967   2.576 -1.4576  1.0378  0.7120
16385SOL    HW250372   7.425   4.858   2.678  0.8223 -0.5605 -0.3770
16386SOL     OW50373   5.586   5.124   3.446  0.1275  0.0858 -0.4465
16386SOL    HW150374   5.607   5.217   3.457  1.3546  0.1896 -3.0726
16386SOL    HW250375   5.639   5.079   3.511  0.5202  1.1288 -0.0326
16387SOL     OW50376   5.661   4.987   2.824  0.5660 -0.7969 -0.3641
16387SOL    HW150377   5.604   4.951   2.756 -0.3049 -0.9723  0.4478
16387SOL    HW250378   5.730   4.922   2.835  0.0823 -1.2959 -0.2799
16388SOL     OW50379   6.333   5.042   3.480 -1.0759  0.1994  0.1172
16388SOL    HW150380   6.353   4.973   3.544 -1.0991  1.2393  1.2848
16388SOL    HW250381   6.252   5.082   3.512  0.0370  2.1389  0.6982
16389SOL     OW50382   7.637   3.684   3.208 -0.6331 -0.0412 -0.2261
16389SOL    HW150383   7.720   3.728   3.227 -1.6991  2.0155  0.0393
16389SOL    HW250384   7.662   3.601   3.167  1.5438  0.0615  0.7698
16390SOL     OW50385   5.980   3.833   2.055 -0.0263 -0.2244 -0.4282
16390SOL    HW150386   6.051   3.772   2.074 -0.1539 -1.6631 -3.8276
16390SOL    HW250387   6.009   3.881   1.977 -1.5436  1.3124 -0.1167
16391SOL     OW50388   7.289   5.474   3.019 -0.3250 -0.5064  0.2575
16391SOL    HW150389   7.306   5.469   3.113 -0.5361  0.9827  0.4052
16391SOL    HW250390   7.292   5.383   2.988  2.7103 -0.8020  1.1724
16392SOL     OW50391   5.615   4.333   2.725  0.4158  0.4160  0.3188
16392SOL    HW150392   5.614   4.262   2.789  2.4382  1.2363  1.3555
16392SOL    HW250393   5.675   4.302   2.657  0.3416  0.6340  0.1534
16393SOL     OW50394   6.320   5.690   2.394 -0.5492 -0.1105 -0.4480
16393SOL    HW150395   6.232   5.682   2.357 -1.3701  2.0027  0.8761
16393SOL    HW250396   6.339   5.784   2.390  2.3898 -0.6463 -2.2560
16394SOL     OW50397   7.056   3.742   2.478 -0.0255 -0.1194 -0.4961
16394SOL    HW150398   7.091   3.654   2.468 -2.6857 -1.1873 -1.2495
16394SOL    HW250399   6.997   3.736   2.554 -1.6906  0.4624 -1.6916
16395SOL     OW50400   6.410   3.612   2.725 -0.2625 -0.2098 -0.2698
16395SOL    HW150401   6.319   3.623   2.696 -0.2905 -0.9342 -0.4818
16395SOL    HW250402   6.417   3.519   2.747  0.7020 -0.3849 -1.2184
16396SOL     OW50403   5.964   5.158   2.710 -0.4389  0.0808  0.2433
16396SOL    HW150404   5.957   5.067   2.739 -0.1553 -0.5750 -1.6028
16396SOL    HW250405   5.873   5.185   2.693 -0.5984  0.4409  1.5400
16397SOL     OW50406   6.237   5.298   3.279  0.4237 -0.2703  0.6404
16397SOL    HW150407   6.303   5.367   3.277 -0.1178  0.2788  1.0756
16397SOL    HW250408   6.275   5.230   3.334 -0.0206  0.7650  2.3092
16398SOL     OW50409   7.052   4.072   1.794 -0.2158 -0.1511 -0.3842
16398SOL    HW150410   7.060   3.998   1.854 -0.1764 -0.8236 -1.2022
16398SOL    HW250411   7.079   4.148   1.846  0.5781 -0.8231  0.2173
16399SOL     OW50412   6.922   3.917   2.311  0.3443  0.2831 -0.3826
16399SOL    HW150413   6.830   3.898   2.330  0.7036  0.0633  1.2725
16399SOL    HW250414   6.971   3.855   2.366  1.4890  0.6074 -1.0120
16400SOL     OW50415   7.268   3.910   2.380  0.1273  0.0406 -0.1229
16400SOL    HW150416   7.214   3.856   2.437 -0.2442  1.3988  0.8545
16400SOL    HW250417   7.214   3.986   2.360  0.1977 -0.4525 -2.4429
16401SOL     OW50418   5.163   5.111   2.558  0.0649  0.2047 -0.5357
16401SOL    HW150419   5.127   5.144   2.640  0.5782 -3.1170  1.2010
16401SOL    HW250420   5.104   5.040   2.532  1.6315 -0.9064 -1.2553
16402SOL     OW50421   6.470   5.308   1.800 -0.1353  0.2949 -0.2326
16402SOL    HW150422   6.387   5.265   1.781  0.1206  0.0042 -0.6983
16402SOL    HW250423   6.506   5.258   1.874 -0.7504  0.9305  0.5181
16403SOL     OW50424   5.849   4.819   3.550 -0.3663 -0.2085  0.4034
16403SOL    HW150425   5.772   4.775   3.515 -1.3992  1.1458  0.8998
16403SOL    HW250426   5.891   4.859   3.475 -0.3171 -0.6682  0.1809
16404SOL     OW50427   5.417   3.904   4.890 -0.2177  0.3194 -0.3858
16404SOL    HW150428   5.420   3.955   4.971 -1.1745 -0.6023  0.2551
16404SOL    HW250429   5.335   3.932   4.847 -0.3384 -0.0937 -0.4262
16405SOL     OW50430   5.349   4.297   4.282 -0.1349  0.1150 -0.0335
16405SOL    HW150431   5.289   4.243   4.230  1.0299  0.7287 -2.1417
16405SOL    HW250432   5.325   4.387   4.262  0.5994  0.3693  0.1967
16406SOL     OW50433   5.916   4.715   4.843 -0.0584  0.1187  0.1146
16406SOL    HW150434   5.860   4.760   4.907  1.0714  0.1970  1.0854
16406SOL    HW250435   5.856   4.686   4.775 -1.8021 -2.3242  2.4901
16407SOL     OW50436   7.067   5.011   4.566  0.0730  0.2989  0.0932
16407SOL    HW150437   7.135   4.945   4.556  1.3816  1.8629 -2.3371
16407SOL    HW250438   6.994   4.979   4.513  1.2711  1.3825 -2.3670
16408SOL     OW50439   6.634   3.879   4.480  0.3051  0.0383  0.2136
16408SOL    HW150440   6.641   3.936   4.556  2.0256  0.7356 -0.4154
16408SOL    HW250441   6.591   3.933   4.414 -0.2520 -0.2163  0.3671
16409SOL     OW50442   7.304   4.198   3.801 -0.0117  0.4293  0.0301
16409SOL    HW150443   7.355   4.118   3.789  0.6124  0.8799 -0.3628
16409SOL    HW250444   7.218   4.176   3.765  0.2229  0.0127 -0.2920
16410SOL     OW50445   6.265   5.067   4.525 -0.0928  0.2286  0.6394
16410SOL    HW150446   6.287   5.053   4.617  0.1946  0.5900  0.6253
16410SOL    HW250447   6.170   5.053   4.521 -0.2236  0.9504  1.1310
16411SOL     OW50448   5.711   4.226   5.813  0.0938  0.1809 -0.1804
16411SOL    HW150449   5.767   4.157   5.847 -0.1961  0.4664  0.9250
16411SOL    HW250450   5.635   4.227   5.871 -0.7946  0.1917 -1.2972
16412SOL     OW50451   5.995   4.273   4.277 -0.0107  0.0276  0.6624
16412SOL    HW150452   5.964   4.361   4.259  0.4504  0.1899  0.6499
16412SOL    HW250453   5.918   4.217   4.263  0.2970  0.1157 -1.9388
16413SOL     OW50454   5.997   4.283   5.167  0.2991  0.5538 -0.5568
16413SOL    HW150455   5.928   4.256   5.227  0.9125  0.6545  0.2018
16413SOL    HW250456   5.957   4.352   5.114  0.4479  2.2085  1.3580
16414SOL     OW50457   5.999   5.034   4.529 -0.4338 -0.5540 -0.3108
16414SOL    HW150458   5.979   5.036   4.622  2.3805  1.8274  0.4176
16414SOL    HW250459   5.942   5.102   4.491  1.0109  1.1624  0.4446
16415SOL     OW50460   6.951   4.811   5.093  0.0965  0.0274  0.0088
16415SOL    HW150461   6.989   4.864   5.023 -0.1072 -1.5659 -1.3597
16415SOL    HW250462   6.864   4.788   5.061 -0.0668 -0.5975  0.8712
16416SOL     OW50463   5.951   4.083   4.904  0.0195 -0.3703 -0.2803
16416SOL    HW150464   5.989   4.138   4.972  0.1028 -1.2401  0.3966
16416SOL    HW250465   5.857   4.084   4.923  0.0356 -0.5588 -0.1884
16417SOL     OW50466   8.005   4.186   3.999 -0.0470 -1.1827  0.3036
16417SOL    HW150467   8.064   4.252   3.961 -0.4489 -0.6624  0.5645
16417SOL    HW250468   7.960   4.233   4.070  0.3832 -2.0214  1.1466
16418SOL     OW50469   5.871   5.247   4.427  0.4470  0.4282  0.2700
16418SOL    HW150470   5.835   5.305   4.360  0.6957  1.1082  0.7044
16418SOL    HW250471   5.797   5.227   4.483  0.4934  0.8923  0.5070
16419SOL     OW50472   7.034   5.012   5.326 -0.9681 -0.4256  0.3810
16419SOL    HW150473   6.990   5.097   5.326 -0.1830  0.0725  2.8731
16419SOL    HW250474   6.963   4.948   5.337 -1.5374 -0.1267 -1.2508
16420SOL     OW50475   5.668   5.084   3.986  0.2903  0.2649  0.1439
16420SOL    HW150476   5.743   5.127   3.946 -0.0577  0.5230 -0.2378
16420SOL    HW250477   5.694   5.071   4.078  0.1766  1.8105  0.4121
16421SOL     OW50478   5.611   5.300   4.765 -0.3537  0.4213 -0.1502
16421SOL    HW150479   5.558   5.371   4.729 -2.7752 -1.6770 -1.0530
16421SOL    HW250480   5.548   5.233   4.789  1.6466 -0.6230  2.7227
16422SOL     OW50481   5.771   5.039   4.748 -0.2273 -0.2247  0.7406
16422SOL    HW150482   5.729   4.960   4.713  2.0961 -0.7149 -1.2133
16422SOL    HW250483   5.708   5.108   4.732 -0.9603 -1.1627 -0.6792
16423SOL     OW50484   5.976   4.269   3.479  0.3264 -0.1398  0.0874
16423SOL    HW150485   5.975   4.183   3.437 -1.0486  0.8946 -2.2191
16423SOL    HW250486   6.003   4.329   3.410  0.4569  1.4037  1.4182
16424SOL     OW50487   6.760   3.645   5.574  0.1510  0.0970  0.4965
16424SOL    HW150488   6.772   3.693   5.656 -0.3997  1.2127 -0.0512
16424SOL    HW250489   6.672   3.671   5.544  0.4877 -0.0092 -0.6279
16425SOL     OW50490   5.624   4.328   4.081 -0.4518  0.3527 -0.2626
16425SOL    HW150491   5.595   4.392   4.146 -0.0698 -0.1294  0.3983
16425SOL    HW250492   5.557   4.260   4.082  0.5323 -0.6504  1.1044
16426SOL     OW50493   6.954   5.337   4.304 -0.1827  0.2087 -0.2350
16426SOL    HW150494   6.927   5.245   4.301 -1.4133  0.5681 -0.7630
16426SOL    HW250495   6.918   5.375   4.223 -0.2698  1.2974  0.2986
16427SOL     OW50496   5.439   5.188   3.838 -0.3808 -0.5044  0.0174
16427SOL    HW150497   5.437   5.143   3.754 -1.6105 -0.4852  0.0136
16427SOL    HW250498   5.488   5.130   3.896  0.4963 -0.5050 -0.7121
16428SOL     OW50499   7.398   4.917   4.093 -0.5875  0.0090  0.5478
16428SOL    HW150500   7.340   4.932   4.018  0.9788  1.7128 -0.4174
16428SOL    HW250501   7.339   4.906   4.167 -2.1893 -1.1660 -0.8107
16429SOL     OW50502   7.200   4.993   4.248 -0.0019  0.1324  0.6650
16429SOL    HW150503   7.208   5.073   4.299  0.3710  0.8561 -0.4732
16429SOL    HW250504   7.132   5.012   4.184 -0.7019 -0.8753  1.0924
16430SOL     OW50505   5.580   4.478   5.039 -0.0755 -0.6521  0.3295
16430SOL    HW150506   5.566   4.522   4.955  1.7238 -0.7712 -0.0847
16430SOL    HW250507   5.494   4.443   5.062 -1.1294  1.3604 -0.2933
16431SOL     OW50508   5.816   4.268   4.534 -0.0373  0.9665 -0.2612
16431SOL    HW150509   5.802   4.174   4.533  0.0653  0.9462  0.1585
16431SOL    HW250510   5.739   4.304   4.490  0.0002  0.6806 -0.5649
16432SOL     OW50511   6.613   4.750   5.151 -0.4894  0.4973 -0.4149
16432SOL    HW150512   6.554   4.777   5.081 -0.4144  2.7088  0.3010
16432SOL    HW250513   6.578   4.793   5.229  1.7989  1.5519  0.1148
16433SOL     OW50514   5.690   3.990   4.428 -0.0934  0.9097 -0.3824
16433SOL    HW150515   5.653   4.017   4.512  2.1118 -0.7582  1.2707
16433SOL    HW250516   5.629   4.024   4.363 -2.3276  1.6314  1.9003
16434SOL     OW50517   5.287   4.514   5.163 -0.4677 -0.0798  0.0708
16434SOL    HW150518   5.296   4.419   5.150  0.7298  0.1645 -1.1059
16434SOL    HW250519   5.261   4.523   5.254  0.8325 -1.4833  0.6182
16435SOL     OW50520   6.678   4.318   3.766 -0.2012  0.4374 -0.7489
16435SOL    HW150521   6.610   4.385   3.761 -1.2902 -0.5106  0.4774
16435SOL    HW250522   6.718   4.332   3.852 -0.3145 -0.3249 -0.5585
16436SOL     OW50523   6.827   4.801   5.361  0.2957 -0.7362  0.7014
16436SOL    HW150524   6.853   4.718   5.400  0.2515 -0.6858  0.8357
16436SOL    HW250525   6.856   4.794   5.270 -0.1332 -1.0869  0.5900
16437SOL     OW50526   5.559   3.449   5.689  0.0491 -0.2044 -0.3015
16437SOL    HW150527   5.476   3.431   5.734  0.7972  0.2630  1.3565
16437SOL    HW250528   5.623   3.393   5.734  1.0160  1.0521 -0.0434
16438SOL     OW50529   6.731   4.843   4.789 -0.3653  0.8548  0.3149
16438SOL    HW150530   6.780   4.920   4.817  0.9487  0.5064 -0.8902
16438SOL    HW250531   6.689   4.870   4.708 -0.6941  0.5921  0.3973
16439SOL     OW50532   7.110   5.516   4.483  0.1559 -0.1837 -0.3533
16439SOL    HW150533   7.091   5.456   4.555 -1.5776  1.2023  0.4115
16439SOL    HW250534   7.047   5.493   4.415  0.7055 -0.4101 -0.7968
16440SOL     OW50535   6.347   4.082   4.001  0.0230 -0.0006  0.1439
16440SOL    HW150536   6.307   4.119   4.080  0.5276  4.0361 -1.2609
16440SOL    HW250537   6.276   4.035   3.958 -0.8749 -0.2202  1.7923
16441SOL     OW50538   7.233   4.276   4.271 -0.3245 -0.0077 -0.4184
16441SOL    HW150539   7.171   4.212   4.305 -1.8372  2.7598  2.4615
16441SOL    HW250540   7.316   4.253   4.313 -0.5031 -0.8177 -0.4767
16442SOL     OW50541   6.991   5.057   4.091 -0.3990 -0.3532  0.6626
16442SOL    HW150542   6.989   5.127   4.025  0.2336 -1.3082 -0.4201
16442SOL    HW250543   6.924   5.082   4.154 -0.5011  0.9959  0.0643
16443SOL     OW50544   6.178   4.092   5.346 -0.2196 -0.2103 -0.6214
16443SOL    HW150545   6.160   4.155   5.416  0.3507  0.3152 -0.9346
16443SOL    HW250546   6.196   4.010   5.391  2.3407  0.6309  0.0007
16444SOL     OW50547   7.185   4.404   4.840 -0.6124  0.0485 -0.0865
16444SOL    HW150548   7.090   4.397   4.847 -0.8420  2.0695 -0.5981
16444SOL    HW250549   7.212   4.440   4.925 -0.3809  0.1367 -0.1975
16445SOL     OW50550   6.613   4.391   5.137  0.0169  0.1317  0.0621
16445SOL    HW150551   6.647   4.481   5.143 -0.0444  0.1252  0.5540
16445SOL    HW250552   6.672   4.347   5.076 -0.1863  0.6157 -0.4849
16446SOL     OW50553   6.725   4.153   4.353 -0.2374  0.6968  0.0772
16446SOL    HW150554   6.635   4.170   4.326 -1.1765 -0.5333  2.1855
16446SOL    HW250555   6.721   4.148   4.449  2.2222  1.3266  0.3048
16447SOL     OW50556   6.752   3.985   4.073  0.1010 -0.0425  0.2373
16447SOL    HW150557   6.722   4.011   4.160 -0.1535 -1.4177  0.5812
16447SOL    HW250558   6.818   4.051   4.049 -1.8902  2.0506  0.2009
16448SOL     OW50559   5.511   4.440   4.682 -0.2098 -0.0230 -0.7192
16448SOL    HW150560   5.457   4.519   4.683 -0.4978 -0.1105 -3.0262
16448SOL    HW250561   5.470   4.382   4.747 -2.6188  0.1354 -1.9892
16449SOL     OW50562   5.762   5.508   5.385 -0.2575  0.1227 -0.1817
16449SOL    HW150563   5.689   5.446   5.388 -0.7290  0.6354 -0.7005
16449SOL    HW250564   5.738   5.569   5.315  1.1875 -0.3363 -1.1157
16450SOL     OW50565   6.368   3.567   4.237 -0.1430  0.0193  0.2720
16450SOL    HW150566   6.462   3.578   4.251 -0.3500  2.3429  0.2757
16450SOL    HW250567   6.343   3.643   4.185 -2.1039 -0.2852  0.6952
16451SOL     OW50568   7.579   4.523   5.289 -0.0369  0.1837  0.2542
16451SOL    HW150569   7.518   4.596   5.294 -0.2195  0.1178 -0.8421
16451SOL    HW250570   7.540   4.463   5.225 -0.0958 -1.0766  1.4294
16452SOL     OW50571   6.422   4.735   4.194 -0.4413  0.3313  0.4003
16452SOL    HW150572   6.496   4.735   4.255  0.1454  2.4119 -0.2403
16452SOL    HW250573   6.386   4.823   4.200 -2.5263 -0.4705  0.2394
16453SOL     OW50574   5.523   4.040   4.631 -0.4457 -0.0988  0.6522
16453SOL    HW150575   5.438   4.000   4.613  0.5891 -1.6472 -1.1987
16453SOL    HW250576   5.540   4.019   4.723 -1.8845 -0.0903  0.9457
16454SOL     OW50577   6.452   5.025   4.034 -0.1134  0.6338 -0.2764
16454SOL    HW150578   6.382   4.992   3.977 -1.0748  2.1990 -0.0733
16454SOL    HW250579   6.410   5.035   4.120  0.1227  2.2884 -0.3269
16455SOL     OW50580   5.746   5.652   4.615  0.1953  0.4207  0.0341
16455SOL    HW150581   5.687   5.576   4.617  0.2480  0.3225 -1.2821
16455SOL    HW250582   5.704   5.717   4.670  0.0605 -0.4873  1.0570
16456SOL     OW50583   7.026   4.711   4.101 -0.6283 -0.0446 -0.1189
16456SOL    HW150584   7.104   4.733   4.049  0.0700 -1.2775  0.3428
16456SOL    HW250585   7.010   4.619   4.081 -1.8998  0.1611 -0.0995
16457SOL     OW50586   6.604   5.103   5.258 -0.6903  0.0261 -0.2875
16457SOL    HW150587   6.585   5.022   5.307 -1.8436  0.8038  0.6100
16457SOL    HW250588   6.524   5.154   5.266 -0.2749  0.9015 -1.5891
16458SOL     OW50589   5.661   4.369   3.627 -0.2248 -0.5333 -0.0003
16458SOL    HW150590   5.649   4.289   3.678 -2.3224  0.5840  1.3742
16458SOL    HW250591   5.660   4.440   3.692  1.5396  0.6791 -1.1820
16459SOL     OW50592   7.308   4.476   3.906  0.5849  0.4282  0.0881
16459SOL    HW150593   7.217   4.494   3.882  0.7892 -0.0945 -1.1704
16459SOL    HW250594   7.318   4.381   3.892  1.5368  0.6182 -0.6190
16460SOL     OW50595   6.090   4.734   5.091 -0.3428 -0.5272  0.2051
16460SOL    HW150596   6.081   4.639   5.085 -0.4645 -0.4827 -0.3802
16460SOL    HW250597   6.000   4.767   5.087 -0.3166 -0.3974  0.6407
16461SOL     OW50598   6.734   5.212   3.857  0.4849 -0.1566  0.0937
16461SOL    HW150599   6.670   5.260   3.911  0.0660 -0.6736  0.0623
16461SOL    HW250600   6.695   5.126   3.845  0.7551 -0.1727 -0.7236
16462SOL     OW50601   5.673   4.110   4.977  0.0632 -0.1782 -0.2987
16462SOL    HW150602   5.599   4.073   5.025  1.6245 -2.5566  0.4388
16462SOL    HW250603   5.633   4.165   4.910 -2.3978 -1.7471 -0.2406
16463SOL     OW50604   7.251   4.775   3.853  0.5114  0.4402  0.4724
16463SOL    HW150605   7.178   4.830   3.824  0.5490 -0.0915 -0.6952
16463SOL    HW250606   7.269   4.718   3.778  1.1695 -0.4412  1.2795
16464SOL     OW50607   5.780   5.458   4.311  0.1152 -0.7887 -0.2957
16464SOL    HW150608   5.715   5.468   4.241 -0.6909 -2.0151  0.2418
16464SOL    HW250609   5.770   5.537   4.364  1.0829  0.4003 -1.8142
16465SOL     OW50610   7.154   3.771   3.928  0.2088  0.1268 -0.2557
16465SOL    HW150611   7.072   3.723   3.917 -0.0287  0.2989  0.6701
16465SOL    HW250612   7.197   3.766   3.842 -0.9087  0.3039 -0.8459
16466SOL     OW50613   5.411   5.790   4.641 -0.1682  0.2039  0.6870
16466SOL    HW150614   5.372   5.726   4.582  4.4896 -1.5015 -1.0109
16466SOL    HW250615   5.378   5.874   4.611 -2.2353 -0.9973 -0.6346
16467SOL     OW50616   6.975   5.424   4.836  0.1612 -0.0421 -0.2437
16467SOL    HW150617   6.993   5.380   4.753  2.5268  1.6825 -0.7155
16467SOL    HW250618   7.042   5.391   4.896 -1.2011 -0.8710  0.8992
16468SOL     OW50619   5.836   4.200   3.973  0.3218  0.0657 -0.0313
16468SOL    HW150620   5.804   4.116   4.007 -1.2917  0.7526  0.2589
16468SOL    HW250621   5.767   4.262   3.997  0.8202  1.2166 -1.4829
16469SOL     OW50622   7.053   3.735   5.665  0.8593 -0.5735  0.2655
16469SOL    HW150623   7.049   3.646   5.630 -2.6456  0.0135 -1.2241
16469SOL    HW250624   6.975   3.742   5.720  0.8415  1.7027  0.0067
16470SOL     OW50625   6.093   3.474   4.051 -0.0787 -0.3893  0.4132
16470SOL    HW150626   6.074   3.554   4.002 -1.1603 -0.0912  1.2832
16470SOL    HW250627   6.114   3.505   4.140 -2.1686 -1.1221  1.2236
16471SOL     OW50628   6.529   3.722   5.457  0.1284  0.0132 -0.3623
16471SOL    HW150629   6.554   3.776   5.382 -1.2262  0.6591 -0.3898
16471SOL    HW250630   6.470   3.657   5.421  1.7261 -1.5332 -0.3186
16472SOL     OW50631   6.688   5.245   4.718 -0.4867 -0.0273 -0.1210
16472SOL    HW150632   6.611   5.300   4.733 -0.7984 -0.6577  0.7197
16472SOL    HW250633   6.761   5.306   4.716 -0.8630  0.4577  0.4605
16473SOL     OW50634   6.747   4.137   4.629 -0.0433  0.6108  0.2550
16473SOL    HW150635   6.826   4.185   4.656  1.1516 -1.0659 -0.1296
16473SOL    HW250636   6.730   4.077   4.702  0.2632 -0.4437 -0.5146
16474SOL     OW50637   5.945   4.562   4.293  0.4136 -0.4596 -0.2768
16474SOL    HW150638   5.851   4.559   4.276  0.3666 -0.4077 -0.0230
16474SOL    HW250639   5.966   4.655   4.297  0.5108 -0.4699 -0.5233
16475SOL     OW50640   6.487   4.408   4.475 -0.5059  0.7992 -0.8144
16475SOL    HW150641   6.441   4.333   4.513  0.5859  0.2492 -0.5195
16475SOL    HW250642   6.418   4.466   4.444 -1.4271  1.0071  1.5029
16476SOL     OW50643   5.958   3.758   3.934  0.4378 -0.0247  0.3360
16476SOL    HW150644   5.904   3.754   3.855  0.6238 -1.0942  0.2470
16476SOL    HW250645   5.923   3.832   3.984 -0.2107  0.1467 -0.3584
16477SOL     OW50646   7.146   4.182   3.402 -0.1764  0.0395 -0.0539
16477SOL    HW150647   7.080   4.123   3.367 -0.1656  0.6550 -1.1666
16477SOL    HW250648   7.163   4.244   3.331  0.1934  1.0621  0.8915
16478SOL     OW50649   5.507   3.785   3.891 -0.0699  0.0335  0.0040
16478SOL    HW150650   5.431   3.766   3.945 -0.7958 -0.1102 -1.0458
16478SOL    HW250651   5.493   3.875   3.860 -0.2937 -0.3187 -0.9484
16479SOL     OW50652   6.643   3.639   4.332  0.2465 -0.0371  0.1939
16479SOL    HW150653   6.632   3.712   4.393  0.8138 -0.5565  0.9498
16479SOL    HW250654   6.699   3.674   4.263 -1.3355  0.9023 -0.6711
16480SOL     OW50655   6.330   4.002   4.843 -0.0984  0.4500  0.4637
16480SOL    HW150656   6.261   3.945   4.808 -1.1200  2.6701 -1.3548
16480SOL    HW250657   6.310   4.089   4.809  1.8421  1.8146  2.4812
16481SOL     OW50658   6.688   5.553   4.471 -0.5175  0.4501 -0.4938
16481SOL    HW150659   6.670   5.603   4.391 -1.1975 -0.7099 -1.0990
16481SOL    HW250660   6.656   5.608   4.542 -0.2896  1.3196 -1.0500
16482SOL     OW50661   5.417   4.766   5.070  0.1880 -0.0976  0.0984
16482SOL    HW150662   5.363   4.827   5.121  1.2474 -1.7872  3.5248
16482SOL    HW250663   5.374   4.681   5.081  2.1672 -1.0580  0.9425
16483SOL     OW50664   6.754   5.174   4.204  0.2619 -0.3871  0.5109
16483SOL    HW150665   6.672   5.168   4.156  0.4189  1.4900 -0.0732
16483SOL    HW250666   6.731   5.220   4.285  1.0055  2.2287 -0.6235
16484SOL     OW50667   6.576   3.663   3.717  0.1122  0.1815  0.4815
16484SOL    HW150668   6.582   3.740   3.773  0.2467  1.0979 -0.7592
16484SOL    HW250669   6.613   3.691   3.634  0.7351 -1.4068  0.1813
16485SOL     OW50670   5.768   3.856   5.126  0.9788 -0.2733 -1.1379
16485SOL    HW150671   5.704   3.907   5.077  0.2946 -0.9714 -0.9899
16485SOL    HW250672   5.716   3.803   5.187  1.7990  0.4662  0.2639
16486SOL     OW50673   5.962   3.812   4.960  0.0995  0.3304  0.8055
16486SOL    HW150674   5.977   3.907   4.962 -2.3428  0.7959  0.6667
16486SOL    HW250675   5.919   3.794   5.044 -0.6661 -0.4051  0.2625
16487SOL     OW50676   6.278   4.242   4.543  0.0235  0.0761  0.0108
16487SOL    HW150677   6.191   4.283   4.546  0.1458  0.5457 -1.7164
16487SOL    HW250678   6.264   4.160   4.496  0.3195 -0.4379  0.7996
16488SOL     OW50679   6.734   3.314   4.250 -0.0084 -0.1998 -0.1296
16488SOL    HW150680   6.738   3.390   4.192  0.1508 -0.2432 -0.1787
16488SOL    HW250681   6.721   3.240   4.190 -0.8060 -0.1434 -0.0281
16489SOL     OW50682   6.751   4.539   4.544  0.1087  0.1808  0.4329
16489SOL    HW150683   6.671   4.485   4.541  0.1191  0.1721 -2.3025
16489SOL    HW250684   6.720   4.628   4.530  0.4625  0.3639  0.7963
16490SOL     OW50685   7.568   4.160   4.165 -0.2876 -0.3145  0.1814
16490SOL    HW150686   7.483   4.128   4.134 -0.0304 -0.7316 -0.1113
16490SOL    HW250687   7.552   4.188   4.255 -0.9551  0.5000 -0.1632
16491SOL     OW50688   7.572   4.912   3.753 -0.0556 -0.2059 -0.7107
16491SOL    HW150689   7.478   4.898   3.743 -0.2920  1.0856 -0.5366
16491SOL    HW250690   7.613   4.843   3.700 -1.0525 -1.7356  0.4252
16492SOL     OW50691   5.986   4.622   3.981 -0.4002  0.3362 -0.0212
16492SOL    HW150692   5.960   4.592   4.068  0.8155 -1.1849 -0.1544
16492SOL    HW250693   5.932   4.570   3.921 -0.4787  0.6381 -0.2179
16493SOL     OW50694   7.799   4.902   4.349  0.0150  0.0964 -0.0597
16493SOL    HW150695   7.754   4.819   4.334 -0.1444  0.1874 -0.0959
16493SOL    HW250696   7.851   4.917   4.271  1.7241 -1.0154  0.8089
16494SOL     OW50697   7.038   3.710   3.584 -0.0900  0.2269  0.0268
16494SOL    HW150698   7.019   3.639   3.522  0.8978 -0.0044 -0.0349
16494SOL    HW250699   6.986   3.784   3.553 -1.9908 -0.7556  0.7212
16495SOL     OW50700   6.099   4.045   3.636 -0.5468  0.2179 -0.6348
16495SOL    HW150701   6.008   4.015   3.633 -0.7050  0.7526 -2.4062
16495SOL    HW250702   6.097   4.123   3.690 -0.9896 -0.2126 -0.0128
16496SOL     OW50703   7.227   4.846   5.192  0.1267 -0.0964 -1.0999
16496SOL    HW150704   7.193   4.923   5.236  0.2251 -0.2523 -0.7451
16496SOL    HW250705   7.149   4.800   5.160  0.0534 -0.0023 -1.0561
16497SOL     OW50706   6.349   5.168   5.237  0.3212 -0.0467  0.4828
16497SOL    HW150707   6.267   5.209   5.265 -0.2211  1.4374 -2.8218
16497SOL    HW250708   6.323   5.092   5.187  0.9471  0.3493 -0.4728
16498SOL     OW50709   7.474   5.070   5.586  0.7788 -0.2538 -1.1440
16498SOL    HW150710   7.471   5.091   5.679 -0.3660 -1.6508 -0.8242
16498SOL    HW250711   7.384   5.042   5.565  0.5920  1.5289 -3.0475
16499SOL     OW50712   6.468   4.828   4.519  0.4554  0.5216  0.5355
16499SOL    HW150713   6.408   4.782   4.577 -2.1485  1.5104 -1.1887
16499SOL    HW250714   6.438   4.919   4.519  1.0487  0.7855 -1.4279
16500SOL     OW50715   7.146   4.537   4.413 -0.3885 -0.1270  0.0347
16500SOL    HW150716   7.080   4.468   4.419 -0.3670 -0.3684 -1.9244
16500SOL    HW250717   7.188   4.523   4.328 -1.1062  2.9396 -0.9569
16501SOL     OW50718   6.623   3.754   5.048  0.0944  0.0399  0.1925
16501SOL    HW150719   6.609   3.807   5.126 -0.2742  1.4436 -0.7930
16501SOL    HW250720   6.535   3.739   5.013  0.3368  0.4688 -0.6129
16502SOL     OW50721   6.466   4.524   3.744 -0.5191  0.1668 -0.1942
16502SOL    HW150722   6.458   4.575   3.824 -1.2647  0.3208 -0.3561
16502SOL    HW250723   6.400   4.456   3.752 -1.2320  0.7250 -1.0583
16503SOL     OW50724   5.867   4.818   5.380 -0.3870  0.2357 -0.0727
16503SOL    HW150725   5.838   4.737   5.338  1.2528 -0.1206 -0.5874
16503SOL    HW250726   5.869   4.883   5.310 -1.1754  0.5913  0.2265
16504SOL     OW50727   6.600   3.957   4.794 -0.5542  0.3777 -0.5486
16504SOL    HW150728   6.627   3.878   4.840  0.5846  0.0557 -1.7001
16504SOL    HW250729   6.510   3.973   4.822 -0.8436 -1.3866 -0.3935
16505SOL     OW50730   5.368   5.414   4.997  0.1138  0.0743 -0.1705
16505SOL    HW150731   5.319   5.359   5.058  0.9341  1.0842  1.4413
16505SOL    HW250732   5.316   5.412   4.916 -2.8657  1.4037  1.5514
16506SOL     OW50733   5.691   4.543   4.246 -0.9244 -0.0118 -0.0642
16506SOL    HW150734   5.660   4.493   4.321 -1.2072 -0.4558 -0.4733
16506SOL    HW250735   5.619   4.604   4.226 -2.0134 -1.7189 -1.6376
16507SOL     OW50736   6.081   3.939   4.712 -0.6274 -0.2905  0.0925
16507SOL    HW150737   6.009   3.928   4.650 -1.7628  1.2468  1.0809
16507SOL    HW250738   6.046   3.994   4.781  1.1842 -0.3899  1.1673
16508SOL     OW50739   6.911   4.394   4.384  0.3858  0.1078 -0.2172
16508SOL    HW150740   6.842   4.335   4.352  0.5954 -1.3090  1.8092
16508SOL    HW250741   6.865   4.454   4.443  0.8249 -0.6807  0.9418
16509SOL     OW50742   6.751   4.605   4.957 -0.5282 -0.3231  0.2482
16509SOL    HW150743   6.762   4.657   4.878 -1.7155 -2.2040 -1.2481
16509SOL    HW250744   6.708   4.665   5.019  0.4792  1.1998 -0.4660
16510SOL     OW50745   6.792   4.391   3.990  0.4969  0.1326 -0.1122
16510SOL    HW150746   6.820   4.481   4.008  2.0012 -0.8231  3.1042
16510SOL    HW250747   6.727   4.372   4.058  1.3485 -1.6373  0.2746
16511SOL     OW50748   5.439   5.085   4.826  0.3788 -0.5971 -0.6690
16511SOL    HW150749   5.373   5.150   4.805  0.9186  0.3718  0.5046
16511SOL    HW250750   5.407   5.004   4.785 -0.3284  0.3642 -2.0971
16512SOL     OW50751   5.681   4.211   5.247 -0.3212 -0.4492 -0.5952
16512SOL    HW150752   5.674   4.164   5.164 -0.4349 -0.4788 -0.5685
16512SOL    HW250753   5.596   4.199   5.289 -0.6748  0.5614 -0.9969
16513SOL     OW50754   7.077   4.124   5.098 -0.5742  0.1978  1.1492
16513SOL    HW150755   7.071   4.158   5.187 -1.1561  1.6444  0.5776
16513SOL    HW250756   7.142   4.054   5.104  1.0379  1.7028  2.2918
16514SOL     OW50757   6.336   3.922   5.523  0.0888  0.1594  0.0789
16514SOL    HW150758   6.303   3.849   5.471  0.2132  0.3250 -0.2362
16514SOL    HW250759   6.431   3.908   5.525  0.0440 -0.0848  0.6265
16515SOL     OW50760   5.827   3.823   5.499 -0.2610 -0.0040 -0.3963
16515SOL    HW150761   5.746   3.801   5.452  0.2732  0.4852 -1.6022
16515SOL    HW250762   5.820   3.916   5.518  0.1618  0.1237 -0.8314
16516SOL     OW50763   5.718   4.879   4.970  0.3176 -0.2201 -0.2110
16516SOL    HW150764   5.626   4.855   4.982  0.0112  1.7938  2.1453
16516SOL    HW250765   5.716   4.947   4.902 -0.0928  0.5125  0.5142
16517SOL     OW50766   6.113   4.521   4.506  0.0100  0.3285 -0.1948
16517SOL    HW150767   6.048   4.511   4.437  0.4453  3.4357 -1.2370
16517SOL    HW250768   6.196   4.530   4.459  1.1078 -2.2639  1.0490
16518SOL     OW50769   6.568   3.911   3.884  0.0022  0.5495 -0.2019
16518SOL    HW150770   6.642   3.929   3.941  0.5132  0.8378 -0.9467
16518SOL    HW250771   6.494   3.956   3.926  0.3633  0.7423  0.2338
16519SOL     OW50772   5.820   3.612   4.766  0.5419  1.0616  0.4515
16519SOL    HW150773   5.859   3.673   4.829 -2.6027  2.9498  0.7808
16519SOL    HW250774   5.762   3.558   4.819  0.8761 -0.0664 -0.3157
16520SOL     OW50775   5.242   4.926   5.214 -0.7308 -0.3142 -0.6314
16520SOL    HW150776   5.256   4.846   5.265  2.1879  0.7259  0.4437
16520SOL    HW250777   5.172   4.972   5.260 -0.5309 -0.9972  0.3860
16521SOL     OW50778   5.644   4.821   4.657  0.3743 -0.6454  0.1394
16521SOL    HW150779   5.623   4.807   4.565  1.2492 -1.2645  0.0109
16521SOL    HW250780   5.588   4.760   4.705 -0.9902  0.5617  0.1330
16522SOL     OW50781   7.462   4.776   5.311 -0.2963 -0.0036 -0.2091
16522SOL    HW150782   7.383   4.826   5.293  1.2159  2.9226  0.5930
16522SOL    HW250783   7.487   4.802   5.399  1.8409 -0.3927 -0.6428
16523SOL     OW50784   5.969   3.955   4.332 -0.8402 -0.1986  0.0812
16523SOL    HW150785   5.970   3.860   4.334 -0.5368 -0.1826  1.4993
16523SOL    HW250786   5.910   3.980   4.403  0.9945  0.6653  1.4109
16524SOL     OW50787   7.080   4.132   3.684 -0.3292  0.4093 -0.1266
16524SOL    HW150788   6.987   4.112   3.695 -0.1367  0.0379  0.9499
16524SOL    HW250789   7.102   4.099   3.596 -1.0073 -0.2933 -0.0369
16525SOL     OW50790   6.496   4.292   4.767 -0.3227 -0.3282 -0.5301
16525SOL    HW150791   6.440   4.310   4.691  0.3274 -0.9233 -1.1744
16525SOL    HW250792   6.585   4.289   4.731  0.0240 -0.3557  0.3086
16526SOL     OW50793   6.341   5.270   5.789 -0.0264 -0.7052  0.5230
16526SOL    HW150794   6.307   5.285   5.701  0.9296  0.8734  0.3787
16526SOL    HW250795   6.418   5.215   5.776  0.2543 -0.2745  0.3288
16527SOL     OW50796   7.377   5.090   5.124  0.0963 -0.2124 -0.0572
16527SOL    HW150797   7.345   5.003   5.098  0.5270 -0.5695  0.5942
16527SOL    HW250798   7.457   5.102   5.072  0.7130 -0.7384  0.7438
16528SOL     OW50799   6.064   4.302   5.498  0.1444  0.0520 -0.6438
16528SOL    HW150800   6.044   4.307   5.591 -0.6327  0.4600 -0.8211
16528SOL    HW250801   6.139   4.360   5.485  1.2815 -1.2190 -0.0227
16529SOL     OW50802   6.929   3.643   3.828 -0.0822 -0.5151 -0.3608
16529SOL    HW150803   6.970   3.681   3.750  0.6114 -0.5096  0.0054
16529SOL    HW250804   6.867   3.579   3.793 -0.8340  0.5153 -0.9628
16530SOL     OW50805   6.831   4.212   3.437 -0.7967  0.3458 -0.3330
16530SOL    HW150806   6.843   4.306   3.426 -1.3382  0.2949 -1.4544
16530SOL    HW250807   6.744   4.202   3.475 -1.4202  0.2527 -1.7033
16531SOL     OW50808   6.246   5.021   4.242 -0.7926  0.4101  0.6336
16531SOL    HW150809   6.154   5.035   4.220 -0.5894  2.7005  1.0233
16531SOL    HW250810   6.250   5.032   4.337 -0.2859 -0.9181  0.7899
16532SOL     OW50811   5.432   4.691   4.798 -0.0255 -0.3992  0.2020
16532SOL    HW150812   5.427   4.757   4.868  0.4646  1.5271 -1.5001
16532SOL    HW250813   5.348   4.697   4.753 -0.6045 -2.1075  0.9614
16533SOL     OW50814   5.593   4.326   4.429 -0.3645 -0.3242  0.1095
16533SOL    HW150815   5.557   4.367   4.508  0.3761  0.4269  0.0756
16533SOL    HW250816   5.517   4.288   4.385 -0.7102 -1.3563  1.5138
16534SOL     OW50817   6.576   3.913   5.287 -0.2278  0.1870 -0.3542
16534SOL    HW150818   6.520   3.960   5.225  1.7275  0.7861 -1.7495
16534SOL    HW250819   6.658   3.963   5.288  0.4369 -0.8398  1.3657
16535SOL     OW50820   6.875   3.862   5.044  0.0677 -0.2990 -0.1255
16535SOL    HW150821   6.837   3.909   5.117  0.7855  1.0845 -0.6040
16535SOL    HW250822   6.809   3.796   5.021 -0.8396  0.2695  0.7517
16536SOL     OW50823   5.063   4.903   3.619 -0.5148  0.6502 -0.2674
16536SOL    HW150824   5.009   4.867   3.548 -0.4319  1.0059 -0.5148
16536SOL    HW250825   5.026   4.864   3.699 -0.7969  0.4741 -0.4787
16537SOL     OW50826   5.652   5.104   4.487  0.6486 -0.4287  0.1598
16537SOL    HW150827   5.622   5.028   4.537  2.1428 -1.0218  0.2086
16537SOL    HW250828   5.572   5.154   4.469 -0.3463 -1.9082  0.2862
16538SOL     OW50829   6.359   5.309   4.429 -0.0665 -0.1468  0.5481
16538SOL    HW150830   6.336   5.221   4.458  1.4242 -0.1824  1.7682
16538SOL    HW250831   6.276   5.357   4.428 -0.8158 -1.4171  0.3687
16539SOL     OW50832   6.355   4.005   5.125  0.4525  0.1010 -0.0793
16539SOL    HW150833   6.329   3.913   5.123 -0.6069  0.3606  0.5759
16539SOL    HW250834   6.364   4.030   5.034  0.5690 -0.6071 -0.2674
16540SOL     OW50835   5.318   4.363   4.869  0.0483  0.0707 -0.4837
16540SOL    HW150836   5.299   4.321   4.953 -1.5435  2.8800  0.7196
16540SOL    HW250837   5.234   4.362   4.823  0.6730 -0.5267 -1.6529
16541SOL     OW50838   5.587   3.549   4.992 -0.0043 -0.2666  0.3532
16541SOL    HW150839   5.538   3.513   4.918  0.4270 -0.3772  0.1184
16541SOL    HW250840   5.536   3.625   5.019  1.0310  1.1809 -1.5543
16542SOL     OW50841   6.845   4.306   5.410  0.5417  0.4033  0.4322
16542SOL    HW150842   6.930   4.265   5.401 -0.1774 -0.7337 -2.0151
16542SOL    HW250843   6.864   4.395   5.440  2.3461 -0.5962  2.5739
16543SOL     OW50844   6.484   4.014   4.291  0.1767  0.9897 -0.3063
16543SOL    HW150845   6.414   4.025   4.355  1.5945  3.4797  0.9714
16543SOL    HW250846   6.439   3.994   4.209 -1.9697  1.5678  0.6651
16544SOL     OW50847   7.018   4.095   4.273 -0.5062  0.0556 -0.6399
16544SOL    HW150848   6.933   4.095   4.317 -0.3270  3.0127 -0.1474
16544SOL    HW250849   6.998   4.123   4.183  0.1033  3.0018  0.0573
16545SOL     OW50850   5.734   5.139   5.585 -0.3088  0.1283  0.6435
16545SOL    HW150851   5.746   5.164   5.494 -1.9710 -0.0456  0.3454
16545SOL    HW250852   5.699   5.049   5.581  3.0541 -1.3782  1.5968
16546SOL     OW50853   6.311   3.735   5.063  0.1771 -0.5041  0.1106
16546SOL    HW150854   6.275   3.704   4.980 -0.5865 -0.1860  0.3065
16546SOL    HW250855   6.311   3.658   5.120  0.7825 -0.7424 -0.2022
16547SOL     OW50856   6.727   5.131   5.010 -0.4565 -0.3373 -0.2371
16547SOL    HW150857   6.678   5.105   5.088 -1.1635  0.7620 -0.2879
16547SOL    HW250858   6.680   5.207   4.976  1.7755  1.3468  0.2204
16548SOL     OW50859   6.266   3.781   4.088 -0.1277  0.2800  0.0155
16548SOL    HW150860   6.183   3.809   4.128  0.0082 -0.2714  0.6965
16548SOL    HW250861   6.251   3.791   3.994 -1.5017 -1.2061  0.0337
16549SOL     OW50862   5.527   4.955   5.307  0.2197 -0.3293  0.1950
16549SOL    HW150863   5.539   4.866   5.339  1.0726 -0.1801  0.2984
16549SOL    HW250864   5.448   4.950   5.253  0.2179 -1.1287  0.2603
16550SOL     OW50865   6.445   4.734   4.883 -0.0705  0.2902 -0.1387
16550SOL    HW150866   6.528   4.768   4.849 -0.3524  1.5017  0.3317
16550SOL    HW250867   6.380   4.799   4.855 -0.4288  0.9235  1.9664
16551SOL     OW50868   6.606   4.389   4.200 -0.0710 -0.1161  0.1432
16551SOL    HW150869   6.553   4.452   4.150  1.3569  0.6708 -0.4142
16551SOL    HW250870   6.586   4.408   4.292 -1.9897 -0.9430 -0.0344
16552SOL     OW50871   7.235   5.288   4.971 -0.6176  0.4003 -0.0209
16552SOL    HW150872   7.244   5.259   4.880 -1.0824  0.1017  0.0237
16552SOL    HW250873   7.248   5.209   5.023 -2.4768  0.1084  0.0750
16553SOL     OW50874   7.174   5.017   4.851  0.2485  0.8940 -0.5677
16553SOL    HW150875   7.088   5.047   4.882  0.2600  2.1312 -1.6449
16553SOL    HW250876   7.167   5.020   4.755  0.8752 -0.8520 -0.7003
16554SOL     OW50877   5.223   4.905   4.840  0.4479 -0.0508 -0.1339
16554SOL    HW150878   5.167   4.894   4.916  0.7995 -0.6586  0.0473
16554SOL    HW250879   5.165   4.897   4.765  0.0170  1.0438  0.0681
16555SOL     OW50880   6.272   4.953   5.060 -0.2770  0.5724 -0.3414
16555SOL    HW150881   6.285   4.954   4.965  0.1443  1.8351 -0.2946
16555SOL    HW250882   6.221   4.874   5.077  0.8386 -0.4303 -1.4566
16556SOL     OW50883   7.325   4.032   4.073 -0.2752 -0.3774  0.0326
16556SOL    HW150884   7.281   3.969   4.016 -0.3703 -2.2711  2.0920
16556SOL    HW250885   7.253   4.079   4.116 -0.3002 -1.5384  1.3144
16557SOL     OW50886   6.664   4.777   4.338 -0.2425 -0.3472 -0.0976
16557SOL    HW150887   6.752   4.800   4.367 -0.0201 -2.0117  0.7141
16557SOL    HW250888   6.608   4.798   4.413 -0.0196 -2.3450  0.6970
16558SOL     OW50889   5.471   5.218   5.359 -0.0522 -0.7151  0.2831
16558SOL    HW150890   5.428   5.236   5.275 -0.6269  1.4941  0.9974
16558SOL    HW250891   5.464   5.123   5.369 -1.6564 -0.8114 -1.2846
16559SOL     OW50892   7.070   4.427   4.129  0.5868 -0.0657 -0.4779
16559SOL    HW150893   7.141   4.364   4.135  2.3751  1.8729 -0.3565
16559SOL    HW250894   7.022   4.416   4.211  0.6415 -1.4484 -0.5981
16560SOL     OW50895   5.874   4.448   4.986 -0.1755  0.0233 -0.1881
16560SOL    HW150896   5.783   4.433   5.013 -0.2954 -2.0755 -1.5230
16560SOL    HW250897   5.866   4.493   4.902  0.1222  2.4481  1.0128
16561SOL     OW50898   5.941   5.162   3.915  0.2119  0.2237 -0.3673
16561SOL    HW150899   5.890   5.237   3.884  0.1003  0.6350  0.7584
16561SOL    HW250900   6.030   5.196   3.925 -0.0487  0.5458  1.1871
16562SOL     OW50901   7.078   5.283   4.615  0.4499 -0.6843  0.1057
16562SOL    HW150902   7.057   5.200   4.574  0.8655 -0.8929  0.3065
16562SOL    HW250903   7.168   5.272   4.647  0.3650 -0.3020  0.4862
16563SOL     OW50904   6.962   4.146   3.998 -0.5688  0.1757 -0.2927
16563SOL    HW150905   6.931   4.236   3.985  0.9179  1.0060  1.4723
16563SOL    HW250906   6.974   4.111   3.910  0.0241  2.1587 -1.0380
16564SOL     OW50907   5.553   3.730   4.452 -0.0387 -0.2037  0.0767
16564SOL    HW150908   5.491   3.801   4.467 -1.7094 -1.6199  0.1469
16564SOL    HW250909   5.607   3.760   4.378 -0.9007  1.0029 -0.0761
16565SOL     OW50910   6.646   4.947   3.869  0.3279 -0.5247 -0.4589
16565SOL    HW150911   6.620   4.856   3.855 -1.9957 -0.4857  2.5605
16565SOL    HW250912   6.589   4.977   3.939  1.9429  2.8937 -0.4380
16566SOL     OW50913   6.266   4.930   4.787 -0.2134  0.2835  0.3506
16566SOL    HW150914   6.234   4.866   4.724  0.3158 -0.4415  0.8019
16566SOL    HW250915   6.190   4.985   4.807 -1.0242 -0.9984  0.9171
16567SOL     OW50916   6.305   4.520   4.317 -0.0603  0.4933 -0.1473
16567SOL    HW150917   6.339   4.596   4.271  0.9304 -0.4924 -1.1077
16567SOL    HW250918   6.240   4.483   4.258 -0.3940  0.4673  0.2290
16568SOL     OW50919   6.880   4.892   3.718 -0.1069  0.0381 -0.1802
16568SOL    HW150920   6.955   4.943   3.746 -1.3816  2.0784 -0.2627
16568SOL    HW250921   6.808   4.922   3.774 -1.4588  0.1887 -1.8815
16569SOL     OW50922   5.894   5.002   5.175  0.2509 -0.4385 -0.0155
16569SOL    HW150923   5.976   5.025   5.131  2.0480 -2.2006  2.1378
16569SOL    HW250924   5.850   4.942   5.114  1.7917 -1.3941 -0.2456
16570SOL     OW50925   6.915   4.446   4.796  0.1538  0.1522 -0.1625
16570SOL    HW150926   6.900   4.476   4.706  0.8188  1.6647  0.2009
16570SOL    HW250927   6.831   4.459   4.840  0.2984  1.0938 -0.1375
16571SOL     OW50928   6.162   4.790   4.576 -0.6729 -0.2911 -0.0342
16571SOL    HW150929   6.131   4.700   4.574 -1.6749 -0.0496  1.8904
16571SOL    HW250930   6.122   4.831   4.499  0.9524 -1.7745 -1.7593
16572SOL     OW50931   6.244   3.978   4.443 -0.2573  0.1978 -0.1521
16572SOL    HW150932   6.263   3.899   4.494 -0.3751  0.7421  0.7495
16572SOL    HW250933   6.159   3.960   4.403 -0.6073  0.1289  0.5998
16573SOL     OW50934   5.976   5.001   4.149  0.5378 -0.4492 -0.3258
16573SOL    HW150935   5.983   5.039   4.061 -0.1957  0.3514 -0.0628
16573SOL    HW250936   5.882   4.993   4.163  0.6233  0.1364  0.6672
16574SOL     OW50937   7.329   3.754   5.468  0.7715  0.1824  0.3444
16574SOL    HW150938   7.251   3.807   5.449  0.0232 -0.4916  1.4103
16574SOL    HW250939   7.352   3.778   5.558  0.5082 -1.1557  0.7853
16575SOL     OW50940   6.020   4.824   4.337 -0.0044 -0.0105  0.5966
16575SOL    HW150941   6.034   4.867   4.252 -1.4597  0.0843  0.3829
16575SOL    HW250942   5.967   4.886   4.387  0.7676 -0.1099  1.5546
16576SOL     OW50943   5.724   4.616   5.248 -0.5906 -0.2628  0.1593
16576SOL    HW150944   5.653   4.646   5.305 -1.6812 -0.6455 -0.9346
16576SOL    HW250945   5.679   4.587   5.168  0.7748 -0.9443 -0.3913
16577SOL     OW50946   6.358   3.530   5.293  0.4802  0.0167 -0.0376
16577SOL    HW150947   6.275   3.507   5.252 -0.6313  1.9874  0.9381
16577SOL    HW250948   6.387   3.450   5.336 -0.6588 -0.8411 -0.8223
16578SOL     OW50949   5.664   4.123   3.762 -0.1512 -0.4421 -0.0508
16578SOL    HW150950   5.744   4.118   3.814  0.0565  1.6586 -0.0800
16578SOL    HW250951   5.594   4.106   3.824  0.2375 -1.1624  0.2095
16579SOL     OW50952   7.210   4.760   4.878  0.5249  0.1263  0.2120
16579SOL    HW150953   7.198   4.854   4.890 -1.2198  0.0049 -0.3128
16579SOL    HW250954   7.261   4.753   4.798  1.2378  0.6316  0.6096
16580SOL     OW50955   5.796   3.953   4.103 -0.1723 -0.2808  0.0179
16580SOL    HW150956   5.857   3.981   4.171 -1.3845  3.8112 -0.2904
16580SOL    HW250957   5.717   3.927   4.151  0.4660 -1.8569  0.2647
16581SOL     OW50958   6.719   4.696   4.090 -0.2602 -0.2923  0.4634
16581SOL    HW150959   6.804   4.738   4.086 -0.5646  0.2518 -1.3196
16581SOL    HW250960   6.687   4.715   4.178  0.8476  0.7258  0.6768
16582SOL     OW50961   6.253   4.302   4.936 -0.5137 -0.3476 -0.1907
16582SOL    HW150962   6.342   4.302   4.900 -0.4166  2.2595 -0.1823
16582SOL    HW250963   6.211   4.378   4.895 -2.2911 -0.7259  0.8455
16583SOL     OW50964   6.913   5.084   4.839 -0.7922 -0.5301  0.3663
16583SOL    HW150965   6.844   5.101   4.902 -1.3763 -0.3684 -0.3003
16583SOL    HW250966   6.893   5.142   4.765 -0.5836 -1.2784 -0.2940
16584SOL     OW50967   5.995   3.972   5.762 -0.1145  0.4067  0.9547
16584SOL    HW150968   5.954   3.986   5.847 -0.6042  0.8206  0.6588
16584SOL    HW250969   5.933   4.010   5.699  0.2684  0.1635  0.4193
16585SOL     OW50970   6.928   4.552   5.514  0.4595 -0.5501  0.1851
16585SOL    HW150971   7.013   4.563   5.558  0.6881  0.4280 -0.4510
16585SOL    HW250972   6.864   4.558   5.585  0.8996 -0.7490  0.6070
16586SOL     OW50973   5.671   5.229   5.077 -0.1243 -0.0471 -0.5140
16586SOL    HW150974   5.598   5.269   5.030 -0.8635  0.9912  1.4156
16586SOL    HW250975   5.644   5.138   5.091 -0.6360  0.0899 -0.6128
16587SOL     OW50976   7.409   4.756   4.700 -0.3875  0.0960 -0.5202
16587SOL    HW150977   7.360   4.756   4.618 -0.3511  1.7490 -0.5729
16587SOL    HW250978   7.501   4.754   4.674 -0.3835 -0.6054 -0.4751
16588SOL     OW50979   6.792   3.716   4.099  0.4698  0.0134 -0.1091
16588SOL    HW150980   6.848   3.693   4.025  0.4330 -0.7243  0.0803
16588SOL    HW250981   6.798   3.811   4.105  2.5691 -0.1073  0.5690
16589SOL     OW50982   6.050   4.262   3.798 -0.0040 -0.4602  0.2608
16589SOL    HW150983   6.007   4.335   3.753  1.1592  0.5244  0.6820
16589SOL    HW250984   5.992   4.243   3.872 -0.9224 -0.7855 -0.5089
16590SOL     OW50985   7.397   3.835   5.723  0.1136 -0.2738  0.0588
16590SOL    HW150986   7.357   3.790   5.798  0.0783 -2.7880 -1.3708
16590SOL    HW250987   7.379   3.927   5.740 -1.6287 -0.8792  2.1571
16591SOL     OW50988   7.508   4.723   4.998 -0.4307 -0.1566 -0.1270
16591SOL    HW150989   7.465   4.721   4.912 -1.9170 -0.1647  0.5869
16591SOL    HW250990   7.437   4.733   5.061  0.8149  2.6510  0.9937
16592SOL     OW50991   6.024   4.803   3.794  0.0696 -0.4868  0.5622
16592SOL    HW150992   5.957   4.803   3.726  1.3757 -0.8019 -0.7759
16592SOL    HW250993   5.987   4.750   3.865 -0.7704 -1.3299 -0.4776
16593SOL     OW50994   6.565   5.676   4.691  0.2541 -0.5117  0.1951
16593SOL    HW150995   6.513   5.596   4.695  1.9854 -1.7637 -1.0675
16593SOL    HW250996   6.626   5.668   4.764 -0.7865  0.6053  1.2272
16594SOL     OW50997   6.135   4.524   4.821  0.3854  0.1157  0.0220
16594SOL    HW150998   6.105   4.609   4.853  1.9044  1.5102 -1.9622
16594SOL    HW250999   6.100   4.517   4.732  0.2207 -1.3819  0.1797
16595SOL     OW51000   6.491   4.714   3.930  0.2847 -0.0126 -0.0102
16595SOL    HW151001   6.427   4.725   4.000  0.1535 -1.0034  0.0367
16595SOL    HW251002   6.575   4.707   3.975  0.1887 -0.7601  0.0736
16596SOL     OW51003   7.316   5.671   5.105 -0.2302  0.0204  0.7146
16596SOL    HW151004   7.234   5.621   5.107 -0.8250  0.9293 -0.2137
16596SOL    HW251005   7.354   5.652   5.020 -0.9884  1.9152 -0.1059
16597SOL     OW51006   6.076   4.846   5.552 -0.1297  0.4731  0.2351
16597SOL    HW151007   6.008   4.824   5.488  0.6676 -0.9981 -0.1415
16597SOL    HW251008   6.038   4.822   5.636 -0.3441  0.3077  0.0938
16598SOL     OW51009   5.564   4.830   4.387  0.5278 -0.1373 -0.0173
16598SOL    HW151010   5.478   4.856   4.421  0.2422 -0.6849 -0.3104
16598SOL    HW251011   5.544   4.777   4.310  1.0843 -1.1676  0.5186
16599SOL     OW51012   6.359   4.782   5.570 -0.2538  0.2227 -0.5786
16599SOL    HW151013   6.263   4.778   5.577 -0.3616  1.3019 -1.3287
16599SOL    HW251014   6.389   4.780   5.661 -1.1258  2.6201 -0.1638
16600SOL     OW51015   6.927   4.095   4.868  0.0100 -0.3117  0.4478
16600SOL    HW151016   6.887   4.010   4.883 -0.0269 -0.2450  0.7257
16600SOL    HW251017   6.942   4.131   4.955 -0.2487  0.0914  0.3288
16601SOL     OW51018   5.501   4.026   4.223 -0.4000 -0.4272 -0.1213
16601SOL    HW151019   5.493   4.028   4.128 -0.7076  3.0471 -0.1327
16601SOL    HW251020   5.433   4.085   4.255  0.6275 -0.3529  2.1694
16602SOL     OW51021   7.403   5.631   4.861 -0.6802 -0.0634  0.4811
16602SOL    HW151022   7.402   5.579   4.780  0.0447  1.2266 -0.4009
16602SOL    HW251023   7.487   5.610   4.902 -0.0792  0.8894 -0.2258
16603SOL     OW51024   5.767   4.481   4.721 -0.7764  0.0757  0.1390
16603SOL    HW151025   5.797   4.411   4.663 -1.4895  0.3668 -0.6107
16603SOL    HW251026   5.672   4.482   4.710 -0.6966  2.0169 -0.9267
16604SOL     OW51027   5.712   5.023   4.235  0.2729  0.1802  0.0274
16604SOL    HW151028   5.687   4.934   4.260  0.8579 -0.4125 -1.4040
16604SOL    HW251029   5.715   5.071   4.317 -0.9380 -0.8897  0.7340
16605SOL     OW51030   6.782   3.730   4.757 -0.3814  0.5515 -0.2629
16605SOL    HW151031   6.848   3.666   4.729 -0.8460 -0.0250 -0.0417
16605SOL    HW251032   6.750   3.768   4.675 -2.2420 -1.6293 -0.6227
16606SOL     OW51033   6.305   3.745   4.618  0.2439 -0.6451  0.2428
16606SOL    HW151034   6.393   3.728   4.652 -0.4093 -2.4350  1.1570
16606SOL    HW251035   6.250   3.753   4.696 -0.2267  2.0146 -0.2485
16607SOL     OW51036   6.335   4.258   3.778  0.0036  0.5089 -0.3526
16607SOL    HW151037   6.240   4.256   3.789  0.2261  2.2011  3.6819
16607SOL    HW251038   6.368   4.199   3.846  1.9329 -1.3491 -2.7269
16608SOL     OW51039   6.446   5.413   4.688  0.7211 -0.1079 -0.4910
16608SOL    HW151040   6.436   5.401   4.593  0.3979 -1.8469 -0.2718
16608SOL    HW251041   6.360   5.391   4.724  0.2818  2.2980  0.1221
16609SOL     OW51042   7.003   3.491   3.440  0.1412  0.6700  0.5678
16609SOL    HW151043   6.921   3.446   3.457  0.8342 -0.0383  2.2831
16609SOL    HW251044   7.053   3.430   3.385 -0.4916  1.1478 -0.5673
16610SOL     OW51045   6.827   4.057   3.769 -0.1377 -0.0271  0.2964
16610SOL    HW151046   6.778   4.139   3.761  0.1009  0.1694  0.7722
16610SOL    HW251047   6.760   3.989   3.766 -0.3854  0.2114  0.3441
16611SOL     OW51048   7.076   3.880   4.408 -0.2670 -0.3554  0.4136
16611SOL    HW151049   7.048   3.944   4.342 -2.0132 -0.6269  0.8485
16611SOL    HW251050   7.047   3.796   4.373 -0.0149 -0.6585  0.9209
16612SOL     OW51051   5.587   4.795   3.911 -0.2228 -0.8380  0.3251
16612SOL    HW151052   5.634   4.878   3.919  0.8494 -1.3508 -0.4315
16612SOL    HW251053   5.549   4.781   3.998 -1.4998  1.0523  0.1429
16613SOL     OW51054   6.243   4.957   3.876  0.0471  0.2469  0.1375
16613SOL    HW151055   6.304   4.929   3.808 -0.0650  0.7666 -0.1834
16613SOL    HW251056   6.166   4.902   3.864 -0.5105  1.2407 -1.0353
16614SOL     OW51057   5.582   3.837   5.380 -0.0625  0.4402  0.6736
16614SOL    HW151058   5.519   3.905   5.354 -1.4732 -0.7243  0.9280
16614SOL    HW251059   5.528   3.764   5.409  1.3804 -1.4010 -1.0115
16615SOL     OW51060   5.959   3.506   6.487 -0.1823 -0.6303 -0.5677
16615SOL    HW151061   5.995   3.590   6.459  1.1233 -1.1876 -0.6063
16615SOL    HW251062   5.908   3.475   6.411  1.0365 -0.8276 -1.3223
16616SOL     OW51063   5.512   3.937   6.319 -0.2628 -0.8076 -0.0520
16616SOL    HW151064   5.476   3.998   6.384  1.4507 -1.2741  1.4279
16616SOL    HW251065   5.474   3.853   6.342  2.0419 -1.4230  1.9071
16617SOL     OW51066   6.076   4.853   7.151  0.0376 -0.1371 -0.0331
16617SOL    HW151067   6.045   4.931   7.104 -1.7126  0.4754  1.9794
16617SOL    HW251068   6.005   4.833   7.212  1.5348 -1.8274  1.2279
16618SOL     OW51069   7.061   5.497   6.118  0.2277  0.2173 -0.0488
16618SOL    HW151070   7.006   5.544   6.055 -2.5394 -2.3850  0.1954
16618SOL    HW251071   7.049   5.545   6.200 -0.7029  0.4119 -0.2837
16619SOL     OW51072   6.805   4.327   6.124  0.1750 -0.5885 -0.2277
16619SOL    HW151073   6.767   4.290   6.044  1.9843  0.0947 -1.4579
16619SOL    HW251074   6.881   4.273   6.141 -0.0000 -0.5023  0.8559
16620SOL     OW51075   7.431   4.486   5.969  0.2969 -0.2267 -0.1271
16620SOL    HW151076   7.391   4.442   5.894 -0.3310  1.6258 -0.9340
16620SOL    HW251077   7.377   4.460   6.043 -0.4033 -0.3661 -0.6708
16621SOL     OW51078   6.321   4.801   6.958 -0.1263 -0.1238  0.4375
16621SOL    HW151079   6.247   4.860   6.949 -1.5884 -1.4938  2.5759
16621SOL    HW251080   6.342   4.775   6.868 -1.0196  1.6762 -0.3500
16622SOL     OW51081   6.065   4.459   7.647  0.5249  0.4583 -0.3328
16622SOL    HW151082   6.050   4.368   7.621  0.8716  0.6118 -1.0986
16622SOL    HW251083   6.159   4.473   7.634  0.4802  0.9161 -0.1839
16623SOL     OW51084   6.223   4.498   6.152 -0.1404 -0.2477 -0.0459
16623SOL    HW151085   6.308   4.494   6.196 -0.3896 -3.6309  0.3668
16623SOL    HW251086   6.159   4.496   6.224 -0.5599 -0.2901 -0.4151
16624SOL     OW51087   5.995   4.813   7.761 -0.0726 -0.0260  0.6052
16624SOL    HW151088   6.072   4.771   7.723 -0.2379  0.4223 -0.2641
16624SOL    HW251089   6.027   4.896   7.796  0.0198 -0.2956  1.1721
16625SOL     OW51090   5.548   5.134   6.528 -0.6525 -0.0858 -0.2315
16625SOL    HW151091   5.481   5.070   6.551 -0.3972  0.4014  2.0937
16625SOL    HW251092   5.571   5.114   6.437 -3.4189 -0.6993 -0.8639
16626SOL     OW51093   6.936   5.234   6.742 -0.2130 -0.1176 -0.3497
16626SOL    HW151094   6.970   5.154   6.702 -2.4434 -0.8295 -0.9641
16626SOL    HW251095   6.995   5.251   6.816  1.2268 -1.4165 -1.1358
16627SOL     OW51096   5.983   4.240   7.486 -0.2608 -0.7237 -0.7410
16627SOL    HW151097   6.004   4.278   7.400 -2.2017  1.1781 -0.4887
16627SOL    HW251098   5.890   4.216   7.479 -1.1912  1.7055  1.4561
16628SOL     OW51099   6.580   3.713   6.229  0.3028 -0.0286  0.2692
16628SOL    HW151100   6.666   3.714   6.186 -0.1165  3.6141 -0.8280
16628SOL    HW251101   6.523   3.762   6.170 -2.2772 -1.2538  1.5699
16629SOL     OW51102   5.922   5.246   6.290  0.1810  0.4026  0.1761
16629SOL    HW151103   5.921   5.207   6.377 -0.3611  2.5287  1.1826
16629SOL    HW251104   6.015   5.243   6.264  0.1600 -1.4670  0.1959
16630SOL     OW51105   6.853   5.094   7.088  0.0901 -0.0179 -0.2374
16630SOL    HW151106   6.763   5.076   7.059 -0.6767 -0.0315  1.9804
16630SOL    HW251107   6.867   5.033   7.161  1.3822  0.9729  0.3704
16631SOL     OW51108   5.876   4.766   6.149  0.0104  0.3343 -0.0896
16631SOL    HW151109   5.898   4.846   6.101  1.7189 -0.4306 -0.6657
16631SOL    HW251110   5.781   4.767   6.154 -0.2266  0.8396 -2.8844
16632SOL     OW51111   5.944   4.846   6.600 -0.4286  0.4684  0.2255
16632SOL    HW151112   5.958   4.805   6.685 -0.6381  1.1950  0.6213
16632SOL    HW251113   5.860   4.812   6.571  0.5764 -1.3792 -0.6569
16633SOL     OW51114   6.178   5.370   7.028 -0.5958 -0.0155  0.2577
16633SOL    HW151115   6.220   5.288   7.001  0.6502  0.6361  0.1258
16633SOL    HW251116   6.087   5.360   7.001 -0.1714 -0.8141 -0.9888
16634SOL     OW51117   6.258   4.482   5.504 -0.3613  1.0106  0.1366
16634SOL    HW151118   6.277   4.474   5.598  0.8730 -0.6286 -0.1935
16634SOL    HW251119   6.221   4.569   5.494 -0.2140  1.3438  2.1002
16635SOL     OW51120   7.242   4.189   7.138 -0.1853 -0.1552  0.3727
16635SOL    HW151121   7.186   4.128   7.186 -0.5005  0.4911  0.8551
16635SOL    HW251122   7.317   4.137   7.111 -0.7483 -0.9092  0.2055
16636SOL     OW51123   5.453   4.085   5.974 -0.6896  0.2426 -0.1722
16636SOL    HW151124   5.378   4.038   6.011 -0.0578  0.2074  1.0874
16636SOL    HW251125   5.452   4.169   6.019  0.2910  0.0749  0.1631
16637SOL     OW51126   7.313   5.474   5.938 -0.1575 -0.1276 -0.0736
16637SOL    HW151127   7.323   5.569   5.937 -0.5341  0.1899  4.3111
16637SOL    HW251128   7.222   5.460   5.965 -0.1640 -1.7712 -0.8182
16638SOL     OW51129   5.701   4.761   5.856  0.4970  0.0174 -0.1425
16638SOL    HW151130   5.705   4.796   5.767  0.0434  1.0130  0.2123
16638SOL    HW251131   5.659   4.675   5.847 -0.8438  0.7155 -0.7248
16639SOL     OW51132   7.304   4.807   6.262 -0.2062 -0.4839 -0.0176
16639SOL    HW151133   7.311   4.902   6.252  0.2066 -0.1639  2.5381
16639SOL    HW251134   7.339   4.772   6.180  0.2093  1.5631 -0.7856
16640SOL     OW51135   7.167   4.575   5.651  0.3087  0.3350 -0.0955
16640SOL    HW151136   7.170   4.637   5.724  0.7058 -0.0634  0.2271
16640SOL    HW251137   7.201   4.494   5.686  0.2992  0.0761 -0.6682
16641SOL     OW51138   5.509   4.402   7.393 -0.2393 -0.4835  0.6294
16641SOL    HW151139   5.480   4.325   7.343  1.0057  0.3013 -1.4177
16641SOL    HW251140   5.487   4.477   7.338 -2.4815  0.8485  3.0781
16642SOL     OW51141   6.444   4.949   6.252  0.3006 -0.1241 -0.1586
16642SOL    HW151142   6.472   4.973   6.340 -0.4912 -0.4327  0.1846
16642SOL    HW251143   6.362   4.902   6.265 -0.6337  1.1450 -1.1598
16643SOL     OW51144   6.554   4.703   7.062  0.3082  0.2929  0.1887
16643SOL    HW151145   6.599   4.758   6.998 -0.8015  1.7564  0.5948
16643SOL    HW251146   6.461   4.715   7.042  0.0124 -1.4327  0.3428
16644SOL     OW51147   6.168   3.776   6.426 -0.2288  0.0517  0.3429
16644SOL    HW151148   6.121   3.837   6.483 -0.2029  0.6637 -0.2735
16644SOL    HW251149   6.169   3.820   6.341 -1.4031 -1.4056 -0.4741
16645SOL     OW51150   6.096   4.195   6.934 -0.2284  0.1939  0.1459
16645SOL    HW151151   6.032   4.210   7.003 -0.8781  0.3842 -0.4777
16645SOL    HW251152   6.131   4.108   6.952 -0.4470  0.2112  0.6670
16646SOL     OW51153   7.090   4.222   5.366  0.1866  0.3257 -0.5992
16646SOL    HW151154   7.122   4.152   5.423 -1.9482 -0.1779  0.0856
16646SOL    HW251155   7.142   4.299   5.390  3.4271 -1.1644 -2.1720
16647SOL     OW51156   6.952   5.364   7.086 -0.2449 -0.4381 -0.0963
16647SOL    HW151157   6.914   5.277   7.088 -2.7279  0.5717  2.3488
16647SOL    HW251158   6.877   5.423   7.086  1.3208  1.7022  1.7970
16648SOL     OW51159   5.804   3.889   7.243  0.4588  0.3750 -0.1765
16648SOL    HW151160   5.786   3.847   7.327  2.4062 -1.1969 -0.4710
16648SOL    HW251161   5.720   3.926   7.215 -0.7534 -1.1361  1.3294
16649SOL     OW51162   7.074   5.035   6.195 -0.4779 -0.0519  0.8308
16649SOL    HW151163   7.016   5.050   6.269  0.1157  0.2146  1.2496
16649SOL    HW251164   7.051   4.948   6.163 -1.1338  0.0686  0.9576
16650SOL     OW51165   7.126   6.010   6.404  0.0829  0.0628 -0.7776
16650SOL    HW151166   7.212   5.966   6.405 -0.8168 -1.8001 -0.1168
16650SOL    HW251167   7.065   5.942   6.431 -1.3910  1.8667  0.6824
16651SOL     OW51168   5.974   4.249   6.126 -0.3487  0.1200  0.4862
16651SOL    HW151169   6.033   4.316   6.091 -0.0416 -0.7746 -0.8045
16651SOL    HW251170   5.900   4.297   6.161  0.3141  1.1818  0.4570
16652SOL     OW51171   6.582   4.342   6.639 -1.0499  0.0057 -0.1369
16652SOL    HW151172   6.500   4.332   6.590 -0.6436 -0.5514 -0.7283
16652SOL    HW251173   6.626   4.416   6.598  0.6933 -2.2824 -2.7414
16653SOL     OW51174   6.766   5.397   6.220 -0.1582 -0.1058 -0.2137
16653SOL    HW151175   6.691   5.419   6.166 -0.8747  0.0835  0.8275
16653SOL    HW251176   6.840   5.438   6.176 -0.9141  1.1320 -0.3788
16654SOL     OW51177   6.149   4.583   7.159 -0.3988  0.4618  0.4384
16654SOL    HW151178   6.218   4.557   7.097 -0.0702 -0.0749  1.0149
16654SOL    HW251179   6.129   4.674   7.136  0.3828  0.5713  0.1457
16655SOL     OW51180   6.992   4.172   6.883 -0.3862 -0.7128 -0.1950
16655SOL    HW151181   6.928   4.234   6.918  0.3080 -0.3655  0.4873
16655SOL    HW251182   7.031   4.131   6.961  0.6966 -0.4199 -0.5565
16656SOL     OW51183   6.539   4.617   7.656  0.0771  0.7156  0.4361
16656SOL    HW151184   6.583   4.552   7.602 -0.0584  1.2622 -0.3586
16656SOL    HW251185   6.471   4.653   7.599 -0.2261  1.1396  1.0523
16657SOL     OW51186   6.491   4.321   6.909 -0.6538  0.1908  0.7171
16657SOL    HW151187   6.565   4.333   6.968  0.1626 -1.9166  0.2268
16657SOL    HW251188   6.531   4.308   6.823 -1.6350  0.0114  0.2776
16658SOL     OW51189   6.548   4.338   5.763  0.0685  0.2395 -0.6440
16658SOL    HW151190   6.499   4.260   5.790  3.2435 -1.7287 -0.0001
16658SOL    HW251191   6.554   4.329   5.667 -1.4867  0.9912 -0.8401
16659SOL     OW51192   5.537   4.579   6.336 -0.0412 -0.4322  0.0225
16659SOL    HW151193   5.494   4.633   6.269  2.2765 -0.2486 -1.4067
16659SOL    HW251194   5.586   4.642   6.389  1.2972 -0.9397 -0.5890
16660SOL     OW51195   5.594   5.734   6.776  0.0531  0.0842 -0.2693
16660SOL    HW151196   5.580   5.816   6.728 -1.9367 -0.7732 -1.2963
16660SOL    HW251197   5.522   5.731   6.839  0.3070 -0.7159 -0.0150
16661SOL     OW51198   6.096   3.727   5.441 -0.4924 -0.3229 -0.3954
16661SOL    HW151199   6.090   3.645   5.391 -0.1155 -0.0400 -0.9063
16661SOL    HW251200   6.011   3.769   5.429 -0.3087 -0.1243 -1.0357
16662SOL     OW51201   7.334   4.639   7.480 -0.2379  1.0262  0.6503
16662SOL    HW151202   7.291   4.707   7.427 -0.7728 -0.0940 -0.3968
16662SOL    HW251203   7.370   4.578   7.415 -0.2706  0.0017  1.5747
16663SOL     OW51204   7.256   4.429   5.439 -0.8356 -0.6905  0.6029
16663SOL    HW151205   7.304   4.411   5.519 -3.1974 -3.2838  1.6074
16663SOL    HW251206   7.205   4.508   5.458  0.9184  0.5388  0.4412
16664SOL     OW51207   6.294   3.550   6.555 -0.0418  0.2901  0.4617
16664SOL    HW151208   6.266   3.638   6.528 -1.2511 -0.2980 -0.2992
16664SOL    HW251209   6.243   3.491   6.499  0.9984 -0.8945  0.7322
16665SOL     OW51210   6.472   4.694   5.796 -0.2958 -0.2388 -0.1521
16665SOL    HW151211   6.549   4.638   5.811  0.4296  0.3377 -1.4800
16665SOL    HW251212   6.403   4.655   5.850  0.8874 -0.8467  0.9942
16666SOL     OW51213   5.841   5.474   6.464  0.4180 -0.5741  0.0190
16666SOL    HW151214   5.753   5.477   6.501  2.2092 -2.4778  5.4199
16666SOL    HW251215   5.840   5.399   6.406 -1.3161 -1.1571  0.7413
16667SOL     OW51216   7.015   4.767   6.152  0.2038 -0.4331 -0.1981
16667SOL    HW151217   6.950   4.698   6.138 -0.0220 -0.2469 -0.0793
16667SOL    HW251218   7.057   4.744   6.235  0.0721 -0.3866 -0.1177
16668SOL     OW51219   6.557   5.098   7.038 -0.4552 -0.2007  0.3989
16668SOL    HW151220   6.505   5.165   6.993 -2.6676 -1.6553  0.6805
16668SOL    HW251221   6.566   5.028   6.973  1.0817 -0.0565  0.4144
16669SOL     OW51222   5.808   4.404   5.494  0.4634  0.1675 -0.1464
16669SOL    HW151223   5.742   4.432   5.430  0.6124  0.2363 -0.2711
16669SOL    HW251224   5.883   4.376   5.441  0.3706 -0.3235 -0.0158
16670SOL     OW51225   7.070   4.321   5.885 -0.1638 -0.0584  0.7846
16670SOL    HW151226   7.036   4.291   5.969  0.3177  0.9185  1.3458
16670SOL    HW251227   6.997   4.367   5.844  0.0635  0.8578  1.3885
16671SOL     OW51228   5.700   4.918   6.753 -0.4895 -0.0090 -0.2592
16671SOL    HW151229   5.617   4.965   6.749 -0.5310  0.0312  0.8193
16671SOL    HW251230   5.676   4.829   6.781 -0.1153  0.1704  0.6534
16672SOL     OW51231   6.665   5.452   5.890  0.1561  0.6057 -1.0221
16672SOL    HW151232   6.595   5.486   5.834 -1.0643 -0.0589  0.0540
16672SOL    HW251233   6.703   5.530   5.931 -0.2467  0.9414 -1.2784
16673SOL     OW51234   5.785   4.187   6.935 -0.6811  0.1899  0.8190
16673SOL    HW151235   5.836   4.106   6.927  2.0969  1.7069  1.6289
16673SOL    HW251236   5.779   4.219   6.845 -2.1106 -1.0015  0.4403
16674SOL     OW51237   7.211   5.025   5.554 -0.2254 -0.4419  0.1812
16674SOL    HW151238   7.159   5.024   5.635  0.2280 -3.1824  0.5485
16674SOL    HW251239   7.163   4.968   5.494  0.8048 -0.5934 -0.5279
16675SOL     OW51240   5.957   5.011   6.074  0.2752 -0.2957 -0.6858
16675SOL    HW151241   5.906   5.082   6.113  0.9587  0.9938 -2.0354
16675SOL    HW251242   6.014   5.055   6.010  2.1483 -1.8276 -0.1527
16676SOL     OW51243   6.866   3.721   6.183  0.0351 -0.1233  0.3292
16676SOL    HW151244   6.905   3.793   6.233  1.4919 -1.0056  0.5120
16676SOL    HW251245   6.929   3.702   6.115 -0.5239 -0.9624  0.0255
16677SOL     OW51246   5.510   5.352   6.725 -0.0608  0.4805  0.2509
16677SOL    HW151247   5.534   5.301   6.648 -1.1720  1.1726 -0.5787
16677SOL    HW251248   5.522   5.292   6.798 -1.7564 -1.1560 -0.7266
16678SOL     OW51249   6.377   5.395   6.008 -0.6794 -0.1810  0.2069
16678SOL    HW151250   6.370   5.382   5.914  1.1993 -0.6531  0.0841
16678SOL    HW251251   6.381   5.307   6.045 -1.0757  0.0029  0.7059
16679SOL     OW51252   5.883   3.780   6.247  0.0914  0.3046 -0.1323
16679SOL    HW151253   5.811   3.720   6.266  0.6358 -0.1214  0.6909
16679SOL    HW251254   5.926   3.742   6.170 -0.3481  0.3668 -0.4098
16680SOL     OW51255   6.674   4.145   7.261 -0.5904 -0.3642  0.3670
16680SOL    HW151256   6.675   4.226   7.312 -0.7371 -0.1592  0.0464
16680SOL    HW251257   6.668   4.076   7.326 -1.0560 -0.0938  0.6201
16681SOL     OW51258   6.154   3.742   5.695  0.0545  0.0791 -0.1412
16681SOL    HW151259   6.091   3.798   5.740 -0.1020  0.8463 -1.2746
16681SOL    HW251260   6.122   3.738   5.605  1.6414  0.5508 -0.7552
16682SOL     OW51261   6.036   3.993   7.139  0.1557  0.4907 -0.4023
16682SOL    HW151262   5.950   3.991   7.183 -0.1453 -2.3074 -0.9375
16682SOL    HW251263   6.079   3.913   7.168  2.7141  1.8979 -0.0390
16683SOL     OW51264   6.666   5.330   6.464 -0.1321 -0.0786  0.2043
16683SOL    HW151265   6.704   5.337   6.376 -1.9445 -1.4047 -0.7625
16683SOL    HW251266   6.615   5.410   6.475 -0.5353 -0.2587 -0.3027
16684SOL     OW51267   6.980   4.077   6.610  0.3823  0.7078  0.2124
16684SOL    HW151268   6.886   4.091   6.613  0.4484  1.2232 -0.0144
16684SOL    HW251269   7.002   4.045   6.697 -0.5764 -3.3613 -0.8155
16685SOL     OW51270   6.532   4.980   6.502  0.2488  0.2418  0.2592
16685SOL    HW151271   6.615   4.932   6.494  0.6074  0.8757  0.0926
16685SOL    HW251272   6.551   5.048   6.567 -0.5787 -0.5184  1.3267
16686SOL     OW51273   6.308   4.207   6.520  0.0401  0.2096 -0.1774
16686SOL    HW151274   6.249   4.281   6.537  1.4572  1.4180 -0.3396
16686SOL    HW251275   6.258   4.131   6.548 -1.5670  1.1838 -0.2159
16687SOL     OW51276   6.137   3.575   6.013 -0.1697 -0.3565  0.0385
16687SOL    HW151277   6.162   3.654   5.966  0.0924 -0.3542  0.1805
16687SOL    HW251278   6.042   3.567   5.999 -0.3660  0.5006  0.7953
16688SOL     OW51279   7.275   5.004   5.936 -0.3825  0.1960  0.0405
16688SOL    HW151280   7.232   5.037   6.015 -0.0474 -0.5818  0.5611
16688SOL    HW251281   7.204   4.996   5.872 -1.3554 -2.4609  1.3202
16689SOL     OW51282   5.663   3.362   6.060 -0.1921 -0.5943 -0.2902
16689SOL    HW151283   5.569   3.374   6.064 -0.1945 -0.6257 -0.2510
16689SOL    HW251284   5.681   3.338   5.969 -0.1717 -0.1531 -0.4042
16690SOL     OW51285   6.243   3.822   5.926  0.4726  0.0858 -0.6192
16690SOL    HW151286   6.198   3.906   5.938 -0.7972 -0.5161 -0.9810
16690SOL    HW251287   6.235   3.803   5.833  1.2247 -0.1909 -0.6375
16691SOL     OW51288   6.285   4.569   7.448  0.5058  0.8883  0.0002
16691SOL    HW151289   6.332   4.489   7.424 -0.4189  0.6399 -1.0488
16691SOL    HW251290   6.221   4.581   7.378 -0.0658  1.9782  0.6894
16692SOL     OW51291   6.888   5.175   5.986  0.1498  0.0872 -0.4035
16692SOL    HW151292   6.857   5.247   5.931 -1.0141  0.4168  0.6412
16692SOL    HW251293   6.910   5.217   6.069  1.7388 -0.4250 -0.5399
16693SOL     OW51294   6.181   4.819   6.334 -0.1948 -0.3956 -0.3637
16693SOL    HW151295   6.139   4.738   6.305 -0.2391 -0.7691  0.7089
16693SOL    HW251296   6.114   4.864   6.385 -0.3976  0.6684 -1.5127
16694SOL     OW51297   6.981   5.816   6.584 -0.1513 -0.4667  0.0021
16694SOL    HW151298   6.903   5.807   6.530  1.3995 -1.3172 -2.2394
16694SOL    HW251299   7.029   5.734   6.570  1.9350  0.7161 -0.0606
16695SOL     OW51300   6.252   4.086   5.720 -0.1306  0.2920  0.4040
16695SOL    HW151301   6.160   4.060   5.723 -0.1245  0.3357  1.4070
16695SOL    HW251302   6.287   4.041   5.643 -1.0954  0.6714 -0.2826
16696SOL     OW51303   5.908   4.673   6.804 -0.0414  0.1720 -0.3048
16696SOL    HW151304   5.924   4.582   6.779 -1.6540  0.1114 -1.2518
16696SOL    HW251305   5.833   4.668   6.864 -0.1300  0.8610 -0.3549
16697SOL     OW51306   6.537   3.587   6.695 -0.0903 -0.0489 -0.7735
16697SOL    HW151307   6.454   3.631   6.680  0.3297  1.6026  1.2522
16697SOL    HW251308   6.596   3.622   6.628 -0.5686  0.0850 -1.1269
16698SOL     OW51309   6.261   4.014   6.271  0.2187  0.7377 -0.1497
16698SOL    HW151310   6.189   4.015   6.207 -0.4822  0.0011  0.6034
16698SOL    HW251311   6.257   4.100   6.313  0.9491  1.3897 -1.3623
16699SOL     OW51312   6.532   4.107   6.410 -1.0860 -0.1287 -0.1723
16699SOL    HW151313   6.457   4.139   6.462 -0.6450  0.5531  0.0594
16699SOL    HW251314   6.542   4.016   6.437 -0.4412  0.3853  1.4860
16700SOL     OW51315   7.097   4.808   6.422 -0.2443 -0.9682 -0.3126
16700SOL    HW151316   7.190   4.786   6.431 -0.0081 -0.1501 -0.7392
16700SOL    HW251317   7.055   4.762   6.496  0.6183 -0.6062  0.4180
16701SOL     OW51318   7.040   4.417   6.689  0.2643  0.6809  0.1583
16701SOL    HW151319   7.075   4.336   6.651  3.2060  0.8086  2.2889
16701SOL    HW251320   6.966   4.388   6.743 -1.0022 -0.0442 -1.8220
16702SOL     OW51321   7.637   4.874   6.089  0.1531 -0.2880 -0.4495
16702SOL    HW151322   7.658   4.805   6.027 -2.6423 -1.7141  0.0337
16702SOL    HW251323   7.571   4.928   6.044 -0.0313  0.1623  0.3398
16703SOL     OW51324   6.025   5.074   4.875  0.0939  0.2408 -0.2535
16703SOL    HW151325   6.002   5.159   4.913 -2.8339 -0.8709  0.7242
16703SOL    HW251326   5.941   5.035   4.852  1.3233 -2.5362 -0.3595
16704SOL     OW51327   7.523   5.062   5.895  0.2760  0.2985  0.4356
16704SOL    HW151328   7.513   5.153   5.922  2.3691  0.8791 -0.5309
16704SOL    HW251329   7.435   5.025   5.905 -1.4387  3.2043 -1.9741
16705SOL     OW51330   7.104   3.994   5.534  0.2343  0.3087 -0.2939
16705SOL    HW151331   7.042   4.042   5.590  2.3371 -0.1897  2.6270
16705SOL    HW251332   7.100   3.904   5.564  0.5400 -0.2648 -1.8543
16706SOL     OW51333   5.848   4.005   5.976  0.0167 -0.0154 -0.3907
16706SOL    HW151334   5.829   3.916   6.007 -0.5814  0.2446  0.0021
16706SOL    HW251335   5.827   4.061   6.051 -0.6618  0.5485 -0.9870
16707SOL     OW51336   7.479   4.818   6.699  0.0170  0.4909 -0.0051
16707SOL    HW151337   7.417   4.812   6.772 -0.9844  1.6079 -0.7309
16707SOL    HW251338   7.562   4.842   6.740 -0.5985  1.3747  0.7479
16708SOL     OW51339   6.675   5.139   6.670  0.4195 -0.1399 -0.0479
16708SOL    HW151340   6.753   5.168   6.717  1.0835 -0.9518 -0.6103
16708SOL    HW251341   6.677   5.187   6.587 -0.7012  1.2229  0.6661
16709SOL     OW51342   7.200   5.231   6.866 -0.0818 -1.0364 -0.1885
16709SOL    HW151343   7.195   5.203   6.775  0.1961 -2.6044  0.2355
16709SOL    HW251344   7.281   5.191   6.899 -0.1435 -0.4408  0.7296
16710SOL     OW51345   6.680   4.923   6.844 -0.1404 -0.7224 -0.1832
16710SOL    HW151346   6.772   4.900   6.831  0.3123  1.0923 -0.3312
16710SOL    HW251347   6.654   4.968   6.764 -0.5467  0.6308  0.6809
16711SOL     OW51348   7.061   5.011   6.655 -0.4113 -0.0490  0.3771
16711SOL    HW151349   7.032   4.926   6.687 -1.0756  0.1812  0.4080
16711SOL    HW251350   7.125   4.991   6.587 -2.0194 -0.6180 -1.0124
16712SOL     OW51351   6.613   3.542   6.957 -0.0595  0.2714  0.2722
16712SOL    HW151352   6.588   3.547   6.865 -0.7188  0.0163  0.4268
16712SOL    HW251353   6.558   3.607   7.000 -0.8921 -0.6817  0.7016
16713SOL     OW51354   6.241   4.770   7.616  0.9079 -0.4606 -0.3812
16713SOL    HW151355   6.255   4.706   7.545  0.3252 -0.1263 -0.8033
16713SOL    HW251356   6.272   4.853   7.580  0.2465 -0.2148 -0.3830
16714SOL     OW51357   6.093   4.403   5.765 -0.1797  0.0551  0.1232
16714SOL    HW151358   6.060   4.473   5.821  0.4701 -0.6670  1.4544
16714SOL    HW251359   6.149   4.351   5.823  0.3794 -0.8158 -1.1674
16715SOL     OW51360   5.936   4.409   6.784  0.4099 -0.3811  0.1642
16715SOL    HW151361   6.009   4.355   6.814  1.6695  1.1826  0.0476
16715SOL    HW251362   5.904   4.365   6.706  1.3891 -0.9969  0.0915
16716SOL     OW51363   6.483   4.594   6.761 -0.1599 -0.0559 -0.2521
16716SOL    HW151364   6.455   4.512   6.801  0.5063 -0.7962 -1.2822
16716SOL    HW251365   6.421   4.610   6.691 -0.0704  0.1299 -0.2914
16717SOL     OW51366   5.239   5.438   6.609  0.5624 -0.1704  0.4035
16717SOL    HW151367   5.251   5.421   6.516  2.2641  0.5315  0.4646
16717SOL    HW251368   5.328   5.440   6.645 -0.0785 -2.0898  2.3591
16718SOL     OW51369   6.748   4.930   5.982 -0.1832 -0.2511  0.4923
16718SOL    HW151370   6.825   4.971   6.021  0.1376  0.5307 -0.8676
16718SOL    HW251371   6.720   4.865   6.046  1.2506 -0.1401  1.2841
16719SOL     OW51372   5.861   3.614   5.984  0.2921  0.1084  0.0774
16719SOL    HW151373   5.860   3.613   5.888  2.2719 -0.3552  0.0189
16719SOL    HW251374   5.768   3.612   6.009 -0.3056  1.4321 -1.8178
16720SOL     OW51375   7.046   5.057   5.765  0.3472  0.1031 -0.3829
16720SOL    HW151376   7.001   5.108   5.698 -1.3741 -0.9129 -0.0564
16720SOL    HW251377   6.988   5.062   5.841  2.3435  1.4196  1.1730
16721SOL     OW51378   6.907   5.148   6.386 -0.6106 -0.2166 -0.4806
16721SOL    HW151379   6.869   5.232   6.362  0.6985  0.9728  1.3853
16721SOL    HW251380   6.920   5.153   6.480 -0.4938 -2.5441 -0.3033
16722SOL     OW51381   7.330   4.356   5.754 -0.4446  0.3753 -0.1250
16722SOL    HW151382   7.256   4.325   5.806 -1.0146  2.9521  0.7420
16722SOL    HW251383   7.371   4.276   5.721  0.2761 -1.5679  4.6442
16723SOL     OW51384   5.760   5.226   6.673 -0.1773  0.5338 -0.5472
16723SOL    HW151385   5.719   5.218   6.759  0.8520 -1.0874 -0.1782
16723SOL    HW251386   5.691   5.204   6.611 -0.0226 -1.8421  0.0483
16724SOL     OW51387   5.840   4.728   7.274  0.1631 -0.1908  0.4109
16724SOL    HW151388   5.835   4.651   7.218  0.8325  0.0016  0.0804
16724SOL    HW251389   5.758   4.776   7.257  0.3373 -0.1632 -0.3576
16725SOL     OW51390   7.299   4.450   7.031  0.5917 -0.0381 -0.1108
16725SOL    HW151391   7.249   4.479   7.108  0.3886 -2.3278  0.6799
16725SOL    HW251392   7.247   4.379   6.994  0.9687  0.6572 -2.0866
16726SOL     OW51393   6.862   3.899   7.324 -0.2278 -0.4630  0.1294
16726SOL    HW151394   6.896   3.912   7.235 -1.6468  2.4720 -0.1005
16726SOL    HW251395   6.797   3.830   7.315 -0.0249 -0.5289 -1.0342
16727SOL     OW51396   6.162   4.096   7.631  0.2941 -0.3556  0.4401
16727SOL    HW151397   6.102   4.082   7.704 -0.1827  0.0550  0.1267
16727SOL    HW251398   6.112   4.147   7.568  0.3195 -1.6628 -0.6840
16728SOL     OW51399   6.105   4.970   6.816 -0.1084 -0.2139  0.1297
16728SOL    HW151400   6.047   4.974   6.893 -0.6087  1.2397 -0.2756
16728SOL    HW251401   6.046   4.986   6.742  0.7163  0.7159 -0.3423
16729SOL     OW51402   7.208   4.620   6.659  0.2028  0.1970 -0.3358
16729SOL    HW151403   7.289   4.601   6.611  0.7458  2.1736 -0.2898
16729SOL    HW251404   7.157   4.539   6.653  1.6251 -0.6659 -1.4740
16730SOL     OW51405   6.583   4.300   5.488 -0.0578  0.3345 -0.6588
16730SOL    HW151406   6.672   4.271   5.466 -0.0818 -0.9008  0.6748
16730SOL    HW251407   6.542   4.320   5.404  1.1930  0.0532 -1.3601
16731SOL     OW51408   5.790   3.719   7.044  0.0992 -0.5585  0.0092
16731SOL    HW151409   5.707   3.764   7.030  1.0206  1.1460 -0.2694
16731SOL    HW251410   5.833   3.768   7.113 -0.4165 -3.3479  2.5271
16732SOL     OW51411   5.424   4.985   6.844 -0.3891 -0.0658 -0.2677
16732SOL    HW151412   5.439   5.036   6.923 -0.4243 -0.9011  0.2885
16732SOL    HW251413   5.388   5.048   6.781  1.7909  1.1448 -0.4036
16733SOL     OW51414   6.139   4.467   6.525  0.6356 -0.1587 -0.4700
16733SOL    HW151415   6.087   4.532   6.479  2.0451  0.9220 -0.6144
16733SOL    HW251416   6.138   4.495   6.616 -1.3436 -1.7528  0.0714
16734SOL     OW51417   7.466   4.899   7.199 -0.0333  0.0216  0.0754
16734SOL    HW151418   7.549   4.869   7.238  0.5418  2.4564  0.9005
16734SOL    HW251419   7.479   4.887   7.105  2.0169  1.8702  0.0246
16735SOL     OW51420   5.376   3.633   5.937 -0.1177 -0.3390 -0.2885
16735SOL    HW151421   5.429   3.670   6.007 -0.2131 -0.3110 -0.2308
16735SOL    HW251422   5.395   3.687   5.861 -0.4645  0.0035 -0.1365
16736SOL     OW51423   6.749   4.153   5.911 -0.0006  1.3274  0.2107
16736SOL    HW151424   6.741   4.115   5.999 -1.8326 -0.8517 -0.7981
16736SOL    HW251425   6.675   4.117   5.863  0.1503  3.5865 -1.8762
16737SOL     OW51426   6.465   4.534   6.281  0.4088  0.7909  0.7392
16737SOL    HW151427   6.520   4.458   6.296 -1.9885 -0.9614  1.2560
16737SOL    HW251428   6.455   4.574   6.368 -2.5313 -1.4890  1.6300
16738SOL     OW51429   6.513   5.022   7.310 -0.1527 -0.3937  0.4656
16738SOL    HW151430   6.547   5.080   7.377  1.3403 -1.6060  0.8179
16738SOL    HW251431   6.536   5.064   7.227  0.2513 -0.1013  0.7227
16739SOL     OW51432   7.728   4.916   6.812  0.6213  0.1984 -0.4468
16739SOL    HW151433   7.745   5.001   6.853  1.4396  0.0171 -0.3995
16739SOL    HW251434   7.718   4.855   6.886  1.4883 -0.0141 -0.4971
16740SOL     OW51435   6.407   4.307   7.709 -0.1110  0.6239 -0.1479
16740SOL    HW151436   6.346   4.233   7.707 -0.3773  0.8277  0.1493
16740SOL    HW251437   6.367   4.369   7.771  1.2792  0.0008  1.4300
16741SOL     OW51438   7.205   3.756   5.902  0.0959  0.1400 -0.2021
16741SOL    HW151439   7.202   3.685   5.965  0.4739 -0.6141 -1.0035
16741SOL    HW251440   7.134   3.737   5.841 -0.4006  0.9721  0.1056
16742SOL     OW51441   6.798   4.059   5.286 -0.0793  0.7740 -0.8789
16742SOL    HW151442   6.892   4.071   5.304  0.1691 -1.8000 -0.0049
16742SOL    HW251443   6.760   4.146   5.297  1.8819  1.4858  0.9926
16743SOL     OW51444   6.792   4.873   6.515  0.1108  0.1640  0.0133
16743SOL    HW151445   6.809   4.783   6.487  0.0695  0.1164  0.1399
16743SOL    HW251446   6.858   4.926   6.471  0.8328 -0.0632  0.8020
16744SOL     OW51447   5.579   4.361   6.497 -0.0751 -0.0183 -0.3512
16744SOL    HW151448   5.502   4.320   6.537  0.0983 -0.2223 -0.2242
16744SOL    HW251449   5.544   4.437   6.450 -0.2404  0.4113  0.4543
16745SOL     OW51450   5.899   4.007   6.406 -0.2350  0.5231 -0.0716
16745SOL    HW151451   5.907   3.916   6.377  0.8865  0.9171 -1.0453
16745SOL    HW251452   5.855   4.051   6.334  0.2178  0.9847 -0.0679
16746SOL     OW51453   6.492   4.044   7.073  0.1769 -0.0222  0.0158
16746SOL    HW151454   6.551   4.098   7.124 -0.2662  1.1339 -0.6665
16746SOL    HW251455   6.408   4.050   7.119  0.5169 -1.5818  0.9296
16747SOL     OW51456   6.610   3.931   6.857 -0.0611 -0.0885  0.0501
16747SOL    HW151457   6.541   3.867   6.840  2.7411 -2.8640 -1.8690
16747SOL    HW251458   6.579   3.977   6.935 -3.5470 -1.8388 -0.0549
16748SOL     OW51459   5.975   4.660   5.878 -0.2988 -0.1281  0.1395
16748SOL    HW151460   5.904   4.623   5.825 -0.2344  0.3737 -0.3020
16748SOL    HW251461   5.931   4.715   5.943 -0.2902  0.8106 -0.6264
16749SOL     OW51462   5.986   5.500   6.682 -0.3182  0.1588 -0.2458
16749SOL    HW151463   5.919   5.488   6.749  0.4673  0.2888  0.5890
16749SOL    HW251464   5.961   5.439   6.612  1.1339 -3.3058  1.9745
16750SOL     OW51465   6.388   5.270   6.337 -0.0290  0.3426 -0.6487
16750SOL    HW151466   6.430   5.201   6.287  1.5509  1.3971 -0.8439
16750SOL    HW251467   6.350   5.225   6.412  0.8715 -0.7561 -0.8213
16751SOL     OW51468   6.239   4.422   6.951 -0.7400 -0.2185 -0.2277
16751SOL    HW151469   6.182   4.345   6.952 -2.0758  0.7436  0.6671
16751SOL    HW251470   6.326   4.387   6.930 -1.3804 -1.9042 -0.2293
16752SOL     OW51471   5.794   3.922   6.823  0.2683  0.3613  0.3261
16752SOL    HW151472   5.865   3.859   6.833  1.3245  1.2350 -1.3369
16752SOL    HW251473   5.716   3.873   6.849  1.2620 -1.0920  0.7278
16753SOL     OW51474   5.591   4.417   7.651 -0.7707  0.3273 -0.1438
16753SOL    HW151475   5.667   4.475   7.661 -1.4201  1.3327 -0.9394
16753SOL    HW251476   5.555   4.439   7.565 -0.7541 -1.6055 -0.6980
16754SOL     OW51477   6.773   4.289   7.021 -0.2345 -0.3036  0.3628
16754SOL    HW151478   6.815   4.365   7.062 -2.0297  1.2559 -0.4973
16754SOL    HW251479   6.758   4.228   7.093  1.0866  0.2073  1.1176
16755SOL     OW51480   6.150   4.068   6.010  0.2226 -0.1542 -0.2435
16755SOL    HW151481   6.207   4.141   5.984 -0.1619  0.4154  0.4679
16755SOL    HW251482   6.068   4.110   6.037  0.7228 -0.6453  2.2938
16756SOL     OW51483   6.889   3.968   6.316 -0.2120 -0.0574 -0.3845
16756SOL    HW151484   6.805   4.012   6.307 -1.1036 -1.9023 -1.7370
16756SOL    HW251485   6.904   3.963   6.411 -1.5209  0.4869 -0.1323
16757SOL     OW51486   5.911   5.318   7.036  0.1712  0.6904  0.2911
16757SOL    HW151487   5.849   5.370   6.986 -0.6094 -0.3956  0.0918
16757SOL    HW251488   5.900   5.347   7.127  1.3348  2.4064 -0.0797
16758SOL     OW51489   6.355   4.666   6.494 -0.0678 -0.3177 -0.0338
16758SOL    HW151490   6.289   4.631   6.553 -0.3667 -1.2802 -0.9062
16758SOL    HW251491   6.305   4.713   6.427  0.0565 -1.4735 -0.9836
16759SOL     OW51492   6.721   5.508   7.117 -0.1658 -0.0335  0.0420
16759SOL    HW151493   6.634   5.470   7.123 -0.2829  0.2806  0.3911
16759SOL    HW251494   6.719   5.562   7.038 -0.8495  1.3705  0.9908
16760SOL     OW51495   5.813   4.106   5.570 -0.2353  0.4456 -0.1884
16760SOL    HW151496   5.804   4.169   5.641  2.9234  0.3376  0.4359
16760SOL    HW251497   5.793   4.155   5.490  0.8682  1.9037  0.4003
16761SOL     OW51498   5.697   4.248   7.184 -0.3988 -0.1718 -0.5223
16761SOL    HW151499   5.610   4.214   7.169 -0.0558 -0.9919 -0.6781
16761SOL    HW251500   5.742   4.239   7.100 -0.1706  0.2700 -0.4507
16762SOL     OW51501   7.004   4.747   6.777  0.6331  0.1232 -0.0645
16762SOL    HW151502   7.079   4.700   6.738  1.5686  1.9846 -0.6309
16762SOL    HW251503   6.929   4.689   6.761  1.8324 -1.5064 -0.0603
16763SOL     OW51504   6.941   4.094   5.721  0.0840 -0.3991  0.4084
16763SOL    HW151505   7.001   4.077   5.793 -0.0354 -1.1916  0.3329
16763SOL    HW251506   6.864   4.132   5.763  0.4357  0.1468  0.5638
16764SOL     OW51507   7.414   5.198   6.614 -0.3597  0.9011  0.1912
16764SOL    HW151508   7.331   5.239   6.587 -0.1337  0.7848 -0.7304
16764SOL    HW251509   7.395   5.104   6.611 -0.5583  0.9049  1.2221
16765SOL     OW51510   6.732   5.783   6.486  0.1349  0.2500 -0.1094
16765SOL    HW151511   6.649   5.757   6.525 -0.0495  0.5936 -0.2672
16765SOL    HW251512   6.711   5.800   6.394  0.3282  0.5722 -0.0966
16766SOL     OW51513   5.643   4.665   6.893  0.2957  0.1996  0.2642
16766SOL    HW151514   5.550   4.643   6.888 -0.2722  2.1943  0.9983
16766SOL    HW251515   5.674   4.623   6.974  0.1706 -0.8583 -0.2268
16767SOL     OW51516   5.933   5.038   7.023 -0.0928 -0.2179 -0.1307
16767SOL    HW151517   5.843   5.009   7.036  0.1472  0.0036  2.5262
16767SOL    HW251518   5.930   5.132   7.042  0.7632 -0.3090  0.4988
16768SOL     OW51519   7.714   4.141   5.904 -0.2574 -0.6680  0.0157
16768SOL    HW151520   7.725   4.197   5.981 -0.7004  0.0276 -0.4115
16768SOL    HW251521   7.758   4.188   5.834 -2.4389  0.2569 -0.8436
16769SOL     OW51522   6.616   5.816   6.244 -0.1962 -0.2087  0.5551
16769SOL    HW151523   6.581   5.735   6.206 -0.4519 -0.7914  1.9895
16769SOL    HW251524   6.546   5.880   6.230 -0.9596 -0.8204  1.4216
16770SOL     OW51525   5.457   5.485   7.034  0.0881 -0.1755 -0.2403
16770SOL    HW151526   5.375   5.437   7.024  0.3259 -1.0050  1.4318
16770SOL    HW251527   5.508   5.434   7.097  1.3803  0.9768 -0.2858
16771SOL     OW51528   7.066   4.713   5.855 -0.0211 -0.0602  0.2064
16771SOL    HW151529   6.980   4.744   5.827  1.2861  2.9461 -0.9753
16771SOL    HW251530   7.066   4.726   5.950 -0.5428  0.9339  0.0844
16772SOL     OW51531   6.699   4.822   7.360  0.0791  0.8495 -0.0120
16772SOL    HW151532   6.672   4.743   7.314  1.2079  0.0218  0.6817
16772SOL    HW251533   6.641   4.890   7.327  1.6460  0.6519 -3.6589
16773SOL     OW51534   6.338   5.334   5.518  0.6393 -0.0672 -0.3867
16773SOL    HW151535   6.256   5.302   5.479  0.1989 -0.4857  0.8536
16773SOL    HW251536   6.368   5.401   5.457 -2.4424  2.6451  0.7758
16774SOL     OW51537   7.206   5.336   6.522  0.4400  0.0468 -0.0040
16774SOL    HW151538   7.125   5.384   6.540  0.4805  0.0686  0.1231
16774SOL    HW251539   7.204   5.318   6.428  0.0092 -0.4542  0.0952
16775SOL     OW51540   7.182   3.661   6.497 -0.1120 -0.3673 -0.0612
16775SOL    HW151541   7.263   3.614   6.517 -0.0274 -0.1599  0.0778
16775SOL    HW251542   7.122   3.593   6.465 -0.2162 -0.6800  0.7910
16776SOL     OW51543   5.685   3.590   6.671 -0.9132  0.0071 -0.5438
16776SOL    HW151544   5.727   3.627   6.594  0.1088  1.2942  0.5675
16776SOL    HW251545   5.694   3.658   6.738  1.1928 -2.2159  1.6750
16777SOL     OW51546   6.635   4.808   5.560  0.0192  0.2908 -0.2629
16777SOL    HW151547   6.556   4.760   5.534 -0.5376  2.2093 -2.4181
16777SOL    HW251548   6.677   4.832   5.477  1.3847  1.7157  0.7770
16778SOL     OW51549   6.177   4.614   6.742 -0.1232  0.1802 -0.1301
16778SOL    HW151550   6.120   4.688   6.760 -0.3063  0.1125 -0.4205
16778SOL    HW251551   6.163   4.554   6.815 -2.5979 -1.1449 -1.5867
16779SOL     OW51552   6.829   4.448   5.789 -0.0281 -0.7470 -0.0483
16779SOL    HW151553   6.823   4.535   5.828  0.2484 -1.6883  2.2485
16779SOL    HW251554   6.739   4.424   5.770 -0.0501  0.3262 -1.4972
16780SOL     OW51555   6.645   5.049   5.744 -0.3052  0.2695  0.0396
16780SOL    HW151556   6.636   4.973   5.686  0.5014  0.9074 -0.9569
16780SOL    HW251557   6.675   5.012   5.827 -1.8782 -0.7164  0.2125
16781SOL     OW51558   5.665   4.966   7.037  0.0785 -0.4242 -0.1257
16781SOL    HW151559   5.655   4.889   6.982 -2.7046 -0.6646  0.5330
16781SOL    HW251560   5.628   4.940   7.122 -1.0465  1.6001  0.0918
16782SOL     OW51561   7.206   4.859   7.278 -0.1365  0.6490 -0.5202
16782SOL    HW151562   7.296   4.889   7.264  0.4884 -0.7773  0.1713
16782SOL    HW251563   7.182   4.815   7.197  0.4564 -0.4472 -0.1373
16783SOL     OW51564   6.859   4.616   6.452 -0.4110 -0.2144  0.4066
16783SOL    HW151565   6.866   4.615   6.357  1.7853  1.8301  0.4473
16783SOL    HW251566   6.861   4.524   6.478 -0.4410 -0.7886 -1.4844
16784SOL     OW51567   6.559   3.842   6.483 -0.1283 -0.3363 -0.5580
16784SOL    HW151568   6.651   3.827   6.503 -0.2989  0.6419  1.2196
16784SOL    HW251569   6.541   3.788   6.406  1.6596 -1.3260 -0.3223
16785SOL     OW51570   6.234   4.633   5.930  0.4396  0.0944  0.3991
16785SOL    HW151571   6.140   4.649   5.921  0.2795  0.9324  2.7635
16785SOL    HW251572   6.243   4.590   6.016  2.1484 -0.7119 -0.1433
16786SOL     OW51573   7.320   4.118   6.859  0.0195 -0.3893  0.0524
16786SOL    HW151574   7.278   4.181   6.800  0.0833  0.2389  0.6737
16786SOL    HW251575   7.293   4.032   6.826 -0.4988 -0.0260 -0.4749
16787SOL     OW51576   6.585   4.742   6.131  0.2800  0.2573  0.4381
16787SOL    HW151577   6.537   4.813   6.175  0.1081  0.1924  0.3545
16787SOL    HW251578   6.546   4.662   6.167  1.4133  0.1847  1.5981
16788SOL     OW51579   5.725   4.519   7.151 -0.0089  0.4267 -0.3795
16788SOL    HW151580   5.725   4.424   7.159 -0.0659  0.4008 -0.6776
16788SOL    HW251581   5.637   4.546   7.178 -0.0417  0.3816 -0.4418
16789SOL     OW51582   6.599   3.522   7.625 -0.3168  0.3824  0.5930
16789SOL    HW151583   6.523   3.486   7.671 -0.1439  0.4683  0.9448
16789SOL    HW251584   6.576   3.614   7.610 -0.5609  0.2472  0.1074
16790SOL     OW51585   5.659   3.539   5.274  0.1770 -0.3516  0.0790
16790SOL    HW151586   5.641   3.591   5.196  2.1131  0.1751 -0.0727
16790SOL    HW251587   5.614   3.585   5.345 -0.4572 -0.0657 -0.5025
16791SOL     OW51588   6.804   4.596   7.036  0.7782  0.1522  0.0269
16791SOL    HW151589   6.717   4.625   7.061  1.7455  2.4181  1.0798
16791SOL    HW251590   6.796   4.573   6.944 -1.0925 -0.5448  0.3170
16792SOL     OW51591   5.448   3.643   5.552  0.0830 -0.2298 -0.1372
16792SOL    HW151592   5.377   3.589   5.517 -1.2299 -0.1396  2.2383
16792SOL    HW251593   5.498   3.584   5.608  0.6479  0.2421 -0.1336
16793SOL     OW51594   6.776   4.720   5.779  0.0563  0.0452 -0.2381
16793SOL    HW151595   6.745   4.788   5.840 -0.8623 -0.8161  0.2867
16793SOL    HW251596   6.756   4.755   5.692  0.7811  1.0035 -0.0331
16794SOL     OW51597   5.958   4.402   7.269  0.3097  0.4438  0.1358
16794SOL    HW151598   6.019   4.458   7.222 -0.5003  2.2190  1.0856
16794SOL    HW251599   5.872   4.428   7.236 -0.0371 -0.8462  0.0002
16795SOL     OW51600   7.024   5.623   6.339  0.1984 -0.2334 -0.4724
16795SOL    HW151601   7.111   5.647   6.371 -0.5337  0.3386  1.2406
16795SOL    HW251602   6.982   5.580   6.414 -0.9438 -0.6340 -1.3087
16796SOL     OW51603   6.292   4.060   7.312  0.4020  0.2832  0.5394
16796SOL    HW151604   6.289   3.992   7.378 -0.1574 -0.1210  0.1063
16796SOL    HW251605   6.211   4.050   7.262  1.1067  0.1423 -0.6284
16797SOL     OW51606   7.053   4.917   7.015 -0.4411 -0.1890  0.2215
16797SOL    HW151607   7.018   4.872   6.938  1.4285  2.4091 -2.3468
16797SOL    HW251608   6.987   4.984   7.035  0.0090  0.4599 -0.4441
16798SOL     OW51609   5.758   5.535   6.839  0.3652 -0.2551 -0.2141
16798SOL    HW151610   5.692   5.468   6.824  1.3254 -1.0647 -0.9740
16798SOL    HW251611   5.712   5.618   6.823 -1.1221 -0.6258  1.7872
16799SOL     OW51612   6.773   4.583   6.736 -0.3888  0.1588  0.1799
16799SOL    HW151613   6.777   4.623   6.649 -0.9790  0.4547  0.2874
16799SOL    HW251614   6.680   4.568   6.752 -0.2026 -0.9501  0.2838
16800SOL     OW51615   6.622   4.074   6.147  0.5147 -0.3075 -0.2063
16800SOL    HW151616   6.600   3.987   6.116  0.8435 -0.9970  1.4085
16800SOL    HW251617   6.576   4.083   6.230  1.6136  0.4759  0.3543
16801SOL     OW51618   5.841   4.235   6.596 -0.2458  0.4652  0.1426
16801SOL    HW151619   5.887   4.185   6.528 -1.5308  0.0692 -0.4679
16801SOL    HW251620   5.752   4.246   6.562 -0.7729  0.7189  1.5350
16802SOL     OW51621   7.571   4.061   6.974 -0.6519  0.1288  0.2481
16802SOL    HW151622   7.487   4.074   6.930  0.1250 -1.5237 -1.8968
16802SOL    HW251623   7.552   4.077   7.067 -3.6464 -1.3638  0.0301
16803SOL     OW51624   7.327   4.820   6.973 -0.4909  0.3629  0.2850
16803SOL    HW151625   7.293   4.730   6.976 -2.1326  0.9637  0.9364
16803SOL    HW251626   7.249   4.875   6.983  0.6014  1.8575  0.8743
16804SOL     OW51627   6.446   4.878   5.329 -0.4760  0.1382  0.3840
16804SOL    HW151628   6.409   4.837   5.408  3.1134 -4.6934 -0.0305
16804SOL    HW251629   6.374   4.878   5.266 -1.7041 -2.2658  1.6499
16805SOL     OW51630   6.263   5.188   6.594  0.1026 -0.0757 -0.2954
16805SOL    HW151631   6.171   5.210   6.579  0.3249  0.2247 -1.2886
16805SOL    HW251632   6.260   5.106   6.643 -0.6977  0.1289  0.0072
16806SOL     OW51633   6.287   4.316   5.945 -0.0372 -0.2725 -0.0948
16806SOL    HW151634   6.266   4.382   6.012 -0.7004  1.3447 -1.8205
16806SOL    HW251635   6.373   4.342   5.911 -0.7238  0.3129 -1.4499
16807SOL     OW51636   6.343   4.399   5.217 -0.0379 -0.0909  0.1122
16807SOL    HW151637   6.326   4.446   5.299 -2.4837  1.3617 -1.0967
16807SOL    HW251638   6.434   4.418   5.196  1.2490 -1.9557  3.2878
16808SOL     OW51639   7.395   5.080   6.274  0.3986  0.7117  0.2268
16808SOL    HW151640   7.364   5.149   6.332 -1.3303  0.9617 -0.9120
16808SOL    HW251641   7.425   5.127   6.196  1.2177  0.2897  0.2798
16809SOL     OW51642   5.622   5.209   6.929  0.3723 -0.5633  0.2217
16809SOL    HW151643   5.671   5.135   6.965  1.1519 -0.0439  0.2480
16809SOL    HW251644   5.587   5.254   7.006  0.0866 -0.7797  0.2172
16810SOL     OW51645   5.983   4.565   6.311  0.8743  0.0464  0.1864
16810SOL    HW151646   5.959   4.656   6.294  0.6488  0.5915  2.9456
16810SOL    HW251647   5.916   4.513   6.268  1.0512  1.1509 -1.4984
16811SOL     OW51648   6.270   4.900   7.349  0.0352  0.2433  0.1523
16811SOL    HW151649   6.352   4.936   7.316  0.4550 -0.8337 -0.0253
16811SOL    HW251650   6.220   4.878   7.271 -0.2300  0.4560  0.2599
16812SOL     OW51651   7.214   3.864   6.689 -0.1258  0.2908  0.7156
16812SOL    HW151652   7.309   3.852   6.691 -0.0990  0.4376  0.4106
16812SOL    HW251653   7.182   3.792   6.634  0.1117  1.9969 -1.8273
16813SOL     OW51654   5.694   4.111   6.214 -0.8731 -0.0797 -0.7874
16813SOL    HW151655   5.647   4.193   6.229 -1.2525 -0.5529  0.8251
16813SOL    HW251656   5.627   4.044   6.221 -0.0821 -0.7474  1.2586
16814SOL     OW51657   7.192   5.283   6.245  0.2006 -0.4428 -0.1579
16814SOL    HW151658   7.149   5.198   6.240 -2.7980  0.7294  2.0642
16814SOL    HW251659   7.139   5.340   6.189  0.2185  0.5799  0.8262
16815SOL     OW51660   6.059   3.690   6.922 -0.2885  0.0374 -0.2458
16815SOL    HW151661   6.024   3.638   6.850  0.0276 -0.7567  0.1591
16815SOL    HW251662   5.983   3.710   6.976 -0.1219 -2.2547  0.9957
16816SOL     OW51663   6.430   5.140   6.056  0.4159 -0.0312  0.6931
16816SOL    HW151664   6.513   5.142   6.009  0.5747  0.3495  0.9820
16816SOL    HW251665   6.436   5.063   6.112  0.2087 -0.5085  0.0669
16817SOL     OW51666   6.707   4.092   6.665 -0.4718  0.0281  0.3557
16817SOL    HW151667   6.639   4.158   6.654  0.3881  0.8076 -0.3523
16817SOL    HW251668   6.688   4.052   6.750 -1.6602  0.3966  0.2804
16818SOL     OW51669   6.749   3.437   6.547  0.1066  0.0204  0.1839
16818SOL    HW151670   6.737   3.362   6.489  0.4093  0.2535 -0.1812
16818SOL    HW251671   6.677   3.496   6.526  0.7260  0.5206 -0.6132
16819SOL     OW51672   6.805   4.605   6.185 -0.2706 -0.4041  0.1502
16819SOL    HW151673   6.786   4.521   6.144 -0.5613  0.2541 -1.1160
16819SOL    HW251674   6.726   4.657   6.171 -0.1226  0.0658  0.9909
16820SOL     OW51675   6.416   5.252   6.867 -0.1387  0.3100 -0.8815
16820SOL    HW151676   6.443   5.341   6.888 -0.3702 -0.0609  1.2110
16820SOL    HW251677   6.395   5.254   6.774  1.0574  2.1223 -1.1492
16821SOL     OW51678   6.505   3.563   5.798 -0.6118 -0.7166  0.0108
16821SOL    HW151679   6.595   3.534   5.783 -1.2179 -2.4849 -0.4451
16821SOL    HW251680   6.452   3.506   5.742 -2.1046 -0.3471  0.9941
16822SOL     OW51681   6.636   4.347   6.336  0.6663 -0.0203  0.0213
16822SOL    HW151682   6.618   4.260   6.372  0.3345 -1.0910 -2.5527
16822SOL    HW251683   6.706   4.333   6.273  0.2740  1.5039 -0.8021
16823SOL     OW51684   6.786   3.775   6.600 -0.1366 -0.2566 -0.1521
16823SOL    HW151685   6.866   3.739   6.639 -0.8352 -0.3930  1.2291
16823SOL    HW251686   6.749   3.831   6.668 -0.2132  1.3893 -1.4775
16824SOL     OW51687   5.763   4.496   5.764  0.2651  0.0728  0.8427
16824SOL    HW151688   5.792   4.479   5.674  0.7793  0.2329  0.9768
16824SOL    HW251689   5.728   4.412   5.794 -2.5878  0.6772 -0.4670
16825SOL     OW51690   6.661   5.748   5.804 -0.0032  0.3688 -0.0543
16825SOL    HW151691   6.594   5.693   5.763 -1.3092 -0.8755  3.3537
16825SOL    HW251692   6.622   5.835   5.807  0.6913  0.8276 -2.4976
16826SOL     OW51693   5.476   4.395   7.986 -0.1037  0.6589  0.3248
16826SOL    HW151694   5.411   4.359   8.046 -0.3779 -1.0292 -0.9201
16826SOL    HW251695   5.478   4.334   7.912  3.5206  0.1191  0.6767
16827SOL     OW51696   5.870   3.799   8.352  0.1999 -0.3897 -0.1279
16827SOL    HW151697   5.880   3.871   8.414  0.1893 -0.2276 -0.3123
16827SOL    HW251698   5.779   3.771   8.361 -0.5371  1.2391 -1.7894
16828SOL     OW51699   5.233   3.441   8.286  0.3979  0.6491 -0.1033
16828SOL    HW151700   5.252   3.465   8.196 -0.5726  0.0351 -0.4935
16828SOL    HW251701   5.292   3.368   8.305 -0.0633  0.1408 -0.5847
16829SOL     OW51702   6.007   5.148   8.716 -0.1143  0.7380  0.0517
16829SOL    HW151703   5.997   5.149   8.811  0.3047  1.0227  0.0925
16829SOL    HW251704   5.978   5.235   8.688 -1.6663  0.1656 -0.2344
16830SOL     OW51705   7.149   5.301   8.083 -0.3159  0.1005 -0.0336
16830SOL    HW151706   7.134   5.243   8.157  0.7101 -1.5851 -1.1029
16830SOL    HW251707   7.114   5.386   8.112 -0.1955 -0.5716  2.2384
16831SOL     OW51708   6.747   4.522   8.357  0.2049  0.2029  0.3587
16831SOL    HW151709   6.719   4.450   8.412 -1.0065 -0.7241 -1.3691
16831SOL    HW251710   6.724   4.601   8.407  0.3091 -0.5881  1.6934
16832SOL     OW51711   7.305   4.528   8.001 -0.8239  0.2410  0.7791
16832SOL    HW151712   7.302   4.546   7.907  2.0914 -3.0060 -0.1564
16832SOL    HW251713   7.228   4.472   8.017 -1.2373  0.6646  0.2920
16833SOL     OW51714   6.036   4.876   8.578  0.5910 -0.1887 -0.2562
16833SOL    HW151715   6.020   4.942   8.646 -0.0055  0.2625 -0.8287
16833SOL    HW251716   5.983   4.801   8.605  1.2934 -0.4507  0.4129
16834SOL     OW51717   6.338   4.376   8.409 -0.8044 -0.6842 -0.0529
16834SOL    HW151718   6.314   4.442   8.474  3.0686 -0.8148  1.7874
16834SOL    HW251719   6.383   4.425   8.340  0.2204 -1.1295  0.2801
16835SOL     OW51720   5.713   4.987   8.625 -0.2926 -0.0026 -0.3053
16835SOL    HW151721   5.713   5.071   8.580  2.9559  0.2397 -0.1486
16835SOL    HW251722   5.698   4.922   8.556 -0.1522  0.5995 -0.9046
16836SOL     OW51723   5.695   3.479   0.612  0.2796  0.5602  0.6628
16836SOL    HW151724   5.726   3.548   0.670  0.5991  0.8477  0.1576
16836SOL    HW251725   5.702   3.517   0.524  0.1396  0.0034  0.4084
16837SOL     OW51726   7.133   4.427   8.526  0.0913  0.5262  0.4060
16837SOL    HW151727   7.164   4.377   8.451 -1.0963  1.2790 -0.6269
16837SOL    HW251728   7.081   4.498   8.488  1.0678  2.0937  1.8563
16838SOL     OW51729   6.020   5.070   7.911  0.8709  0.4500  0.1180
16838SOL    HW151730   5.954   5.021   7.959 -0.0951  0.1778 -1.4312
16838SOL    HW251731   6.058   5.129   7.977  0.4225 -0.6990  1.4624
16839SOL     OW51732   5.646   5.147   7.876 -0.3664  0.0622  0.7853
16839SOL    HW151733   5.646   5.063   7.923 -0.3620  0.7963  2.1453
16839SOL    HW251734   5.579   5.199   7.921 -0.4826  0.7424 -0.1502
16840SOL     OW51735   5.947   4.491   8.813 -0.7193  0.4819 -0.0209
16840SOL    HW151736   5.947   4.396   8.809  1.6904  0.4199  0.0783
16840SOL    HW251737   5.924   4.519   8.725 -0.4678 -0.2088 -0.3102
16841SOL     OW51738   5.571   5.260   0.162  0.0533  0.2838  0.1719
16841SOL    HW151739   5.565   5.165   0.148  1.8189 -0.0031  1.0186
16841SOL    HW251740   5.585   5.296   0.075 -1.9706 -0.0588 -0.3395
16842SOL     OW51741   6.054   4.489   7.921 -0.7956 -0.5542  0.0858
16842SOL    HW151742   6.015   4.479   7.835  0.1579 -0.0604 -0.4246
16842SOL    HW251743   6.009   4.564   7.960  0.9380  1.3221 -1.2975
16843SOL     OW51744   5.372   3.875   8.490 -0.2610 -0.0779 -0.0917
16843SOL    HW151745   5.297   3.830   8.450  0.4447 -0.1218 -1.4349
16843SOL    HW251746   5.370   3.963   8.453 -0.0960  0.1737  0.4818
16844SOL     OW51747   7.240   5.247   7.196 -0.2452  0.6733 -0.1805
16844SOL    HW151748   7.215   5.334   7.228  0.2028  1.1543 -1.0923
16844SOL    HW251749   7.187   5.235   7.117  0.5257  0.6204 -0.6985
16845SOL     OW51750   5.425   5.036   7.394 -0.2631 -0.4448  0.0803
16845SOL    HW151751   5.338   5.043   7.433  0.5835  0.9453  1.8399
16845SOL    HW251752   5.471   5.114   7.424  1.9692 -1.7046  0.1496
16846SOL     OW51753   6.789   4.868   7.970  0.3072 -0.6592  0.3074
16846SOL    HW151754   6.816   4.777   7.959  1.5027 -0.3555  0.5967
16846SOL    HW251755   6.866   4.919   7.945 -1.0671  0.3880 -2.2145
16847SOL     OW51756   7.532   4.842   7.576  0.6412  0.7596  1.0381
16847SOL    HW151757   7.568   4.818   7.490 -1.3610  2.1212 -0.2622
16847SOL    HW251758   7.442   4.808   7.574  0.1089  2.0551  2.0163
16848SOL     OW51759   6.002   4.678   8.148  0.3585  0.0525 -0.2730
16848SOL    HW151760   6.048   4.705   8.227  0.8974 -2.0971  0.2140
16848SOL    HW251761   5.952   4.601   8.175  2.2890 -2.1254 -2.4448
16849SOL     OW51762   6.657   3.934   7.775  0.3969  0.5203 -0.9010
16849SOL    HW151763   6.710   3.882   7.835 -1.3653 -1.0286 -0.5937
16849SOL    HW251764   6.647   4.018   7.819  3.1992  1.1822 -1.3574
16850SOL     OW51765   6.132   4.720   8.843  0.9022  0.0812  0.4551
16850SOL    HW151766   6.049   4.767   8.832  1.9040  1.5608 -1.5476
16850SOL    HW251767   6.120   4.638   8.795  0.8000  0.5993 -0.4287
16851SOL     OW51768   7.057   4.596   7.757 -0.5096 -0.5076  0.3760
16851SOL    HW151769   7.135   4.553   7.721 -0.4358 -0.9273  1.0196
16851SOL    HW251770   7.083   4.687   7.769 -0.9004 -0.0767 -1.7117
16852SOL     OW51771   7.081   5.163   8.316  0.3776  0.0317  0.8087
16852SOL    HW151772   7.100   5.071   8.298  0.3438 -0.0813  1.3350
16852SOL    HW251773   7.087   5.170   8.411  1.5723  0.8263  0.6982
16853SOL     OW51774   6.984   5.512   7.677 -0.1709 -0.2106  0.4637
16853SOL    HW151775   7.064   5.489   7.631  0.3506  0.3290  1.0941
16853SOL    HW251776   6.940   5.427   7.692 -1.0152 -0.3201 -2.1430
16854SOL     OW51777   6.170   4.279   8.011 -0.6034 -0.0955 -0.3648
16854SOL    HW151778   6.121   4.354   7.978  2.4004  3.1200  1.8376
16854SOL    HW251779   6.142   4.269   8.102  0.5407 -0.2391 -0.0076
16855SOL     OW51780   6.831   3.927   8.323  0.5289  0.0201 -0.0532
16855SOL    HW151781   6.767   3.979   8.372 -0.4031 -0.2415 -0.9428
16855SOL    HW251782   6.840   3.846   8.373  1.1734  0.6004  0.7757
16856SOL     OW51783   7.193   5.322   7.640 -0.4855  0.1369  0.3903
16856SOL    HW151784   7.143   5.274   7.706  0.5184 -1.1595  0.2352
16856SOL    HW251785   7.257   5.259   7.608  0.1620  1.2707 -0.6035
16857SOL     OW51786   5.883   4.011   0.078 -0.1408 -0.1477  0.3026
16857SOL    HW151787   5.951   3.988   0.142  3.2653  1.4657 -2.3597
16857SOL    HW251788   5.875   3.932   0.023 -1.6475 -0.8589  1.4724
16858SOL     OW51789   6.666   3.134   8.627 -0.7702 -0.1745  0.1345
16858SOL    HW151790   6.610   3.204   8.661 -0.5446  0.3026 -0.4502
16858SOL    HW251791   6.728   3.179   8.570  0.0789 -0.7260  0.6137
16859SOL     OW51792   6.974   4.640   8.254  0.2293 -0.0715  0.0001
16859SOL    HW151793   6.896   4.612   8.301 -2.4571  3.6858 -1.7093
16859SOL    HW251794   6.961   4.609   8.164  1.2221 -0.2370 -0.0980
16860SOL     OW51795   5.440   4.214   8.460  0.1549  0.5711  0.5251
16860SOL    HW151796   5.521   4.185   8.417  0.4594  0.2589  1.2970
16860SOL    HW251797   5.469   4.273   8.529 -0.3583  1.3802  0.0648
16861SOL     OW51798   5.186   5.513   0.197 -0.1685 -0.5691 -0.0942
16861SOL    HW151799   5.253   5.557   0.250 -1.6520  0.4147  1.0404
16861SOL    HW251800   5.233   5.482   0.120  1.6806 -0.3431  0.8941
16862SOL     OW51801   6.684   4.263   7.519  0.3648 -0.1743  0.1287
16862SOL    HW151802   6.723   4.190   7.566 -2.3087 -0.8429  1.5625
16862SOL    HW251803   6.735   4.339   7.545  1.3641 -1.1151  0.9963
16863SOL     OW51804   6.977   4.998   7.823 -0.1480  0.3961 -0.4148
16863SOL    HW151805   7.037   4.968   7.891  1.3950  1.8171 -1.0880
16863SOL    HW251806   6.979   5.093   7.828 -2.4333  0.5115 -0.4479
16864SOL     OW51807   6.403   4.011   8.219  0.4539  0.4768 -0.0940
16864SOL    HW151808   6.333   4.070   8.247 -1.2711 -1.0000 -1.0891
16864SOL    HW251809   6.417   4.032   8.127  1.0609  0.5026  0.0014
16865SOL     OW51810   6.769   5.268   7.961  0.3070 -0.2840 -0.7049
16865SOL    HW151811   6.718   5.213   7.901  0.1615 -0.5245 -0.3662
16865SOL    HW251812   6.730   5.356   7.951 -1.3304 -0.7807  0.7821
16866SOL     OW51813   5.678   5.217   8.471  0.2494 -0.1167  0.2075
16866SOL    HW151814   5.603   5.245   8.420  1.4437  0.4350 -1.3211
16866SOL    HW251815   5.754   5.248   8.422  1.4876 -0.0324  2.0507
16867SOL     OW51816   6.955   4.228   8.664 -0.6006 -0.0862  0.4306
16867SOL    HW151817   6.971   4.192   8.751 -1.5198  0.6296  0.9229
16867SOL    HW251818   7.036   4.274   8.642 -1.0516  1.4667  1.8223
16868SOL     OW51819   5.697   4.538   8.042  0.7205 -0.4615  0.4199
16868SOL    HW151820   5.737   4.579   7.965  1.1626  0.5146  1.1466
16868SOL    HW251821   5.619   4.494   8.008  0.4755  0.6225 -0.4768
16869SOL     OW51822   7.060   4.805   8.462 -0.1231 -0.3710 -0.5355
16869SOL    HW151823   7.138   4.856   8.441  1.3165 -1.7609  1.1660
16869SOL    HW251824   7.029   4.773   8.377  2.6303 -1.8115 -1.1198
16870SOL     OW51825   6.735   5.426   7.402 -0.3503  0.0276  0.2161
16870SOL    HW151826   6.745   5.451   7.311 -0.4261  0.2435  0.2675
16870SOL    HW251827   6.814   5.375   7.422  0.5045  1.4092  0.5084
16871SOL     OW51828   7.292   5.117   7.444 -0.7675  0.0641  0.0870
16871SOL    HW151829   7.274   5.189   7.383 -2.7632  1.0653  1.7591
16871SOL    HW251830   7.251   5.041   7.403 -1.6348  0.6162 -0.0989
16872SOL     OW51831   5.757   5.546   7.928 -0.4037 -0.1457  0.0095
16872SOL    HW151832   5.758   5.506   8.015  0.3754  1.1896  0.6435
16872SOL    HW251833   5.775   5.473   7.868 -0.7354 -1.0422  0.9680
16873SOL     OW51834   6.870   4.162   7.960  0.2823  0.5205  0.1666
16873SOL    HW151835   6.810   4.205   7.899 -0.3681  2.2661  1.9340
16873SOL    HW251836   6.822   4.160   8.043  1.8321 -0.0986  1.0797
16874SOL     OW51837   5.325   5.133   8.817  0.3778 -0.0218  0.1151
16874SOL    HW151838   5.408   5.088   8.799 -0.2200 -0.4832 -1.6362
16874SOL    HW251839   5.306   5.182   8.737 -1.2366 -0.2257  0.3491
16875SOL     OW51840   6.465   5.218   8.219 -0.3874  0.5426 -0.0259
16875SOL    HW151841   6.477   5.169   8.137  0.8046  1.8857 -0.6961
16875SOL    HW251842   6.552   5.217   8.260 -1.2850 -1.3502  1.9900
16876SOL     OW51843   5.936   4.251   8.149 -0.2523 -0.1730 -0.6768
16876SOL    HW151844   5.902   4.336   8.176 -1.0742 -0.7732  0.2192
16876SOL    HW251845   5.861   4.192   8.157 -0.2177 -0.6400 -3.0835
16877SOL     OW51846   6.245   3.870   7.504 -0.6265 -0.1461  0.3339
16877SOL    HW151847   6.229   3.790   7.553 -1.5864  0.1646  0.5471
16877SOL    HW251848   6.215   3.940   7.561  0.6007  0.4138  0.3270
16878SOL     OW51849   6.231   5.333   8.379 -0.2546  0.1929  0.7117
16878SOL    HW151850   6.317   5.348   8.339  0.0835 -0.8856  0.9727
16878SOL    HW251851   6.192   5.263   8.326 -0.8601  0.4820  0.7656
16879SOL     OW51852   6.268   5.112   8.584 -0.3239  0.3645 -0.0524
16879SOL    HW151853   6.264   5.192   8.531  0.0983  0.9504  0.7729
16879SOL    HW251854   6.186   5.112   8.633  0.7728  1.7265  1.9156
16880SOL     OW51855   6.521   4.436   8.694 -0.9367 -0.1018 -0.0445
16880SOL    HW151856   6.604   4.420   8.648 -0.8322 -0.0842  0.1323
16880SOL    HW251857   6.515   4.532   8.700 -2.0750  0.0002 -2.0248
16881SOL     OW51858   6.200   3.877   7.961  0.1472  0.6977 -0.3319
16881SOL    HW151859   6.146   3.903   8.035 -0.6563 -1.4833 -0.0778
16881SOL    HW251860   6.276   3.935   7.965 -1.0707  2.3320  0.6394
16882SOL     OW51861   6.998   4.985   7.373  0.0128  0.0461  0.1314
16882SOL    HW151862   6.938   4.924   7.414 -0.7475  0.3607 -0.4839
16882SOL    HW251863   7.063   4.930   7.330 -1.2132 -0.3980 -1.2498
16883SOL     OW51864   5.784   3.989   7.634 -0.6482  0.0054  0.2975
16883SOL    HW151865   5.772   4.034   7.718 -1.3046  0.8722 -0.2486
16883SOL    HW251866   5.757   4.053   7.568  1.2757 -0.1169 -0.6894
16884SOL     OW51867   6.845   4.460   7.654  0.0038  0.4162  0.0414
16884SOL    HW151868   6.909   4.494   7.718 -0.1879  0.2004  0.3547
16884SOL    HW251869   6.873   4.496   7.570  0.8250 -0.0556  0.1015
16885SOL     OW51870   7.266   4.960   8.348 -0.2094  0.1263 -0.3724
16885SOL    HW151871   7.345   4.991   8.392  0.4881 -1.6169 -0.3074
16885SOL    HW251872   7.296   4.932   8.262 -0.4958 -1.6220  0.0564
16886SOL     OW51873   5.820   4.496   8.262  0.1268  0.3933 -0.5224
16886SOL    HW151874   5.770   4.531   8.336  0.1573 -0.4857 -0.0748
16886SOL    HW251875   5.768   4.518   8.185  1.2866  3.5664 -0.5451
16887SOL     OW51876   7.035   5.625   7.928 -0.6136  0.1652  0.1331
16887SOL    HW151877   7.058   5.710   7.891 -1.5993  0.4421  0.1329
16887SOL    HW251878   7.009   5.572   7.853  1.2333 -0.5937 -0.0433
16888SOL     OW51879   6.404   4.328   7.408  0.4513 -0.1237 -0.3072
16888SOL    HW151880   6.365   4.253   7.362  0.1218 -1.2484  1.6853
16888SOL    HW251881   6.438   4.291   7.489  2.4850  1.4915 -0.3394
16889SOL     OW51882   6.111   3.702   8.832  0.5255 -0.2706  0.1623
16889SOL    HW151883   6.135   3.698   8.924 -1.2230 -0.3034  0.6572
16889SOL    HW251884   6.111   3.611   8.803  1.5861 -0.2189 -0.0284
16890SOL     OW51885   6.606   4.086   8.398 -0.4457  0.2876  0.3106
16890SOL    HW151886   6.537   4.107   8.461 -0.0227  0.3618  0.7457
16890SOL    HW251887   6.558   4.054   8.321 -1.1033  2.0672 -0.0907
16891SOL     OW51888   7.251   3.578   7.783 -0.0078 -0.2609 -0.0393
16891SOL    HW151889   7.317   3.645   7.799  0.2268 -0.3666 -0.5443
16891SOL    HW251890   7.167   3.621   7.803  0.2060 -0.1048  0.5244
16892SOL     OW51891   6.675   4.761   8.188 -0.3222 -0.6460  0.0209
16892SOL    HW151892   6.685   4.672   8.155 -0.2294 -1.3549  1.8579
16892SOL    HW251893   6.704   4.817   8.116 -2.9698 -1.9462 -2.2379
16893SOL     OW51894   6.814   4.783   8.571  0.3297  0.1365  0.0369
16893SOL    HW151895   6.831   4.781   8.665  1.4590 -1.1484 -0.1632
16893SOL    HW251896   6.899   4.804   8.532 -0.3223  1.5964 -0.6836
16894SOL     OW51897   7.371   4.901   8.101 -0.3793 -0.0928  0.1258
16894SOL    HW151898   7.403   4.991   8.107  0.5970 -0.4716  0.9763
16894SOL    HW251899   7.451   4.848   8.092 -0.9978 -0.7862 -1.9191
16895SOL     OW51900   5.569   4.838   7.276  0.1413 -0.8395  0.3988
16895SOL    HW151901   5.497   4.777   7.258  0.4445 -0.7578 -1.1554
16895SOL    HW251902   5.528   4.907   7.330 -0.5060 -1.7179  1.0641
16896SOL     OW51903   7.097   4.928   8.056  0.1696 -0.4071  0.3882
16896SOL    HW151904   7.189   4.905   8.066 -0.2406 -1.4215  2.3928
16896SOL    HW251905   7.049   4.850   8.086 -1.3339  0.2625 -0.1552
16897SOL     OW51906   7.249   4.141   7.427 -0.8154  0.2114 -0.0367
16897SOL    HW151907   7.159   4.163   7.404 -0.9970  0.9142  1.2462
16897SOL    HW251908   7.301   4.214   7.394 -0.4509 -0.9154 -2.1915
16898SOL     OW51909   6.366   4.106   7.944 -0.4577  0.2136  0.1767
16898SOL    HW151910   6.410   4.141   7.867  0.9354  1.2423  1.3851
16898SOL    HW251911   6.301   4.172   7.967  0.6802  1.0358  1.1714
16899SOL     OW51912   7.556   4.905   0.249  0.8551 -0.0671  0.5070
16899SOL    HW151913   7.630   4.846   0.231 -0.0817 -0.6178 -1.9920
16899SOL    HW251914   7.480   4.860   0.212  0.0479  2.5336 -1.3025
16900SOL     OW51915   6.758   4.967   8.362  0.1557  0.0723 -0.1777
16900SOL    HW151916   6.723   4.907   8.296  2.9029 -0.6247 -1.1221
16900SOL    HW251917   6.744   4.922   8.445 -3.8856  1.2151 -0.0310
16901SOL     OW51918   7.130   4.926   0.244 -0.0212 -0.0132 -0.2070
16901SOL    HW151919   7.156   4.948   0.333  0.7527 -0.1537 -0.3942
16901SOL    HW251920   7.043   4.966   0.234  0.3621  0.9458  0.2280
16902SOL     OW51921   6.344   4.585   7.955  0.0768  0.4256 -0.2082
16902SOL    HW151922   6.254   4.568   7.927 -0.1586  0.1223  0.6915
16902SOL    HW251923   6.338   4.592   8.050  0.9775  0.6172 -0.1604
16903SOL     OW51924   5.999   4.222   8.780  0.0311 -0.0782  0.2572
16903SOL    HW151925   5.956   4.150   8.828 -1.0001 -0.1782 -0.7526
16903SOL    HW251926   5.966   4.213   8.691  1.7077  0.2523 -0.4276
16904SOL     OW51927   6.728   4.309   8.546  0.2110 -0.1190  0.3937
16904SOL    HW151928   6.810   4.275   8.582  0.8696  0.7001 -0.2929
16904SOL    HW251929   6.671   4.232   8.541  1.3018 -0.9195 -0.1327
16905SOL     OW51930   5.648   4.614   8.437 -0.3303 -0.8451 -0.0587
16905SOL    HW151931   5.632   4.708   8.428  0.0735 -0.6201  1.2897
16905SOL    HW251932   5.569   4.572   8.403  1.1634 -0.2916 -5.0480
16906SOL     OW51933   5.773   4.648   7.785 -0.3990 -0.2147 -0.5883
16906SOL    HW151934   5.841   4.715   7.799 -0.8084 -0.0612  0.8414
16906SOL    HW251935   5.708   4.691   7.730 -0.2702  0.3172 -0.3399
16907SOL     OW51936   6.188   4.184   8.355 -0.0814 -0.4326 -0.2349
16907SOL    HW151937   6.248   4.256   8.370  0.2348 -0.5032 -1.0931
16907SOL    HW251938   6.107   4.210   8.399 -0.6703  1.4147 -2.2413
16908SOL     OW51939   7.011   5.273   7.859  0.2517  0.8659  0.8036
16908SOL    HW151940   7.074   5.301   7.926 -0.0031  0.7318  1.1017
16908SOL    HW251941   6.926   5.291   7.897  0.0842 -0.0730  0.9108
16909SOL     OW51942   6.503   5.014   8.678  0.1176  0.1159  0.1160
16909SOL    HW151943   6.494   4.973   8.765 -1.3225 -1.5637 -0.7557
16909SOL    HW251944   6.413   5.031   8.650  0.5325  0.1613 -1.2550
16910SOL     OW51945   7.041   4.869   7.604 -0.3845 -0.4998  0.1792
16910SOL    HW151946   7.068   4.926   7.531  1.0218 -0.8093  0.4334
16910SOL    HW251947   7.016   4.930   7.674  3.0693 -0.0262  1.1934
16911SOL     OW51948   5.895   4.889   8.823  0.3798  0.4890  0.2531
16911SOL    HW151949   5.918   4.950   8.894 -2.0679  0.5176  1.1241
16911SOL    HW251950   5.855   4.945   8.756 -0.0320  0.1091  0.1779
16912SOL     OW51951   6.263   4.589   8.591  0.5870  0.0911 -0.2448
16912SOL    HW151952   6.280   4.666   8.538  1.0523 -0.1858 -0.5079
16912SOL    HW251953   6.344   4.574   8.639  0.7713 -0.6669 -0.7627
16913SOL     OW51954   6.472   4.781   8.495 -0.0135  0.0678  0.2900
16913SOL    HW151955   6.488   4.865   8.537  1.1604  0.4376 -0.8191
16913SOL    HW251956   6.533   4.779   8.421  0.9308 -2.3040  1.0283
16914SOL     OW51957   6.848   4.440   7.312  0.1908 -0.5117 -0.9654
16914SOL    HW151958   6.759   4.472   7.294  0.5848  0.3085 -1.4950
16914SOL    HW251959   6.887   4.507   7.367 -0.1701 -1.8345  0.9843
16915SOL     OW51960   5.931   3.996   8.541  0.0394  0.0213 -0.4257
16915SOL    HW151961   6.008   3.974   8.594 -0.9243 -0.9182  0.6288
16915SOL    HW251962   5.934   4.091   8.533  0.4638  0.1465  0.9481
16916SOL     OW51963   5.383   4.568   8.429  0.3064  0.3884 -0.0032
16916SOL    HW151964   5.311   4.540   8.372  1.0760 -0.4482 -0.5856
16916SOL    HW251965   5.344   4.573   8.516 -0.7903  1.3002 -0.5234
16917SOL     OW51966   6.398   4.163   8.600 -0.4887  0.1180  0.2136
16917SOL    HW151967   6.374   4.182   8.691  1.2882 -0.6268  0.8825
16917SOL    HW251968   6.381   4.245   8.553 -1.3927  0.5301  1.2076
16918SOL     OW51969   6.082   3.990   8.179  0.1201 -0.1627  0.2350
16918SOL    HW151970   6.063   4.083   8.170  1.7795  0.0438 -1.8320
16918SOL    HW251971   6.107   3.979   8.271  0.2526  1.4902  0.4180
16919SOL     OW51972   6.999   4.214   7.384  0.0380  0.1718  0.0316
16919SOL    HW151973   6.946   4.149   7.429 -0.3856 -1.9133 -3.1866
16919SOL    HW251974   6.937   4.283   7.360 -0.3089 -0.1186  0.0889
16920SOL     OW51975   6.405   4.680   8.822  0.0046  0.2553  0.0497
16920SOL    HW151976   6.419   4.773   8.802 -0.6782  0.7364  1.6026
16920SOL    HW251977   6.325   4.679   8.875 -0.5350 -1.3375 -0.7271
16921SOL     OW51978   7.104   4.636   7.168 -0.3238  0.6312  0.0084
16921SOL    HW151979   7.027   4.638   7.224  0.6105 -1.2052  1.4332
16921SOL    HW251980   7.069   4.615   7.081 -1.4535 -0.0262  0.5930
16922SOL     OW51981   6.580   4.508   7.290 -0.5373 -0.2762  0.1608
16922SOL    HW151982   6.528   4.429   7.307 -0.4200 -1.1043 -2.7379
16922SOL    HW251983   6.542   4.545   7.211  1.3001  0.8881 -0.2359
16923SOL     OW51984   6.283   4.996   8.325  0.1230  0.2365  0.0469
16923SOL    HW151985   6.320   5.038   8.248 -2.2527  0.0198 -1.3188
16923SOL    HW251986   6.313   5.049   8.399  0.6844  1.7454 -1.2269
16924SOL     OW51987   5.688   4.120   8.051  0.0228 -0.3595  0.3097
16924SOL    HW151988   5.641   4.146   7.971  0.9045  0.1393 -0.0627
16924SOL    HW251989   5.731   4.038   8.027  1.5646  0.5719 -0.2751
16925SOL     OW51990   5.587   4.058   8.283 -0.4667 -0.5482 -0.4979
16925SOL    HW151991   5.624   4.084   8.199  2.2753  0.0439  0.7634
16925SOL    HW251992   5.611   3.966   8.292 -0.0616 -0.4056 -0.0634
16926SOL     OW51993   6.366   3.756   0.433 -0.0851 -0.1178 -0.4837
16926SOL    HW151994   6.313   3.817   0.381 -1.0803  0.9144  1.6038
16926SOL    HW251995   6.450   3.753   0.388 -0.9244  0.5862 -2.2137
16927SOL     OW51996   5.594   4.715   7.572  0.5548  0.1047  0.4449
16927SOL    HW151997   5.519   4.718   7.513  0.1834 -0.9787  0.8340
16927SOL    HW251998   5.660   4.665   7.524  0.1594 -1.0018  1.0229
16928SOL     OW51999   5.566   4.986   0.086 -0.0518 -0.0862  0.5116
16928SOL    HW152000   5.629   5.023   0.024  0.7705 -0.0485  1.3465
16928SOL    HW252001   5.563   4.893   0.064  0.3083 -0.0924  0.4811
16929SOL     OW52002   5.894   4.951   8.141 -0.3539  0.3631 -0.3003
16929SOL    HW152003   5.908   4.864   8.178  0.2592  0.5608 -0.0637
16929SOL    HW252004   5.949   5.009   8.193 -0.7133  0.8870 -0.4962
16930SOL     OW52005   6.769   5.100   8.799 -0.2401  0.3667 -0.0769
16930SOL    HW152006   6.681   5.114   8.764 -0.1383  0.0734 -0.4569
16930SOL    HW252007   6.811   5.041   8.736  0.1777  0.3828  0.1824
16931SOL     OW52008   5.158   4.258   8.456  0.3759  0.7529 -0.5985
16931SOL    HW152009   5.127   4.197   8.389  0.4184 -0.3814  0.3809
16931SOL    HW252010   5.253   4.252   8.451  0.3961 -0.9294  0.9179
16932SOL     OW52011   6.631   4.547   7.904 -0.2815 -0.4252 -0.0929
16932SOL    HW152012   6.547   4.556   7.949 -0.8723 -1.2630 -0.9867
16932SOL    HW252013   6.614   4.574   7.814  0.9890  1.6392  0.2047
16933SOL     OW52014   6.937   4.528   0.008 -0.0372 -0.1091 -0.1766
16933SOL    HW152015   6.931   4.434  -0.004  2.0652 -0.3696  0.5022
16933SOL    HW252016   7.027   4.544   0.035 -0.1362  2.1684 -0.9131
16934SOL     OW52017   6.150   3.933   8.712  0.2909  0.3932  0.0119
16934SOL    HW152018   6.215   3.995   8.746 -0.1070  0.4618  0.6544
16934SOL    HW252019   6.150   3.861   8.776  0.6217 -0.2010 -0.6357
16935SOL     OW52020   6.259   5.357   0.263 -0.0979 -0.1689 -0.4781
16935SOL    HW152021   6.187   5.396   0.313  1.1764  0.1084  1.2237
16935SOL    HW252022   6.260   5.405   0.180 -1.7098 -0.0413 -0.4644
16936SOL     OW52023   5.965   4.155   7.848 -0.2483 -0.1782 -0.1177
16936SOL    HW152024   5.898   4.211   7.889 -0.9053 -0.1764 -1.1607
16936SOL    HW252025   6.047   4.183   7.888 -0.9742 -0.9487  2.0303
16937SOL     OW52026   5.674   4.985   0.349  0.2054 -0.0925  0.3606
16937SOL    HW152027   5.720   5.069   0.357 -0.9898  0.4932  1.4300
16937SOL    HW252028   5.616   4.997   0.274  0.2653 -0.0802  0.3157
16938SOL     OW52029   6.765   4.578   0.427  0.2564  0.0751 -0.4077
16938SOL    HW152030   6.799   4.593   0.339  0.1743  3.1431 -0.0230
16938SOL    HW252031   6.767   4.664   0.468 -2.4025 -0.7155  1.6333
16939SOL     OW52032   7.382   4.601   8.271 -0.0024 -0.9986  0.5613
16939SOL    HW152033   7.435   4.655   8.212 -1.1254  0.8946  1.1933
16939SOL    HW252034   7.312   4.567   8.216 -0.3821 -0.1917  0.5279
16940SOL     OW52035   7.189   5.186   8.558  0.1073  0.4720 -0.2217
16940SOL    HW152036   7.271   5.137   8.555 -1.3331 -2.1860  0.2006
16940SOL    HW252037   7.186   5.224   8.646  0.6044  0.0368 -0.0156
16941SOL     OW52038   5.901   5.381   8.662 -0.0110  0.4530  0.4262
16941SOL    HW152039   5.806   5.381   8.676  0.1136  1.5268  1.5127
16941SOL    HW252040   5.914   5.438   8.586 -0.2090  0.6625  0.5488
16942SOL     OW52041   6.142   4.753   8.349 -0.3193  0.0903  0.0236
16942SOL    HW152042   6.128   4.757   8.444  0.7747 -1.3748  0.2898
16942SOL    HW252043   6.197   4.829   8.330 -0.5414  0.3942  0.5679
16943SOL     OW52044   7.456   4.298   7.717  0.1121  0.2559  0.8869
16943SOL    HW152045   7.517   4.224   7.729 -0.6432 -0.4332  0.5619
16943SOL    HW252046   7.369   4.257   7.716 -0.3787  1.2521  1.5343
16944SOL     OW52047   7.240   5.610   8.101  0.0482 -0.5071 -0.1011
16944SOL    HW152048   7.171   5.600   8.036  0.2664 -2.9772 -0.0495
16944SOL    HW252049   7.321   5.589   8.053  0.6085  0.8982  0.1924
16945SOL     OW52050   6.871   4.619   8.001 -0.0147 -0.3024  0.5558
16945SOL    HW152051   6.935   4.583   7.940 -0.6367  0.1308 -0.3590
16945SOL    HW252052   6.791   4.570   7.985  0.1607 -1.1343  1.9940
16946SOL     OW52053   5.826   5.080   7.509  0.1667 -0.1093 -0.0264
16946SOL    HW152054   5.732   5.088   7.525  0.2881 -2.0069  1.9527
16946SOL    HW252055   5.842   4.987   7.499  1.8777  0.1669 -0.2621
16947SOL     OW52056   7.612   3.990   8.095 -0.3693 -0.2027  0.2616
16947SOL    HW152057   7.559   3.919   8.132  0.3496 -1.1034 -0.3772
16947SOL    HW252058   7.701   3.971   8.125 -0.1643  0.4030  0.0430
16948SOL     OW52059   5.444   3.756   8.141 -0.0160  0.4635  0.0656
16948SOL    HW152060   5.376   3.729   8.202  0.3023 -1.2787 -0.2967
16948SOL    HW252061   5.520   3.774   8.197 -0.4273  1.3533  0.3694
16949SOL     OW52062   6.968   5.256   7.453  0.0688  0.2142 -0.3387
16949SOL    HW152063   7.008   5.175   7.421  1.4081  1.1128 -1.0615
16949SOL    HW252064   6.939   5.235   7.541 -2.2299 -1.8614 -1.4547
16950SOL     OW52065   6.478   4.929   0.071  0.3004 -0.1807  0.4313
16950SOL    HW152066   6.443   5.001   0.124  2.1043  1.6062 -0.6627
16950SOL    HW252067   6.541   4.885   0.129 -0.7054 -0.8498  1.0563
16951SOL     OW52068   6.317   4.851   7.868  0.0226 -0.3153  0.3264
16951SOL    HW152069   6.335   4.763   7.902 -0.3290 -0.2255  0.7545
16951SOL    HW252070   6.302   4.838   7.774  0.6108 -0.6218  0.2748
16952SOL     OW52071   7.109   5.455   7.318  0.3440 -0.3442  0.5939
16952SOL    HW152072   7.059   5.397   7.376  0.3782  1.4697  2.5431
16952SOL    HW252073   7.048   5.526   7.297  0.7968 -0.2554 -0.4773
16953SOL     OW52074   7.081   4.690   0.409 -0.1157 -0.3541 -0.2928
16953SOL    HW152075   7.127   4.636   0.474  1.2677  1.2896  0.1595
16953SOL    HW252076   7.136   4.685   0.331 -0.0227  0.3280 -0.2737
16954SOL     OW52077   6.532   5.387   7.895 -0.2978  0.0845 -0.1887
16954SOL    HW152078   6.551   5.440   7.818 -0.5027 -1.5679 -1.4564
16954SOL    HW252079   6.474   5.317   7.862  0.7099 -1.4595  1.1433
16955SOL     OW52080   6.223   3.593   7.942  0.3717  0.8207  0.0467
16955SOL    HW152081   6.152   3.535   7.913  1.6236 -0.9413  0.3113
16955SOL    HW252082   6.192   3.681   7.922 -2.2369  0.1929  0.9083
16956SOL     OW52083   6.152   5.146   7.518  0.0996 -0.4779  0.3930
16956SOL    HW152084   6.198   5.066   7.491 -0.0199 -0.7961  1.0966
16956SOL    HW252085   6.059   5.125   7.507  0.0545 -0.5754  0.9364
16957SOL     OW52086   7.474   4.225   0.278 -0.1780 -0.5714  0.3177
16957SOL    HW152087   7.537   4.279   0.326 -0.5173 -1.4442  1.8116
16957SOL    HW252088   7.457   4.274   0.198  0.3866  0.9758  1.0955
16958SOL     OW52089   5.808   4.552   7.508  0.5128  0.0297 -0.4935
16958SOL    HW152090   5.881   4.549   7.570  1.0832 -0.9987 -1.1889
16958SOL    HW252091   5.843   4.597   7.431 -0.1729  1.2435 -0.1215
16959SOL     OW52092   6.868   3.781   0.259  0.0649 -0.5444  0.3456
16959SOL    HW152093   6.815   3.719   0.210 -0.6743 -0.8434  1.4696
16959SOL    HW252094   6.860   3.753   0.350  2.0234 -0.4943  0.5900
16960SOL     OW52095   5.709   4.200   7.486  0.3380 -0.0075  0.0680
16960SOL    HW152096   5.712   4.245   7.402  2.4000  0.5829  0.4048
16960SOL    HW252097   5.681   4.268   7.548  4.2824  1.2333  0.7219
16961SOL     OW52098   5.572   4.162   7.794  0.7106 -0.0228  0.5612
16961SOL    HW152099   5.566   4.242   7.742 -0.5512  0.2249  1.0678
16961SOL    HW252100   5.507   4.103   7.756 -0.5475  0.3165  2.0708
16962SOL     OW52101   6.628   5.065   7.827  0.3077  0.6408 -0.5840
16962SOL    HW152102   6.683   4.988   7.846 -0.2306 -0.5168 -3.3002
16962SOL    HW252103   6.539   5.032   7.835  0.0685  1.1361 -1.2488
16963SOL     OW52104   5.989   4.560   0.228  0.8272  0.4261 -0.1824
16963SOL    HW152105   5.932   4.636   0.243  0.1934  0.2164 -1.3755
16963SOL    HW252106   5.978   4.540   0.135  1.6324 -0.6125 -0.0731
16964SOL     OW52107   6.908   5.333   8.213 -0.0369  0.3852 -0.2809
16964SOL    HW152108   6.877   5.283   8.137 -1.6556 -1.1956  1.2999
16964SOL    HW252109   6.956   5.269   8.265 -1.6744  0.5242  1.5297
16965SOL     OW52110   5.721   5.636   0.120  0.1450 -0.1640 -0.0929
16965SOL    HW152111   5.764   5.623   0.205 -1.0093 -0.0786  0.5233
16965SOL    HW252112   5.632   5.604   0.133  0.2534 -1.1533 -1.6006
16966SOL     OW52113   7.104   4.863   8.745 -0.5687  0.4849 -0.4590
16966SOL    HW152114   7.086   4.844   8.653 -0.4485 -2.3604  0.0373
16966SOL    HW252115   7.063   4.791   8.794  3.6360 -0.9799  1.3690
16967SOL     OW52116   7.112   4.341   8.044  0.1605  0.1590  0.7107
16967SOL    HW152117   7.054   4.276   8.004 -1.0149  1.7563 -0.2810
16967SOL    HW252118   7.073   4.361   8.129  0.2790 -0.0819  0.8241
16968SOL     OW52119   5.934   4.268   8.480  0.4207 -0.6032  0.4772
16968SOL    HW152120   5.861   4.290   8.537 -0.4330 -1.2472 -0.3347
16968SOL    HW252121   5.931   4.333   8.409  1.3409  0.0590  1.0168
16969SOL     OW52122   7.291   4.537   0.569 -0.1581 -0.3907 -0.0265
16969SOL    HW152123   7.289   4.623   0.612 -0.4242  0.3494 -1.4444
16969SOL    HW252124   7.320   4.556   0.480  2.0408 -2.0655  0.2437
16970SOL     OW52125   6.363   5.078   7.993 -0.0165 -0.2757  0.0714
16970SOL    HW152126   6.304   5.143   7.955 -0.6083 -1.1039 -0.4848
16970SOL    HW252127   6.349   5.000   7.939  1.7185 -0.4529 -0.1770
16971SOL     OW52128   5.890   5.326   8.335 -0.1192 -0.0489  0.5642
16971SOL    HW152129   5.946   5.390   8.378  0.6930 -0.4130  0.0694
16971SOL    HW252130   5.947   5.250   8.319 -0.7202 -0.3932 -0.0286
16972SOL     OW52131   6.368   4.648   8.239 -0.7345 -0.0632  0.5044
16972SOL    HW152132   6.421   4.721   8.272 -0.6195 -0.4532  1.1938
16972SOL    HW252133   6.285   4.655   8.285 -1.2012  0.3790 -0.3714
16973SOL     OW52134   6.907   4.667   7.446 -0.3526  0.4807 -0.2998
16973SOL    HW152135   6.837   4.720   7.406  0.5614  1.8390 -0.1600
16973SOL    HW252136   6.960   4.730   7.494  2.2671 -0.1112 -2.2155
16974SOL     OW52137   7.682   5.430   8.204  0.1987  0.0285  0.0433
16974SOL    HW152138   7.679   5.353   8.262  0.5054  0.7182  0.9905
16974SOL    HW252139   7.717   5.395   8.122  2.0290 -0.5327  1.0104
16975SOL     OW52140   5.585   4.880   7.977  0.3619 -0.1870  0.6669
16975SOL    HW152141   5.514   4.815   7.972  0.4746 -0.2531 -0.3719
16975SOL    HW252142   5.664   4.828   7.988  0.3324 -0.1581  1.0176
16976SOL     OW52143   7.115   3.871   8.562 -0.0362  0.6438 -0.0961
16976SOL    HW152144   7.077   3.904   8.643 -1.1313 -0.6075 -0.0536
16976SOL    HW252145   7.095   3.777   8.563 -0.0816  0.5972 -1.7961
16977SOL     OW52146   5.861   3.870   8.023  0.0155 -0.1738  0.2875
16977SOL    HW152147   5.921   3.904   8.090  0.4604 -0.7826  0.2047
16977SOL    HW252148   5.917   3.849   7.949 -0.4699  0.4265 -0.2619
16978SOL     OW52149   6.514   5.403   8.669 -0.5143  0.1811  0.0111
16978SOL    HW152150   6.542   5.365   8.586 -0.1975 -0.5768  0.4573
16978SOL    HW252151   6.556   5.489   8.671 -0.0389 -0.0345 -0.3489
16979SOL     OW52152   5.670   4.222   0.137  0.2739 -0.2750  0.0416
16979SOL    HW152153   5.589   4.186   0.102  0.9062 -0.5819 -1.1638
16979SOL    HW252154   5.738   4.163   0.104  1.0282  0.2313  0.6619
16980SOL     OW52155   6.016   5.096   8.362 -0.1214  0.5577  0.0743
16980SOL    HW152156   5.980   5.067   8.446 -1.2957  1.2113 -0.1803
16980SOL    HW252157   6.105   5.061   8.361 -0.2959  0.0123  1.3150
16981SOL     OW52158   6.935   4.319   8.240  0.2189 -0.0113 -0.3126
16981SOL    HW152159   6.923   4.236   8.286 -1.8488  0.6516  0.4830
16981SOL    HW252160   6.866   4.376   8.275 -0.2680  1.1302 -2.8987
16982SOL     OW52161   6.689   3.704   8.471  0.4089 -0.2393 -0.4779
16982SOL    HW152162   6.655   3.709   8.560 -1.3529 -0.2212 -1.1153
16982SOL    HW252163   6.615   3.726   8.415  2.0286  2.0652 -1.9162
16983SOL     OW52164   6.793   5.201   7.669  0.9090 -0.1330 -0.2474
16983SOL    HW152165   6.745   5.178   7.589  1.8773 -0.0919 -0.8436
16983SOL    HW252166   6.739   5.164   7.739  0.6856 -1.2850 -0.9837
16984SOL     OW52167   6.333   5.099   0.221  0.0434 -0.0511 -0.4231
16984SOL    HW152168   6.280   5.093   0.301 -3.3282 -0.1253 -2.5059
16984SOL    HW252169   6.333   5.192   0.198 -0.7445 -0.2909 -1.4164
16985SOL     OW52170   7.347   3.888   7.388  0.1417  0.2563 -0.3023
16985SOL    HW152171   7.275   3.825   7.382  0.6598 -0.5964  1.5661
16985SOL    HW252172   7.305   3.970   7.412 -0.4566  0.4488 -1.9134
16986SOL     OW52173   6.651   4.260   7.821  0.0308 -0.0640  0.3330
16986SOL    HW152174   6.622   4.345   7.853 -0.9708 -0.5272  0.7291
16986SOL    HW252175   6.602   4.246   7.740  0.6485  0.0027 -0.0528
16987SOL     OW52176   7.209   4.281   8.333  0.0509 -0.0973  0.3595
16987SOL    HW152177   7.156   4.204   8.313  3.1220 -2.3619  0.1744
16987SOL    HW252178   7.246   4.307   8.248  2.3591 -1.1896  0.9469
16988SOL     OW52179   5.200   4.643   7.810  0.2486  0.8557  0.3316
16988SOL    HW152180   5.185   4.699   7.734 -0.2301  0.4737  0.1354
16988SOL    HW252181   5.178   4.555   7.780  1.6546  0.4420  0.4299
16989SOL     OW52182   6.358   5.279   7.731  0.3599 -0.0696 -0.3001
16989SOL    HW152183   6.319   5.218   7.668  0.4882  0.1272 -0.5677
16989SOL    HW252184   6.289   5.344   7.747  0.6990  0.4829 -1.0470
16990SOL     OW52185   5.366   6.054   0.064 -0.0255  0.0869  0.0570
16990SOL    HW152186   5.391   6.132   0.114 -0.3687  1.2690 -1.5356
16990SOL    HW252187   5.337   5.991   0.130  3.3617  0.0310  1.6954
16991SOL     OW52188   5.688   5.631   0.857 -0.3808 -0.2554 -0.4359
16991SOL    HW152189   5.638   5.712   0.844  0.9050  0.6797  0.2160
16991SOL    HW252190   5.722   5.639   0.946 -1.9666 -2.5232  0.4706
16992SOL     OW52191   4.797   5.734   0.758  0.6855 -0.2017  0.0786
16992SOL    HW152192   4.851   5.719   0.681  2.0374 -0.9708  1.1150
16992SOL    HW252193   4.741   5.657   0.764  0.7463 -0.2537 -0.0184
16993SOL     OW52194   6.337   6.715   1.096  0.5568 -0.2336 -0.2064
16993SOL    HW152195   6.287   6.759   1.165  2.7774 -0.6956  1.8466
16993SOL    HW252196   6.371   6.786   1.042 -1.8749  0.1012 -1.4194
16994SOL     OW52197   6.983   6.709   0.636  0.3342 -0.2029 -0.5798
16994SOL    HW152198   7.040   6.639   0.666  1.2867  0.8519  0.1765
16994SOL    HW252199   6.922   6.667   0.575  0.9027 -1.6514 -0.1814
16995SOL     OW52200   6.477   6.200   0.701 -0.3730  0.5940 -0.2573
16995SOL    HW152201   6.382   6.216   0.696 -0.4958  0.1319  0.4178
16995SOL    HW252202   6.484   6.114   0.742  0.2749 -0.4935 -2.4869
16996SOL     OW52203   7.340   6.150   0.248 -0.2667 -0.3019 -0.4645
16996SOL    HW152204   7.249   6.135   0.275 -0.8483  0.5093 -1.8783
16996SOL    HW252205   7.359   6.077   0.188 -0.6421  0.5446 -1.6429
16997SOL     OW52206   6.188   6.442   0.776  0.0305  0.3276  0.2347
16997SOL    HW152207   6.129   6.413   0.706  0.1154 -0.3804  0.4552
16997SOL    HW252208   6.204   6.534   0.756  1.4700 -0.2660 -1.6901
16998SOL     OW52209   6.460   6.108   1.701 -0.0949  0.3528 -0.2799
16998SOL    HW152210   6.397   6.052   1.746 -1.8316  3.9748  2.3164
16998SOL    HW252211   6.545   6.080   1.736 -0.8420 -0.7789  0.7301
16999SOL     OW52212   6.332   6.548   0.498 -0.3057  0.2063  0.0453
16999SOL    HW152213   6.259   6.599   0.533  0.1739  0.6518  0.4012
16999SOL    HW252214   6.361   6.493   0.570  2.0492  2.6271  1.1014
17000SOL     OW52215   6.202   6.647   1.629 -0.2218  0.6514  0.1637
17000SOL    HW152216   6.220   6.637   1.723 -0.4179 -0.2571  0.1105
17000SOL    HW252217   6.110   6.672   1.625  0.2022  2.3365  0.2834
17001SOL     OW52218   5.465   7.241   0.899  0.2140 -0.0533  0.0847
17001SOL    HW152219   5.472   7.309   0.833  3.0418 -0.2127  0.0812
17001SOL    HW252220   5.491   7.160   0.853 -0.4769 -0.6611  0.7328
17002SOL     OW52221   6.944   7.019   1.060  0.1064 -0.1172  0.2828
17002SOL    HW152222   6.991   7.041   0.980 -0.2244 -0.8319 -0.1190
17002SOL    HW252223   7.012   6.999   1.124  0.3600 -0.2889 -0.0405
17003SOL     OW52224   5.950   5.964   1.492 -0.1529  0.0074  0.4648
17003SOL    HW152225   5.975   5.994   1.580  0.9065 -1.8399  0.8480
17003SOL    HW252226   5.858   5.940   1.500  0.1780 -1.0150  1.3334
17004SOL     OW52227   7.067   5.813   0.401 -0.4039 -0.1248 -0.3584
17004SOL    HW152228   7.016   5.855   0.332  0.5311  0.4178 -0.7303
17004SOL    HW252229   7.063   5.719   0.380 -0.3886  0.0097 -0.9744
17005SOL     OW52230   5.499   7.152   0.501 -0.0800 -0.2374  0.0288
17005SOL    HW152231   5.499   7.226   0.561 -1.8835  0.9769 -1.3662
17005SOL    HW252232   5.545   7.184   0.423  0.7509 -1.2262  0.0897
17006SOL     OW52233   6.640   6.555   1.617 -0.6655 -0.1036 -0.2593
17006SOL    HW152234   6.703   6.495   1.578 -0.3191  1.7873 -2.8788
17006SOL    HW252235   6.556   6.508   1.613  0.1925 -1.9914  1.7408
17007SOL     OW52236   5.540   7.014   0.732  0.1829  0.4611 -0.3458
17007SOL    HW152237   5.552   7.042   0.641  4.0896  0.1713 -0.0988
17007SOL    HW252238   5.608   6.949   0.746 -1.1467 -0.4752  2.4714
17008SOL     OW52239   5.532   6.583   0.932  0.0525 -0.3012  0.0942
17008SOL    HW152240   5.599   6.528   0.972 -0.8349  0.2759  2.5703
17008SOL    HW252241   5.536   6.665   0.980 -2.1364 -0.1180  0.0913
17009SOL     OW52242   6.020   7.308   1.414 -0.1448 -0.5197 -0.2286
17009SOL    HW152243   6.028   7.280   1.323  1.4864 -0.9343  0.0047
17009SOL    HW252244   6.108   7.298   1.450 -0.5818  0.3622  1.1930
17010SOL     OW52245   6.122   6.205   0.359  0.1046  0.3578  0.2160
17010SOL    HW152246   6.034   6.174   0.336 -0.4223  1.9433 -0.0217
17010SOL    HW252247   6.125   6.199   0.454  0.7110 -2.1129  0.1148
17011SOL     OW52248   7.144   5.605   1.755  0.3763 -0.2116 -0.2060
17011SOL    HW152249   7.116   5.522   1.714 -0.2597 -0.6052  0.9875
17011SOL    HW252250   7.104   5.673   1.700 -1.3930 -0.7450  0.3435
17012SOL     OW52251   5.578   6.203   1.082  0.2997 -0.5280 -0.3255
17012SOL    HW152252   5.651   6.167   1.031  0.4594  0.9064 -1.1808
17012SOL    HW252253   5.595   6.298   1.083 -1.5060 -0.1769 -0.5027
17013SOL     OW52254   6.734   7.199   0.215 -0.6889 -0.0695 -1.1726
17013SOL    HW152255   6.748   7.242   0.299  1.4261  0.1897 -1.5979
17013SOL    HW252256   6.679   7.259   0.166 -1.3270  0.1167 -0.2492
17014SOL     OW52257   5.219   7.018   0.388  0.5302  0.2109  0.5141
17014SOL    HW152258   5.313   7.000   0.393  0.8694  1.7076 -0.0332
17014SOL    HW252259   5.213   7.107   0.352 -1.1381 -0.7201 -1.7858
17015SOL     OW52260   7.802   6.305   0.504  0.7910  0.4332 -0.3618
17015SOL    HW152261   7.804   6.281   0.411  0.9369 -2.6258  0.3197
17015SOL    HW252262   7.719   6.269   0.536  1.6089 -0.2760  1.0536
17016SOL     OW52263   6.802   6.618   0.070  0.3103  0.4083  0.0357
17016SOL    HW152264   6.773   6.648  -0.017  1.6828  1.1219 -0.1948
17016SOL    HW252265   6.824   6.525   0.057 -0.4738  0.2307 -0.1127
17017SOL     OW52266   5.499   6.382   1.527 -0.3073 -0.4628 -0.0623
17017SOL    HW152267   5.476   6.297   1.489 -2.2830 -0.3685  0.8172
17017SOL    HW252268   5.539   6.360   1.612  2.0381 -0.5784 -1.1170
17018SOL     OW52269   6.001   6.786   1.028  0.2834  0.4047 -0.4759
17018SOL    HW152270   5.994   6.765   0.935 -0.4643  0.0542 -0.3524
17018SOL    HW252271   6.083   6.745   1.056 -0.5148 -1.3131 -0.5304
17019SOL     OW52272   6.984   6.358   1.322  0.0339  0.0147  0.3525
17019SOL    HW152273   7.056   6.416   1.345  0.5963 -0.3706 -0.3863
17019SOL    HW252274   6.989   6.351   1.226 -2.2788  1.6654  0.0184
17020SOL     OW52275   6.362   6.069   0.304 -0.0436  0.2456 -0.4097
17020SOL    HW152276   6.306   5.998   0.273  0.3167  0.2066 -1.0032
17020SOL    HW252277   6.302   6.136   0.335 -0.3850 -0.4450  0.4632
17021SOL     OW52278   5.835   6.647   1.318  0.5595 -0.3762  0.3416
17021SOL    HW152279   5.914   6.605   1.286  0.8097  0.0987  0.3280
17021SOL    HW252280   5.775   6.574   1.337  0.5410 -0.6762 -0.8287
17022SOL     OW52281   6.687   6.645   8.672 -0.7240 -0.1759 -0.1014
17022SOL    HW152282   6.628   6.571   8.676 -0.2254 -0.6531 -1.3468
17022SOL    HW252283   6.733   6.636   8.589  0.6711  0.5052  0.5508
17023SOL     OW52284   6.833   7.249   1.225  0.2450  0.1600 -0.0680
17023SOL    HW152285   6.830   7.210   1.312  0.3729 -0.2194 -0.2324
17023SOL    HW252286   6.857   7.177   1.167  0.9635  0.5829 -0.3137
17024SOL     OW52287   5.963   6.084   1.738  0.0839  0.2167 -0.0956
17024SOL    HW152288   6.020   6.074   1.815 -1.1169 -0.5014  0.7312
17024SOL    HW252289   5.903   6.155   1.761 -0.3874 -0.1104 -0.3008
17025SOL     OW52290   7.214   6.489   0.705  0.4323  0.0426  0.2816
17025SOL    HW152291   7.240   6.427   0.773  2.4966  0.9613  0.4090
17025SOL    HW252292   7.294   6.539   0.687 -0.1307  0.0675 -2.5859
17026SOL     OW52293   6.933   7.375   0.586 -0.0040  0.0046  0.6121
17026SOL    HW152294   6.854   7.429   0.581 -0.9453 -1.2764  1.0299
17026SOL    HW252295   6.906   7.291   0.548  1.7561  0.1636 -1.1146
17027SOL     OW52296   5.724   5.961   0.609  0.2795 -0.0655 -0.0081
17027SOL    HW152297   5.801   5.926   0.564  0.2546  0.2870 -0.3265
17027SOL    HW252298   5.686   6.024   0.548 -1.2544 -1.4630 -0.5602
17028SOL     OW52299   6.248   5.969   0.884  0.4023  0.3516  0.0160
17028SOL    HW152300   6.339   5.946   0.864  0.5645 -0.4376  1.4762
17028SOL    HW252301   6.246   5.974   0.980 -0.8544  1.4446 -0.0485
17029SOL     OW52302   6.959   7.793   8.703 -0.1542  0.2011 -0.1321
17029SOL    HW152303   6.911   7.755   8.629 -0.7110  0.5877  0.0268
17029SOL    HW252304   7.042   7.746   8.703 -0.7007 -0.8040 -0.1355
17030SOL     OW52305   6.506   5.823   1.407 -0.0518  0.2205  0.7559
17030SOL    HW152306   6.430   5.769   1.384  1.0753 -0.4639 -1.6666
17030SOL    HW252307   6.477   5.913   1.395 -0.8263  0.0250  1.1092
17031SOL     OW52308   7.382   6.262   1.396 -0.0109 -0.3146  0.0855
17031SOL    HW152309   7.355   6.175   1.369 -0.4602 -0.2010  0.1671
17031SOL    HW252310   7.387   6.312   1.314  1.2964 -0.6958 -0.0867
17032SOL     OW52311   6.881   6.224   1.542 -0.1527 -0.0352 -0.2025
17032SOL    HW152312   6.879   6.292   1.610  0.4074 -0.6605  0.4544
17032SOL    HW252313   6.923   6.267   1.467  1.3302  0.0145  0.6188
17033SOL     OW52314   6.460   5.690   1.103 -0.1300 -0.4512 -0.1690
17033SOL    HW152315   6.530   5.716   1.043  0.0562  0.3204  0.3592
17033SOL    HW252316   6.404   5.768   1.109 -0.5191 -0.7493  0.1311
17034SOL     OW52317   6.035   5.875   8.671  0.5038  0.1423 -0.0213
17034SOL    HW152318   6.022   5.783   8.693 -0.1188  0.1788 -0.2139
17034SOL    HW252319   5.965   5.920   8.717  0.5501  0.4740 -0.2748
17035SOL     OW52320   5.353   6.420   0.819  0.0315 -0.4487 -0.2795
17035SOL    HW152321   5.271   6.414   0.869 -0.3676 -0.6559 -0.9354
17035SOL    HW252322   5.409   6.476   0.872 -0.8883  0.5153 -0.2895
17036SOL     OW52323   5.732   7.570   1.248 -0.4281  0.3624  0.1508
17036SOL    HW152324   5.699   7.522   1.171  2.2601 -0.9866 -0.2791
17036SOL    HW252325   5.801   7.627   1.213  0.3657  0.2383  1.4548
17037SOL     OW52326   6.233   5.630   0.163  0.2245 -0.7982 -0.1713
17037SOL    HW152327   6.174   5.596   0.231 -2.1411 -0.5267 -1.9505
17037SOL    HW252328   6.222   5.725   0.168  1.0187 -0.7022 -0.1327
17038SOL     OW52329   7.525   6.090   1.821 -0.2056  0.7206  0.2430
17038SOL    HW152330   7.455   6.119   1.879 -0.6186  1.0957 -0.4375
17038SOL    HW252331   7.486   6.018   1.771  0.4894 -0.3612  1.1857
17039SOL     OW52332   6.586   6.677   0.257  0.1085 -0.1204 -0.4125
17039SOL    HW152333   6.514   6.615   0.240  1.3805 -2.2760  1.4339
17039SOL    HW252334   6.636   6.679   0.176 -0.6260 -0.5964 -0.8873
17040SOL     OW52335   6.245   5.472   1.178  0.2989 -0.1336  0.2665
17040SOL    HW152336   6.235   5.457   1.272 -2.9324 -0.1446  0.0325
17040SOL    HW252337   6.307   5.544   1.171  0.0603  0.3479  2.4598
17041SOL     OW52338   6.604   6.911   8.700 -0.7814 -0.3100  0.2393
17041SOL    HW152339   6.620   6.909   8.794 -1.0644  0.7194  0.3191
17041SOL    HW252340   6.652   6.834   8.666 -0.8569 -0.8113  1.2330
17042SOL     OW52341   6.076   7.330   0.520  0.1096  0.0119  0.3469
17042SOL    HW152342   6.135   7.361   0.452  1.1526 -2.2487  0.1064
17042SOL    HW252343   6.131   7.323   0.598  0.1228 -1.7566  0.2176
17043SOL     OW52344   7.293   6.806   0.828  0.2498 -0.9531 -0.1601
17043SOL    HW152345   7.301   6.763   0.743  0.6129  0.1220 -0.6973
17043SOL    HW252346   7.379   6.795   0.868  0.1259 -1.3306  0.0023
17044SOL     OW52347   6.800   7.135   1.703 -0.3837  0.0544 -0.0072
17044SOL    HW152348   6.792   7.075   1.776  0.4485 -0.8171 -0.6094
17044SOL    HW252349   6.894   7.137   1.683 -0.6729 -0.3740 -1.5507
17045SOL     OW52350   5.912   6.349   0.041 -0.2223  0.4314 -0.1548
17045SOL    HW152351   5.842   6.306  -0.008 -0.4994 -0.1622  0.7496
17045SOL    HW252352   5.988   6.292   0.029  0.0787  0.9919 -1.0024
17046SOL     OW52353   6.846   6.073   0.334 -0.3567 -0.0382  0.4331
17046SOL    HW152354   6.832   5.986   0.299  1.1706  0.1889 -0.8600
17046SOL    HW252355   6.759   6.103   0.362 -1.1634 -1.3168 -0.6248
17047SOL     OW52356   5.981   6.791   1.555  0.4659 -0.2175 -0.5272
17047SOL    HW152357   5.896   6.825   1.580  1.0144  0.0871  1.0252
17047SOL    HW252358   5.967   6.751   1.469 -1.1849 -0.0276 -0.3684
17048SOL     OW52359   6.610   7.584   8.429 -0.1148 -1.0775 -0.5060
17048SOL    HW152360   6.582   7.534   8.506  0.6256  0.1830  0.6279
17048SOL    HW252361   6.579   7.533   8.354 -0.3743 -2.6234  0.6137
17049SOL     OW52362   5.633   5.882   1.387  0.8795  0.4428  0.2276
17049SOL    HW152363   5.583   5.839   1.317  0.8096  1.3586 -0.3061
17049SOL    HW252364   5.592   5.851   1.468  0.1801  0.2960 -0.1721
17050SOL     OW52365   7.495   7.266   8.834 -0.8041  0.3766 -0.3907
17050SOL    HW152366   7.565   7.250   8.770 -0.9080 -0.5915 -0.2747
17050SOL    HW252367   7.415   7.273   8.782 -0.7677  0.4459 -0.4378
17051SOL     OW52368   5.738   7.057   0.218  0.1582 -0.2803 -0.1639
17051SOL    HW152369   5.810   6.999   0.193  0.8058 -0.1514  1.2536
17051SOL    HW252370   5.770   7.145   0.198  0.7575 -0.1622  1.1976
17052SOL     OW52371   6.648   5.697   8.548  0.1676  0.3323 -0.0817
17052SOL    HW152372   6.574   5.693   8.487  0.0778 -2.6428  0.0605
17052SOL    HW252373   6.722   5.666   8.496  0.3263 -1.1247  0.9755
17053SOL     OW52374   6.006   7.195   1.163  0.3654  0.1368  0.0740
17053SOL    HW152375   6.089   7.149   1.149 -0.0060 -0.8242  0.9150
17053SOL    HW252376   5.949   7.164   1.092  0.3506 -0.1433  0.2055
17054SOL     OW52377   6.489   6.804   0.470 -0.4259  0.0434  0.0947
17054SOL    HW152378   6.406   6.757   0.464 -0.7002  0.5897 -0.4660
17054SOL    HW252379   6.537   6.777   0.391 -1.2629  1.9733 -1.1269
17055SOL     OW52380   5.699   6.335   0.705  0.2444  0.3813 -0.6614
17055SOL    HW152381   5.663   6.312   0.620 -1.2116  1.5545 -0.4135
17055SOL    HW252382   5.623   6.334   0.764  1.2777 -0.7832  0.7229
17056SOL     OW52383   6.715   5.868   1.742  0.3389 -0.0087  0.2290
17056SOL    HW152384   6.734   5.954   1.779  2.0798 -0.5150  0.5855
17056SOL    HW252385   6.624   5.851   1.766  0.2839  1.2821  1.0195
17057SOL     OW52386   6.157   5.457   1.741  0.0659 -0.1836  0.3481
17057SOL    HW152387   6.194   5.438   1.655  1.3848  0.6826  0.6877
17057SOL    HW252388   6.099   5.532   1.726 -0.1649 -0.4067  0.1184
17058SOL     OW52389   6.753   6.609   1.027 -0.3801  0.8130 -0.1650
17058SOL    HW152390   6.809   6.548   0.979 -0.2487  1.1582 -0.4516
17058SOL    HW252391   6.776   6.695   0.993 -1.1234  0.9547 -0.3182
17059SOL     OW52392   6.963   5.646   1.304 -0.3122 -0.3308  0.3939
17059SOL    HW152393   7.025   5.664   1.374  0.6313  0.9484 -0.7224
17059SOL    HW252394   6.877   5.656   1.345  0.1845 -1.6726  1.8478
17060SOL     OW52395   6.519   6.477   1.055 -0.0546  0.2006 -0.2013
17060SOL    HW152396   6.603   6.523   1.050  0.5078 -0.1847  3.3791
17060SOL    HW252397   6.454   6.547   1.059  0.1194  0.5034 -1.7271
17061SOL     OW52398   6.393   5.589   0.798  0.0396 -0.2523  0.9096
17061SOL    HW152399   6.421   5.641   0.722 -1.9301 -1.4607 -0.7332
17061SOL    HW252400   6.470   5.537   0.820  1.0186  0.9775  0.5386
17062SOL     OW52401   5.871   5.237   0.419  0.4004 -0.4925  0.4833
17062SOL    HW152402   5.830   5.303   0.363  1.3578  0.1377  0.5072
17062SOL    HW252403   5.841   5.259   0.507  0.1938 -0.4945  0.4148
17063SOL     OW52404   6.886   6.354   8.781  0.0740 -0.2467 -0.3139
17063SOL    HW152405   6.931   6.304   8.849  0.2318  1.7038  1.0976
17063SOL    HW252406   6.948   6.354   8.707  0.5075 -1.2068  0.0307
17064SOL     OW52407   6.343   5.799   8.746  0.3920 -0.3564 -0.2132
17064SOL    HW152408   6.269   5.744   8.722  1.5642 -1.8669 -0.4951
17064SOL    HW252409   6.367   5.844   8.665  0.3069 -0.5084 -0.3234
17065SOL     OW52410   6.725   5.655   1.414  0.3308 -0.2763 -0.1849
17065SOL    HW152411   6.650   5.714   1.427  0.2410 -0.6474  1.0878
17065SOL    HW252412   6.692   5.589   1.353 -0.1430 -0.0190 -0.2160
17066SOL     OW52413   6.799   6.678   0.420 -0.7863 -0.4475  0.9593
17066SOL    HW152414   6.789   6.586   0.395  0.6989 -0.2531 -0.5446
17066SOL    HW252415   6.715   6.718   0.396 -1.3121 -1.3284  1.2778
17067SOL     OW52416   5.728   6.820   0.815 -0.9459 -0.5660  0.1004
17067SOL    HW152417   5.705   6.728   0.826 -0.7119 -0.7432 -0.8056
17067SOL    HW252418   5.823   6.822   0.823 -1.0428 -0.2048  1.3704
17068SOL     OW52419   6.142   7.132   0.273  0.0227 -0.2147  0.5108
17068SOL    HW152420   6.180   7.215   0.247 -0.1922 -0.2809 -0.0151
17068SOL    HW252421   6.053   7.154   0.302  0.1683 -0.1803  0.9475
17069SOL     OW52422   6.105   5.613   8.760 -0.8592  0.0252  0.0594
17069SOL    HW152423   6.070   5.537   8.713 -0.7708 -1.0859  1.7156
17069SOL    HW252424   6.165   5.575   8.824 -2.2823  1.3096  2.2469
17070SOL     OW52425   5.828   5.946   1.172  0.2512  0.0080  0.3950
17070SOL    HW152426   5.759   5.952   1.237 -0.3964 -2.5146  0.0630
17070SOL    HW252427   5.900   5.901   1.217  0.7266  0.4067  0.0431
17071SOL     OW52428   5.954   5.427   1.166  0.8624 -0.3349  0.1813
17071SOL    HW152429   5.936   5.349   1.113  2.1090 -0.4797 -0.0585
17071SOL    HW252430   6.045   5.449   1.145  1.1185  0.0852  1.6494
17072SOL     OW52431   6.194   5.834   0.505 -0.3501 -0.1841 -0.3261
17072SOL    HW152432   6.169   5.766   0.567  2.6922 -1.4857 -0.3551
17072SOL    HW252433   6.120   5.840   0.444 -2.4163 -0.5338  1.9824
17073SOL     OW52434   6.480   5.763   0.594 -0.3966  0.1242 -0.3544
17073SOL    HW152435   6.419   5.756   0.521  1.1139  0.4549 -1.6938
17073SOL    HW252436   6.566   5.743   0.556  0.5632  1.2717  1.1023
17074SOL     OW52437   7.365   6.772   0.513  0.5372 -0.0017  0.7417
17074SOL    HW152438   7.307   6.828   0.460 -0.0160 -0.5911  0.7136
17074SOL    HW252439   7.434   6.745   0.453  1.0185  0.9382  0.8466
17075SOL     OW52440   6.901   6.426   0.786  0.1771 -0.2455  0.0319
17075SOL    HW152441   6.922   6.408   0.694  0.5204 -1.0456  0.2568
17075SOL    HW252442   6.819   6.380   0.802  0.9090 -1.4135  0.5325
17076SOL     OW52443   7.569   7.028   0.302  0.3669  0.3232  0.2163
17076SOL    HW152444   7.476   7.048   0.295  0.3770  0.5638  0.7369
17076SOL    HW252445   7.582   6.955   0.242  0.0866  1.0740 -0.7931
17077SOL     OW52446   5.992   6.605   0.009  0.5363 -0.0504  0.2948
17077SOL    HW152447   6.059   6.561  -0.043 -0.3883 -0.0144 -0.9953
17077SOL    HW252448   5.943   6.534   0.050  0.6298 -0.1261  0.2764
17078SOL     OW52449   7.200   7.517   0.468  0.3664 -0.0996 -0.4225
17078SOL    HW152450   7.185   7.572   0.390  0.3640 -0.5219 -0.7244
17078SOL    HW252451   7.154   7.436   0.448  0.5671 -0.2981 -0.0756
17079SOL     OW52452   6.523   6.195   8.147  0.4918 -0.8442 -0.2212
17079SOL    HW152453   6.539   6.143   8.225 -0.1936 -0.0663  0.4599
17079SOL    HW252454   6.481   6.275   8.179 -0.4008 -0.7853 -1.4427
17080SOL     OW52455   5.982   5.786   0.315  0.0193  0.5027  0.1902
17080SOL    HW152456   5.898   5.823   0.289  0.2616  0.1057 -1.2455
17080SOL    HW252457   5.966   5.692   0.322  0.3306  0.4283 -0.0617
17081SOL     OW52458   7.396   6.720   1.789 -0.0283  0.5127 -0.3703
17081SOL    HW152459   7.430   6.637   1.823 -0.8754  0.8619  1.4840
17081SOL    HW252460   7.302   6.705   1.778 -0.0203  0.9199 -1.0248
17082SOL     OW52461   6.749   6.950   1.910 -0.4139  0.1334 -0.3407
17082SOL    HW152462   6.775   6.991   1.993 -0.0813 -1.3652  0.3384
17082SOL    HW252463   6.660   6.980   1.895 -0.2733  0.8891  0.2550
17083SOL     OW52464   7.063   7.180   1.682  0.4354  0.1481  0.5764
17083SOL    HW152465   7.120   7.124   1.628 -1.6003 -1.3709 -0.1065
17083SOL    HW252466   7.065   7.139   1.768  0.1295 -0.1117  0.4630
17084SOL     OW52467   6.595   6.661   0.732 -0.6568 -0.2317  0.0972
17084SOL    HW152468   6.639   6.690   0.652  0.2112  1.7840  1.2151
17084SOL    HW252469   6.613   6.568   0.737 -1.6721 -0.6564 -2.5953
17085SOL     OW52470   7.385   6.381   1.144 -0.1509 -0.4334  0.0380
17085SOL    HW152471   7.459   6.441   1.136  0.6539 -1.3861  0.1339
17085SOL    HW252472   7.379   6.338   1.059 -0.1688 -0.8261  0.2323
17086SOL     OW52473   6.302   5.294   0.951 -0.4779 -0.2183 -0.4560
17086SOL    HW152474   6.284   5.359   1.020 -2.2956 -0.8339 -0.3081
17086SOL    HW252475   6.322   5.214   0.999  0.9591  0.0055 -0.6485
17087SOL     OW52476   6.398   6.373   1.629 -0.1950  0.1826  0.0804
17087SOL    HW152477   6.343   6.386   1.707  1.2421  0.3280  1.0934
17087SOL    HW252478   6.436   6.286   1.641 -0.1595  0.0996 -0.5997
17088SOL     OW52479   6.293   6.411   0.264 -0.5564  0.6061 -0.4264
17088SOL    HW152480   6.202   6.380   0.265 -0.2944 -0.2002  1.1128
17088SOL    HW252481   6.303   6.458   0.346  0.3035  1.0778 -0.7923
17089SOL     OW52482   6.348   5.950   1.140  0.2761 -0.3189  0.8789
17089SOL    HW152483   6.409   5.991   1.202 -0.3996  0.0380  1.3157
17089SOL    HW252484   6.275   5.920   1.194  0.3473 -1.3213  0.4388
17090SOL     OW52485   6.517   5.941   0.817  0.4920  0.0076 -0.2486
17090SOL    HW152486   6.515   5.879   0.744  0.9709  1.5742 -1.6314
17090SOL    HW252487   6.583   5.905   0.876  1.1587 -0.5270 -1.2873
17091SOL     OW52488   5.807   6.907   1.206  0.0664  0.2447 -0.0713
17091SOL    HW152489   5.886   6.919   1.153  1.2402  1.4453  1.8231
17091SOL    HW252490   5.816   6.819   1.242  0.9573  0.6116  0.6758
17092SOL     OW52491   6.208   6.089   0.663  0.3452  0.4446  0.2205
17092SOL    HW152492   6.203   6.063   0.755  0.6135 -0.4843 -0.0183
17092SOL    HW252493   6.197   6.008   0.614 -0.3424  1.0064 -0.5851
17093SOL     OW52494   6.154   5.669   0.905 -0.1517  0.1541 -0.1337
17093SOL    HW152495   6.182   5.760   0.898  2.1486 -0.4805  0.2783
17093SOL    HW252496   6.233   5.617   0.892 -1.2629 -1.7921  0.3552
17094SOL     OW52497   6.630   6.938   0.110 -0.0175 -0.3688  0.2407
17094SOL    HW152498   6.555   6.940   0.170  1.5017 -0.1799  2.2388
17094SOL    HW252499   6.690   7.005   0.144  1.1658 -0.6769 -1.1514
17095SOL     OW52500   6.837   6.809   0.859 -0.0136 -0.1922  0.6416
17095SOL    HW152501   6.837   6.905   0.859 -0.3486 -0.1812 -0.5916
17095SOL    HW252502   6.879   6.785   0.776 -0.0940 -1.1134  0.8605
17096SOL     OW52503   7.079   6.177   0.447 -0.0393  0.1542 -0.4800
17096SOL    HW152504   6.994   6.136   0.429 -0.1380  0.1658 -0.0586
17096SOL    HW252505   7.058   6.269   0.461 -0.0925  0.0063  0.5255
17097SOL     OW52506   5.585   6.828   1.051  0.7788 -0.4262 -0.1728
17097SOL    HW152507   5.600   6.868   0.965 -1.5135  0.5948 -0.1871
17097SOL    HW252508   5.659   6.857   1.104  1.5909 -0.0317 -1.4799
17098SOL     OW52509   6.184   5.904   1.734 -0.3398 -0.0776 -0.0683
17098SOL    HW152510   6.130   5.834   1.698  0.7168 -0.8334 -0.2265
17098SOL    HW252511   6.137   5.984   1.712 -0.0749 -0.5417 -2.5334
17099SOL     OW52512   7.270   6.469   2.067  0.0418 -0.3402  0.1403
17099SOL    HW152513   7.335   6.441   2.002  0.2936  1.9116 -0.7049
17099SOL    HW252514   7.313   6.457   2.151  0.5663 -1.2778 -0.2488
17100SOL     OW52515   6.744   5.383   1.762  0.0074  0.0405  0.0413
17100SOL    HW152516   6.682   5.324   1.804  0.0793  0.3316  0.5550
17100SOL    HW252517   6.690   5.451   1.722 -0.2044 -1.1586 -1.8828
17101SOL     OW52518   5.994   5.711   1.639 -0.4770  0.0325 -0.3082
17101SOL    HW152519   5.928   5.649   1.672  0.1997 -0.5192  0.0186
17101SOL    HW252520   5.969   5.725   1.547 -0.1926 -1.3230 -0.6112
17102SOL     OW52521   6.020   6.454   1.224  0.0394 -0.0207  0.0820
17102SOL    HW152522   6.097   6.465   1.279 -0.1410 -0.8098  0.4985
17102SOL    HW252523   6.005   6.359   1.221 -0.9516  0.1240  0.0604
17103SOL     OW52524   6.737   6.087   1.125 -0.0548  0.4442 -0.0327
17103SOL    HW152525   6.720   6.160   1.185 -1.6158 -0.2192  0.4076
17103SOL    HW252526   6.748   6.011   1.183 -1.7132 -0.2314 -0.5309
17104SOL     OW52527   6.161   5.914   0.148 -0.3989  0.2199  0.5722
17104SOL    HW152528   6.204   5.933   0.065  1.2795 -2.4518  0.7353
17104SOL    HW252529   6.072   5.889   0.124 -0.3739  0.8565 -0.2437
17105SOL     OW52530   5.915   5.557   1.415  0.1749 -0.3895 -0.4946
17105SOL    HW152531   5.830   5.518   1.436 -0.5115  0.3412 -1.7444
17105SOL    HW252532   5.938   5.519   1.330 -0.4527  1.7243 -1.6881
17106SOL     OW52533   5.708   6.429   1.368  0.6345 -0.7155  0.4735
17106SOL    HW152534   5.620   6.422   1.406  0.5113  1.1546  0.6105
17106SOL    HW252535   5.758   6.360   1.412 -0.1475 -0.2439  2.1898
17107SOL     OW52536   5.976   6.720   0.756 -0.6640 -0.2186  0.3123
17107SOL    HW152537   5.952   6.638   0.712 -2.2400 -0.5158  1.6406
17107SOL    HW252538   6.038   6.762   0.696 -0.7464 -1.8132 -0.9544
17108SOL     OW52539   7.722   6.879   1.967  0.0598  0.4021 -0.0879
17108SOL    HW152540   7.784   6.948   1.944 -0.1562  1.4973  2.3443
17108SOL    HW252541   7.765   6.830   2.037 -1.1616  0.1646  0.5231
17109SOL     OW52542   5.569   5.714   0.473  0.0200  0.3144  0.0426
17109SOL    HW152543   5.652   5.711   0.520 -0.1930 -1.6923  0.3554
17109SOL    HW252544   5.510   5.764   0.530  0.0333 -1.2754  1.5068
17110SOL     OW52545   7.240   6.070   8.578  0.5019 -0.0121 -0.0865
17110SOL    HW152546   7.320   6.082   8.629 -0.3478  1.6446  0.9490
17110SOL    HW252547   7.190   6.150   8.592 -0.6025 -0.2813 -2.0905
17111SOL     OW52548   6.627   6.389   0.808 -0.9841 -0.0711 -0.0680
17111SOL    HW152549   6.577   6.402   0.889  0.0024 -0.4092  0.6149
17111SOL    HW252550   6.578   6.323   0.760 -1.9198  0.5925 -0.0417
17112SOL     OW52551   6.583   6.791   1.715 -0.0168 -0.8441 -0.0071
17112SOL    HW152552   6.650   6.821   1.776  0.7560 -1.7751 -0.3639
17112SOL    HW252553   6.609   6.701   1.693 -0.9078 -0.9226 -0.8176
17113SOL     OW52554   7.606   7.264   1.298  0.9633  0.1499 -0.1370
17113SOL    HW152555   7.612   7.187   1.355  0.3492  0.3105  0.1563
17113SOL    HW252556   7.601   7.338   1.359  1.7795  0.4552 -0.4157
17114SOL     OW52557   6.237   6.427   1.411 -0.0669  0.6209 -0.7223
17114SOL    HW152558   6.299   6.386   1.351 -0.0087  0.0665 -0.2886
17114SOL    HW252559   6.284   6.432   1.495 -0.9956 -0.9369 -0.0484
17115SOL     OW52560   6.855   6.164   8.498  0.0083  0.3555 -0.8464
17115SOL    HW152561   6.888   6.080   8.469  0.6944  0.3818 -0.1686
17115SOL    HW252562   6.813   6.146   8.583  1.5302  0.9349  0.0703
17116SOL     OW52563   6.773   6.635   8.416  0.2481 -0.4313 -0.2983
17116SOL    HW152564   6.786   6.556   8.363 -0.2927  0.2232 -1.4465
17116SOL    HW252565   6.861   6.669   8.429  0.2995  0.6572 -2.8170
17117SOL     OW52566   7.024   6.452   0.523  1.0776 -0.4104  0.3708
17117SOL    HW152567   7.091   6.468   0.589  0.3327  0.4943  0.9358
17117SOL    HW252568   7.039   6.520   0.457 -0.2940  0.8824  1.3340
17118SOL     OW52569   5.694   6.440   1.089  0.2934 -0.2054 -0.3762
17118SOL    HW152570   5.689   6.442   1.185  1.3333  1.1027 -0.3159
17118SOL    HW252571   5.788   6.430   1.070  0.0710 -0.7355 -1.2657
17119SOL     OW52572   5.667   5.906   0.948 -0.1906  0.3104 -0.6437
17119SOL    HW152573   5.687   5.980   0.891 -0.2327  0.6147 -0.2694
17119SOL    HW252574   5.732   5.911   1.018  0.6353 -0.7827 -1.3076
17120SOL     OW52575   6.675   5.755   0.966 -0.0851 -0.4595 -0.8386
17120SOL    HW152576   6.765   5.772   0.991 -0.3824 -2.1686  1.8640
17120SOL    HW252577   6.680   5.684   0.902  0.5010  0.5997 -2.0111
17121SOL     OW52578   6.618   5.474   1.217  0.2485  0.3909 -0.2184
17121SOL    HW152579   6.566   5.551   1.196  1.8854  1.9422  1.1036
17121SOL    HW252580   6.670   5.458   1.137 -0.2243  0.5182 -0.5553
17122SOL     OW52581   5.498   7.414   0.668 -0.1357 -0.3354  0.4421
17122SOL    HW152582   5.554   7.481   0.629 -1.4949  1.0872  0.8404
17122SOL    HW252583   5.425   7.463   0.706 -0.9335 -2.0180  1.1633
17123SOL     OW52584   6.270   7.138   1.021 -0.5863 -0.2926  0.4576
17123SOL    HW152585   6.317   7.073   1.074  0.2022 -0.7036 -0.7132
17123SOL    HW252586   6.263   7.097   0.935 -1.2283  0.6582  0.0511
17124SOL     OW52587   6.821   5.981   1.372  0.2632  0.3419  0.0846
17124SOL    HW152588   6.831   6.057   1.430  1.0166 -0.5197  1.1218
17124SOL    HW252589   6.753   5.928   1.414  2.1733 -1.2487  1.3093
17125SOL     OW52590   5.788   6.139   0.908 -0.1676 -1.0202 -0.2899
17125SOL    HW152591   5.875   6.157   0.943 -0.2555 -1.6756  0.2841
17125SOL    HW252592   5.802   6.130   0.814  0.3477 -0.9070 -0.2306
17126SOL     OW52593   5.992   6.484   1.557  0.0211  0.0726  0.1858
17126SOL    HW152594   6.085   6.487   1.536  0.1072  1.8201  0.6857
17126SOL    HW252595   5.953   6.557   1.508 -0.8504  0.2126  1.0432
17127SOL     OW52596   6.929   6.375   1.784 -0.2815 -0.4224 -0.3535
17127SOL    HW152597   6.905   6.361   1.875  0.4663  1.0206  0.0957
17127SOL    HW252598   7.025   6.380   1.784 -0.2218 -1.2645 -1.3570
17128SOL     OW52599   5.864   6.105   0.278 -0.0449  0.1046  0.6408
17128SOL    HW152600   5.810   6.026   0.285 -2.2205  1.5211  0.4742
17128SOL    HW252601   5.885   6.111   0.184 -1.1177  0.5147  0.4238
17129SOL     OW52602   6.960   6.061   0.986  0.1596 -0.2210 -0.3337
17129SOL    HW152603   6.923   6.004   0.918 -1.4578  0.9340 -0.4738
17129SOL    HW252604   6.884   6.104   1.025  1.2805  1.2686  0.2898
17130SOL     OW52605   5.728   6.852   1.571 -0.1099  0.0079  0.1484
17130SOL    HW152606   5.677   6.771   1.578 -0.5527  0.0652 -1.9342
17130SOL    HW252607   5.693   6.896   1.494  1.6537  1.1015 -0.0784
17131SOL     OW52608   6.093   6.225   0.908  0.0188 -0.2890 -0.3617
17131SOL    HW152609   6.135   6.309   0.888 -0.6622  0.6488  1.7810
17131SOL    HW252610   6.092   6.178   0.825  0.2811  1.8857 -1.6775
17132SOL     OW52611   6.562   7.306   1.214 -0.1627  0.2370  0.0003
17132SOL    HW152612   6.540   7.370   1.283 -1.4614  0.3005 -0.4354
17132SOL    HW252613   6.657   7.308   1.210 -0.1134  1.2433  0.8543
17133SOL     OW52614   5.713   5.869   0.293  0.1488  0.0127 -0.4400
17133SOL    HW152615   5.691   5.855   0.201 -2.0522 -0.2273  0.0558
17133SOL    HW252616   5.647   5.818   0.341  1.4912 -0.1903  1.2725
17134SOL     OW52617   5.575   6.624   1.834  0.3267 -0.7859  0.4846
17134SOL    HW152618   5.660   6.670   1.836 -0.3940  0.7539 -1.1286
17134SOL    HW252619   5.597   6.534   1.809  1.5429 -0.6039  0.8262
17135SOL     OW52620   7.081   5.976   1.205 -0.2798 -0.1526 -0.3569
17135SOL    HW152621   7.005   5.961   1.262  0.2346 -1.0099  0.1135
17135SOL    HW252622   7.042   6.002   1.121 -1.0481  1.0611  0.3389
17136SOL     OW52623   6.593   6.379   8.708  0.2097  0.1606 -0.0586
17136SOL    HW152624   6.553   6.409   8.790 -0.0269 -0.7838  0.1895
17136SOL    HW252625   6.681   6.350   8.733  0.1750 -0.0315 -0.1545
17137SOL     OW52626   7.053   7.005   1.418  0.4445  0.0084 -0.1706
17137SOL    HW152627   7.024   6.913   1.413  0.7195 -0.2330  1.8913
17137SOL    HW252628   6.971   7.055   1.420  0.1632 -0.4426  1.9594
17138SOL     OW52629   7.051   6.963   0.555  0.5026 -0.4639 -0.4113
17138SOL    HW152630   7.114   6.939   0.487 -0.7069 -2.9138 -0.7861
17138SOL    HW252631   7.028   6.879   0.596 -2.1855  0.3862 -0.0383
17139SOL     OW52632   5.376   6.947   1.137 -0.2907  0.1560  0.2069
17139SOL    HW152633   5.311   6.879   1.155  0.8180 -1.1882 -0.6641
17139SOL    HW252634   5.460   6.900   1.135  0.7147  1.8101  1.1512
17140SOL     OW52635   6.298   7.341   1.586 -0.2547  0.1460 -0.5033
17140SOL    HW152636   6.313   7.355   1.679  1.2306  0.7610 -0.8159
17140SOL    HW252637   6.340   7.257   1.566 -0.9580 -0.2052 -0.5411
17141SOL     OW52638   6.039   5.512   8.453 -1.3470  0.1058  0.2256
17141SOL    HW152639   6.019   5.571   8.380 -3.7403 -1.5254 -0.5467
17141SOL    HW252640   6.113   5.460   8.422  0.3602  2.1194  0.6585
17142SOL     OW52641   6.889   5.928   8.352 -0.1595 -0.1829  0.2336
17142SOL    HW152642   6.936   5.931   8.269  1.2381 -1.0056  0.9434
17142SOL    HW252643   6.949   5.883   8.412 -1.0131  0.6186  1.7642
17143SOL     OW52644   6.390   7.004   0.233 -0.8107 -0.2490 -0.3966
17143SOL    HW152645   6.421   7.033   0.319 -0.8314  0.6804 -0.6929
17143SOL    HW252646   6.296   7.019   0.235 -0.8861 -0.6961 -0.4102
17144SOL     OW52647   5.664   7.545   1.832 -0.1729  0.2058 -0.0770
17144SOL    HW152648   5.715   7.609   1.782 -0.5828  1.0653  0.5779
17144SOL    HW252649   5.727   7.477   1.856  0.2957  0.4203 -0.6862
17145SOL     OW52650   6.606   6.172   0.439  0.7148 -0.0768  0.0538
17145SOL    HW152651   6.566   6.191   0.524  1.8047 -5.5296  2.2105
17145SOL    HW252652   6.540   6.122   0.392 -0.1079  3.3617 -2.9097
17146SOL     OW52653   6.765   6.710   1.300  0.4480 -0.7068  0.2992
17146SOL    HW152654   6.674   6.696   1.328  0.2311  1.7063  1.0244
17146SOL    HW252655   6.773   6.656   1.221 -1.5527 -1.1638  0.3343
17147SOL     OW52656   6.314   7.288   8.599  0.6973  0.2568  0.2110
17147SOL    HW152657   6.290   7.317   8.511  0.1999  0.0602  0.2734
17147SOL    HW252658   6.327   7.194   8.591 -0.8387 -0.0318  0.6272
17148SOL     OW52659   7.040   7.160   0.848 -0.3930 -0.2699 -0.3589
17148SOL    HW152660   7.129   7.196   0.850 -0.3446 -0.4299  0.7378
17148SOL    HW252661   7.025   7.139   0.755  0.7351 -0.3070 -0.5460
17149SOL     OW52662   7.016   5.566   0.234  0.4850  0.1042  0.3052
17149SOL    HW152663   6.962   5.490   0.259  1.3618 -0.4836  0.4650
17149SOL    HW252664   7.010   5.569   0.139 -0.4931  0.5490  0.3751
17150SOL     OW52665   5.834   5.622   0.632  0.1147  0.3132 -0.6929
17150SOL    HW152666   5.766   5.623   0.699  0.0557 -0.7938 -0.7047
17150SOL    HW252667   5.903   5.567   0.668  1.1535  1.6628 -0.5633
17151SOL     OW52668   7.187   6.894   0.318  0.2149  0.5892 -0.2104
17151SOL    HW152669   7.101   6.857   0.299 -0.6779  0.6949  3.0881
17151SOL    HW252670   7.201   6.958   0.248 -1.9792 -0.0251 -1.3080
17152SOL     OW52671   6.486   6.307   1.268 -0.3397  0.5798 -0.2439
17152SOL    HW152672   6.574   6.320   1.303 -0.4590  1.2994 -0.1989
17152SOL    HW252673   6.485   6.358   1.187 -0.3819 -0.2847 -0.8073
17153SOL     OW52674   6.407   6.126   8.746  0.2975  0.1473  0.2911
17153SOL    HW152675   6.455   6.056   8.702  0.5985  0.1449  0.6212
17153SOL    HW252676   6.455   6.206   8.725  0.3179  0.1742  0.4363
17154SOL     OW52677   7.381   7.864   0.028  0.3519  0.0739  0.1822
17154SOL    HW152678   7.290   7.868   0.058  0.0372 -1.7135 -0.3891
17154SOL    HW252679   7.395   7.771   0.009  2.9335 -0.0453  2.1584
17155SOL     OW52680   5.759   7.259   1.537  0.4654 -0.5112  0.0385
17155SOL    HW152681   5.740   7.179   1.487  0.7228 -0.4355 -0.1838
17155SOL    HW252682   5.842   7.291   1.501  0.8479 -0.6583  0.7843
17156SOL     OW52683   6.979   6.736   1.473  0.5901 -0.5651 -0.0926
17156SOL    HW152684   6.895   6.741   1.428  0.9552 -1.3850 -0.8804
17156SOL    HW252685   7.032   6.678   1.419  2.3170  1.4094 -0.6525
17157SOL     OW52686   6.563   6.374   0.137  0.3340 -0.2709 -0.2675
17157SOL    HW152687   6.596   6.285   0.128  0.4939 -0.1584 -0.8200
17157SOL    HW252688   6.472   6.363   0.165 -0.0727 -0.6512 -1.6426
17158SOL     OW52689   6.609   6.035   0.117 -0.2608 -0.1234 -0.2470
17158SOL    HW152690   6.516   6.054   0.106 -0.3350  0.0749  0.6693
17158SOL    HW252691   6.613   5.977   0.194  0.4632  0.7264  0.3744
17159SOL     OW52692   6.121   6.755   0.300 -0.1441  0.0653  0.0463
17159SOL    HW152693   6.188   6.718   0.242 -0.8107 -0.7175 -0.2544
17159SOL    HW252694   6.064   6.805   0.242  1.0178  2.0204  0.5206
17160SOL     OW52695   7.011   5.743   1.570  0.1144 -0.5387  0.0141
17160SOL    HW152696   7.079   5.804   1.543  1.2006 -1.2246  1.0705
17160SOL    HW252697   6.928   5.785   1.545  0.8725  0.8842 -0.1823
17161SOL     OW52698   5.842   6.605   0.437 -0.0352 -0.4009  0.5681
17161SOL    HW152699   5.902   6.658   0.385 -0.6277 -0.5858 -0.3229
17161SOL    HW252700   5.761   6.655   0.437  0.2938  0.1881  2.3479
17162SOL     OW52701   5.855   6.233   1.484 -0.0403 -0.4295  0.4362
17162SOL    HW152702   5.905   6.159   1.451  0.1767  0.1635 -0.6154
17162SOL    HW252703   5.921   6.295   1.515  0.0050  0.6800 -1.6379
17163SOL     OW52704   6.223   5.409   1.457  0.4337  0.1908  0.1227
17163SOL    HW152705   6.139   5.362   1.454  0.7397 -0.4498  1.0563
17163SOL    HW252706   6.289   5.340   1.467  0.8384  0.7962  2.2136
17164SOL     OW52707   5.301   5.781   8.740  0.2023 -0.9568  0.5342
17164SOL    HW152708   5.209   5.795   8.719  1.1213  1.2496 -2.7627
17164SOL    HW252709   5.322   5.850   8.803  0.2318  0.6228 -1.1147
17165SOL     OW52710   7.348   6.050   1.234 -0.0797  0.8249 -0.0826
17165SOL    HW152711   7.355   6.092   1.148 -0.3727  1.8482  0.3697
17165SOL    HW252712   7.255   6.030   1.243  0.0898 -0.1373 -0.3795
17166SOL     OW52713   5.451   5.649   0.214  0.2029 -0.7192 -0.3632
17166SOL    HW152714   5.410   5.734   0.195  0.8703 -0.1570  0.6557
17166SOL    HW252715   5.489   5.660   0.301  1.3522 -1.6772 -0.7343
17167SOL     OW52716   6.978   6.750   0.230  0.0274  0.9308  0.1152
17167SOL    HW152717   6.938   6.731   0.315 -1.0095  1.7894 -0.1537
17167SOL    HW252718   6.924   6.703   0.167 -1.6105  3.3458 -0.4020
17168SOL     OW52719   6.436   6.085   1.432  0.1507  0.0396  0.2088
17168SOL    HW152720   6.437   6.107   1.525 -1.5650 -0.9272  0.4926
17168SOL    HW252721   6.410   6.166   1.388  0.8425  0.4645  0.5771
17169SOL     OW52722   6.885   7.146   0.468 -0.1541 -0.6154 -0.2739
17169SOL    HW152723   6.943   7.100   0.528 -1.0148 -0.7493  0.4744
17169SOL    HW252724   6.841   7.076   0.419 -1.4277 -0.6263  0.8315
17170SOL     OW52725   6.080   5.866   1.284  0.2138  0.3535  0.2079
17170SOL    HW152726   6.056   5.915   1.363 -1.2556  0.2393 -0.1420
17170SOL    HW252727   6.117   5.784   1.317 -0.7194  0.1523  0.7819
17171SOL     OW52728   7.131   6.596   1.320 -0.5001  0.1876  1.0383
17171SOL    HW152729   7.129   6.611   1.226 -0.5368 -1.1490  0.8075
17171SOL    HW252730   7.224   6.582   1.340 -0.8139 -4.2503  0.3291
17172SOL     OW52731   5.801   7.558   1.555 -0.2748  0.4240  0.0717
17172SOL    HW152732   5.806   7.593   1.466 -1.8907  1.5567  0.3929
17172SOL    HW252733   5.733   7.491   1.550 -0.9508  1.0668  0.6350
17173SOL     OW52734   7.547   6.167   0.594  0.1565 -0.3482  0.5698
17173SOL    HW152735   7.452   6.173   0.597  0.0682 -0.8144 -0.8966
17173SOL    HW252736   7.575   6.204   0.678 -1.3338 -0.8891  1.3447
17174SOL     OW52737   6.505   5.946   8.554 -0.1112  0.2071  0.0948
17174SOL    HW152738   6.526   5.959   8.462  1.6902  1.4727  0.6436
17174SOL    HW252739   6.589   5.926   8.595 -0.9562 -0.8174  1.4039
17175SOL     OW52740   5.964   6.417   0.607 -0.8265 -0.2981 -0.5911
17175SOL    HW152741   5.880   6.396   0.647 -0.6721  1.4113  0.7015
17175SOL    HW252742   5.943   6.474   0.533 -0.7301  2.3404  1.2899
17176SOL     OW52743   7.086   6.011   1.883 -0.2972 -0.1604  0.1400
17176SOL    HW152744   6.991   6.015   1.889 -0.4964 -2.3071 -0.7110
17176SOL    HW252745   7.107   6.051   1.798 -0.4183  0.3704  0.3564
17177SOL     OW52746   7.337   6.813   1.487 -0.1376  0.0984  0.5968
17177SOL    HW152747   7.395   6.744   1.518 -0.1006 -0.5577 -0.8663
17177SOL    HW252748   7.293   6.845   1.566  1.2272 -0.2929  1.5445
17178SOL     OW52749   6.422   7.015   8.489 -0.0231  0.0252  0.0852
17178SOL    HW152750   6.502   7.000   8.539 -0.1306 -0.4510  0.1235
17178SOL    HW252751   6.405   6.931   8.445 -0.6956  0.0097  0.3651
17179SOL     OW52752   6.515   6.872   0.907  0.2198 -0.7750 -0.0823
17179SOL    HW152753   6.593   6.873   0.963  0.2358 -1.8600 -0.0571
17179SOL    HW252754   6.540   6.816   0.833 -0.4517 -0.9089 -0.2094
17180SOL     OW52755   6.298   6.722   0.746  0.7143 -0.5138  0.3816
17180SOL    HW152756   6.392   6.722   0.768  1.3140 -0.6946 -1.9685
17180SOL    HW252757   6.279   6.813   0.723 -0.2130 -0.0658  2.6414
17181SOL     OW52758   6.705   6.415   0.348 -0.4963 -0.2740 -0.0571
17181SOL    HW152759   6.661   6.335   0.376  1.7778 -2.7036 -2.7232
17181SOL    HW252760   6.658   6.442   0.269 -0.0600 -0.1472 -0.2774
17182SOL     OW52761   7.654   7.333   0.719 -0.0704 -0.0111 -0.7333
17182SOL    HW152762   7.580   7.360   0.664  1.1435  0.4303 -2.2350
17182SOL    HW252763   7.729   7.382   0.685  0.9924 -0.6871  0.5182
17183SOL     OW52764   5.875   6.546   1.805 -0.0781 -0.0033 -0.0331
17183SOL    HW152765   5.878   6.457   1.841  1.0410  0.8211  2.1072
17183SOL    HW252766   5.928   6.541   1.726 -1.9499 -1.7162 -1.2643
17184SOL     OW52767   5.356   6.759   0.619 -0.6418  0.4653  0.2401
17184SOL    HW152768   5.333   6.738   0.710 -0.6565  2.5427  0.7787
17184SOL    HW252769   5.319   6.847   0.605  1.1943  1.0959 -1.0573
17185SOL     OW52770   6.491   6.691   1.350  0.7061  0.0815  0.2266
17185SOL    HW152771   6.412   6.716   1.399  0.8695 -0.1599  0.6157
17185SOL    HW252772   6.466   6.703   1.258 -1.1925 -3.8067  0.0383
17186SOL     OW52773   6.879   5.901   0.782  0.1418  0.3305 -0.2367
17186SOL    HW152774   6.965   5.879   0.745  0.1486 -0.6790  0.3457
17186SOL    HW252775   6.819   5.893   0.708  0.5384  1.0584 -0.6521
17187SOL     OW52776   5.949   5.425   0.807 -0.1401  0.0053 -0.3109
17187SOL    HW152777   5.912   5.344   0.844 -1.3728  0.1485 -1.1874
17187SOL    HW252778   5.926   5.493   0.870  0.7717 -0.2833  0.3559
17188SOL     OW52779   7.146   6.651   1.050  0.3372 -0.1056 -0.4578
17188SOL    HW152780   7.223   6.707   1.058 -0.7555  1.6337 -1.5288
17188SOL    HW252781   7.124   6.654   0.957  0.5576 -2.8383 -0.6870
17189SOL     OW52782   6.016   6.179   1.168 -0.1683  0.5465  0.4833
17189SOL    HW152783   5.984   6.089   1.161  0.8624  0.0905  1.3716
17189SOL    HW252784   6.041   6.202   1.078 -3.3211  1.1117 -0.3588
17190SOL     OW52785   6.051   6.887   0.556 -0.0905  0.1818 -0.3483
17190SOL    HW152786   6.088   6.862   0.471 -1.2023  0.4676 -0.9380
17190SOL    HW252787   5.962   6.915   0.536 -0.4955 -0.0974  0.9758
17191SOL     OW52788   6.750   6.025   8.738  0.0970  0.1359 -0.4399
17191SOL    HW152789   6.705   6.022   8.822 -2.0309 -0.7004 -1.5415
17191SOL    HW252790   6.799   5.943   8.734  1.5826  0.9032  0.6154
17192SOL     OW52791   6.708   5.835   0.270 -0.1110 -0.1376  0.4339
17192SOL    HW152792   6.703   5.809   0.362 -0.5151 -0.7149  0.2566
17192SOL    HW252793   6.698   5.754   0.221 -2.6982  0.4373 -0.1618
17193SOL     OW52794   6.319   6.720   0.121 -0.2640  0.0357  0.3382
17193SOL    HW152795   6.294   6.776   0.047 -1.3755 -0.2068  0.5011
17193SOL    HW252796   6.376   6.774   0.174 -2.3598  1.5564  1.1901
17194SOL     OW52797   6.360   7.108   1.469 -0.2013  0.1815  0.2301
17194SOL    HW152798   6.403   7.148   1.393  1.6203  1.7280  1.9670
17194SOL    HW252799   6.419   7.037   1.494 -1.4829 -1.2123 -0.5312
17195SOL     OW52800   7.025   5.885   8.608  0.3304 -0.6881 -0.5549
17195SOL    HW152801   7.067   5.818   8.662  0.8336  0.1619  0.1306
17195SOL    HW252802   7.089   5.956   8.604 -0.9564  0.5937  0.4177
17196SOL     OW52803   6.947   6.136   0.078  0.1023  0.8699 -0.2834
17196SOL    HW152804   6.906   6.081   0.011 -0.4812  0.0613  0.7205
17196SOL    HW252805   6.886   6.136   0.151  1.5636  0.2075  0.9859
17197SOL     OW52806   6.968   5.390   8.545 -0.1784 -0.0246  0.5248
17197SOL    HW152807   6.960   5.318   8.608 -0.2271  0.5494  1.1880
17197SOL    HW252808   7.059   5.386   8.515 -0.5171 -1.1565 -0.4295
17198SOL     OW52809   5.770   6.007   0.011  0.4312  0.5366 -0.4950
17198SOL    HW152810   5.753   6.089  -0.035 -1.1546 -0.2638 -1.4164
17198SOL    HW252811   5.737   5.939  -0.048  1.3297 -0.7487  0.4244
17199SOL     OW52812   6.554   7.451   0.108 -0.1627  0.3248 -0.3226
17199SOL    HW152813   6.465   7.426   0.082 -1.0014  2.4055  0.3394
17199SOL    HW252814   6.553   7.448   0.204  0.5358  0.2566 -0.3093
17200SOL     OW52815   5.753   6.128   1.948 -0.0529 -0.4979 -0.2352
17200SOL    HW152816   5.698   6.130   2.026  1.1957 -1.7831  0.7355
17200SOL    HW252817   5.758   6.035   1.925 -0.0829 -0.1708 -1.6228
17201SOL     OW52818   6.254   5.828   3.031 -0.1615  0.6960  0.0994
17201SOL    HW152819   6.185   5.822   3.097 -1.5708  0.9095 -1.3033
17201SOL    HW252820   6.220   5.781   2.955  1.9517 -0.6435 -0.0898
17202SOL     OW52821   5.838   5.851   2.884  0.0692  0.0520 -0.0881
17202SOL    HW152822   5.779   5.905   2.936 -0.6927 -0.4833 -0.3792
17202SOL    HW252823   5.806   5.761   2.896  2.0221 -0.5391  1.3496
17203SOL     OW52824   6.004   6.429   3.005 -0.2372 -0.7904 -0.4218
17203SOL    HW152825   5.975   6.423   2.914  0.0422 -0.2383 -0.5534
17203SOL    HW252826   5.995   6.341   3.039  0.8495 -1.2913 -1.3597
17204SOL     OW52827   7.132   7.023   2.448 -0.3312 -0.2708 -0.0301
17204SOL    HW152828   7.227   7.016   2.447 -0.3242 -0.2017  0.1147
17204SOL    HW252829   7.104   6.976   2.369 -0.0734  1.2608 -1.0811
17205SOL     OW52830   6.426   6.005   2.418 -0.1262  0.2061  0.3200
17205SOL    HW152831   6.504   5.951   2.431  1.1767  1.2427 -2.3363
17205SOL    HW252832   6.444   6.085   2.466  0.4891  0.4453 -0.2885
17206SOL     OW52833   7.488   6.394   1.881  0.0362  0.5094 -0.4050
17206SOL    HW152834   7.572   6.438   1.869 -1.1426  3.0862  0.2943
17206SOL    HW252835   7.506   6.302   1.858  3.4604  0.5681  1.4131
17207SOL     OW52836   6.114   6.695   2.739 -0.1996 -0.1799  0.6738
17207SOL    HW152837   6.031   6.648   2.732 -0.1572 -0.3954  1.5429
17207SOL    HW252838   6.179   6.628   2.757  0.1089  0.0376  0.3917
17208SOL     OW52839   6.320   6.121   3.972  0.0937 -0.0818  0.1253
17208SOL    HW152840   6.238   6.082   3.940  0.0243 -0.0750  0.2951
17208SOL    HW252841   6.351   6.175   3.898 -0.8624  1.1580  0.5840
17209SOL     OW52842   6.437   6.736   2.278 -0.1538  0.0162 -0.4397
17209SOL    HW152843   6.386   6.810   2.311 -1.9984 -1.0748 -0.6810
17209SOL    HW252844   6.466   6.690   2.357  0.4856  0.6418 -0.2996
17210SOL     OW52845   6.556   6.649   3.793  0.4998  0.4679  0.5374
17210SOL    HW152846   6.552   6.666   3.698 -0.0773 -0.1554  0.4484
17210SOL    HW252847   6.524   6.730   3.832 -1.5079 -0.0615  0.1279
17211SOL     OW52848   6.283   6.935   2.413 -0.0584  0.3992 -0.4008
17211SOL    HW152849   6.328   7.020   2.418  0.2716  0.2308 -0.4908
17211SOL    HW252850   6.214   6.941   2.479 -0.8213  1.1919 -1.2327
17212SOL     OW52851   7.305   7.496   3.289 -0.1194  0.5655  0.0063
17212SOL    HW152852   7.275   7.419   3.239  2.1350  0.6269 -1.5941
17212SOL    HW252853   7.283   7.570   3.232  1.8465  0.6924 -0.6520
17213SOL     OW52854   6.300   6.320   3.211  0.1157 -0.5667 -0.1329
17213SOL    HW152855   6.357   6.274   3.149  0.1483 -0.6748 -0.0228
17213SOL    HW252856   6.221   6.265   3.216 -0.0144 -0.3972 -0.3148
17214SOL     OW52857   7.193   5.846   2.358  0.3079 -0.7992  0.3577
17214SOL    HW152858   7.192   5.800   2.274  2.1815  0.2829 -0.3209
17214SOL    HW252859   7.234   5.784   2.419  0.6194 -0.9209  0.0268
17215SOL     OW52860   5.958   7.473   2.159 -0.0398 -0.1648 -0.8101
17215SOL    HW152861   5.967   7.388   2.202  0.5375 -0.2924 -1.1742
17215SOL    HW252862   6.044   7.491   2.121  0.8533  2.0458  1.9017
17216SOL     OW52863   7.224   6.823   3.666  0.6331  0.9814 -0.3958
17216SOL    HW152864   7.242   6.738   3.706  1.1074  1.5079  0.5431
17216SOL    HW252865   7.285   6.828   3.593  1.5317  1.0465  0.3324
17217SOL     OW52866   5.774   7.066   2.377 -0.6169  0.1662 -0.4557
17217SOL    HW152867   5.774   7.030   2.288 -1.0869  0.0653 -0.4144
17217SOL    HW252868   5.682   7.074   2.400 -0.5226 -1.8395  0.8484
17218SOL     OW52869   5.783   6.286   2.560  0.5952  0.0158  0.9655
17218SOL    HW152870   5.838   6.341   2.505  0.0777 -1.0611 -0.6947
17218SOL    HW252871   5.834   6.206   2.574 -0.9035 -1.5262 -1.6284
17219SOL     OW52872   6.125   7.095   3.458  0.3490  0.2894  0.5101
17219SOL    HW152873   6.102   7.046   3.537  0.5543 -0.0689  0.3465
17219SOL    HW252874   6.205   7.142   3.481  0.7504 -0.2960  0.3167
17220SOL     OW52875   6.191   6.428   1.915  0.0087  0.4336 -0.0509
17220SOL    HW152876   6.100   6.403   1.934 -0.2285  0.3137 -1.2686
17220SOL    HW252877   6.209   6.500   1.974  0.1060 -1.4048  2.3162
17221SOL     OW52878   7.060   5.431   3.305 -0.0722  0.0646  0.2682
17221SOL    HW152879   7.108   5.514   3.313  1.0868 -0.6029  0.4776
17221SOL    HW252880   6.974   5.456   3.272 -0.6526  1.6382  2.7054
17222SOL     OW52881   5.562   5.837   2.539  0.0991  0.7298 -0.2379
17222SOL    HW152882   5.561   5.775   2.611  1.2393  0.7631 -0.1660
17222SOL    HW252883   5.471   5.864   2.528 -0.5426 -1.4421 -0.7043
17223SOL     OW52884   7.489   7.212   2.181 -0.2549 -0.7337 -0.5967
17223SOL    HW152885   7.515   7.285   2.237  0.0061 -0.1400 -1.4680
17223SOL    HW252886   7.450   7.149   2.241 -0.9273  0.3243  0.1347
17224SOL     OW52887   5.719   7.193   1.977 -0.3419 -0.4150  0.4352
17224SOL    HW152888   5.750   7.103   1.976 -0.0345 -0.3572  2.0025
17224SOL    HW252889   5.790   7.243   1.936 -0.1063 -0.7775  0.3969
17225SOL     OW52890   7.376   6.397   2.304 -0.3701 -0.0654  0.2041
17225SOL    HW152891   7.446   6.332   2.312  0.0233  0.4233  0.7881
17225SOL    HW252892   7.398   6.465   2.368  1.3085  2.6001 -2.9138
17226SOL     OW52893   7.251   6.725   2.189  0.3386 -0.4473 -0.3750
17226SOL    HW152894   7.240   6.646   2.136  1.4465 -0.9695  0.1407
17226SOL    HW252895   7.163   6.761   2.198 -0.0948 -1.2958 -1.1172
17227SOL     OW52896   5.904   6.091   3.652 -0.1549  0.1031 -0.4276
17227SOL    HW152897   5.833   6.098   3.716  0.2688 -0.4104  0.1154
17227SOL    HW252898   5.865   6.048   3.576  0.1373 -2.5787  0.8174
17228SOL     OW52899   6.442   7.165   2.460 -0.1968  0.9886  0.3882
17228SOL    HW152900   6.416   7.257   2.468  1.4168  1.4628  0.5416
17228SOL    HW252901   6.485   7.145   2.543 -0.0037  0.2874  0.1267
17229SOL     OW52902   6.959   7.031   3.026  0.3425  0.3654 -0.1214
17229SOL    HW152903   6.951   7.052   2.933  1.0231  0.2781 -0.2034
17229SOL    HW252904   6.897   6.959   3.040 -0.1975  0.7696 -0.3713
17230SOL     OW52905   6.516   5.371   2.303 -0.0507  0.2928  0.3658
17230SOL    HW152906   6.608   5.394   2.321 -0.1477  0.0823  1.1495
17230SOL    HW252907   6.482   5.340   2.387 -0.1964 -1.8301 -0.4038
17231SOL     OW52908   5.811   6.173   3.036 -0.1404  0.8923 -0.2277
17231SOL    HW152909   5.745   6.241   3.019 -0.5040  0.6419  0.1449
17231SOL    HW252910   5.804   6.114   2.961 -0.7630  0.5418  0.1020
17232SOL     OW52911   6.715   6.261   2.043 -0.3544 -0.8462 -0.4087
17232SOL    HW152912   6.737   6.197   2.110  1.5764 -0.6041 -0.7375
17232SOL    HW252913   6.620   6.265   2.042 -0.4337 -1.3413  1.8449
17233SOL     OW52914   6.691   6.905   3.032 -0.2683  0.1332 -0.0431
17233SOL    HW152915   6.687   6.813   3.057 -1.8939  0.5348  1.3910
17233SOL    HW252916   6.650   6.908   2.945  1.7818 -0.7459 -1.0923
17234SOL     OW52917   5.776   5.369   3.862  0.4827  0.2506 -0.9075
17234SOL    HW152918   5.689   5.405   3.847 -0.9641 -2.6140 -0.0073
17234SOL    HW252919   5.825   5.441   3.903 -2.2694  1.1529  1.0949
17235SOL     OW52920   6.843   7.047   2.747  0.1551  0.1078 -0.6064
17235SOL    HW152921   6.845   6.953   2.730  1.4822  0.0113 -0.0019
17235SOL    HW252922   6.754   7.063   2.779 -0.0347 -0.9653 -0.5534
17236SOL     OW52923   6.990   7.666   2.221  0.0805 -0.2086 -0.5929
17236SOL    HW152924   6.936   7.668   2.300 -0.8830  0.6625 -1.2590
17236SOL    HW252925   7.038   7.583   2.228 -2.6480 -1.9380 -0.8338
17237SOL     OW52926   5.984   6.282   2.241 -0.3221 -0.4598  0.8355
17237SOL    HW152927   6.022   6.323   2.318 -0.4518  1.8153 -0.2211
17237SOL    HW252928   5.940   6.204   2.274  3.6235 -2.3034  2.3561
17238SOL     OW52929   6.680   5.943   2.486 -0.4447 -0.2034  0.1362
17238SOL    HW152930   6.698   5.931   2.579  0.3980  3.3296  0.5662
17238SOL    HW252931   6.756   5.905   2.442 -1.0498 -2.3025  0.7693
17239SOL     OW52932   7.112   7.319   2.030  0.2812  0.1210 -0.4265
17239SOL    HW152933   7.145   7.230   2.046 -1.7942 -0.4155  1.3688
17239SOL    HW252934   7.019   7.306   2.009  0.0986  1.8409 -0.8239
17240SOL     OW52935   6.514   6.068   3.636  0.6490  0.2293 -0.4142
17240SOL    HW152936   6.506   6.001   3.568  1.9696  2.5533 -3.0874
17240SOL    HW252937   6.432   6.118   3.630 -0.1108 -0.7453  1.2105
17241SOL     OW52938   7.247   6.458   3.457 -0.0291 -0.1425 -0.2944
17241SOL    HW152939   7.209   6.384   3.503 -0.3577 -0.5712 -1.2396
17241SOL    HW252940   7.321   6.485   3.512 -0.0416 -1.0160  0.1671
17242SOL     OW52941   6.571   6.662   3.488 -0.8128  0.5757  0.4693
17242SOL    HW152942   6.662   6.635   3.485 -0.4404  1.8577 -0.9976
17242SOL    HW252943   6.523   6.592   3.443 -0.3897  0.4737  0.1757
17243SOL     OW52944   6.642   6.155   2.767 -0.2149 -0.4095 -0.3379
17243SOL    HW152945   6.714   6.147   2.829 -1.5145  0.8164  1.4229
17243SOL    HW252946   6.600   6.069   2.767 -1.0734 -0.0517  1.6794
17244SOL     OW52947   6.336   6.063   2.113 -0.2680  0.0021 -0.2395
17244SOL    HW152948   6.272   6.024   2.173  0.8440 -3.2596 -0.9615
17244SOL    HW252949   6.421   6.040   2.152  0.4608  0.1550 -1.6879
17245SOL     OW52950   5.708   5.812   2.303  0.0249 -0.2324 -0.1955
17245SOL    HW152951   5.725   5.718   2.296 -0.4690 -0.3461  0.0793
17245SOL    HW252952   5.647   5.820   2.376  1.2271  0.4536  0.7616
17246SOL     OW52953   5.316   7.432   3.174 -0.0148 -0.7358 -0.1193
17246SOL    HW152954   5.359   7.386   3.246 -3.7858 -3.3076  0.8305
17246SOL    HW252955   5.327   7.375   3.098 -1.2083 -1.1874  0.0231
17247SOL     OW52956   6.423   5.565   1.886  0.2844  0.0068  0.4863
17247SOL    HW152957   6.436   5.480   1.844  0.1821  0.4420 -0.4562
17247SOL    HW252958   6.424   5.546   1.980 -0.5905 -1.1701  0.2854
17248SOL     OW52959   7.422   5.761   3.357 -0.6418  0.0560 -0.2226
17248SOL    HW152960   7.485   5.813   3.307  0.2753 -1.4817 -0.7651
17248SOL    HW252961   7.340   5.768   3.308 -0.1730 -0.0827 -1.0483
17249SOL     OW52962   7.023   6.836   2.262  0.2969  0.8191  0.6685
17249SOL    HW152963   6.967   6.774   2.308  0.4778  0.5031  0.4666
17249SOL    HW252964   6.966   6.877   2.197 -0.1071  1.6999  1.5649
17250SOL     OW52965   6.414   5.578   3.161  0.0330  0.3926  0.0428
17250SOL    HW152966   6.495   5.609   3.203  0.8561 -0.5317 -0.7869
17250SOL    HW252967   6.394   5.645   3.095  0.9145 -0.0187 -0.6740
17251SOL     OW52968   6.711   7.338   2.265 -0.3313 -0.0203  0.1677
17251SOL    HW152969   6.691   7.424   2.302  1.6234  1.5795 -2.1765
17251SOL    HW252970   6.788   7.308   2.313 -0.3089  0.0803  0.1938
17252SOL     OW52971   6.320   7.446   2.475 -0.5944  0.1138  0.6122
17252SOL    HW152972   6.276   7.494   2.404  0.4553  0.9046  0.4831
17252SOL    HW252973   6.352   7.514   2.534 -0.1225 -0.4814  1.0528
17253SOL     OW52974   6.990   6.391   2.755 -0.0209  0.2395  0.0081
17253SOL    HW152975   6.895   6.390   2.752 -0.1068  0.6778  1.7682
17253SOL    HW252976   7.013   6.323   2.818  0.9239 -0.8372 -1.4161
17254SOL     OW52977   6.956   7.063   3.428  0.2915  0.1385 -0.9105
17254SOL    HW152978   7.045   7.078   3.457  0.0249  0.0055  0.0133
17254SOL    HW252979   6.933   6.977   3.463 -0.7092  0.8207  0.1868
17255SOL     OW52980   5.885   6.702   2.034 -0.1487 -0.4526 -0.5222
17255SOL    HW152981   5.976   6.690   2.060 -0.3747 -1.6780 -0.2438
17255SOL    HW252982   5.877   6.654   1.952 -0.7488 -1.1355 -0.0822
17256SOL     OW52983   6.718   6.462   2.539  0.0367 -0.2842  0.1577
17256SOL    HW152984   6.730   6.373   2.504  1.4705 -1.6876  3.7707
17256SOL    HW252985   6.780   6.515   2.489  1.1050 -1.8915 -0.3008
17257SOL     OW52986   6.193   6.896   3.285  0.2062 -0.0190  0.0043
17257SOL    HW152987   6.185   6.983   3.324 -0.9171 -0.0210 -0.1772
17257SOL    HW252988   6.201   6.836   3.359  0.6047  0.2020  0.1400
17258SOL     OW52989   7.015   7.992   1.761  0.0403  0.0052  0.2537
17258SOL    HW152990   6.943   7.962   1.817 -0.1881  0.7133  0.3515
17258SOL    HW252991   7.000   7.948   1.677 -2.8495  3.0140 -1.0782
17259SOL     OW52992   5.796   5.946   3.442 -0.1925 -0.0845 -0.2714
17259SOL    HW152993   5.755   5.885   3.380 -1.7886  2.0036 -1.4455
17259SOL    HW252994   5.744   5.937   3.522  1.1167 -1.9344  0.4211
17260SOL     OW52995   7.196   7.021   2.056 -0.1373 -0.5684 -0.5882
17260SOL    HW152996   7.145   6.976   1.989  1.1805 -3.0921 -0.0201
17260SOL    HW252997   7.286   7.019   2.024 -0.0132  1.7932 -0.5450
17261SOL     OW52998   6.330   7.370   1.875 -0.1261 -0.1216 -0.1845
17261SOL    HW152999   6.278   7.309   1.927 -1.5286  0.0465 -1.3052
17261SOL    HW253000   6.282   7.453   1.881  0.0524  0.0673 -1.1519
17262SOL     OW53001   6.918   5.844   2.379 -0.0039 -0.2432 -0.0032
17262SOL    HW153002   7.011   5.850   2.401 -0.1212 -0.6965  0.6681
17262SOL    HW253003   6.916   5.833   2.284  0.6553 -0.6914  0.0243
17263SOL     OW53004   5.988   7.344   2.570  0.1035 -0.2172 -0.1254
17263SOL    HW153005   6.058   7.352   2.634  1.2904 -0.5803 -1.3315
17263SOL    HW253006   5.928   7.278   2.607  0.5425 -0.1185  0.7788
17264SOL     OW53007   6.625   7.602   2.332 -0.5184  0.1706  0.0652
17264SOL    HW153008   6.666   7.688   2.342 -0.2172  0.0361 -0.0317
17264SOL    HW253009   6.572   7.592   2.412 -0.3086  0.3113  0.2214
17265SOL     OW53010   5.851   6.058   2.338 -0.0029  0.5423  0.0875
17265SOL    HW153011   5.845   6.031   2.430 -0.3960 -1.0707 -0.3839
17265SOL    HW253012   5.796   5.995   2.291 -0.6854  1.9897 -1.1342
17266SOL     OW53013   6.908   5.870   3.645  0.3385 -0.2805  0.4998
17266SOL    HW153014   6.993   5.905   3.617  0.7459 -1.2277  0.5346
17266SOL    HW253015   6.904   5.889   3.738  0.2169  0.3506  0.3720
17267SOL     OW53016   6.403   5.584   2.139 -0.2604 -0.1368 -0.3428
17267SOL    HW153017   6.371   5.596   2.228  0.6023  1.2007 -0.1845
17267SOL    HW253018   6.499   5.587   2.147 -0.1084  3.2633 -1.6361
17268SOL     OW53019   6.336   5.577   3.568  0.0570 -0.5452 -0.0683
17268SOL    HW153020   6.417   5.549   3.610  1.1695  1.2983 -0.8614
17268SOL    HW253021   6.288   5.624   3.637  0.0309 -0.9259  0.1774
17269SOL     OW53022   6.619   6.869   2.753 -0.3940 -0.1806  0.0052
17269SOL    HW153023   6.525   6.850   2.749 -0.3596 -0.3923  0.1850
17269SOL    HW253024   6.661   6.784   2.740 -0.2239 -0.0627 -0.2163
17270SOL     OW53025   7.037   6.117   3.286 -0.1749 -0.5301 -0.1447
17270SOL    HW153026   7.105   6.120   3.353  0.7694 -2.2025 -0.9602
17270SOL    HW253027   7.082   6.142   3.205 -0.4837 -1.7593 -0.7136
17271SOL     OW53028   6.499   6.620   2.518  0.7976  0.4399  0.7736
17271SOL    HW153029   6.575   6.566   2.541  1.3323  0.0583 -1.6539
17271SOL    HW253030   6.428   6.585   2.572  1.8031 -0.7375  1.4024
17272SOL     OW53031   6.487   6.240   2.579 -0.1294 -0.4189 -0.4054
17272SOL    HW153032   6.557   6.237   2.643 -0.5231 -1.5513  0.0044
17272SOL    HW253033   6.407   6.244   2.631 -0.4021  0.1943 -0.8569
17273SOL     OW53034   5.937   5.680   2.537 -0.0089 -1.2509 -0.2867
17273SOL    HW153035   5.858   5.638   2.572 -0.4161 -0.8601 -0.7215
17273SOL    HW253036   5.926   5.677   2.442  0.1584 -0.5574 -0.3344
17274SOL     OW53037   7.107   6.725   1.721 -0.4950  0.0625  0.1329
17274SOL    HW153038   7.112   6.629   1.722  0.2737  0.0899  1.3222
17274SOL    HW253039   7.057   6.746   1.642  2.7420 -1.1695 -2.4582
17275SOL     OW53040   5.716   5.543   2.275  0.5264 -0.0651 -0.5085
17275SOL    HW153041   5.764   5.498   2.205 -0.4563 -1.4837 -0.3191
17275SOL    HW253042   5.690   5.472   2.334  0.9035  1.0473  1.0400
17276SOL     OW53043   6.681   5.606   2.149 -0.2697 -0.1362 -0.3807
17276SOL    HW153044   6.710   5.646   2.067  1.6937 -0.0251  0.3238
17276SOL    HW253045   6.758   5.560   2.182 -0.7611  0.4797  1.8017
17277SOL     OW53046   6.805   6.580   3.718  0.3639  0.0483 -0.0530
17277SOL    HW153047   6.861   6.508   3.747  1.6697  1.0472 -0.0346
17277SOL    HW253048   6.718   6.541   3.711  0.4850 -0.9020  2.6043
17278SOL     OW53049   6.658   7.449   2.749  0.8528  0.1106  0.4810
17278SOL    HW153050   6.645   7.375   2.689  2.7487  0.5296 -0.5525
17278SOL    HW253051   6.749   7.440   2.779  1.4128  2.4056 -0.2942
17279SOL     OW53052   6.096   6.656   2.333  0.1750 -0.2370  0.3547
17279SOL    HW153053   6.057   6.744   2.340 -0.1043 -0.2503 -0.8528
17279SOL    HW253054   6.174   6.669   2.279 -1.5875 -1.1883 -2.6405
17280SOL     OW53055   6.870   7.877   2.492  0.0749  0.2836 -0.2212
17280SOL    HW153056   6.880   7.933   2.415  0.9344  1.0465  0.4192
17280SOL    HW253057   6.845   7.938   2.563 -2.1562 -0.5996 -0.1791
17281SOL     OW53058   6.249   5.694   1.422  0.0891 -0.0053  0.2617
17281SOL    HW153059   6.272   5.744   1.501  0.1962 -0.2254  0.3724
17281SOL    HW253060   6.240   5.603   1.453 -3.3451  0.3722  0.7229
17282SOL     OW53061   6.104   6.119   3.207 -0.3032 -0.0588 -0.5536
17282SOL    HW153062   6.111   6.053   3.275 -0.7985  0.1637 -0.2840
17282SOL    HW253063   6.041   6.084   3.144  0.3937 -0.4106 -1.0785
17283SOL     OW53064   6.492   6.193   3.061  0.3334  0.0708 -0.5080
17283SOL    HW153065   6.490   6.107   3.019 -0.9482 -1.1540  1.8544
17283SOL    HW253066   6.561   6.186   3.126  0.4787  0.9871 -0.5579
17284SOL     OW53067   6.355   6.382   2.359  0.0924 -0.4093 -0.6485
17284SOL    HW153068   6.401   6.318   2.414  0.3926 -0.6838 -1.2123
17284SOL    HW253069   6.424   6.431   2.315 -0.1127 -1.6564 -2.4632
17285SOL     OW53070   6.647   5.159   1.978  0.3117  0.3339 -0.0066
17285SOL    HW153071   6.605   5.078   2.006 -0.8099  1.0798  0.5147
17285SOL    HW253072   6.711   5.177   2.046  0.4019  0.0208 -0.0052
17286SOL     OW53073   7.233   6.536   2.720 -0.1511  0.5919  0.8754
17286SOL    HW153074   7.166   6.471   2.741  0.5979 -0.2183  0.8300
17286SOL    HW253075   7.208   6.569   2.634 -0.6762  0.5332  1.0051
17287SOL     OW53076   7.163   6.095   2.809 -0.2106  0.1606  0.2529
17287SOL    HW153077   7.176   6.086   2.715  2.0509 -0.8238  0.5970
17287SOL    HW253078   7.144   6.007   2.840 -0.0729  0.3184  0.8169
17288SOL     OW53079   7.431   5.712   2.135 -0.1172  0.2940  0.3450
17288SOL    HW153080   7.445   5.617   2.127 -1.4562 -0.0623  1.7003
17288SOL    HW253081   7.375   5.734   2.061 -0.9138 -0.2562  0.7664
17289SOL     OW53082   6.235   7.061   1.834 -0.0645 -0.2422  0.4039
17289SOL    HW153083   6.169   7.086   1.770  1.0363 -0.4857 -0.8783
17289SOL    HW253084   6.202   7.095   1.917 -0.9645  1.1581 -0.4784
17290SOL     OW53085   7.466   6.616   2.486  0.3527 -0.2905 -0.1944
17290SOL    HW153086   7.524   6.690   2.468  0.2713 -0.1148  0.2310
17290SOL    HW253087   7.487   6.592   2.577  0.4603 -0.8650 -0.3699
17291SOL     OW53088   7.205   6.465   1.727  0.5451  0.2089  0.4914
17291SOL    HW153089   7.240   6.414   1.800  0.1723 -0.6986  0.0429
17291SOL    HW253090   7.282   6.492   1.677  0.8165  1.0011  1.3158
17292SOL     OW53091   5.987   5.826   1.973 -0.3908 -0.4562 -0.3375
17292SOL    HW153092   6.034   5.797   1.895  0.4449 -2.7691  0.8998
17292SOL    HW253093   6.045   5.889   2.015 -0.0914 -0.4583 -0.7524
17293SOL     OW53094   7.236   6.834   3.209 -0.1816 -0.6555  0.4361
17293SOL    HW153095   7.207   6.815   3.120  0.5864  2.9186 -0.7372
17293SOL    HW253096   7.155   6.837   3.260 -0.7689 -1.4346 -0.4213
17294SOL     OW53097   6.900   6.789   3.505 -0.1350 -0.2880  0.8712
17294SOL    HW153098   6.964   6.731   3.464 -0.3763 -0.7048  1.0732
17294SOL    HW253099   6.902   6.764   3.598  0.1207  0.3714  1.0485
17295SOL     OW53100   7.402   6.852   3.444  0.3175 -0.1024 -0.4949
17295SOL    HW153101   7.462   6.926   3.433 -0.5904  0.5745 -1.0855
17295SOL    HW253102   7.342   6.859   3.369 -1.6911  0.4064  1.0594
17296SOL     OW53103   6.912   6.725   2.734  0.2772 -0.2734 -0.0010
17296SOL    HW153104   6.987   6.712   2.792 -0.1232 -0.0482  0.5677
17296SOL    HW253105   6.868   6.639   2.732 -0.3263  0.0068  0.8998
17297SOL     OW53106   7.501   6.512   2.755  0.0889  0.2015 -0.3369
17297SOL    HW153107   7.511   6.516   2.850 -2.8178 -2.0154  0.1742
17297SOL    HW253108   7.407   6.522   2.740  0.5856  1.7427 -3.1377
17298SOL     OW53109   6.748   5.839   3.041 -0.5487 -0.2457  0.0646
17298SOL    HW153110   6.804   5.907   3.076 -1.5246  0.4628  0.2962
17298SOL    HW253111   6.662   5.880   3.034 -0.5460 -0.4832 -2.6588
17299SOL     OW53112   6.850   6.449   4.097  0.1775 -0.4853  0.1066
17299SOL    HW153113   6.902   6.403   4.031  0.7944  1.1381 -0.5960
17299SOL    HW253114   6.760   6.446   4.064  0.5378  0.6609 -1.0595
17300SOL     OW53115   6.292   6.644   2.071  0.0083  0.1537 -0.1374
17300SOL    HW153116   6.351   6.678   2.139  0.9424 -1.1358 -0.2639
17300SOL    HW253117   6.297   6.709   2.001 -0.1976  1.0040  0.6048
17301SOL     OW53118   6.079   6.013   2.930  0.2461 -0.4529  0.8644
17301SOL    HW153119   6.148   5.966   2.976 -0.0988 -1.1362  0.6826
17301SOL    HW253120   6.013   5.947   2.910  1.4575 -0.7449 -2.8300
17302SOL     OW53121   6.759   6.593   3.056 -0.1490 -0.3309  0.6641
17302SOL    HW153122   6.696   6.551   3.115 -1.1252 -1.0163 -0.8041
17302SOL    HW253123   6.743   6.552   2.971  0.6633  1.2039 -0.2683
17303SOL     OW53124   5.846   7.006   2.971  0.7319 -0.3694  0.1019
17303SOL    HW153125   5.793   6.939   2.928 -0.1454 -0.7132  1.6601
17303SOL    HW253126   5.936   6.977   2.957  0.4093 -1.1909 -0.3412
17304SOL     OW53127   5.736   6.898   2.171 -1.0346 -0.1012 -0.4508
17304SOL    HW153128   5.743   6.879   2.078  0.1985  0.2491 -0.4509
17304SOL    HW253129   5.743   6.813   2.214 -1.3295 -0.2329 -0.6628
17305SOL     OW53130   6.149   5.932   2.252  0.1110  0.0930 -0.2473
17305SOL    HW153131   6.094   5.853   2.254 -0.8794  0.7133 -1.3105
17305SOL    HW253132   6.125   5.980   2.331  0.2303 -0.3493  0.0619
17306SOL     OW53133   6.839   7.052   2.136 -0.0904 -0.3383 -0.4864
17306SOL    HW153134   6.842   7.129   2.194 -0.3911 -0.9222  0.3234
17306SOL    HW253135   6.780   6.992   2.181 -1.5499 -0.2101 -2.1414
17307SOL     OW53136   6.926   7.227   3.212 -0.0181  0.5184  0.8044
17307SOL    HW153137   6.926   7.159   3.145 -0.8833  0.5568  0.7583
17307SOL    HW253138   6.904   7.181   3.293 -0.6951  0.7490  0.7575
17308SOL     OW53139   6.531   5.869   2.139  0.6013 -0.5158  0.5787
17308SOL    HW153140   6.590   5.794   2.151 -0.4030 -1.4023  0.1163
17308SOL    HW253141   6.448   5.830   2.112  0.3918  0.8404 -0.8918
17309SOL     OW53142   5.874   7.136   3.329  0.0256 -0.9025  0.2597
17309SOL    HW153143   5.839   7.049   3.310  1.0471 -1.1117 -0.7724
17309SOL    HW253144   5.958   7.119   3.372  1.4380 -0.5116 -2.1744
17310SOL     OW53145   5.803   6.606   3.689  0.1104 -0.4497  0.2875
17310SOL    HW153146   5.792   6.513   3.668  0.9380 -0.0365 -2.3075
17310SOL    HW253147   5.779   6.652   3.609  1.3821  1.4896  0.9391
17311SOL     OW53148   7.321   6.180   3.352 -0.1002 -0.1599 -0.1360
17311SOL    HW153149   7.287   6.269   3.355  1.0874  0.3158  0.1149
17311SOL    HW253150   7.406   6.186   3.397 -0.2270 -1.5205  0.3153
17312SOL     OW53151   6.202   5.234   3.886 -0.6630  0.6112  0.3624
17312SOL    HW153152   6.194   5.281   3.803 -0.7313  1.9640  1.1061
17312SOL    HW253153   6.215   5.143   3.861 -0.8333  0.9752 -1.1277
17313SOL     OW53154   6.024   5.943   3.877  0.3444 -0.0250  0.1026
17313SOL    HW153155   5.966   5.990   3.817  1.6845 -0.2238 -1.4136
17313SOL    HW253156   5.975   5.938   3.959 -1.4788  0.3999 -0.9181
17314SOL     OW53157   5.959   6.423   2.727  0.3610 -0.4374  0.3015
17314SOL    HW153158   5.896   6.359   2.692 -0.4258 -0.0615  0.9927
17314SOL    HW253159   6.016   6.443   2.653 -0.2667 -0.8743 -0.3163
17315SOL     OW53160   6.745   6.491   2.812 -0.1392  0.5946 -0.1727
17315SOL    HW153161   6.663   6.463   2.854  1.0350 -3.8228 -0.3396
17315SOL    HW253162   6.729   6.481   2.718  0.6930 -0.9253 -0.1832
17316SOL     OW53163   6.800   5.694   1.919  0.4907  0.1259 -0.6663
17316SOL    HW153164   6.805   5.616   1.863 -1.8126  0.7632 -1.8952
17316SOL    HW253165   6.770   5.764   1.861  0.5391  1.4545  0.8371
17317SOL     OW53166   6.154   5.694   3.351  0.5091 -0.5319  0.0646
17317SOL    HW153167   6.132   5.652   3.434  1.7834 -2.3556 -0.4614
17317SOL    HW253168   6.237   5.654   3.325 -0.0527 -0.3187 -2.2936
17318SOL     OW53169   6.061   6.598   3.243  0.2086 -0.1716  0.1968
17318SOL    HW153170   6.078   6.672   3.184 -0.5904 -0.8872 -0.9738
17318SOL    HW253171   6.043   6.525   3.184 -1.9114 -0.6244  1.3275
17319SOL     OW53172   6.248   6.217   2.736 -0.6348 -0.5812 -0.0470
17319SOL    HW153173   6.202   6.165   2.671  0.1713 -1.9180  0.4181
17319SOL    HW253174   6.242   6.166   2.817  0.8502 -0.3701  0.2409
17320SOL     OW53175   7.454   6.359   4.253  0.5539 -0.5963 -0.0757
17320SOL    HW153176   7.367   6.389   4.227  0.5420  1.0518  1.6023
17320SOL    HW253177   7.447   6.264   4.255 -1.6522 -0.4996  1.2454
17321SOL     OW53178   6.145   5.772   2.684  0.5764  0.1164  0.0300
17321SOL    HW153179   6.146   5.725   2.767  0.2605  0.7230  0.3847
17321SOL    HW253180   6.061   5.752   2.645 -0.1244  1.4043  0.7950
17322SOL     OW53181   7.311   6.130   1.991  0.5486 -0.2343  0.5204
17322SOL    HW153182   7.260   6.148   2.070 -0.3533  0.1262 -0.1270
17322SOL    HW253183   7.260   6.065   1.944  0.7527  0.0331 -0.0770
17323SOL     OW53184   6.361   6.856   2.742  0.1324 -0.4066 -0.3793
17323SOL    HW153185   6.318   6.863   2.657 -0.0305 -1.9307 -0.4511
17323SOL    HW253186   6.321   6.780   2.783  1.7619 -1.0246  0.1470
17324SOL     OW53187   6.780   7.283   3.604 -0.1871  0.3087  0.1089
17324SOL    HW153188   6.826   7.254   3.525  0.0509 -0.2886  0.4646
17324SOL    HW253189   6.797   7.215   3.669  0.3784  1.2288  0.9571
17325SOL     OW53190   7.011   7.467   3.153 -0.2575  0.1359 -0.2392
17325SOL    HW153191   6.935   7.509   3.112  1.5647  0.3522 -3.8305
17325SOL    HW253192   6.986   7.375   3.160 -1.5072  0.5013  0.4591
17326SOL     OW53193   6.037   6.354   3.782  0.4838 -0.3017 -0.1267
17326SOL    HW153194   6.096   6.281   3.763  0.0921 -0.5492 -0.4086
17326SOL    HW253195   5.951   6.324   3.752  0.2563  0.1451  0.0656
17327SOL     OW53196   7.219   5.788   1.962 -0.0835 -0.2693  0.0690
17327SOL    HW153197   7.192   5.716   1.905 -0.3881 -1.0438  1.1738
17327SOL    HW253198   7.188   5.867   1.917 -0.6779 -0.8914 -0.6313
17328SOL     OW53199   6.737   6.125   1.829  0.1034  0.1783 -0.0302
17328SOL    HW153200   6.768   6.192   1.769 -0.5754  0.0402 -0.5429
17328SOL    HW253201   6.728   6.170   1.913  0.6183  0.4830 -0.1371
17329SOL     OW53202   6.688   7.247   2.557 -0.5602 -0.0839  0.4392
17329SOL    HW153203   6.774   7.250   2.515 -1.1293  3.7013 -0.7673
17329SOL    HW253204   6.634   7.197   2.495  0.4062 -1.4035  0.6055
17330SOL     OW53205   5.790   6.008   2.583 -0.0887 -0.2099  0.0239
17330SOL    HW153206   5.702   5.983   2.557 -1.1461  0.6141  2.5009
17330SOL    HW253207   5.811   5.950   2.656 -0.8582  2.9395  3.0148
17331SOL     OW53208   6.489   5.922   2.985  0.2499  0.0548  0.3924
17331SOL    HW153209   6.403   5.891   3.016 -1.8700  2.7731 -2.1741
17331SOL    HW253210   6.494   5.892   2.894  1.4651  1.0017  0.1237
17332SOL     OW53211   6.520   5.552   3.790  0.1741 -0.1302  0.0281
17332SOL    HW153212   6.529   5.480   3.853  2.4137 -0.0366 -0.1037
17332SOL    HW253213   6.496   5.628   3.843  0.0947 -0.4716  0.4909
17333SOL     OW53214   6.845   6.121   2.974 -0.1158  0.1036  0.1470
17333SOL    HW153215   6.807   6.148   3.057  1.8391  0.7046  0.9040
17333SOL    HW253216   6.932   6.087   2.997 -0.0573 -0.9823 -1.5063
17334SOL     OW53217   5.635   6.922   1.816  0.6697  0.0247 -0.3072
17334SOL    HW153218   5.689   6.894   1.743 -1.1587  0.2325 -1.8280
17334SOL    HW253219   5.635   7.017   1.811  0.5551  0.0416 -0.0169
17335SOL     OW53220   5.835   7.525   2.440 -0.7454 -0.0970 -0.2473
17335SOL    HW153221   5.882   7.451   2.478  3.3917  1.2049 -2.1599
17335SOL    HW253222   5.844   7.513   2.345 -1.2777  2.0252 -0.6154
17336SOL     OW53223   6.440   7.119   2.739 -0.5509 -0.5773 -0.0734
17336SOL    HW153224   6.422   7.032   2.774 -1.9579  0.5552  2.3197
17336SOL    HW253225   6.531   7.137   2.764 -0.8966 -0.6034  1.2797
17337SOL     OW53226   6.278   6.559   2.987  0.4727 -0.3408  0.4405
17337SOL    HW153227   6.264   6.652   3.003  1.2803 -0.0747 -0.3635
17337SOL    HW253228   6.201   6.517   3.024 -0.2607  0.7039  0.1421
17338SOL     OW53229   5.734   5.516   2.578 -0.3252 -0.6831  0.2653
17338SOL    HW153230   5.644   5.497   2.552 -0.5253 -1.5402  1.5511
17338SOL    HW253231   5.754   5.452   2.645  1.3047 -0.5804 -0.0902
17339SOL     OW53232   6.099   5.946   3.432 -0.2032 -0.2304  0.6844
17339SOL    HW153233   6.004   5.936   3.444 -0.3247  0.8356  0.7192
17339SOL    HW253234   6.133   5.856   3.433 -1.0650 -0.5784  1.9214
17340SOL     OW53235   7.051   6.601   3.370 -0.2653 -0.2858 -0.6098
17340SOL    HW153236   7.054   6.601   3.275  1.6130 -1.2771 -0.5975
17340SOL    HW253237   7.128   6.551   3.397 -0.5901  0.2048  1.4407
17341SOL     OW53238   6.427   5.810   1.757  0.0300 -0.0397  0.1603
17341SOL    HW153239   6.410   5.724   1.794 -0.3985 -0.8397 -1.7782
17341SOL    HW253240   6.342   5.853   1.755 -0.1535 -0.4076 -0.7883
17342SOL     OW53241   7.111   5.844   2.834  0.3044 -0.4232 -0.4140
17342SOL    HW153242   7.206   5.830   2.843  0.1649 -1.7569 -0.7303
17342SOL    HW253243   7.072   5.773   2.886 -0.5037 -1.0645 -1.8525
17343SOL     OW53244   5.725   6.895   3.350  0.6289 -0.4259  0.4077
17343SOL    HW153245   5.676   6.956   3.404  3.2470  3.3407 -1.0422
17343SOL    HW253246   5.766   6.834   3.412  0.9385  1.6832  2.3980
17344SOL     OW53247   6.521   6.450   2.984 -0.2432  0.1616 -0.2384
17344SOL    HW153248   6.438   6.498   2.985 -0.4905 -0.2603 -0.3537
17344SOL    HW253249   6.497   6.359   2.997  0.3012  0.1597  0.9306
17345SOL     OW53250   6.205   7.309   2.764 -0.3082  0.6185  0.6341
17345SOL    HW153251   6.218   7.371   2.836  0.7249  2.5761 -1.1170
17345SOL    HW253252   6.292   7.273   2.747 -0.5890 -0.0190  0.5058
17346SOL     OW53253   6.117   6.075   1.970  0.1734 -0.4176  0.2488
17346SOL    HW153254   6.101   6.166   1.993  0.7496  0.2918 -1.8847
17346SOL    HW253255   6.202   6.055   2.009 -0.2031 -0.2398  1.1848
17347SOL     OW53256   5.816   6.396   3.470  0.1717 -0.2559  0.3642
17347SOL    HW153257   5.790   6.349   3.391  2.4474 -0.1548 -0.5302
17347SOL    HW253258   5.904   6.365   3.489  0.5768  1.4174  1.5359
17348SOL     OW53259   7.173   6.737   2.892  0.4316 -0.0270 -0.7155
17348SOL    HW153260   7.207   6.826   2.881  2.8151 -0.7783 -0.1443
17348SOL    HW253261   7.223   6.685   2.828 -0.2548 -1.0956 -0.4061
17349SOL     OW53262   6.434   6.339   2.037  0.0039  0.0779 -0.5807
17349SOL    HW153263   6.381   6.276   2.085  0.2508  1.8744  2.2623
17349SOL    HW253264   6.371   6.400   2.000 -0.1086  1.4603  1.6990
17350SOL     OW53265   7.254   6.997   2.888  0.1012  0.2200  0.0858
17350SOL    HW153266   7.337   7.034   2.918  0.5531  0.3611 -1.2834
17350SOL    HW253267   7.217   7.065   2.831 -0.2493 -0.4192 -0.4670
17351SOL     OW53268   6.750   7.550   3.093 -0.4769  0.0237  0.2530
17351SOL    HW153269   6.661   7.586   3.086 -0.5850 -0.1055  0.8711
17351SOL    HW253270   6.781   7.579   3.178  0.1120  0.1378  0.0029
17352SOL     OW53271   6.122   6.959   2.631  0.4218  0.1687 -0.0017
17352SOL    HW153272   6.107   7.031   2.691 -2.7974 -0.5205  0.1820
17352SOL    HW253273   6.117   6.880   2.685  0.7717 -0.3204 -0.6595
17353SOL     OW53274   6.506   7.224   3.514 -0.5410  0.0230  0.3412
17353SOL    HW153275   6.527   7.135   3.488  1.8062  0.6375 -0.1177
17353SOL    HW253276   6.591   7.263   3.537 -1.5326  2.0327  0.8502
17354SOL     OW53277   6.918   5.868   2.103 -0.1427 -0.2224 -0.0994
17354SOL    HW153278   6.901   5.777   2.077 -0.9781 -0.0535 -0.1849
17354SOL    HW253279   6.973   5.903   2.033 -1.6231 -0.0399 -1.2282
17355SOL     OW53280   6.937   7.251   2.433  0.2399 -0.0875 -0.0979
17355SOL    HW153281   6.991   7.173   2.450  0.2045 -0.0044  0.4071
17355SOL    HW253282   6.995   7.325   2.450 -0.1820  0.0096  0.9996
17356SOL     OW53283   5.455   7.198   3.269  0.5565 -0.1342  0.3077
17356SOL    HW153284   5.498   7.161   3.346  1.9737  0.9627  0.0868
17356SOL    HW253285   5.517   7.183   3.198 -0.8234 -1.3150 -0.6928
17357SOL     OW53286   7.183   6.641   2.473  0.2590 -0.1941 -0.4015
17357SOL    HW153287   7.277   6.650   2.460  0.5896 -1.0943  1.0464
17357SOL    HW253288   7.143   6.692   2.403  1.8271  0.9666 -0.4905
17358SOL     OW53289   6.192   6.809   3.030 -0.4490 -0.5120  0.8509
17358SOL    HW153290   6.189   6.859   3.112  0.0187 -0.7290  1.0008
17358SOL    HW253291   6.168   6.874   2.962  2.7392  0.6805  0.7045
17359SOL     OW53292   6.254   6.849   1.323  0.3573  0.4066  0.2925
17359SOL    HW153293   6.225   6.868   1.412  1.2315  0.8266  0.4967
17359SOL    HW253294   6.303   6.926   1.297 -0.6692  0.6888 -0.9138
17360SOL     OW53295   6.880   7.584   3.497 -0.3077  0.2944  0.1777
17360SOL    HW153296   6.804   7.620   3.452 -0.4750 -0.8824 -0.5073
17360SOL    HW253297   6.852   7.577   3.588 -1.5500 -1.4425 -0.2996
17361SOL     OW53298   7.221   5.698   2.562 -0.1350 -0.1738 -0.6886
17361SOL    HW153299   7.156   5.727   2.626  0.2784  1.4614 -0.9596
17361SOL    HW253300   7.277   5.637   2.610 -1.8314 -1.6412 -0.4564
17362SOL     OW53301   5.716   5.227   2.622  0.2418  0.4508  0.4787
17362SOL    HW153302   5.710   5.180   2.539  2.3506 -2.2995  1.6988
17362SOL    HW253303   5.641   5.196   2.673  1.9252 -2.3620  1.4916
17363SOL     OW53304   6.522   7.097   1.917 -0.4595  0.2230  0.2163
17363SOL    HW153305   6.437   7.074   1.881 -1.2780  0.6943  1.7316
17363SOL    HW253306   6.502   7.135   2.003  1.2696  0.4729  0.5514
17364SOL     OW53307   6.496   6.500   3.276 -0.0501  0.4367 -0.0415
17364SOL    HW153308   6.412   6.464   3.305 -0.8339  1.9419 -0.3542
17364SOL    HW253309   6.499   6.479   3.182  0.9828 -1.5426  0.3665
17365SOL     OW53310   6.902   6.609   2.357  0.1959  0.1323  0.6476
17365SOL    HW153311   6.856   6.587   2.276 -0.2486  0.4026  0.8224
17365SOL    HW253312   6.969   6.541   2.365  0.0659 -0.0579  0.1989
17366SOL     OW53313   6.835   7.400   2.016 -0.4436 -0.2907 -0.0097
17366SOL    HW153314   6.788   7.393   2.099 -0.2704 -0.8390  0.0442
17366SOL    HW253315   6.777   7.359   1.951 -0.7906  0.5580 -0.2535
17367SOL     OW53316   5.757   6.819   2.777  0.7003  0.2701  0.4916
17367SOL    HW153317   5.707   6.749   2.819  0.0176  0.1039 -0.5657
17367SOL    HW253318   5.699   6.852   2.708  1.6747  0.7421 -0.1273
17368SOL     OW53319   7.508   6.416   3.052 -0.3097  0.6665 -0.1735
17368SOL    HW153320   7.577   6.369   3.099  0.5883  1.4241 -0.7085
17368SOL    HW253321   7.459   6.347   3.008  1.3450  0.2124 -1.4324
17369SOL     OW53322   6.713   6.862   2.279  0.0593  0.9932 -0.1095
17369SOL    HW153323   6.727   6.832   2.369 -0.2312  2.7419  0.5573
17369SOL    HW253324   6.636   6.813   2.249  1.0492 -0.7132  0.0197
17370SOL     OW53325   6.816   5.843   2.706 -0.2112  0.1565  0.1893
17370SOL    HW153326   6.783   5.819   2.793 -1.7301  0.7934 -0.1795
17370SOL    HW253327   6.910   5.857   2.719 -0.4578  0.5126  1.7942
17371SOL     OW53328   6.197   7.193   2.071 -0.1232 -0.0203 -0.0227
17371SOL    HW153329   6.273   7.172   2.125 -0.1588  0.3681  0.1807
17371SOL    HW253330   6.128   7.213   2.134 -0.0920  0.6941 -0.2087
17372SOL     OW53331   7.392   5.835   2.791  0.0239 -0.0346 -0.1804
17372SOL    HW153332   7.438   5.876   2.718 -1.1624  0.8471 -0.4701
17372SOL    HW253333   7.461   5.796   2.844  1.0826  1.0308 -0.7243
17373SOL     OW53334   6.042   7.165   1.688 -0.1145 -0.1015  0.4623
17373SOL    HW153335   6.067   7.237   1.630 -0.2808 -0.5666 -0.1977
17373SOL    HW253336   6.012   7.096   1.629  0.6924 -0.9745  1.0479
17374SOL     OW53337   5.619   6.603   3.467  0.4333 -0.1042  0.2724
17374SOL    HW153338   5.705   6.600   3.424 -0.6959 -1.0691 -2.0973
17374SOL    HW253339   5.603   6.512   3.494 -0.2607 -0.1321 -0.2143
17375SOL     OW53340   6.705   6.136   3.262 -0.0046 -0.0124 -0.0866
17375SOL    HW153341   6.718   6.208   3.323 -2.0061  1.3995 -1.2072
17375SOL    HW253342   6.730   6.058   3.311 -1.4449  1.0489  2.5433
17376SOL     OW53343   5.717   5.870   2.032 -0.9940  0.5590  0.1791
17376SOL    HW153344   5.805   5.865   1.994 -0.2396  2.5594  1.5191
17376SOL    HW253345   5.732   5.860   2.126 -2.5900 -2.1578  0.2445
17377SOL     OW53346   7.102   6.293   3.065 -0.1625 -0.4474  0.1221
17377SOL    HW153347   7.080   6.385   3.083 -2.0133 -0.4072 -1.9269
17377SOL    HW253348   7.173   6.297   3.002 -1.6109 -0.2913 -1.5915
17378SOL     OW53349   5.611   6.145   2.178 -0.3594  0.1366  0.6753
17378SOL    HW153350   5.560   6.225   2.191  1.2234  1.9556 -3.0621
17378SOL    HW253351   5.668   6.141   2.255  0.0879  3.1289  0.6137
17379SOL     OW53352   7.028   6.948   1.873  0.4245  0.3033  0.2847
17379SOL    HW153353   7.053   6.882   1.808 -1.2922  0.8073 -0.9533
17379SOL    HW253354   6.942   6.921   1.903  0.9198  0.4354  1.9482
17380SOL     OW53355   6.268   6.474   3.585 -0.3827  0.0617  0.2725
17380SOL    HW153356   6.214   6.529   3.642 -1.4233  0.7014 -1.2685
17380SOL    HW253357   6.214   6.397   3.568 -0.7810  0.6236 -1.1358
17381SOL     OW53358   7.538   7.526   3.071 -0.1951 -0.6634 -0.0068
17381SOL    HW153359   7.558   7.447   3.123  0.3498 -0.5410 -0.0267
17381SOL    HW253360   7.540   7.597   3.135 -2.2076 -0.8389  0.3058
17382SOL     OW53361   6.840   5.921   3.365 -0.0093  0.1978  0.7087
17382SOL    HW153362   6.915   5.958   3.319 -0.4975  0.0083 -0.2840
17382SOL    HW253363   6.861   5.929   3.457 -0.1841  3.1862  0.5928
17383SOL     OW53364   7.064   6.582   3.085  0.5113  0.0787 -0.2346
17383SOL    HW153365   7.093   6.623   3.003  0.0369  0.6279 -0.1315
17383SOL    HW253366   6.968   6.587   3.081  0.4612 -0.7175 -0.0641
17384SOL     OW53367   6.141   7.294   3.691 -0.1774  0.0050 -0.2035
17384SOL    HW153368   6.134   7.378   3.736  0.0978  0.4289 -0.9346
17384SOL    HW253369   6.101   7.231   3.752  1.5200  0.2994  1.3021
17385SOL     OW53370   7.388   6.185   2.955 -0.4045  0.5687  0.1076
17385SOL    HW153371   7.450   6.116   2.930 -0.3096  0.1002  1.5569
17385SOL    HW253372   7.308   6.163   2.907 -0.3511 -0.5285  0.4859
17386SOL     OW53373   6.526   5.616   2.571  0.6835 -0.2546 -0.1287
17386SOL    HW153374   6.615   5.586   2.552  0.9073  1.0883 -1.3069
17386SOL    HW253375   6.482   5.615   2.486 -0.2785 -0.3837  0.3623
17387SOL     OW53376   6.082   6.429   2.464 -0.4020  0.0701 -0.2516
17387SOL    HW153377   6.082   6.509   2.412 -1.4150  1.1701  1.3260
17387SOL    HW253378   6.173   6.401   2.465 -0.0691  1.0574 -1.0507
17388SOL     OW53379   7.198   5.551   3.645 -0.1791  0.0774 -0.6725
17388SOL    HW153380   7.168   5.462   3.626  0.9972 -0.6827  0.8691
17388SOL    HW253381   7.179   5.565   3.737 -0.4306  1.4812 -0.9094
17389SOL     OW53382   7.758   6.667   3.647  0.0848  0.4330 -0.0964
17389SOL    HW153383   7.702   6.668   3.725  0.0572 -0.7340 -0.0778
17389SOL    HW253384   7.762   6.574   3.623  2.8289  0.3179  0.4893
17390SOL     OW53385   6.330   6.799   1.868  0.2117 -0.1464  0.2422
17390SOL    HW153386   6.295   6.886   1.850 -0.8995 -0.9021 -1.5464
17390SOL    HW253387   6.407   6.792   1.813  0.7106 -0.0628  0.9155
17391SOL     OW53388   6.273   7.438   3.033  0.6172 -0.5058 -0.0542
17391SOL    HW153389   6.236   7.443   3.121 -0.8424  0.3017 -0.6575
17391SOL    HW253390   6.346   7.377   3.040  2.0907  1.3410  2.2224
17392SOL     OW53391   6.312   6.486   2.702 -0.5238  0.3106  0.1968
17392SOL    HW153392   6.275   6.399   2.691  1.5629 -0.7423  1.0007
17392SOL    HW253393   6.319   6.497   2.797  0.7753  0.6317  0.0816
17393SOL     OW53394   6.720   6.544   2.128  0.1736  0.2523  1.0332
17393SOL    HW153395   6.632   6.581   2.121  0.4150  0.9546  1.6168
17393SOL    HW253396   6.713   6.458   2.087 -0.5297  0.7272  0.1169
17394SOL     OW53397   7.563   7.295   2.743  0.1302 -0.2676  0.2342
17394SOL    HW153398   7.580   7.389   2.745 -0.4155 -0.0474 -2.3051
17394SOL    HW253399   7.543   7.273   2.834  0.5382  2.0055  0.9440
17395SOL     OW53400   5.898   6.723   3.444  0.3691  0.1712  0.3680
17395SOL    HW153401   5.933   6.675   3.370  0.5644  0.8537  0.0091
17395SOL    HW253402   5.975   6.751   3.494  0.2077 -1.9884  1.9628
17396SOL     OW53403   6.088   7.248   2.315 -0.0144 -0.3675 -0.1707
17396SOL    HW153404   6.063   7.165   2.356  1.6522 -0.4667  0.7338
17396SOL    HW253405   6.105   7.307   2.389  3.1612 -0.5701 -0.6043
17397SOL     OW53406   6.298   7.164   3.147  0.0157  0.2960 -0.5329
17397SOL    HW153407   6.385   7.131   3.167  0.2105  0.9503 -0.2546
17397SOL    HW253408   6.272   7.214   3.226 -0.7753 -0.2225 -0.4489
17398SOL     OW53409   7.363   5.503   2.705  0.0989 -0.6047  0.6414
17398SOL    HW153410   7.315   5.477   2.783  2.3615 -1.4963  1.8228
17398SOL    HW253411   7.436   5.556   2.738 -0.2726  1.1228 -1.1174
17399SOL     OW53412   6.073   5.665   2.257 -0.1439 -0.4229  0.4847
17399SOL    HW153413   6.060   5.659   2.162 -0.5905 -0.6406  0.5541
17399SOL    HW253414   6.008   5.605   2.293  1.3274 -1.8362  0.8702
17400SOL     OW53415   7.083   7.121   2.677  0.6817 -0.0242 -0.3048
17400SOL    HW153416   7.110   7.071   2.600 -1.1796 -0.5314 -0.6745
17400SOL    HW253417   6.996   7.088   2.698 -0.5128  2.7822 -0.3489
17401SOL     OW53418   6.062   6.255   3.468  0.2548 -0.4803  0.3418
17401SOL    HW153419   6.034   6.179   3.519  1.0225 -0.4763  0.7845
17401SOL    HW253420   6.072   6.222   3.379 -0.1729 -0.7129  0.3780
17402SOL     OW53421   6.251   7.623   2.259 -0.1178  0.1284  0.4107
17402SOL    HW153422   6.317   7.611   2.192 -1.5893  1.5639 -1.4208
17402SOL    HW253423   6.185   7.680   2.218 -0.9970  1.2480  3.1464
17403SOL     OW53424   6.701   5.649   3.263 -0.0498 -0.4104 -0.0257
17403SOL    HW153425   6.719   5.732   3.219  1.5093 -0.7474 -0.0846
17403SOL    HW253426   6.699   5.672   3.356 -0.1069 -0.2285 -0.0711
17404SOL     OW53427   6.896   5.475   2.838  0.4668  0.2085  0.3888
17404SOL    HW153428   6.844   5.397   2.821 -1.0178  1.1009  0.6157
17404SOL    HW253429   6.901   5.519   2.753  2.0281 -0.5340  0.0761
17405SOL     OW53430   6.447   7.234   2.176  0.4701  0.7960  0.3397
17405SOL    HW153431   6.524   7.290   2.174  0.1083  1.3051  0.5654
17405SOL    HW253432   6.438   7.208   2.267  0.1009  1.1228  0.3994
17406SOL     OW53433   6.161   7.078   2.935 -0.2584  0.3131  0.1873
17406SOL    HW153434   6.210   7.094   3.016 -0.4646 -1.4947  0.7116
17406SOL    HW253435   6.166   7.161   2.887  3.4608  0.1769  0.1039
17407SOL     OW53436   7.365   5.893   1.651 -0.3415  0.7024 -0.6514
17407SOL    HW153437   7.441   5.898   1.592 -0.9038  0.4675 -1.4115
17407SOL    HW253438   7.301   5.953   1.613  0.1810  2.4725  1.1085
17408SOL     OW53439   6.744   6.232   2.432  0.1218  0.0140 -0.0450
17408SOL    HW153440   6.773   6.185   2.354 -2.0052  0.0766 -0.9419
17408SOL    HW253441   6.700   6.166   2.486 -0.8844  0.4946 -0.2479
17409SOL     OW53442   7.050   5.618   2.995 -0.0770 -0.1249 -0.2228
17409SOL    HW153443   7.130   5.567   3.007 -0.4651 -0.3386  1.7037
17409SOL    HW253444   6.986   5.555   2.963 -0.0130 -0.4092  0.1995
17410SOL     OW53445   5.728   6.654   2.262 -0.3037  0.4137 -0.0438
17410SOL    HW153446   5.763   6.635   2.175 -0.0286  2.3168 -0.3969
17410SOL    HW253447   5.805   6.654   2.319 -0.3441  0.2372  0.0131
17411SOL     OW53448   6.614   7.336   1.860  0.3843 -0.2984 -0.2144
17411SOL    HW153449   6.608   7.241   1.863 -0.5161 -0.2412  0.1733
17411SOL    HW253450   6.523   7.366   1.864  0.5734  0.5452 -1.6014
17412SOL     OW53451   6.207   6.112   3.711 -0.4118 -0.4012  0.0084
17412SOL    HW153452   6.222   6.111   3.616 -3.1218 -2.7336 -0.5554
17412SOL    HW253453   6.149   6.037   3.726  0.2214 -0.3400  3.6071
17413SOL     OW53454   6.101   5.965   4.512 -0.1869  0.9590 -0.1421
17413SOL    HW153455   6.098   6.017   4.432  1.5632 -0.1668 -0.9844
17413SOL    HW253456   6.009   5.960   4.540 -1.2171 -0.4902 -3.3237
17414SOL     OW53457   5.417   5.989   4.374  0.0017  0.0992  0.0464
17414SOL    HW153458   5.404   6.031   4.459 -1.8956  0.1051 -0.1995
17414SOL    HW253459   5.357   5.914   4.374 -0.9038  0.7498 -1.6890
17415SOL     OW53460   6.209   6.487   5.271  0.5609  0.4779  0.3513
17415SOL    HW153461   6.288   6.493   5.324  0.9183  0.5040 -0.1754
17415SOL    HW253462   6.165   6.571   5.283  0.2732  0.2127  1.1697
17416SOL     OW53463   6.994   7.128   4.298  0.2076  0.0798  0.3680
17416SOL    HW153464   6.989   7.187   4.373 -1.0441  0.0218  0.3544
17416SOL    HW253465   6.920   7.068   4.310  1.4432 -1.4793  0.3686
17417SOL     OW53466   6.889   6.005   4.730 -0.2804 -0.2960 -0.1381
17417SOL    HW153467   6.878   6.078   4.791  1.3205  0.7074 -0.9785
17417SOL    HW253468   6.850   5.930   4.775  1.5809  0.1989  2.5190
17418SOL     OW53469   7.233   6.233   3.722  0.9345  0.2380 -0.2235
17418SOL    HW153470   7.325   6.210   3.705  1.5197  2.2954 -0.1530
17418SOL    HW253471   7.226   6.231   3.818  0.4201 -1.5245 -0.2726
17419SOL     OW53472   6.076   6.541   4.788  0.2876 -0.7291 -0.1025
17419SOL    HW153473   6.011   6.504   4.729 -0.9734  0.1814  0.6692
17419SOL    HW253474   6.142   6.580   4.730 -0.0330 -1.3522 -0.8969
17420SOL     OW53475   6.534   6.233   5.468 -0.0535 -0.6190  0.0808
17420SOL    HW153476   6.617   6.195   5.440  1.0995  0.6547  1.6328
17420SOL    HW253477   6.518   6.305   5.406  0.0555 -0.7981 -0.1545
17421SOL     OW53478   5.973   6.369   4.421  0.0740 -0.1078  0.1607
17421SOL    HW153479   5.965   6.460   4.393  0.7240 -0.1551 -0.2104
17421SOL    HW253480   5.946   6.370   4.513 -0.6140  0.3231 -0.0378
17422SOL     OW53481   6.398   6.598   5.837 -0.4291 -0.3838 -0.5453
17422SOL    HW153482   6.479   6.555   5.813 -0.9521 -0.3089 -2.6748
17422SOL    HW253483   6.341   6.586   5.761 -1.2904  2.2982 -0.4466
17423SOL     OW53484   5.819   6.979   4.669 -0.1035  0.1069 -0.3618
17423SOL    HW153485   5.801   6.888   4.694  1.6671  0.0280  0.7873
17423SOL    HW253486   5.809   6.980   4.574  0.2569 -1.4165 -0.4454
17424SOL     OW53487   6.810   6.833   5.102  0.7597 -0.2042  0.4094
17424SOL    HW153488   6.758   6.913   5.111  1.8428  0.4836  0.8061
17424SOL    HW253489   6.817   6.820   5.007 -0.5514 -0.6065  0.3549
17425SOL     OW53490   5.987   5.718   5.124 -0.1964 -0.3609 -0.2513
17425SOL    HW153491   6.043   5.715   5.201  1.6618 -1.6787 -1.5443
17425SOL    HW253492   6.043   5.755   5.055 -0.7001 -2.1079 -1.6949
17426SOL     OW53493   7.231   6.167   4.326 -0.4334  0.4869  0.4130
17426SOL    HW153494   7.265   6.133   4.409  0.6426  1.7321  0.5166
17426SOL    HW253495   7.148   6.209   4.349 -0.0975  0.9011  0.8761
17427SOL     OW53496   5.789   6.972   4.385 -0.0686  0.3531 -0.1677
17427SOL    HW153497   5.743   7.048   4.350 -0.0684  0.4811  0.1085
17427SOL    HW253498   5.732   6.898   4.364 -1.0032  0.6289  1.1982
17428SOL     OW53499   6.590   6.943   5.747 -0.2493  0.0501 -0.3412
17428SOL    HW153500   6.576   7.036   5.730 -0.7218 -0.3577 -2.4382
17428SOL    HW253501   6.681   6.937   5.774 -0.1903  1.1137 -0.2477
17429SOL     OW53502   5.936   6.814   4.103  0.5025 -0.6594  0.3041
17429SOL    HW153503   5.906   6.748   4.041  1.0724  0.2373 -0.9473
17429SOL    HW253504   5.971   6.763   4.177 -1.3616 -1.7344  0.5170
17430SOL     OW53505   5.917   6.697   4.945  0.1526 -0.3839  0.1780
17430SOL    HW153506   5.996   6.661   4.906  0.1548 -1.2288  0.9177
17430SOL    HW253507   5.859   6.715   4.871  0.7957 -0.3410 -0.3198
17431SOL     OW53508   6.534   7.478   5.256  0.2791  0.3680  0.0515
17431SOL    HW153509   6.485   7.398   5.239 -0.2667  0.2248  2.0483
17431SOL    HW253510   6.587   7.458   5.333  2.9045  0.8103 -1.4974
17432SOL     OW53511   6.223   6.613   3.926  0.0363  0.1485 -0.0676
17432SOL    HW153512   6.159   6.592   3.858  0.7499  0.2892 -0.7947
17432SOL    HW253513   6.287   6.668   3.882 -0.0562  1.1470  0.9884
17433SOL     OW53514   7.349   5.250   4.716 -0.1095 -0.0512  0.8553
17433SOL    HW153515   7.418   5.301   4.673  0.6687 -1.5376  0.2743
17433SOL    HW253516   7.390   5.166   4.736 -1.8045 -1.0694  0.2937
17434SOL     OW53517   5.580   6.285   4.155 -0.1284 -0.2825  0.6939
17434SOL    HW153518   5.619   6.345   4.219 -0.9221  0.0334  0.8895
17434SOL    HW253519   5.599   6.325   4.070 -1.1634  0.5695  0.8473
17435SOL     OW53520   7.296   7.653   4.200 -0.7077  0.9273  0.1663
17435SOL    HW153521   7.313   7.661   4.106  0.4132  0.3911  0.3091
17435SOL    HW253522   7.382   7.666   4.241 -1.0894  0.6309  1.0874
17436SOL     OW53523   5.556   7.078   3.500 -0.4611 -0.5574 -0.6795
17436SOL    HW153524   5.478   7.077   3.555 -1.5138  0.9944 -2.0483
17436SOL    HW253525   5.620   7.131   3.548 -1.3445  0.7412 -0.8887
17437SOL     OW53526   7.645   6.552   4.501 -0.2257  0.0237  0.1873
17437SOL    HW153527   7.734   6.522   4.516  0.4507 -0.1779 -3.3467
17437SOL    HW253528   7.589   6.482   4.535  0.9795 -0.5209  1.0970
17438SOL     OW53529   6.906   6.683   4.555  0.1493 -0.2017 -0.3113
17438SOL    HW153530   6.905   6.673   4.460  1.8554 -2.0878 -0.2046
17438SOL    HW253531   6.832   6.630   4.585 -1.5745  1.9061 -0.6119
17439SOL     OW53532   5.655   6.220   5.343 -0.0878  0.2125  0.1006
17439SOL    HW153533   5.609   6.171   5.412 -0.6823 -1.4482 -1.3674
17439SOL    HW253534   5.602   6.298   5.330 -0.0950  0.4310  1.3539
17440SOL     OW53535   6.350   6.567   4.163  0.2217 -0.6144  0.3265
17440SOL    HW153536   6.298   6.559   4.082  2.2830 -2.6061 -0.9108
17440SOL    HW253537   6.307   6.508   4.224 -0.6228 -0.0290  0.3334
17441SOL     OW53538   6.926   6.830   5.465  0.1789  0.5599  0.0660
17441SOL    HW153539   7.021   6.826   5.469  0.1124 -0.6148  1.2091
17441SOL    HW253540   6.899   6.748   5.423 -0.3203  1.0439 -0.5825
17442SOL     OW53541   6.569   5.935   4.673  0.3376  0.3799  0.5083
17442SOL    HW153542   6.552   5.842   4.688 -2.3915  0.9790  1.6569
17442SOL    HW253543   6.540   5.950   4.582 -0.0491  0.2719  0.6123
17443SOL     OW53544   6.133   6.026   5.355 -0.5668 -0.0395 -0.3551
17443SOL    HW153545   6.107   6.084   5.283  2.3189  1.5754 -0.2604
17443SOL    HW253546   6.164   6.085   5.423  0.1631 -1.6368  0.7523
17444SOL     OW53547   7.144   6.637   3.884  0.2428  0.2336 -0.0984
17444SOL    HW153548   7.110   6.707   3.940 -0.2143 -0.1024  0.0548
17444SOL    HW253549   7.067   6.604   3.838  0.2613 -0.8824  0.6326
17445SOL     OW53550   6.782   7.220   5.250  0.0180 -0.0410  0.0168
17445SOL    HW153551   6.715   7.153   5.238 -0.8309  0.8878 -0.5572
17445SOL    HW253552   6.758   7.289   5.189  0.6659  0.9542  0.8588
17446SOL     OW53553   6.107   5.239   5.318  0.0217 -0.1443 -0.7647
17446SOL    HW153554   6.049   5.169   5.347 -0.6244  1.2371  1.4782
17446SOL    HW253555   6.056   5.287   5.253 -0.4232 -0.3555 -0.5741
17447SOL     OW53556   7.244   7.130   4.801  0.1491  0.1770  0.3309
17447SOL    HW153557   7.240   7.158   4.892 -1.3908 -1.0272  0.6746
17447SOL    HW253558   7.253   7.035   4.805  1.0548  0.1920 -0.7807
17448SOL     OW53559   7.202   7.382   4.167 -0.1118  0.2691 -0.5562
17448SOL    HW153560   7.243   7.467   4.181 -1.5051  0.8458  0.3060
17448SOL    HW253561   7.115   7.403   4.131 -1.2808 -0.6453  1.5658
17449SOL     OW53562   6.654   6.214   4.218  0.5623 -0.0856  0.2505
17449SOL    HW153563   6.672   6.263   4.298 -2.5167  1.4082  0.1902
17449SOL    HW253564   6.631   6.281   4.153  0.1334 -1.4118 -1.0288
17450SOL     OW53565   6.861   6.202   4.918 -0.5527  0.3315  0.1363
17450SOL    HW153566   6.921   6.169   4.984  0.1537 -2.0846 -1.5454
17450SOL    HW253567   6.911   6.265   4.868  0.2494 -0.7496 -0.4751
17451SOL     OW53568   6.800   7.100   3.808 -0.5220  0.8378 -0.1195
17451SOL    HW153569   6.879   7.091   3.862 -0.0950  0.7332 -0.7460
17451SOL    HW253570   6.756   7.016   3.816 -1.3802  1.3964  1.4470
17452SOL     OW53571   6.886   5.709   5.204 -0.1622  0.4626  0.5798
17452SOL    HW153572   6.924   5.698   5.117 -0.9467  0.8685  0.1773
17452SOL    HW253573   6.906   5.628   5.249  3.1453  1.4391  1.1674
17453SOL     OW53574   7.110   5.486   5.120 -0.2578 -0.3089 -0.2759
17453SOL    HW153575   7.081   5.439   5.198 -1.0822  0.3190 -0.1878
17453SOL    HW253576   7.152   5.419   5.066 -1.5357 -1.1885 -0.2193
17454SOL     OW53577   6.601   6.542   5.127  0.3953  0.6539 -0.3925
17454SOL    HW153578   6.602   6.450   5.102 -0.5502  0.4550  0.2576
17454SOL    HW253579   6.605   6.590   5.044  3.8085  0.0942 -0.6758
17455SOL     OW53580   7.118   5.808   4.550 -0.5427 -0.3342  0.4007
17455SOL    HW153581   7.107   5.715   4.534 -1.3681 -0.0381 -0.9708
17455SOL    HW253582   7.122   5.817   4.645 -0.2720 -1.7717  0.5389
17456SOL     OW53583   6.929   6.354   3.813  0.2101 -0.0998 -0.0577
17456SOL    HW153584   7.014   6.311   3.820 -0.1156 -1.4419 -2.8259
17456SOL    HW253585   6.867   6.284   3.792 -1.2898  1.0512  0.2733
17457SOL     OW53586   5.847   5.951   4.553  0.0614 -0.3322  0.2683
17457SOL    HW153587   5.799   5.971   4.633 -1.7226 -0.8158 -0.6297
17457SOL    HW253588   5.785   5.970   4.482  1.9044  1.0460 -1.0892
17458SOL     OW53589   5.499   7.178   4.930  0.1186  0.0631 -0.0041
17458SOL    HW153590   5.521   7.266   4.900 -1.3961  0.5208  0.1602
17458SOL    HW253591   5.484   7.128   4.850  1.6086 -0.2514 -0.1207
17459SOL     OW53592   6.108   5.678   4.228 -0.7440  0.6327  0.4612
17459SOL    HW153593   6.152   5.606   4.183 -2.3388 -0.0385 -0.0865
17459SOL    HW253594   6.060   5.636   4.300  0.4580  1.4994  1.8484
17460SOL     OW53595   7.219   6.016   5.465 -0.3157  0.3632 -0.7989
17460SOL    HW153596   7.282   5.997   5.395  0.3170 -1.5640  0.2094
17460SOL    HW253597   7.135   5.987   5.429 -0.0108 -0.5246 -0.8243
17461SOL     OW53598   6.659   6.735   4.312 -0.0531  0.0510  0.5639
17461SOL    HW153599   6.743   6.707   4.276 -0.2302  1.6957 -1.3560
17461SOL    HW253600   6.680   6.812   4.365 -0.5141  2.5713 -2.5675
17462SOL     OW53601   6.200   5.334   4.863 -0.6257  0.2987  0.4835
17462SOL    HW153602   6.127   5.357   4.805  0.6712  2.8963 -0.2276
17462SOL    HW253603   6.159   5.281   4.932 -2.7437 -0.3112 -1.1338
17463SOL     OW53604   6.269   7.051   4.346  0.2340 -0.0236 -0.6719
17463SOL    HW153605   6.283   7.100   4.265 -0.0760  0.7322 -0.2825
17463SOL    HW253606   6.322   6.971   4.336  0.1316  0.0215 -1.6439
17464SOL     OW53607   5.963   7.413   4.604 -0.4416  0.7118  0.6959
17464SOL    HW153608   6.002   7.341   4.555  0.9272  0.1013  2.5552
17464SOL    HW253609   5.984   7.491   4.553  1.7347  0.1989  0.7337
17465SOL     OW53610   7.245   6.840   4.838 -0.3058  0.3686 -0.4695
17465SOL    HW153611   7.317   6.797   4.884  0.3780  2.1753  0.2196
17465SOL    HW253612   7.167   6.818   4.890  0.5814  3.2640  2.4287
17466SOL     OW53613   7.071   6.912   5.244  0.2723 -0.4444 -0.5800
17466SOL    HW153614   7.116   6.990   5.277 -0.7935 -0.1728  0.2600
17466SOL    HW253615   6.996   6.900   5.302 -1.2765 -0.3702 -2.4460
17467SOL     OW53616   6.306   6.148   3.468  0.1934 -0.0950 -0.0959
17467SOL    HW153617   6.261   6.086   3.411 -0.3768 -0.2078  0.4623
17467SOL    HW253618   6.327   6.222   3.411 -0.7653 -0.0117 -0.3613
17468SOL     OW53619   7.417   6.396   4.557 -0.0890  0.4193  0.1705
17468SOL    HW153620   7.422   6.365   4.466 -1.1225  2.7915 -0.7946
17468SOL    HW253621   7.328   6.431   4.564 -0.1558 -0.0828  2.2552
17469SOL     OW53622   6.334   6.751   5.116  0.4657 -0.2064 -0.5202
17469SOL    HW153623   6.258   6.733   5.171  0.6640 -2.0967 -0.7721
17469SOL    HW253624   6.406   6.705   5.159  0.9803 -0.2925 -1.4407
17470SOL     OW53625   6.461   7.321   4.318 -0.2472 -0.3354  0.4105
17470SOL    HW153626   6.522   7.363   4.379  1.1523  0.2176 -1.2877
17470SOL    HW253627   6.422   7.393   4.270  0.1640 -0.8356 -0.6957
17471SOL     OW53628   6.092   5.772   5.422 -0.8357  0.0653 -0.0268
17471SOL    HW153629   6.009   5.781   5.470 -1.1062 -0.2236 -0.4285
17471SOL    HW253630   6.110   5.859   5.388 -0.7706  0.2172  0.3952
17472SOL     OW53631   7.020   6.865   3.993  0.0459 -0.1363 -0.4156
17472SOL    HW153632   7.033   6.959   4.008  0.4800 -0.4437  1.4124
17472SOL    HW253633   6.930   6.858   3.962 -0.4697  0.7947  0.7617
17473SOL     OW53634   6.139   6.324   4.086  0.4278 -0.6070  0.0195
17473SOL    HW153635   6.226   6.283   4.075  1.9982  2.1044  1.3354
17473SOL    HW253636   6.136   6.392   4.019 -1.7591 -2.1362 -1.5459
17474SOL     OW53637   6.746   5.707   4.041  0.4480  0.4367 -1.1896
17474SOL    HW153638   6.711   5.771   3.980 -1.7791 -0.2969 -0.7745
17474SOL    HW253639   6.706   5.728   4.125  1.6671  0.0313 -0.4774
17475SOL     OW53640   5.715   6.723   4.733  0.1998 -0.3362 -0.2995
17475SOL    HW153641   5.723   6.628   4.733 -1.8435 -0.5592 -0.5093
17475SOL    HW253642   5.677   6.744   4.648 -0.8632  0.4803  0.3450
17476SOL     OW53643   6.595   7.440   4.759  0.2172 -0.3550  0.0865
17476SOL    HW153644   6.675   7.493   4.755  0.7087 -1.1219 -0.6185
17476SOL    HW253645   6.544   7.480   4.829  0.4507  1.1941 -0.5866
17477SOL     OW53646   5.974   5.920   4.180 -0.0405  0.2957 -0.1467
17477SOL    HW153647   6.008   5.991   4.234  0.7326  1.1651 -1.7153
17477SOL    HW253648   6.016   5.841   4.214  1.2069  0.9621 -0.0977
17478SOL     OW53649   6.839   5.234   5.380 -0.1559 -0.7089  0.2028
17478SOL    HW153650   6.767   5.202   5.326 -1.0963  1.2292  0.2328
17478SOL    HW253651   6.796   5.262   5.461  0.8813 -1.1056  0.9021
17479SOL     OW53652   6.157   5.476   4.039 -0.4940 -0.2886  0.0438
17479SOL    HW153653   6.212   5.398   4.033 -1.8616 -1.1746 -1.9816
17479SOL    HW253654   6.144   5.504   3.949 -3.4429 -0.2290  0.3739
17480SOL     OW53655   6.272   5.499   5.296  0.6366  0.3538  0.3387
17480SOL    HW153656   6.189   5.525   5.336 -0.0732 -1.3093  0.0420
17480SOL    HW253657   6.269   5.535   5.208 -0.4002 -0.7810 -0.1200
17481SOL     OW53658   6.378   7.291   4.904  0.3150  0.4246 -0.2329
17481SOL    HW153659   6.390   7.210   4.952  3.4932  0.7903 -0.1908
17481SOL    HW253660   6.381   7.265   4.812  0.7224  0.4023 -0.2168
17482SOL     OW53661   6.987   5.930   5.340  0.0187 -0.1430 -0.0355
17482SOL    HW153662   6.971   5.859   5.279  1.7027 -1.2397  0.7048
17482SOL    HW253663   6.958   5.896   5.425  1.3437 -0.2017  0.4205
17483SOL     OW53664   6.254   6.966   4.751  0.0758 -0.1701  0.0414
17483SOL    HW153665   6.288   7.054   4.733  2.5198 -1.1954 -0.7233
17483SOL    HW253666   6.201   6.977   4.830  3.4964  1.3931  2.3825
17484SOL     OW53667   6.600   6.155   4.825  0.3047 -0.1335 -0.2362
17484SOL    HW153668   6.604   6.082   4.764  1.1979 -1.0278  0.8453
17484SOL    HW253669   6.688   6.158   4.864 -0.9655 -1.4394  3.0756
17485SOL     OW53670   6.108   5.398   4.418  0.3295 -0.3220  0.3961
17485SOL    HW153671   6.060   5.480   4.425 -1.2540 -1.2995  1.5288
17485SOL    HW253672   6.040   5.330   4.414  1.5924 -1.6076 -0.2889
17486SOL     OW53673   7.133   6.731   4.201  0.1721 -0.1530  0.7000
17486SOL    HW153674   7.095   6.790   4.136 -2.5372 -1.1356  1.2608
17486SOL    HW253675   7.175   6.788   4.265  3.2799  0.8452 -1.9678
17487SOL     OW53676   5.206   5.460   3.749 -0.2766 -0.5977 -0.4934
17487SOL    HW153677   5.201   5.370   3.780  2.4784 -0.0919  1.9290
17487SOL    HW253678   5.248   5.453   3.663 -5.1557 -1.8136 -3.1359
17488SOL     OW53679   6.464   5.404   4.202 -0.0408  0.4496 -0.8455
17488SOL    HW153680   6.495   5.494   4.216 -3.0259  1.9016 -2.6426
17488SOL    HW253681   6.418   5.382   4.283  0.0900  0.8201 -0.6651
17489SOL     OW53682   6.870   5.781   5.542 -0.1577 -0.7086  0.4720
17489SOL    HW153683   6.897   5.698   5.502 -0.9817 -0.4645 -0.6526
17489SOL    HW253684   6.786   5.761   5.584 -1.1074 -0.1354 -1.0757
17490SOL     OW53685   6.668   7.249   4.583  0.7292  0.1776  0.2509
17490SOL    HW153686   6.629   7.316   4.639 -0.2054 -0.8483  0.8636
17490SOL    HW253687   6.763   7.264   4.591  0.5371  2.4846 -1.0103
17491SOL     OW53688   6.242   6.496   4.420 -0.2675  0.2108 -0.3758
17491SOL    HW153689   6.210   6.578   4.457  0.2532  0.5542 -0.6796
17491SOL    HW253690   6.173   6.433   4.440 -0.1412  0.4540  0.9010
17492SOL     OW53691   6.584   7.576   4.498  0.6850 -0.4322 -0.7859
17492SOL    HW153692   6.540   7.625   4.567  3.0635  0.1952  0.3862
17492SOL    HW253693   6.589   7.637   4.424  1.2808  0.1772 -0.2529
17493SOL     OW53694   6.656   5.910   3.873  0.0815  0.0457  0.4391
17493SOL    HW153695   6.625   5.964   3.799 -0.6586  0.0295  0.7267
17493SOL    HW253696   6.591   5.925   3.941  1.8691  1.7448  1.8952
17494SOL     OW53697   5.925   6.300   5.463 -0.2389  0.7662 -0.4641
17494SOL    HW153698   5.919   6.257   5.378 -0.2220 -1.7516  0.7334
17494SOL    HW253699   5.877   6.382   5.451 -1.6392 -0.2622 -2.4426
17495SOL     OW53700   5.835   5.496   5.006  0.1206  0.0348 -0.6918
17495SOL    HW153701   5.867   5.579   5.041  0.5447 -0.8209  1.1217
17495SOL    HW253702   5.743   5.493   5.030  0.4122 -0.5557  0.4165
17496SOL     OW53703   6.964   6.120   4.153  0.3799  0.2475 -0.1341
17496SOL    HW153704   6.998   6.192   4.204 -1.2804 -0.8054  2.6892
17496SOL    HW253705   6.915   6.067   4.216 -1.8090 -1.1955 -2.8295
17497SOL     OW53706   6.681   5.281   4.430  0.4242  0.4623  0.3291
17497SOL    HW153707   6.713   5.371   4.438 -1.6064  1.2066  0.7655
17497SOL    HW253708   6.606   5.277   4.490  0.0183 -1.3066 -0.2284
17498SOL     OW53709   6.751   6.771   4.852 -0.3035 -0.7181  0.1609
17498SOL    HW153710   6.658   6.782   4.870 -0.5748 -2.2887 -0.0766
17498SOL    HW253711   6.754   6.704   4.783  1.0115 -1.1698  0.6160
17499SOL     OW53712   7.095   6.165   4.604  0.0222 -0.1164  0.5914
17499SOL    HW153713   7.031   6.123   4.662  1.4453 -0.9456  1.6167
17499SOL    HW253714   7.174   6.111   4.611  2.0925  2.8304  2.2451
17500SOL     OW53715   7.190   6.448   4.223  0.2860 -0.0474 -0.2036
17500SOL    HW153716   7.174   6.542   4.215  0.6154  0.0747  0.5530
17500SOL    HW253717   7.107   6.412   4.255 -0.0194 -0.1053 -1.0162
17501SOL     OW53718   6.266   6.692   3.432 -0.0008 -0.1511 -0.8332
17501SOL    HW153719   6.299   6.613   3.476 -1.6755 -0.8597 -0.7967
17501SOL    HW253720   6.199   6.660   3.371 -0.3487  1.1974 -1.1995
17502SOL     OW53721   7.576   6.917   4.714 -0.2598  0.2430 -0.2701
17502SOL    HW153722   7.560   6.969   4.793 -2.3636 -2.2475  1.1056
17502SOL    HW253723   7.649   6.859   4.737  0.0539  0.4660 -0.6849
17503SOL     OW53724   7.129   5.997   3.545 -0.0500 -0.4555  0.0478
17503SOL    HW153725   7.159   6.057   3.613 -0.1991 -1.5085  1.0763
17503SOL    HW253726   7.192   5.925   3.546  0.2596 -0.2414 -1.3231
17504SOL     OW53727   6.500   6.012   4.394  0.0522 -0.4096  0.0973
17504SOL    HW153728   6.434   6.059   4.444  0.0895 -0.8106  0.5343
17504SOL    HW253729   6.538   6.078   4.336 -0.4535 -0.0890  0.1260
17505SOL     OW53730   7.340   6.950   5.125 -0.3683  0.2799 -0.5189
17505SOL    HW153731   7.255   6.905   5.117  0.1130 -0.7630  0.0124
17505SOL    HW253732   7.318   7.038   5.154 -1.3455  0.3805 -1.5092
17506SOL     OW53733   6.464   6.880   5.441 -0.1197 -0.5917 -0.2142
17506SOL    HW153734   6.485   6.788   5.457  0.8091 -0.4037 -0.3138
17506SOL    HW253735   6.477   6.923   5.525 -2.2837 -0.8288  0.2999
17507SOL     OW53736   7.238   7.112   5.345  0.4052  0.4989 -0.3636
17507SOL    HW153737   7.166   7.176   5.344  1.2450  1.4916 -2.3658
17507SOL    HW253738   7.300   7.147   5.409 -0.3641  0.1931  0.5858
17508SOL     OW53739   6.582   7.017   5.228  0.5893 -0.0902  0.3708
17508SOL    HW153740   6.570   6.960   5.303 -0.1594  0.1832  0.4675
17508SOL    HW253741   6.501   7.008   5.177  0.3597  1.0328  0.5003
17509SOL     OW53742   7.242   6.520   5.109 -0.4959  0.2977 -0.2013
17509SOL    HW153743   7.189   6.594   5.079  0.5172  1.7852  1.5063
17509SOL    HW253744   7.332   6.553   5.109 -0.0600 -0.8125  0.9761
17510SOL     OW53745   6.781   5.597   4.955  0.0702  0.3313  0.3567
17510SOL    HW153746   6.844   5.533   4.923  1.1288  1.6503 -0.3218
17510SOL    HW253747   6.761   5.569   5.044  1.6452 -0.1343  0.5931
17511SOL     OW53748   6.248   6.635   5.598  0.1861 -0.1009 -0.6622
17511SOL    HW153749   6.258   6.683   5.516  0.6899  1.1001  0.0693
17511SOL    HW253750   6.192   6.690   5.652  0.0761 -0.7400 -0.0984
17512SOL     OW53751   6.583   6.435   4.071 -0.2501 -0.4440  0.0660
17512SOL    HW153752   6.519   6.499   4.102  0.7621  0.3329  0.6152
17512SOL    HW253753   6.544   6.398   3.992 -0.9585  0.6876 -0.1361
17513SOL     OW53754   6.752   6.123   5.334 -0.6998  0.3198 -0.0393
17513SOL    HW153755   6.701   6.135   5.255  1.0546  0.1490 -1.2448
17513SOL    HW253756   6.756   6.028   5.345  3.6302 -0.1170 -3.0236
17514SOL     OW53757   6.754   5.852   4.888  0.3497 -0.1251  0.2198
17514SOL    HW153758   6.662   5.874   4.906 -0.2586 -1.5469 -0.9100
17514SOL    HW253759   6.768   5.768   4.930  1.0222 -0.0963  0.0667
17515SOL     OW53760   5.755   7.243   4.715 -0.5598 -0.1206 -0.3231
17515SOL    HW153761   5.763   7.148   4.707 -0.3836 -0.1758  0.5081
17515SOL    HW253762   5.841   7.277   4.691 -0.3607 -0.2250  0.2291
17516SOL     OW53763   5.911   6.648   4.407 -0.3520 -0.3514 -0.2561
17516SOL    HW153764   5.967   6.725   4.414 -0.1782 -0.4480 -0.5882
17516SOL    HW253765   5.826   6.683   4.379 -0.5868 -0.1554  0.6400
17517SOL     OW53766   6.118   5.680   4.851 -0.1168 -0.3807  0.1343
17517SOL    HW153767   6.047   5.619   4.834 -0.0948 -0.4232  0.1954
17517SOL    HW253768   6.161   5.692   4.766  0.1624 -0.8038  0.2139
17518SOL     OW53769   6.744   7.023   4.391  0.0359 -0.3279 -0.5390
17518SOL    HW153770   6.686   7.046   4.319 -1.4503 -0.4090  0.5958
17518SOL    HW253771   6.718   7.080   4.463 -1.3600 -2.9813  1.2235
17519SOL     OW53772   7.049   7.494   4.819  0.0733  0.2871  0.9071
17519SOL    HW153773   7.116   7.481   4.886 -1.6160 -3.2013  2.1477
17519SOL    HW253774   7.098   7.514   4.740  2.4246  0.0152  2.2077
17520SOL     OW53775   6.961   6.305   4.354  0.3661  0.1951 -0.1644
17520SOL    HW153776   6.868   6.330   4.357  0.6176  1.1440  0.4316
17520SOL    HW253777   6.980   6.273   4.443  0.8275  0.8850 -0.0057
17521SOL     OW53778   6.200   6.720   4.611  0.2757  0.1642 -0.2091
17521SOL    HW153779   6.165   6.787   4.552  0.9717  0.2716 -0.5071
17521SOL    HW253780   6.238   6.770   4.683 -1.7867  0.0116  1.0661
17522SOL     OW53781   6.395   6.052   5.165 -0.5469 -0.7577 -0.0696
17522SOL    HW153782   6.345   5.995   5.107  0.1135 -0.8402 -0.5667
17522SOL    HW253783   6.328   6.094   5.220 -1.4655  1.1412 -2.4431
17523SOL     OW53784   7.623   6.327   5.221 -0.6215 -0.2807 -0.2116
17523SOL    HW153785   7.628   6.359   5.130 -0.6160 -0.1856 -0.1781
17523SOL    HW253786   7.641   6.234   5.215 -1.1409 -0.3732 -0.3740
17524SOL     OW53787   6.532   5.476   5.247 -0.1007  0.2845 -0.4027
17524SOL    HW153788   6.452   5.528   5.257 -1.2995 -1.4892 -0.3216
17524SOL    HW253789   6.501   5.388   5.225  1.7540 -0.8166  1.0354
17525SOL     OW53790   5.948   5.281   5.096  0.2374 -0.6447 -0.0240
17525SOL    HW153791   5.862   5.245   5.116 -0.2402  0.2831 -0.3131
17525SOL    HW253792   5.929   5.363   5.049  1.2419  0.3225  1.1786
17526SOL     OW53793   5.861   6.329   5.022  0.4506 -0.0240  0.3007
17526SOL    HW153794   5.877   6.316   4.929 -0.9995 -1.4162  0.2037
17526SOL    HW253795   5.780   6.281   5.040  1.0005 -0.2888  2.3933
17527SOL     OW53796   6.736   6.502   4.741  0.1135 -0.7070  0.1244
17527SOL    HW153797   6.647   6.485   4.711  0.5518 -0.8172 -1.1576
17527SOL    HW253798   6.786   6.426   4.713  0.8494 -0.1186 -0.1874
17528SOL     OW53799   6.864   6.299   3.451 -0.7270  0.7219  0.0314
17528SOL    HW153800   6.921   6.241   3.401 -1.5957  0.9610 -1.3040
17528SOL    HW253801   6.904   6.385   3.442 -0.0811  0.5365  1.0171
17529SOL     OW53802   5.554   5.616   4.970  0.1987  0.0850 -0.1126
17529SOL    HW153803   5.492   5.688   4.979  0.3389  0.4155 -1.4908
17529SOL    HW253804   5.500   5.538   4.969 -0.4484  0.4462 -2.7990
17530SOL     OW53805   5.518   6.443   4.438 -0.2573 -0.0648 -0.0374
17530SOL    HW153806   5.477   6.420   4.355  1.4767  0.0488 -0.9780
17530SOL    HW253807   5.550   6.360   4.473  0.4354  0.0955 -0.2873
17531SOL     OW53808   6.217   5.741   4.607 -0.3351 -0.4432 -0.4634
17531SOL    HW153809   6.194   5.831   4.583 -0.1272  0.3426  2.0035
17531SOL    HW253810   6.282   5.715   4.541  0.9902  1.9125 -0.2324
17532SOL     OW53811   7.584   6.015   5.580 -0.0388 -0.2595 -0.0304
17532SOL    HW153812   7.529   6.023   5.657 -1.3259  0.3653 -0.9718
17532SOL    HW253813   7.522   6.008   5.507  1.1322 -1.0520 -0.9939
17533SOL     OW53814   5.537   5.516   4.211  0.1339 -0.4266 -0.4645
17533SOL    HW153815   5.479   5.590   4.227 -1.6153 -2.0208  0.8845
17533SOL    HW253816   5.496   5.469   4.138  1.1784 -0.1772 -1.2426
17534SOL     OW53817   7.159   5.854   3.990 -0.2428  0.1520 -0.5223
17534SOL    HW153818   7.136   5.819   4.076 -1.8893 -0.5274 -1.1815
17534SOL    HW253819   7.079   5.899   3.960 -0.0596 -0.4789 -2.0738
17535SOL     OW53820   6.310   6.195   4.814 -0.5793 -0.3999 -0.5150
17535SOL    HW153821   6.266   6.256   4.873 -1.2983 -0.5009 -0.9393
17535SOL    HW253822   6.399   6.188   4.849 -1.4154 -1.6451  1.4672
17536SOL     OW53823   6.573   7.227   5.640 -0.2549  0.4105  0.3165
17536SOL    HW153824   6.484   7.214   5.606 -1.0624  0.2494  2.3725
17536SOL    HW253825   6.613   7.290   5.580 -1.0165 -1.0401 -1.8389
17537SOL     OW53826   7.440   7.276   5.484 -0.5623  0.7981  0.0314
17537SOL    HW153827   7.535   7.261   5.479 -0.6861  0.3996 -1.2376
17537SOL    HW253828   7.413   7.226   5.561 -0.0957 -1.0568 -0.9475
17538SOL     OW53829   5.568   6.316   5.747  0.3412  0.0253  0.0760
17538SOL    HW153830   5.629   6.364   5.692  0.0505 -0.6751 -0.8759
17538SOL    HW253831   5.581   6.225   5.725 -1.7823 -0.0922 -0.9501
17539SOL     OW53832   6.975   5.287   3.941 -0.4184 -0.0689 -0.2496
17539SOL    HW153833   6.890   5.272   3.899 -1.2885 -0.7367  1.6525
17539SOL    HW253834   6.962   5.366   3.994 -0.2272 -0.8235  0.9492
17540SOL     OW53835   6.655   6.288   3.635  0.0491 -0.0532 -0.3108
17540SOL    HW153836   6.737   6.292   3.586 -0.3604  1.2119 -0.9181
17540SOL    HW253837   6.631   6.195   3.632  0.8528 -0.2566 -1.1314
17541SOL     OW53838   6.415   7.159   4.634 -0.5791  0.1999  0.4016
17541SOL    HW153839   6.379   7.151   4.546 -0.5283 -1.5043  0.5089
17541SOL    HW253840   6.509   7.173   4.621 -0.5407 -0.2550  0.1851
17542SOL     OW53841   6.318   6.152   4.540  0.0342 -0.0726 -0.5115
17542SOL    HW153842   6.223   6.152   4.523 -0.2794  0.8615  1.0838
17542SOL    HW253843   6.326   6.164   4.634  1.7481 -1.1302 -0.4824
17543SOL     OW53844   6.502   5.796   5.001 -0.4688  0.1214 -0.5250
17543SOL    HW153845   6.421   5.830   4.963  0.0871  1.1431 -0.8666
17543SOL    HW253846   6.481   5.707   5.028 -1.3808 -0.0409 -1.6604
17544SOL     OW53847   6.514   5.839   5.520  0.2173  0.2837  0.0338
17544SOL    HW153848   6.464   5.766   5.484 -1.1026  0.7874  0.7362
17544SOL    HW253849   6.574   5.864   5.450 -2.8441  1.8119 -2.3029
17545SOL     OW53850   6.798   5.434   5.214 -0.3045 -0.2798  0.3425
17545SOL    HW153851   6.706   5.445   5.238 -0.0544 -0.3968  1.3677
17545SOL    HW253852   6.831   5.366   5.273  0.2807 -0.7087 -0.4487
17546SOL     OW53853   6.076   6.680   3.697  0.2275  0.3133 -0.4536
17546SOL    HW153854   6.056   6.773   3.713  0.9333  0.9325 -2.7257
17546SOL    HW253855   5.991   6.639   3.685 -0.0375  1.0080 -0.9908
17547SOL     OW53856   5.506   7.178   4.588  0.4690  0.5158 -0.1678
17547SOL    HW153857   5.481   7.269   4.573 -0.2549  1.5746  5.2685
17547SOL    HW253858   5.599   7.182   4.612  0.1455  0.1216  1.2859
17548SOL     OW53859   6.092   7.395   4.205  0.1023 -0.1138  0.0960
17548SOL    HW153860   6.163   7.458   4.216  0.2591 -0.2141 -0.3083
17548SOL    HW253861   6.097   7.339   4.282 -0.0079  0.3401  0.4313
17549SOL     OW53862   6.588   6.229   5.118  0.3627 -0.2790 -0.2905
17549SOL    HW153863   6.581   6.216   5.024  0.2760  2.0726 -0.6697
17549SOL    HW253864   6.519   6.173   5.155  1.0796 -2.0506 -1.4850
17550SOL     OW53865   5.711   6.097   4.802  0.5456  0.2228  0.2454
17550SOL    HW153866   5.671   6.015   4.830 -1.6451  0.8084 -0.8755
17550SOL    HW253867   5.680   6.162   4.865  1.6814  0.3332  0.7133
17551SOL     OW53868   5.362   5.890   5.437  0.5560 -0.0903 -0.3858
17551SOL    HW153869   5.397   5.872   5.524  0.1135  0.5915 -0.0592
17551SOL    HW253870   5.340   5.803   5.402  0.2501 -0.3422  0.3936
17552SOL     OW53871   7.039   6.434   5.278 -0.4451 -0.6918 -0.3528
17552SOL    HW153872   7.117   6.454   5.227  0.0915 -1.5806  0.1068
17552SOL    HW253873   6.982   6.509   5.264  0.7271  0.2508 -0.2254
17553SOL     OW53874   6.408   5.708   3.970 -0.4430 -0.2497 -0.2851
17553SOL    HW153875   6.384   5.717   4.062 -0.1784 -2.6094  0.0923
17553SOL    HW253876   6.354   5.773   3.925  0.8568  2.3993  1.6615
17554SOL     OW53877   7.433   5.777   5.300 -0.6719  0.3508  0.0429
17554SOL    HW153878   7.429   5.872   5.289  0.8548  0.6823  1.9095
17554SOL    HW253879   7.391   5.742   5.221  1.1131  2.5131 -2.0030
17555SOL     OW53880   5.826   7.243   5.010 -0.1320  0.0068 -0.8651
17555SOL    HW153881   5.911   7.253   4.966  0.2705  0.3723 -0.0182
17555SOL    HW253882   5.762   7.279   4.947  0.6101  2.1653 -0.4783
17556SOL     OW53883   6.282   5.920   4.861 -0.6353  0.5160  0.6640
17556SOL    HW153884   6.268   6.011   4.834  0.3015  0.0548 -1.6101
17556SOL    HW253885   6.207   5.872   4.825 -1.9759  0.5318  3.1988
17557SOL     OW53886   6.784   7.446   5.040 -0.3791 -0.2987  0.2552
17557SOL    HW153887   6.702   7.470   5.081  0.6029  2.2090  0.9515
17557SOL    HW253888   6.785   7.496   4.958  0.1068 -0.9093 -0.1213
17558SOL     OW53889   6.549   5.994   4.086 -0.1956 -0.1505  0.0906
17558SOL    HW153890   6.598   6.070   4.115 -1.4927  0.4573  0.7843
17558SOL    HW253891   6.460   6.026   4.073 -0.3642 -1.1271 -1.4830
17559SOL     OW53892   6.078   6.250   5.200  0.0168 -0.5976  0.4191
17559SOL    HW153893   6.018   6.295   5.140 -1.2267  0.2184  2.1797
17559SOL    HW253894   6.135   6.319   5.234 -0.2950 -0.7632  1.2976
17560SOL     OW53895   6.852   6.632   5.262 -0.4972  0.0164  0.3052
17560SOL    HW153896   6.772   6.589   5.294  0.2907 -1.2842  0.6171
17560SOL    HW253897   6.821   6.691   5.194 -1.6540 -1.2124 -0.2982
17561SOL     OW53898   7.154   6.235   3.975  0.3442 -0.2873 -0.2225
17561SOL    HW153899   7.218   6.269   4.038 -0.7614  0.9492  0.2976
17561SOL    HW253900   7.109   6.165   4.022  0.3905 -0.2330 -0.0956
17562SOL     OW53901   7.072   7.642   4.351  0.0282  0.1950 -1.2480
17562SOL    HW153902   6.993   7.597   4.322 -0.0052 -0.4308 -0.2117
17562SOL    HW253903   7.130   7.639   4.274  0.4104 -2.5001 -0.9573
17563SOL     OW53904   6.997   7.275   4.575 -0.1961 -0.8581 -0.4671
17563SOL    HW153905   7.062   7.205   4.585 -0.8134 -1.3441  0.3696
17563SOL    HW253906   7.030   7.346   4.630  0.5525 -0.3789 -1.5036
17564SOL     OW53907   5.884   6.377   4.684  0.2134  0.4884 -0.1819
17564SOL    HW153908   5.796   6.393   4.717  0.0880  1.3631 -0.9112
17564SOL    HW253909   5.881   6.286   4.653 -0.3348  0.4128  0.0807
17565SOL     OW53910   6.369   7.538   5.559  0.4832  0.1660  0.4637
17565SOL    HW153911   6.345   7.540   5.652 -0.6890 -1.2144  0.2106
17565SOL    HW253912   6.324   7.613   5.521 -0.8608 -0.5411  0.6109
17566SOL     OW53913   6.926   5.521   4.076 -0.1703 -0.5656 -0.2845
17566SOL    HW153914   6.998   5.581   4.094  0.7326 -1.5222 -0.5997
17566SOL    HW253915   6.853   5.578   4.050  1.3252  0.3119 -2.8735
17567SOL     OW53916   6.297   7.474   4.565 -0.1714 -0.2062  0.3977
17567SOL    HW153917   6.391   7.461   4.552 -0.1192  0.9107 -0.4781
17567SOL    HW253918   6.289   7.499   4.657  0.1514 -2.0940  0.9992
17568SOL     OW53919   5.582   7.459   5.186  0.2906 -0.0763  0.1306
17568SOL    HW153920   5.559   7.420   5.101 -0.6243  0.0696  0.3000
17568SOL    HW253921   5.503   7.507   5.212  0.9150  0.7080  0.5955
17569SOL     OW53922   6.993   6.368   4.758 -0.1815 -0.0179  0.0823
17569SOL    HW153923   7.069   6.320   4.725  0.3838  1.3053 -0.6037
17569SOL    HW253924   7.017   6.460   4.751 -1.9056  0.4543 -0.3054
17570SOL     OW53925   6.474   6.497   5.367 -0.0398  0.0466  0.4416
17570SOL    HW153926   6.462   6.550   5.446 -2.1319  0.7588 -0.2957
17570SOL    HW253927   6.545   6.541   5.320  0.4280  0.3001  1.3624
17571SOL     OW53928   6.439   7.138   3.935  0.4799 -0.2027 -0.0099
17571SOL    HW153929   6.379   7.212   3.930  0.3694 -0.2208  0.9369
17571SOL    HW253930   6.513   7.164   3.880  0.5011  0.6666  0.4191
17572SOL     OW53931   7.067   7.801   5.054  0.0172  0.4097 -0.1730
17572SOL    HW153932   7.045   7.832   4.966 -0.0648  1.4211  0.1821
17572SOL    HW253933   6.983   7.788   5.097  0.0562  1.1860  0.1611
17573SOL     OW53934   7.654   5.854   4.799 -0.3917 -0.0101 -0.1363
17573SOL    HW153935   7.682   5.940   4.768  1.9247 -0.5618  0.2722
17573SOL    HW253936   7.644   5.802   4.718 -0.1018  0.1616 -0.2837
17574SOL     OW53937   5.995   5.633   4.462 -0.1100  0.3483 -0.0650
17574SOL    HW153938   6.045   5.684   4.526  0.8189 -2.3776  1.5847
17574SOL    HW253939   5.904   5.650   4.485  0.1977 -0.2490  1.8011
17575SOL     OW53940   6.463   6.859   3.991 -0.3185 -0.3739 -0.0603
17575SOL    HW153941   6.454   6.869   4.086  3.6487  1.3783  0.3285
17575SOL    HW253942   6.439   6.945   3.956 -1.9957 -1.0815 -0.7428
17576SOL     OW53943   6.250   6.432   4.974 -0.1185 -0.5081 -0.0802
17576SOL    HW153944   6.183   6.471   4.919 -0.4102  0.8029  1.1373
17576SOL    HW253945   6.218   6.445   5.064 -0.2085 -3.5279  0.4484
17577SOL     OW53946   6.701   6.402   4.433  0.3154  0.6336 -0.0902
17577SOL    HW153947   6.671   6.487   4.401 -1.0456  0.7853  1.4450
17577SOL    HW253948   6.634   6.375   4.496  1.7076 -0.6840  0.8990
17578SOL     OW53949   7.220   7.080   3.569  0.4078  0.1359 -0.1492
17578SOL    HW153950   7.286   7.088   3.500 -0.6231  0.8231 -1.1084
17578SOL    HW253951   7.229   6.991   3.601 -0.2174 -0.8321 -2.4225
17579SOL     OW53952   5.786   6.983   5.151 -0.1295  0.0303 -0.8118
17579SOL    HW153953   5.774   6.946   5.064  2.3871  0.0195 -1.2244
17579SOL    HW253954   5.808   7.075   5.136  1.4677 -0.2412 -0.2956
17580SOL     OW53955   7.053   6.728   5.018 -0.3293 -0.2892 -0.2021
17580SOL    HW153956   7.025   6.776   5.095 -0.3750 -1.9999  0.8979
17580SOL    HW253957   6.973   6.687   4.985  0.0981 -1.6491  0.3857
17581SOL     OW53958   6.464   6.435   4.580  0.3514 -0.1073 -0.2858
17581SOL    HW153959   6.426   6.361   4.628  0.9431 -1.1884 -1.4399
17581SOL    HW253960   6.405   6.447   4.506  0.8957 -0.1940 -0.7360
17582SOL     OW53961   6.661   5.775   4.312 -0.1054 -0.0289  0.0927
17582SOL    HW153962   6.583   5.831   4.310 -1.2436 -1.5457 -0.0209
17582SOL    HW253963   6.723   5.823   4.367 -0.8589  1.5239 -0.3473
17583SOL     OW53964   5.954   7.040   3.969 -0.1499  0.1097 -0.1148
17583SOL    HW153965   5.872   7.011   3.929 -0.6949  1.9378 -0.4021
17583SOL    HW253966   5.964   6.985   4.047 -1.7856  0.0283  0.0636
17584SOL     OW53967   7.385   5.620   5.518  0.6654 -0.5794 -0.5016
17584SOL    HW153968   7.334   5.682   5.570 -0.4018 -0.1358 -1.9970
17584SOL    HW253969   7.422   5.673   5.447 -0.8078 -1.6576 -2.2004
17585SOL     OW53970   6.044   6.939   3.712 -0.0594  0.1280  0.4802
17585SOL    HW153971   6.062   6.986   3.794 -1.0024  0.1236  0.7023
17585SOL    HW253972   5.950   6.952   3.698  0.3762  1.5349 -1.4919
17586SOL     OW53973   6.085   6.727   5.271  0.1885 -0.2073 -0.3472
17586SOL    HW153974   6.004   6.738   5.221  1.0658  4.1038 -1.1761
17586SOL    HW253975   6.062   6.754   5.360  0.6453  0.8131 -0.5328
17587SOL     OW53976   6.259   5.569   5.038 -0.3656 -0.0481 -0.7834
17587SOL    HW153977   6.282   5.504   4.972 -2.5433  0.1468 -1.8429
17587SOL    HW253978   6.192   5.623   4.995 -0.6219  1.1422  1.0182
17588SOL     OW53979   5.622   5.956   3.644  0.0454  0.3318  0.3867
17588SOL    HW153980   5.625   5.862   3.662 -0.4120  0.5744  1.8663
17588SOL    HW253981   5.545   5.987   3.691 -1.3855  1.0474 -2.2409
17589SOL     OW53982   7.235   5.971   5.026 -0.0195  0.1086 -0.5286
17589SOL    HW153983   7.165   6.019   5.072  1.1843  0.4026  1.0833
17589SOL    HW253984   7.260   5.902   5.087  1.2404  0.1422 -0.9890
17590SOL     OW53985   5.463   5.809   3.980  0.4092 -0.2217 -0.7361
17590SOL    HW153986   5.441   5.897   4.011  0.4975  1.0370 -3.8765
17590SOL    HW253987   5.532   5.823   3.915  1.0294 -2.7330 -0.7293
17591SOL     OW53988   6.743   6.843   3.903  0.2469 -0.2586  0.2920
17591SOL    HW153989   6.674   6.852   3.969  0.7820  1.2689  0.6811
17591SOL    HW253990   6.742   6.750   3.880  0.0590 -0.8678  2.4904
17592SOL     OW53991   5.441   6.411   5.458 -0.0469  0.0326 -0.2535
17592SOL    HW153992   5.384   6.470   5.508 -1.8339 -0.5726 -1.4491
17592SOL    HW253993   5.401   6.325   5.469  1.1807 -0.5706 -0.4137
17593SOL     OW53994   6.642   7.860   4.902  0.1368 -0.2180  0.0923
17593SOL    HW153995   6.660   7.939   4.851  0.7528 -1.1302 -1.1563
17593SOL    HW253996   6.604   7.799   4.838 -0.4930 -0.8772  1.0701
17594SOL     OW53997   6.346   5.960   5.706 -0.2738 -0.7512 -0.2587
17594SOL    HW153998   6.286   6.017   5.658  0.9664  1.2029  0.4063
17594SOL    HW253999   6.408   5.930   5.639  1.9339  2.5996  0.0259
17595SOL     OW54000   7.429   6.045   5.285 -0.1180  0.1672 -0.0425
17595SOL    HW154001   7.511   6.036   5.235  0.5052  0.4054  0.9118
17595SOL    HW254002   7.400   6.134   5.267 -0.2832  0.0191 -0.5384
17596SOL     OW54003   5.962   7.316   5.249 -0.2357 -0.2883  0.1679
17596SOL    HW154004   5.913   7.302   5.168 -0.9715 -0.3533  0.6067
17596SOL    HW254005   5.894   7.317   5.317  0.2745  0.6807  0.6787
17597SOL     OW54006   7.346   6.285   5.247 -0.2021  0.0322  0.3586
17597SOL    HW154007   7.295   6.310   5.170  0.8141  0.7232 -0.1182
17597SOL    HW254008   7.434   6.317   5.229  1.0388 -3.0853  0.1096
17598SOL     OW54009   6.901   5.986   3.894  0.3638  0.0253 -0.2307
17598SOL    HW154010   6.811   5.963   3.873  0.5357  0.0268 -0.9821
17598SOL    HW254011   6.893   6.057   3.958 -0.1558 -1.1146  1.0240
17599SOL     OW54012   6.069   6.145   4.307 -0.1879 -0.3243 -0.5885
17599SOL    HW154013   6.116   6.192   4.238 -1.0026  1.8180  0.2260
17599SOL    HW254014   6.009   6.210   4.343 -1.4880 -2.0708  0.5505
17600SOL     OW54015   7.177   5.458   5.436 -0.0888  0.4137 -0.0250
17600SOL    HW154016   7.248   5.521   5.447  0.2494  0.3614 -1.7179
17600SOL    HW254017   7.219   5.382   5.395 -0.9312 -0.0183 -0.0964
17601SOL     OW54018   7.624   6.455   4.971 -0.1291  0.0743 -0.0338
17601SOL    HW154019   7.597   6.407   4.893  0.7066 -0.6645  0.1214
17601SOL    HW254020   7.719   6.458   4.967  0.0565 -1.3577  1.7144
17602SOL     OW54021   6.505   6.910   3.409  0.8815  0.1179 -0.4117
17602SOL    HW154022   6.533   6.830   3.454  0.7419  0.4141  0.2247
17602SOL    HW254023   6.414   6.893   3.385  0.5792  0.3825  0.4742
17603SOL     OW54024   6.043   7.331   4.873 -0.4920  0.2211  0.3917
17603SOL    HW154025   6.035   7.423   4.900 -3.7883  0.6695 -1.5134
17603SOL    HW254026   6.037   7.334   4.777  2.3564 -1.8589  0.0328
17604SOL     OW54027   6.487   6.786   4.878 -0.1884 -0.2626  0.1759
17604SOL    HW154028   6.412   6.775   4.937 -0.6596  1.4314 -0.0557
17604SOL    HW254029   6.449   6.816   4.796  0.7170  0.4620 -0.0015
17605SOL     OW54030   6.908   6.634   4.272 -0.2987 -0.5321 -0.2164
17605SOL    HW154031   6.986   6.673   4.232 -1.8091  1.4417 -1.4284
17605SOL    HW254032   6.885   6.561   4.214  0.0891 -0.5085 -0.4022
17606SOL     OW54033   7.345   7.359   4.449 -0.3043 -0.3742 -0.2391
17606SOL    HW154034   7.305   7.325   4.370  0.5320 -0.1410 -0.7789
17606SOL    HW254035   7.439   7.345   4.436 -0.0680  0.7098  0.2130
17607SOL     OW54036   5.760   6.955   5.424  0.3277 -0.1902 -0.2204
17607SOL    HW154037   5.794   6.969   5.335 -1.1430  1.8073 -0.5309
17607SOL    HW254038   5.681   6.904   5.411 -1.0598  1.8647 -0.3555
17608SOL     OW54039   6.068   6.886   4.426  0.2645 -0.2709 -0.0805
17608SOL    HW154040   5.994   6.939   4.397  0.5134 -0.4379 -1.0644
17608SOL    HW254041   6.145   6.938   4.403  0.5053 -0.9461 -0.8866
17609SOL     OW54042   6.333   7.283   5.490  0.2382  0.2400 -0.0328
17609SOL    HW154043   6.310   7.270   5.398 -2.0127  1.7122  0.2463
17609SOL    HW254044   6.344   7.378   5.498 -1.3157  0.3318  1.5288
17610SOL     OW54045   7.274   5.229   5.338  0.7605 -0.6888 -0.3683
17610SOL    HW154046   7.239   5.166   5.401  1.8166 -0.7843  0.1348
17610SOL    HW254047   7.302   5.175   5.264 -0.6723 -0.5586 -1.0424
17611SOL     OW54048   6.335   5.754   4.363  0.1688 -0.0763  0.0969
17611SOL    HW154049   6.349   5.844   4.334  0.7336  0.0798  0.8190
17611SOL    HW254050   6.257   5.725   4.316 -1.3468  1.5151  1.5075
17612SOL     OW54051   7.114   6.865   4.564  0.4143 -0.6869 -0.1382
17612SOL    HW154052   7.151   6.852   4.651 -0.0615 -0.7655  0.0561
17612SOL    HW254053   7.029   6.822   4.568  0.3708 -0.6445 -0.6261
17613SOL     OW54054   6.643   5.835   5.269 -0.3194  0.2736  0.3028
17613SOL    HW154055   6.584   5.842   5.194 -0.4612  1.5603  0.5100
17613SOL    HW254056   6.715   5.780   5.238 -0.3508  0.8203 -0.7948
17614SOL     OW54057   6.394   6.814   4.299 -0.6780  0.0833 -0.3644
17614SOL    HW154058   6.485   6.787   4.315 -0.3138  1.0345 -0.7506
17614SOL    HW254059   6.355   6.740   4.252 -0.5233 -0.9250  1.0239
17615SOL     OW54060   7.185   5.806   4.798  0.3053  0.2296  0.0537
17615SOL    HW154061   7.193   5.871   4.868  2.2751  1.9138 -1.5969
17615SOL    HW254062   7.259   5.746   4.812  1.2044  1.0563 -0.9901
17616SOL     OW54063   6.703   5.019   4.545  0.5015 -0.3189  0.1824
17616SOL    HW154064   6.685   5.070   4.466 -2.0030 -0.1703  0.7471
17616SOL    HW254065   6.698   5.083   4.616 -2.2913 -1.1650  0.8614
17617SOL     OW54066   6.477   6.361   3.831 -0.3701 -0.2718  0.0823
17617SOL    HW154067   6.478   6.456   3.815 -1.3618 -0.3814 -0.7343
17617SOL    HW254068   6.532   6.325   3.761 -0.1322 -0.3214  0.2927
17618SOL     OW54069   6.352   7.064   5.105 -0.0594 -0.3050  0.4253
17618SOL    HW154070   6.279   7.099   5.055  1.8904 -1.7451 -3.8790
17618SOL    HW254071   6.336   6.969   5.107  1.5871 -0.6410 -0.5630
17619SOL     OW54072   6.489   5.328   3.954  0.2172 -0.0583 -0.5835
17619SOL    HW154073   6.485   5.367   4.041  0.5765 -0.1440 -0.5285
17619SOL    HW254074   6.409   5.276   3.947  0.1165  0.0663 -0.3629
17620SOL     OW54075   6.889   5.943   4.464 -0.5009 -0.4366  0.4010
17620SOL    HW154076   6.875   5.983   4.550  0.8535  0.8397  0.0703
17620SOL    HW254077   6.970   5.894   4.473  0.6497  1.1775 -0.5790
17621SOL     OW54078   6.995   6.182   5.158 -1.0351 -0.0674  0.2587
17621SOL    HW154079   6.957   6.123   5.223  0.3511  0.0556  1.2464
17621SOL    HW254080   7.019   6.260   5.208 -0.4591  0.2634 -0.5066
17622SOL     OW54081   5.780   6.400   3.983 -0.2423  0.5910 -0.4027
17622SOL    HW154082   5.763   6.328   3.923 -1.7662  0.2290  0.4145
17622SOL    HW254083   5.845   6.364   4.044  0.0722  0.4060 -0.8382
17623SOL     OW54084   6.563   7.102   4.197  0.5038  0.0589  0.4563
17623SOL    HW154085   6.529   7.095   4.108  1.2677  0.3755  0.1350
17623SOL    HW254086   6.520   7.180   4.233  2.2608  1.5658 -0.5839
17624SOL     OW54087   5.940   6.039   5.787 -0.0129 -0.4350 -0.0144
17624SOL    HW154088   5.878   6.080   5.848 -1.0586 -2.6078  0.4892
17624SOL    HW254089   6.010   6.104   5.776 -0.2380  0.3945  2.7783
17625SOL     OW54090   5.692   5.672   6.326  0.8980 -0.0317  0.2129
17625SOL    HW154091   5.649   5.615   6.390 -0.0111  0.2889 -0.1047
17625SOL    HW254092   5.776   5.630   6.310  1.8137  0.6374  2.7206
17626SOL     OW54093   5.632   6.060   5.642  0.4465 -0.0571 -0.1704
17626SOL    HW154094   5.642   6.012   5.560 -0.1313 -0.0357 -0.2579
17626SOL    HW254095   5.579   6.003   5.697  0.0913  0.3059 -0.1301
17627SOL     OW54096   6.188   6.830   6.415 -0.1860 -0.0333  0.0381
17627SOL    HW154097   6.101   6.803   6.386 -0.3296 -0.1961  0.6002
17627SOL    HW254098   6.247   6.794   6.349 -0.5260 -0.1278 -0.2189
17628SOL     OW54099   7.040   7.649   5.983  0.3959 -0.1233  0.2902
17628SOL    HW154100   6.988   7.605   6.050 -0.0649  2.2124  1.5793
17628SOL    HW254101   6.979   7.661   5.910  0.9262 -2.7647 -0.6862
17629SOL     OW54102   6.607   6.422   5.815  0.9340  0.5575 -0.8867
17629SOL    HW154103   6.554   6.369   5.876  0.6262  0.8069 -0.9314
17629SOL    HW254104   6.662   6.358   5.769  1.3928  0.3950 -0.1319
17630SOL     OW54105   7.267   6.277   5.933 -0.1496 -0.0254 -0.0463
17630SOL    HW154106   7.249   6.237   5.847  0.6551  2.1214 -1.2876
17630SOL    HW254107   7.184   6.268   5.981 -1.2735  0.4831 -1.7978
17631SOL     OW54108   6.001   6.460   6.364  0.0149  0.3264 -0.3097
17631SOL    HW154109   6.087   6.495   6.389  0.7107  0.7252 -3.0137
17631SOL    HW254110   6.016   6.415   6.281 -2.0931 -1.1035  0.0006
17632SOL     OW54111   6.347   6.277   7.517 -0.4836  0.2437  0.0141
17632SOL    HW154112   6.402   6.325   7.455  0.4079 -1.4784 -0.5838
17632SOL    HW254113   6.269   6.333   7.528  1.0190  2.4115  0.3403
17633SOL     OW54114   6.290   6.525   6.241  0.2881 -0.1845 -0.2744
17633SOL    HW154115   6.253   6.519   6.153 -1.8002  1.7657  0.3812
17633SOL    HW254116   6.330   6.612   6.244 -2.9989  1.4455  1.7486
17634SOL     OW54117   5.688   6.601   7.411  0.3480  0.2448 -0.4875
17634SOL    HW154118   5.622   6.604   7.341 -1.3625 -0.6728  1.0286
17634SOL    HW254119   5.726   6.514   7.404  0.3178  0.2239 -0.3891
17635SOL     OW54120   5.695   6.559   6.500  0.6371 -0.5834 -0.0547
17635SOL    HW154121   5.628   6.623   6.475  0.9092  0.0877  0.8842
17635SOL    HW254122   5.660   6.517   6.578  1.4034 -0.0592  0.5842
17636SOL     OW54123   6.762   6.933   6.827 -0.3227 -0.0220 -0.2253
17636SOL    HW154124   6.683   6.880   6.827  0.1331 -0.7259  0.7624
17636SOL    HW254125   6.830   6.875   6.861  0.5163  0.7226 -0.5893
17637SOL     OW54126   5.972   6.068   6.946  0.5039 -0.1674 -0.0588
17637SOL    HW154127   5.912   6.101   7.013 -0.1852  0.5779 -1.0071
17637SOL    HW254128   6.005   5.986   6.982 -0.1234  0.0308  1.0288
17638SOL     OW54129   7.173   6.304   6.370 -0.0909 -0.3683  0.3310
17638SOL    HW154130   7.139   6.369   6.431 -0.0480 -0.5051  0.5010
17638SOL    HW254131   7.123   6.225   6.388 -0.2865 -0.3234 -0.0194
17639SOL     OW54132   5.928   7.063   5.989  0.1067 -0.3562 -0.1785
17639SOL    HW154133   6.014   7.052   5.948  0.7028  1.1253  0.6078
17639SOL    HW254134   5.946   7.079   6.081 -0.9371  1.0083 -0.1794
17640SOL     OW54135   6.626   6.750   7.351 -0.2396 -0.0602 -0.5137
17640SOL    HW154136   6.561   6.811   7.383  0.4783  0.2104  0.4811
17640SOL    HW254137   6.710   6.792   7.370  0.2934 -1.6077  0.8129
17641SOL     OW54138   5.677   6.603   5.976 -0.2902  0.1989 -0.6714
17641SOL    HW154139   5.761   6.640   6.003 -1.2004  2.1034 -0.2685
17641SOL    HW254140   5.694   6.565   5.890  0.6512  1.9095 -1.2802
17642SOL     OW54141   5.553   6.298   6.397 -0.8738 -0.1819  0.4330
17642SOL    HW154142   5.500   6.322   6.321  1.9385  0.5622 -1.4668
17642SOL    HW254143   5.533   6.205   6.412 -1.7654 -0.2464 -0.9867
17643SOL     OW54144   5.674   7.115   6.830 -0.1718  0.2096 -0.5376
17643SOL    HW154145   5.762   7.151   6.820  0.7470 -1.9009 -0.4589
17643SOL    HW254146   5.659   7.115   6.925  0.5509 -1.1702 -0.3978
17644SOL     OW54147   6.835   6.522   5.534 -0.0631  0.0681  0.0822
17644SOL    HW154148   6.877   6.481   5.459 -0.7430 -0.7379  0.1282
17644SOL    HW254149   6.905   6.535   5.597  0.4449  0.4098 -0.5442
17645SOL     OW54150   7.154   5.551   6.977 -0.4554 -0.4256  0.0416
17645SOL    HW154151   7.081   5.490   6.977 -0.8683  0.0124 -1.3057
17645SOL    HW254152   7.231   5.496   6.989 -0.8720 -1.1433 -0.4419
17646SOL     OW54153   5.763   6.162   5.983 -0.5588  0.0485 -0.1735
17646SOL    HW154154   5.741   6.255   5.980 -1.2749 -0.1398 -1.9012
17646SOL    HW254155   5.679   6.119   6.001 -0.6516 -0.3718 -1.5580
17647SOL     OW54156   7.781   7.532   5.559 -0.2178 -0.1254  0.4154
17647SOL    HW154157   7.875   7.516   5.560 -0.0619  0.6632 -0.3615
17647SOL    HW254158   7.754   7.526   5.651  0.4466 -1.1263  0.5564
17648SOL     OW54159   5.531   7.528   5.696 -0.4001 -0.7122 -0.5030
17648SOL    HW154160   5.601   7.470   5.727  0.0451  0.2973  0.4643
17648SOL    HW254161   5.572   7.614   5.692 -1.5248 -0.1410 -0.1343
17649SOL     OW54162   7.501   6.942   6.135  0.1224 -0.3915 -0.9311
17649SOL    HW154163   7.537   7.022   6.098  0.3911  0.2111  0.5850
17649SOL    HW254164   7.406   6.957   6.138  0.0968 -0.4502 -1.3493
17650SOL     OW54165   7.293   7.092   5.677 -0.2551 -0.6622 -0.3428
17650SOL    HW154166   7.210   7.115   5.718 -1.5390 -1.2817 -2.4762
17650SOL    HW254167   7.357   7.097   5.749 -2.4230 -2.3048  1.8773
17651SOL     OW54168   5.104   5.516   7.182  0.0206  0.1139  0.0225
17651SOL    HW154169   5.161   5.541   7.109  1.6960  2.1753  1.8738
17651SOL    HW254170   5.148   5.442   7.223  0.3487  0.4495  0.2877
17652SOL     OW54171   6.171   6.528   5.996 -0.0594  0.0169  0.3180
17652SOL    HW154172   6.151   6.446   5.951 -0.1520 -0.3441  1.0128
17652SOL    HW254173   6.232   6.573   5.937 -0.0375 -0.5298 -0.0864
17653SOL     OW54174   6.768   6.687   7.068  0.0452 -0.9128  0.9132
17653SOL    HW154175   6.686   6.682   7.118 -0.1111 -0.5313  0.7015
17653SOL    HW254176   6.748   6.643   6.985 -0.6772  1.1886 -0.0869
17654SOL     OW54177   6.135   5.715   6.111  0.5841 -0.2165 -0.2120
17654SOL    HW154178   6.143   5.705   6.016 -2.0783 -0.1029 -0.5448
17654SOL    HW254179   6.068   5.650   6.135  0.2725  0.6534  1.3751
17655SOL     OW54180   5.344   6.107   7.016 -0.4335  0.0826 -0.3352
17655SOL    HW154181   5.340   6.012   7.002 -0.9124 -0.3256  2.0378
17655SOL    HW254182   5.257   6.138   6.993 -1.0858 -0.4853  1.2461
17656SOL     OW54183   7.031   6.784   5.933 -0.0070 -0.6721 -0.0061
17656SOL    HW154184   7.120   6.812   5.914 -0.8630  1.5663 -1.1519
17656SOL    HW254185   7.040   6.695   5.967  2.5791 -0.7564 -0.7085
17657SOL     OW54186   7.017   7.394   7.249 -0.2525 -0.0584  0.1813
17657SOL    HW154187   7.062   7.388   7.333  0.5434 -1.1912 -0.3090
17657SOL    HW254188   7.049   7.319   7.198 -2.6660 -0.9434 -0.2052
17658SOL     OW54189   5.848   5.766   7.341  0.0591 -0.4354 -0.3430
17658SOL    HW154190   5.901   5.699   7.300 -0.0234  0.1254 -1.4181
17658SOL    HW254191   5.858   5.843   7.285 -0.8904  0.0564  0.1184
17659SOL     OW54192   7.160   7.383   6.122 -0.0326 -0.2770 -0.3964
17659SOL    HW154193   7.173   7.405   6.030 -0.4743  1.0777 -0.1562
17659SOL    HW254194   7.081   7.432   6.147  0.5776  0.0708  0.9189
17660SOL     OW54195   7.255   7.401   5.850 -0.0372 -0.0193  0.5389
17660SOL    HW154196   7.168   7.389   5.811  1.1596  0.4454 -2.6017
17660SOL    HW254197   7.270   7.495   5.846  0.4802 -0.0672  1.3731
17661SOL     OW54198   6.279   6.183   5.565  0.2272 -0.2785 -0.8438
17661SOL    HW154199   6.374   6.188   5.556  0.4192 -1.1908  0.4760
17661SOL    HW254200   6.253   6.271   5.593  0.9210 -0.5210  0.6254
17662SOL     OW54201   6.758   5.962   6.717 -0.6555  0.1071 -0.0191
17662SOL    HW154202   6.804   5.896   6.665 -0.6344 -0.2946  0.4971
17662SOL    HW254203   6.665   5.943   6.704 -0.6465 -0.1138  0.2463
17663SOL     OW54204   7.065   7.447   5.610 -0.3992  0.8380 -0.2439
17663SOL    HW154205   7.138   7.453   5.549  0.3221  0.7576  0.5858
17663SOL    HW254206   7.018   7.368   5.584 -0.5521  1.2224 -1.1621
17664SOL     OW54207   6.498   6.432   6.810  0.3073  1.0479  0.5749
17664SOL    HW154208   6.500   6.347   6.854 -0.1575  0.5240 -0.3989
17664SOL    HW254209   6.452   6.489   6.871  2.1301  1.0834  2.0250
17665SOL     OW54210   6.682   5.852   7.117 -0.0694  0.0110 -0.3969
17665SOL    HW154211   6.677   5.806   7.201  1.0738  0.8133  0.1490
17665SOL    HW254212   6.739   5.927   7.135  2.4167 -1.2164 -2.5230
17666SOL     OW54213   6.305   6.708   7.548 -0.2065  0.2250 -0.0955
17666SOL    HW154214   6.212   6.720   7.534 -0.2344 -0.5214 -0.6082
17666SOL    HW254215   6.320   6.735   7.639 -0.6239  1.8653 -0.4760
17667SOL     OW54216   6.479   5.905   6.935  0.0279 -0.1007  0.1662
17667SOL    HW154217   6.433   5.821   6.944  0.5584 -0.4112  0.0572
17667SOL    HW254218   6.542   5.906   7.007 -1.3720  1.1501  1.4360
17668SOL     OW54219   6.643   6.349   6.155  0.2192  0.6551 -0.4530
17668SOL    HW154220   6.696   6.271   6.138  1.5336  1.3317  0.3021
17668SOL    HW254221   6.555   6.326   6.126  0.5244 -1.1782 -0.0375
17669SOL     OW54222   5.506   6.028   6.087  0.1585 -0.2748  0.7368
17669SOL    HW154223   5.579   5.993   6.138  0.3667 -2.6352 -1.0316
17669SOL    HW254224   5.428   5.985   6.123 -0.0232  0.0820  0.7758
17670SOL     OW54225   5.725   7.178   7.103 -0.2009  0.7420 -0.0179
17670SOL    HW154226   5.642   7.181   7.150 -0.7511  0.8428 -0.9774
17670SOL    HW254227   5.754   7.270   7.099 -0.5188  0.8210 -0.5125
17671SOL     OW54228   6.459   5.559   5.714  0.5265  0.0787 -0.2139
17671SOL    HW154229   6.416   5.489   5.666  0.5437 -0.8222  1.0305
17671SOL    HW254230   6.388   5.611   5.750  0.4525 -0.7738  0.9303
17672SOL     OW54231   7.387   6.679   6.967  0.0165  0.3789  0.4146
17672SOL    HW154232   7.342   6.637   6.894  0.5126 -0.9499  0.8355
17672SOL    HW254233   7.352   6.768   6.969 -1.3756 -0.1218 -0.2709
17673SOL     OW54234   7.245   7.012   6.088  0.1489  0.4503  0.6132
17673SOL    HW154235   7.162   7.051   6.061  1.2383  2.1271 -0.6014
17673SOL    HW254236   7.275   6.964   6.011  1.3069  1.7464  0.1961
17674SOL     OW54237   6.407   5.628   6.131 -0.1460 -0.1835 -0.3405
17674SOL    HW154238   6.402   5.543   6.087  0.1280 -0.8822  0.9422
17674SOL    HW254239   6.316   5.652   6.148 -0.1741 -1.1406  0.9830
17675SOL     OW54240   6.734   6.681   5.967 -0.2921  0.3304 -0.2897
17675SOL    HW154241   6.733   6.607   5.906  1.5492  0.2539 -0.2937
17675SOL    HW254242   6.780   6.750   5.919 -2.4362  1.6963 -0.4789
17676SOL     OW54243   6.069   6.951   6.760  0.5856  0.3388 -0.0002
17676SOL    HW154244   6.085   7.013   6.689 -1.5461  0.7865 -0.1630
17676SOL    HW254245   6.092   6.866   6.723  1.0993  0.7499 -0.6486
17677SOL     OW54246   7.226   6.699   6.227  0.3687 -0.1360  0.4460
17677SOL    HW154247   7.166   6.662   6.162  0.3083  0.9841 -0.1562
17677SOL    HW254248   7.170   6.749   6.285  0.7970  1.7960 -0.7364
17678SOL     OW54249   6.540   6.760   6.825 -0.4591  0.4206  0.3066
17678SOL    HW154250   6.481   6.712   6.767 -0.5421  0.3298  0.4633
17678SOL    HW254251   6.497   6.757   6.911  0.4864 -0.9751  0.7726
17679SOL     OW54252   5.971   6.363   5.718 -0.0797  0.3798  0.2759
17679SOL    HW154253   5.929   6.448   5.724 -3.2349 -1.0204  0.0922
17679SOL    HW254254   5.954   6.333   5.628  1.1907 -0.3723  0.2531
17680SOL     OW54255   6.872   6.407   6.349 -0.3458  0.1159 -0.5060
17680SOL    HW154256   6.852   6.321   6.386 -0.4795  0.0920 -0.6316
17680SOL    HW254257   6.835   6.404   6.261  0.9839 -0.2392 -1.0740
17681SOL     OW54258   6.285   6.307   7.130  0.4635  0.0875  0.4890
17681SOL    HW154259   6.227   6.319   7.056  2.5772 -1.4829 -1.5806
17681SOL    HW254260   6.227   6.293   7.205 -1.8371 -1.4318 -1.4346
17682SOL     OW54261   6.631   7.484   5.530 -0.4032 -0.3361  0.0232
17682SOL    HW154262   6.537   7.502   5.537 -0.2024  0.4948  0.6862
17682SOL    HW254263   6.673   7.551   5.583  0.6155 -0.3077 -0.7813
17683SOL     OW54264   5.760   6.131   7.107 -0.1328 -0.1570  0.2979
17683SOL    HW154265   5.708   6.058   7.143  1.3466 -1.4243 -0.0157
17683SOL    HW254266   5.695   6.199   7.088 -1.4132 -0.8853  1.8104
17684SOL     OW54267   7.210   6.859   5.556  0.3018 -0.2188 -0.4142
17684SOL    HW154268   7.192   6.947   5.590  0.1298 -0.2329 -0.4663
17684SOL    HW254269   7.305   6.850   5.562  0.4168  0.3026 -1.1943
17685SOL     OW54270   6.170   7.009   5.869  0.1346 -0.4512  0.2118
17685SOL    HW154271   6.131   6.998   5.782  1.0541 -1.2491 -0.1128
17685SOL    HW254272   6.255   6.965   5.863  0.8081  0.6923  1.0987
17686SOL     OW54273   6.864   5.895   6.128 -0.5023  0.0348  0.1238
17686SOL    HW154274   6.792   5.902   6.190  0.6237  0.6132  1.4055
17686SOL    HW254275   6.863   5.804   6.100 -1.6940  0.0270  0.1335
17687SOL     OW54276   5.706   6.930   6.561  0.6563 -0.0681 -0.1610
17687SOL    HW154277   5.614   6.906   6.548  1.2580 -2.1350 -0.8411
17687SOL    HW254278   5.706   6.978   6.644 -1.2332  1.3618 -0.8992
17688SOL     OW54279   6.094   7.097   6.335  0.0051 -0.3661 -0.1385
17688SOL    HW154280   6.005   7.070   6.357  0.2681 -1.2567 -0.1340
17688SOL    HW254281   6.145   7.016   6.333  1.1394  0.2513  1.2931
17689SOL     OW54282   6.099   6.170   6.099  0.1835 -0.0557 -0.0230
17689SOL    HW154283   6.150   6.095   6.129  0.6757 -0.1764 -1.1097
17689SOL    HW254284   6.012   6.157   6.138  1.0278  0.3112  2.1092
17690SOL     OW54285   7.049   5.908   7.229  0.4048 -0.0551 -0.5238
17690SOL    HW154286   7.016   5.821   7.252  1.1490 -0.6280 -1.5555
17690SOL    HW254287   6.974   5.966   7.242 -0.3483 -0.9751 -0.6452
17691SOL     OW54288   6.002   5.431   5.505 -0.1752 -0.2601  0.2138
17691SOL    HW154289   6.026   5.366   5.439 -0.8000 -0.0919 -0.1888
17691SOL    HW254290   5.914   5.459   5.480 -0.7292 -0.7210  1.5370
17692SOL     OW54291   6.373   5.406   7.227  0.7072 -0.1427  0.5528
17692SOL    HW154292   6.302   5.424   7.289 -0.4925 -0.3238 -0.7094
17692SOL    HW254293   6.330   5.359   7.156  1.8723  0.8034 -0.8201
17693SOL     OW54294   6.394   6.964   6.578 -0.3989 -0.0431 -0.1890
17693SOL    HW154295   6.311   6.974   6.624  0.5012  1.0172  1.2526
17693SOL    HW254296   6.369   6.928   6.492 -2.2402 -0.6269  0.5422
17694SOL     OW54297   6.430   6.032   7.258 -0.0224 -0.2300  0.2563
17694SOL    HW154298   6.496   6.079   7.207 -1.1972  0.7852 -0.3794
17694SOL    HW254299   6.452   5.940   7.247  1.1767  0.0796 -0.0826
17695SOL     OW54300   6.381   6.789   6.234  0.1470 -0.2834  0.2391
17695SOL    HW154301   6.374   6.855   6.165  0.7106  1.5283  1.8359
17695SOL    HW254302   6.469   6.752   6.222 -1.0379 -2.6599 -2.1985
17696SOL     OW54303   6.478   5.950   6.661 -0.5449  0.5734 -0.3092
17696SOL    HW154304   6.472   5.938   6.755 -1.3397 -0.1005 -0.4428
17696SOL    HW254305   6.423   6.026   6.643 -2.2783 -0.6794 -0.5006
17697SOL     OW54306   5.906   5.493   6.152  0.8779  0.5705  0.4576
17697SOL    HW154307   5.845   5.483   6.080 -1.3053 -0.5200  2.3137
17697SOL    HW254308   5.939   5.405   6.168  0.0916  0.4825  1.7503
17698SOL     OW54309   7.446   6.700   5.427  0.1469  0.5501  0.1454
17698SOL    HW154310   7.361   6.703   5.384 -0.3053  0.7891  1.0262
17698SOL    HW254311   7.464   6.606   5.437  0.9038  0.4567 -1.7586
17699SOL     OW54312   5.556   5.184   6.019 -0.2414  0.1947 -0.0768
17699SOL    HW154313   5.552   5.178   5.924 -1.6970  2.3858 -0.2305
17699SOL    HW254314   5.626   5.247   6.037 -0.6550  0.5732  0.2361
17700SOL     OW54315   6.550   6.033   5.874 -0.1149  0.1196  0.7683
17700SOL    HW154316   6.472   6.042   5.819  0.4570  0.0866 -0.0614
17700SOL    HW254317   6.516   6.033   5.963 -1.0003  1.0008  0.4580
17701SOL     OW54318   6.019   6.530   7.411 -0.0406  0.3382  0.1265
17701SOL    HW154319   6.075   6.511   7.486 -0.3938  1.4121  0.6972
17701SOL    HW254320   5.984   6.445   7.384  0.5694 -0.1350  0.8001
17702SOL     OW54321   6.885   6.800   6.538  0.2446 -0.2443  0.0410
17702SOL    HW154322   6.802   6.830   6.575  0.8570  0.2209  1.0887
17702SOL    HW254323   6.894   6.848   6.456 -0.5403 -0.3485 -0.1198
17703SOL     OW54324   5.679   6.414   6.173 -0.5100  0.0394 -0.0019
17703SOL    HW154325   5.670   6.496   6.125 -0.5858 -0.0467 -0.1349
17703SOL    HW254326   5.600   6.364   6.152  0.1797 -0.6672 -1.0874
17704SOL     OW54327   6.600   7.140   6.261 -0.2251  0.1189  0.6032
17704SOL    HW154328   6.513   7.140   6.301 -0.2805  1.4437  0.5327
17704SOL    HW254329   6.647   7.211   6.306  0.8239 -0.5615  0.6300
17705SOL     OW54330   6.219   5.745   5.846 -0.4532  0.1277  0.7820
17705SOL    HW154331   6.202   5.699   5.763  0.3797 -0.4358  0.9089
17705SOL    HW254332   6.277   5.817   5.823 -2.1006  1.4381  0.5128
17706SOL     OW54333   5.598   5.948   7.270 -0.2511 -0.1324 -0.1947
17706SOL    HW154334   5.535   5.878   7.252  2.0856 -1.8617 -2.3889
17706SOL    HW254335   5.644   5.919   7.349  1.2129 -1.5575 -1.5106
17707SOL     OW54336   5.986   5.744   6.863 -0.2161  0.6152 -0.2814
17707SOL    HW154337   5.985   5.650   6.847 -0.9915  0.6379 -0.3688
17707SOL    HW254338   5.941   5.783   6.788 -3.2317  0.7697  1.4543
17708SOL     OW54339   6.129   5.529   6.366 -0.3182  0.4962 -0.2489
17708SOL    HW154340   6.054   5.560   6.314  2.0719  0.5981 -4.0676
17708SOL    HW254341   6.135   5.436   6.345  1.1346  0.6960 -0.7955
17709SOL     OW54342   6.556   5.708   6.667  0.3371  0.1869  0.2424
17709SOL    HW154343   6.479   5.652   6.661  0.5868 -0.0963 -4.5459
17709SOL    HW254344   6.521   5.796   6.676 -0.5203 -0.0690 -0.3955
17710SOL     OW54345   7.074   6.606   6.545  0.1459 -0.1232  0.3310
17710SOL    HW154346   7.040   6.524   6.507  2.2563  0.2496 -2.7562
17710SOL    HW254347   7.013   6.673   6.514  0.7670 -0.0650 -0.8179
17711SOL     OW54348   6.825   6.175   6.563 -0.3269  0.8185 -0.3425
17711SOL    HW154349   6.813   6.100   6.622 -1.0676 -0.9548 -2.5824
17711SOL    HW254350   6.908   6.214   6.590  1.3074 -2.2428 -0.4606
17712SOL     OW54351   7.512   6.782   5.713 -0.2686  0.0907 -0.2086
17712SOL    HW154352   7.502   6.768   5.619  0.9911 -1.1773 -0.1942
17712SOL    HW254353   7.543   6.697   5.747  0.2392  0.8019  1.1885
17713SOL     OW54354   6.012   6.837   5.540  0.1684 -0.2294  0.5476
17713SOL    HW154355   5.924   6.867   5.516 -0.3469  0.4293  2.9516
17713SOL    HW254356   6.059   6.917   5.565  0.9944 -0.7283  0.6258
17714SOL     OW54357   7.447   7.183   5.897 -0.0490 -0.0294  0.0874
17714SOL    HW154358   7.488   7.192   5.984 -1.0770 -1.3678  0.7444
17714SOL    HW254359   7.401   7.266   5.884 -0.0740  0.1021  0.9186
17715SOL     OW54360   6.963   5.527   5.562 -0.0772 -0.7382  0.0206
17715SOL    HW154361   6.904   5.451   5.558  0.5261 -1.2600  0.7230
17715SOL    HW254362   7.046   5.495   5.526 -0.3229  0.1127 -1.3593
17716SOL     OW54363   6.106   5.185   5.927 -0.7724 -0.0837  0.0972
17716SOL    HW154364   6.197   5.200   5.899  0.0093 -1.3170  1.7857
17716SOL    HW254365   6.054   5.210   5.851  1.0723 -0.9551 -1.5694
17717SOL     OW54366   7.230   6.557   6.771  0.3778  0.1944 -0.1408
17717SOL    HW154367   7.172   6.569   6.696 -0.5123  1.6459  0.7492
17717SOL    HW254368   7.175   6.516   6.838  0.5906  0.8156  0.4248
17718SOL     OW54369   6.403   6.627   6.614  0.6481 -0.1497  0.4557
17718SOL    HW154370   6.483   6.627   6.562 -0.1331 -0.7500 -0.8044
17718SOL    HW254371   6.408   6.548   6.667  0.2685 -0.9388 -0.6596
17719SOL     OW54372   7.178   7.142   6.840  0.1227 -0.5387 -0.1798
17719SOL    HW154373   7.152   7.109   6.755  1.1006 -1.2752 -0.2066
17719SOL    HW254374   7.243   7.210   6.820 -0.9766  0.5653 -0.0792
17720SOL     OW54375   6.976   7.155   6.377  0.0754 -0.4795 -0.1771
17720SOL    HW154376   6.983   7.083   6.314 -0.7172 -0.4311 -0.3239
17720SOL    HW254377   7.018   7.121   6.456  0.6596 -0.7106 -0.5730
17721SOL     OW54378   6.615   6.593   6.459 -0.3077  0.4029  0.1135
17721SOL    HW154379   6.624   6.623   6.368 -2.7172 -0.2368 -0.4107
17721SOL    HW254380   6.676   6.519   6.466  1.2354  1.5831 -0.3999
17722SOL     OW54381   6.364   5.478   6.681  0.4037  0.3428 -1.0499
17722SOL    HW154382   6.414   5.469   6.599  1.0776  0.1181 -0.6195
17722SOL    HW254383   6.294   5.540   6.659  0.5241  0.2169 -1.8241
17723SOL     OW54384   6.054   6.784   7.626  0.6359  0.1024  0.0758
17723SOL    HW154385   6.001   6.713   7.662  1.6286 -1.3362 -1.1780
17723SOL    HW254386   6.009   6.809   7.546  0.0333  1.2703  0.7446
17724SOL     OW54387   6.619   6.687   5.582  0.0294 -0.1568  0.2837
17724SOL    HW154388   6.657   6.723   5.662 -1.0018 -0.1378  0.7759
17724SOL    HW254389   6.679   6.617   5.557  0.6033  0.1260  0.8134
17725SOL     OW54390   5.869   6.258   6.586 -0.5662 -0.4208 -0.4316
17725SOL    HW154391   5.960   6.230   6.586 -0.4796 -0.1356 -0.5045
17725SOL    HW254392   5.824   6.193   6.641 -0.2698 -0.3937 -0.1550
17726SOL     OW54393   6.295   6.117   6.844 -0.3728  0.1079  0.4538
17726SOL    HW154394   6.377   6.069   6.855  0.0586  0.1139 -2.0413
17726SOL    HW254395   6.234   6.075   6.905  0.3041 -2.8900 -0.7225
17727SOL     OW54396   5.886   6.842   6.912  0.2661 -0.3537 -0.1845
17727SOL    HW154397   5.906   6.877   6.999  4.3978 -0.7679 -0.7517
17727SOL    HW254398   5.946   6.889   6.853 -1.0013 -1.4814 -2.5341
17728SOL     OW54399   6.159   6.285   5.873  0.0965 -0.1381 -0.5730
17728SOL    HW154400   6.109   6.249   5.946  0.8802 -0.9260 -0.4118
17728SOL    HW254401   6.093   6.312   5.809 -0.6222  1.0189  0.6099
17729SOL     OW54402   6.173   5.680   6.595  0.1267 -0.0354 -0.7357
17729SOL    HW154403   6.165   5.657   6.502 -1.5041  0.1212 -0.6737
17729SOL    HW254404   6.136   5.605   6.642 -1.3272  0.8703 -0.3554
17730SOL     OW54405   6.734   7.334   6.095 -0.3467  0.0260  0.0338
17730SOL    HW154406   6.679   7.269   6.141  0.8006 -0.7800  0.3087
17730SOL    HW254407   6.680   7.361   6.021 -0.9445 -1.0967  0.0221
17731SOL     OW54408   6.766   7.320   6.400  0.0339  0.1165 -0.0248
17731SOL    HW154409   6.743   7.327   6.492 -0.6202  0.9401 -0.2392
17731SOL    HW254410   6.838   7.257   6.398  0.0847  0.1229  1.0433
17732SOL     OW54411   7.082   6.602   5.640 -0.0571  0.3238  0.6110
17732SOL    HW154412   7.146   6.560   5.697  0.3925 -0.0869 -0.1744
17732SOL    HW254413   7.114   6.691   5.629 -0.3061  0.4933  1.2313
17733SOL     OW54414   5.894   6.785   7.361 -0.4165  0.4799 -0.0171
17733SOL    HW154415   5.816   6.751   7.405 -0.1108 -1.3057 -0.7977
17733SOL    HW254416   5.951   6.709   7.351 -0.3227  0.8336 -3.1610
17734SOL     OW54417   6.018   6.270   7.256  0.6523  0.3507 -0.0406
17734SOL    HW154418   6.034   6.175   7.253  0.6021  0.3594 -0.8700
17734SOL    HW254419   6.010   6.296   7.164 -1.8063  0.7368  0.1977
17735SOL     OW54420   6.813   6.069   7.247 -0.2995 -0.4467 -0.0778
17735SOL    HW154421   6.780   6.084   7.336 -2.0727 -0.2874 -0.7051
17735SOL    HW254422   6.838   6.156   7.216  2.2047 -0.7383  0.8848
17736SOL     OW54423   6.564   5.228   7.488  0.6459  0.6382 -0.5421
17736SOL    HW154424   6.592   5.312   7.452  0.1946  1.8585  1.7441
17736SOL    HW254425   6.529   5.250   7.574  0.8693 -1.9512  0.2906
17737SOL     OW54426   6.030   5.602   7.223  0.4853 -0.0634 -0.0884
17737SOL    HW154427   6.074   5.532   7.177  1.8570  0.3791  0.5065
17737SOL    HW254428   6.091   5.629   7.292  1.0172  3.1910 -1.6207
17738SOL     OW54429   6.457   6.076   6.180 -0.1414 -0.5253 -0.5739
17738SOL    HW154430   6.365   6.053   6.186  0.0213 -0.9422  0.5681
17738SOL    HW254431   6.482   6.098   6.270  0.6942  0.2819 -0.9842
17739SOL     OW54432   6.956   6.010   5.678  0.5965 -0.0371 -0.3965
17739SOL    HW154433   6.957   6.080   5.612  1.7692  0.4031  0.0614
17739SOL    HW254434   6.948   5.929   5.626  2.5476  0.2210 -1.2204
17740SOL     OW54435   5.580   5.571   6.558  0.1525  0.3476 -0.3790
17740SOL    HW154436   5.596   5.651   6.608  1.4547 -0.1590  0.0560
17740SOL    HW254437   5.539   5.511   6.621  0.2489  0.2786 -0.3815
17741SOL     OW54438   5.450   6.611   6.749  0.2851 -0.3605 -0.6661
17741SOL    HW154439   5.479   6.528   6.713  0.8791 -0.3567 -0.1988
17741SOL    HW254440   5.518   6.637   6.811 -0.5613 -0.2072  0.2331
17742SOL     OW54441   6.122   5.971   6.465  0.4077 -0.1824  0.2756
17742SOL    HW154442   6.138   5.897   6.523 -1.2225  0.0363  1.0812
17742SOL    HW254443   6.125   6.047   6.522  0.0770  0.1669 -0.1615
17743SOL     OW54444   7.151   6.606   7.363  0.2431 -0.0031  0.1445
17743SOL    HW154445   7.120   6.663   7.433  0.8819 -2.0965  2.2635
17743SOL    HW254446   7.093   6.626   7.289  0.2850  3.1144  0.8043
17744SOL     OW54447   6.163   5.295   6.187 -0.2115  0.2637 -0.1890
17744SOL    HW154448   6.175   5.250   6.104 -1.8047 -2.9426  1.1474
17744SOL    HW254449   6.251   5.326   6.211  0.7244 -0.9148 -1.8904
17745SOL     OW54450   7.269   6.501   5.780 -0.3055  0.5320  0.2097
17745SOL    HW154451   7.364   6.495   5.779 -0.3511 -1.6845  1.8845
17745SOL    HW254452   7.239   6.415   5.808 -2.8617  0.9606 -0.8583
17746SOL     OW54453   6.772   6.473   6.849  0.2261  0.3979  0.0671
17746SOL    HW154454   6.789   6.381   6.868 -0.4193  0.3837  0.6283
17746SOL    HW254455   6.678   6.477   6.832 -0.7623  1.6349  4.6254
17747SOL     OW54456   6.316   7.288   7.160  0.3302 -0.6401 -0.3098
17747SOL    HW154457   6.256   7.347   7.206  1.8962 -0.1107  1.1742
17747SOL    HW254458   6.259   7.220   7.123 -1.1981 -0.0053  0.7587
17748SOL     OW54459   7.459   7.249   6.935  0.2154  0.5449  0.4346
17748SOL    HW154460   7.466   7.338   6.900  0.8023  0.1259 -0.5813
17748SOL    HW254461   7.460   7.259   7.030  3.0566  1.4769  0.4090
17749SOL     OW54462   5.820   6.145   7.547 -0.4835  0.3530 -0.1827
17749SOL    HW154463   5.842   6.216   7.608 -1.2176  0.9322 -0.5636
17749SOL    HW254464   5.876   6.072   7.573  2.1832  1.8406 -1.3596
17750SOL     OW54465   7.082   6.030   6.114  0.1232  0.6291 -0.3616
17750SOL    HW154466   7.013   5.964   6.109 -0.0230  0.7659 -0.1770
17750SOL    HW254467   7.104   6.034   6.207  0.7700  0.1888 -0.4937
17751SOL     OW54468   7.200   6.258   5.667  0.6451  0.1971 -0.5221
17751SOL    HW154469   7.110   6.233   5.648 -0.0759 -1.2518  3.7092
17751SOL    HW254470   7.253   6.193   5.621 -0.5454 -0.1345 -1.4833
17752SOL     OW54471   6.782   6.958   6.147  0.0103 -0.0729 -0.3991
17752SOL    HW154472   6.774   6.868   6.180 -0.7747 -0.8900 -2.6366
17752SOL    HW254473   6.718   7.008   6.199 -0.0996 -0.9454  0.3408
17753SOL     OW54474   5.844   6.126   6.309  0.5658  0.2834 -0.2222
17753SOL    HW154475   5.831   6.064   6.238  2.2266  0.9871 -1.1856
17753SOL    HW254476   5.868   6.072   6.384 -0.9769 -0.4457 -0.2152
17754SOL     OW54477   5.901   5.781   6.602  0.5430  0.0604  0.8139
17754SOL    HW154478   5.980   5.728   6.616  1.3154  0.7243 -0.8066
17754SOL    HW254479   5.855   5.736   6.532  1.4511  1.7039 -0.9368
17755SOL     OW54480   6.665   5.747   7.364  0.1648 -0.5730 -0.1885
17755SOL    HW154481   6.584   5.704   7.390  0.0195  0.5104  1.2155
17755SOL    HW254482   6.717   5.752   7.444  0.6782  0.7596 -0.5859
17756SOL     OW54483   6.850   5.754   6.936  0.3592  0.2261 -0.3586
17756SOL    HW154484   6.933   5.801   6.928 -0.0953  1.4440  1.4488
17756SOL    HW254485   6.796   5.810   6.991 -1.3550 -0.9744 -0.7366
17757SOL     OW54486   5.531   6.780   5.496 -0.0650 -0.0337 -0.8271
17757SOL    HW154487   5.439   6.776   5.470 -0.7514 -0.0664  1.3777
17757SOL    HW254488   5.529   6.797   5.590  2.2284  1.6346 -0.9906
17758SOL     OW54489   5.458   7.430   6.416  0.8483 -0.2991  0.3016
17758SOL    HW154490   5.497   7.354   6.460 -1.8808 -2.0506 -0.0551
17758SOL    HW254491   5.414   7.392   6.340  1.3356  2.0190 -1.2312
17759SOL     OW54492   5.923   6.750   6.477 -0.3419 -0.8084 -0.9549
17759SOL    HW154493   5.874   6.668   6.465 -0.5550 -0.8394  0.0425
17759SOL    HW254494   5.869   6.802   6.536  0.5465 -0.6056 -0.3018
17760SOL     OW54495   6.151   6.206   6.613  1.3665 -0.2840  0.0091
17760SOL    HW154496   6.196   6.277   6.567  1.1565 -0.3817 -0.3549
17760SOL    HW254497   6.198   6.196   6.695  0.8373  0.9117  0.4814
17761SOL     OW54498   5.565   6.157   6.793  0.4054 -0.0103 -0.2721
17761SOL    HW154499   5.510   6.096   6.743 -1.4177 -0.2705  1.8787
17761SOL    HW254500   5.652   6.117   6.791 -0.2712 -1.5563 -0.7531
17762SOL     OW54501   5.329   5.826   7.297  0.1925 -0.3104  0.2077
17762SOL    HW154502   5.332   5.820   7.201 -1.8003 -1.4420  0.1460
17762SOL    HW254503   5.254   5.883   7.315 -0.5214 -1.4660  1.0604
17763SOL     OW54504   7.352   6.456   7.198 -0.0588 -0.1665  0.0306
17763SOL    HW154505   7.276   6.466   7.255 -0.2829  0.0568 -0.3017
17763SOL    HW254506   7.343   6.527   7.135 -0.7669 -1.4313 -1.3627
17764SOL     OW54507   6.165   5.603   5.641  0.1269 -0.2068 -0.2483
17764SOL    HW154508   6.120   5.528   5.602  0.0028 -0.4506  0.3594
17764SOL    HW254509   6.149   5.674   5.579  1.1068 -0.9065 -1.3614
17765SOL     OW54510   7.058   6.283   6.696 -0.0937 -0.1794  0.4303
17765SOL    HW154511   7.099   6.206   6.736  2.7660  1.2706  0.6135
17765SOL    HW254512   7.033   6.338   6.770  0.5003  0.2589  0.3221
17766SOL     OW54513   6.007   6.901   7.899  0.0881 -0.5873  0.2637
17766SOL    HW154514   6.018   6.864   7.811 -0.7820 -0.9580  0.3009
17766SOL    HW254515   6.071   6.855   7.953 -0.9328 -2.0447  0.2995
17767SOL     OW54516   6.177   5.858   7.032 -0.3131 -0.4552  0.0645
17767SOL    HW154517   6.249   5.796   7.047  0.3402 -0.3092 -2.1358
17767SOL    HW254518   6.110   5.807   6.987 -0.5580 -0.0045 -0.0865
17768SOL     OW54519   6.165   6.935   7.088 -0.0806 -0.1418  0.1802
17768SOL    HW154520   6.170   6.845   7.058  1.3897 -0.5726  1.5482
17768SOL    HW254521   6.085   6.939   7.140 -0.6470 -0.3898 -0.6633
17769SOL     OW54522   5.888   5.836   5.607 -0.0932 -0.4518 -0.3871
17769SOL    HW154523   5.849   5.883   5.533 -0.8008 -0.1419  0.1660
17769SOL    HW254524   5.921   5.905   5.664  1.5342 -0.7181 -0.9647
17770SOL     OW54525   5.412   6.306   7.245 -0.3452 -0.6241 -0.1089
17770SOL    HW154526   5.467   6.317   7.167 -0.1878 -0.0569  0.0768
17770SOL    HW254527   5.467   6.258   7.307 -0.5255 -1.2143 -0.3992
17771SOL     OW54528   6.394   6.348   6.436 -0.3102  0.1267 -0.4083
17771SOL    HW154529   6.433   6.434   6.452 -2.4060  0.9152  1.0700
17771SOL    HW254530   6.346   6.359   6.354  0.6755 -0.1416 -1.0341
17772SOL     OW54531   7.360   6.431   5.464 -0.2046  0.5390  0.0190
17772SOL    HW154532   7.293   6.427   5.533 -0.7294  0.5572 -0.4855
17772SOL    HW254533   7.333   6.366   5.400  0.2013  0.6290 -0.2452
17773SOL     OW54534   6.898   7.327   6.740 -0.8706 -0.1557 -0.4361
17773SOL    HW154535   6.906   7.232   6.727 -1.4507 -0.2689 -0.0277
17773SOL    HW254536   6.848   7.336   6.821 -0.7329  0.5036 -0.4171
17774SOL     OW54537   7.069   7.160   7.096  0.6513 -0.0147  0.1452
17774SOL    HW154538   6.986   7.157   7.048  0.6657 -0.9468  0.1508
17774SOL    HW254539   7.135   7.133   7.031  0.6949 -1.0908  0.6060
17775SOL     OW54540   5.866   7.029   6.380 -0.0090  0.4726 -0.0934
17775SOL    HW154541   5.798   6.989   6.434  0.3234  1.6293  1.2511
17775SOL    HW254542   5.823   7.100   6.334 -0.6482 -1.4366 -2.6495
17776SOL     OW54543   6.219   7.135   7.696  0.6139 -0.1344 -0.2040
17776SOL    HW154544   6.223   7.066   7.763  0.2518  0.6606  0.6664
17776SOL    HW254545   6.128   7.163   7.697  0.7582  0.3414 -0.5693
17777SOL     OW54546   6.990   6.279   6.016 -0.2035  0.2514 -0.1188
17777SOL    HW154547   6.908   6.260   5.970 -2.3509  0.3895  3.3441
17777SOL    HW254548   7.004   6.203   6.072  0.9583  1.1211  0.8052
17778SOL     OW54549   6.922   7.518   6.211  0.3195 -0.2878  0.3318
17778SOL    HW154550   6.901   7.523   6.305 -2.7827  1.2810 -0.2984
17778SOL    HW254551   6.861   7.452   6.177 -0.7282  1.2867 -0.9861
17779SOL     OW54552   5.804   7.087   7.958 -0.7178  0.1727  0.4018
17779SOL    HW154553   5.837   7.117   8.043  0.7449  0.7527 -0.3429
17779SOL    HW254554   5.863   7.015   7.934 -1.0657  0.0746 -0.1699
17780SOL     OW54555   7.034   6.893   6.245 -0.0470  0.0915  0.1933
17780SOL    HW154556   7.122   6.918   6.216 -0.5738  1.9823  0.0513
17780SOL    HW254557   6.982   6.894   6.165 -0.6767  1.4356  0.5806
17781SOL     OW54558   6.145   6.689   6.973  0.1533 -0.2829 -0.1929
17781SOL    HW154559   6.141   6.741   6.893 -0.3637 -1.5770 -1.0581
17781SOL    HW254560   6.077   6.623   6.962  1.2438 -1.5903  0.5143
17782SOL     OW54561   6.302   7.256   5.921  0.0339  0.4169  0.2735
17782SOL    HW154562   6.247   7.301   5.856  0.1223 -0.1336 -0.1855
17782SOL    HW254563   6.263   7.169   5.929  0.7863  0.0449  0.0018
17783SOL     OW54564   6.812   6.975   7.371  0.3314  0.2727  0.1570
17783SOL    HW154565   6.831   7.035   7.444  2.0261  2.5984 -2.0258
17783SOL    HW254566   6.823   7.029   7.293 -1.4401 -2.1069 -1.8641
17784SOL     OW54567   7.359   5.739   5.892  0.0442 -0.2993  0.3175
17784SOL    HW154568   7.332   5.828   5.911  1.9897  0.1629  1.2103
17784SOL    HW254569   7.453   5.746   5.874 -0.1488 -1.8791 -1.7130
17785SOL     OW54570   5.721   5.905   6.183 -0.3520 -0.2885 -0.2633
17785SOL    HW154571   5.743   5.880   6.093  0.0854 -0.7596 -0.0290
17785SOL    HW254572   5.701   5.822   6.226 -0.8841 -0.0326 -0.0100
17786SOL     OW54573   6.930   7.239   5.472 -0.1767 -0.1228 -0.0028
17786SOL    HW154574   6.903   7.153   5.504 -0.6080 -0.5949 -1.5589
17786SOL    HW254575   6.880   7.252   5.391  0.6075  1.1558 -0.3188
17787SOL     OW54576   6.138   6.707   6.664 -0.1633 -0.5260  0.2763
17787SOL    HW154577   6.233   6.696   6.661 -0.2908 -1.8554  0.4105
17787SOL    HW254578   6.114   6.729   6.574  0.4303  1.5433  0.5846
17788SOL     OW54579   6.861   6.898   5.739  0.3872  0.0482 -0.0634
17788SOL    HW154580   6.863   6.903   5.644  0.7430  0.2266 -0.0492
17788SOL    HW254581   6.944   6.857   5.763  0.4749  0.3733  0.1923
17789SOL     OW54582   7.050   7.136   5.775 -1.0192  0.3317  0.1538
17789SOL    HW154583   7.032   7.124   5.868 -3.0884  3.0005  0.2327
17789SOL    HW254584   6.972   7.105   5.731 -0.4035 -0.1199 -0.6445
17790SOL     OW54585   5.923   6.565   6.818 -0.2983  0.6970 -0.5549
17790SOL    HW154586   5.872   6.641   6.848 -2.6274 -0.9218 -0.1755
17790SOL    HW254587   5.970   6.598   6.741 -0.0628  2.8923  0.4380
17791SOL     OW54588   7.097   6.993   6.613  0.4041 -0.0152  0.2010
17791SOL    HW154589   7.179   6.944   6.621  0.2951 -0.0960  0.8802
17791SOL    HW254590   7.029   6.926   6.607  0.4258  0.0479 -0.8714
17792SOL     OW54591   6.614   6.639   6.190  0.1494 -0.2606 -0.0010
17792SOL    HW154592   6.591   6.547   6.201  0.4455 -0.1158  2.1733
17792SOL    HW254593   6.662   6.642   6.107  1.3730 -2.3035  0.5760
17793SOL     OW54594   6.540   5.487   6.891  0.3464 -0.5156 -0.3096
17793SOL    HW154595   6.468   5.513   6.834  0.3196  3.0715  1.1348
17793SOL    HW254596   6.619   5.495   6.837  0.0215 -0.6767 -0.8127
17794SOL     OW54597   5.825   6.589   5.693  0.9315 -0.2499 -0.4641
17794SOL    HW154598   5.791   6.571   5.605  0.9628 -1.0062 -0.3292
17794SOL    HW254599   5.818   6.684   5.703 -0.3173 -0.2900 -0.7729
17795SOL     OW54600   7.075   6.018   6.786  0.2182  0.2782  0.5645
17795SOL    HW154601   7.115   5.947   6.836  1.1058 -0.0629 -0.5654
17795SOL    HW254602   7.057   5.979   6.700  0.0834  1.2303  0.1496
17796SOL     OW54603   5.721   6.600   5.425  0.8426 -0.1479  0.0071
17796SOL    HW154604   5.743   6.625   5.336  1.3743  0.4010  0.2821
17796SOL    HW254605   5.640   6.647   5.445 -0.2887 -1.6603 -0.7809
17797SOL     OW54606   5.763   6.345   7.349  0.7723  0.7722 -0.1396
17797SOL    HW154607   5.761   6.271   7.411  2.3644  1.1976  0.4604
17797SOL    HW254608   5.794   6.307   7.267  1.1997  0.7040  0.0547
17798SOL     OW54609   6.371   5.642   7.041  0.2626 -0.2813 -0.5900
17798SOL    HW154610   6.306   5.584   7.080 -3.0584  2.3367 -1.7556
17798SOL    HW254611   6.438   5.583   7.006 -2.5454 -3.4217 -1.2292
17799SOL     OW54612   5.926   5.252   5.743  0.1615 -0.0726  0.0973
17799SOL    HW154613   5.861   5.196   5.700 -0.3290  0.6985 -0.1891
17799SOL    HW254614   5.954   5.313   5.674  0.2983  0.3687  0.5387
17800SOL     OW54615   6.544   6.214   7.072  0.0825  0.0849  0.3922
17800SOL    HW154616   6.448   6.213   7.068  0.1072 -1.1969 -1.5351
17800SOL    HW254617   6.566   6.301   7.103 -1.7223 -0.4695  3.7027
17801SOL     OW54618   5.771   5.424   5.926  0.3964 -0.4571 -0.2926
17801SOL    HW154619   5.719   5.482   5.871  2.0736  0.4944 -0.9767
17801SOL    HW254620   5.824   5.373   5.865  0.4493 -1.2315  0.3739
17802SOL     OW54621   6.979   7.134   6.046  0.2618  0.5427 -0.2545
17802SOL    HW154622   6.977   7.220   6.087  0.4968  0.2522  0.3688
17802SOL    HW254623   6.895   7.094   6.070  0.2356  0.5157 -0.3838
17803SOL     OW54624   6.069   6.337   6.959  0.5366  0.0514  0.5675
17803SOL    HW154625   6.027   6.253   6.938  2.2010 -0.5165 -0.7199
17803SOL    HW254626   6.026   6.400   6.901  1.4996 -0.5538 -0.8689
17804SOL     OW54627   6.807   7.192   6.986 -0.1880  0.5746 -0.0622
17804SOL    HW154628   6.753   7.119   6.956 -0.4820  0.9194 -0.3697
17804SOL    HW254629   6.749   7.245   7.040 -0.8376  2.2010 -2.2429
17805SOL     OW54630   6.151   5.997   7.285  0.3036  0.0487  1.0216
17805SOL    HW154631   6.240   6.017   7.313  0.4457 -1.3939  1.7152
17805SOL    HW254632   6.163   5.941   7.208  0.0183 -0.6458  1.4758
17806SOL     OW54633   6.911   6.408   7.326  0.5728 -0.6837  0.5928
17806SOL    HW154634   6.864   6.357   7.393  0.7153 -0.3492  0.9533
17806SOL    HW254635   6.895   6.499   7.350 -0.3391 -0.5372 -0.5117
17807SOL     OW54636   5.647   6.692   6.928  0.2355  0.0828  0.1446
17807SOL    HW154637   5.713   6.760   6.943 -1.5738  1.6982  1.3654
17807SOL    HW254638   5.616   6.670   7.016 -1.2275 -0.2004 -0.4274
17808SOL     OW54639   6.926   6.677   6.803  0.5273 -0.4165  0.3389
17808SOL    HW154640   6.873   6.599   6.822  0.2793 -0.1143  0.9284
17808SOL    HW254641   6.983   6.651   6.731  0.8157 -1.3074  0.8753
17809SOL     OW54642   6.787   6.156   5.861 -0.2543  0.4013 -0.5929
17809SOL    HW154643   6.711   6.102   5.884 -0.9074  0.5662 -2.2409
17809SOL    HW254644   6.836   6.103   5.798  0.1942  0.8995 -0.6645
17810SOL     OW54645   6.220   5.979   6.198 -0.3382 -0.0695 -0.3278
17810SOL    HW154646   6.209   5.892   6.160 -1.2654  0.5637 -1.5854
17810SOL    HW254647   6.196   5.967   6.290  2.5729 -1.7641  0.3497
17811SOL     OW54648   6.753   5.565   6.767 -0.0912 -0.1294  0.0634
17811SOL    HW154649   6.795   5.626   6.827  0.1970 -1.0275  0.7847
17811SOL    HW254650   6.680   5.615   6.730 -1.6016 -0.2041  2.7455
17812SOL     OW54651   7.054   6.559   7.031  0.0058  0.2399  0.3479
17812SOL    HW154652   7.014   6.583   7.115  0.2043 -0.4028  0.6243
17812SOL    HW254653   7.043   6.638   6.977  0.5216  0.9130  1.1995
17813SOL     OW54654   6.100   7.073   5.605  0.1316  0.0061  0.2911
17813SOL    HW154655   6.185   7.112   5.588  0.2073  0.0061  0.6713
17813SOL    HW254656   6.037   7.141   5.581  0.2732  0.5975  1.5328
17814SOL     OW54657   5.857   7.462   6.395  0.0804 -0.3682  0.2132
17814SOL    HW154658   5.950   7.481   6.408 -0.3181  2.9968 -0.8742
17814SOL    HW254659   5.814   7.497   6.473 -0.4438  0.5314 -0.4501
17815SOL     OW54660   6.584   6.129   6.420  0.9328  0.1727  0.2152
17815SOL    HW154661   6.544   6.206   6.460  1.4258  1.3660 -1.4390
17815SOL    HW254662   6.672   6.125   6.458  0.1188 -1.0591  2.0971
17816SOL     OW54663   6.968   6.222   5.475  0.4292  0.1855  0.3137
17816SOL    HW154664   6.881   6.193   5.446  0.1578  0.3102  0.9889
17816SOL    HW254665   7.000   6.277   5.403 -0.0196  0.0797  0.0289
17817SOL     OW54666   6.938   7.704   6.588 -0.2534 -0.2394  0.5064
17817SOL    HW154667   6.849   7.685   6.560 -0.2204  0.2550  0.0507
17817SOL    HW254668   6.949   7.798   6.571  0.0536 -0.1042  1.3855
17818SOL     OW54669   5.671   6.824   7.730  0.0046 -0.3511  0.1727
17818SOL    HW154670   5.589   6.866   7.755  0.2139 -0.8363  1.7847
17818SOL    HW254671   5.709   6.883   7.665  0.2738  2.0050  2.2893
17819SOL     OW54672   5.454   6.756   6.515 -0.2947 -0.6513 -0.2131
17819SOL    HW154673   5.452   6.715   6.601  0.3014 -1.5183 -0.5967
17819SOL    HW254674   5.363   6.757   6.486 -0.3583 -1.3832 -0.0429
17820SOL     OW54675   6.113   7.166   6.953 -0.5991  0.0154  0.0763
17820SOL    HW154676   6.118   7.094   7.015 -1.4599 -0.2525 -0.1618
17820SOL    HW254677   6.108   7.124   6.867 -0.1761  0.3773 -0.1358
17821SOL     OW54678   7.252   5.683   6.476  0.3134 -0.3224 -0.0365
17821SOL    HW154679   7.338   5.648   6.499  0.5342 -0.3604 -0.8714
17821SOL    HW254680   7.264   5.778   6.474  0.7477 -0.3798 -1.6204
17822SOL     OW54681   5.770   5.843   5.941  0.0409  0.5498  0.2715
17822SOL    HW154682   5.840   5.881   5.888  0.5435  0.3352  0.7720
17822SOL    HW254683   5.752   5.759   5.899 -0.3523  0.8775 -0.2242
17823SOL     OW54684   7.237   7.216   6.344 -0.2353 -0.2769 -0.4124
17823SOL    HW154685   7.248   7.252   6.256  1.1669  0.2949 -0.0338
17823SOL    HW254686   7.142   7.202   6.353 -0.9673  3.3889 -0.6236
17824SOL     OW54687   5.820   6.045   6.731 -0.5485  0.4579 -0.1085
17824SOL    HW154688   5.882   6.058   6.802 -0.1190  1.2813 -0.6217
17824SOL    HW254689   5.851   5.967   6.685  0.8468  1.5475 -1.0941
17825SOL     OW54690   5.935   6.686   6.049  0.6275 -0.5054 -0.7163
17825SOL    HW154691   5.973   6.695   5.961  0.7035 -2.7353 -0.9806
17825SOL    HW254692   6.001   6.636   6.098  0.1433 -0.1555  0.3160
17826SOL     OW54693   6.960   5.492   6.561 -0.3173  0.1943  0.3756
17826SOL    HW154694   6.882   5.540   6.589 -2.2658 -1.7853 -1.1791
17826SOL    HW254695   6.955   5.409   6.609  0.5974 -0.1270 -0.0572
17827SOL     OW54696   6.453   5.533   6.420 -0.3491 -0.3766  0.2926
17827SOL    HW154697   6.431   5.470   6.351  0.8809 -0.3926 -0.1213
17827SOL    HW254698   6.433   5.618   6.382 -2.4297 -0.5049  1.0135
17828SOL     OW54699   6.378   6.861   5.914  0.2560 -0.3841  0.2399
17828SOL    HW154700   6.379   6.766   5.903 -0.7967 -0.3040 -0.7092
17828SOL    HW254701   6.460   6.890   5.873  0.5183 -0.8665  0.4152
17829SOL     OW54702   5.910   6.976   7.160 -0.1908 -0.1828  0.1749
17829SOL    HW154703   5.873   6.922   7.230  0.9569 -1.7943 -0.3865
17829SOL    HW254704   5.836   7.029   7.129 -1.2785 -1.1151  1.0590
17830SOL     OW54705   6.793   5.254   5.657  0.0142 -0.1937 -0.0854
17830SOL    HW154706   6.767   5.309   5.731 -0.0857 -0.0675 -0.2113
17830SOL    HW254707   6.728   5.184   5.656  0.3046 -0.4691  0.2438
17831SOL     OW54708   6.425   6.298   5.998  0.1141 -0.0339  0.7937
17831SOL    HW154709   6.335   6.330   5.993  0.4596  0.7989 -0.6057
17831SOL    HW254710   6.418   6.214   6.044 -1.7171 -1.0897 -1.2110
17832SOL     OW54711   6.856   6.222   6.926  0.0457  0.3543  0.0099
17832SOL    HW154712   6.934   6.169   6.911  0.4279  1.0247 -0.4374
17832SOL    HW254713   6.784   6.167   6.897  0.4883  0.2895 -1.0214
17833SOL     OW54714   5.533   6.909   5.751  0.0365  0.0692 -0.0206
17833SOL    HW154715   5.564   6.882   5.837  0.0426 -1.0248 -0.3581
17833SOL    HW254716   5.438   6.914   5.760  0.0780  0.4719  0.1918
17834SOL     OW54717   6.544   7.632   6.204 -0.2616 -0.5358 -0.4994
17834SOL    HW154718   6.515   7.542   6.216  0.3677 -0.7742 -0.7755
17834SOL    HW254719   6.554   7.643   6.110  0.4053 -0.4129 -0.4209
17835SOL     OW54720   5.609   5.323   7.203 -0.1182  0.3719 -0.2589
17835SOL    HW154721   5.698   5.353   7.221  0.4674 -0.4384 -1.6590
17835SOL    HW254722   5.565   5.327   7.288  1.1905  0.9530  0.4262
17836SOL     OW54723   5.457   5.329   8.308  0.2531  0.6925  0.6188
17836SOL    HW154724   5.392   5.260   8.293  0.7207  0.4964 -0.5903
17836SOL    HW254725   5.418   5.408   8.271  0.1495  0.8597  1.0825
17837SOL     OW54726   5.128   5.973   7.895  0.1376  0.0815 -0.1542
17837SOL    HW154727   5.153   6.043   7.834 -1.3238  0.6943 -0.0927
17837SOL    HW254728   5.154   5.892   7.851 -0.2489  0.5503 -1.2903
17838SOL     OW54729   5.765   7.099   8.696 -0.1609 -0.4873 -0.5790
17838SOL    HW154730   5.759   7.047   8.616  1.6472  0.6973 -1.5513
17838SOL    HW254731   5.847   7.072   8.737  1.3105  2.0335 -1.5637
17839SOL     OW54732   7.041   7.026   8.212 -0.7465  0.0453  0.2447
17839SOL    HW154733   7.119   6.990   8.255 -0.5421 -0.5267 -0.5838
17839SOL    HW254734   6.983   7.051   8.284  0.5763  1.3619  0.9221
17840SOL     OW54735   6.686   6.551   7.995 -0.0681 -0.4385  0.1269
17840SOL    HW154736   6.753   6.569   7.930 -1.4754  0.4504 -1.1419
17840SOL    HW254737   6.645   6.470   7.966  0.9357 -1.4210  1.3416
17841SOL     OW54738   7.368   6.923   7.453  1.0005 -0.1251 -0.0456
17841SOL    HW154739   7.333   6.873   7.527  2.4695 -1.2839 -0.0878
17841SOL    HW254740   7.301   6.989   7.435 -1.3439 -2.4377 -0.3916
17842SOL     OW54741   6.321   6.594   8.611  0.8327  0.2494 -0.1902
17842SOL    HW154742   6.324   6.546   8.694  2.2086 -0.4223 -0.6111
17842SOL    HW254743   6.288   6.530   8.548  1.1829  0.3315 -0.4534
17843SOL     OW54744   6.053   6.443   8.047 -0.2317  0.2621  0.7276
17843SOL    HW154745   5.958   6.442   8.032 -0.1015 -2.2405 -0.4188
17843SOL    HW254746   6.063   6.415   8.138 -0.5757 -1.5727  0.2368
17844SOL     OW54747   5.966   6.735   8.625  0.1326 -0.3930  0.3517
17844SOL    HW154748   6.002   6.697   8.705  0.1803  0.0807  0.5600
17844SOL    HW254749   5.920   6.662   8.583  0.5231 -0.7673  0.5608
17845SOL     OW54750   6.129   5.593   0.634  0.3521  0.7421 -0.1095
17845SOL    HW154751   6.224   5.582   0.642  0.3113  0.4861  0.0409
17845SOL    HW254752   6.098   5.593   0.725  0.2377  1.0951 -0.1478
17846SOL     OW54753   7.233   6.365   7.482 -0.1958  0.8636 -0.0350
17846SOL    HW154754   7.179   6.286   7.480 -0.3963  0.9899 -1.6101
17846SOL    HW254755   7.186   6.426   7.425  0.0919  2.0396  0.9601
17847SOL     OW54756   5.568   7.032   8.115  0.1860  0.3935 -0.2500
17847SOL    HW154757   5.567   6.946   8.155 -0.1836  0.0479 -0.9915
17847SOL    HW254758   5.655   7.038   8.075 -0.1527 -0.0553 -1.0773
17848SOL     OW54759   5.742   6.925   8.494 -0.0696 -0.1506  0.2498
17848SOL    HW154760   5.666   6.891   8.447 -0.5666 -0.5504  1.3104
17848SOL    HW254761   5.799   6.849   8.506 -0.0664 -0.1053  0.5193
17849SOL     OW54762   5.973   6.421   8.528  0.1635  0.0436 -0.0051
17849SOL    HW154763   5.930   6.388   8.449 -0.9063  0.0222  0.5645
17849SOL    HW254764   5.971   6.348   8.589  1.1643 -0.0032 -0.0110
17850SOL     OW54765   6.098   7.565   8.512 -0.0028 -0.1405 -0.3784
17850SOL    HW154766   6.157   7.517   8.571  0.1576  0.1064 -0.3367
17850SOL    HW254767   6.134   7.653   8.508 -0.8123  0.2433  0.2826
17851SOL     OW54768   6.138   6.439   7.629  0.5046 -0.0370  0.3015
17851SOL    HW154769   6.067   6.394   7.674  0.1144  0.3473  0.0856
17851SOL    HW254770   6.205   6.452   7.696  0.1672  0.0282  0.6296
17852SOL     OW54771   5.325   5.554   8.182  0.6065 -0.3643  0.4441
17852SOL    HW154772   5.257   5.538   8.117 -0.5207  2.7894  0.7025
17852SOL    HW254773   5.378   5.625   8.145  0.4238  0.9425  2.5603
17853SOL     OW54774   7.828   7.746   7.491  0.6469  0.4442 -0.1558
17853SOL    HW154775   7.776   7.671   7.461 -1.2648  2.0163 -1.0504
17853SOL    HW254776   7.885   7.767   7.418  0.9271  0.0930 -0.0400
17854SOL     OW54777   5.461   7.179   7.652 -0.1486 -0.1565 -0.4759
17854SOL    HW154778   5.487   7.172   7.560  0.8954 -1.7167 -0.1091
17854SOL    HW254779   5.533   7.226   7.694 -0.9502  1.1837 -0.5498
17855SOL     OW54780   7.366   6.321   8.021  0.3123 -0.5367  0.0488
17855SOL    HW154781   7.460   6.315   8.036  0.6886  2.9418 -0.2786
17855SOL    HW254782   7.356   6.389   7.954 -2.5145  1.1391  1.9630
17856SOL     OW54783   7.113   6.799   8.012 -0.1476 -0.2754 -0.2447
17856SOL    HW154784   7.064   6.733   8.060  0.0481  0.2386  0.6915
17856SOL    HW254785   7.192   6.813   8.064  0.6080 -0.4914 -1.2957
17857SOL     OW54786   6.161   7.027   8.330  0.1902 -0.1936 -0.6573
17857SOL    HW154787   6.157   6.954   8.392 -0.5305  1.0510  0.8456
17857SOL    HW254788   6.232   7.082   8.363 -0.6878  0.8570 -0.4809
17858SOL     OW54789   6.159   5.291   8.028 -0.0326  0.5638 -0.2879
17858SOL    HW154790   6.149   5.340   7.946 -1.5385  0.0519 -0.4470
17858SOL    HW254791   6.230   5.335   8.074  0.9448  0.7736 -1.9270
17859SOL     OW54792   5.713   6.218   8.650 -0.1073 -0.0040 -0.1967
17859SOL    HW154793   5.740   6.158   8.581 -0.4959 -0.0175 -0.3420
17859SOL    HW254794   5.623   6.242   8.626  0.3608  1.3835 -0.6702
17860SOL     OW54795   6.764   7.036   8.096  0.4733 -0.0417  0.4165
17860SOL    HW154796   6.753   7.060   8.188  2.0626 -1.0073  0.8814
17860SOL    HW254797   6.833   7.094   8.064  2.2784 -1.9023  0.7679
17861SOL     OW54798   7.307   6.963   8.269 -0.5912 -0.5260  0.2763
17861SOL    HW154799   7.303   6.867   8.271 -0.4048 -0.5223  0.8051
17861SOL    HW254800   7.371   6.982   8.201  1.1733 -0.8236  1.7980
17862SOL     OW54801   7.226   7.353   8.249  0.2421  0.2306 -0.4421
17862SOL    HW154802   7.231   7.371   8.156  0.2440 -0.7313 -0.6418
17862SOL    HW254803   7.304   7.301   8.268 -0.9190 -1.6104 -0.4113
17863SOL     OW54804   5.873   6.348   7.729 -0.0892 -0.2848 -0.1006
17863SOL    HW154805   5.863   6.436   7.693  2.7682  0.5648  0.9258
17863SOL    HW254806   5.805   6.342   7.797  1.2740  2.1943  1.6146
17864SOL     OW54807   6.743   6.152   7.970 -0.3842  0.6399  0.5063
17864SOL    HW154808   6.670   6.162   8.031 -0.3904  0.4843  0.5237
17864SOL    HW254809   6.770   6.061   7.979 -0.6635  0.5035 -0.0495
17865SOL     OW54810   7.351   7.179   7.818 -0.5635  0.2073 -0.0743
17865SOL    HW154811   7.363   7.084   7.820  2.2943  0.4674  2.5696
17865SOL    HW254812   7.436   7.213   7.788 -0.9513  1.9414  0.6774
17866SOL     OW54813   5.761   5.783   8.740 -0.3969  0.1276 -0.3638
17866SOL    HW154814   5.750   5.731   8.820 -0.1434 -0.4044 -0.6752
17866SOL    HW254815   5.684   5.762   8.687 -0.8950  0.9625 -0.0055
17867SOL     OW54816   6.574   5.804   8.094  0.0136 -0.1262 -0.3406
17867SOL    HW154817   6.650   5.746   8.089  0.3939  0.5023 -2.7304
17867SOL    HW254818   6.543   5.812   8.004 -2.4850  0.2181  0.4545
17868SOL     OW54819   6.622   6.369   7.818  0.6519  0.3583  0.4279
17868SOL    HW154820   6.613   6.374   7.723  2.0728  0.8524  0.3024
17868SOL    HW254821   6.611   6.277   7.838 -3.1956  0.5966  0.2268
17869SOL     OW54822   5.545   6.046   7.876  0.1958 -0.1759 -0.0008
17869SOL    HW154823   5.638   6.065   7.864  0.1121  0.8832  0.8937
17869SOL    HW254824   5.526   5.978   7.811  1.5841 -0.4014 -0.1994
17870SOL     OW54825   5.559   7.687   0.123  0.3299  1.2331 -0.7504
17870SOL    HW154826   5.528   7.635   0.198 -0.3606  2.2300 -0.3252
17870SOL    HW254827   5.614   7.626   0.073 -1.4076 -0.2661 -0.9185
17871SOL     OW54828   6.170   5.396   7.410  0.3158  0.2166 -0.4717
17871SOL    HW154829   6.123   5.432   7.485  1.1654  0.7666 -0.1901
17871SOL    HW254830   6.187   5.305   7.434 -0.7816 -0.0595 -0.6753
17872SOL     OW54831   6.671   6.404   7.524  0.4907 -0.2508  0.4458
17872SOL    HW154832   6.747   6.460   7.538  0.1258  0.2681  0.4052
17872SOL    HW254833   6.600   6.465   7.504  0.1393 -0.7451  0.1529
17873SOL     OW54834   6.112   5.607   8.175  0.6365  0.2396 -0.2032
17873SOL    HW154835   6.191   5.575   8.132 -0.5990 -0.3611 -2.1775
17873SOL    HW254836   6.059   5.643   8.104 -0.3563  1.7470  1.2406
17874SOL     OW54837   6.844   7.309   7.801  0.0480  0.5632 -0.8092
17874SOL    HW154838   6.787   7.378   7.769  0.8021  1.9712  0.7408
17874SOL    HW254839   6.797   7.272   7.876  0.5548  0.8330 -0.3470
17875SOL     OW54840   5.913   7.057   8.263 -0.4398  0.3706  0.2379
17875SOL    HW154841   6.002   7.049   8.295 -0.9867 -2.9630  1.2709
17875SOL    HW254842   5.858   7.023   8.334 -2.5312  1.6574 -0.6383
17876SOL     OW54843   7.523   7.022   8.069 -0.3293  0.1379 -0.4092
17876SOL    HW154844   7.545   6.929   8.060 -0.0174  0.3496 -2.2049
17876SOL    HW254845   7.486   7.046   7.984  1.9738  2.2492 -0.9413
17877SOL     OW54846   5.815   6.029   7.882 -0.1583  0.0769 -0.7839
17877SOL    HW154847   5.886   6.047   7.944  0.6847  0.7443 -1.8971
17877SOL    HW254848   5.854   5.973   7.816  0.0167  2.1865 -2.5818
17878SOL     OW54849   7.273   6.614   8.688 -0.1995 -0.5314  0.1877
17878SOL    HW154850   7.212   6.556   8.732 -1.0426  0.9425  1.0279
17878SOL    HW254851   7.360   6.583   8.715 -0.6630  0.6750  3.5053
17879SOL     OW54852   6.639   7.475   7.756 -0.4704 -0.2297  0.2024
17879SOL    HW154853   6.629   7.548   7.695  0.0112  0.8169  1.3421
17879SOL    HW254854   6.560   7.423   7.744 -0.8343  0.4844 -0.6070
17880SOL     OW54855   6.998   6.748   7.204  0.0873 -0.2223 -0.1750
17880SOL    HW154856   7.026   6.816   7.142  2.0040 -1.2688 -0.5325
17880SOL    HW254857   6.906   6.734   7.182  0.2447  0.6852 -1.6076
17881SOL     OW54858   5.976   7.277   7.730  0.1261 -0.4458 -0.1888
17881SOL    HW154859   5.986   7.308   7.820  1.2703 -0.3057 -0.3524
17881SOL    HW254860   5.885   7.296   7.709 -0.4761 -1.5039  1.3155
17882SOL     OW54861   6.603   5.542   7.673 -0.5435 -0.2988 -0.1799
17882SOL    HW154862   6.535   5.557   7.608 -1.5373  1.4413  1.1743
17882SOL    HW254863   6.683   5.526   7.622 -1.2931  0.9251 -1.8094
17883SOL     OW54864   5.552   7.176   0.032 -0.3668 -0.2500  0.0507
17883SOL    HW154865   5.605   7.122  -0.027  0.1928  0.3491 -0.0026
17883SOL    HW254866   5.464   7.174  -0.006 -0.2633 -0.7998 -0.1687
17884SOL     OW54867   6.410   7.257   8.071  0.5812  0.0960  0.2350
17884SOL    HW154868   6.444   7.199   8.003  1.7129  1.9161 -0.8344
17884SOL    HW254869   6.315   7.240   8.072  0.7154 -0.8668 -0.9016
17885SOL     OW54870   5.677   5.796   7.540 -0.3500  0.3402 -0.0939
17885SOL    HW154871   5.715   5.789   7.628 -2.4998  1.5068  1.0122
17885SOL    HW254872   5.749   5.777   7.481  1.7733  1.8096  1.8718
17886SOL     OW54873   5.866   5.336   7.312 -0.1657 -0.2230  0.0334
17886SOL    HW154874   5.849   5.285   7.391 -1.1086  1.9891  1.3308
17886SOL    HW254875   5.943   5.389   7.334 -0.7048  0.7409 -0.3516
17887SOL     OW54876   6.557   7.174   8.300  0.3484 -0.5216 -0.4238
17887SOL    HW154877   6.516   7.187   8.215 -0.4381 -0.0889  0.0062
17887SOL    HW254878   6.490   7.128   8.352  0.6566 -0.3941  0.0933
17888SOL     OW54879   6.465   7.034   7.911  0.0817  0.3102 -0.2530
17888SOL    HW154880   6.514   7.012   7.832  1.0898 -0.0576  0.4622
17888SOL    HW254881   6.512   6.992   7.982 -0.6879  0.8112  0.5868
17889SOL     OW54882   6.746   6.139   7.506  0.2606 -0.1599  0.1183
17889SOL    HW154883   6.725   6.231   7.523  2.5521  0.1403  1.8660
17889SOL    HW254884   6.727   6.095   7.588 -1.2543 -1.3758 -0.8506
17890SOL     OW54885   5.831   5.741   7.771  0.2137 -0.3657  0.5632
17890SOL    HW154886   5.914   5.752   7.817  0.1386 -1.4209  0.9742
17890SOL    HW254887   5.786   5.672   7.820  0.6174 -2.3871 -1.7322
17891SOL     OW54888   6.899   6.660   7.830  0.0940 -0.6237  0.2137
17891SOL    HW154889   6.894   6.742   7.780  1.7565 -1.6634 -1.8597
17891SOL    HW254890   6.930   6.687   7.916 -0.9048  1.0689  0.0893
17892SOL     OW54891   6.022   5.477   7.621  0.0848  0.2702  0.2249
17892SOL    HW154892   5.960   5.546   7.598 -0.5166 -0.5853 -0.8072
17892SOL    HW254893   5.973   5.419   7.680  0.8470  1.1257  1.7696
17893SOL     OW54894   6.437   5.604   7.461  0.7040  0.1190  0.3641
17893SOL    HW154895   6.353   5.631   7.499  0.8169  0.0098  0.6875
17893SOL    HW254896   6.413   5.538   7.396  0.5697 -0.1406  0.6787
17894SOL     OW54897   6.984   7.414   8.332 -0.2211  0.3753  0.4195
17894SOL    HW154898   6.949   7.326   8.344 -1.9832  0.5923 -2.1068
17894SOL    HW254899   7.076   7.401   8.307 -0.1529 -0.6578  1.1856
17895SOL     OW54900   6.166   6.523   8.332 -0.2382 -0.0502 -0.4060
17895SOL    HW154901   6.129   6.606   8.304  0.3801 -0.1271 -1.5230
17895SOL    HW254902   6.110   6.494   8.404  0.5503  2.1414  1.1894
17896SOL     OW54903   6.787   7.664   7.958 -0.1153 -0.2390 -0.4334
17896SOL    HW154904   6.728   7.607   7.909  0.5177 -0.2208 -1.2465
17896SOL    HW254905   6.853   7.604   7.994 -0.3453 -0.2027  0.0415
17897SOL     OW54906   7.053   6.111   7.445  0.4757 -0.1887  0.2508
17897SOL    HW154907   7.067   6.016   7.452  1.1614  0.0239  3.0229
17897SOL    HW254908   6.969   6.126   7.488 -0.1772  0.4121 -1.1519
17898SOL     OW54909   5.596   5.344   8.714  0.0721  0.4951 -0.0357
17898SOL    HW154910   5.621   5.304   8.630  1.6387 -0.1587  0.6896
17898SOL    HW254911   5.502   5.359   8.707 -0.3340 -1.9644 -0.9527
17899SOL     OW54912   6.300   5.797   7.758 -0.0969 -0.2478  0.3337
17899SOL    HW154913   6.393   5.774   7.756  0.0935  0.4198  0.9745
17899SOL    HW254914   6.298   5.889   7.733 -0.4654  0.0309  1.3289
17900SOL     OW54915   6.386   5.456   8.135 -0.1752 -0.6008  0.0016
17900SOL    HW154916   6.432   5.453   8.050  1.1514 -0.2792  0.6824
17900SOL    HW254917   6.423   5.382   8.184 -2.1176 -1.8126 -0.2409
17901SOL     OW54918   6.957   6.559   8.113  0.1389  0.0218 -0.5211
17901SOL    HW154919   6.866   6.588   8.107  0.7771  2.5285  0.7159
17901SOL    HW254920   6.955   6.492   8.182 -0.4838  1.7611  1.2673
17902SOL     OW54921   6.890   5.909   8.035 -0.0515  0.3666 -0.0242
17902SOL    HW154922   6.870   5.821   8.067  0.1099 -0.7689 -2.7501
17902SOL    HW254923   6.983   5.921   8.053 -0.3601  0.5982  1.5866
17903SOL     OW54924   7.520   6.553   7.848  0.6799 -0.2663 -0.1730
17903SOL    HW154925   7.462   6.529   7.775 -0.5134 -0.0616  0.6811
17903SOL    HW254926   7.601   6.503   7.831  0.3529 -0.3972 -1.5010
17904SOL     OW54927   6.587   6.899   7.696 -0.2069  0.0847  0.0129
17904SOL    HW154928   6.545   6.928   7.615  0.4317  1.0440  0.0110
17904SOL    HW254929   6.541   6.819   7.719  0.3598 -0.8606 -1.9175
17905SOL     OW54930   7.428   6.917   7.811 -0.2510  0.2313 -0.1436
17905SOL    HW154931   7.352   6.863   7.789  0.2796 -0.7710  0.3796
17905SOL    HW254932   7.503   6.867   7.777  0.2216  0.9077 -0.1164
17906SOL     OW54933   7.466   6.491   7.451  0.0494  0.1893  0.4409
17906SOL    HW154934   7.429   6.567   7.405  0.3859  1.4714  2.1862
17906SOL    HW254935   7.391   6.436   7.471 -0.2356  0.1710 -0.5967
17907SOL     OW54936   6.194   5.492   7.819 -0.1138 -0.2468 -0.3869
17907SOL    HW154937   6.141   5.500   7.739 -0.1095  1.7611 -0.2379
17907SOL    HW254938   6.223   5.581   7.837  1.3604 -0.9406  0.8858
17908SOL     OW54939   7.062   7.266   0.309  0.1382 -0.5840  0.2873
17908SOL    HW154940   7.150   7.228   0.307 -0.1848 -1.3165 -0.6852
17908SOL    HW254941   7.011   7.205   0.363  0.1933 -0.1882  0.8047
17909SOL     OW54942   6.548   6.783   8.347 -0.5143  0.1743  0.1341
17909SOL    HW154943   6.505   6.713   8.396 -0.9672 -0.6066 -1.3098
17909SOL    HW254944   6.641   6.763   8.355 -0.6765 -1.9364 -2.0139
17910SOL     OW54945   7.040   6.715   8.500  0.4605  0.4314 -0.0801
17910SOL    HW154946   7.052   6.723   8.595  0.4524 -0.3951  0.0025
17910SOL    HW254947   7.127   6.726   8.463  0.2768  2.0227 -0.0868
17911SOL     OW54948   6.250   6.476   7.867  0.5891 -0.3060  0.5178
17911SOL    HW154949   6.176   6.463   7.926  0.4531 -0.2492  0.3617
17911SOL    HW254950   6.301   6.396   7.874  0.6411 -0.2471  0.8069
17912SOL     OW54951   5.993   6.061   8.461  0.1323  0.1934  0.5429
17912SOL    HW154952   6.050   6.138   8.455  0.3584  0.0250  0.5202
17912SOL    HW254953   6.025   6.013   8.537 -0.5162  0.5270  1.0302
17913SOL     OW54954   6.619   5.993   8.295  0.5823 -0.0775  0.1082
17913SOL    HW154955   6.612   5.945   8.213 -0.7229 -0.9094  0.6758
17913SOL    HW254956   6.711   5.986   8.320  0.6499 -1.2420 -0.4275
17914SOL     OW54957   5.338   7.251   8.730 -0.2767  0.6382 -0.9913
17914SOL    HW154958   5.308   7.334   8.692 -0.2294  1.9417  1.5984
17914SOL    HW254959   5.262   7.216   8.776  0.4701  0.7942  0.4152
17915SOL     OW54960   6.000   6.746   8.267  0.7378  0.9428 -0.3343
17915SOL    HW154961   6.059   6.795   8.210  0.3875 -0.9043 -2.4237
17915SOL    HW254962   5.932   6.713   8.208 -1.0662  1.0031  1.6029
17916SOL     OW54963   6.032   6.011   8.046 -0.0176  0.4099  0.0756
17916SOL    HW154964   6.126   6.019   8.061  0.0597 -0.3272  0.0173
17916SOL    HW254965   5.993   6.079   8.100  0.5016  0.2107  0.7058
17917SOL     OW54966   6.950   7.250   8.069 -0.1550  0.5097  0.1934
17917SOL    HW154967   6.971   7.212   7.983 -0.8989 -0.1775  0.2958
17917SOL    HW254968   6.990   7.190   8.132 -2.8827 -1.2628  0.4168
17918SOL     OW54969   7.175   7.025   8.527  0.1376  0.7264  0.3304
17918SOL    HW154970   7.213   6.996   8.445 -0.6108  0.5476  0.0447
17918SOL    HW254971   7.094   6.974   8.536  0.7680 -0.0848  1.7277
17919SOL     OW54972   7.133   6.220   7.214 -0.2105 -0.0658 -0.2563
17919SOL    HW154973   7.142   6.161   7.290 -2.5751  1.8958  1.7328
17919SOL    HW254974   7.059   6.277   7.237  2.6997  4.6665 -1.3426
17920SOL     OW54975   6.198   6.811   8.513  0.6516 -0.4040 -0.3236
17920SOL    HW154976   6.243   6.735   8.549 -0.9580 -1.4920 -0.4564
17920SOL    HW254977   6.107   6.801   8.543  0.3990  1.4821 -0.3495
17921SOL     OW54978   5.615   6.777   8.783 -0.1102  0.1323  0.5304
17921SOL    HW154979   5.623   6.753   8.691  1.0469  0.8952  0.4032
17921SOL    HW254980   5.604   6.872   8.782  1.4809  0.3650  1.1995
17922SOL     OW54981   6.285   6.209   7.946 -0.4207  0.2152 -0.2932
17922SOL    HW154982   6.283   6.254   8.031 -0.3403 -0.5316  0.1101
17922SOL    HW254983   6.321   6.123   7.966 -1.0217 -0.2041 -0.9747
17923SOL     OW54984   6.779   5.978   7.736  0.6231 -0.2746 -0.5651
17923SOL    HW154985   6.827   5.914   7.685  0.5327 -1.5107  0.8456
17923SOL    HW254986   6.839   6.003   7.807  1.1470  2.1796 -1.7470
17924SOL     OW54987   5.317   5.298   8.566 -0.1544 -0.0988 -0.5097
17924SOL    HW154988   5.255   5.370   8.557 -0.2503 -0.1952 -0.6301
17924SOL    HW254989   5.362   5.294   8.482  0.6209  0.5201 -0.1360
17925SOL     OW54990   5.124   7.122   0.053  0.3391  0.4418 -0.2849
17925SOL    HW154991   5.029   7.120   0.039  0.0846 -0.1756  1.2885
17925SOL    HW254992   5.134   7.166   0.137  1.2507 -1.7729  0.8401
17926SOL     OW54993   5.816   6.033   8.239 -0.6494  0.5557  0.5820
17926SOL    HW154994   5.863   6.036   8.322 -0.4947  0.8848  0.4839
17926SOL    HW254995   5.852   5.956   8.194  1.4794  2.0261 -0.4648
17927SOL     OW54996   5.743   5.332   8.111  0.1394  0.3786  0.4525
17927SOL    HW154997   5.690   5.281   8.172 -0.0693 -0.8992 -0.7285
17927SOL    HW254998   5.833   5.321   8.141  0.0335 -0.1904  0.5669
17928SOL     OW54999   7.126   5.848   7.584  0.0586  0.1466  0.9684
17928SOL    HW155000   7.209   5.830   7.539  0.3086  1.1823  1.0000
17928SOL    HW255001   7.146   5.840   7.677  0.2824  1.0202  0.9999
17929SOL     OW55002   6.303   5.940   8.093  0.4450  0.3903  0.2892
17929SOL    HW155003   6.282   5.906   8.180  0.0219 -0.0894  0.0079
17929SOL    HW255004   6.398   5.951   8.094  0.5487 -0.4504  0.5181
17930SOL     OW55005   6.862   5.751   7.611  0.1819  0.0610 -0.3505
17930SOL    HW155006   6.892   5.663   7.633 -0.6727 -0.9402 -2.8629
17930SOL    HW255007   6.933   5.787   7.557 -0.5838 -0.1231 -1.5107
17931SOL     OW55008   6.405   6.585   7.033 -0.4897  0.8661 -0.4639
17931SOL    HW155009   6.387   6.514   7.096 -0.7562 -2.3985 -3.8706
17931SOL    HW255010   6.330   6.644   7.042 -2.0240 -1.0645  0.3225
17932SOL     OW55011   6.573   6.844   8.073 -0.0585  0.2583 -0.4343
17932SOL    HW155012   6.649   6.902   8.087 -0.6410  1.2123 -1.0948
17932SOL    HW255013   6.562   6.799   8.156  0.0855  1.5162  0.2922
17933SOL     OW55014   5.830   6.345   8.283  0.2843 -0.3571 -0.2398
17933SOL    HW155015   5.738   6.359   8.307  0.2651 -1.5599  0.4150
17933SOL    HW255016   5.831   6.260   8.239  0.7610  0.5867 -2.2014
17934SOL     OW55017   5.662   6.021   8.460 -0.3310 -0.0070  0.1771
17934SOL    HW155018   5.724   6.023   8.387 -0.6670  0.5055 -0.1048
17934SOL    HW255019   5.664   5.931   8.492  0.4409 -0.0303  0.0739
17935SOL     OW55020   6.692   5.245   8.342 -0.2153  0.2490  0.2802
17935SOL    HW155021   6.728   5.157   8.351 -0.6503  0.1274  0.8545
17935SOL    HW255022   6.757   5.292   8.290  0.4669 -0.1461  0.7625
17936SOL     OW55023   5.797   7.017   7.577  0.1891  0.1328 -0.5539
17936SOL    HW155024   5.855   7.070   7.633 -0.1311 -0.5837  0.4871
17936SOL    HW255025   5.757   7.081   7.518  0.7432  0.8800 -0.1472
17937SOL     OW55026   5.398   7.093   8.517 -0.1525 -0.2342  0.4289
17937SOL    HW155027   5.371   7.003   8.532 -0.9541  0.1259  1.2293
17937SOL    HW255028   5.386   7.137   8.601 -0.6815  0.8350 -0.1812
17938SOL     OW55029   6.020   7.013   8.763 -0.1604 -0.5772  0.2042
17938SOL    HW155030   6.095   7.036   8.819 -0.2142 -0.0981  0.0886
17938SOL    HW255031   6.060   6.984   8.681 -0.0986  0.8214 -0.2910
17939SOL     OW55032   6.278   6.156   8.462 -0.2118  0.4712 -0.1237
17939SOL    HW155033   6.332   6.141   8.540 -3.6795 -0.4959  2.3174
17939SOL    HW255034   6.251   6.069   8.434 -0.5804  0.9281 -1.2832
17940SOL     OW55035   5.168   6.165   8.565 -0.5189 -0.3329 -0.7435
17940SOL    HW155036   5.196   6.162   8.474 -1.1718  0.9114 -1.0144
17940SOL    HW255037   5.112   6.242   8.570  0.4672  0.3359  0.9748
17941SOL     OW55038   6.280   6.083   7.707 -0.0704 -0.2906 -0.0960
17941SOL    HW155039   6.271   6.144   7.780 -1.3913  0.9310 -1.2152
17941SOL    HW255040   6.307   6.138   7.633 -1.4802 -0.9711 -1.1787
17942SOL     OW55041   7.418   6.745   8.498  0.2774  0.1780 -0.5260
17942SOL    HW155042   7.432   6.817   8.559 -0.9662 -0.2352  0.2943
17942SOL    HW255043   7.376   6.677   8.551  2.0179 -1.4476 -1.1020
17943SOL     OW55044   5.839   5.742   8.422  0.1153 -0.4066 -0.7129
17943SOL    HW155045   5.835   5.759   8.516  0.3549  0.0087 -0.7743
17943SOL    HW255046   5.762   5.688   8.404 -0.0768 -0.2669 -0.3243
17944SOL     OW55047   6.909   7.488   0.008  0.3488 -0.1047 -0.2036
17944SOL    HW155048   6.901   7.444   0.092  1.4798  0.0161 -0.0211
17944SOL    HW255049   6.834   7.547   0.004 -1.1021 -1.8779 -0.3757
17945SOL     OW55050   6.181   5.734   7.428 -0.0585  0.6238 -0.5371
17945SOL    HW155051   6.158   5.809   7.374  1.4712  0.2621 -1.7757
17945SOL    HW255052   6.156   5.760   7.517 -0.2365  2.2966 -1.0424
17946SOL     OW55053   5.420   6.581   0.033  0.0045  0.2274 -0.2477
17946SOL    HW155054   5.392   6.567  -0.058  0.7132  2.4906 -0.8848
17946SOL    HW255055   5.498   6.636   0.026  1.1214 -0.9922  1.7030
17947SOL     OW55056   6.818   6.381   8.335 -0.0661 -0.0927 -0.2084
17947SOL    HW155057   6.794   6.315   8.400  0.0425 -0.7734 -0.8514
17947SOL    HW255058   6.869   6.334   8.270  1.4489  0.9597  0.1544
17948SOL     OW55059   6.895   6.546   7.565  0.8678  0.3852  0.1130
17948SOL    HW155060   6.923   6.535   7.656  0.4104 -0.1599  0.1949
17948SOL    HW255061   6.917   6.637   7.544  2.3973  0.0846  0.2730
17949SOL     OW55062   7.420   7.573   8.840  0.2844 -0.0621  0.0433
17949SOL    HW155063   7.395   7.552   8.930  0.6996 -0.9657 -0.0437
17949SOL    HW255064   7.337   7.583   8.794  0.0732 -0.8925  0.2383
17950SOL     OW55065   6.895   7.187   8.663 -0.2416 -0.1348  0.1227
17950SOL    HW155066   6.884   7.274   8.700 -2.5923  0.3198 -1.3629
17950SOL    HW255067   6.939   7.136   8.731  2.8558  2.5991  0.3585
17951SOL     OW55068   5.582   6.668   8.519 -0.3310 -0.5249 -0.5390
17951SOL    HW155069   5.520   6.598   8.540  1.1762 -1.5059  0.7923
17951SOL    HW255070   5.581   6.673   8.423 -3.4087  0.4222 -0.5726
17952SOL     OW55071   7.532   5.732   7.694 -0.0257 -0.0832 -0.1221
17952SOL    HW155072   7.478   5.738   7.615  1.2806  1.6397 -0.9550
17952SOL    HW255073   7.616   5.769   7.668  1.3186 -1.9166  1.3649
17953SOL     OW55074   7.017   7.526   8.013 -0.0012 -1.2610 -0.2509
17953SOL    HW155075   7.011   7.482   8.097  0.0226  1.0256  1.0510
17953SOL    HW255076   7.098   7.493   7.974  1.5695 -0.3218  1.9928
17954SOL     OW55077   6.951   6.348   7.872  0.3764 -0.1829 -0.2539
17954SOL    HW155078   6.873   6.294   7.888 -0.9867  1.5948 -0.5819
17954SOL    HW255079   6.945   6.418   7.937  2.2089 -0.4878  0.2962
17955SOL     OW55080   6.197   7.097   7.433 -0.4739 -0.1430 -0.0372
17955SOL    HW155081   6.198   7.189   7.407 -2.0275 -0.5090 -1.6491
17955SOL    HW255082   6.218   7.097   7.526  0.4811  1.7423 -0.2190
17956SOL     OW55083   7.388   5.950   8.147 -0.7290  0.6598  0.0063
17956SOL    HW155084   7.443   5.888   8.195 -0.0923  2.1980  1.3607
17956SOL    HW255085   7.424   5.953   8.059 -0.5083 -0.5443  0.0424
17957SOL     OW55086   5.610   5.598   8.353 -0.1572 -0.5219 -0.1614
17957SOL    HW155087   5.581   5.506   8.351 -0.8588 -0.3323  0.9302
17957SOL    HW255088   5.588   5.631   8.266  0.3091 -1.4403 -0.6499
17958SOL     OW55089   7.032   6.782   7.537  0.4948  0.0152  0.5315
17958SOL    HW155090   6.973   6.824   7.600  0.6866  0.0617  0.6789
17958SOL    HW255091   7.023   6.835   7.457 -2.5418 -2.1096 -0.7235
17959SOL     OW55092   6.309   6.484   0.010 -0.5873  0.1472  0.0919
17959SOL    HW155093   6.324   6.573   0.041 -0.3010  0.7332 -1.6234
17959SOL    HW255094   6.301   6.432   0.090 -1.2112  1.7709  1.1485
17960SOL     OW55095   7.241   6.685   8.255  0.0108  0.1695 -0.4320
17960SOL    HW155096   7.175   6.616   8.258 -0.6385  0.7678 -0.7952
17960SOL    HW255097   7.321   6.642   8.285 -0.7473 -0.3195  0.9651
17961SOL     OW55098   7.056   7.058   7.909  0.2761 -0.0233 -0.0739
17961SOL    HW155099   7.064   7.042   8.003  2.1343 -0.4048 -0.2665
17961SOL    HW255100   7.107   6.989   7.868 -1.3424 -0.4764 -1.4569
17962SOL     OW55101   7.455   6.959   8.687  0.4889  0.0560  0.5166
17962SOL    HW155102   7.507   7.007   8.622 -1.7611  0.8725 -0.8159
17962SOL    HW255103   7.383   7.019   8.708  0.7832 -0.4696  3.3241
17963SOL     OW55104   6.222   6.920   8.061  0.5497  0.3045 -0.3752
17963SOL    HW155105   6.235   6.980   8.134  0.1723 -0.9748  0.7783
17963SOL    HW255106   6.311   6.897   8.033  0.7162  2.0985 -1.4751
17964SOL     OW55107   6.052   5.998   7.587  0.3270 -0.0350 -0.0663
17964SOL    HW155108   6.120   6.023   7.649 -1.2680 -0.2741  1.8999
17964SOL    HW255109   6.076   6.041   7.505  1.2926  2.2228  1.3326
17965SOL     OW55110   6.131   7.253   8.114  0.5409  0.4506 -0.0919
17965SOL    HW155111   6.079   7.173   8.109 -0.4851  1.1037 -0.0673
17965SOL    HW255112   6.080   7.319   8.067  0.8384  1.3725  0.8341
17966SOL     OW55113   7.133   5.696   8.332 -0.3866  0.0619  0.0813
17966SOL    HW155114   7.170   5.651   8.256  0.9092  1.4470 -0.1625
17966SOL    HW255115   7.209   5.725   8.382 -1.0391  2.9511 -0.4068
17967SOL     OW55116   5.847   6.607   7.686  0.0072  0.0277 -0.2762
17967SOL    HW155117   5.795   6.669   7.738  0.9476  0.1515  0.5492
17967SOL    HW255118   5.800   6.601   7.603  0.1310  2.2063 -0.5656
17968SOL     OW55119   5.992   5.112   0.172 -0.0863  0.1516  0.3359
17968SOL    HW155120   6.073   5.142   0.213 -0.5152  1.4707  0.2955
17968SOL    HW255121   5.923   5.147   0.228 -0.6464  0.3721 -0.4743
17969SOL     OW55122   5.455   5.382   7.397  0.3318 -0.0971 -0.1188
17969SOL    HW155123   5.475   5.475   7.403 -1.2655  0.2171  0.7794
17969SOL    HW255124   5.379   5.377   7.339  2.4330 -1.2037 -2.9901
17970SOL     OW55125   5.822   5.339   7.746 -0.2538 -0.3515  0.2533
17970SOL    HW155126   5.790   5.285   7.819  0.2913 -1.0922 -0.0428
17970SOL    HW255127   5.835   5.277   7.674  2.5075 -0.2398  0.5604
17971SOL     OW55128   6.818   7.183   7.531 -0.1836 -0.2621 -0.7051
17971SOL    HW155129   6.800   7.257   7.473  1.4550  0.1912 -0.6951
17971SOL    HW255130   6.849   7.224   7.612 -1.3256 -0.9251  0.0882
17972SOL     OW55131   6.142   6.242   8.779 -0.3241  0.2567 -0.2448
17972SOL    HW155132   6.203   6.230   8.706 -1.7559 -1.6825 -1.2137
17972SOL    HW255133   6.195   6.225   8.857  1.2143  2.2776 -0.7587
17973SOL     OW55134   7.322   7.792   8.217 -0.1094 -0.5265 -0.0298
17973SOL    HW155135   7.240   7.787   8.266  0.9503  0.7502  2.0355
17973SOL    HW255136   7.383   7.738   8.268  1.1096  1.0639  0.2928
17974SOL     OW55137   5.923   6.886   0.126  0.4272  0.5917  0.1078
17974SOL    HW155138   5.912   6.793   0.108  0.7725  0.6654 -0.5161
17974SOL    HW255139   5.960   6.922   0.045  2.1360  0.9124  0.9805
17975SOL     OW55140   7.331   6.401   8.302 -0.2372 -0.0657 -0.1219
17975SOL    HW155141   7.275   6.325   8.317  0.5644 -0.6451  0.0241
17975SOL    HW255142   7.376   6.382   8.220 -0.8336  0.7632 -0.6639
17976SOL     OW55143   6.590   5.791   7.831 -0.1218 -0.4141 -0.1303
17976SOL    HW155144   6.643   5.717   7.801  0.9906 -0.4234  1.6453
17976SOL    HW255145   6.633   5.867   7.793  0.2736 -0.5335  0.0612
17977SOL     OW55146   6.251   5.879   8.394 -0.2321 -0.3916 -0.0076
17977SOL    HW155147   6.164   5.845   8.418 -0.3698 -0.6914 -0.8887
17977SOL    HW255148   6.309   5.804   8.403  0.0742 -0.0344  1.2129
17978SOL     OW55149   7.102   6.363   8.553 -0.3730 -0.0893 -0.1672
17978SOL    HW155150   7.152   6.428   8.505 -0.6893  0.3189  0.0477
17978SOL    HW255151   7.065   6.306   8.486  0.4479 -0.4473 -0.3186
17979SOL     OW55152   6.431   6.946   7.466 -0.0152 -0.4386 -0.5905
17979SOL    HW155153   6.439   7.035   7.431  0.2543 -0.4980 -0.6810
17979SOL    HW255154   6.337   6.929   7.464  0.0238 -0.6351 -1.7898
17980SOL     OW55155   6.502   7.472   8.637  0.3989  0.1080  0.1732
17980SOL    HW155156   6.532   7.481   8.727  0.2376  0.6063  0.1810
17980SOL    HW255157   6.460   7.386   8.633  2.5690 -1.0041 -0.0479
17981SOL     OW55158   6.230   6.268   8.220  0.0235  0.0920 -0.3168
17981SOL    HW155159   6.254   6.217   8.297 -1.1803 -0.4885 -0.2897
17981SOL    HW255160   6.212   6.355   8.253  0.5542  0.1266 -0.1123
17982SOL     OW55161   6.466   6.557   7.395 -0.4716  0.0651 -0.3978
17982SOL    HW155162   6.525   6.622   7.356 -0.6173 -0.0273 -0.7849
17982SOL    HW255163   6.401   6.607   7.443  1.5146  0.1175  2.4358
17983SOL     OW55164   7.483   7.215   8.303 -0.4434 -0.0010 -0.2482
17983SOL    HW155165   7.516   7.194   8.390 -1.7306  0.9396  0.4938
17983SOL    HW255166   7.528   7.153   8.245  0.3083 -0.7498  1.0892
17984SOL     OW55167   5.577   6.352   8.367  0.5146  0.1883  0.0024
17984SOL    HW155168   5.523   6.273   8.365 -0.2960  0.6111  2.3431
17984SOL    HW255169   5.517   6.422   8.340  0.1728  0.4878  1.4635
17985SOL     OW55170   6.851   5.590   8.379  0.6971  0.1617 -0.4228
17985SOL    HW155171   6.876   5.502   8.408 -0.1283  0.4845  1.3819
17985SOL    HW255172   6.934   5.636   8.369  1.2450 -1.1734 -2.7790
17986SOL     OW55173   6.064   5.759   7.895 -0.2701 -0.2794  0.1284
17986SOL    HW155174   6.042   5.834   7.950  0.5380  0.6102 -0.7187
17986SOL    HW255175   6.146   5.784   7.852 -0.5640 -1.1860 -1.0206
17987SOL     OW55176   7.283   7.221   8.641 -0.1534 -0.0761  0.0889
17987SOL    HW155177   7.245   7.290   8.587 -0.7865 -1.5912 -1.4908
17987SOL    HW255178   7.241   7.141   8.610  2.0860 -1.4378  0.3914
17988SOL     OW55179   5.543   5.740   8.586 -0.2606 -0.2291  0.5578
17988SOL    HW155180   5.547   5.680   8.512  0.9696 -2.9145  2.6317
17988SOL    HW255181   5.451   5.738   8.613 -0.3927 -0.5458  0.1012
17989SOL     OW55182   6.862   6.923   7.725 -0.5598 -0.2469 -0.8210
17989SOL    HW155183   6.768   6.934   7.710 -1.1428 -1.4524  1.5396
17989SOL    HW255184   6.880   6.976   7.802  0.6762 -0.2044 -1.1231
17990SOL     OW55185   6.811   5.650   8.086  0.4088 -0.4454  0.3815
17990SOL    HW155186   6.886   5.598   8.057 -0.6616 -1.7725 -0.0982
17990SOL    HW255187   6.809   5.639   8.181  1.3907  0.4123  0.5149
17991SOL     OW55188   6.463   5.684   8.314  0.1555  0.0252  0.5050
17991SOL    HW155189   6.439   5.605   8.265  1.8390 -1.5108  1.9838
17991SOL    HW255190   6.505   5.741   8.249  0.0228 -0.8275 -0.3534
17992SOL     OW55191   6.424   6.716   7.794  0.0988  0.1655 -0.2115
17992SOL    HW155192   6.468   6.747   7.874 -0.8219 -0.1539  0.4405
17992SOL    HW255193   6.378   6.638   7.822 -0.6682  0.3494 -0.9394
17993SOL     OW55194   6.305   6.914   8.775 -0.2659 -0.2805 -0.1205
17993SOL    HW155195   6.387   6.960   8.793 -1.6450  1.8092  1.3167
17993SOL    HW255196   6.296   6.917   8.680  1.0759 -0.1007 -0.2607
17994SOL     OW55197   6.923   5.659   7.263 -0.0671  0.1050 -0.1585
17994SOL    HW155198   6.896   5.603   7.191  0.3069  0.5966 -0.6975
17994SOL    HW255199   6.842   5.690   7.302 -0.2920 -1.6724  0.8563
17995SOL     OW55200   7.184   5.892   7.838  0.1939 -0.5569 -0.1063
17995SOL    HW155201   7.181   5.985   7.861  1.8634 -0.1896 -1.1694
17995SOL    HW255202   7.269   5.863   7.870 -0.7908 -2.0775  1.3020
17996SOL     OW55203   7.455   5.894   7.896 -0.2064 -0.1132 -0.2885
17996SOL    HW155204   7.464   5.988   7.880  0.8365  0.0048  0.8356
17996SOL    HW255205   7.513   5.853   7.832  1.0727  0.1537  0.6556
17997SOL     OW55206   5.807   6.718   8.037 -0.0724  0.1543  0.0278
17997SOL    HW155207   5.752   6.677   7.971 -0.4739  0.7536 -0.0205
17997SOL    HW255208   5.860   6.781   7.988  0.9117 -0.6654  0.0211
17998SOL     OW55209   6.485   7.231   7.373  0.2894 -0.2955 -0.2819
17998SOL    HW155210   6.451   7.225   7.284  1.5466  0.9194 -0.8919
17998SOL    HW255211   6.580   7.240   7.362  0.6559 -1.8094  1.2700
17999SOL     OW55212   5.556   7.919   0.586 -0.4325 -0.1347 -0.6029
17999SOL    HW155213   5.578   8.006   0.617  1.0656 -1.1964  1.5605
17999SOL    HW255214   5.565   7.863   0.663 -0.8698 -2.2816 -2.0275
18000SOL     OW55215   5.752   7.609   0.834  0.5435  0.4156  0.0610
18000SOL    HW155216   5.799   7.549   0.776 -0.3851  0.4577 -0.7582
18000SOL    HW255217   5.689   7.554   0.880  1.1586  0.4117  0.9219
18001SOL     OW55218   5.574   8.061   1.010  0.3607  0.1548 -0.1322
18001SOL    HW155219   5.518   8.008   1.067 -0.2213  0.4346 -0.4352
18001SOL    HW255220   5.621   7.998   0.956  0.1854 -0.0786 -0.0098
18002SOL     OW55221   5.979   8.529   1.691 -0.0103 -0.1650  0.4171
18002SOL    HW155222   5.944   8.575   1.767  1.3593  0.2911  0.8146
18002SOL    HW255223   5.908   8.472   1.662 -1.0041  0.6063  1.2422
18003SOL     OW55224   7.179   0.233   0.859  0.4499  0.0390 -0.1720
18003SOL    HW155225   7.227   0.314   0.840  1.8236 -0.9664 -1.1485
18003SOL    HW255226   7.107   0.232   0.797 -0.2374  1.0329  0.5790
18004SOL     OW55227   6.525   7.878   0.439 -0.2807 -0.5261  0.8449
18004SOL    HW155228   6.571   7.890   0.522 -1.2677 -1.5495  1.5748
18004SOL    HW255229   6.467   7.954   0.432  0.4237  0.0032  0.6535
18005SOL     OW55230   7.108   7.884   0.076 -0.5885 -0.0305  0.1481
18005SOL    HW155231   7.089   7.977   0.086 -3.4255 -0.4785 -0.2351
18005SOL    HW255232   7.048   7.854   0.008  1.0863 -1.9417 -0.5881
18006SOL     OW55233   6.375   8.760   1.039  0.2138  0.3565  0.4410
18006SOL    HW155234   6.442   8.811   0.993 -0.5030  1.1945  0.2938
18006SOL    HW255235   6.346   8.818   1.110 -0.2349 -0.0724  0.6098
18007SOL     OW55236   6.687   7.822   1.512  0.1297  0.2242  0.1292
18007SOL    HW155237   6.771   7.786   1.487  0.8996  2.9086 -1.5736
18007SOL    HW255238   6.681   7.806   1.606  1.3554 -2.2010 -0.1459
18008SOL     OW55239   6.441   8.646   0.779  0.4909  0.7427  0.2689
18008SOL    HW155240   6.365   8.618   0.726  1.3966  0.3610 -0.8815
18008SOL    HW255241   6.405   8.710   0.840 -0.9805 -0.2669  0.5260
18009SOL     OW55242   6.174   8.231   2.256 -0.1105  0.3903 -0.3360
18009SOL    HW155243   6.122   8.272   2.187 -1.0546  0.7988  0.5750
18009SOL    HW255244   6.112   8.219   2.328  0.2500 -2.2500 -0.3897
18010SOL     OW55245   5.776   8.782   1.568 -0.4131  0.1009  0.2199
18010SOL    HW155246   5.849   8.737   1.610 -1.1886  0.8547  2.5204
18010SOL    HW255247   5.710   8.714   1.554 -0.1404 -0.1637  0.2259
18011SOL     OW55248   5.953   7.864   1.382  0.0995 -0.5952 -0.5098
18011SOL    HW155249   5.859   7.851   1.398 -0.3592  1.6586 -1.0114
18011SOL    HW255250   5.989   7.775   1.379 -2.1484 -1.5689 -1.1329
18012SOL     OW55251   6.703   7.524   0.510 -0.2953 -0.2590 -0.4774
18012SOL    HW155252   6.637   7.463   0.477 -1.3173  1.7532 -2.4441
18012SOL    HW255253   6.652   7.599   0.543  0.9360  0.1289  0.6046
18013SOL     OW55254   6.503   8.357   1.634  0.6149  0.1436  0.7195
18013SOL    HW155255   6.569   8.352   1.565 -0.0986  0.4142 -0.0063
18013SOL    HW255256   6.546   8.323   1.712  1.3151 -0.5640  0.0433
18014SOL     OW55257   6.235   8.575   0.598  0.4553  0.0548 -0.1121
18014SOL    HW155258   6.191   8.627   0.530  1.1025 -0.0194 -0.6022
18014SOL    HW255259   6.221   8.484   0.571  1.0304  0.0342 -0.3620
18015SOL     OW55260   5.814   8.215   0.027  0.0715  0.0464  0.7509
18015SOL    HW155261   5.802   8.252   0.115  1.1832 -0.3192  1.0678
18015SOL    HW255262   5.908   8.199   0.020  0.0675  0.5470 -0.7113
18016SOL     OW55263   7.205   7.437   1.162 -0.4453  0.4893 -0.2727
18016SOL    HW155264   7.292   7.414   1.128  0.1127  1.5561  0.3663
18016SOL    HW255265   7.186   7.369   1.226 -0.9312 -0.8029 -1.7213
18017SOL     OW55266   5.226   7.540   0.415 -0.0249  0.2121 -0.3071
18017SOL    HW155267   5.317   7.518   0.397  0.7220  2.3156  0.6010
18017SOL    HW255268   5.229   7.597   0.491 -1.8365  2.3253 -1.6878
18018SOL     OW55269   7.694   8.594   0.174  0.4767 -0.5968 -0.0676
18018SOL    HW155270   7.634   8.554   0.237  0.4985 -0.6359 -0.0717
18018SOL    HW255271   7.775   8.606   0.223 -0.5082  2.5834  1.0095
18019SOL     OW55272   7.270   8.807   0.418 -0.2016 -0.0132 -0.2372
18019SOL    HW155273   7.360   8.776   0.416  0.0727  0.7284  0.4700
18019SOL    HW255274   7.277   8.902   0.419 -1.0080  0.0620 -0.8094
18020SOL     OW55275   5.687   8.083   1.695 -0.3322 -0.6696 -0.7283
18020SOL    HW155276   5.673   7.988   1.687  1.4677 -1.0232 -0.1927
18020SOL    HW255277   5.706   8.112   1.606 -0.3518 -0.9069 -0.8111
18021SOL     OW55278   6.057   0.189   0.715 -0.3997  0.9387  0.4603
18021SOL    HW155279   6.073   0.126   0.785  2.9189 -0.6469 -1.4441
18021SOL    HW255280   5.988   0.149   0.662 -1.2798  1.0063  1.5295
18022SOL     OW55281   6.754   8.171   1.246  0.4897 -0.2835  0.3251
18022SOL    HW155282   6.679   8.221   1.278  0.0203 -1.0362  0.4063
18022SOL    HW255283   6.792   8.227   1.178 -0.4765 -0.1453 -0.1149
18023SOL     OW55284   6.303   7.281   0.671 -0.3971  0.0987  0.2292
18023SOL    HW155285   6.374   7.250   0.727 -0.1022 -2.7949 -1.5185
18023SOL    HW255286   6.334   7.364   0.635  1.2108 -0.1144  1.0519
18024SOL     OW55287   5.804   8.388   1.523  0.1886  0.1053  0.2551
18024SOL    HW155288   5.847   8.404   1.438  0.8320 -1.7227  0.1884
18024SOL    HW255289   5.738   8.457   1.530  0.2511  0.4120 -1.6446
18025SOL     OW55290   7.376   8.311   0.028 -0.0321 -0.4731 -0.0386
18025SOL    HW155291   7.315   8.352   0.090  2.0583 -0.1162  1.9060
18025SOL    HW255292   7.361   8.358  -0.054  0.5259  2.5893  1.4668
18026SOL     OW55293   5.742   8.100   2.093  0.3387  0.3519 -0.0088
18026SOL    HW155294   5.731   8.142   2.007  0.0198  0.2683 -0.0098
18026SOL    HW255295   5.662   8.050   2.106  0.3015  0.5180  0.4233
18027SOL     OW55296   6.980   8.588   1.147  0.1504  0.1445 -0.1075
18027SOL    HW155297   6.992   8.683   1.138 -0.4712  0.0706 -2.2333
18027SOL    HW255298   6.970   8.557   1.057 -0.7415 -1.7977  0.6244
18028SOL     OW55299   6.710   7.876   8.824 -0.5737  0.1315 -0.0249
18028SOL    HW155300   6.782   7.846   8.769  0.1794  0.7698  0.6022
18028SOL    HW255301   6.653   7.926   8.765 -0.9223 -1.0024 -0.6902
18029SOL     OW55302   6.551   7.683   0.755  0.3757 -0.3026  0.4636
18029SOL    HW155303   6.584   7.628   0.826  0.9542 -0.3013  0.2059
18029SOL    HW255304   6.456   7.671   0.757  0.4540 -0.9447  0.7129
18030SOL     OW55305   6.339   7.857   1.434  0.7580 -0.3732  0.8095
18030SOL    HW155306   6.418   7.820   1.475 -1.1001 -0.7953  4.4261
18030SOL    HW255307   6.360   7.950   1.423  2.4389 -0.8325 -0.3281
18031SOL     OW55308   6.974   7.824   1.503 -0.1781 -0.3245 -0.0976
18031SOL    HW155309   7.019   7.849   1.422 -2.5142 -1.5512 -1.9218
18031SOL    HW255310   7.042   7.785   1.558  1.7950  2.0042 -0.7549
18032SOL     OW55311   6.712   8.143   1.534 -0.4065 -0.5276 -0.0233
18032SOL    HW155312   6.722   8.088   1.456  0.5711  0.3767 -0.5760
18032SOL    HW255313   6.704   8.081   1.606 -4.0590 -1.4819 -1.0233
18033SOL     OW55314   6.483   7.073   0.483  0.0938 -0.1363 -0.7638
18033SOL    HW155315   6.485   7.108   0.572 -2.7905 -0.0634 -0.6417
18033SOL    HW255316   6.518   6.984   0.492  1.0872  0.3187  0.1617
18034SOL     OW55317   6.291   8.041   0.423 -0.0184 -0.8223  0.3348
18034SOL    HW155318   6.216   8.000   0.380  1.4611 -0.8401 -2.4261
18034SOL    HW255319   6.276   8.027   0.517 -1.8264 -3.6482 -0.2798
18035SOL     OW55320   6.081   8.650   1.269  0.0428 -0.0752  0.1545
18035SOL    HW155321   6.078   8.733   1.222  0.5241  0.0851  0.3973
18035SOL    HW255322   6.092   8.674   1.361  1.1174 -0.4075  0.1325
18036SOL     OW55323   6.500   7.741   0.081  0.3081 -0.1451 -0.0478
18036SOL    HW155324   6.571   7.786   0.035  0.4265  1.0871  1.2514
18036SOL    HW255325   6.527   7.650   0.085  1.1563  0.0609 -0.7796
18037SOL     OW55326   7.056   7.873   1.239 -1.2665  0.5708  0.2061
18037SOL    HW155327   7.149   7.871   1.264 -1.4014  0.0170  0.6878
18037SOL    HW255328   7.044   7.795   1.185 -1.3650  0.8549 -0.1850
18038SOL     OW55329   6.818   8.350   0.293 -0.3293 -0.0893  0.8453
18038SOL    HW155330   6.834   8.443   0.277  0.7454 -0.7467 -2.8610
18038SOL    HW255331   6.729   8.347   0.328 -0.5823  2.2982  0.6099
18039SOL     OW55332   6.448   7.042   1.217  0.2199  0.0888  0.1102
18039SOL    HW155333   6.529   7.007   1.182  1.0209  0.2573  1.7335
18039SOL    HW255334   6.462   7.137   1.221 -0.1963  0.1568  0.0676
18040SOL     OW55335   6.985   8.521   0.880  0.7581  0.1064 -0.1240
18040SOL    HW155336   6.916   8.520   0.814  0.1036  3.4201  0.3233
18040SOL    HW255337   7.066   8.529   0.830  0.5504 -0.4341 -0.5602
18041SOL     OW55338   5.752   8.282   0.282 -0.2447 -0.3374 -0.3300
18041SOL    HW155339   5.836   8.276   0.327 -0.5453  1.2837  0.4943
18041SOL    HW255340   5.698   8.215   0.323  0.2645 -0.5632 -0.0146
18042SOL     OW55341   6.831   8.152   0.635 -0.1177 -0.3216 -0.2361
18042SOL    HW155342   6.919   8.126   0.661 -0.3223 -1.0904 -0.3003
18042SOL    HW255343   6.774   8.082   0.667 -0.6988  0.1137 -0.2845
18043SOL     OW55344   5.996   8.360   2.092 -0.4494 -0.2274 -0.2067
18043SOL    HW155345   5.907   8.365   2.127 -0.1757  1.2020  0.3345
18043SOL    HW255346   5.985   8.325   2.003 -1.4505 -0.9284  0.1808
18044SOL     OW55347   6.311   7.701   1.092 -0.4856  0.1644 -0.0467
18044SOL    HW155348   6.292   7.654   1.173 -0.4507  0.7272  0.2932
18044SOL    HW255349   6.348   7.635   1.033 -0.0545 -0.1393  0.5605
18045SOL     OW55350   7.224   0.557   0.068 -0.0958  0.1263  0.4232
18045SOL    HW155351   7.172   0.533   0.145  0.5980  0.9806  1.1880
18045SOL    HW255352   7.174   0.625   0.025 -0.5579 -0.4584  0.0195
18046SOL     OW55353   6.481   7.340   0.364 -0.0692 -0.3983 -0.0305
18046SOL    HW155354   6.408   7.375   0.415  0.3857  0.4462  0.0610
18046SOL    HW255355   6.488   7.249   0.391 -1.5551 -0.6930 -0.5816
18047SOL     OW55356   5.880   8.198   0.588 -0.4703  0.2751 -0.1010
18047SOL    HW155357   5.892   8.261   0.517  1.2225  0.6179  0.4237
18047SOL    HW255358   5.842   8.249   0.659  0.9664  0.7829  0.3488
18048SOL     OW55359   7.178   7.441   1.600 -0.1619 -0.4297 -0.1349
18048SOL    HW155360   7.203   7.350   1.584 -1.1035 -0.4834 -1.4645
18048SOL    HW255361   7.083   7.442   1.586 -0.3026  0.5941  0.7544
18049SOL     OW55362   6.760   7.122   1.452 -0.0998 -0.5248 -0.9292
18049SOL    HW155363   6.683   7.065   1.455 -0.2737 -0.2661  0.9171
18049SOL    HW255364   6.791   7.125   1.542  0.8778  1.0049 -1.2754
18050SOL     OW55365   6.889   7.524   1.296 -0.1087 -0.2514  0.6741
18050SOL    HW155366   6.801   7.560   1.312 -0.6823 -1.1975 -0.2573
18050SOL    HW255367   6.883   7.484   1.210  0.8705 -1.4604  1.1495
18051SOL     OW55368   6.074   7.949   0.826  0.7773 -0.1934 -0.0752
18051SOL    HW155369   6.075   7.906   0.912 -1.2712  3.0271  1.7720
18051SOL    HW255370   5.990   7.923   0.788  1.6122 -1.4852 -1.1160
18052SOL     OW55371   6.287   7.397   0.002 -0.7695 -0.2705  0.2272
18052SOL    HW155372   6.272   7.489  -0.020  0.8028 -0.2782 -1.0329
18052SOL    HW255373   6.291   7.353  -0.082  0.9265 -1.0842  0.7047
18053SOL     OW55374   7.115   8.728   0.223 -0.2553 -0.2638 -0.0577
18053SOL    HW155375   7.149   8.767   0.303 -0.0563 -0.2479 -0.1484
18053SOL    HW255376   7.134   8.792   0.155 -0.2786 -0.3475 -0.1435
18054SOL     OW55377   6.231   7.436   0.297  0.3764 -0.3432 -0.1104
18054SOL    HW155378   6.258   7.523   0.323  2.4303 -1.4216  1.6656
18054SOL    HW255379   6.244   7.434   0.202 -0.2716  1.4227 -0.2663
18055SOL     OW55380   6.705   7.990   1.055  0.2786  0.0640  0.0860
18055SOL    HW155381   6.722   8.026   1.142 -1.7188 -0.8762  0.9142
18055SOL    HW255382   6.781   7.934   1.037 -0.2693 -1.4948  2.2314
18056SOL     OW55383   6.843   0.375   0.472  0.2913  0.3514  0.3951
18056SOL    HW155384   6.766   0.431   0.469 -0.9386 -1.3003 -0.6287
18056SOL    HW255385   6.915   0.431   0.443 -0.8531  1.4523 -0.4178
18057SOL     OW55386   6.242   0.321   0.527 -0.0538 -0.1457  0.6409
18057SOL    HW155387   6.188   0.270   0.588 -0.3653 -0.2959  0.2434
18057SOL    HW255388   6.203   0.409   0.528  0.7352  0.2092  1.6413
18058SOL     OW55389   6.385   8.175   8.809  0.6609 -0.3012  0.3460
18058SOL    HW155390   6.445   8.189   8.882 -1.0044  0.5545  1.6037
18058SOL    HW255391   6.385   8.258   8.761  0.7339 -0.4165  0.1441
18059SOL     OW55392   5.777   8.139   1.420  0.3351  0.5305  0.3993
18059SOL    HW155393   5.773   8.217   1.475 -1.0544  0.8154 -0.0685
18059SOL    HW255394   5.799   8.171   1.333  0.5138  0.3068  0.3598
18060SOL     OW55395   6.378   7.474   0.950  0.5053  0.2308 -0.4045
18060SOL    HW155396   6.434   7.400   0.973  1.2954  0.2324 -2.1423
18060SOL    HW255397   6.289   7.437   0.950  0.6658 -0.1919  0.7430
18061SOL     OW55398   6.114   7.823   0.539 -0.1673 -0.5903 -0.4253
18061SOL    HW155399   6.083   7.758   0.477 -2.7836 -0.0025  0.1673
18061SOL    HW255400   6.035   7.868   0.570  1.2999  1.1476  1.0980
18062SOL     OW55401   6.224   7.018   0.735  0.1755 -0.0959 -0.1874
18062SOL    HW155402   6.159   6.980   0.675 -0.5528  0.2900  0.3336
18062SOL    HW255403   6.244   7.103   0.698 -0.1842  0.0922  0.0351
18063SOL     OW55404   6.991   8.577   0.491  0.4571 -0.7862  0.3561
18063SOL    HW155405   6.964   8.633   0.418 -0.9203 -0.7494  0.8694
18063SOL    HW255406   7.086   8.569   0.481  0.3732 -0.2840 -1.0805
18064SOL     OW55407   6.685   7.917   0.672 -0.2816  0.2555 -0.5745
18064SOL    HW155408   6.631   7.864   0.730 -0.7344  0.9008 -0.4002
18064SOL    HW255409   6.771   7.875   0.675 -0.9006 -1.1665 -1.3541
18065SOL     OW55410   7.544   8.470   0.349  0.3294 -0.5338  0.0288
18065SOL    HW155411   7.551   8.469   0.444  0.7418 -1.6508  0.0001
18065SOL    HW255412   7.459   8.431   0.330  0.2948 -0.4133 -0.0665
18066SOL     OW55413   7.296   0.202   0.272  0.1425 -0.1893 -0.8156
18066SOL    HW155414   7.387   0.202   0.242  1.0505 -1.1622  1.6356
18066SOL    HW255415   7.287   0.285   0.320  0.4432 -0.9563  0.6527
18067SOL     OW55416   7.067   8.149   0.094 -0.5095 -0.2785  1.1136
18067SOL    HW155417   7.004   8.210   0.055 -1.4330 -0.8202  1.6948
18067SOL    HW255418   7.083   8.184   0.182 -0.3732 -0.3983  1.1362
18068SOL     OW55419   6.080   7.971   0.243  0.6598  0.5486  0.1848
18068SOL    HW155420   6.047   7.892   0.287  0.1005  1.3375  1.2210
18068SOL    HW255421   6.114   7.939   0.160 -0.9810 -0.5873 -0.0946
18069SOL     OW55422   7.391   0.432   1.472 -0.0614 -0.0539  0.5668
18069SOL    HW155423   7.447   0.368   1.426  0.9675  1.4150 -0.2978
18069SOL    HW255424   7.441   0.454   1.550  0.2197  0.6824  0.1853
18070SOL     OW55425   6.601   8.793   1.322 -0.5067  0.0499  0.2407
18070SOL    HW155426   6.511   8.822   1.306  0.1682  1.3704 -1.4529
18070SOL    HW255427   6.651   8.826   1.248  1.0981 -2.1470  0.2375
18071SOL     OW55428   6.800   8.493   0.677 -0.3542 -0.0418  0.0458
18071SOL    HW155429   6.760   8.409   0.655  2.4648 -1.9784  1.5534
18071SOL    HW255430   6.862   8.509   0.606 -0.1640  0.2296  0.2733
18072SOL     OW55431   7.137   8.438   1.336  0.1265  0.3324  0.7241
18072SOL    HW155432   7.075   8.431   1.408  0.1331 -0.8782  0.6291
18072SOL    HW255433   7.096   8.500   1.275 -0.7665 -0.0856  0.8856
18073SOL     OW55434   6.528   7.116   0.751  0.1709 -0.1734 -0.8636
18073SOL    HW155435   6.515   7.035   0.799 -3.5795  0.8390  0.2362
18073SOL    HW255436   6.602   7.159   0.794  0.5783 -1.8654  0.1958
18074SOL     OW55437   6.623   8.369   1.899  0.4808 -1.0378 -0.4252
18074SOL    HW155438   6.533   8.365   1.932  0.5746  0.5800  0.1159
18074SOL    HW255439   6.670   8.305   1.951  0.1768 -0.0167  1.1713
18075SOL     OW55440   6.452   8.538   0.397  0.4498 -0.3125  0.0058
18075SOL    HW155441   6.432   8.578   0.481 -0.8714 -1.0259  0.0522
18075SOL    HW255442   6.483   8.450   0.419 -1.3869 -1.0708 -0.2806
18076SOL     OW55443   5.940   8.403   1.293 -0.4863  0.2299  0.2092
18076SOL    HW155444   5.964   8.495   1.279 -2.2999  0.7759  0.3488
18076SOL    HW255445   5.911   8.372   1.207 -1.2881  0.2699  0.4502
18077SOL     OW55446   6.910   7.787   0.971 -0.2268 -0.4666 -0.0453
18077SOL    HW155447   6.921   7.785   0.876 -0.4913 -0.8839 -0.0700
18077SOL    HW255448   6.843   7.722   0.989 -2.0440  1.3820  0.2046
18078SOL     OW55449   5.977   8.393   0.424  0.5566 -0.5834  0.1236
18078SOL    HW155450   6.012   8.483   0.428  1.3294 -0.8335 -0.7045
18078SOL    HW255451   6.044   8.344   0.376 -1.1261 -0.9887 -1.9630
18079SOL     OW55452   5.997   7.479   0.088 -0.4488 -0.4138  0.4826
18079SOL    HW155453   5.936   7.451   0.019 -2.6064  1.5172  1.4730
18079SOL    HW255454   6.070   7.519   0.041 -1.4065 -0.0309 -0.7274
18080SOL     OW55455   6.853   0.176   0.256 -0.1653  0.3825 -0.0265
18080SOL    HW155456   6.886   0.191   0.344 -1.2745  2.5604  0.1022
18080SOL    HW255457   6.842   0.264   0.220 -0.1740 -0.4419 -2.1856
18081SOL     OW55458   7.251   7.846   0.460  0.3551 -0.4122 -0.7905
18081SOL    HW155459   7.169   7.893   0.474  0.1222 -0.6865 -1.1908
18081SOL    HW255460   7.290   7.839   0.547  0.8473  1.3258 -0.8351
18082SOL     OW55461   6.282   8.469   1.773  0.5726  0.1439  0.3260
18082SOL    HW155462   6.291   8.457   1.679  2.1191  1.9499  0.1887
18082SOL    HW255463   6.358   8.424   1.810 -0.4936 -1.3310  0.8367
18083SOL     OW55464   7.025   8.170   1.378 -0.5902 -0.0993 -0.6061
18083SOL    HW155465   7.068   8.239   1.327 -1.6404  0.2752 -1.0135
18083SOL    HW255466   6.948   8.146   1.326 -2.0351  0.7202  1.0510
18084SOL     OW55467   6.570   6.922   1.486 -0.2989 -0.4054 -0.1023
18084SOL    HW155468   6.562   6.855   1.418  0.1496  0.0126 -0.5689
18084SOL    HW255469   6.572   6.872   1.568 -0.3144 -0.9429 -0.4229
18085SOL     OW55470   5.978   7.668   1.734  0.0010 -0.4250  0.1282
18085SOL    HW155471   6.036   7.714   1.674 -0.1300 -2.2896 -1.5273
18085SOL    HW255472   5.908   7.634   1.678 -0.3817 -1.8409  1.4064
18086SOL     OW55473   6.163   8.296   1.402  0.1537  0.6481 -0.0617
18086SOL    HW155474   6.205   8.378   1.429  0.1854  0.4681  0.4531
18086SOL    HW255475   6.085   8.324   1.355  1.5382  1.0332 -2.3275
18087SOL     OW55476   6.568   8.300   0.969 -0.0828 -0.1561  0.3629
18087SOL    HW155477   6.505   8.251   1.022  0.6975 -1.6582 -0.0480
18087SOL    HW255478   6.646   8.244   0.966  0.8619  1.1254 -0.1194
18088SOL     OW55479   6.327   7.703   0.320 -0.1066  0.4666  0.3907
18088SOL    HW155480   6.417   7.678   0.296 -0.3543 -0.8967  0.8161
18088SOL    HW255481   6.338   7.785   0.368  1.0110 -0.0965  1.1553
18089SOL     OW55482   6.105   7.559   0.789  0.1006  0.3334 -0.2612
18089SOL    HW155483   6.082   7.554   0.882 -1.1137  1.0065 -0.5113
18089SOL    HW255484   6.170   7.629   0.784  2.6874 -1.8349  0.5039
18090SOL     OW55485   5.221   0.037   1.379 -0.0185  0.1837 -0.0994
18090SOL    HW155486   5.129   0.044   1.355 -0.3056 -0.2513  0.8218
18090SOL    HW255487   5.232   0.099   1.452  1.1620  2.5247 -2.1337
18091SOL     OW55488   6.079   8.217   1.100 -0.1343 -0.5075 -0.3651
18091SOL    HW155489   6.112   8.186   1.016  1.3781 -0.8249  0.3032
18091SOL    HW255490   6.154   8.210   1.159 -0.1480  2.8870  0.2368
18092SOL     OW55491   7.098   8.254   1.970  0.1001 -0.0947  0.6083
18092SOL    HW155492   7.165   8.316   1.942 -1.4158  1.1941 -0.4130
18092SOL    HW255493   7.143   8.170   1.978  1.7341  0.6527 -0.3495
18093SOL     OW55494   5.891   7.297   0.297 -0.1546  0.1401 -0.0814
18093SOL    HW155495   5.936   7.322   0.378  1.5366  2.2264 -1.5540
18093SOL    HW255496   5.922   7.359   0.232 -3.2130 -0.0085 -1.8827
18094SOL     OW55497   6.740   7.928   0.253 -0.0572  0.0460 -0.4086
18094SOL    HW155498   6.668   7.922   0.315 -0.1037  0.6193 -0.3981
18094SOL    HW255499   6.718   7.866   0.184 -0.0605 -0.5128  0.0903
18095SOL     OW55500   6.346   8.030   0.721  0.7834  0.0446  0.4255
18095SOL    HW155501   6.417   8.023   0.784  0.9144  0.7659  0.3589
18095SOL    HW255502   6.266   8.025   0.774  0.8927  1.3310  0.7353
18096SOL     OW55503   7.637   0.664   1.276 -0.4884 -0.1957 -0.0754
18096SOL    HW155504   7.644   0.579   1.232  0.4580  0.8806 -2.1560
18096SOL    HW255505   7.624   0.642   1.368  0.5578 -2.5910 -0.4196
18097SOL     OW55506   6.185   7.884   1.674  0.2394 -0.0288  0.0553
18097SOL    HW155507   6.160   7.976   1.682  2.2097  0.5110  0.4041
18097SOL    HW255508   6.247   7.882   1.602  0.0644 -1.1374 -0.0786
18098SOL     OW55509   6.788   8.219   8.618  0.1037  0.0625  0.4180
18098SOL    HW155510   6.745   8.134   8.630 -2.3361  1.3359  1.2063
18098SOL    HW255511   6.838   8.233   8.698 -0.2341 -0.2085  0.6753
18099SOL     OW55512   6.884   8.342   8.842  0.1176  0.4256 -0.8614
18099SOL    HW155513   6.839   8.363   8.924  0.0131  0.1236 -0.8428
18099SOL    HW255514   6.920   8.426   8.813  0.4830  0.4688 -0.3100
18100SOL     OW55515   5.597   8.435   1.197 -0.1908 -0.9860  0.0080
18100SOL    HW155516   5.678   8.471   1.163 -0.6781 -0.4183 -0.5857
18100SOL    HW255517   5.622   8.352   1.237  0.3894 -1.7052 -1.7823
18101SOL     OW55518   5.889   7.446   0.677  0.1031 -0.4007 -0.1753
18101SOL    HW155519   5.938   7.391   0.616  0.7700  0.6048 -0.5819
18101SOL    HW255520   5.955   7.506   0.712 -1.0317  2.0573 -1.9125
18102SOL     OW55521   6.908   7.508   1.565 -0.3438  0.2710  0.7160
18102SOL    HW155522   6.820   7.472   1.574  0.5786 -2.0580  0.9078
18102SOL    HW255523   6.911   7.543   1.476 -1.6110  0.8749  0.8874
18103SOL     OW55524   6.730   7.241   0.865  0.1289  0.7029 -0.2532
18103SOL    HW155525   6.817   7.213   0.894 -0.4283 -0.1032  0.6809
18103SOL    HW255526   6.705   7.309   0.927 -0.8267 -0.6264  0.8657
18104SOL     OW55527   6.355   8.198   1.139  0.5506 -0.3923  0.2918
18104SOL    HW155528   6.390   8.182   1.226  1.6787 -0.2713 -0.1190
18104SOL    HW255529   6.372   8.118   1.090 -0.3748 -0.5859  0.2557
18105SOL     OW55530   5.849   7.742   1.088  0.4244 -0.3752 -0.6043
18105SOL    HW155531   5.837   7.753   0.994 -1.2999 -0.0909 -0.3956
18105SOL    HW255532   5.924   7.796   1.110  0.6815 -0.2372 -1.7694
18106SOL     OW55533   5.544   7.854   1.636 -0.2292  0.4767  0.5357
18106SOL    HW155534   5.547   7.808   1.553 -1.2536  2.2282 -0.5382
18106SOL    HW255535   5.489   7.799   1.692  1.5035 -1.3547  0.5353
18107SOL     OW55536   7.298   8.621   1.873 -0.8684  0.1608  0.4043
18107SOL    HW155537   7.271   8.574   1.953 -2.3070 -0.9773 -0.6846
18107SOL    HW255538   7.355   8.559   1.828 -0.1987  0.7384  0.4405
18108SOL     OW55539   6.074   7.704   0.284  0.2118 -0.3936 -0.7199
18108SOL    HW155540   6.051   7.655   0.205 -0.2833 -0.6795 -0.4044
18108SOL    HW255541   6.168   7.693   0.293  0.0757 -1.4942 -0.5300
18109SOL     OW55542   7.098   8.107   0.758  0.1913 -0.2036  0.3751
18109SOL    HW155543   7.168   8.043   0.742  0.7934 -0.0936  2.2209
18109SOL    HW255544   7.092   8.111   0.854 -2.5135 -0.3455  0.2683
18110SOL     OW55545   6.656   7.678   1.276  0.0381 -0.4501  0.0726
18110SOL    HW155546   6.655   7.765   1.314 -0.5106 -0.0958 -0.7238
18110SOL    HW255547   6.565   7.648   1.281  0.2471 -1.0393  0.4725
18111SOL     OW55548   6.076   8.166   8.830 -0.2918 -0.6348  0.6066
18111SOL    HW155549   6.150   8.105   8.829  0.0744 -0.3271  2.9302
18111SOL    HW255550   6.116   8.252   8.816 -0.4423 -0.6279  0.2039
18112SOL     OW55551   5.957   8.252   1.854 -0.2533  0.1025 -0.0915
18112SOL    HW155552   5.946   8.161   1.882 -3.5700  0.5934  0.5323
18112SOL    HW255553   5.996   8.246   1.766  2.7403 -1.6968  1.1870
18113SOL     OW55554   6.617   8.388   1.376  0.5179  0.3179 -0.1540
18113SOL    HW155555   6.555   8.428   1.315  1.7829 -1.3376 -2.7439
18113SOL    HW255556   6.694   8.444   1.372 -0.0024  1.2074  1.4284
18114SOL     OW55557   6.995   7.970   0.421 -0.3632 -0.2856  0.0354
18114SOL    HW155558   6.925   7.913   0.389 -0.0085 -0.4988 -0.3826
18114SOL    HW255559   6.994   8.045   0.360  0.2608 -0.6538 -0.4398
18115SOL     OW55560   5.489   8.676   1.087 -0.2896  0.4325 -0.0699
18115SOL    HW155561   5.519   8.646   1.002 -0.6109 -0.0802 -0.0057
18115SOL    HW255562   5.525   8.613   1.150  0.4682  1.1580  0.2430
18116SOL     OW55563   6.363   7.719   8.603  0.1353  0.4203  0.5584
18116SOL    HW155564   6.399   7.806   8.583  2.1708 -0.2221  1.1788
18116SOL    HW255565   6.427   7.658   8.567  0.1464 -0.8037  2.5071
18117SOL     OW55566   7.170   7.679   0.261  0.7673 -0.1210 -0.1106
18117SOL    HW155567   7.150   7.733   0.184 -0.1176  0.7445  0.6943
18117SOL    HW255568   7.191   7.743   0.329  0.2089 -0.8075  0.7185
18118SOL     OW55569   7.214   8.438   0.203  0.3016 -0.7328 -0.1248
18118SOL    HW155570   7.163   8.387   0.266 -0.6306  0.7384  0.3579
18118SOL    HW255571   7.194   8.529   0.224  2.8090 -0.0879 -0.2255
18119SOL     OW55572   6.130   8.666   1.525  0.1402 -0.0690  0.0352
18119SOL    HW155573   6.206   8.608   1.519  0.7001  0.6550 -0.0448
18119SOL    HW255574   6.074   8.625   1.591  0.3997 -0.8290 -0.2052
18120SOL     OW55575   7.436   7.304   1.091  0.3689  0.2778 -0.2972
18120SOL    HW155576   7.460   7.271   1.178 -0.1162  0.0329 -0.2510
18120SOL    HW255577   7.479   7.244   1.030 -0.4358 -0.4079 -0.2126
18121SOL     OW55578   5.805   8.186   1.163 -0.1582  0.3807 -0.1734
18121SOL    HW155579   5.757   8.157   1.085  0.0800 -0.0943 -0.1477
18121SOL    HW255580   5.897   8.190   1.135 -0.1682  0.9543 -0.1289
18122SOL     OW55581   6.349   8.501   1.460 -0.4456  0.5353  0.2339
18122SOL    HW155582   6.421   8.470   1.515  0.7142  1.0234 -0.9684
18122SOL    HW255583   6.389   8.519   1.375 -1.9743  0.9072 -0.4463
18123SOL     OW55584   6.871   8.599   0.226  0.1528  0.0218 -0.1133
18123SOL    HW155585   6.805   8.668   0.223 -0.9490 -0.9880 -0.0740
18123SOL    HW255586   6.951   8.640   0.193 -0.8837  0.8605 -1.6735
18124SOL     OW55587   5.797   8.584   1.876 -0.7952 -0.0640 -0.2183
18124SOL    HW155588   5.715   8.548   1.910 -1.7692  2.1643 -0.0119
18124SOL    HW255589   5.819   8.654   1.937 -0.8293  1.9119 -2.3495
18125SOL     OW55590   6.818   0.254   1.576 -0.2395  0.1409 -0.7182
18125SOL    HW155591   6.802   0.304   1.495  2.5572  1.1870 -0.7444
18125SOL    HW255592   6.792   0.313   1.646  0.4300  0.5782 -0.8218
18126SOL     OW55593   6.440   8.531   1.191  0.1305  0.5636  0.4520
18126SOL    HW155594   6.380   8.601   1.165 -1.4716 -1.0470 -0.3750
18126SOL    HW255595   6.450   8.478   1.112  0.2894 -0.8567  1.3926
18127SOL     OW55596   6.293   7.756   0.747 -0.3597  0.7621 -0.7700
18127SOL    HW155597   6.261   7.810   0.676  3.2286  1.1680 -2.2806
18127SOL    HW255598   6.320   7.818   0.815 -0.7452  0.5552 -0.4196
18128SOL     OW55599   7.082   7.512   0.761  0.1643 -0.0635 -0.6391
18128SOL    HW155600   7.148   7.541   0.697  0.6229  0.7688  0.1941
18128SOL    HW255601   7.031   7.446   0.713 -0.2929  1.3909 -2.2746
18129SOL     OW55602   5.455   8.313   2.043 -0.6321 -0.0018 -0.7178
18129SOL    HW155603   5.447   8.408   2.043 -0.2267  0.0444 -1.6476
18129SOL    HW255604   5.516   8.294   1.972  1.7182 -0.7868  1.3639
18130SOL     OW55605   6.046   7.614   1.378 -0.1965 -0.2746 -0.5354
18130SOL    HW155606   6.077   7.525   1.396  0.0996 -0.2698 -1.0197
18130SOL    HW255607   6.124   7.669   1.388 -0.6522  0.1358  1.1982
18131SOL     OW55608   5.478   7.517   0.335  0.2604 -0.5680  0.0956
18131SOL    HW155609   5.483   7.433   0.288 -0.3153 -2.0412  2.4742
18131SOL    HW255610   5.542   7.508   0.405  0.2161  1.0304  0.3650
18132SOL     OW55611   6.859   8.274   1.007  0.0303 -0.4423  0.1419
18132SOL    HW155612   6.872   8.356   0.959  0.1585 -0.4088  0.2332
18132SOL    HW255613   6.923   8.213   0.969  0.1032 -0.4278  0.2417
18133SOL     OW55614   4.874   7.394   0.159  0.0977 -0.3584 -0.1336
18133SOL    HW155615   4.939   7.464   0.159  0.9182 -1.0540  1.7221
18133SOL    HW255616   4.903   7.333   0.091  0.1527  0.3912 -0.7943
18134SOL     OW55617   6.066   8.138   1.604  0.2370  0.0883  0.5389
18134SOL    HW155618   5.991   8.114   1.550 -0.7022  1.5283  1.1337
18134SOL    HW255619   6.115   8.201   1.551  1.2335 -1.1064  0.0163
18135SOL     OW55620   6.469   7.505   1.415 -0.0287  0.5134 -0.6427
18135SOL    HW155621   6.535   7.495   1.484  0.7043 -1.2168 -1.5505
18135SOL    HW255622   6.388   7.474   1.456 -0.1665  1.9758  0.2488
18136SOL     OW55623   6.800   8.614   1.342 -0.1299  0.0500 -0.3489
18136SOL    HW155624   6.720   8.664   1.322  0.1656  0.6641 -0.0323
18136SOL    HW255625   6.844   8.604   1.258 -0.4785 -0.1770 -0.5043
18137SOL     OW55626   6.941   7.437   1.013  0.6866 -0.3721  0.0419
18137SOL    HW155627   7.005   7.450   0.943  0.7970 -0.3226  0.1525
18137SOL    HW255628   6.986   7.382   1.077 -0.0579 -2.0506 -0.8115
18138SOL     OW55629   6.414   7.949   1.003 -0.2260  0.5704  0.4106
18138SOL    HW155630   6.370   7.874   1.043  0.3880  0.0371  0.1121
18138SOL    HW255631   6.504   7.943   1.033  0.1357  0.4293 -0.6565
18139SOL     OW55632   6.637   8.312   0.506  0.2171 -0.2439 -0.3905
18139SOL    HW155633   6.695   8.242   0.535 -0.0881  0.5067  2.2778
18139SOL    HW255634   6.561   8.307   0.564 -0.2515  1.7063 -0.7492
18140SOL     OW55635   7.189   7.712   1.638 -0.7131  0.4779 -0.1436
18140SOL    HW155636   7.227   7.718   1.725  0.2592  1.2212 -0.5973
18140SOL    HW255637   7.179   7.618   1.622 -1.5851  0.3499  1.0330
18141SOL     OW55638   7.255   8.226   1.166  0.0870 -0.3523  0.2884
18141SOL    HW155639   7.294   8.253   1.249  2.4270 -0.1679 -0.8065
18141SOL    HW255640   7.282   8.293   1.104 -1.0840 -0.8321 -0.7648
18142SOL     OW55641   6.473   8.380   0.723  0.2303  0.4011  0.0291
18142SOL    HW155642   6.511   8.343   0.803  0.3532  0.0432 -0.1941
18142SOL    HW255643   6.482   8.475   0.734 -1.7099  0.4872  1.4168
18143SOL     OW55644   6.627   8.130   0.142  0.2134  0.0110  0.1320
18143SOL    HW155645   6.656   8.040   0.158  0.4798 -0.1451 -1.1042
18143SOL    HW255646   6.706   8.183   0.154  0.6876 -0.2286 -1.5837
18144SOL     OW55647   5.826   8.773   2.090 -0.1206 -0.5266 -0.0558
18144SOL    HW155648   5.876   8.849   2.061 -0.3093 -0.2349  0.3827
18144SOL    HW255649   5.872   8.742   2.168  1.1511 -2.0853 -1.3390
18145SOL     OW55650   6.111   8.836   0.916  0.8678 -0.5102 -0.1522
18145SOL    HW155651   6.049   8.855   0.986 -1.3072 -1.0488 -1.8316
18145SOL    HW255652   6.142   8.747   0.934 -0.0532 -0.8304 -0.1207
18146SOL     OW55653   6.138   8.562   1.972  0.3066  0.3368  0.3886
18146SOL    HW155654   6.084   8.492   2.009  0.5120  0.2447  0.5164
18146SOL    HW255655   6.163   8.531   1.885  0.2775  0.3150  0.3880
18147SOL     OW55656   7.206   6.995   1.155  0.2677 -0.5389  0.5070
18147SOL    HW155657   7.297   6.977   1.133  0.1278  0.3863 -0.9740
18147SOL    HW255658   7.210   7.043   1.238  1.1118 -0.7466  0.5868
18148SOL     OW55659   6.235   8.324   0.579 -0.1750 -0.0885  0.1812
18148SOL    HW155660   6.187   8.241   0.586 -0.7623  0.3104  1.0905
18148SOL    HW255661   6.304   8.317   0.645 -0.7789  0.4914  0.8941
18149SOL     OW55662   7.081   0.055   1.145  0.5929  0.6438  0.6757
18149SOL    HW155663   7.012   0.121   1.141  1.0255  1.2907  2.6930
18149SOL    HW255664   7.120   0.067   1.232  1.3321 -1.6340  0.7120
18150SOL     OW55665   6.078   7.887   1.140 -0.1797  0.6533 -0.1520
18150SOL    HW155666   6.158   7.835   1.149  0.4260  1.3785 -1.1206
18150SOL    HW255667   6.049   7.904   1.229  0.2363 -0.3763  0.1967
18151SOL     OW55668   6.673   7.560   0.964 -0.3776 -0.0539 -0.6646
18151SOL    HW155669   6.652   7.540   1.055 -0.3247 -0.4704 -0.7423
18151SOL    HW255670   6.766   7.539   0.956  0.1736  2.0324 -0.2516
18152SOL     OW55671   6.695   6.943   1.134 -0.5955 -0.4466 -0.4685
18152SOL    HW155672   6.731   6.889   1.205 -0.8804 -1.0387 -0.7682
18152SOL    HW255673   6.772   6.979   1.090 -0.4200  0.7222  0.7278
18153SOL     OW55674   6.526   0.035   0.396 -0.4513 -0.0657  0.2778
18153SOL    HW155675   6.557  -0.013   0.319 -0.3829  0.5538 -0.0942
18153SOL    HW255676   6.592   0.017   0.464  1.9474  2.7763 -1.0438
18154SOL     OW55677   7.259   7.575   8.474 -0.2548 -1.5789 -0.2150
18154SOL    HW155678   7.273   7.502   8.414  0.0852  0.3190 -2.6439
18154SOL    HW255679   7.344   7.618   8.479 -0.9950  0.0900 -0.9925
18155SOL     OW55680   7.105   8.247   0.387  0.0441 -0.1516 -0.0757
18155SOL    HW155681   7.165   8.256   0.462  0.9168  0.1869 -0.7893
18155SOL    HW255682   7.029   8.300   0.411  0.1291 -0.3811  0.7463
18156SOL     OW55683   6.331   7.519   0.574 -0.3230  0.6436 -0.0732
18156SOL    HW155684   6.269   7.535   0.646 -1.6048  0.6884 -1.1582
18156SOL    HW255685   6.364   7.606   0.551  1.8240  0.4593  1.8741
18157SOL     OW55686   5.607   8.372   8.765 -0.4082  0.2368  0.2423
18157SOL    HW155687   5.562   8.339   8.687  0.3274  1.2468 -0.6556
18157SOL    HW255688   5.681   8.313   8.777 -1.4203 -0.8904  1.1835
18158SOL     OW55689   6.205   7.796   2.489  0.3947  0.0556  0.4082
18158SOL    HW155690   6.259   7.736   2.437  0.9069  2.4018 -2.0258
18158SOL    HW255691   6.148   7.838   2.424 -1.5358  0.6116  2.3465
18159SOL     OW55692   5.935   7.543   2.874 -0.0397  0.5266 -0.3064
18159SOL    HW155693   5.889   7.486   2.936  0.7820 -1.6089 -1.5618
18159SOL    HW255694   5.865   7.594   2.832 -1.0347 -0.9700 -0.5196
18160SOL     OW55695   5.553   7.732   2.687 -0.6801  0.0002  0.0855
18160SOL    HW155696   5.558   7.644   2.648 -0.3476  0.2892 -0.5371
18160SOL    HW255697   5.462   7.741   2.714 -1.4189  0.4915 -2.3240
18161SOL     OW55698   6.037   8.587   2.941 -0.3068 -0.3057  0.1058
18161SOL    HW155699   6.009   8.605   2.851 -1.2328 -0.0348  0.4337
18161SOL    HW255700   5.995   8.504   2.962  0.0520 -0.4554  0.2337
18162SOL     OW55701   7.654   0.146   1.702 -0.0243 -0.7269 -0.1576
18162SOL    HW155702   7.578   0.116   1.752 -0.2130 -0.7204 -0.4405
18162SOL    HW255703   7.626   0.229   1.664  1.0086  0.6568  1.9095
18163SOL     OW55704   7.038   8.266   2.444  0.2591 -0.1674  0.2212
18163SOL    HW155705   6.964   8.285   2.386 -0.1822  0.1218  0.8747
18163SOL    HW255706   7.083   8.193   2.401 -1.1972 -1.2815  0.5010
18164SOL     OW55707   7.506   7.704   1.917  0.2465 -0.0396 -0.4319
18164SOL    HW155708   7.415   7.684   1.940  0.2004  0.8333  0.1888
18164SOL    HW255709   7.538   7.624   1.874 -1.2310  0.1297 -1.9587
18165SOL     OW55710   6.411   8.807   2.848  0.1422 -0.0648  0.8764
18165SOL    HW155711   6.326   8.805   2.892  0.7152  2.3583  2.2887
18165SOL    HW255712   6.468   8.855   2.908  2.4771 -1.3548 -0.1503
18166SOL     OW55713   6.510   8.249   3.549 -0.1002  0.0288 -0.4947
18166SOL    HW155714   6.427   8.296   3.541  0.8374  2.2277  1.4813
18166SOL    HW255715   6.486   8.162   3.581 -1.7249 -0.1350 -1.9719
18167SOL     OW55716   6.514   8.602   2.526 -0.0236 -0.4718  0.0669
18167SOL    HW155717   6.528   8.531   2.589  0.6177 -1.1312 -0.8049
18167SOL    HW255718   6.583   8.591   2.461 -1.4101 -0.5840 -1.4730
18168SOL     OW55719   6.453   8.636   3.457  0.1708 -0.2840  0.3851
18168SOL    HW155720   6.490   8.640   3.369  2.8642 -2.4151  1.3054
18168SOL    HW255721   6.439   8.727   3.481  1.1281  0.4260 -1.5303
18169SOL     OW55722   6.018   8.671   2.693  0.4822  0.7077  0.3985
18169SOL    HW155723   6.101   8.639   2.659  1.4207 -0.2577  3.3186
18169SOL    HW255724   5.952   8.617   2.651  1.6772 -1.4040  1.0824
18170SOL     OW55725   5.756   7.947   3.412 -0.2727  0.2001  0.0543
18170SOL    HW155726   5.755   7.957   3.507  0.7525 -0.0739  0.1080
18170SOL    HW255727   5.776   8.034   3.378 -0.1067  0.1853  0.1141
18171SOL     OW55728   7.192   7.858   2.250 -0.0644 -0.1256 -0.1989
18171SOL    HW155729   7.122   7.804   2.212 -0.5772  0.1544  0.3215
18171SOL    HW255730   7.192   7.834   2.343  0.0507  0.3895 -0.0629
18172SOL     OW55731   6.137   0.167   4.115 -0.4077 -0.0964 -0.0223
18172SOL    HW155732   6.139   0.241   4.054 -0.2472  0.2282  0.3805
18172SOL    HW255733   6.063   0.114   4.085 -0.7006  0.3715 -0.1363
18173SOL     OW55734   6.074   0.087   2.457 -0.1570  0.4553  0.4432
18173SOL    HW155735   6.130   0.089   2.535 -0.3740  1.5475  0.5852
18173SOL    HW255736   6.100   0.008   2.410 -1.5795 -1.5380  2.7606
18174SOL     OW55737   6.401   8.314   2.023  0.6036 -0.6399  0.2020
18174SOL    HW155738   6.427   8.289   2.112 -0.0770 -0.2765  0.5052
18174SOL    HW255739   6.349   8.393   2.034  1.9368  0.4194 -0.6624
18175SOL     OW55740   6.833   8.366   3.061  0.1421  0.6829 -0.1729
18175SOL    HW155741   6.892   8.414   3.119  1.0691  0.4137 -0.8738
18175SOL    HW255742   6.745   8.385   3.095  0.5670  1.8098  0.3376
18176SOL     OW55743   5.433   8.596   2.097  0.0173 -0.6553 -0.2454
18176SOL    HW155744   5.481   8.624   2.175  1.3637 -0.8698 -0.9702
18176SOL    HW255745   5.347   8.636   2.107  0.4467  0.0497  0.9157
18177SOL     OW55746   7.588   8.053   2.347 -0.3992  0.0912 -0.1761
18177SOL    HW155747   7.615   8.060   2.255 -0.5605  1.8851 -0.1248
18177SOL    HW255748   7.647   8.112   2.394 -1.7895  0.9848  0.5197
18178SOL     OW55749   7.422   8.626   2.417 -0.0741 -0.5099 -0.1911
18178SOL    HW155750   7.407   8.535   2.394 -0.1153 -0.2691 -1.1438
18178SOL    HW255751   7.511   8.645   2.387 -0.2821 -0.0689 -0.5397
18179SOL     OW55752   5.540   7.568   2.963 -0.1655  0.0407 -0.4603
18179SOL    HW155753   5.475   7.498   2.968 -0.7255  0.5258 -0.8411
18179SOL    HW255754   5.573   7.564   2.874  0.3123 -0.1800 -0.2794
18180SOL     OW55755   6.289   0.104   2.627 -0.1404  0.2917 -0.2868
18180SOL    HW155756   6.292   0.056   2.710  0.6406 -1.8806 -1.4611
18180SOL    HW255757   6.369   0.076   2.581 -0.8187  0.9893 -1.9697
18181SOL     OW55758   6.586   0.153   3.387 -0.0399 -0.6853 -0.6242
18181SOL    HW155759   6.652   0.115   3.445 -0.8417 -1.7874 -0.4041
18181SOL    HW255760   6.579   0.245   3.415  0.2280 -0.9724  0.4154
18182SOL     OW55761   6.472   7.632   2.113  0.3000 -0.1188 -0.2061
18182SOL    HW155762   6.523   7.606   2.190  0.2416 -0.2473 -0.2105
18182SOL    HW255763   6.534   7.630   2.041  0.4336  0.3279 -0.1059
18183SOL     OW55764   5.850   8.362   2.907 -0.4635 -0.2733  0.0393
18183SOL    HW155765   5.804   8.310   2.841 -1.0714  0.3332 -0.0339
18183SOL    HW255766   5.821   8.327   2.991  0.2022 -0.9544 -0.0057
18184SOL     OW55767   6.890   8.531   2.043 -0.6751  0.0189  0.4846
18184SOL    HW155768   6.846   8.526   1.957  0.7410 -0.0280 -0.2623
18184SOL    HW255769   6.862   8.616   2.078 -1.3704 -0.0122  0.0446
18185SOL     OW55770   5.810   7.581   3.233 -0.0240  0.8620  0.1567
18185SOL    HW155771   5.719   7.555   3.248 -0.1967  1.8749  0.9231
18185SOL    HW255772   5.853   7.499   3.207 -0.3295 -0.5227  3.4953
18186SOL     OW55773   6.832   0.096   2.515  0.4247 -0.1286  0.0814
18186SOL    HW155774   6.770   0.070   2.584  1.1164 -0.9089  0.4333
18186SOL    HW255775   6.860   0.013   2.477  0.7921  0.2529 -0.4857
18187SOL     OW55776   6.330   7.992   2.287  0.0770 -0.8870  0.3634
18187SOL    HW155777   6.280   7.919   2.251 -0.2275 -0.6116  0.2344
18187SOL    HW255778   6.269   8.065   2.290 -0.0399 -1.0212  1.8731
18188SOL     OW55779   6.871   7.784   3.002 -0.3985  0.8361 -0.0838
18188SOL    HW155780   6.915   7.818   2.924  0.2969  2.3942  0.9325
18188SOL    HW255781   6.837   7.699   2.975  1.1286  0.6535 -1.6259
18189SOL     OW55782   6.413   7.566   3.217  0.0171 -0.2278 -0.1548
18189SOL    HW155783   6.432   7.594   3.306  0.4817 -0.4624 -0.1823
18189SOL    HW255784   6.478   7.500   3.197 -1.8684 -2.3924  0.4096
18190SOL     OW55785   6.983   8.488   3.249  0.5329 -0.3436 -0.4572
18190SOL    HW155786   7.070   8.527   3.257 -0.0857  0.9241  0.4019
18190SOL    HW255787   6.967   8.447   3.333  0.9373 -2.0156 -1.1628
18191SOL     OW55788   6.289   7.947   3.379  0.6991 -0.3354 -0.1675
18191SOL    HW155789   6.214   7.931   3.436  0.4185 -0.1196 -0.4723
18191SOL    HW255790   6.260   8.018   3.321  0.8917 -0.7231 -0.7390
18192SOL     OW55791   6.456   7.964   1.839 -0.2234 -0.7210 -0.0568
18192SOL    HW155792   6.379   8.020   1.852  0.0945  0.0188 -1.1955
18192SOL    HW255793   6.431   7.880   1.877 -1.7181 -0.5828 -0.6564
18193SOL     OW55794   5.747   8.419   2.182  0.1850 -0.1360  0.1378
18193SOL    HW155795   5.749   8.357   2.255 -1.9051  0.2614  0.6094
18193SOL    HW255796   5.685   8.380   2.120 -0.3842  0.9613 -0.0070
18194SOL     OW55797   6.163   7.576   1.922 -0.3872 -0.1474 -0.0945
18194SOL    HW155798   6.154   7.633   1.998  2.0066 -0.3584  0.4258
18194SOL    HW255799   6.110   7.618   1.853 -2.6265  0.0305  1.6148
18195SOL     OW55800   6.904   8.061   3.163 -0.2256 -0.3057 -0.0672
18195SOL    HW155801   6.933   8.019   3.082  2.7536  0.9823  0.1666
18195SOL    HW255802   6.855   8.138   3.134 -1.3313 -1.1937 -0.5764
18196SOL     OW55803   7.340   8.362   2.415  0.4771 -0.3415  0.0136
18196SOL    HW155804   7.372   8.348   2.504 -1.1413  0.2691  0.7410
18196SOL    HW255805   7.332   8.274   2.377  0.9612 -0.6200  0.5579
18197SOL     OW55806   6.194   7.634   2.764 -0.1978 -0.3030 -0.7489
18197SOL    HW155807   6.116   7.616   2.818  0.3174 -0.6818 -0.1135
18197SOL    HW255808   6.193   7.567   2.697  0.1296 -0.9319 -0.1316
18198SOL     OW55809   7.302   8.615   2.641  0.3478 -0.0388  0.6918
18198SOL    HW155810   7.351   8.623   2.559  0.0224 -1.5784  0.3263
18198SOL    HW255811   7.294   8.705   2.673  1.4527  0.4649 -0.3887
18199SOL     OW55812   5.688   8.301   1.886 -0.3141  0.0870  0.5253
18199SOL    HW155813   5.779   8.322   1.869 -0.5027  1.4271  1.0872
18199SOL    HW255814   5.667   8.233   1.822  0.6992  0.6679 -0.4532
18200SOL     OW55815   7.425   8.083   2.734  0.3943 -0.4544 -0.0358
18200SOL    HW155816   7.448   8.042   2.651 -3.9819  0.5511 -2.0378
18200SOL    HW255817   7.419   8.177   2.714 -1.5688 -0.2753  1.1208
18201SOL     OW55818   5.874   8.748   3.287 -0.5744  0.2509 -0.6040
18201SOL    HW155819   5.864   8.660   3.252  0.6234 -0.4423  0.6973
18201SOL    HW255820   5.815   8.751   3.362  0.2284  0.1586  0.0369
18202SOL     OW55821   5.698   7.361   2.830  0.2961 -0.4886 -0.7238
18202SOL    HW155822   5.777   7.329   2.787  1.6314  1.2536  0.2962
18202SOL    HW255823   5.635   7.373   2.759  1.7057  0.2496 -1.8944
18203SOL     OW55824   7.064   0.123   1.588  0.4341  0.1537 -0.1879
18203SOL    HW155825   6.970   0.142   1.590  0.4058  0.2833 -1.6152
18203SOL    HW255826   7.072   0.039   1.633 -0.2845  0.4109  0.4544
18204SOL     OW55827   6.846   8.020   2.266 -0.0496  0.0634 -0.0039
18204SOL    HW155828   6.765   7.969   2.274  1.2219 -2.1175 -0.0678
18204SOL    HW255829   6.876   8.003   2.177  0.3707  1.0255 -0.0516
18205SOL     OW55830   5.376   8.239   2.272 -0.6064 -0.1587  0.1070
18205SOL    HW155831   5.414   8.259   2.186 -1.8152 -0.3598 -0.4945
18205SOL    HW255832   5.423   8.296   2.333  1.1953 -0.9639 -0.4673
18206SOL     OW55833   7.047   7.362   3.446  0.1284  0.0861  0.5959
18206SOL    HW155834   6.987   7.435   3.459  1.0931  0.9932  0.1521
18206SOL    HW255835   7.040   7.342   3.352  1.5794  1.2005  0.2120
18207SOL     OW55836   5.943   7.985   1.897  0.0881 -0.4576  0.0440
18207SOL    HW155837   5.883   7.934   1.951  0.1280 -0.8723 -0.2942
18207SOL    HW255838   5.980   7.921   1.836  1.4143 -0.3574  0.7118
18208SOL     OW55839   6.035   7.864   3.459 -0.6400 -0.4616  0.3670
18208SOL    HW155840   6.019   7.896   3.370 -0.1382 -1.5685 -0.1483
18208SOL    HW255841   5.971   7.794   3.472  0.6451 -1.7633  0.0304
18209SOL     OW55842   7.237   8.301   3.015 -0.3938  0.5917 -0.1424
18209SOL    HW155843   7.143   8.298   2.996 -0.1763  1.5645 -1.5299
18209SOL    HW255844   7.255   8.393   3.033  0.4500  0.5672 -0.8122
18210SOL     OW55845   6.647   7.850   2.754  0.4343  0.7296  0.4177
18210SOL    HW155846   6.564   7.862   2.707  0.5047  0.1240  0.1380
18210SOL    HW255847   6.703   7.920   2.721 -0.0354  1.2911  0.7825
18211SOL     OW55848   6.237   8.073   1.974  0.0270  0.1379 -0.6785
18211SOL    HW155849   6.284   8.156   1.983  2.4509 -1.0665 -1.4188
18211SOL    HW255850   6.151   8.098   1.941  0.6920  2.3517 -0.9242
18212SOL     OW55851   7.081   8.740   1.700 -0.2462  0.1597  0.2863
18212SOL    HW155852   7.141   8.695   1.760 -0.6608  0.2343  0.7664
18212SOL    HW255853   7.023   8.671   1.668  0.2971  0.0274 -0.4383
18213SOL     OW55854   5.904   7.359   1.847 -0.2554 -0.0343 -0.1322
18213SOL    HW155855   5.925   7.298   1.777  1.3112  0.5013 -0.1848
18213SOL    HW255856   5.980   7.418   1.851 -1.2005  1.1993  0.6670
18214SOL     OW55857   6.689   7.723   1.925 -0.0927  0.0126  0.2270
18214SOL    HW155858   6.733   7.802   1.892 -2.2265  0.5023 -1.6548
18214SOL    HW255859   6.701   7.658   1.857 -0.9544 -0.3127  0.3702
18215SOL     OW55860   6.837   8.305   2.803  0.1785  0.2034 -0.0060
18215SOL    HW155861   6.822   8.344   2.888 -0.5584 -0.8310  0.3661
18215SOL    HW255862   6.932   8.299   2.795  0.2738  1.0985  0.3566
18216SOL     OW55863   6.261   0.316   2.400  0.8251  0.2601 -0.1149
18216SOL    HW155864   6.196   0.246   2.396 -0.7847  1.7145 -0.6260
18216SOL    HW255865   6.325   0.286   2.464  0.5236 -1.9331 -0.7658
18217SOL     OW55866   6.274   8.295   2.586 -0.0016 -0.0035 -0.2726
18217SOL    HW155867   6.331   8.280   2.662 -0.0757  2.4250  0.3448
18217SOL    HW255868   6.267   8.390   2.580 -0.1319 -0.1120 -3.2592
18218SOL     OW55869   6.668   7.402   1.610 -0.0243 -0.0349  0.0773
18218SOL    HW155870   6.654   7.386   1.703  1.4799 -1.9135  0.0531
18218SOL    HW255871   6.688   7.316   1.574 -0.4489  0.6758 -1.9682
18219SOL     OW55872   5.874   7.834   3.200 -0.0630 -0.2176  0.5882
18219SOL    HW155873   5.846   7.883   3.278  0.8425  0.0506  0.7590
18219SOL    HW255874   5.825   7.752   3.204 -3.2386  1.4655 -0.8267
18220SOL     OW55875   6.209   7.344   3.335 -0.3490  0.3041  0.5098
18220SOL    HW155876   6.154   7.314   3.406 -0.7489 -0.9342 -0.2868
18220SOL    HW255877   6.177   7.432   3.314 -2.5656 -0.6435 -0.4141
18221SOL     OW55878   6.556   8.176   2.523 -0.2564  0.3399  0.9520
18221SOL    HW155879   6.464   8.155   2.504 -0.5921  1.3493  1.4056
18221SOL    HW255880   6.552   8.254   2.579  0.9033  0.9587  0.2114
18222SOL     OW55881   6.505   7.629   2.600  0.2658 -0.0862  0.4970
18222SOL    HW155882   6.555   7.586   2.669  2.3283  0.9716 -0.2546
18222SOL    HW255883   6.472   7.709   2.642 -0.2397 -0.4473  0.8029
18223SOL     OW55884   7.011   8.709   2.906 -0.1257 -0.0155 -0.4443
18223SOL    HW155885   6.953   8.754   2.967  0.2992 -0.1820  0.0951
18223SOL    HW255886   6.954   8.648   2.859 -0.3175 -0.5649  0.4550
18224SOL     OW55887   7.028   8.025   2.890  0.8219  0.5754  0.2144
18224SOL    HW155888   7.100   7.984   2.842 -0.0710 -0.5222 -0.2216
18224SOL    HW255889   6.977   8.069   2.822 -0.7152 -1.3809  0.0059
18225SOL     OW55890   7.450   7.990   1.848  0.6600 -0.1647 -0.1712
18225SOL    HW155891   7.471   7.902   1.878  0.4889  0.3639  1.5863
18225SOL    HW255892   7.406   8.031   1.922 -0.2569  1.0506 -1.3374
18226SOL     OW55893   7.644   8.433   2.363 -0.1293 -0.6335 -0.1272
18226SOL    HW155894   7.673   8.345   2.387 -0.3159 -0.5187  0.5670
18226SOL    HW255895   7.617   8.426   2.272  1.7370 -0.8200 -0.7105
18227SOL     OW55896   7.148   8.215   1.608  0.7456  0.3357  0.1743
18227SOL    HW155897   7.161   8.131   1.651 -1.9010 -0.0285  0.4253
18227SOL    HW255898   7.110   8.193   1.523  0.7870  1.2465 -0.0896
18228SOL     OW55899   6.130   7.839   2.111 -0.5420  0.5618 -0.2059
18228SOL    HW155900   6.058   7.882   2.157  0.5995  1.9734  0.3395
18228SOL    HW255901   6.173   7.909   2.063  0.4742 -0.2521 -0.5123
18229SOL     OW55902   7.226   8.830   2.775  0.1171  0.0602 -0.4939
18229SOL    HW155903   7.135   8.806   2.791 -0.3445  0.3768 -2.3884
18229SOL    HW255904   7.238   8.913   2.821 -0.5419  0.0035 -0.2099
18230SOL     OW55905   6.510   8.661   3.175 -0.1755 -0.1768 -0.7645
18230SOL    HW155906   6.470   8.737   3.131 -1.6008 -1.6904 -2.2157
18230SOL    HW255907   6.594   8.650   3.131  0.3448  0.9367 -0.0855
18231SOL     OW55908   6.688   8.810   2.696 -0.5173 -0.4101 -0.1395
18231SOL    HW155909   6.599   8.783   2.720 -0.4595  0.3672  0.9839
18231SOL    HW255910   6.742   8.734   2.718 -0.8544 -0.7612 -0.5119
18232SOL     OW55911   7.359   8.351   2.716  0.2575 -0.4701  0.5267
18232SOL    HW155912   7.386   8.371   2.806  1.4677 -1.0441  0.3069
18232SOL    HW255913   7.357   8.436   2.672  2.1066 -0.4228  0.4660
18233SOL     OW55914   6.505   7.643   2.877 -0.0105 -0.0618  0.2351
18233SOL    HW155915   6.566   7.718   2.878 -0.6086  0.4315  0.3925
18233SOL    HW255916   6.560   7.568   2.853  0.6424  0.3892  0.2767
18234SOL     OW55917   6.714   8.280   3.383 -0.0786  0.2707  0.2053
18234SOL    HW155918   6.778   8.211   3.402 -0.3163  0.3703  1.4287
18234SOL    HW255919   6.642   8.263   3.444 -0.0708  1.6991  0.6369
18235SOL     OW55920   6.327   8.486   2.241  0.0889  0.7017 -0.4662
18235SOL    HW155921   6.409   8.489   2.291  0.5795 -0.5285 -1.1455
18235SOL    HW255922   6.299   8.394   2.248 -0.0843  0.6088 -2.0206
18236SOL     OW55923   5.540   8.322   2.715 -0.0351 -0.6136 -0.0860
18236SOL    HW155924   5.531   8.233   2.682 -1.5150 -0.6316  0.2800
18236SOL    HW255925   5.491   8.322   2.798  0.6053  0.3347  0.3148
18237SOL     OW55926   6.400   7.840   3.100 -0.2257 -0.4735 -0.0020
18237SOL    HW155927   6.464   7.902   3.066 -0.6051 -0.3429 -0.5126
18237SOL    HW255928   6.401   7.852   3.194  1.4296 -1.3940  0.1282
18238SOL     OW55929   6.196   8.711   2.331  0.2284 -0.0878  0.1796
18238SOL    HW155930   6.244   8.645   2.281 -0.6901  1.3055 -2.7693
18238SOL    HW255931   6.104   8.686   2.320  0.0153 -0.2025  1.9584
18239SOL     OW55932   6.047   8.147   2.500 -0.1258  0.0620  0.0123
18239SOL    HW155933   6.031   8.062   2.541 -1.5298  0.5783  0.6296
18239SOL    HW255934   6.119   8.185   2.551  2.7545 -1.9594 -2.2285
18240SOL     OW55935   6.862   0.148   2.236 -0.1161 -0.6725 -0.5264
18240SOL    HW155936   6.842   0.156   2.329  2.1667 -1.4242  0.0914
18240SOL    HW255937   6.802   0.209   2.193 -1.6847 -0.8232  1.3491
18241SOL     OW55938   7.226   8.016   2.030  0.1775  0.2319  0.2536
18241SOL    HW155939   7.166   7.957   1.984  0.9487 -0.2677 -0.1218
18241SOL    HW255940   7.228   7.984   2.120 -0.1884  0.3110  0.2922
18242SOL     OW55941   5.865   8.482   3.225 -0.2548  0.2943  0.1440
18242SOL    HW155942   5.955   8.447   3.228 -0.0874  0.7728  0.8796
18242SOL    HW255943   5.811   8.406   3.202  0.3140 -0.0464 -0.0947
18243SOL     OW55944   7.007   8.644   3.603  0.2108 -0.1313  0.6670
18243SOL    HW155945   6.946   8.613   3.537 -0.3730  0.3561  0.9671
18243SOL    HW255946   7.063   8.569   3.622  0.6976 -0.1357 -0.7180
18244SOL     OW55947   6.584   7.339   3.211  0.2747 -0.3770  0.2330
18244SOL    HW155948   6.679   7.340   3.205  0.3475 -0.6432  1.1874
18244SOL    HW255949   6.560   7.246   3.207  0.2102 -0.4604  1.8518
18245SOL     OW55950   6.046   7.532   3.510 -0.0718 -0.8048  0.3462
18245SOL    HW155951   6.069   7.526   3.603 -0.6851 -2.3668  0.4316
18245SOL    HW255952   5.968   7.588   3.509  0.7238  0.3281  0.6099
18246SOL     OW55953   6.267   8.557   2.679 -0.6968 -0.2924 -0.0520
18246SOL    HW155954   6.328   8.590   2.613 -1.0082 -1.0472 -0.7411
18246SOL    HW255955   6.304   8.585   2.762  0.7575 -0.9930 -0.4249
18247SOL     OW55956   7.020   8.532   2.571 -0.8368 -0.6818 -0.1815
18247SOL    HW155957   7.020   8.445   2.531 -0.3254  0.0807 -1.9355
18247SOL    HW255958   7.113   8.557   2.574 -1.0627  0.2908 -0.8685
18248SOL     OW55959   6.714   7.989   1.787 -0.3286 -0.2535 -0.2304
18248SOL    HW155960   6.745   8.056   1.849  0.2789 -2.3462  1.8743
18248SOL    HW255961   6.620   7.981   1.805  0.0190 -1.5461  1.2243
18249SOL     OW55962   5.936   7.345   3.151  0.4796 -0.4317 -0.1547
18249SOL    HW155963   5.912   7.284   3.222 -0.0252  0.9789  0.9273
18249SOL    HW255964   6.018   7.309   3.116  0.2549 -1.6740  0.5230
18250SOL     OW55965   5.298   8.559   3.564  0.0057 -0.2306  0.3206
18250SOL    HW155966   5.326   8.633   3.510  0.0890 -0.3686  0.1736
18250SOL    HW255967   5.378   8.507   3.577 -0.1198 -0.4738  0.1388
18251SOL     OW55968   6.123   8.076   3.133  0.1271  0.5135  0.0218
18251SOL    HW155969   6.070   8.029   3.068 -0.3804 -0.6639  1.2598
18251SOL    HW255970   6.148   8.157   3.088 -1.5832  0.4933 -1.0882
18252SOL     OW55971   6.845   0.057   3.921  0.3849  0.2977  0.0156
18252SOL    HW155972   6.820   0.007   3.999 -1.6234  1.6334  0.3069
18252SOL    HW255973   6.764   0.066   3.871  1.6473 -0.6372 -2.3477
18253SOL     OW55974   6.034   7.916   2.674 -0.0559  0.4619 -0.0829
18253SOL    HW155975   5.953   7.865   2.669 -0.4023  1.1207 -2.4794
18253SOL    HW255976   6.102   7.858   2.640  0.1800  0.4844  0.3378
18254SOL     OW55977   7.200   7.662   1.932  0.1713 -0.2954 -0.3411
18254SOL    HW155978   7.108   7.647   1.909  0.0239  0.1702 -0.0785
18254SOL    HW255979   7.215   7.607   2.009  0.3522 -1.0053 -0.8745
18255SOL     OW55980   6.394   8.243   2.911 -0.0877 -0.3255 -0.0436
18255SOL    HW155981   6.300   8.246   2.926 -0.6152  0.0495 -2.9103
18255SOL    HW255982   6.421   8.156   2.941 -1.5136 -0.7865 -0.0358
18256SOL     OW55983   7.376   8.723   3.679  0.4065  0.1272 -0.0426
18256SOL    HW155984   7.424   8.657   3.729  0.1060 -0.0940 -0.0394
18256SOL    HW255985   7.374   8.800   3.736 -0.7123 -0.4103  0.6727
18257SOL     OW55986   6.270   8.448   3.511  0.4250 -0.8666  0.4145
18257SOL    HW155987   6.341   8.512   3.505 -0.0051 -0.4783 -0.9635
18257SOL    HW255988   6.231   8.448   3.424 -1.1617 -1.2032  1.0915
18258SOL     OW55989   6.953   7.601   1.844 -0.4730 -0.0297  0.6591
18258SOL    HW155990   6.900   7.543   1.899 -0.4321  0.3323  1.0854
18258SOL    HW255991   6.970   7.550   1.765 -1.9165  0.0422  0.2744
18259SOL     OW55992   6.906   8.295   1.654 -0.5212 -0.0971 -0.3579
18259SOL    HW155993   6.996   8.264   1.652 -0.4254  0.2066 -0.8796
18259SOL    HW255994   6.857   8.232   1.601 -0.3827  0.4505 -1.1521
18260SOL     OW55995   5.806   8.251   2.447  0.5818  0.3055 -0.2197
18260SOL    HW155996   5.886   8.205   2.471  0.5830  1.3397  1.9795
18260SOL    HW255997   5.741   8.181   2.438  1.1738 -0.3478  0.4266
18261SOL     OW55998   5.780   7.881   2.934  0.2174 -0.2522 -0.1472
18261SOL    HW155999   5.783   7.877   3.029 -0.0577 -0.5670 -0.1491
18261SOL    HW256000   5.692   7.853   2.911  0.2014  0.0604 -0.4858
18262SOL     OW56001   6.433   7.708   3.451  0.3190 -0.1412  0.5809
18262SOL    HW156002   6.402   7.645   3.516 -1.1357 -0.4262 -0.3421
18262SOL    HW256003   6.378   7.785   3.465  0.9028  0.2871  0.5430
18263SOL     OW56004   6.589   8.021   3.042  0.2595  0.2401  0.4477
18263SOL    HW156005   6.589   8.114   3.066  2.1044  0.4782 -0.3880
18263SOL    HW256006   6.673   8.007   2.999  0.2028 -1.9347  0.9580
18264SOL     OW56007   5.407   0.130   1.892 -0.2627 -0.2114 -0.2023
18264SOL    HW156008   5.474   0.163   1.832 -1.7190  1.2955 -1.1088
18264SOL    HW256009   5.455   0.103   1.970  1.2722  3.0201  0.1525
18265SOL     OW56010   6.149   8.576   3.308 -0.0968 -0.1424 -0.0962
18265SOL    HW156011   6.239   8.563   3.279  0.7335  0.2964  2.0804
18265SOL    HW256012   6.132   8.670   3.294 -0.2382 -0.2334 -0.5432
18266SOL     OW56013   5.479   7.936   2.937  0.0152  0.0300  0.5921
18266SOL    HW156014   5.421   7.865   2.964 -1.2043  1.0173  0.7312
18266SOL    HW256015   5.446   8.012   2.986  0.2768  1.0093 -0.7079
18267SOL     OW56016   5.738   8.252   3.157  0.2328 -0.4313 -0.1997
18267SOL    HW156017   5.791   8.190   3.206  1.2235  1.4895  1.2914
18267SOL    HW256018   5.649   8.239   3.191  0.8140  0.4937  1.8060
18268SOL     OW56019   6.795   8.583   3.442 -0.2767  0.0904 -0.3929
18268SOL    HW156020   6.784   8.490   3.423 -0.6770  0.0421  0.0728
18268SOL    HW256021   6.786   8.626   3.357 -2.6995 -0.0685 -0.2678
18269SOL     OW56022   6.383   8.128   1.425 -0.2988 -0.9263 -0.4177
18269SOL    HW156023   6.319   8.196   1.444 -0.0248 -0.5520 -0.8066
18269SOL    HW256024   6.452   8.142   1.490  0.1976 -0.2341 -1.0724
18270SOL     OW56025   7.493   7.772   3.205 -0.2816  0.2284 -0.0838
18270SOL    HW156026   7.399   7.780   3.190 -0.4528 -1.1153  0.1284
18270SOL    HW256027   7.508   7.818   3.288 -0.8476 -0.0220  0.1620
18271SOL     OW56028   6.100   7.693   3.089  0.0826  0.3824 -0.3840
18271SOL    HW156029   6.043   7.739   3.151 -0.9138 -0.5132 -0.6167
18271SOL    HW256030   6.043   7.629   3.047  1.1732 -0.2491 -0.9305
18272SOL     OW56031   6.407   7.897   2.647 -0.1459 -0.0000 -0.2420
18272SOL    HW156032   6.377   7.917   2.736 -1.3225  0.5186 -0.7359
18272SOL    HW256033   6.328   7.873   2.600  0.2798  0.8293 -1.4399
18273SOL     OW56034   5.653   8.760   3.512 -0.0566  0.6112  0.1906
18273SOL    HW156035   5.593   8.832   3.491 -1.2166 -0.6468 -1.0219
18273SOL    HW256036   5.613   8.717   3.588 -0.4747  0.0512 -0.3340
18274SOL     OW56037   6.880   0.134   2.892  0.1132  0.0765 -0.1217
18274SOL    HW156038   6.813   0.085   2.845  0.2970 -0.8579  0.5726
18274SOL    HW256039   6.840   0.154   2.977  0.6395 -0.3078  0.2193
18275SOL     OW56040   6.729   8.630   1.832  0.6516  0.0108 -0.2282
18275SOL    HW156041   6.670   8.555   1.838  0.1522  0.4186  0.0410
18275SOL    HW256042   6.796   8.603   1.769  0.0120 -0.3485 -0.7720
18276SOL     OW56043   5.566   8.590   2.712 -0.0569  0.1927  0.1291
18276SOL    HW156044   5.486   8.615   2.760 -1.8762 -3.2546 -0.7677
18276SOL    HW256045   5.598   8.512   2.757  1.0894 -0.2114 -1.2987
18277SOL     OW56046   7.256   7.508   2.164  0.5097 -0.1478  0.2220
18277SOL    HW156047   7.256   7.491   2.258 -0.7362 -2.0678 -0.0751
18277SOL    HW256048   7.246   7.422   2.124 -1.9988  0.8664 -1.5877
18278SOL     OW56049   6.827   8.343   2.248  0.1631  0.2780  0.0665
18278SOL    HW156050   6.862   8.372   2.163 -0.2340  0.0715 -0.1723
18278SOL    HW256051   6.811   8.250   2.236 -2.3279  0.7197 -0.4972
18279SOL     OW56052   5.627   8.588   3.021  0.2128  0.2022  0.8990
18279SOL    HW156053   5.569   8.521   2.984  0.2701  0.8873 -0.4850
18279SOL    HW256054   5.695   8.538   3.066  0.1440 -0.6600  0.0702
18280SOL     OW56055   7.293   8.089   2.378 -0.3808  0.2232 -0.4682
18280SOL    HW156056   7.388   8.084   2.375 -0.2931  1.6820 -0.7018
18280SOL    HW256057   7.264   8.009   2.334  0.7056 -0.7255  0.4715
18281SOL     OW56058   5.843   7.713   2.668 -0.5937  0.7037 -0.5012
18281SOL    HW156059   5.842   7.637   2.610 -1.7130  1.4016 -1.4399
18281SOL    HW256060   5.751   7.731   2.686 -0.2604 -0.2650  2.5855
18282SOL     OW56061   6.349   8.454   3.180  0.3268  0.6127 -0.9329
18282SOL    HW156062   6.299   8.466   3.099 -0.9960  0.3925 -0.1888
18282SOL    HW256063   6.426   8.510   3.170  0.2000  0.5591 -2.3477
18283SOL     OW56064   6.511   8.201   2.248  0.2258 -0.0717 -0.0550
18283SOL    HW156065   6.475   8.113   2.234  0.1384  0.0239 -0.4349
18283SOL    HW256066   6.562   8.193   2.329  0.7774 -0.6372 -0.4532
18284SOL     OW56067   5.329   8.784   3.394 -0.6788 -0.3337 -0.4157
18284SOL    HW156068   5.258   8.844   3.373  0.6876  1.2480 -0.7114
18284SOL    HW256069   5.397   8.840   3.432  0.8634 -1.6058 -1.1927
18285SOL     OW56070   7.246   8.569   2.989  0.1178  0.2473  0.4688
18285SOL    HW156071   7.318   8.628   2.966 -0.2395  0.4520 -0.1269
18285SOL    HW256072   7.167   8.617   2.968 -0.1746 -0.7594 -0.8655
18286SOL     OW56073   6.828   8.601   2.754  0.0298 -0.0147 -0.1863
18286SOL    HW156074   6.817   8.532   2.818  3.3244  1.2632  2.0451
18286SOL    HW256075   6.886   8.564   2.688  0.0809 -0.0355 -0.1298
18287SOL     OW56076   7.094   8.286   2.723  0.1705  0.3572 -0.2153
18287SOL    HW156077   7.188   8.302   2.718  0.7610 -2.3999  0.3603
18287SOL    HW256078   7.071   8.247   2.639 -0.3621  0.6303 -0.2014
18288SOL     OW56079   7.201   7.689   3.142  0.1170 -0.1417  0.5764
18288SOL    HW156080   7.167   7.779   3.142 -0.3514 -0.2139 -2.8342
18288SOL    HW256081   7.124   7.634   3.134  0.5082 -0.7959  1.2022
18289SOL     OW56082   5.522   8.356   3.539 -0.8830  0.2224 -0.2902
18289SOL    HW156083   5.526   8.402   3.455 -0.0016 -1.6067 -1.2969
18289SOL    HW256084   5.611   8.323   3.553 -1.3179 -0.5598  0.7600
18290SOL     OW56085   6.553   7.061   3.207 -0.1584 -0.3329 -0.4312
18290SOL    HW156086   6.618   7.003   3.166 -0.9684 -1.9294  0.4499
18290SOL    HW256087   6.527   7.015   3.287 -0.8988  1.2411  0.2669
18291SOL     OW56088   5.956   7.948   2.281 -0.4629  0.7362  0.5208
18291SOL    HW156089   5.908   8.026   2.252 -3.8282 -1.0921  0.6725
18291SOL    HW256090   5.888   7.888   2.312  1.8532 -2.5307 -0.1628
18292SOL     OW56091   6.801   8.754   3.120 -0.0646  0.6994 -0.1408
18292SOL    HW156092   6.765   8.841   3.106  1.0491  1.3018  0.6146
18292SOL    HW256093   6.886   8.769   3.161 -0.1690 -0.7602  0.6832
18293SOL     OW56094   5.535   7.576   2.396 -0.0298 -0.6335  0.4190
18293SOL    HW156095   5.547   7.504   2.335 -1.8580  0.0438 -0.8206
18293SOL    HW256096   5.542   7.535   2.483  0.6141 -1.9694 -0.2362
18294SOL     OW56097   6.138   8.299   2.908  0.4186  0.1472  0.5399
18294SOL    HW156098   6.129   8.381   2.859 -0.0085 -0.4717 -0.4416
18294SOL    HW256099   6.079   8.238   2.864  1.9995 -1.1948  0.1835
18295SOL     OW56100   6.500   7.835   3.825 -0.7095 -0.0282 -0.2035
18295SOL    HW156101   6.454   7.769   3.876 -0.3054 -0.1504  0.0116
18295SOL    HW256102   6.543   7.891   3.891  0.3931 -0.6044 -0.4038
18296SOL     OW56103   6.059   8.473   3.983  0.6774  0.4535  0.1830
18296SOL    HW156104   6.016   8.495   3.901  0.4266 -1.6852 -0.2958
18296SOL    HW256105   6.001   8.508   4.051  0.2248  1.0882 -0.5156
18297SOL     OW56106   6.584   8.294   3.147 -0.2205  0.1939 -0.4350
18297SOL    HW156107   6.495   8.327   3.160  0.0639  1.0925 -0.7383
18297SOL    HW256108   6.625   8.303   3.233 -0.3844 -0.1239 -0.3207
18298SOL     OW56109   6.594   7.899   2.215  0.0553 -0.4897  0.3702
18298SOL    HW156110   6.603   7.860   2.128 -0.4883 -1.2784  0.6535
18298SOL    HW256111   6.500   7.896   2.233  0.0172  0.8295  0.4705
18299SOL     OW56112   6.569   8.378   2.726 -0.0303 -0.5474 -0.5313
18299SOL    HW156113   6.526   8.344   2.804  1.7607  1.4745  1.4699
18299SOL    HW256114   6.662   8.358   2.738  0.3847  0.4196 -1.7893
18300SOL     OW56115   6.663   7.708   3.291 -0.1803 -0.4388  0.9660
18300SOL    HW156116   6.646   7.780   3.231  1.6242  0.8576  1.9436
18300SOL    HW256117   6.580   7.696   3.337 -0.9534 -0.0431 -0.2708
18301SOL     OW56118   7.262   8.635   3.329 -0.4926  0.7646  0.2641
18301SOL    HW156119   7.249   8.720   3.372 -1.8445  1.5713 -1.6024
18301SOL    HW256120   7.299   8.656   3.244 -1.9450 -0.3980 -0.7006
18302SOL     OW56121   6.536   0.003   1.835  0.4865 -0.2325  0.3014
18302SOL    HW156122   6.571   0.023   1.748 -1.2200 -1.8031 -0.8127
18302SOL    HW256123   6.560  -0.089   1.850 -1.6205 -0.8429  0.2181
18303SOL     OW56124   6.272   7.989   2.858  0.4038 -0.5144  0.2935
18303SOL    HW156125   6.263   7.996   2.953  0.5907  3.5132  0.1908
18303SOL    HW256126   6.182   7.994   2.825  0.3897 -1.2513  0.1913
18304SOL     OW56127   6.884   8.561   1.618 -0.0282  0.3390 -0.2512
18304SOL    HW156128   6.860   8.581   1.527 -0.9281  1.3141  0.1851
18304SOL    HW256129   6.890   8.465   1.620  1.8351  0.3507 -1.7729
18305SOL     OW56130   5.547   8.751   3.766  0.1629  0.4954  0.4998
18305SOL    HW156131   5.496   8.824   3.800 -0.8666 -0.6487  1.5462
18305SOL    HW256132   5.485   8.677   3.766  1.1845 -0.3933 -0.4236
18306SOL     OW56133   5.917   8.635   2.320  0.1186 -0.7021  0.5309
18306SOL    HW156134   5.873   8.600   2.398 -0.3970 -0.7810  0.2042
18306SOL    HW256135   5.899   8.572   2.251 -0.6111  0.0703 -0.0032
18307SOL     OW56136   5.831   0.091   3.688  0.7342  0.0371  0.7414
18307SOL    HW156137   5.795   0.049   3.611  1.5081 -0.2792  0.5474
18307SOL    HW256138   5.819   0.028   3.759  2.3490 -0.7518  0.3508
18308SOL     OW56139   7.238   7.879   2.792  0.5637 -0.2658  0.1069
18308SOL    HW156140   7.320   7.928   2.784  1.5281 -1.9584 -0.8971
18308SOL    HW256141   7.265   7.790   2.812 -1.0963 -0.6835  0.6322
18309SOL     OW56142   5.583   8.052   2.385 -0.2236 -0.2780 -0.9629
18309SOL    HW156143   5.533   8.092   2.313 -0.4382 -0.4656 -0.9204
18309SOL    HW256144   5.517   8.007   2.438 -0.3674  1.4922  0.4730
18310SOL     OW56145   6.923   8.711   2.404 -0.2597 -0.4870 -0.2658
18310SOL    HW156146   6.858   8.655   2.362 -0.5593 -1.2706  1.1665
18310SOL    HW256147   6.959   8.658   2.475 -0.4220  1.0434  1.0364
18311SOL     OW56148   5.962   8.080   2.876 -0.1614 -0.9828  0.6273
18311SOL    HW156149   5.885   8.039   2.916 -1.1766 -0.0100 -0.2567
18311SOL    HW256150   5.976   8.031   2.795 -1.5023  0.4302 -0.5359
18312SOL     OW56151   6.963   7.388   2.777 -0.2047 -0.7404 -0.3560
18312SOL    HW156152   7.034   7.443   2.811 -1.5515  0.4970  0.6068
18312SOL    HW256153   7.003   7.303   2.763  1.7519  0.2338 -1.0243
18313SOL     OW56154   6.641   7.172   2.940 -0.3749  0.4227 -0.4647
18313SOL    HW156155   6.710   7.233   2.962 -0.8866  0.8206  0.0797
18313SOL    HW256156   6.651   7.100   3.003 -1.2179  1.0827  0.4616
18314SOL     OW56157   6.243   8.814   1.920 -0.1432  0.3574 -0.7952
18314SOL    HW156158   6.204   8.732   1.950  0.8968  0.6442  1.5677
18314SOL    HW256159   6.336   8.793   1.906  0.3826  1.2867  0.9128
18315SOL     OW56160   6.974   7.870   2.018 -0.2685  0.2384  0.1181
18315SOL    HW156161   6.945   7.794   2.069 -0.0861 -0.1338 -0.3174
18315SOL    HW256162   7.027   7.832   1.948  0.1120  0.7996  0.0935
18316SOL     OW56163   6.767   8.075   2.640  0.4512  0.1015  0.4198
18316SOL    HW156164   6.795   8.148   2.696 -0.3291  0.4581  0.3669
18316SOL    HW256165   6.692   8.110   2.592  0.6129 -0.4635 -0.2577
18317SOL     OW56166   7.127   7.758   2.557  0.2185 -0.2638 -0.6259
18317SOL    HW156167   7.138   7.809   2.638 -0.2316 -2.4023  0.8761
18317SOL    HW256168   7.041   7.785   2.524 -1.4834 -2.1954  1.8850
18318SOL     OW56169   5.159   8.686   2.090  0.1064  0.7237 -0.5176
18318SOL    HW156170   5.141   8.609   2.144  0.6623 -0.4980 -2.0043
18318SOL    HW256171   5.140   8.761   2.147 -0.7514 -0.5051  0.8653
18319SOL     OW56172   5.761   8.242   3.652  0.0851 -0.3431 -0.3804
18319SOL    HW156173   5.781   8.150   3.667 -1.9667 -0.7292  0.2965
18319SOL    HW256174   5.748   8.278   3.740 -0.5590  0.2329 -0.6999
18320SOL     OW56175   5.274   7.751   4.472 -0.0799  0.2779  0.1775
18320SOL    HW156176   5.258   7.843   4.495  1.0984  1.2202 -2.4797
18320SOL    HW256177   5.192   7.722   4.433  0.6641  1.4381 -2.4407
18321SOL     OW56178   5.798   8.046   4.139 -0.1889 -0.1615 -0.7096
18321SOL    HW156179   5.875   8.103   4.136  0.0975 -0.2890  2.0599
18321SOL    HW256180   5.725   8.104   4.157 -0.2345 -0.4124 -0.0753
18322SOL     OW56181   5.714   8.747   5.129  0.0636 -0.0153 -0.2087
18322SOL    HW156182   5.723   8.770   5.222  0.6907 -0.3476 -0.1823
18322SOL    HW256183   5.772   8.807   5.083  2.0386 -1.7239 -0.1008
18323SOL     OW56184   6.739   0.609   4.200  0.0932 -0.0666 -0.3522
18323SOL    HW156185   6.768   0.693   4.164 -1.0119 -0.5598 -2.5501
18323SOL    HW256186   6.819   0.560   4.217  0.6886  0.5564 -1.3192
18324SOL     OW56187   6.363   8.188   4.446 -0.2225 -0.4098 -0.0101
18324SOL    HW156188   6.442   8.172   4.394  0.4626 -1.0737  1.2070
18324SOL    HW256189   6.354   8.283   4.448 -0.1154 -0.3589 -1.1016
18325SOL     OW56190   7.189   8.375   4.038  0.2672 -0.4251 -0.3290
18325SOL    HW156191   7.183   8.470   4.024 -0.9597 -0.2166  1.2987
18325SOL    HW256192   7.283   8.357   4.036  0.4624  0.5221 -2.2867
18326SOL     OW56193   5.882   8.263   4.861  0.0935 -0.0400 -0.2760
18326SOL    HW156194   5.912   8.335   4.807  0.3473 -0.0905 -0.2048
18326SOL    HW256195   5.943   8.191   4.843 -0.7803 -0.5830 -1.1395
18327SOL     OW56196   6.655   8.267   5.890 -0.4021 -0.2572 -0.4033
18327SOL    HW156197   6.578   8.210   5.896 -0.6493  0.1807  1.0154
18327SOL    HW256198   6.618   8.355   5.879 -0.0518 -0.1998 -1.2071
18328SOL     OW56199   6.878   8.453   3.839  0.1851  0.2974  0.3463
18328SOL    HW156200   6.800   8.424   3.792  1.3036  0.4044 -1.6783
18328SOL    HW256201   6.951   8.417   3.790  1.5197  3.0269  0.1184
18329SOL     OW56202   6.325   8.302   6.151  0.1342  0.1088  0.1303
18329SOL    HW156203   6.358   8.284   6.063  1.3089  0.7842  0.4077
18329SOL    HW256204   6.343   8.395   6.165  1.4474 -0.3285  1.6759
18330SOL     OW56205   5.640   8.517   4.995  0.1308 -0.5298 -0.1541
18330SOL    HW156206   5.653   8.594   5.050 -1.1536 -0.8091  0.5773
18330SOL    HW256207   5.571   8.542   4.934 -0.8737 -1.3335  0.6135
18331SOL     OW56208   6.260   7.602   5.223 -0.2547  0.5945 -0.4626
18331SOL    HW156209   6.282   7.513   5.249 -1.2173  1.2833  3.2301
18331SOL    HW256210   6.340   7.652   5.238  0.4807  0.3696 -3.1215
18332SOL     OW56211   7.208   8.041   4.442 -0.4323 -0.1170 -0.1276
18332SOL    HW156212   7.273   8.105   4.414  0.7960 -1.0347  0.5597
18332SOL    HW256213   7.127   8.070   4.400  0.3073  1.2964 -0.6471
18333SOL     OW56214   6.717   0.086   5.940 -0.1477 -0.0167 -0.0308
18333SOL    HW156215   6.755   0.013   5.989  1.7495 -0.7696 -2.4148
18333SOL    HW256216   6.702   0.154   6.005  0.5850 -1.5620  1.8464
18334SOL     OW56217   5.997   8.308   4.388 -0.3192 -0.2057 -0.2481
18334SOL    HW156218   6.044   8.391   4.382 -0.6375 -0.0868 -1.3043
18334SOL    HW256219   6.052   8.245   4.342 -1.0778 -0.0939 -1.3709
18335SOL     OW56220   6.010   8.542   3.719 -0.2413 -0.3260  0.4813
18335SOL    HW156221   5.948   8.532   3.646 -0.1471 -0.3806  0.4093
18335SOL    HW256222   6.096   8.529   3.680 -0.1990 -0.4943  0.6288
18336SOL     OW56223   7.021   7.259   5.106  0.1366 -0.2950  0.5012
18336SOL    HW156224   6.965   7.309   5.046 -1.4162 -1.6815  0.7186
18336SOL    HW256225   6.963   7.237   5.179  1.9125  1.1983  2.5118
18337SOL     OW56226   5.490   8.696   4.483 -0.2431 -0.5048 -0.3512
18337SOL    HW156227   5.514   8.622   4.539  0.7903 -1.3379 -1.8212
18337SOL    HW256228   5.432   8.658   4.417 -0.2388  0.1295 -0.7271
18338SOL     OW56229   6.830   8.125   4.300 -0.3830 -0.2654 -0.3307
18338SOL    HW156230   6.865   8.042   4.331 -0.4741  0.4108  1.7753
18338SOL    HW256231   6.907   8.174   4.269  0.2628  0.1896  1.7832
18339SOL     OW56232   7.071   8.263   4.246 -0.6105 -0.2027  0.0704
18339SOL    HW156233   7.088   8.331   4.311 -0.5498 -0.4620  0.3317
18339SOL    HW256234   7.119   8.291   4.168  2.3189 -1.6302  1.2241
18340SOL     OW56235   5.496   7.755   5.112  0.4940  0.1378 -0.0146
18340SOL    HW156236   5.450   7.707   5.181 -0.6822 -0.7383 -1.3628
18340SOL    HW256237   5.452   7.729   5.031  2.5636  0.2656 -1.2335
18341SOL     OW56238   6.200   8.570   4.991  0.1072  0.2551 -0.0258
18341SOL    HW156239   6.201   8.632   5.064 -2.4661  0.9466 -0.4629
18341SOL    HW256240   6.187   8.624   4.914  3.3319 -0.4085 -1.2014
18342SOL     OW56241   6.774   8.582   5.331  0.1494  0.1280  0.1290
18342SOL    HW156242   6.768   8.594   5.426 -1.4737  0.9354 -0.0415
18342SOL    HW256243   6.753   8.668   5.295  2.0855  0.1853 -0.9665
18343SOL     OW56244   6.353   7.522   4.183 -0.2631 -0.0032 -0.1275
18343SOL    HW156245   6.353   7.614   4.209  0.5480 -0.1716  0.5112
18343SOL    HW256246   6.377   7.524   4.090 -0.5062  0.4405 -0.1855
18344SOL     OW56247   5.452   8.081   4.929 -0.0177  0.1269  0.2096
18344SOL    HW156248   5.413   8.168   4.937  0.2722  0.3648 -0.7865
18344SOL    HW256249   5.381   8.025   4.899  0.1466  0.3395 -0.5902
18345SOL     OW56250   7.114   8.306   3.764  0.2706  0.9267  0.2681
18345SOL    HW156251   7.199   8.275   3.734  1.1526  3.0544  0.3369
18345SOL    HW256252   7.131   8.345   3.850 -0.9775  0.4906  0.7387
18346SOL     OW56253   5.844   7.621   5.892  0.2289 -0.1592 -0.1957
18346SOL    HW156254   5.788   7.614   5.969 -1.9277 -1.2272 -1.7643
18346SOL    HW256255   5.788   7.659   5.824  1.8955  0.2727 -1.3947
18347SOL     OW56256   6.757   8.668   4.540 -0.1748  0.2853 -0.1752
18347SOL    HW156257   6.833   8.612   4.525 -0.5487  0.0975 -1.4773
18347SOL    HW256258   6.733   8.652   4.631 -0.0736 -1.4477 -0.4166
18348SOL     OW56259   6.238   8.039   4.050 -0.5251 -0.1759 -0.4754
18348SOL    HW156260   6.238   8.134   4.035 -0.5677 -0.2759 -1.1283
18348SOL    HW256261   6.204   8.002   3.969  1.2511 -0.8523 -0.9614
18349SOL     OW56262   6.723   7.880   4.577  0.0311 -0.7406 -0.6239
18349SOL    HW156263   6.636   7.839   4.573 -0.4510  0.1397  0.3871
18349SOL    HW256264   6.709   7.961   4.626  0.8887  0.8495 -2.8420
18350SOL     OW56265   5.966   7.903   5.013 -0.4250  0.5086  0.6755
18350SOL    HW156266   5.872   7.898   5.029 -0.7450  0.3663 -1.0549
18350SOL    HW256267   5.973   7.947   4.928  1.0335 -0.1868  0.4133
18351SOL     OW56268   7.008   7.710   5.509  0.1106 -0.4349 -0.1881
18351SOL    HW156269   7.046   7.641   5.564  0.5557 -0.7433 -0.8747
18351SOL    HW256270   6.978   7.664   5.431  2.4814  0.3998 -1.7082
18352SOL     OW56271   6.108   8.229   5.862 -0.5893  0.4087  0.3792
18352SOL    HW156272   6.096   8.324   5.860 -0.2818  0.4580  0.8360
18352SOL    HW256273   6.088   8.201   5.773  0.4203  1.0276 -0.0531
18353SOL     OW56274   6.431   7.996   4.600  0.3640  0.0352  0.0888
18353SOL    HW156275   6.385   8.067   4.556  0.0561 -0.0615  0.2487
18353SOL    HW256276   6.431   8.021   4.693 -1.0256 -0.8453  0.3624
18354SOL     OW56277   6.557   8.179   4.245  0.3460 -0.2410 -0.1209
18354SOL    HW156278   6.552   8.162   4.151 -0.3112 -0.2303 -0.0977
18354SOL    HW256279   6.634   8.130   4.274  0.3330 -0.5612 -0.6015
18355SOL     OW56280   5.648   8.227   4.714  0.2313  0.1477 -0.1827
18355SOL    HW156281   5.637   8.134   4.694 -2.3561  0.2760  0.2000
18355SOL    HW256282   5.724   8.231   4.771  0.4162 -1.7419 -0.2408
18356SOL     OW56283   6.342   7.462   3.573  0.3315  0.6202  0.3203
18356SOL    HW156284   6.371   7.372   3.558  2.4628  1.2223  0.5193
18356SOL    HW256285   6.252   7.464   3.541 -0.8313 -2.3183  2.8967
18357SOL     OW56286   7.520   8.170   5.583 -0.2099 -0.2301 -0.5153
18357SOL    HW156287   7.568   8.090   5.606  1.4648  0.5223 -1.2365
18357SOL    HW256288   7.529   8.227   5.659  0.3431  0.0242 -0.7611
18358SOL     OW56289   6.942   8.456   4.566 -0.2020 -0.4665  0.0685
18358SOL    HW156290   7.010   8.466   4.500 -0.5944 -1.7381 -0.5564
18358SOL    HW256291   6.980   8.399   4.632 -0.3637 -0.4754  0.1552
18359SOL     OW56292   6.149   7.679   4.441  0.1150 -0.1090  0.0811
18359SOL    HW156293   6.218   7.628   4.483 -0.1514 -0.6492 -0.1261
18359SOL    HW256294   6.190   7.713   4.361  0.9483  1.8140  1.2731
18360SOL     OW56295   7.193   8.490   4.370  0.6551 -0.1628  0.1617
18360SOL    HW156296   7.210   8.550   4.298  0.6798 -0.4459 -0.0683
18360SOL    HW256297   7.242   8.526   4.444  1.1410 -0.2267 -0.1310
18361SOL     OW56298   5.832   8.472   3.501  0.7319  0.1586 -0.6436
18361SOL    HW156299   5.831   8.380   3.527  0.1402  0.4256  0.3509
18361SOL    HW256300   5.834   8.470   3.405  1.0779 -0.8815 -0.6282
18362SOL     OW56301   6.759   8.262   4.553  0.1833  0.1019 -0.1561
18362SOL    HW156302   6.787   8.353   4.562 -1.5650  0.6129  0.5554
18362SOL    HW256303   6.747   8.250   4.458  1.0919  0.3729 -0.3158
18363SOL     OW56304   5.726   8.633   5.691 -0.3262 -0.4220  0.1430
18363SOL    HW156305   5.772   8.689   5.753 -0.2022 -0.8717  0.4572
18363SOL    HW256306   5.764   8.546   5.704 -1.1110 -0.7531  0.2602
18364SOL     OW56307   5.731   7.636   5.440  0.0640 -0.1583  0.2297
18364SOL    HW156308   5.821   7.605   5.441 -0.0080 -0.3701  0.3571
18364SOL    HW256309   5.680   7.560   5.409  0.0563  0.3043 -0.9667
18365SOL     OW56310   6.960   0.471   4.230 -0.7157  0.7816 -0.4094
18365SOL    HW156311   6.936   0.422   4.151  0.3439 -0.8957  0.2394
18365SOL    HW256312   7.054   0.453   4.241 -0.9670  0.4283  1.5644
18366SOL     OW56313   6.957   7.446   4.047 -0.2566  0.4425  0.5309
18366SOL    HW156314   6.952   7.436   3.952  1.2184  0.1965  0.4559
18366SOL    HW256315   6.879   7.401   4.080 -0.2799 -0.3220 -0.5128
18367SOL     OW56316   5.938   8.211   3.966 -0.7179  0.1532  0.1733
18367SOL    HW156317   5.859   8.265   3.959 -0.9060 -0.2567 -1.1171
18367SOL    HW256318   6.008   8.273   3.989 -1.3182  0.5924  0.8435
18368SOL     OW56319   7.461   7.513   5.177  0.3341  0.1685  0.1491
18368SOL    HW156320   7.508   7.563   5.244  0.4403  1.0519 -0.5626
18368SOL    HW256321   7.525   7.449   5.146  2.0152  2.8978 -2.5182
18369SOL     OW56322   6.443   7.497   3.911 -0.4279 -0.2755  0.2474
18369SOL    HW156323   6.530   7.460   3.926  0.4398  1.4554 -0.1642
18369SOL    HW256324   6.423   7.474   3.820  0.8740  1.5680 -0.5912
18370SOL     OW56325   6.167   7.731   5.465 -0.1379 -0.5809  0.0293
18370SOL    HW156326   6.101   7.791   5.430  0.7422 -0.3611 -1.3192
18370SOL    HW256327   6.238   7.788   5.496 -0.3865 -0.8318  1.0922
18371SOL     OW56328   6.813   7.814   5.134 -0.6612 -0.2071 -0.0824
18371SOL    HW156329   6.793   7.868   5.211 -1.0876 -1.6320  0.8457
18371SOL    HW256330   6.770   7.859   5.061 -0.7612  0.8482  0.6096
18372SOL     OW56331   6.146   8.101   4.317 -0.4460  0.3889 -0.0605
18372SOL    HW156332   6.184   8.070   4.235  0.3040 -1.3777  0.8996
18372SOL    HW256333   6.220   8.133   4.368 -0.4534 -1.2494  1.0485
18373SOL     OW56334   5.873   7.509   4.086 -0.1168  0.1777 -0.4643
18373SOL    HW156335   5.840   7.567   4.154 -1.8350 -1.6704  0.3618
18373SOL    HW256336   5.955   7.474   4.122 -0.1460  0.4950 -0.0827
18374SOL     OW56337   6.692   0.072   4.175  0.6774 -0.3836  0.3718
18374SOL    HW156338   6.692   0.166   4.153  2.4205 -0.8609 -2.0674
18374SOL    HW256339   6.599   0.049   4.177  0.2286  0.7343 -2.5078
18375SOL     OW56340   6.135   7.265   3.985  0.3379  0.0808 -0.0962
18375SOL    HW156341   6.134   7.310   4.070  0.2386  0.3276 -0.2296
18375SOL    HW256342   6.073   7.193   3.996  0.0448  0.3350 -0.0793
18376SOL     OW56343   6.551   7.786   4.333 -0.3437  0.3702  0.6344
18376SOL    HW156344   6.587   7.831   4.257 -1.4094 -1.6492 -1.1550
18376SOL    HW256345   6.491   7.850   4.372 -1.3022  0.8057 -1.4157
18377SOL     OW56346   6.909   8.110   5.562 -0.3833  0.2598 -0.2265
18377SOL    HW156347   6.932   8.202   5.577 -1.8927  0.5948  0.1462
18377SOL    HW256348   6.913   8.070   5.649 -0.9202  0.2688 -0.1927
18378SOL     OW56349   6.585   0.027   4.540 -0.3301 -0.3995 -0.0874
18378SOL    HW156350   6.645   0.071   4.599  0.1644  0.7592 -1.3846
18378SOL    HW256351   6.627  -0.056   4.520 -0.8558 -1.1368  1.7177
18379SOL     OW56352   5.742   8.414   4.397 -0.0429  0.4220 -0.2866
18379SOL    HW156353   5.713   8.434   4.486  0.0833 -1.2707  0.1699
18379SOL    HW256354   5.819   8.358   4.408  0.6504  1.0886 -1.4740
18380SOL     OW56355   6.472   7.992   3.609 -0.3094  0.3239 -0.4648
18380SOL    HW156356   6.444   7.945   3.531  0.0978  0.1002 -0.4774
18380SOL    HW256357   6.467   7.927   3.679 -3.7916  1.2715  0.3901
18381SOL     OW56358   5.607   7.925   4.757 -0.4624 -0.0851 -0.6046
18381SOL    HW156359   5.553   7.970   4.821 -1.0483 -0.9265 -0.4854
18381SOL    HW256360   5.673   7.879   4.809 -0.0170  0.4172 -0.7104
18382SOL     OW56361   6.245   7.325   5.220  0.0214 -0.1502 -0.3191
18382SOL    HW156362   6.153   7.323   5.194  0.0716 -0.8777 -0.4601
18382SOL    HW256363   6.288   7.262   5.162  0.9008  1.2840 -1.3020
18383SOL     OW56364   6.258   7.778   4.189  0.0602 -0.3073 -1.1435
18383SOL    HW156365   6.163   7.773   4.190 -0.0490  0.4044 -3.1835
18383SOL    HW256366   6.277   7.858   4.140  1.7199 -0.1964 -0.3926
18384SOL     OW56367   6.128   7.257   4.452  0.2422 -0.0416  0.4671
18384SOL    HW156368   6.203   7.313   4.471  0.9526 -1.3069  1.5466
18384SOL    HW256369   6.166   7.172   4.428 -0.8224 -0.3630 -0.1688
18385SOL     OW56370   7.098   8.351   4.800  0.7775  0.4662  0.1812
18385SOL    HW156371   7.163   8.421   4.796 -0.5516  1.8690  1.9245
18385SOL    HW256372   7.022   8.390   4.843 -0.9969 -1.3178 -1.1233
18386SOL     OW56373   6.567   8.427   4.829 -0.2974  0.3417  0.6377
18386SOL    HW156374   6.495   8.469   4.783  0.5043 -0.7448 -1.7502
18386SOL    HW256375   6.544   8.334   4.830  1.2578 -0.1017 -0.6267
18387SOL     OW56376   7.208   8.656   4.004 -0.1779  0.8300 -0.3233
18387SOL    HW156377   7.174   8.716   3.938 -1.7250  0.4612  0.1147
18387SOL    HW256378   7.187   8.697   4.087 -1.1479 -0.2513 -0.0195
18388SOL     OW56379   7.139   8.785   4.234  0.5885  0.6321  0.0253
18388SOL    HW156380   7.205   8.851   4.252  0.5128  0.2477  1.9058
18388SOL    HW256381   7.060   8.818   4.276  0.9550 -1.3526  2.5244
18389SOL     OW56382   6.930   8.077   3.453 -0.1249  0.0926  0.3993
18389SOL    HW156383   6.941   8.002   3.510  1.2990  0.1126  0.1828
18389SOL    HW256384   6.924   8.040   3.365 -3.5236 -0.0439  0.5326
18390SOL     OW56385   5.805   7.972   3.692 -0.1896  0.0673  0.1644
18390SOL    HW156386   5.896   7.956   3.715  0.2232 -0.7899 -1.8398
18390SOL    HW256387   5.755   7.942   3.767  1.1295 -0.5992  0.7947
18391SOL     OW56388   6.453   0.062   5.469 -0.2647  0.3108  0.5377
18391SOL    HW156389   6.498   0.146   5.476  1.7146 -0.7529  1.2886
18391SOL    HW256390   6.490   0.022   5.390 -1.7653  0.4278 -0.2634
18392SOL     OW56391   6.625   8.400   5.152  0.0418  0.0520 -0.0881
18392SOL    HW156392   6.594   8.461   5.085  1.7284  0.3421 -0.6641
18392SOL    HW256393   6.678   8.454   5.211 -0.1412 -0.4837  0.5762
18393SOL     OW56394   6.845   8.435   4.887  0.0098 -0.0807  0.6502
18393SOL    HW156395   6.840   8.510   4.947 -1.1603  0.0419  0.4407
18393SOL    HW256396   6.756   8.427   4.852  0.1580 -1.4674  0.5350
18394SOL     OW56397   7.369   8.492   4.792 -0.4559 -0.0927 -0.3647
18394SOL    HW156398   7.356   8.578   4.752  2.4082  1.2817  1.3452
18394SOL    HW256399   7.411   8.510   4.876 -1.8667 -3.0974  1.1662
18395SOL     OW56400   6.492   7.652   4.981 -0.3787 -0.2152 -0.1978
18395SOL    HW156401   6.450   7.671   5.065  1.9001 -0.3691  1.0484
18395SOL    HW256402   6.567   7.711   4.978 -0.8585  0.3699 -2.5427
18396SOL     OW56403   6.277   8.544   5.795  0.3887  0.5679 -0.3140
18396SOL    HW156404   6.188   8.520   5.820  1.1257 -1.3996  0.7144
18396SOL    HW256405   6.278   8.539   5.700 -0.4702  0.0467 -0.3054
18397SOL     OW56406   6.529   8.553   4.231  0.0133  0.3979 -0.0521
18397SOL    HW156407   6.599   8.584   4.174 -0.0937 -0.9103 -0.9474
18397SOL    HW256408   6.533   8.457   4.224 -1.9977  0.2945 -0.2989
18398SOL     OW56409   5.723   8.323   5.174  0.3385  0.1354  0.6501
18398SOL    HW156410   5.727   8.372   5.092  2.9196 -2.5053 -1.0156
18398SOL    HW256411   5.632   8.332   5.203 -0.4122  2.0294 -1.9243
18399SOL     OW56412   6.369   8.034   4.859  0.0902 -0.0873  0.3847
18399SOL    HW156413   6.391   8.005   4.947  1.4689  1.9659  0.7802
18399SOL    HW256414   6.324   8.117   4.871 -1.3325 -0.6523 -0.7959
18400SOL     OW56415   5.799   8.707   3.881  0.1345 -0.3824  0.3505
18400SOL    HW156416   5.709   8.675   3.868  0.9546 -2.9896  0.4928
18400SOL    HW256417   5.848   8.670   3.808  1.7956 -2.3924  2.3132
18401SOL     OW56418   6.237   7.595   4.829 -0.3881  0.3543 -0.4340
18401SOL    HW156419   6.297   7.572   4.900  0.5720  1.1916 -0.9573
18401SOL    HW256420   6.170   7.649   4.871 -0.4135 -0.0292  0.0309
18402SOL     OW56421   6.315   8.724   4.275  0.2946 -0.5922  0.0621
18402SOL    HW156422   6.342   8.815   4.274  2.5781 -1.1565 -2.9246
18402SOL    HW256423   6.397   8.674   4.268 -0.9651 -2.8166  0.1623
18403SOL     OW56424   6.886   8.070   3.973  0.3690  0.3990  0.6996
18403SOL    HW156425   6.812   8.086   3.913 -0.0381 -0.7240  0.8811
18403SOL    HW256426   6.932   8.154   3.977 -0.4828  0.9165  0.0136
18404SOL     OW56427   5.697   7.949   5.083  0.1688 -0.4271 -0.0012
18404SOL    HW156428   5.636   7.875   5.073 -0.0004 -0.1751 -0.9147
18404SOL    HW256429   5.650   8.024   5.046  0.0923  0.2917  1.4818
18405SOL     OW56430   7.315   8.323   5.463 -0.1744  0.0016 -0.8223
18405SOL    HW156431   7.369   8.292   5.535  0.2454 -0.2279 -1.2282
18405SOL    HW256432   7.360   8.401   5.431 -0.4293  0.1790 -0.7539
18406SOL     OW56433   6.429   7.965   5.133 -0.1812  0.2578  0.4817
18406SOL    HW156434   6.442   7.885   5.185 -0.1856  1.1624  1.9215
18406SOL    HW256435   6.517   7.989   5.104 -0.3427 -1.0967 -1.3040
18407SOL     OW56436   5.928   7.269   5.562 -0.8142  0.0527 -0.0763
18407SOL    HW156437   5.918   7.346   5.507 -2.5430  0.0642  0.2226
18407SOL    HW256438   5.859   7.210   5.534 -0.8558 -0.5099  1.1396
18408SOL     OW56439   5.929   8.684   4.880  0.1546 -0.3476 -0.3174
18408SOL    HW156440   5.863   8.616   4.892  1.5842 -2.1107 -1.7290
18408SOL    HW256441   5.913   8.747   4.950 -2.9765 -0.6705 -0.6044
18409SOL     OW56442   6.673   8.144   5.072  1.0267 -0.2963  0.1504
18409SOL    HW156443   6.638   8.229   5.100  1.0371 -0.3660  0.3761
18409SOL    HW256444   6.734   8.119   5.141 -1.0466 -1.8129  1.5638
18410SOL     OW56445   6.696   7.419   3.859  0.0281  0.1850  0.4401
18410SOL    HW156446   6.722   7.501   3.817 -0.7129  1.0029  1.5042
18410SOL    HW256447   6.720   7.351   3.797  0.0584  1.2570 -0.7635
18411SOL     OW56448   6.126   7.095   4.974 -0.4387  0.1065 -0.5312
18411SOL    HW156449   6.039   7.055   4.978 -0.8719  1.0921  0.5499
18411SOL    HW256450   6.112   7.180   4.933 -0.1227  0.5551  0.2528
18412SOL     OW56451   5.487   8.221   5.510 -0.2680  0.2942 -0.2606
18412SOL    HW156452   5.583   8.222   5.520 -0.5082  0.3674  2.6333
18412SOL    HW256453   5.474   8.208   5.416  2.5745  0.8278 -0.8341
18413SOL     OW56454   6.054   8.052   4.772  0.2820 -0.0020 -0.0142
18413SOL    HW156455   6.053   8.032   4.678 -0.6945  3.1754 -0.7919
18413SOL    HW256456   6.119   7.992   4.809 -1.4386 -3.4984 -2.1147
18414SOL     OW56457   7.318   0.171   5.718  0.0950  0.1340  0.6350
18414SOL    HW156458   7.249   0.213   5.668  0.8728  0.6830 -0.0016
18414SOL    HW256459   7.277   0.092   5.755 -1.0532  0.8173  0.8667
18415SOL     OW56460   5.735   7.665   4.266  0.1876  0.6108  0.3807
18415SOL    HW156461   5.642   7.664   4.243  0.4990 -1.6642 -1.1447
18415SOL    HW256462   5.738   7.700   4.355 -2.5544 -2.6315  1.9408
18416SOL     OW56463   6.914   7.872   3.702 -0.5089  0.7206 -0.1985
18416SOL    HW156464   6.915   7.908   3.791 -0.3498 -1.4051  0.7045
18416SOL    HW256465   6.982   7.805   3.702  0.9329  2.0483 -2.5751
18417SOL     OW56466   6.308   8.318   4.792  0.1253  0.3336 -0.3686
18417SOL    HW156467   6.251   8.310   4.716  0.7164  0.8265 -0.8753
18417SOL    HW256468   6.270   8.388   4.844  0.5498  1.0242 -0.9695
18418SOL     OW56469   7.376   0.145   5.215 -0.0948 -0.0947  0.3033
18418SOL    HW156470   7.454   0.171   5.263 -0.4061  0.5590  0.4635
18418SOL    HW256471   7.304   0.190   5.259 -0.3816  0.5849 -0.8255
18419SOL     OW56472   5.819   7.977   5.825  0.2182  0.5438  0.6049
18419SOL    HW156473   5.890   7.983   5.760  0.4001  1.5449  0.8727
18419SOL    HW256474   5.864   7.962   5.908 -0.0448 -1.2917  0.4629
18420SOL     OW56475   6.749   7.667   3.772 -0.3271  0.2318  0.0231
18420SOL    HW156476   6.667   7.716   3.777  0.1994  1.0517  1.3253
18420SOL    HW256477   6.812   7.729   3.738 -0.8040 -1.2806 -4.1464
18421SOL     OW56478   6.683   8.081   3.731 -1.1365 -0.2637 -0.7136
18421SOL    HW156479   6.597   8.058   3.698 -0.8210 -0.4038 -1.4617
18421SOL    HW256480   6.744   8.049   3.664 -0.4837 -0.4450 -0.0533
18422SOL     OW56481   5.767   7.765   4.547 -0.0236 -0.7225  0.0927
18422SOL    HW156482   5.756   7.779   4.641 -0.1503  0.1080 -0.0334
18422SOL    HW256483   5.853   7.803   4.527 -1.0457  1.4129 -0.5375
18423SOL     OW56484   5.494   7.637   4.561 -0.1429  0.2856  0.1460
18423SOL    HW156485   5.412   7.677   4.532 -0.1577  0.0200 -0.1844
18423SOL    HW256486   5.562   7.694   4.526 -0.1917  0.8749  0.9710
18424SOL     OW56487   6.869   7.610   5.298  0.6106 -0.8062 -0.0144
18424SOL    HW156488   6.898   7.550   5.230  1.0171  0.3520 -0.8900
18424SOL    HW256489   6.825   7.681   5.251  0.7988 -0.0300  0.9288
18425SOL     OW56490   6.500   7.741   5.270 -0.1452 -0.3649 -0.1778
18425SOL    HW156491   6.535   7.654   5.291  1.7814  0.5650  0.6781
18425SOL    HW256492   6.555   7.802   5.320 -2.3581  1.2896  0.4193
18426SOL     OW56493   5.662   8.700   4.204  0.4405  0.1580  0.3615
18426SOL    HW156494   5.735   8.732   4.152  0.0405 -0.8548 -0.8674
18426SOL    HW256495   5.702   8.636   4.263  0.8251  1.0105  1.0669
18427SOL     OW56496   6.339   8.560   5.523  0.5977  0.1660 -0.1756
18427SOL    HW156497   6.340   8.488   5.459 -0.0263 -0.2760  0.3010
18427SOL    HW256498   6.250   8.594   5.521  0.3148 -0.4293  1.0715
18428SOL     OW56499   5.188   8.016   4.525  0.3933  0.1504  0.3840
18428SOL    HW156500   5.238   8.097   4.531  0.5638  0.0719  0.0210
18428SOL    HW256501   5.107   8.041   4.480  0.8076 -0.0400 -0.4973
18429SOL     OW56502   6.085   7.632   5.765 -0.7192  0.0058 -0.3659
18429SOL    HW156503   5.995   7.650   5.795 -0.5557  0.1090  0.0666
18429SOL    HW256504   6.090   7.536   5.763 -0.7921 -0.0009 -0.2514
18430SOL     OW56505   7.037   8.359   5.569 -0.3001  0.0617 -0.2712
18430SOL    HW156506   7.076   8.351   5.482  0.3440 -0.1929  0.0367
18430SOL    HW256507   7.107   8.392   5.625 -0.6967  0.1887  0.1644
18431SOL     OW56508   6.057   8.221   3.544  0.4844 -0.3099  0.3972
18431SOL    HW156509   6.097   8.176   3.619 -1.1033 -1.7237  0.4444
18431SOL    HW256510   6.079   8.313   3.558  1.7584 -0.7515  1.6198
18432SOL     OW56511   6.725   8.095   4.761  0.1852 -0.2875 -0.7511
18432SOL    HW156512   6.740   8.165   4.697  2.5870 -0.7342 -0.7510
18432SOL    HW256513   6.714   8.141   4.844  0.4733  0.1424 -0.9495
18433SOL     OW56514   6.043   7.657   5.012 -0.0541 -0.4755  0.2052
18433SOL    HW156515   6.023   7.750   5.023  1.0492 -0.3341  1.1670
18433SOL    HW256516   6.118   7.641   5.070  1.1773 -1.4637 -1.5632
18434SOL     OW56517   5.926   8.158   3.320 -0.1524  0.8305 -0.0459
18434SOL    HW156518   5.959   8.169   3.409  1.0227  1.7514 -0.5601
18434SOL    HW256519   6.003   8.129   3.270 -0.9556 -0.3291 -0.6363
18435SOL     OW56520   5.382   8.270   5.204 -0.2628 -0.1333 -0.1162
18435SOL    HW156521   5.397   8.176   5.195  1.0939  0.0225  0.2890
18435SOL    HW256522   5.362   8.300   5.116 -2.2674 -1.0240 -0.0177
18436SOL     OW56523   6.352   8.389   5.254  0.0530 -0.0967  0.4875
18436SOL    HW156524   6.434   8.340   5.241  1.2086  1.4470  1.6489
18436SOL    HW256525   6.289   8.344   5.198  1.6196 -1.4893 -0.2600
18437SOL     OW56526   7.049   8.333   3.486 -0.1860 -0.4245 -0.1526
18437SOL    HW156527   6.996   8.258   3.456 -1.6509  0.2899  0.5268
18437SOL    HW256528   7.075   8.310   3.575 -0.1026 -0.3937 -0.1691
18438SOL     OW56529   5.435   8.614   4.849 -0.1564  0.1539 -0.1529
18438SOL    HW156530   5.349   8.574   4.863 -0.6533  1.2901  0.1505
18438SOL    HW256531   5.445   8.677   4.921  1.0190 -0.0933 -0.0723
18439SOL     OW56532   7.084   7.904   4.122  0.1186 -0.1223 -0.4309
18439SOL    HW156533   7.011   7.966   4.115 -0.7850 -1.2995 -1.9611
18439SOL    HW256534   7.071   7.863   4.208 -0.6658  0.1261 -0.4177
18440SOL     OW56535   6.395   8.466   4.455 -0.1812 -0.0491  0.1501
18440SOL    HW156536   6.426   8.507   4.374 -1.4838 -0.2744 -0.4813
18440SOL    HW256537   6.403   8.535   4.521 -1.4588  0.9587 -0.7005
18441SOL     OW56538   5.921   8.430   5.327  0.4367 -0.0925 -0.1722
18441SOL    HW156539   5.992   8.398   5.271 -0.4199 -1.7290 -0.3822
18441SOL    HW256540   5.841   8.412   5.277 -0.3343 -1.3255  1.4082
18442SOL     OW56541   6.940   7.907   4.397  0.1631  0.3189  0.2978
18442SOL    HW156542   7.001   7.835   4.412 -0.8632 -0.6316  0.0359
18442SOL    HW256543   6.864   7.887   4.452 -0.0208  1.3651  0.4589
18443SOL     OW56544   5.428   7.606   4.222  0.3405 -0.2329  0.0136
18443SOL    HW156545   5.387   7.613   4.135  0.6457  2.4868 -0.0007
18443SOL    HW256546   5.375   7.663   4.278  1.3983 -0.2985  1.1162
18444SOL     OW56547   6.073   8.371   5.104 -0.0167  0.2290 -0.6594
18444SOL    HW156548   6.001   8.352   5.044  0.9339 -0.8605 -1.4979
18444SOL    HW256549   6.117   8.446   5.064 -0.7038  0.9502 -0.1027
18445SOL     OW56550   6.281   8.322   3.972  0.1385  0.2096 -0.0116
18445SOL    HW156551   6.345   8.345   3.904  0.6610  2.9052  1.2492
18445SOL    HW256552   6.224   8.399   3.978 -2.1682 -1.4119  0.1463
18446SOL     OW56553   5.434   8.478   5.375  0.6107  0.4036  0.0895
18446SOL    HW156554   5.446   8.443   5.464  2.7547  0.5325 -0.0989
18446SOL    HW256555   5.414   8.402   5.321  2.9587 -0.2867  0.0854
18447SOL     OW56556   7.171   8.666   5.245  0.1086 -0.2019 -0.3641
18447SOL    HW156557   7.259   8.670   5.284 -0.4130  2.6611  0.7241
18447SOL    HW256558   7.181   8.710   5.160 -0.6102  2.0114  0.6362
18448SOL     OW56559   6.419   8.635   4.719 -0.3107 -0.0959 -0.2428
18448SOL    HW156560   6.330   8.666   4.736 -0.9504 -1.5941 -0.6847
18448SOL    HW256561   6.475   8.710   4.742 -1.8028  1.9084 -2.6299
18449SOL     OW56562   6.788   7.470   4.373  0.0795 -0.3476  0.1571
18449SOL    HW156563   6.786   7.380   4.405  0.5741 -0.5801 -0.4337
18449SOL    HW256564   6.729   7.518   4.431 -1.3134 -1.3384 -0.3851
18450SOL     OW56565   7.112   7.962   5.446 -0.3439 -0.4562  0.0188
18450SOL    HW156566   7.040   8.015   5.482  0.0967  0.1097  0.0863
18450SOL    HW256567   7.089   7.872   5.468 -2.6878 -0.6645 -2.7546
18451SOL     OW56568   5.837   8.091   5.279  0.0606 -0.1611 -0.2950
18451SOL    HW156569   5.826   8.177   5.239  0.8863 -0.5136 -1.2956
18451SOL    HW256570   5.808   8.029   5.212  0.5891 -0.7183 -0.0137
18452SOL     OW56571   6.000   7.524   5.431  0.2057 -0.2286  0.1051
18452SOL    HW156572   6.020   7.487   5.345 -0.8227  1.0244 -0.7132
18452SOL    HW256573   6.066   7.592   5.443 -1.2502  1.4487 -0.9661
18453SOL     OW56574   5.842   7.687   3.554  0.1170 -0.1290 -0.1357
18453SOL    HW156575   5.828   7.687   3.649 -2.5239 -0.4323 -0.4709
18453SOL    HW256576   5.763   7.726   3.517  1.5489  1.0404 -2.2086
18454SOL     OW56577   6.854   8.056   5.273 -0.3612  0.5887 -0.1917
18454SOL    HW156578   6.863   8.090   5.362  0.7945 -0.5492  0.1578
18454SOL    HW256579   6.937   8.075   5.231 -0.7018  0.6310 -0.8648
18455SOL     OW56580   6.018   7.934   3.890 -0.1245  0.1304  0.1149
18455SOL    HW156581   5.976   7.885   3.961  0.9013  1.5434  1.8097
18455SOL    HW256582   6.000   8.026   3.912  1.7799  0.6699 -0.4181
18456SOL     OW56583   6.198   8.091   5.246  0.2276  0.3440  0.1939
18456SOL    HW156584   6.136   8.071   5.177 -0.3802  0.3784  0.7204
18456SOL    HW256585   6.283   8.066   5.210 -0.2617 -1.1911  0.0475
18457SOL     OW56586   5.931   7.884   5.468  0.0191 -0.0215 -0.2941
18457SOL    HW156587   5.904   7.959   5.414 -1.3453  0.1699  0.5814
18457SOL    HW256588   5.851   7.832   5.478  0.7457 -1.1458 -0.1723
18458SOL     OW56589   6.551   8.683   5.661 -0.4291 -0.4894  0.6622
18458SOL    HW156590   6.497   8.660   5.586 -0.2140 -0.7740  0.5947
18458SOL    HW256591   6.551   8.779   5.662 -0.2106 -0.4816  0.1398
18459SOL     OW56592   6.618   8.635   4.978 -0.0809 -0.1771 -0.1749
18459SOL    HW156593   6.695   8.684   4.951  1.4534 -1.9258  0.8471
18459SOL    HW256594   6.591   8.587   4.900  1.0961 -1.1016 -0.0243
18460SOL     OW56595   6.694   7.919   4.139 -0.3337 -0.0431  0.4195
18460SOL    HW156596   6.755   7.989   4.118 -0.4258 -0.6647 -2.3078
18460SOL    HW256597   6.748   7.841   4.149 -0.3891  0.0627  1.6480
18461SOL     OW56598   6.017   7.932   4.499 -0.0042 -0.0788 -0.3025
18461SOL    HW156599   6.026   7.984   4.419  1.3694  4.0280  2.1898
18461SOL    HW256600   6.083   7.863   4.491 -1.7199 -1.5526 -3.6833
18462SOL     OW56601   7.289   7.905   5.221  0.0670 -0.2058  0.1302
18462SOL    HW156602   7.255   7.913   5.310  0.9042 -2.1555  0.6813
18462SOL    HW256603   7.216   7.869   5.170 -0.0823 -0.1077  0.2752
18463SOL     OW56604   7.003   8.444   5.241  0.0905 -0.1708  0.7006
18463SOL    HW156605   7.062   8.519   5.251 -0.2490  0.7748 -2.7898
18463SOL    HW256606   6.916   8.480   5.259  0.1349 -0.3389  1.2599
18464SOL     OW56607   6.430   0.109   4.328  0.3098 -0.2563 -0.1298
18464SOL    HW156608   6.428   0.204   4.340  0.1435 -0.2868  0.0933
18464SOL    HW256609   6.484   0.076   4.399  1.0484 -0.2610 -0.6882
18465SOL     OW56610   6.020   8.411   4.658  0.4386  0.5374  0.5893
18465SOL    HW156611   6.013   8.347   4.587  0.5415 -0.3460  1.3479
18465SOL    HW256612   6.071   8.482   4.621 -0.9608  0.9006 -0.7653
18466SOL     OW56613   6.626   8.447   3.683  0.1325  0.2526  0.1311
18466SOL    HW156614   6.574   8.384   3.634 -2.3726  1.3192  1.2006
18466SOL    HW256615   6.614   8.530   3.637 -0.5424  0.8482  1.3204
18467SOL     OW56616   5.786   8.356   5.748  0.1196  0.7907  0.4042
18467SOL    HW156617   5.717   8.327   5.807  0.9184  1.0539  1.4989
18467SOL    HW256618   5.763   8.317   5.664  0.7308 -2.4550  1.5789
18468SOL     OW56619   5.623   8.227   4.196  0.0227 -0.2530  0.1169
18468SOL    HW156620   5.542   8.182   4.218 -0.6407  0.2652 -1.1381
18468SOL    HW256621   5.636   8.291   4.266  0.4139 -1.6235  1.3510
18469SOL     OW56622   5.762   8.279   5.489  0.4985 -0.6083  0.9745
18469SOL    HW156623   5.760   8.195   5.442 -0.8117  0.5939 -1.3170
18469SOL    HW256624   5.816   8.336   5.433 -1.1360  0.8974  0.8344
18470SOL     OW56625   6.964   7.872   4.806 -0.2026  0.2580  0.3164
18470SOL    HW156626   6.922   7.889   4.722  1.2016 -0.0924 -0.5018
18470SOL    HW256627   7.005   7.955   4.830 -2.1904  0.9053  1.6470
18471SOL     OW56628   5.960   7.795   4.183  0.2835  0.6509 -0.2401
18471SOL    HW156629   5.922   7.882   4.181  0.4457  0.7863  1.6066
18471SOL    HW256630   5.893   7.739   4.221  1.1283  0.4951  1.0713
18472SOL     OW56631   6.772   8.799   4.822  0.1962  0.1008  0.0144
18472SOL    HW156632   6.777   8.867   4.755  0.8478 -1.3641 -1.5183
18472SOL    HW256633   6.838   8.822   4.886 -0.4737  1.5708  0.2158
18473SOL     OW56634   5.771   7.695   4.845  0.1607  0.5146  0.1562
18473SOL    HW156635   5.716   7.621   4.870  1.7336 -1.5237 -1.9054
18473SOL    HW256636   5.850   7.685   4.898 -0.1965  1.6578  0.9454
18474SOL     OW56637   6.790   7.621   4.835  0.2965 -0.6754 -0.3531
18474SOL    HW156638   6.876   7.591   4.808  1.4595  2.1976 -0.2051
18474SOL    HW256639   6.798   7.717   4.840 -2.2436 -0.4482  1.8578
18475SOL     OW56640   6.468   7.746   4.714 -0.4815 -0.0699  0.7935
18475SOL    HW156641   6.417   7.825   4.697  0.3095  0.2992  0.0406
18475SOL    HW256642   6.437   7.715   4.799 -0.0145  1.7070  1.6731
18476SOL     OW56643   6.068   8.570   4.348 -0.3088  0.4356 -0.0648
18476SOL    HW156644   6.157   8.601   4.328  0.1686 -0.6300  0.3453
18476SOL    HW256645   6.021   8.650   4.372  0.8298  0.9087  0.7359
18477SOL     OW56646   6.999   7.442   3.763  0.1805  0.3070  0.6816
18477SOL    HW156647   6.939   7.411   3.695 -0.6589  1.0780  1.0432
18477SOL    HW256648   7.066   7.374   3.769 -0.5774 -0.5160  0.1618
18478SOL     OW56649   6.715   8.593   4.034 -0.7909  0.4765 -0.2449
18478SOL    HW156650   6.741   8.524   3.973 -1.0975  0.8346 -0.7790
18478SOL    HW256651   6.792   8.648   4.043 -0.5971  0.1671  0.0580
18479SOL     OW56652   6.815   7.676   4.191  0.2561  0.5279 -0.5487
18479SOL    HW156653   6.795   7.607   4.254 -1.3114  1.1724 -0.2765
18479SOL    HW256654   6.831   7.631   4.109 -1.8176 -0.1671 -0.6451
18480SOL     OW56655   5.673   8.297   3.934 -0.1944  0.0857  0.2927
18480SOL    HW156656   5.649   8.287   4.026 -1.1689  2.3358  0.3447
18480SOL    HW256657   5.592   8.278   3.886 -0.0153  0.1026 -0.0177
18481SOL     OW56658   5.336   7.614   5.312 -0.2397 -0.7209 -0.6566
18481SOL    HW156659   5.278   7.542   5.336  0.4411 -0.9897  0.2301
18481SOL    HW256660   5.289   7.693   5.338 -0.9493 -0.8309 -1.5478
18482SOL     OW56661   5.908   7.337   6.685 -0.1484 -0.7766 -0.2113
18482SOL    HW156662   5.979   7.326   6.621  0.2808 -1.5413  0.3755
18482SOL    HW256663   5.950   7.379   6.760 -0.7370  0.4821 -0.5643
18483SOL     OW56664   5.802   7.919   6.177  0.0167 -0.1624  0.2968
18483SOL    HW156665   5.880   7.965   6.146  1.4907 -1.9756  1.1803
18483SOL    HW256666   5.831   7.830   6.194 -2.1770 -0.8030  1.0201
18484SOL     OW56667   6.158   8.368   7.181  0.8132  0.2408  0.1876
18484SOL    HW156668   6.224   8.435   7.160 -0.5936  1.4222 -0.6615
18484SOL    HW256669   6.188   8.290   7.136  0.6463  1.3019 -1.8983
18485SOL     OW56670   7.178   8.630   6.299 -0.0094 -0.5947 -0.3914
18485SOL    HW156671   7.160   8.609   6.391 -1.6511  0.5755 -0.4088
18485SOL    HW256672   7.203   8.546   6.260 -3.4649 -2.0662  0.1891
18486SOL     OW56673   6.643   8.527   6.132 -0.1801 -0.4449  0.1933
18486SOL    HW156674   6.621   8.532   6.039 -0.9157 -1.6967  0.2684
18486SOL    HW256675   6.590   8.595   6.173 -0.9201 -0.8039 -0.1414
18487SOL     OW56676   7.433   7.889   5.822  0.2301 -0.3514  0.1370
18487SOL    HW156677   7.362   7.939   5.782 -2.8687 -3.0873  1.7064
18487SOL    HW256678   7.442   7.812   5.765  1.4027 -0.4091  0.3884
18488SOL     OW56679   5.878   8.438   6.686  0.3313  0.2545 -0.8748
18488SOL    HW156680   5.819   8.397   6.749  0.7710  1.0300  0.0701
18488SOL    HW256681   5.837   8.422   6.601 -0.0267 -1.2139 -0.4443
18489SOL     OW56682   6.635   8.041   7.807  0.3436 -0.2659  0.1578
18489SOL    HW156683   6.672   8.070   7.723 -1.1837 -0.3542 -0.5934
18489SOL    HW256684   6.707   8.046   7.869  1.1074  1.3834 -0.8130
18490SOL     OW56685   6.250   8.121   6.498  0.2857  0.2997  0.0687
18490SOL    HW156686   6.160   8.114   6.531  0.6023  0.3179  0.9796
18490SOL    HW256687   6.251   8.066   6.420 -0.4843  0.1852  0.1299
18491SOL     OW56688   6.599   8.562   7.203 -0.0809 -0.2293  0.0920
18491SOL    HW156689   6.688   8.578   7.171 -0.1458  1.8638  0.8045
18491SOL    HW256690   6.611   8.533   7.293 -0.1088  1.0783  0.5421
18492SOL     OW56691   6.085   8.438   6.335  0.2395  0.1670  0.2419
18492SOL    HW156692   6.119   8.354   6.366 -0.2267 -0.1908 -0.2096
18492SOL    HW256693   6.156   8.473   6.281  0.3583 -0.0286  0.2700
18493SOL     OW56694   5.891   8.038   7.125  0.2796 -0.1341 -0.1756
18493SOL    HW156695   5.836   8.008   7.197  0.7357 -0.1443  0.1797
18493SOL    HW256696   5.845   8.011   7.046 -0.2593 -0.0727  0.1107
18494SOL     OW56697   6.960   7.996   5.794  0.1077  0.3203  0.5345
18494SOL    HW156698   6.927   8.059   5.859  2.7690  2.5411 -0.0864
18494SOL    HW256699   7.011   7.934   5.846  0.9748  1.2024  0.7667
18495SOL     OW56700   6.896   8.491   7.116  0.1500 -0.2025 -0.0956
18495SOL    HW156701   6.944   8.423   7.069 -1.8190 -0.7118 -1.5094
18495SOL    HW256702   6.856   8.446   7.190  1.2966  0.0919  0.7237
18496SOL     OW56703   5.509   8.502   6.938  0.4807 -0.1829  0.0500
18496SOL    HW156704   5.553   8.521   6.855 -0.0714 -2.1043 -0.7184
18496SOL    HW256705   5.419   8.533   6.925  0.2245 -1.0633 -0.3169
18497SOL     OW56706   6.076   7.987   5.664 -0.3494  0.1819  0.5561
18497SOL    HW156707   6.133   8.044   5.613  0.2322  1.0390  2.1088
18497SOL    HW256708   6.025   7.940   5.598  1.0882  0.4758 -0.8344
18498SOL     OW56709   7.149   7.426   7.484 -0.6793 -0.2559 -0.1683
18498SOL    HW156710   7.239   7.459   7.489 -1.0150  0.5410  1.0458
18498SOL    HW256711   7.129   7.397   7.573 -2.1548  1.0887 -0.0133
18499SOL     OW56712   5.638   8.044   6.025 -0.3455  0.0338 -0.2270
18499SOL    HW156713   5.703   8.018   5.959  0.8209  0.1495  0.8338
18499SOL    HW256714   5.672   8.010   6.107 -1.5269  0.3157  0.4031
18500SOL     OW56715   7.293   7.995   6.127  0.1034 -0.9551 -0.0102
18500SOL    HW156716   7.299   8.045   6.208 -0.8342 -1.7866  0.6043
18500SOL    HW256717   7.375   8.011   6.082  0.2282  0.3133  0.6399
18501SOL     OW56718   7.194   8.775   5.760 -0.0210  0.0418 -0.2330
18501SOL    HW156719   7.150   8.758   5.677  0.9841 -1.6874 -0.4615
18501SOL    HW256720   7.126   8.765   5.826 -0.4942 -0.1384 -0.7428
18502SOL     OW56721   5.362   7.811   6.912 -0.1524  0.3072 -0.4899
18502SOL    HW156722   5.396   7.773   6.993  1.1228  1.1390 -0.6087
18502SOL    HW256723   5.287   7.757   6.890 -0.6277  0.1453  1.3365
18503SOL     OW56724   5.828   8.407   6.411 -0.3801  0.0056  0.1398
18503SOL    HW156725   5.800   8.315   6.407  1.2780 -0.6319  1.6390
18503SOL    HW256726   5.919   8.405   6.379  0.4991  0.6686  2.4296
18504SOL     OW56727   6.738   8.699   6.814 -0.3386  0.4613 -0.2065
18504SOL    HW156728   6.695   8.712   6.899 -0.3912  1.3253 -0.3539
18504SOL    HW256729   6.831   8.697   6.835 -0.4012 -1.4613  0.1211
18505SOL     OW56730   6.656   7.658   5.941 -0.3560  0.4780  0.0069
18505SOL    HW156731   6.732   7.675   5.885  0.8449 -0.0391  1.4093
18505SOL    HW256732   6.630   7.568   5.921  0.7640 -0.1018  0.9932
18506SOL     OW56733   5.465   7.893   7.328 -0.0512  0.4322 -0.6243
18506SOL    HW156734   5.472   7.858   7.417  2.3816 -0.9789 -1.2510
18506SOL    HW256735   5.373   7.883   7.304 -0.2065 -1.9855  0.6979
18507SOL     OW56736   6.955   0.072   6.153 -0.3343  0.0109  0.5913
18507SOL    HW156737   6.921   0.012   6.220 -1.5724 -0.5142 -0.4578
18507SOL    HW256738   6.888   0.139   6.146 -0.0645  0.2267  0.0841
18508SOL     OW56739   5.808   7.576   7.432 -0.3918  0.0995  0.1688
18508SOL    HW156740   5.758   7.640   7.483  1.6191  1.8536  0.0261
18508SOL    HW256741   5.788   7.597   7.341 -1.9527 -1.3953  0.0971
18509SOL     OW56742   7.094   8.604   6.583  0.3395 -0.1002 -0.7022
18509SOL    HW156743   7.060   8.515   6.573  0.5446 -0.3257  0.4532
18509SOL    HW256744   7.053   8.636   6.664  1.2615  0.3783 -0.4102
18510SOL     OW56745   5.876   8.123   6.342  0.3817  0.0805  0.0249
18510SOL    HW156746   5.833   8.038   6.332 -1.9309  0.8938  2.0234
18510SOL    HW256747   5.904   8.124   6.433  1.4745  1.0112 -0.3058
18511SOL     OW56748   6.767   7.853   6.137  0.6086 -0.4030 -0.0897
18511SOL    HW156749   6.749   7.795   6.063 -0.5174  1.3480 -1.2685
18511SOL    HW256750   6.862   7.848   6.149  0.6741 -1.5577 -0.9229
18512SOL     OW56751   6.146   7.963   7.216  0.5194  0.0321 -0.1180
18512SOL    HW156752   6.060   8.005   7.222 -0.4806 -2.0628  1.5026
18512SOL    HW256753   6.127   7.869   7.217  2.7777 -0.4970 -1.0798
18513SOL     OW56754   6.995   8.002   7.477 -0.2714  0.1223 -0.0460
18513SOL    HW156755   7.082   8.040   7.465  0.8572 -2.6037 -1.4174
18513SOL    HW256756   7.011   7.913   7.509 -2.7699  0.8367  4.0478
18514SOL     OW56757   6.082   0.130   7.161  0.4019  0.2088  0.4101
18514SOL    HW156758   6.169   0.108   7.126  0.4856 -0.1251  0.8166
18514SOL    HW256759   6.053   0.204   7.107  1.0122  0.4386  0.3795
18515SOL     OW56760   6.633   7.069   6.620 -0.3016  0.5036 -0.1187
18515SOL    HW156761   6.677   7.036   6.698 -1.7933 -0.2192  0.4661
18515SOL    HW256762   6.553   7.016   6.614 -0.6100  1.0970 -1.6823
18516SOL     OW56763   6.406   8.159   5.908  0.4757 -0.6650  0.0372
18516SOL    HW156764   6.423   8.065   5.913 -1.1842 -1.0534 -0.9587
18516SOL    HW256765   6.327   8.167   5.855  0.7644  1.3256 -0.1820
18517SOL     OW56766   6.079   7.841   6.435 -0.0238 -0.1221 -0.2234
18517SOL    HW156767   5.993   7.819   6.400  0.6125 -1.3194 -1.0872
18517SOL    HW256768   6.139   7.828   6.362  0.8804  0.8692  0.3198
18518SOL     OW56769   6.412   7.563   5.841  0.0295 -0.3316 -0.1317
18518SOL    HW156770   6.390   7.653   5.862  0.7158 -0.3004  0.5091
18518SOL    HW256771   6.365   7.511   5.906 -0.5763 -0.4632 -0.6620
18519SOL     OW56772   7.547   8.135   7.248  0.4508  0.2535  0.1113
18519SOL    HW156773   7.466   8.088   7.230  1.1340 -0.5575 -1.0098
18519SOL    HW256774   7.519   8.220   7.281 -0.8237 -0.7217  1.6585
18520SOL     OW56775   6.746   0.117   6.411  0.3817 -0.1023 -0.1176
18520SOL    HW156776   6.733   0.111   6.505  0.6448 -0.2306 -0.0869
18520SOL    HW256777   6.805   0.045   6.390  0.4298  0.0038 -0.3602
18521SOL     OW56778   6.236   7.396   6.653 -0.2979 -0.1485  0.7623
18521SOL    HW156779   6.227   7.451   6.731  0.3197  1.5905 -0.3240
18521SOL    HW256780   6.330   7.382   6.645 -0.4459 -1.5194  1.0697
18522SOL     OW56781   7.524   8.278   6.045  0.3484  0.1450 -0.2455
18522SOL    HW156782   7.550   8.186   6.052  1.4181  0.3579 -1.1143
18522SOL    HW256783   7.533   8.299   5.952 -0.7346  0.8909 -0.1956
18523SOL     OW56784   5.738   8.295   6.144  0.2544  0.1885 -0.1368
18523SOL    HW156785   5.777   8.211   6.166  0.5260  0.5585  0.8669
18523SOL    HW256786   5.787   8.359   6.196  0.1603  0.9879 -1.0043
18524SOL     OW56787   7.267   8.388   6.192 -0.0637  0.0825 -0.1139
18524SOL    HW156788   7.186   8.348   6.160 -0.0022 -0.5993  0.5728
18524SOL    HW256789   7.324   8.391   6.115 -0.9000  1.0193 -0.7239
18525SOL     OW56790   6.331   8.568   7.194  0.3783  0.3090  0.0747
18525SOL    HW156791   6.311   8.623   7.270  1.2287  0.5728  0.1173
18525SOL    HW256792   6.426   8.567   7.189  0.3594  1.8222 -2.0901
18526SOL     OW56793   5.762   7.877   7.316 -0.2776 -0.2756 -0.1535
18526SOL    HW156794   5.674   7.888   7.353  0.6586  2.7987  1.5646
18526SOL    HW256795   5.819   7.869   7.393  1.1512  0.2599 -1.1208
18527SOL     OW56796   7.166   0.304   5.378 -0.5053 -0.4735  0.0585
18527SOL    HW156797   7.121   0.301   5.463 -1.1514 -0.7610 -0.2816
18527SOL    HW256798   7.168   0.397   5.355 -1.4439 -0.5037 -0.1794
18528SOL     OW56799   6.670   7.897   5.401 -0.2092 -0.5958 -0.1624
18528SOL    HW156800   6.689   7.869   5.490 -0.4680  1.0776  0.4693
18528SOL    HW256801   6.742   7.956   5.379 -0.7072 -0.1523 -0.6320
18529SOL     OW56802   5.575   7.677   6.332 -0.2624 -0.7488 -0.5792
18529SOL    HW156803   5.587   7.679   6.237 -2.5410 -2.6954 -1.0056
18529SOL    HW256804   5.535   7.592   6.349 -2.5282  0.6377  1.7656
18530SOL     OW56805   6.847   7.612   7.445  0.2213  0.3758  0.1441
18530SOL    HW156806   6.831   7.689   7.499  2.1975 -0.0455  1.4459
18530SOL    HW256807   6.931   7.578   7.476 -1.2571 -3.2289  0.7740
18531SOL     OW56808   6.083   7.360   5.763  0.1880  0.3247  0.2369
18531SOL    HW156809   6.017   7.346   5.831  1.3579  1.6342  1.7129
18531SOL    HW256810   6.038   7.340   5.681 -1.7410  0.2257  1.2737
18532SOL     OW56811   6.123   7.457   7.325  0.1720 -0.1500  0.5511
18532SOL    HW156812   6.048   7.399   7.311 -1.1891  1.1899  1.9227
18532SOL    HW256813   6.149   7.441   7.416  1.4176 -0.4070  0.1744
18533SOL     OW56814   6.546   8.404   6.680 -0.0386 -0.1958  0.5506
18533SOL    HW156815   6.548   8.457   6.759  1.5558  1.0620 -0.2706
18533SOL    HW256816   6.637   8.405   6.648 -0.6685 -0.4768 -1.3988
18534SOL     OW56817   6.609   7.928   6.355  0.1484  0.8307  0.3557
18534SOL    HW156818   6.669   7.883   6.295 -0.1445 -0.3601  0.9337
18534SOL    HW256819   6.631   8.021   6.345  0.0174  0.6893 -1.6707
18535SOL     OW56820   6.362   7.222   6.335 -0.2340 -0.0466 -0.2361
18535SOL    HW156821   6.351   7.301   6.283  1.1588  0.3278 -0.0048
18535SOL    HW256822   6.292   7.164   6.306 -1.1415  1.1693 -0.5729
18536SOL     OW56823   6.803   8.670   5.576  0.1731  0.4035 -0.2950
18536SOL    HW156824   6.848   8.614   5.639 -0.5746 -0.5753 -0.6136
18536SOL    HW256825   6.717   8.686   5.615 -0.1266  0.1704 -0.8453
18537SOL     OW56826   5.699   7.299   5.348  0.1853 -0.1834 -0.1709
18537SOL    HW156827   5.656   7.371   5.300  0.8464 -0.2383 -0.8545
18537SOL    HW256828   5.627   7.241   5.372 -0.1521 -0.2186 -1.2108
18538SOL     OW56829   6.638   7.403   5.834  0.0005 -0.8331  0.4190
18538SOL    HW156830   6.551   7.436   5.811  0.7358  0.1137 -1.0938
18538SOL    HW256831   6.652   7.329   5.775  0.4739 -0.5926  0.2297
18539SOL     OW56832   6.597   8.231   7.002  0.0422  0.0959 -0.0598
18539SOL    HW156833   6.522   8.205   7.055 -1.8500 -0.3284 -2.7265
18539SOL    HW256834   6.576   8.320   6.974  1.6005  0.7768  0.8608
18540SOL     OW56835   7.304   0.020   6.191  0.1224 -0.0281  0.3976
18540SOL    HW156836   7.267  -0.065   6.212 -0.5059 -0.1943 -1.2111
18540SOL    HW256837   7.230   0.081   6.197  0.7583  0.6351  2.5114
18541SOL     OW56838   5.491   8.399   6.556 -0.5762 -0.0765 -0.2892
18541SOL    HW156839   5.502   8.322   6.611 -1.5333 -0.0249 -0.0134
18541SOL    HW256840   5.540   8.468   6.601 -1.6478  0.0581  0.7071
18542SOL     OW56841   6.172   8.183   5.507  0.0464  0.5178 -0.0250
18542SOL    HW156842   6.179   8.132   5.427  0.6683 -1.0149  0.9699
18542SOL    HW256843   6.127   8.264   5.480  0.6636  0.2531 -1.9819
18543SOL     OW56844   5.301   8.034   7.058 -0.1237  0.0178 -0.4291
18543SOL    HW156845   5.301   7.963   6.993 -0.8773  0.6032 -1.0973
18543SOL    HW256846   5.255   7.997   7.133 -0.7016 -0.1434 -0.8516
18544SOL     OW56847   6.065   8.010   6.873 -0.4221  0.3974 -0.1195
18544SOL    HW156848   6.048   7.927   6.828 -0.3583  1.0102 -1.3039
18544SOL    HW256849   6.074   7.986   6.965 -2.4144 -0.6664 -0.1483
18545SOL     OW56850   6.340   7.417   6.140  0.0740  0.0749 -0.3881
18545SOL    HW156851   6.262   7.466   6.117  0.4413  0.4958 -0.7776
18545SOL    HW256852   6.334   7.336   6.089  0.0650  0.2680 -0.6949
18546SOL     OW56853   6.492   7.305   6.570 -0.6036  0.1132  0.4958
18546SOL    HW156854   6.531   7.218   6.581  2.0744  1.0713 -0.5746
18546SOL    HW256855   6.432   7.295   6.496  0.2517 -0.6750 -0.1144
18547SOL     OW56856   6.895   8.753   6.364  0.0413  0.2530 -0.0433
18547SOL    HW156857   6.980   8.740   6.406 -0.7961 -1.1213  1.3728
18547SOL    HW256858   6.868   8.665   6.337 -0.2402  0.8816 -1.9461
18548SOL     OW56859   7.042   7.875   6.213 -0.1407  0.2811  0.8598
18548SOL    HW156860   7.077   7.821   6.285 -0.5891 -0.0890  0.8076
18548SOL    HW256861   7.119   7.904   6.165  0.0394 -2.1104 -0.4097
18549SOL     OW56862   7.598   8.032   6.046 -0.0090  0.1232 -0.1211
18549SOL    HW156863   7.653   8.025   6.124  1.5049  1.9170 -0.9636
18549SOL    HW256864   7.634   7.967   5.985  0.7657  0.7841 -0.3949
18550SOL     OW56865   7.635   8.626   5.814  0.3957 -0.6858 -0.0760
18550SOL    HW156866   7.730   8.621   5.826  0.5235 -0.3375 -0.8826
18550SOL    HW256867   7.604   8.670   5.893  0.8741 -1.0519  0.3251
18551SOL     OW56868   7.655   7.551   5.821 -0.2304  0.0037  0.4023
18551SOL    HW156869   7.567   7.563   5.787 -1.0067 -0.4668  2.1058
18551SOL    HW256870   7.677   7.635   5.860 -0.3141 -0.1392  0.7688
18552SOL     OW56871   5.911   7.362   6.045 -0.3531  0.2095  0.1978
18552SOL    HW156872   5.878   7.302   6.112  0.9720 -1.2619 -0.4039
18552SOL    HW256873   5.834   7.386   5.993 -1.0765 -0.1392  1.0832
18553SOL     OW56874   7.379   8.814   6.789  0.1328  0.0545 -1.0856
18553SOL    HW156875   7.379   8.723   6.820 -0.7726  0.8475  1.5042
18553SOL    HW256876   7.463   8.825   6.746  0.9621 -1.5650  0.0219
18554SOL     OW56877   7.054   8.296   6.921 -0.3133 -0.5518 -0.1260
18554SOL    HW156878   7.115   8.282   6.849  0.3251  1.8644 -0.1513
18554SOL    HW256879   6.971   8.318   6.879  0.1645  1.2897 -0.2319
18555SOL     OW56880   6.762   8.269   6.576  0.0468  0.1731 -0.2020
18555SOL    HW156881   6.682   8.260   6.525  0.7072 -0.4438 -1.1601
18555SOL    HW256882   6.764   8.191   6.631 -0.4225  0.6040  0.4429
18556SOL     OW56883   7.367   8.569   6.594  0.0000 -0.2604  0.1460
18556SOL    HW156884   7.413   8.651   6.609  2.4863 -1.4195 -0.6325
18556SOL    HW256885   7.276   8.595   6.579  0.3912  2.1680  1.5123
18557SOL     OW56886   6.530   7.272   6.999  0.6884  0.2165  0.4468
18557SOL    HW156887   6.490   7.245   6.917  0.2500  0.6407  0.5176
18557SOL    HW256888   6.459   7.265   7.063  1.1733 -0.6788  0.9087
18558SOL     OW56889   6.130   8.524   6.797 -0.6140  0.8331 -0.6014
18558SOL    HW156890   6.144   8.455   6.862 -0.6453  0.5473 -0.8988
18558SOL    HW256891   6.047   8.503   6.756 -1.6927  2.2050  0.7418
18559SOL     OW56892   6.020   8.054   6.064  0.4487  0.2504 -0.8587
18559SOL    HW156893   6.090   8.037   6.127  0.7902 -0.9468 -1.5328
18559SOL    HW256894   6.061   8.106   5.995  0.2423  0.9752 -0.4495
18560SOL     OW56895   5.703   8.278   6.943 -0.2760  0.0840  0.3139
18560SOL    HW156896   5.653   8.201   6.970 -0.9845  0.7271  0.8838
18560SOL    HW256897   5.636   8.346   6.930  0.4171  0.8313  0.6227
18561SOL     OW56898   6.724   7.794   7.261  0.4906  0.3100 -0.4867
18561SOL    HW156899   6.760   7.719   7.308  1.0524  0.3493 -0.8350
18561SOL    HW256900   6.691   7.853   7.329 -1.9414 -1.1958 -0.2650
18562SOL     OW56901   6.018   8.513   5.849 -0.5432 -0.3301  0.2746
18562SOL    HW156902   5.944   8.453   5.856  1.1891 -2.7107 -0.4783
18562SOL    HW256903   6.004   8.577   5.918 -3.3505 -0.5673  0.0402
18563SOL     OW56904   6.095   7.528   6.453 -0.0795 -0.1651 -0.2326
18563SOL    HW156905   6.153   7.589   6.406 -0.3679  0.3473  0.0600
18563SOL    HW256906   6.154   7.478   6.509  0.1574 -0.0982 -0.4197
18564SOL     OW56907   6.693   0.228   6.181  0.0585  0.1893  0.0628
18564SOL    HW156908   6.627   0.296   6.172 -0.1770  0.0389  0.5910
18564SOL    HW256909   6.699   0.212   6.275  1.8439  1.1555  0.1608
18565SOL     OW56910   6.848   8.104   6.021 -0.0650 -0.2272 -0.1022
18565SOL    HW156911   6.828   8.052   6.099  0.2987  2.6003  2.0638
18565SOL    HW256912   6.765   8.143   5.996 -0.2428 -1.3715 -1.4113
18566SOL     OW56913   5.561   8.078   7.045 -0.3437 -0.7401  0.3717
18566SOL    HW156914   5.576   8.077   7.139 -0.2765 -1.4055  0.3560
18566SOL    HW256915   5.465   8.073   7.037 -0.4801  1.1008  0.4253
18567SOL     OW56916   7.243   8.262   7.173  0.2868  0.1756 -0.5952
18567SOL    HW156917   7.282   8.174   7.169  0.3552 -0.1036  2.8673
18567SOL    HW256918   7.149   8.246   7.171  0.3007  0.0536 -0.2534
18568SOL     OW56919   6.739   7.364   7.330  0.4773 -0.0015 -0.5398
18568SOL    HW156920   6.822   7.389   7.289  1.1024 -0.3490  0.4784
18568SOL    HW256921   6.702   7.447   7.361  0.2374  0.2036 -1.3523
18569SOL     OW56922   5.998   7.223   7.317 -0.3136 -0.7105 -0.0452
18569SOL    HW156923   5.923   7.173   7.284 -0.9998  0.2664  0.0001
18569SOL    HW256924   6.062   7.156   7.341 -0.6703 -1.5324 -1.2523
18570SOL     OW56925   5.971   8.140   6.640 -0.5604  0.6134 -0.3616
18570SOL    HW156926   5.960   8.229   6.673 -0.0967  0.2376  0.8234
18570SOL    HW256927   6.008   8.091   6.713  0.0890 -0.3393 -1.2996
18571SOL     OW56928   7.163   8.115   6.550 -0.9107 -0.2277 -0.0429
18571SOL    HW156929   7.218   8.089   6.476  1.1811  3.0563  0.1110
18571SOL    HW256930   7.211   8.085   6.627  0.3485  1.8699  0.0634
18572SOL     OW56931   7.265   8.047   5.659 -0.0996  0.0865 -0.2537
18572SOL    HW156932   7.210   8.028   5.582  0.8139 -1.1130 -0.6406
18572SOL    HW256933   7.339   8.097   5.623 -1.0986  2.0950  0.3332
18573SOL     OW56934   5.776   7.434   7.101 -0.2045 -0.6320  0.0571
18573SOL    HW156935   5.847   7.415   7.040 -1.0120  0.3052 -1.2108
18573SOL    HW256936   5.789   7.526   7.124 -1.0110 -0.4458 -0.2010
18574SOL     OW56937   5.724   0.049   7.067  0.2277  0.3368  0.3727
18574SOL    HW156938   5.764   0.042   7.153  1.4915  0.8139 -0.1584
18574SOL    HW256939   5.635   0.016   7.079  1.0244 -1.5913  1.4012
18575SOL     OW56940   6.287   7.793   6.793 -0.2911  0.5799  0.3427
18575SOL    HW156941   6.366   7.840   6.817 -0.0099 -0.2452  1.0336
18575SOL    HW256942   6.241   7.853   6.733 -0.1921  1.9545  1.5901
18576SOL     OW56943   7.330   7.986   7.193 -0.2066 -0.2968 -0.3796
18576SOL    HW156944   7.320   7.939   7.110  1.3106 -1.1090 -0.1496
18576SOL    HW256945   7.332   7.917   7.260  1.7742  0.0476 -0.0102
18577SOL     OW56946   5.764   7.250   6.229 -0.0078  0.1252  0.4664
18577SOL    HW156947   5.674   7.234   6.202  0.3483 -0.4410 -0.4596
18577SOL    HW256948   5.762   7.336   6.269 -0.6041  1.0644 -1.4321
18578SOL     OW56949   7.034   8.332   6.065  0.2224  0.0589 -0.0380
18578SOL    HW156950   6.989   8.247   6.064 -2.1833  1.2425 -1.7399
18578SOL    HW256951   7.078   8.336   5.980 -1.9769  1.5781 -1.1780
18579SOL     OW56952   6.943   7.948   6.477 -0.1931 -0.3317  0.0916
18579SOL    HW156953   7.026   7.990   6.500 -0.0511 -1.1900  1.2512
18579SOL    HW256954   6.937   7.956   6.382  0.6726  0.7308  0.1093
18580SOL     OW56955   7.624   8.689   7.237  0.0305  0.2495 -0.4128
18580SOL    HW156956   7.684   8.717   7.168  0.2533  0.8024 -0.0034
18580SOL    HW256957   7.539   8.726   7.212  0.0918  0.3722 -0.4379
18581SOL     OW56958   6.360   8.080   7.106  0.1774  0.2941  0.2542
18581SOL    HW156959   6.283   8.028   7.129  0.1796  0.5416  0.8390
18581SOL    HW256960   6.424   8.016   7.077  0.2199 -0.0574  1.0760
18582SOL     OW56961   7.280   7.487   5.435 -0.1414 -0.4655 -0.5015
18582SOL    HW156962   7.349   7.422   5.450  0.9667  0.5242 -1.1423
18582SOL    HW256963   7.294   7.516   5.345 -1.1409  0.0654 -0.4946
18583SOL     OW56964   7.195   8.197   5.873  0.3878  0.1012  0.6523
18583SOL    HW156965   7.227   8.134   5.938  0.8783 -0.7351 -0.3569
18583SOL    HW256966   7.210   8.153   5.789 -0.0449  1.2343 -0.0338
18584SOL     OW56967   6.315   7.654   6.355  0.4366 -0.2383  0.4733
18584SOL    HW156968   6.386   7.643   6.292  1.4053 -0.8235  1.6290
18584SOL    HW256969   6.354   7.703   6.427 -0.4609 -0.1839  0.9386
18585SOL     OW56970   5.535   7.799   6.570 -0.7066  0.0793 -0.0833
18585SOL    HW156971   5.565   7.746   6.497 -0.2266 -0.9057  0.7991
18585SOL    HW256972   5.581   7.883   6.559 -0.1691 -0.2717 -0.5640
18586SOL     OW56973   6.364   7.653   7.123  0.4173 -0.1412 -0.0394
18586SOL    HW156974   6.279   7.687   7.093  1.2492  1.1195 -1.0691
18586SOL    HW256975   6.428   7.713   7.086  1.7025 -0.2355  1.9283
18587SOL     OW56976   6.995   7.542   7.036 -0.5633 -0.3002 -0.2297
18587SOL    HW156977   6.909   7.524   6.998 -0.3697 -1.5502 -0.1103
18587SOL    HW256978   6.993   7.499   7.121 -0.0678  0.2798  0.0777
18588SOL     OW56979   5.522   8.295   5.898  0.1250 -0.2295  0.0666
18588SOL    HW156980   5.436   8.258   5.920 -0.1523 -0.6439 -1.5502
18588SOL    HW256981   5.581   8.260   5.965 -0.9956  0.2550  1.3533
18589SOL     OW56982   6.747   7.520   6.936 -0.0732  0.0443 -0.0429
18589SOL    HW156983   6.719   7.516   6.844  1.3548 -1.6074 -0.4636
18589SOL    HW256984   6.667   7.504   6.986 -0.6937 -0.0149 -1.0268
18590SOL     OW56985   5.816   7.578   6.675 -0.2464 -0.5909 -0.7417
18590SOL    HW156986   5.837   7.484   6.682  0.3918 -0.3675  1.2538
18590SOL    HW256987   5.738   7.589   6.730  1.6193  0.5057  1.9378
18591SOL     OW56988   5.979   8.080   7.535 -0.0938  0.3904  0.2012
18591SOL    HW156989   6.042   8.015   7.566  0.2886  0.5921 -0.1325
18591SOL    HW256990   5.916   8.089   7.606  0.8229  0.9350  0.9676
18592SOL     OW56991   6.830   8.071   6.977  0.0460 -0.0540  0.0595
18592SOL    HW156992   6.754   8.122   7.008  0.4663  1.3064 -1.0190
18592SOL    HW256993   6.792   7.995   6.933 -0.6786  0.3173  0.0279
18593SOL     OW56994   6.272   8.038   6.206  0.0773 -0.2447  0.0597
18593SOL    HW156995   6.307   7.983   6.136 -1.4715  0.1808 -1.0938
18593SOL    HW256996   6.299   8.126   6.183  1.8216 -0.3533  1.4570
18594SOL     OW56997   7.005   7.826   7.147  0.1481  0.1490 -0.3492
18594SOL    HW156998   6.999   7.740   7.104 -1.1146  0.3379 -0.5807
18594SOL    HW256999   6.932   7.827   7.208  0.7855  0.6603  0.4219
18595SOL     OW57000   6.212   7.560   6.866  0.2045  0.1256  0.2563
18595SOL    HW157001   6.278   7.532   6.930 -0.2910  0.9187  1.1334
18595SOL    HW257002   6.244   7.645   6.836 -0.1595  0.2809  0.3111
18596SOL     OW57003   6.238   7.843   5.827  0.2499  0.6664  0.6533
18596SOL    HW157004   6.205   7.917   5.776  0.9469 -0.0300 -0.8667
18596SOL    HW257005   6.175   7.773   5.812 -0.8243  1.1211  2.7035
18597SOL     OW57006   5.657   8.502   7.176  0.1982 -0.1272  0.1213
18597SOL    HW157007   5.749   8.498   7.150 -0.1743 -3.3408 -1.1716
18597SOL    HW257008   5.610   8.519   7.094 -0.4208  4.7634  1.1585
18598SOL     OW57009   7.237   8.530   6.956 -0.0955 -0.3589  0.0540
18598SOL    HW157010   7.170   8.463   6.969 -0.4403 -0.5016 -2.1904
18598SOL    HW257011   7.320   8.486   6.978 -0.1497 -2.0252 -2.6562
18599SOL     OW57012   6.878   8.497   6.256 -0.0778  0.4017 -0.5499
18599SOL    HW157013   6.926   8.433   6.203 -0.7435 -2.0305  1.6130
18599SOL    HW257014   6.792   8.504   6.214 -1.2018 -2.7784  0.9747
18600SOL     OW57015   5.632   8.580   6.709 -0.3901  0.8759 -0.4761
18600SOL    HW157016   5.676   8.613   6.788 -2.9295  0.6908  1.1145
18600SOL    HW257017   5.644   8.650   6.644  0.9513  1.4502  0.3445
18601SOL     OW57018   7.310   7.652   5.958 -0.1971  0.1933 -0.4168
18601SOL    HW157019   7.351   7.732   5.924 -1.2909  0.3617 -1.4410
18601SOL    HW257020   7.229   7.684   5.999  0.8555 -0.0628  2.0259
18602SOL     OW57021   6.507   8.808   6.276  0.0561  0.5264 -0.2139
18602SOL    HW157022   6.489   8.742   6.343  2.7707 -1.1466 -0.9969
18602SOL    HW257023   6.581   8.857   6.309  0.1437  1.0156 -1.1035
18603SOL     OW57024   6.071   8.669   6.515 -0.0388  0.3857  0.4739
18603SOL    HW157025   6.140   8.608   6.541 -0.5570  0.1242  1.2856
18603SOL    HW257026   6.045   8.641   6.427  2.1690  1.6598 -0.6653
18604SOL     OW57027   7.090   7.468   6.616  0.2484  0.8904 -0.1235
18604SOL    HW157028   7.017   7.411   6.641  0.7107  0.0308 -0.7384
18604SOL    HW257029   7.047   7.548   6.584 -0.4464  0.1451 -1.0866
18605SOL     OW57030   5.924   7.679   6.224  0.1410 -0.5053  0.3768
18605SOL    HW157031   5.899   7.604   6.278  0.3192 -1.1140 -0.3799
18605SOL    HW257032   5.983   7.643   6.158  0.3753  0.3346  0.1151
18606SOL     OW57033   6.334   8.238   6.714 -0.4533  0.0292  0.0149
18606SOL    HW157034   6.315   8.187   6.635 -0.4033  1.1127 -0.7175
18606SOL    HW257035   6.394   8.307   6.685 -0.6811  0.6366  0.9281
18607SOL     OW57036   6.553   8.522   5.884 -0.4262 -0.5768  0.1604
18607SOL    HW157037   6.460   8.518   5.863 -0.7371 -0.2452  1.4230
18607SOL    HW257038   6.591   8.573   5.813 -1.0024 -1.6741 -0.9795
18608SOL     OW57039   6.141   8.257   6.920  0.2915 -0.3645  0.6380
18608SOL    HW157040   6.107   8.168   6.911  0.6668 -0.2881 -2.8782
18608SOL    HW257041   6.215   8.260   6.860  1.1974  1.9553  1.7568
18609SOL     OW57042   7.207   0.187   6.771 -0.2369  0.2158 -0.0828
18609SOL    HW157043   7.135   0.162   6.828 -0.1376  0.2103  0.0397
18609SOL    HW257044   7.273   0.119   6.784 -0.5961 -0.3034 -0.9075
18610SOL     OW57045   6.540   8.258   6.393  0.0048 -0.1553  0.2270
18610SOL    HW157046   6.559   8.267   6.299  1.4214 -2.4053  0.2093
18610SOL    HW257047   6.452   8.221   6.396 -0.1655  0.2076 -0.2089
18611SOL     OW57048   6.690   7.642   6.463  0.2890 -0.6120 -0.2254
18611SOL    HW157049   6.606   7.678   6.492  1.2027  0.7374  0.8388
18611SOL    HW257050   6.683   7.640   6.367 -0.2952  1.2086 -0.2559
18612SOL     OW57051   7.235   7.778   6.412 -0.2040  0.0024 -0.2627
18612SOL    HW157052   7.225   7.789   6.507  2.1043 -0.4400  0.0842
18612SOL    HW257053   7.230   7.683   6.399 -1.3404  0.1088 -0.7301
18613SOL     OW57054   5.940   8.316   7.408  0.4006 -0.0177 -0.5598
18613SOL    HW157055   5.959   8.259   7.483  1.4578 -0.1925 -0.9473
18613SOL    HW257056   5.928   8.255   7.334 -0.9957  0.1289 -0.4940
18614SOL     OW57057   6.001   7.409   6.949 -0.1271  0.0069  0.0401
18614SOL    HW157058   6.047   7.329   6.974 -0.1795 -0.0758 -0.1293
18614SOL    HW257059   6.070   7.468   6.919 -0.0567  0.1260  0.4289
18615SOL     OW57060   5.128   7.391   5.315 -0.1416 -0.2805 -0.1582
18615SOL    HW157061   5.081   7.340   5.381  1.2171 -2.0474 -0.4676
18615SOL    HW257062   5.158   7.326   5.252  0.0121  1.1741 -1.6376
18616SOL     OW57063   6.750   7.998   6.653 -0.1029 -0.2174 -0.0333
18616SOL    HW157064   6.752   7.916   6.702  1.7258  0.3560  0.9493
18616SOL    HW257065   6.814   7.986   6.583 -0.4315  0.0837 -0.3882
18617SOL     OW57066   5.537   7.283   6.073 -0.1898 -0.4566 -0.0476
18617SOL    HW157067   5.491   7.366   6.077  0.2222 -0.2598  1.2887
18617SOL    HW257068   5.598   7.292   6.001  0.7352  0.8968  0.8529
18618SOL     OW57069   6.524   7.854   7.052 -0.2210  0.4150  0.2105
18618SOL    HW157070   6.578   7.856   7.131  0.0248  0.9565  0.0383
18618SOL    HW257071   6.587   7.860   6.980 -0.3721 -1.1153 -0.0695
18619SOL     OW57072   6.076   7.694   7.140 -0.6098  0.3598 -0.2730
18619SOL    HW157073   6.102   7.606   7.166 -0.4888  0.6021  0.4510
18619SOL    HW257074   5.992   7.683   7.097  0.2219 -0.3220 -1.7940
18620SOL     OW57075   7.398   8.811   7.157  0.2413  0.1640 -0.0703
18620SOL    HW157076   7.387   8.883   7.219  0.6277  0.6919 -0.6050
18620SOL    HW257077   7.378   8.850   7.072  0.7356 -0.2880 -0.3958
18621SOL     OW57078   7.110   7.969   6.938  0.2129  0.1042 -0.0342
18621SOL    HW157079   7.047   8.039   6.956  0.8013  0.5908  0.1385
18621SOL    HW257080   7.105   7.913   7.015  1.6537  1.3905  1.0538
18622SOL     OW57081   6.388   7.834   5.591 -0.1405  0.0776  0.1775
18622SOL    HW157082   6.396   7.929   5.589  0.5813  0.1279  2.2332
18622SOL    HW257083   6.367   7.814   5.683  1.1556 -1.8124  0.1364
18623SOL     OW57084   6.471   7.779   6.532  0.8442 -0.0193  0.1551
18623SOL    HW157085   6.436   7.818   6.612 -1.0133 -0.7948 -0.2363
18623SOL    HW257086   6.493   7.854   6.477 -1.6366  0.5875 -0.1467
18624SOL     OW57087   7.208   7.550   6.854 -0.1984 -0.6332  0.0641
18624SOL    HW157088   7.146   7.562   6.926  0.2329  0.7016  0.2345
18624SOL    HW257089   7.158   7.505   6.786 -0.3911 -2.6981  1.4791
18625SOL     OW57090   7.322   8.056   6.818  0.1341  0.3193  0.6286
18625SOL    HW157091   7.243   8.043   6.871 -0.4584  1.2287 -0.0218
18625SOL    HW257092   7.325   8.150   6.800 -0.7916 -0.1705 -2.6348
18626SOL     OW57093   5.970   8.668   6.085 -0.1482 -0.5793  0.5778
18626SOL    HW157094   6.042   8.720   6.119 -1.6154  1.5376  0.6059
18626SOL    HW257095   5.909   8.659   6.159 -1.3607  0.3941 -0.2567
18627SOL     OW57096   6.479   7.985   6.781 -0.4098  0.6898  0.5527
18627SOL    HW157097   6.448   8.072   6.758 -1.1319  0.1069 -0.8057
18627SOL    HW257098   6.568   7.981   6.744 -1.1815  0.1274 -1.4082
18628SOL     OW57099   6.929   8.507   5.759  0.4079  0.3830 -0.0226
18628SOL    HW157100   6.974   8.448   5.699  1.8298  0.6737  0.7064
18628SOL    HW257101   6.883   8.449   5.819 -0.7072  0.0854 -1.1221
18629SOL     OW57102   5.788   8.670   6.320  0.0240  0.0667 -0.0408
18629SOL    HW157103   5.801   8.584   6.359  0.5734 -0.0899 -0.5486
18629SOL    HW257104   5.734   8.717   6.383  0.5679 -0.3051  0.7158
18630SOL     OW57105   6.636   0.127   6.676  0.0255  0.0547 -0.0836
18630SOL    HW157106   6.566   0.061   6.680  0.9382 -1.0524 -1.5095
18630SOL    HW257107   6.683   0.116   6.759 -1.5708  0.9853  1.0144
18631SOL     OW57108   7.255   7.791   6.680  0.5795 -0.1414  0.2286
18631SOL    HW157109   7.227   7.718   6.735  0.6987  0.2827  0.8623
18631SOL    HW257110   7.222   7.868   6.725 -1.2654  0.1177 -1.4601
18632SOL     OW57111   6.124   7.555   6.048  0.1187 -0.1055  0.6048
18632SOL    HW157112   6.133   7.584   5.958 -0.5668  0.5539  0.7380
18632SOL    HW257113   6.049   7.495   6.048 -0.3455  0.4642  0.8567
18633SOL     OW57114   7.031   0.382   6.596  0.3773  0.5603  0.4022
18633SOL    HW157115   7.047   0.350   6.685  0.9903  1.0953  0.4908
18633SOL    HW257116   7.102   0.346   6.544 -0.9486 -1.2387 -0.2701
18634SOL     OW57117   5.981   7.821   6.672 -0.0235 -0.0126 -0.1378
18634SOL    HW157118   5.937   7.737   6.683  0.3919 -0.1626  0.4399
18634SOL    HW257119   6.030   7.813   6.590 -1.9948  0.5825 -1.4513
18635SOL     OW57120   6.761   7.806   6.879  0.1918  0.0271  0.5834
18635SOL    HW157121   6.830   7.815   6.945  0.5712 -1.4199  0.4169
18635SOL    HW257122   6.753   7.712   6.866 -0.5005  0.2614 -0.8017
18636SOL     OW57123   6.142   7.151   6.603  0.3102  0.2153 -0.1322
18636SOL    HW157124   6.118   7.146   6.510  2.9461 -0.2405 -0.8566
18636SOL    HW257125   6.203   7.225   6.608 -1.0016  1.2586  1.5839
18637SOL     OW57126   5.655   8.774   6.092 -0.2408 -0.1648  0.0159
18637SOL    HW157127   5.622   8.708   6.031 -0.6743 -0.7419  0.8471
18637SOL    HW257128   5.710   8.725   6.153 -0.6823  0.2036  0.7289
18638SOL     OW57129   6.875   7.658   5.755  0.2394  0.1483  0.4550
18638SOL    HW157130   6.916   7.575   5.728 -0.5155 -0.0908  0.0159
18638SOL    HW257131   6.891   7.717   5.681  0.4547  0.2920  0.6128
18639SOL     OW57132   6.472   7.913   6.047 -0.2406 -0.1602 -0.5317
18639SOL    HW157133   6.494   7.831   6.002  2.3283 -0.2846  0.7646
18639SOL    HW257134   6.523   7.910   6.128 -0.1860  2.6707 -0.3738
18640SOL     OW57135   6.628   7.516   6.685 -0.4440  0.4380 -0.0350
18640SOL    HW157136   6.665   7.545   6.602  2.1482 -1.5152  0.3017
18640SOL    HW257137   6.581   7.435   6.664  0.2273 -0.0668  0.3710
18641SOL     OW57138   5.339   7.830   5.833  0.1533  0.0751 -0.2066
18641SOL    HW157139   5.368   7.892   5.767  1.1448  0.7125  0.7800
18641SOL    HW257140   5.244   7.826   5.822  0.3987 -0.8342 -2.4782
18642SOL     OW57141   5.220   8.074   7.628 -0.0856  0.2936 -0.0884
18642SOL    HW157142   5.268   8.063   7.710 -0.0191 -1.4411 -0.3236
18642SOL    HW257143   5.136   8.032   7.643 -0.0499 -0.0951 -0.9165
18643SOL     OW57144   5.614   7.424   8.031  0.6611  0.2726  0.0839
18643SOL    HW157145   5.648   7.417   8.120 -0.5586  1.9007  0.7211
18643SOL    HW257146   5.554   7.498   8.034 -1.1429 -1.0380 -1.5536
18644SOL     OW57147   5.309   7.798   7.958 -0.3177 -0.2027 -0.1845
18644SOL    HW157148   5.398   7.768   7.978 -1.7317 -2.9694  2.9225
18644SOL    HW257149   5.297   7.778   7.866  1.6766 -1.6293 -0.1982
18645SOL     OW57150   6.200   8.806   8.454 -0.1139 -0.2131 -0.2120
18645SOL    HW157151   6.279   8.777   8.410 -0.8639 -0.0810 -1.6992
18645SOL    HW257152   6.137   8.736   8.440 -0.0709 -0.6952  1.6566
18646SOL     OW57153   7.163   0.231   8.134  0.2735  0.9722 -0.0442
18646SOL    HW157154   7.085   0.286   8.129 -0.0606  0.4894 -0.3235
18646SOL    HW257155   7.159   0.192   8.221  0.5224  1.4064  0.1621
18647SOL     OW57156   6.782   8.346   7.862 -0.3739  0.3068 -0.1599
18647SOL    HW157157   6.767   8.440   7.875  0.1164  0.3194  0.3779
18647SOL    HW257158   6.863   8.328   7.911  0.2091 -0.1550 -1.2629
18648SOL     OW57159   6.851   8.330   7.357  0.2106  0.1100 -0.4700
18648SOL    HW157160   6.876   8.251   7.308 -0.6335 -0.7686  0.4836
18648SOL    HW257161   6.932   8.358   7.400  0.5260 -0.2052 -0.8546
18649SOL     OW57162   6.568   8.648   8.118 -0.6001 -0.5703  0.4272
18649SOL    HW157163   6.510   8.572   8.126 -0.7064 -0.4134  1.3137
18649SOL    HW257164   6.639   8.618   8.061 -2.9711  0.1159 -3.2357
18650SOL     OW57165   6.503   8.362   8.263  0.4417 -0.4298 -0.0635
18650SOL    HW157166   6.415   8.400   8.270 -0.7007 -3.0796  1.9467
18650SOL    HW257167   6.498   8.302   8.189 -0.1771 -2.0665  1.2317
18651SOL     OW57168   5.550   8.684   8.200  0.2592 -0.8482  0.1451
18651SOL    HW157169   5.574   8.754   8.261  0.0582 -0.3369 -0.3555
18651SOL    HW257170   5.480   8.637   8.245  0.9461 -1.2444  0.8366
18652SOL     OW57171   5.699   7.539   0.506  0.0564  0.3340 -0.0689
18652SOL    HW157172   5.755   7.495   0.570 -0.8630  2.4623  2.3928
18652SOL    HW257173   5.757   7.602   0.463  0.1717  0.6743  0.5611
18653SOL     OW57174   7.364   8.408   8.090 -0.4170  0.5027 -0.2786
18653SOL    HW157175   7.411   8.325   8.095 -0.9369  0.1187 -1.4653
18653SOL    HW257176   7.349   8.433   8.181 -0.3406 -0.7550  0.0904
18654SOL     OW57177   6.469   8.734   8.363 -0.0868 -0.0393 -0.2319
18654SOL    HW157178   6.526   8.692   8.427  0.3544  1.6450  0.5367
18654SOL    HW257179   6.499   8.701   8.279 -1.1160 -2.8381  0.3733
18655SOL     OW57180   6.238   8.325   7.513  0.6889  0.1184 -0.6903
18655SOL    HW157181   6.257   8.329   7.607  1.8451  0.4140 -0.9137
18655SOL    HW257182   6.266   8.237   7.487  0.7440  0.1768 -0.8311
18656SOL     OW57183   5.446   7.832   7.625 -0.0519 -0.3806  0.0236
18656SOL    HW157184   5.384   7.767   7.658 -0.4655 -0.0877 -0.1829
18656SOL    HW257185   5.454   7.895   7.696 -0.9402  0.2484 -0.4261
18657SOL     OW57186   7.208   8.118   8.335 -0.0269 -0.2702  1.3026
18657SOL    HW157187   7.208   8.083   8.245  0.7557 -0.6770  1.4463
18657SOL    HW257188   7.120   8.101   8.367 -0.0463 -0.9714  0.9182
18658SOL     OW57189   7.347   8.680   7.763  0.2094  0.3062 -0.1771
18658SOL    HW157190   7.315   8.741   7.830 -1.2299 -1.1555  0.5118
18658SOL    HW257191   7.421   8.636   7.805  1.7859  2.0489 -0.9586
18659SOL     OW57192   6.292   8.828   8.725  0.5201  0.6303  0.2795
18659SOL    HW157193   6.285   8.804   8.633  1.8095 -0.6644  0.4808
18659SOL    HW257194   6.230   8.900   8.736  0.7236  1.1671 -1.7048
18660SOL     OW57195   6.166   7.400   7.586 -0.3794 -0.0673  0.1479
18660SOL    HW157196   6.106   7.356   7.647  1.5013 -2.7293  0.2224
18660SOL    HW257197   6.246   7.414   7.637  0.5207 -0.4721 -1.1233
18661SOL     OW57198   5.598   8.182   8.353  0.2750 -0.1537 -0.3534
18661SOL    HW157199   5.562   8.253   8.406  1.5614  0.3655 -0.1166
18661SOL    HW257200   5.603   8.107   8.412 -1.6487 -0.6619 -0.7641
18662SOL     OW57201   7.462   8.403   7.102 -0.2916 -0.1492  0.0650
18662SOL    HW157202   7.507   8.424   7.184  1.5213 -0.7844 -0.7205
18662SOL    HW257203   7.386   8.351   7.129  0.8491 -1.2366  1.2850
18663SOL     OW57204   7.252   8.818   8.029  0.3185 -0.3431  0.3823
18663SOL    HW157205   7.338   8.816   8.071  1.1821 -0.8515 -1.3124
18663SOL    HW257206   7.232   8.911   8.020  0.7318 -0.2168  0.6911
18664SOL     OW57207   6.361   8.042   7.436  0.4372 -0.1409 -0.1942
18664SOL    HW157208   6.332   8.052   7.345  0.3293  1.1395 -0.0381
18664SOL    HW257209   6.303   7.975   7.473  0.4053 -0.5861 -1.0239
18665SOL     OW57210   7.303   8.474   8.669  0.0731 -0.6359  0.2212
18665SOL    HW157211   7.364   8.519   8.610  0.4391 -0.9785  0.3281
18665SOL    HW257212   7.227   8.453   8.614  1.3921 -3.1268 -0.8306
18666SOL     OW57213   6.274   7.919   0.072 -0.6179 -0.6507 -0.0492
18666SOL    HW157214   6.330   7.994   0.055 -1.1149 -0.2435  0.1048
18666SOL    HW257215   6.335   7.846   0.084  0.0029  0.1517  2.1528
18667SOL     OW57216   6.395   8.011   8.156  0.0371 -0.6749 -0.0701
18667SOL    HW157217   6.418   7.938   8.098  1.3656 -0.0341 -0.3878
18667SOL    HW257218   6.441   8.086   8.120 -0.3742  0.0838  0.9258
18668SOL     OW57219   6.394   7.896   7.718 -0.9833 -0.0359 -0.2333
18668SOL    HW157220   6.375   7.952   7.793 -0.3599 -0.0174 -0.0816
18668SOL    HW257221   6.489   7.900   7.708 -0.9716 -0.7197 -0.4930
18669SOL     OW57222   5.677   8.162   7.755 -0.2694 -0.2012  0.0655
18669SOL    HW157223   5.641   8.177   7.667 -0.1000  1.6926  0.2738
18669SOL    HW257224   5.748   8.225   7.762 -0.4875 -0.1095  1.6728
18670SOL     OW57225   5.800   7.701   7.130 -0.4213  0.0669  0.7164
18670SOL    HW157226   5.797   7.778   7.187 -0.6967  0.5829  0.0197
18670SOL    HW257227   5.780   7.735   7.043 -0.5489 -0.7981  0.3986
18671SOL     OW57228   7.156   8.498   7.696  0.0210 -0.1809 -0.0786
18671SOL    HW157229   7.205   8.421   7.725  0.1469 -0.2577 -0.4828
18671SOL    HW257230   7.220   8.570   7.699 -0.7544  0.5237  2.9255
18672SOL     OW57231   6.255   7.334   8.348 -0.0186  0.0745 -0.3127
18672SOL    HW157232   6.179   7.324   8.292  0.5107  0.2335 -1.0662
18672SOL    HW257233   6.329   7.344   8.288  0.9974 -2.6156  0.3202
18673SOL     OW57234   7.338   8.451   8.360 -0.4368  0.1153  0.8341
18673SOL    HW157235   7.371   8.378   8.413 -1.7210  0.5843  2.3616
18673SOL    HW257236   7.242   8.441   8.364 -0.6485 -0.9252 -3.0178
18674SOL     OW57237   5.971   8.551   7.633 -0.1665 -0.2975  0.0319
18674SOL    HW157238   6.024   8.631   7.643 -0.6326  0.3679 -2.3969
18674SOL    HW257239   5.882   8.579   7.655  0.0062 -0.7491  1.4057
18675SOL     OW57240   7.478   8.489   7.392  0.0838 -0.4314 -0.0543
18675SOL    HW157241   7.558   8.541   7.384 -0.6577  0.8503  0.6703
18675SOL    HW257242   7.484   8.448   7.479 -0.4404  0.3596  0.3616
18676SOL     OW57243   7.162   8.783   7.445 -0.2363  0.1972  0.1267
18676SOL    HW157244   7.170   8.715   7.377  0.0856  0.4081 -0.0470
18676SOL    HW257245   7.239   8.838   7.433 -0.9396  1.1248 -0.3078
18677SOL     OW57246   7.089   7.727   7.803 -0.4830  0.1675  0.1031
18677SOL    HW157247   7.052   7.673   7.873 -0.0243 -1.6016 -0.9389
18677SOL    HW257248   7.065   7.817   7.826 -1.1147 -0.4427  2.0281
18678SOL     OW57249   6.145   7.895   8.136  0.5658  0.0857  0.4111
18678SOL    HW157250   6.095   7.940   8.205  1.5876  1.4923  0.2774
18678SOL    HW257251   6.234   7.928   8.145  1.0532 -0.8687 -0.6308
18679SOL     OW57252   6.036   7.648   7.601  0.2806 -0.0036  0.0886
18679SOL    HW157253   5.977   7.627   7.529 -0.9025  0.2570  0.9570
18679SOL    HW257254   6.096   7.573   7.607 -1.8425 -1.7114  1.0937
18680SOL     OW57255   6.569   8.201   8.043  0.3352  0.3302  0.1926
18680SOL    HW157256   6.654   8.242   8.029  0.6375 -0.2685  0.2760
18680SOL    HW257257   6.537   8.180   7.956  0.9120 -0.7295  0.2154
18681SOL     OW57258   5.969   7.437   7.985  0.4985  0.2653 -0.0567
18681SOL    HW157259   5.904   7.457   8.053 -2.4089  1.8073 -2.9823
18681SOL    HW257260   6.025   7.514   7.981  0.7293  0.1336  0.6482
18682SOL     OW57261   7.245   8.574   7.262  0.0882  0.2646 -0.0674
18682SOL    HW157262   7.338   8.562   7.283 -0.0329 -2.8879 -0.8154
18682SOL    HW257263   7.240   8.567   7.167 -0.8472  1.4138 -0.1326
18683SOL     OW57264   5.787   7.291   7.493  0.1152  0.2202  0.5035
18683SOL    HW157265   5.754   7.366   7.444 -0.8548 -1.8610 -2.3325
18683SOL    HW257266   5.877   7.279   7.464 -0.2191 -0.5746 -0.2536
18684SOL     OW57267   6.421   7.310   7.706 -0.4576 -0.5420  0.1297
18684SOL    HW157268   6.459   7.280   7.623 -0.2875 -0.3735  0.1469
18684SOL    HW257269   6.339   7.260   7.714 -1.0753  0.2871 -0.7194
18685SOL     OW57270   7.164   0.132   8.375  0.5037 -0.8837  0.6351
18685SOL    HW157271   7.178   0.176   8.459  0.6383 -0.8043  0.5720
18685SOL    HW257272   7.194   0.043   8.389  0.5631 -0.8599  0.6603
18686SOL     OW57273   6.643   8.653   8.552  0.1210  0.7186 -0.4729
18686SOL    HW157274   6.704   8.583   8.527  0.1282 -0.0573  1.5409
18686SOL    HW257275   6.648   8.656   8.647 -2.6104  0.9769 -0.2676
18687SOL     OW57276   6.768   8.140   7.554  0.1548  0.0322 -0.3938
18687SOL    HW157277   6.789   8.232   7.574  2.0664 -0.6317  1.0263
18687SOL    HW257278   6.850   8.105   7.518  0.5763 -1.9037  2.1916
18688SOL     OW57279   5.721   7.692   8.255 -0.3818 -0.0577  0.1460
18688SOL    HW157280   5.787   7.712   8.189 -0.0729  0.8323  0.7037
18688SOL    HW257281   5.765   7.631   8.315 -0.5246 -0.5369 -0.2318
18689SOL     OW57282   6.363   7.580   7.847 -0.1152  0.2471 -0.1468
18689SOL    HW157283   6.411   7.632   7.783  1.2717  0.0314  0.6629
18689SOL    HW257284   6.414   7.498   7.853 -1.7203 -0.8460 -0.7181
18690SOL     OW57285   6.499   7.500   8.135  0.2006  0.0859  0.2886
18690SOL    HW157286   6.453   7.422   8.106  0.1409  0.2038  0.0588
18690SOL    HW257287   6.592   7.475   8.134  0.1657 -0.0420  0.4027
18691SOL     OW57288   7.025   8.416   8.043 -0.2287  0.1949  0.1225
18691SOL    HW157289   7.103   8.426   7.989 -0.9069 -0.7804 -1.0802
18691SOL    HW257290   6.995   8.506   8.059  0.3817  0.5185 -0.5231
18692SOL     OW57291   7.507   8.176   8.142  0.2374  0.3155 -0.0266
18692SOL    HW157292   7.573   8.131   8.194 -2.5089 -1.2804  2.3718
18692SOL    HW257293   7.507   8.130   8.058  3.9741  2.2022 -1.2673
18693SOL     OW57294   7.318   8.273   7.727 -0.0260 -0.4397 -0.2034
18693SOL    HW157295   7.307   8.203   7.791  0.4954 -1.3607 -1.0830
18693SOL    HW257296   7.410   8.299   7.734  0.2023 -0.9858 -0.9897
18694SOL     OW57297   7.663   0.052   7.717  0.1023  0.2014  0.2095
18694SOL    HW157298   7.675  -0.043   7.718 -1.3859 -0.0244 -0.6735
18694SOL    HW257299   7.666   0.077   7.809  0.7100 -0.6587  0.4433
18695SOL     OW57300   6.807   7.762   7.686 -0.8692 -0.3599 -0.1128
18695SOL    HW157301   6.793   7.852   7.715  2.2659  0.8875 -1.9821
18695SOL    HW257302   6.820   7.712   7.766 -0.7388  1.2566  0.9076
18696SOL     OW57303   6.036   8.028   7.884  0.3253 -0.3166  0.2245
18696SOL    HW157304   6.102   8.073   7.830 -0.7776  0.4730 -0.4979
18696SOL    HW257305   6.087   7.984   7.952  1.4809  1.8898  0.8730
18697SOL     OW57306   7.736   0.043   0.110 -0.4952  0.1576  0.5766
18697SOL    HW157307   7.717  -0.011   0.033 -1.5579 -0.4266  1.2091
18697SOL    HW257308   7.741  -0.020   0.182  0.6165  0.6793  0.9751
18698SOL     OW57309   6.511   0.118   8.547  0.1605  0.4950 -0.7781
18698SOL    HW157310   6.466   0.074   8.619  0.2350  0.1174 -0.9604
18698SOL    HW257311   6.556   0.047   8.499  0.6090  0.8126 -0.8381
18699SOL     OW57312   6.436   8.443   8.680 -0.3141 -0.5617 -0.7277
18699SOL    HW157313   6.521   8.485   8.683 -0.7996  0.3889  1.1826
18699SOL    HW257314   6.387   8.482   8.752 -2.3394 -1.1710 -1.6901
18700SOL     OW57315   7.097   8.395   8.488 -0.3209  0.2983  0.2442
18700SOL    HW157316   7.017   8.443   8.508  0.0618  1.0031  0.1096
18700SOL    HW257317   7.067   8.308   8.462 -1.0522  0.6166  0.0036
18701SOL     OW57318   6.974   8.700   7.615  0.0999 -0.4553  0.3558
18701SOL    HW157319   7.024   8.722   7.537 -0.9990 -1.9723 -0.8389
18701SOL    HW257320   7.020   8.624   7.652  0.2047 -0.1860  0.7820
18702SOL     OW57321   5.399   8.075   7.841 -0.7251 -0.2394  0.0370
18702SOL    HW157322   5.416   8.065   7.935 -2.9372  1.0557  0.6711
18702SOL    HW257323   5.475   8.121   7.807 -0.2419 -0.0029  1.3854
18703SOL     OW57324   6.380   8.054   8.432  0.4775  0.4174 -0.2654
18703SOL    HW157325   6.353   8.143   8.453 -0.5253  0.3161 -1.0295
18703SOL    HW257326   6.385   8.053   8.336  1.8322  0.0216 -0.2133
18704SOL     OW57327   6.512   8.374   7.744 -0.0934  0.2475 -0.1893
18704SOL    HW157328   6.518   8.390   7.650  1.1415 -0.9351 -0.3446
18704SOL    HW257329   6.596   8.333   7.767 -0.6567 -0.1528  1.2984
18705SOL     OW57330   6.130   7.662   7.996 -0.1398 -0.2543  0.1129
18705SOL    HW157331   6.208   7.641   7.944 -0.7117  0.5537 -1.1082
18705SOL    HW257332   6.158   7.733   8.053 -0.2299  0.7087 -1.0182
18706SOL     OW57333   7.068   8.706   6.834  0.1885  0.1376 -0.5419
18706SOL    HW157334   7.127   8.653   6.886 -0.5715  0.2114  0.4326
18706SOL    HW257335   7.043   8.778   6.892 -0.7098  0.2020 -0.9893
18707SOL     OW57336   7.274   8.027   8.050 -0.4146 -0.3495  0.4276
18707SOL    HW157337   7.290   7.946   8.098  2.7558  0.1123  0.3467
18707SOL    HW257338   7.347   8.034   7.989 -1.5541  1.7007 -0.8126
18708SOL     OW57339   6.206   8.364   8.257 -0.3606  0.2579  0.0855
18708SOL    HW157340   6.226   8.328   8.343 -1.3218  1.2549  0.7642
18708SOL    HW257341   6.161   8.294   8.211  1.7721 -0.9244 -0.3213
18709SOL     OW57342   6.697   8.419   8.446  0.5782 -0.4314  0.3409
18709SOL    HW157343   6.645   8.398   8.369 -0.0312  1.1945  0.2689
18709SOL    HW257344   6.715   8.335   8.487 -0.8762 -1.1430 -0.4307
18710SOL     OW57345   6.894   7.940   7.892  0.0984 -0.1558  0.0640
18710SOL    HW157346   6.936   8.002   7.952  3.3588 -2.1080  0.0691
18710SOL    HW257347   6.880   7.861   7.946 -0.1498 -0.7642 -0.8752
18711SOL     OW57348   5.824   7.503   8.482  0.0882  0.4423  0.1854
18711SOL    HW157349   5.795   7.451   8.556 -0.7918 -0.6599 -0.8993
18711SOL    HW257350   5.915   7.524   8.502  0.3396 -1.1594  0.8489
18712SOL     OW57351   5.448   7.800   8.341 -0.0315 -0.1301  0.4722
18712SOL    HW157352   5.513   7.736   8.314 -0.1405 -0.3145  0.6386
18712SOL    HW257353   5.438   7.786   8.435 -0.9135 -0.6740  0.3120
18713SOL     OW57354   5.873   7.797   8.553 -0.0555  0.0890  0.1992
18713SOL    HW157355   5.778   7.789   8.550 -0.3389  2.0987  1.6042
18713SOL    HW257356   5.906   7.707   8.546 -2.0775 -0.7151  0.5522
18714SOL     OW57357   5.524   7.216   8.310 -0.7267  0.3720  0.0668
18714SOL    HW157358   5.563   7.151   8.252  1.3340  0.8757  0.7962
18714SOL    HW257359   5.496   7.166   8.387 -0.7493  0.1019 -0.1190
18715SOL     OW57360   7.274   7.420   7.967 -0.2665 -0.5433 -0.2546
18715SOL    HW157361   7.279   7.342   7.911  0.8846 -1.9765  1.7011
18715SOL    HW257362   7.345   7.476   7.937  0.1969 -1.1930 -0.3981
18716SOL     OW57363   5.994   7.824   8.805  0.8146  0.0606  0.2384
18716SOL    HW157364   5.952   7.803   8.722  0.1920  0.1963  0.5139
18716SOL    HW257365   5.969   7.915   8.823 -0.3177 -0.4307  1.3069
18717SOL     OW57366   7.113   7.743   7.519  0.1664  0.1513 -0.5802
18717SOL    HW157367   7.156   7.659   7.509 -0.3250 -0.2710  0.6120
18717SOL    HW257368   7.080   7.742   7.609 -0.1444  1.4760 -0.6606
18718SOL     OW57369   6.946   8.110   7.229  0.0146  0.1303 -0.0669
18718SOL    HW157370   6.966   8.039   7.290 -2.0207  0.6536  1.3267
18718SOL    HW257371   6.903   8.067   7.155 -2.1348 -0.0827  1.2180
18719SOL     OW57372   6.316   8.204   7.843 -0.2660 -0.6180  0.5560
18719SOL    HW157373   6.246   8.257   7.881  0.4377  0.6944  0.0619
18719SOL    HW257374   6.382   8.267   7.815 -0.0609 -1.6390 -1.4039
18720SOL     OW57375   5.653   7.978   7.958  0.4894  0.8330 -0.0562
18720SOL    HW157376   5.669   8.036   7.884  1.8803 -0.5856 -0.9264
18720SOL    HW257377   5.740   7.947   7.984  0.0446  1.2642  2.1889
18721SOL     OW57378   6.630   7.976   8.563  0.0864  0.4569 -0.3621
18721SOL    HW157379   6.648   7.921   8.487 -0.0088 -0.9778  0.6306
18721SOL    HW257380   6.547   8.019   8.542  1.1705  1.8891 -2.0330
18722SOL     OW57381   5.945   8.655   7.381 -0.2408  0.3539  0.4799
18722SOL    HW157382   5.860   8.678   7.343 -0.5809 -0.3575  0.7897
18722SOL    HW257383   5.973   8.735   7.426 -0.6069  0.6865  0.1247
18723SOL     OW57384   6.262   8.304   8.524 -0.2782 -0.5055  0.1728
18723SOL    HW157385   6.342   8.337   8.565  0.1691  1.3014 -1.9687
18723SOL    HW257386   6.196   8.310   8.593  0.7476  0.8870  1.1026
18724SOL     OW57387   5.630   7.996   8.734  0.1928 -0.0709 -0.1519
18724SOL    HW157388   5.655   8.013   8.825  0.6969  0.5902 -0.4041
18724SOL    HW257389   5.655   7.905   8.719  1.9093  0.3748 -0.1916
18725SOL     OW57390   6.512   7.593   7.334  0.7903 -0.3626 -0.4304
18725SOL    HW157391   6.476   7.642   7.260  1.5445 -1.2143 -1.3804
18725SOL    HW257392   6.461   7.512   7.336  1.4825 -0.8153 -0.7042
18726SOL     OW57393   7.900   8.406   8.549 -0.2074 -0.6732  0.0725
18726SOL    HW157394   7.954   8.387   8.625  0.5574  0.1540 -0.2383
18726SOL    HW257395   7.822   8.352   8.560  0.6562 -1.8524  0.5684
18727SOL     OW57396   6.752   7.448   8.155 -0.3648  0.2368 -1.2355
18727SOL    HW157397   6.817   7.441   8.225 -1.1432  1.9367 -0.2741
18727SOL    HW257398   6.782   7.387   8.088  1.3802 -0.1361 -0.1779
18728SOL     OW57399   5.698   7.769   7.581  0.5264  0.2862 -0.7640
18728SOL    HW157400   5.748   7.793   7.659 -1.0064 -0.1830  0.4107
18728SOL    HW257401   5.609   7.796   7.600 -0.1513 -1.0992 -1.7676
18729SOL     OW57402   5.976   8.669   8.401  0.0122 -0.4078 -0.0596
18729SOL    HW157403   5.924   8.744   8.431 -0.5764 -0.7390 -0.2418
18729SOL    HW257404   5.920   8.624   8.338  0.5795 -0.6892 -0.3706
18730SOL     OW57405   6.944   8.661   8.615  0.2966 -0.0832 -0.3764
18730SOL    HW157406   7.033   8.668   8.651  0.3769  3.7894 -0.9042
18730SOL    HW257407   6.891   8.715   8.673 -1.4093 -0.9226 -1.0979
18731SOL     OW57408   6.649   8.475   7.466 -0.0675 -0.8785  0.1884
18731SOL    HW157409   6.699   8.556   7.461 -0.9970 -0.1832  1.3938
18731SOL    HW257410   6.705   8.409   7.426  0.9849  0.2357 -0.2266
18732SOL     OW57411   5.432   8.491   7.920  0.4075  0.3171 -0.4752
18732SOL    HW157412   5.370   8.419   7.934 -0.0494  0.9174  0.6935
18732SOL    HW257413   5.378   8.562   7.885  0.7092  0.3817 -0.8163
18733SOL     OW57414   7.366   7.867   7.429 -0.0846 -0.2396 -0.3597
18733SOL    HW157415   7.313   7.797   7.469 -0.5138  1.2013  1.8119
18733SOL    HW257416   7.329   7.948   7.465  3.4541  0.8890  1.2174
18734SOL     OW57417   7.107   8.394   7.436  0.1548 -0.0196 -0.1953
18734SOL    HW157418   7.115   8.440   7.520  2.4554 -1.3542  0.4029
18734SOL    HW257419   7.138   8.457   7.371 -2.2073  1.2407 -0.2135
18735SOL     OW57420   6.133   8.409   8.745 -0.5135  0.1880  0.1220
18735SOL    HW157421   6.176   8.494   8.756  0.6603 -0.1026 -1.7321
18735SOL    HW257422   6.045   8.430   8.715  0.1681  0.8101 -1.5938
18736SOL     OW57423   7.728   8.025   8.233  0.1743 -0.4215 -0.3597
18736SOL    HW157424   7.673   8.006   8.309  0.4128 -0.6143 -0.2335
18736SOL    HW257425   7.791   8.090   8.265  0.4455 -0.7039 -0.3176
18737SOL     OW57426   5.868   7.793   8.019 -0.2492 -0.0351 -0.1227
18737SOL    HW157427   5.875   7.810   7.926  0.4978  2.3428  0.2951
18737SOL    HW257428   5.952   7.754   8.043 -1.0680 -2.2810 -0.6741
18738SOL     OW57429   6.297   8.496   0.138  0.3369  0.0504 -0.0005
18738SOL    HW157430   6.259   8.408   0.141  0.2660  0.0884  0.2722
18738SOL    HW257431   6.335   8.509   0.225  1.1782 -0.0746 -0.3405
18739SOL     OW57432   6.561   7.673   7.589  0.2451  0.2444  0.0695
18739SOL    HW157433   6.626   7.743   7.586  0.7537 -0.2274 -0.1636
18739SOL    HW257434   6.546   7.651   7.497 -0.0185  0.1361  0.1360
18740SOL     OW57435   5.776   8.536   8.273 -0.4049 -0.3168 -0.0780
18740SOL    HW157436   5.756   8.447   8.245 -0.6903  0.1901 -1.5361
18740SOL    HW257437   5.704   8.589   8.241 -0.0822  0.4971  0.5021
18741SOL     OW57438   7.523   8.633   8.573  0.0796 -0.3066  0.1440
18741SOL    HW157439   7.557   8.694   8.639  0.1360 -0.7846  0.5646
18741SOL    HW257440   7.562   8.548   8.596 -1.9182 -1.0383  1.0885
18742SOL     OW57441   6.896   8.614   8.336  0.3541  0.3875 -0.0147
18742SOL    HW157442   6.830   8.549   8.357  2.4075 -0.6643  4.2958
18742SOL    HW257443   6.926   8.646   8.421  3.0958  3.1794 -1.8298
18743SOL     OW57444   6.466   7.782   8.005 -0.0636 -0.3320  0.7628
18743SOL    HW157445   6.446   7.751   7.917 -1.2352 -0.9584  1.2303
18743SOL    HW257446   6.507   7.707   8.048  3.2069  0.8157 -0.0655
18744SOL     OW57447   7.077   7.784   8.342 -0.3010 -0.2466  0.1003
18744SOL    HW157448   6.985   7.769   8.360 -0.2032 -1.6624 -0.5092
18744SOL    HW257449   7.122   7.753   8.421 -0.4496  3.5278  1.9054
18745SOL     OW57450   6.202   7.648   8.809 -0.0659 -0.2807  0.1975
18745SOL    HW157451   6.127   7.707   8.813  0.0604 -0.1113  0.0771
18745SOL    HW257452   6.264   7.692   8.751  0.1677 -0.3763  0.3765
18746SOL     OW57453   5.358   7.655   7.142  0.1938  0.1036  0.2533
18746SOL    HW157454   5.419   7.655   7.215 -0.6637  0.0059  0.9930
18746SOL    HW257455   5.272   7.663   7.183 -0.3996 -1.2486 -0.6576
18747SOL     OW57456   5.894   7.834   7.761  0.4992  0.3849  0.3073
18747SOL    HW157457   5.953   7.908   7.774  1.3703 -0.4774  1.4192
18747SOL    HW257458   5.949   7.766   7.721 -0.0661  0.0101  0.1554
18748SOL     OW57459   6.152   8.275   0.264  0.7160 -0.2204  0.1003
18748SOL    HW157460   6.103   8.198   0.234 -1.5882  1.0010  0.4652
18748SOL    HW257461   6.220   8.240   0.320 -1.6695 -1.9412  2.1453
18749SOL     OW57462   7.583   8.574   8.289 -0.0218  0.7428 -0.7324
18749SOL    HW157463   7.619   8.628   8.359 -1.2393  1.2916 -0.5002
18749SOL    HW257464   7.503   8.537   8.326  1.1463 -1.8559 -0.6263
18750SOL     OW57465   6.611   7.937   7.484 -0.3059 -0.3766 -0.2346
18750SOL    HW157466   6.520   7.966   7.473 -0.3054 -0.1164  0.4157
18750SOL    HW257467   6.659   8.017   7.506  0.3013 -0.3029 -1.7456
18751SOL     OW57468   6.043   7.985   8.379 -0.1613 -0.3151  0.0239
18751SOL    HW157469   6.015   7.933   8.454  1.4544  1.5082  2.0072
18751SOL    HW257470   6.129   8.019   8.403  0.4041  0.4217 -2.6528
18752SOL     OW57471   7.656   8.289   0.037 -0.1906  0.4056  0.1919
18752SOL    HW157472   7.668   8.212   0.092  0.3294  0.2626 -0.1090
18752SOL    HW257473   7.577   8.330   0.070 -1.6474 -1.3490 -0.9420
18753SOL     OW57474   6.676   0.272   7.689  0.1176 -0.5878  0.4579
18753SOL    HW157475   6.757   0.321   7.675 -0.1504 -0.2533  0.0635
18753SOL    HW257476   6.648   0.297   7.778  0.5323 -0.8377  0.6645
18754SOL     OW57477   5.912   8.496   8.630 -0.1223 -0.5191 -0.0613
18754SOL    HW157478   5.855   8.426   8.597 -0.9813 -0.2021  0.6838
18754SOL    HW257479   5.924   8.555   8.556  1.1354 -1.7463 -0.8916
18755SOL     OW57480   6.524   8.547   6.936 -0.3566 -0.2407  0.1713
18755SOL    HW157481   6.439   8.591   6.935  0.0349  0.5906 -2.2819
18755SOL    HW257482   6.549   8.545   7.029 -1.5870  2.3912  0.6332
18756SOL     OW57483   6.110   8.296   7.971  0.2955 -0.5825  0.0120
18756SOL    HW157484   6.047   8.257   8.031 -2.0217  1.3667 -0.9585
18756SOL    HW257485   6.142   8.374   8.017  1.5776 -1.2220  0.2453
18757SOL     OW57486   6.903   7.630   8.497  0.2632 -0.8006  0.1438
18757SOL    HW157487   6.811   7.623   8.471  0.2360 -1.0498  0.3033
18757SOL    HW257488   6.949   7.570   8.439  0.0933 -1.9940  1.2006
18758SOL     OW57489   6.154   7.884   7.592 -0.0414 -0.3851 -0.4211
18758SOL    HW157490   6.129   7.791   7.592  0.2641 -0.4847  0.5188
18758SOL    HW257491   6.239   7.885   7.636  1.2503  0.0431 -2.7908
18759SOL     OW57492   7.290   8.746   8.425  0.0724  0.2093  0.3335
18759SOL    HW157493   7.339   8.677   8.382 -1.1341 -1.7774  1.9686
18759SOL    HW257494   7.329   8.754   8.512 -1.1254  0.0902  0.9006
18760SOL     OW57495   5.374   8.085   8.717  0.3659  0.4744 -0.1601
18760SOL    HW157496   5.466   8.059   8.727  0.2720  0.5267  0.8906
18760SOL    HW257497   5.340   8.025   8.651  1.3466  0.9574 -1.1438
18761SOL     OW57498   6.944   8.152   8.399 -0.9764 -0.5415 -0.1050
18761SOL    HW157499   6.915   8.197   8.478 -0.2737  3.0846 -1.7247
18761SOL    HW257500   6.863   8.130   8.353 -1.3186  0.1508  0.1578
18762SOL     OW57501   6.830   7.149   8.391 -0.2577 -0.1726  0.3086
18762SOL    HW157502   6.741   7.185   8.390 -1.8817 -3.6411  1.7731
18762SOL    HW257503   6.856   7.152   8.483  1.6415  1.6143 -0.2101
18763SOL     OW57504   6.765   0.021   7.742  0.4053  0.4404 -0.3152
18763SOL    HW157505   6.817  -0.021   7.674 -0.5024  2.0123 -2.0622
18763SOL    HW257506   6.745   0.108   7.707 -0.9202  0.9509  1.5474
18764SOL     OW57507   7.112   7.292   7.716 -0.2800  0.7132 -0.4816
18764SOL    HW157508   7.170   7.251   7.780 -0.9450 -0.7202 -0.7718
18764SOL    HW257509   7.028   7.300   7.763 -0.0667  2.1467 -0.2927
18765SOL     OW57510   6.750   8.020   8.265  0.1774 -0.0310  0.1693
18765SOL    HW157511   6.669   8.047   8.222  0.3705 -0.2468 -0.3356
18765SOL    HW257512   6.752   7.925   8.257  0.6568  0.0022 -0.1433
18766SOL     OW57513   6.751   7.748   8.251  0.2186 -0.2035  0.1034
18766SOL    HW157514   6.701   7.691   8.309  0.1767 -0.6612 -0.3657
18766SOL    HW257515   6.781   7.690   8.181  3.5208 -0.5377  1.5766
18767SOL     OW57516   5.919   8.293   7.716  0.4870  0.4915 -0.5838
18767SOL    HW157517   5.953   8.374   7.678 -1.0808  0.7299 -1.5641
18767SOL    HW257518   5.966   8.284   7.799  1.4801  1.8134 -0.9747
18768SOL     OW57519   7.954   0.617   8.802  0.2638  0.0215 -0.2764
18768SOL    HW157520   7.867   0.618   8.841  0.7995  0.4444  0.9446
18768SOL    HW257521   7.939   0.636   8.709 -0.8782  0.6958  0.0362
18769SOL     OW57522   7.766   0.067   1.238 -0.0338  0.5437  0.3305
18769SOL    HW157523   7.683   0.071   1.190  0.8173  1.0605 -1.1974
18769SOL    HW257524   7.823   0.129   1.191  1.3068 -0.0297  1.1433
18770SOL     OW57525   7.665   0.386   0.748  0.1483  0.3584  0.2100
18770SOL    HW157526   7.700   0.306   0.709  0.9116  0.6706  0.2294
18770SOL    HW257527   7.581   0.360   0.785  1.0792 -0.8117  1.5969
18771SOL     OW57528   7.195   1.546   1.460 -0.0268 -0.7998 -0.2039
18771SOL    HW157529   7.240   1.487   1.520 -0.5080 -0.5736  0.3799
18771SOL    HW257530   7.155   1.488   1.395  0.4838 -1.0414 -0.3115
18772SOL     OW57531   8.813   1.857   0.677  0.0972 -0.3678  0.1248
18772SOL    HW157532   8.879   1.791   0.661 -1.0659 -2.4656  3.0267
18772SOL    HW257533   8.863   1.936   0.699  1.5104 -0.2835 -2.9548
18773SOL     OW57534   8.607   0.879   0.635 -0.2364 -0.2077  0.4227
18773SOL    HW157535   8.636   0.806   0.690 -0.2751 -0.5330  0.0190
18773SOL    HW257536   8.521   0.852   0.604 -1.1086  0.8518  1.7962
18774SOL     OW57537   7.495   1.377   1.293 -0.3503  0.7436  0.6509
18774SOL    HW157538   7.450   1.449   1.249  0.3311  0.6434 -0.2355
18774SOL    HW257539   7.547   1.335   1.224 -0.7431 -0.6086  1.1405
18775SOL     OW57540   8.403   1.466   1.259 -0.1733 -0.5803  0.6007
18775SOL    HW157541   8.348   1.540   1.284 -0.1203 -0.3323  0.0013
18775SOL    HW257542   8.412   1.474   1.164  0.6623 -0.7835  0.6587
18776SOL     OW57543   8.062   1.428   1.078  0.4193  0.9354  0.6870
18776SOL    HW157544   8.103   1.514   1.075  1.6024  0.3956  0.8415
18776SOL    HW257545   7.981   1.442   1.128  0.0184  2.1623 -0.2577
18777SOL     OW57546   8.159   1.620   1.384  0.3989  0.3222 -0.3763
18777SOL    HW157547   8.090   1.680   1.355 -0.5867 -0.2027  0.7793
18777SOL    HW257548   8.142   1.607   1.477  0.8331 -1.4233 -0.5029
18778SOL     OW57549   7.525   1.562   0.883 -0.2687  0.7880  0.4966
18778SOL    HW157550   7.619   1.549   0.892 -0.3034 -1.2098 -1.2316
18778SOL    HW257551   7.513   1.657   0.892  1.8700  1.0699  0.9146
18779SOL     OW57552   8.207   0.612   1.244  0.2873 -0.7574  0.3623
18779SOL    HW157553   8.148   0.623   1.319  0.1509 -0.2909  0.1914
18779SOL    HW257554   8.280   0.562   1.278 -0.0541 -1.0570  0.6634
18780SOL     OW57555   7.599   1.959   0.651  0.5258  0.3527  0.2170
18780SOL    HW157556   7.596   1.913   0.567  1.7606 -1.7411  1.2258
18780SOL    HW257557   7.685   2.001   0.652 -0.8674  3.5275 -1.0080
18781SOL     OW57558   8.601   1.636   1.642  0.3206  0.3006  0.2781
18781SOL    HW157559   8.640   1.688   1.713 -2.2897  3.2700 -0.2099
18781SOL    HW257560   8.625   1.684   1.563  1.2485 -1.6544 -0.6671
18782SOL     OW57561   7.580   1.589   0.516  0.2054  0.1570  0.2928
18782SOL    HW157562   7.669   1.585   0.550  1.6619 -2.6190 -3.2747
18782SOL    HW257563   7.590   1.602   0.422 -3.1850  0.2407 -0.1824
18783SOL     OW57564   7.374   1.438   0.678 -0.3535 -0.0509 -0.1546
18783SOL    HW157565   7.384   1.502   0.608 -0.2558  0.2884  0.1641
18783SOL    HW257566   7.449   1.452   0.735  1.7919 -2.9122 -1.9843
18784SOL     OW57567   7.441   1.924   1.674 -0.4449  0.1835  0.4889
18784SOL    HW157568   7.347   1.939   1.675 -0.1509  2.2904  0.4692
18784SOL    HW257569   7.480   2.009   1.693  1.5206 -0.0318 -2.0182
18785SOL     OW57570   7.915   1.301   0.445 -0.6220  1.1564  0.3461
18785SOL    HW157571   7.979   1.373   0.448  0.1402  0.4493  2.3249
18785SOL    HW257572   7.833   1.344   0.420  0.3329  2.2694 -1.1394
18786SOL     OW57573   7.593   0.769   0.501  0.1346 -0.0199 -0.0543
18786SOL    HW157574   7.574   0.689   0.451  0.0865 -0.4197  0.5883
18786SOL    HW257575   7.641   0.737   0.578  1.3874  0.7204 -0.4918
18787SOL     OW57576   7.370   1.627   0.100 -0.8829 -0.1247  0.2923
18787SOL    HW157577   7.384   1.552   0.043  0.4934 -0.3234  0.8543
18787SOL    HW257578   7.323   1.592   0.175 -2.9174  0.1810 -0.7578
18788SOL     OW57579   0.322   1.267   0.774 -0.5525 -0.1781 -0.2150
18788SOL    HW157580   0.352   1.180   0.800  1.0189  0.6292  0.7903
18788SOL    HW257581   0.336   1.271   0.679  1.8368 -0.1394  0.0907
18789SOL     OW57582   7.355   0.803   1.674 -0.0204 -0.0722 -0.0558
18789SOL    HW157583   7.335   0.743   1.746 -0.3967 -0.0622 -0.1501
18789SOL    HW257584   7.305   0.882   1.694 -1.2688 -0.5858 -1.0651
18790SOL     OW57585   8.405   1.624   0.546 -0.1808  0.5555 -0.0579
18790SOL    HW157586   8.411   1.550   0.486  3.2198  1.3422 -0.9143
18790SOL    HW257587   8.370   1.695   0.492 -3.6094 -0.2883  0.8074
18791SOL     OW57588   8.549   1.804   0.841  0.2198  0.1734  0.0162
18791SOL    HW157589   8.524   1.879   0.896 -1.2449 -0.3795  0.1581
18791SOL    HW257590   8.638   1.824   0.812  1.0265  0.5391  2.5001
18792SOL     OW57591   8.264   8.513   0.500 -0.4002 -0.1160  0.4844
18792SOL    HW157592   8.265   8.418   0.512  3.1444 -0.1798  0.9479
18792SOL    HW257593   8.298   8.526   0.412 -2.9714  0.7880 -0.4655
18793SOL     OW57594   7.458   1.047   1.341  0.3207  0.0062 -0.1271
18793SOL    HW157595   7.374   1.015   1.374  0.3495 -1.9194 -1.7397
18793SOL    HW257596   7.444   1.140   1.325 -1.0348  0.0273  1.0134
18794SOL     OW57597   8.517   2.043   1.738  0.1549 -0.2609 -0.4884
18794SOL    HW157598   8.584   1.979   1.762  1.1664  1.1216  0.5381
18794SOL    HW257599   8.473   2.004   1.663  0.0471 -2.6104  0.6923
18795SOL     OW57600   7.315   0.593   1.875  0.5560  0.3031 -0.7762
18795SOL    HW157601   7.228   0.584   1.838  0.4750  2.6193 -1.3343
18795SOL    HW257602   7.324   0.519   1.935 -1.8036  0.0446 -0.6503
18796SOL     OW57603   7.747   1.124   0.693 -0.3768  0.8714  0.0401
18796SOL    HW157604   7.773   1.120   0.600  1.1655  1.0012  0.4313
18796SOL    HW257605   7.823   1.163   0.737 -0.6229 -0.2452  1.5267
18797SOL     OW57606   8.610   8.848   0.894 -0.3590  0.0838 -0.9179
18797SOL    HW157607   8.602   8.888   0.807 -0.5084  0.9250 -0.5187
18797SOL    HW257608   8.527   8.867   0.937 -0.0905  0.1113 -0.4065
18798SOL     OW57609   8.129   1.036   1.624  0.1544  0.6233  0.2222
18798SOL    HW157610   8.168   0.948   1.630 -1.8304 -0.8566 -4.1359
18798SOL    HW257611   8.197   1.095   1.655  3.6818 -2.1591 -1.4941
18799SOL     OW57612   8.717   0.432   1.305 -0.1895 -0.4859 -0.1854
18799SOL    HW157613   8.655   0.500   1.328  0.6577  0.3335 -0.2592
18799SOL    HW257614   8.795   0.479   1.275  0.6803 -1.4581  0.4407
18800SOL     OW57615   7.982   1.529   1.605 -0.1939  0.1782 -0.0454
18800SOL    HW157616   7.976   1.536   1.700 -1.1810 -2.1721  0.1327
18800SOL    HW257617   7.924   1.597   1.572 -0.2628  0.6609  1.0291
18801SOL     OW57618   8.545   1.009   0.865  0.3057 -0.1569 -0.5681
18801SOL    HW157619   8.560   0.994   0.772  1.9895  0.2296 -0.3735
18801SOL    HW257620   8.451   1.028   0.871  0.8296  4.4724 -2.8229
18802SOL     OW57621   8.266   0.199   0.318 -0.1491  0.0349 -0.6145
18802SOL    HW157622   8.190   0.150   0.287 -0.6094 -0.0031  0.5446
18802SOL    HW257623   8.283   0.262   0.248 -1.4862  0.2960 -0.7397
18803SOL     OW57624   7.341   0.776   0.741  0.1238  0.5728 -0.1721
18803SOL    HW157625   7.384   0.807   0.661  0.9002 -1.8383 -0.7834
18803SOL    HW257626   7.409   0.782   0.808  0.4739 -0.2937 -0.4309
18804SOL     OW57627   7.249   2.087   0.889 -0.0208  0.3918  0.3455
18804SOL    HW157628   7.180   2.085   0.955  0.1349 -1.5008  0.5064
18804SOL    HW257629   7.206   2.062   0.808  0.4630 -0.9380  0.4734
18805SOL     OW57630   8.189   8.631   0.182 -0.1484 -0.1127 -0.1144
18805SOL    HW157631   8.242   8.662   0.108  2.4514 -0.4365  1.4606
18805SOL    HW257632   8.188   8.536   0.172 -1.4203 -0.0486 -0.7214
18806SOL     OW57633   8.579   1.210   1.057  0.0606 -0.1060  0.1575
18806SOL    HW157634   8.513   1.192   1.124 -0.7163  1.6931 -0.0694
18806SOL    HW257635   8.568   1.139   0.994  0.8805 -1.9067  1.9317
18807SOL     OW57636   8.075   0.051   1.025 -0.2216 -0.3294  0.6064
18807SOL    HW157637   8.047   0.120   1.084 -0.3446 -1.1604  1.5461
18807SOL    HW257638   8.034   0.072   0.941 -0.4068  0.6198  0.9296
18808SOL     OW57639   8.568   1.870   0.300 -0.5504 -0.3799 -0.1899
18808SOL    HW157640   8.536   1.780   0.297 -1.4079 -0.2332  2.3857
18808SOL    HW257641   8.549   1.900   0.389  0.5631  2.0515 -0.6786
18809SOL     OW57642   7.381   1.689   1.338  0.2353  0.2160 -0.0367
18809SOL    HW157643   7.305   1.660   1.388  1.7485  1.2364  3.1355
18809SOL    HW257644   7.388   1.627   1.265 -2.2268 -1.2866  0.8970
18810SOL     OW57645   8.488   1.988   1.005 -0.5904 -0.1485  0.4063
18810SOL    HW157646   8.558   2.054   0.997  1.4567 -2.0285  1.7111
18810SOL    HW257647   8.409   2.039   1.022  0.4460  2.0663 -0.9300
18811SOL     OW57648   7.761   0.968   0.430 -0.0597  0.7036 -0.8133
18811SOL    HW157649   7.830   0.925   0.380  0.0669  0.3626 -0.3498
18811SOL    HW257650   7.708   0.896   0.464 -0.2686  0.9407 -0.6330
18812SOL     OW57651   8.087   1.927   1.524 -0.1392  0.5922 -0.0465
18812SOL    HW157652   8.008   1.888   1.486  0.4540 -0.3968 -0.3245
18812SOL    HW257653   8.080   1.910   1.618 -0.9895  1.8883  0.1390
18813SOL     OW57654   8.371   1.691   0.021  0.1551 -0.3036 -0.1699
18813SOL    HW157655   8.427   1.663   0.094 -1.4724 -1.0703  0.8339
18813SOL    HW257656   8.408   1.647  -0.055  2.5294  1.3323 -0.0803
18814SOL     OW57657   7.942   0.827   1.444 -0.3530 -0.1261 -0.1126
18814SOL    HW157658   8.010   0.893   1.459  0.7020 -0.3813 -3.0339
18814SOL    HW257659   7.866   0.877   1.416 -0.6525  0.0138  0.9093
18815SOL     OW57660   0.338   1.355   0.481 -0.3192  0.4655 -0.5707
18815SOL    HW157661   0.336   1.345   0.386  0.0846 -0.8639 -0.4658
18815SOL    HW257662   0.428   1.333   0.505 -0.5114  0.4468  0.1415
18816SOL     OW57663   7.464   1.887   0.004  0.0427  0.0809 -0.3690
18816SOL    HW157664   7.431   1.802   0.033  0.0995 -0.3805 -1.5933
18816SOL    HW257665   7.400   1.950   0.035  0.2933 -0.3245  1.0650
18817SOL     OW57666   7.611   1.663   1.152 -0.6682  0.6170  0.0878
18817SOL    HW157667   7.562   1.659   1.234 -1.0058  2.6482  0.0419
18817SOL    HW257668   7.605   1.755   1.125 -1.8612 -0.2506 -3.0217
18818SOL     OW57669   8.724   2.141   0.492 -0.1062 -0.0775 -0.3255
18818SOL    HW157670   8.657   2.197   0.452  0.2519 -1.5156 -3.2586
18818SOL    HW257671   8.793   2.202   0.519  0.8028  1.0724 -4.4326
18819SOL     OW57672   7.565   0.965   0.833 -0.1424 -0.0231  0.3176
18819SOL    HW157673   7.623   0.889   0.837 -0.2299 -0.1698 -0.8053
18819SOL    HW257674   7.619   1.035   0.799 -0.0241  0.4826  1.4969
18820SOL     OW57675   8.179   0.141   0.724 -0.5684 -0.5308  0.3736
18820SOL    HW157676   8.213   0.076   0.663  2.0122  0.0988  0.9848
18820SOL    HW257677   8.220   0.223   0.696  0.3496 -0.1486  2.5853
18821SOL     OW57678   8.418   0.481   1.374  0.5912 -0.2497 -0.2282
18821SOL    HW157679   8.365   0.489   1.453  0.5053  0.4127 -0.3420
18821SOL    HW257680   8.445   0.390   1.372 -2.2632 -1.1936 -1.2734
18822SOL     OW57681   7.995   2.160   1.244  0.3636  0.0853  0.3100
18822SOL    HW157682   7.955   2.232   1.195 -0.3918  0.4409  1.4133
18822SOL    HW257683   7.922   2.105   1.271  0.8130 -0.3386  0.6882
18823SOL     OW57684   8.782   0.947   1.021 -0.2982  0.2295  0.1385
18823SOL    HW157685   8.730   0.887   1.075 -0.7819  0.7691  0.2793
18823SOL    HW257686   8.721   0.980   0.956  0.2502 -0.2956 -0.6580
18824SOL     OW57687   8.549   1.532   0.751 -0.3782  0.1962 -0.0433
18824SOL    HW157688   8.561   1.613   0.801  1.5178 -0.5168  0.7385
18824SOL    HW257689   8.495   1.558   0.676  1.0626  2.4278 -0.4035
18825SOL     OW57690   8.592   0.168   0.695 -0.1675 -0.1470 -0.3785
18825SOL    HW157691   8.551   0.179   0.609  0.2883  2.4863 -0.3298
18825SOL    HW257692   8.541   0.225   0.753  0.3873 -0.8298  0.8135
18826SOL     OW57693   7.933   8.677   0.293  0.2457  0.5492 -0.2312
18826SOL    HW157694   7.902   8.716   0.375 -1.4834 -3.3350  1.2090
18826SOL    HW257695   8.017   8.637   0.315  1.7339  2.7774 -1.5344
18827SOL     OW57696   8.569   1.177   8.395  0.0556 -0.5049 -0.1887
18827SOL    HW157697   8.545   1.144   8.308 -2.7338 -2.5976  1.2283
18827SOL    HW257698   8.523   1.120   8.456  0.4378  2.0090  2.6765
18828SOL     OW57699   8.159   8.776   8.548 -0.7579  0.0649  0.0753
18828SOL    HW157700   8.145   8.744   8.637  1.2774  0.5979  0.6181
18828SOL    HW257701   8.197   8.701   8.502  1.1563  0.7049  0.5375
18829SOL     OW57702   8.540   8.837   0.416  0.5771 -0.4605  0.1790
18829SOL    HW157703   8.489   8.849   0.336 -0.4654 -0.8830  0.7515
18829SOL    HW257704   8.627   8.871   0.395 -0.1065  0.8406 -0.6509
18830SOL     OW57705   8.356   1.100   1.183  0.5474 -0.2602  0.0124
18830SOL    HW157706   8.309   1.133   1.259 -1.5192  0.2195 -1.3914
18830SOL    HW257707   8.337   1.006   1.182 -2.3251  0.2167 -1.6919
18831SOL     OW57708   0.015   1.915   0.350 -0.0885  0.1871 -0.1766
18831SOL    HW157709  -0.044   1.856   0.303 -0.0010  0.6504 -0.8901
18831SOL    HW257710  -0.040   1.991   0.371  0.0418  0.2627 -0.1124
18832SOL     OW57711   7.885   1.554   0.602  0.3953 -0.1975  0.4797
18832SOL    HW157712   7.955   1.573   0.539 -0.7738 -0.9642 -1.1077
18832SOL    HW257713   7.893   1.623   0.668  1.9529  0.3607 -0.2398
18833SOL     OW57714   8.730   2.235   8.603 -0.4474  0.0836  0.4168
18833SOL    HW157715   8.795   2.269   8.542 -1.4651  0.2710 -0.5925
18833SOL    HW257716   8.750   2.278   8.686  1.0299 -0.2631  0.2567
18834SOL     OW57717   8.360   0.842   0.475  0.1512 -0.1904  0.6762
18834SOL    HW157718   8.331   0.921   0.521  0.0783 -0.1237  0.5147
18834SOL    HW257719   8.367   0.868   0.383 -0.1622 -0.4476  0.5772
18835SOL     OW57720   7.894   1.285   1.377  1.1621  0.1203  0.0125
18835SOL    HW157721   7.918   1.377   1.365  1.2047  0.3097  1.3793
18835SOL    HW257722   7.808   1.277   1.337  1.5714  0.5132 -0.9794
18836SOL     OW57723   7.928   0.449   0.896 -0.0464  0.2988  0.0037
18836SOL    HW157724   7.995   0.497   0.848 -0.3771  0.2735 -0.4918
18836SOL    HW257725   7.845   0.483   0.862 -0.2832  0.0842  0.3606
18837SOL     OW57726   8.380   0.572   0.367  0.5582 -0.0342 -0.1775
18837SOL    HW157727   8.390   0.647   0.426  2.0762 -1.6487  1.7703
18837SOL    HW257728   8.368   0.611   0.280 -0.0283  2.4375  0.9206
18838SOL     OW57729   7.899   8.357   0.870 -0.4059  0.6560 -0.7792
18838SOL    HW157730   7.973   8.342   0.929 -1.5525 -0.1277  0.5353
18838SOL    HW257731   7.939   8.363   0.783  1.0482 -1.8136 -0.4009
18839SOL     OW57732   7.979   1.825   0.350 -0.2352 -0.0703  0.3625
18839SOL    HW157733   8.041   1.883   0.307 -1.7433  0.9269 -0.5442
18839SOL    HW257734   8.031   1.747   0.372  0.7662 -0.4372 -2.8210
18840SOL     OW57735   8.750   0.176   8.708  0.0745  0.2233 -0.5482
18840SOL    HW157736   8.731   0.193   8.800  0.1767 -0.1933 -0.4482
18840SOL    HW257737   8.845   0.161   8.705  0.0017 -0.2229 -0.6491
18841SOL     OW57738   8.079   0.478   0.500 -0.2882  0.1493 -0.5741
18841SOL    HW157739   8.008   0.432   0.455 -1.1935  1.6131 -0.7292
18841SOL    HW257740   8.141   0.501   0.430 -0.4746  0.2793 -0.6981
18842SOL     OW57741   8.169   1.674   1.044 -0.0867  0.2781  0.5172
18842SOL    HW157742   8.246   1.696   1.097  0.8766 -1.2536 -0.1448
18842SOL    HW257743   8.194   1.702   0.955 -0.1184 -0.5733  0.2340
18843SOL     OW57744   8.559   1.566   0.238 -0.0669 -0.4847 -0.6262
18843SOL    HW157745   8.641   1.579   0.285  0.0361  1.0444 -1.1857
18843SOL    HW257746   8.568   1.480   0.197  1.4653 -0.1354 -1.0765
18844SOL     OW57747   8.272   0.247   1.490 -0.1117  0.2701 -0.1085
18844SOL    HW157748   8.329   0.171   1.497 -0.8610 -0.3176 -0.1807
18844SOL    HW257749   8.265   0.280   1.580  0.0324  0.1125 -0.0393
18845SOL     OW57750   8.601   1.575   1.027  0.6040  0.1715  0.2076
18845SOL    HW157751   8.668   1.626   0.981  1.6682 -1.6993 -0.4475
18845SOL    HW257752   8.585   1.499   0.970 -2.1951  0.5904  0.2957
18846SOL     OW57753   8.337   1.378   0.420 -0.1321  0.1191 -0.1141
18846SOL    HW157754   8.424   1.340   0.419 -0.0650  0.2340 -1.6603
18846SOL    HW257755   8.286   1.323   0.361 -0.9406  0.4401  0.2618
18847SOL     OW57756   7.375   1.051   1.053 -0.0739  0.3317  0.9623
18847SOL    HW157757   7.441   1.025   0.988 -1.0699 -3.1682  1.1781
18847SOL    HW257758   7.421   1.047   1.136 -0.0578 -0.2410  0.9316
18848SOL     OW57759   8.723   0.710   0.880 -0.0452 -0.5225 -0.0189
18848SOL    HW157760   8.661   0.714   0.952 -0.1740  0.5842 -0.1646
18848SOL    HW257761   8.789   0.776   0.903 -0.3335  0.1702 -1.1149
18849SOL     OW57762   6.972   1.937   1.339  0.1440  0.0775  0.0268
18849SOL    HW157763   6.924   1.860   1.367  2.6463 -0.3553  3.8753
18849SOL    HW257764   7.034   1.905   1.273 -0.0684 -0.8360  0.2663
18850SOL     OW57765   7.952   1.350   0.801  0.0513  0.5498 -0.5746
18850SOL    HW157766   7.911   1.416   0.744  0.1530  1.4872  0.3997
18850SOL    HW257767   7.987   1.401   0.874 -0.1707 -0.6317  0.3806
18851SOL     OW57768   7.927   0.764   0.986 -0.2957  0.0586 -0.1351
18851SOL    HW157769   7.852   0.786   0.931 -1.5659 -1.4085  0.9336
18851SOL    HW257770   7.999   0.815   0.948 -2.4136  4.1971  0.7351
18852SOL     OW57771   8.805   1.603   0.391  0.0592 -0.5745  0.3370
18852SOL    HW157772   8.870   1.639   0.451  0.7094 -0.1260 -0.6123
18852SOL    HW257773   8.855   1.578   0.314 -0.8103 -0.7884 -0.1704
18853SOL     OW57774   8.816   1.699   0.933 -0.4370 -0.1533 -0.0844
18853SOL    HW157775   8.907   1.672   0.946  0.1545  1.1172 -1.3219
18853SOL    HW257776   8.816   1.744   0.849 -2.2510 -0.2264 -0.1635
18854SOL     OW57777   7.194   1.826   1.140 -0.0329  0.0682 -0.0043
18854SOL    HW157778   7.123   1.814   1.077 -0.1136  1.3042 -0.1737
18854SOL    HW257779   7.247   1.746   1.131  1.0796  0.9787 -3.1304
18855SOL     OW57780   8.183   1.121   1.383  0.5768 -0.0392  0.1245
18855SOL    HW157781   8.114   1.185   1.401  0.9381  0.3296  0.2118
18855SOL    HW257782   8.185   1.065   1.461 -0.6471 -1.0097 -0.4963
18856SOL     OW57783   8.334   8.714   1.714 -0.0300 -0.1522 -0.0764
18856SOL    HW157784   8.298   8.783   1.771  1.4193  1.4548 -1.0313
18856SOL    HW257785   8.265   8.699   1.649 -0.5773  0.0082  0.4553
18857SOL     OW57786   7.780   8.611   1.634 -0.4485  0.1916 -0.3651
18857SOL    HW157787   7.700   8.631   1.586 -0.9964 -0.0536  0.4210
18857SOL    HW257788   7.767   8.650   1.720  0.3754  0.3416 -0.2972
18858SOL     OW57789   7.873   1.216   1.024 -0.0740  0.2743  0.1382
18858SOL    HW157790   7.952   1.207   1.076  0.0385  0.0518 -0.0724
18858SOL    HW257791   7.903   1.251   0.940 -0.4683  2.6718  0.9008
18859SOL     OW57792   8.569   0.786   1.091 -0.1829 -0.3679 -0.1743
18859SOL    HW157793   8.494   0.845   1.090 -0.5535 -0.8270  0.2006
18859SOL    HW257794   8.558   0.734   1.171  0.3634 -0.6571 -0.2810
18860SOL     OW57795   8.672   0.167   0.155 -0.6542 -0.1387 -0.0212
18860SOL    HW157796   8.732   0.104   0.195 -1.5031 -0.2090  1.1925
18860SOL    HW257797   8.588   0.122   0.152 -1.4652  1.1398  1.5660
18861SOL     OW57798   7.644   0.411   1.150  0.2980  0.1243 -0.1992
18861SOL    HW157799   7.637   0.369   1.235  0.6380 -0.3326 -0.3935
18861SOL    HW257800   7.725   0.378   1.113 -0.4490 -0.6312 -1.2209
18862SOL     OW57801   7.121   1.405   1.026  0.0752  0.0244  0.0869
18862SOL    HW157802   7.055   1.447   0.971  0.5275 -0.8626 -1.1868
18862SOL    HW257803   7.143   1.324   0.979  1.3420 -0.1811  0.9860
18863SOL     OW57804   8.302   0.541   0.964 -0.3899 -0.0069  0.3142
18863SOL    HW157805   8.259   0.575   1.042 -0.6227 -0.0625  0.2122
18863SOL    HW257806   8.276   0.602   0.894 -0.1142  0.0929  0.2968
18864SOL     OW57807   8.101   0.052   0.182 -0.2391 -0.5094  0.3330
18864SOL    HW157808   8.107  -0.042   0.199 -2.5192 -0.8641 -0.4630
18864SOL    HW257809   8.049   0.059   0.102 -3.0309  1.4349  2.1254
18865SOL     OW57810   0.728   0.534   0.267  0.5036  0.1583 -0.0443
18865SOL    HW157811   0.765   0.453   0.302 -0.5696  0.1627  1.1651
18865SOL    HW257812   0.698   0.511   0.179  0.0289 -0.8101  0.3664
18866SOL     OW57813   8.367   0.315   0.548 -0.2152  0.1151 -0.6088
18866SOL    HW157814   8.378   0.403   0.510 -0.2107  0.3458 -0.0734
18866SOL    HW257815   8.311   0.270   0.485 -1.1667  0.8689 -0.3330
18867SOL     OW57816   8.737   1.744   1.856 -0.1297  0.6087 -0.5950
18867SOL    HW157817   8.775   1.690   1.925  0.4290  2.3529  0.5006
18867SOL    HW257818   8.810   1.793   1.820 -0.9935  2.7301  0.3776
18868SOL     OW57819   7.879   1.158   1.656 -0.0401  0.0738  0.4947
18868SOL    HW157820   7.874   1.197   1.568 -0.9492 -0.0989  0.4570
18868SOL    HW257821   7.965   1.116   1.659  0.7203  1.5187  0.3076
18869SOL     OW57822   0.249   1.305   0.221  0.0941 -0.4850  0.4946
18869SOL    HW157823   0.176   1.267   0.172 -0.4595 -0.7606  1.4879
18869SOL    HW257824   0.289   1.230   0.266  2.4326 -0.7188 -1.7690
18870SOL     OW57825   8.560   1.218   0.418 -0.1790  0.6643  0.2079
18870SOL    HW157826   8.529   1.136   0.455 -3.2339  0.9690 -1.3675
18870SOL    HW257827   8.598   1.265   0.493  0.4047 -1.5583  1.4005
18871SOL     OW57828   7.468   1.221   0.555  0.8225 -0.0849  0.0092
18871SOL    HW157829   7.515   1.179   0.627 -0.8277  1.3193  2.0303
18871SOL    HW257830   7.424   1.296   0.596 -0.5594  0.5102 -2.3895
18872SOL     OW57831   7.745   0.924   1.242 -0.8347 -0.0473  0.3029
18872SOL    HW157832   7.778   0.892   1.158  0.2107  0.2012  0.6171
18872SOL    HW257833   7.694   0.850   1.276 -0.9778 -0.2754 -0.3758
18873SOL     OW57834   8.480   0.493   2.012 -0.3239  0.2006  0.1032
18873SOL    HW157835   8.547   0.438   2.054  1.0712  3.1991  2.1485
18873SOL    HW257836   8.420   0.517   2.082 -1.2365  0.8014 -0.8499
18874SOL     OW57837   8.493   1.076   1.598  0.0243  0.0806  0.1923
18874SOL    HW157838   8.537   1.154   1.566  0.5336 -0.5263 -0.6334
18874SOL    HW257839   8.551   1.004   1.574 -0.9261 -0.6414 -0.0138
18875SOL     OW57840   7.503   1.847   0.904  0.4677 -0.0310  0.6911
18875SOL    HW157841   7.561   1.875   0.833  1.8804 -1.7422  1.0861
18875SOL    HW257842   7.415   1.868   0.873  1.1578  0.8850 -0.7780
18876SOL     OW57843   7.585   1.883   0.405  0.0562 -0.1132  1.0911
18876SOL    HW157844   7.573   1.810   0.344 -1.9597  0.3586  0.8496
18876SOL    HW257845   7.633   1.949   0.355 -1.7410  0.3512 -0.1430
18877SOL     OW57846   8.211   1.219   0.991 -0.0360 -0.3980 -0.2793
18877SOL    HW157847   8.156   1.290   1.024  2.1171  2.0800 -1.6329
18877SOL    HW257848   8.246   1.178   1.070  0.2451  1.4245  0.6071
18878SOL     OW57849   7.398   0.788   1.204  0.4772 -0.1139  0.3099
18878SOL    HW157850   7.386   0.862   1.264  0.1810 -0.6211  0.8921
18878SOL    HW257851   7.488   0.760   1.220  0.6808  0.2861 -0.1110
18879SOL     OW57852   7.944   0.876   1.858  0.0648 -0.2235  0.0306
18879SOL    HW157853   8.030   0.865   1.898  0.4385  0.8042 -0.4725
18879SOL    HW257854   7.918   0.965   1.881 -0.5926 -0.3145 -0.3525
18880SOL     OW57855   7.999   0.622   0.694  0.5705  0.3919 -0.5891
18880SOL    HW157856   8.080   0.669   0.715  1.2108  0.1270 -2.3239
18880SOL    HW257857   8.021   0.570   0.617 -0.2564 -2.4079  0.9333
18881SOL     OW57858   7.195   1.883   1.568 -0.4603 -0.1230 -0.1239
18881SOL    HW157859   7.215   1.810   1.508 -1.9969 -0.0938 -0.7241
18881SOL    HW257860   7.099   1.884   1.572 -0.4075  0.5290  1.5652
18882SOL     OW57861   8.460   0.336   0.869 -0.1633 -0.2347 -0.6544
18882SOL    HW157862   8.518   0.314   0.942  1.4117  0.3588 -1.6571
18882SOL    HW257863   8.389   0.386   0.908  0.0708 -0.8532  0.6002
18883SOL     OW57864   8.435   1.791   1.206  0.0737 -0.7000 -0.0799
18883SOL    HW157865   8.460   1.857   1.142 -0.6376  0.4691  0.8246
18883SOL    HW257866   8.517   1.762   1.245  0.4018 -0.5122 -0.6280
18884SOL     OW57867   7.881   0.431   0.260 -0.0374 -0.3246  0.2417
18884SOL    HW157868   7.796   0.473   0.253 -0.0093 -0.4334 -1.0180
18884SOL    HW257869   7.943   0.495   0.224  0.4377 -0.2044  1.2381
18885SOL     OW57870   7.347   1.425   1.780 -0.0611  0.1363  0.2772
18885SOL    HW157871   7.333   1.368   1.705  0.9964 -1.3256  1.1370
18885SOL    HW257872   7.263   1.426   1.826 -0.3530  0.0333 -0.2468
18886SOL     OW57873   8.290   1.724   0.787 -0.3092  0.7081 -0.0810
18886SOL    HW157874   8.303   1.691   0.698  1.1425 -2.3718  1.1253
18886SOL    HW257875   8.377   1.752   0.815 -0.1798 -0.7974  1.1735
18887SOL     OW57876   8.436   1.040   0.136 -0.3563  0.1470 -0.1376
18887SOL    HW157877   8.446   1.106   0.067 -0.6864 -2.0169 -2.3994
18887SOL    HW257878   8.373   1.079   0.197 -0.1784  2.1014 -1.0982
18888SOL     OW57879   0.179   1.912   1.099  0.3357 -0.2527 -0.0047
18888SOL    HW157880   0.193   1.981   1.034  0.2142  0.4873  0.7294
18888SOL    HW257881   0.225   1.836   1.064  0.7186  0.2817 -0.6973
18889SOL     OW57882   7.081   0.903   0.738 -0.0257  0.0830  0.1512
18889SOL    HW157883   7.166   0.868   0.710  1.9468  0.9386  4.2961
18889SOL    HW257884   7.023   0.827   0.739  1.4206 -1.0754 -0.3038
18890SOL     OW57885   7.925   1.833   1.058 -0.0088 -0.0242 -0.0672
18890SOL    HW157886   8.009   1.796   1.083 -0.5088 -0.6302  0.7652
18890SOL    HW257887   7.912   1.908   1.117 -0.1364 -0.0421 -0.0718
18891SOL     OW57888   8.802   0.226   0.499  0.0925 -0.3345  0.1959
18891SOL    HW157889   8.749   0.302   0.477 -1.4330 -1.5706 -0.6534
18891SOL    HW257890   8.773   0.199   0.586 -0.4947 -0.8355 -0.1458
18892SOL     OW57891   0.021   2.066   0.053 -0.2077  1.0715 -0.8109
18892SOL    HW157892   0.028   2.132   0.122 -2.6377  0.2922  0.2823
18892SOL    HW257893   0.112   2.052   0.024  1.0836  0.7145  2.8953
18893SOL     OW57894   7.452   2.544   1.513  0.2503  0.5069  0.7130
18893SOL    HW157895   7.365   2.505   1.507  0.5780 -0.1717  0.1957
18893SOL    HW257896   7.454   2.609   1.443  0.3145  0.2047  0.4324
18894SOL     OW57897   0.021   1.281   0.977  0.7014 -0.0130  0.2635
18894SOL    HW157898  -0.073   1.268   0.985  0.5595  0.9264  0.2004
18894SOL    HW257899   0.056   1.194   0.957  0.0819 -0.8029  2.3093
18895SOL     OW57900   7.340   1.550   1.109  0.4491  0.3403 -0.6985
18895SOL    HW157901   7.268   1.494   1.081  1.2568 -1.2788  0.3035
18895SOL    HW257902   7.407   1.541   1.041  0.1430  1.0116 -1.1009
18896SOL     OW57903   8.407   2.130   0.081  0.1334  0.8679  0.3720
18896SOL    HW157904   8.350   2.140   0.004 -0.9672 -0.1715  1.0074
18896SOL    HW257905   8.464   2.056   0.058  0.1038  0.8389  0.3940
18897SOL     OW57906   7.920   0.147   0.807 -0.0086  0.1694  0.8096
18897SOL    HW157907   7.904   0.239   0.829  1.4957  0.5721  0.3706
18897SOL    HW257908   8.006   0.147   0.765 -0.3923 -1.3209 -0.0524
18898SOL     OW57909   8.692   1.530   8.830 -0.4049  0.3252  0.4236
18898SOL    HW157910   8.685   1.436   8.844 -0.5230 -0.4301 -3.5624
18898SOL    HW257911   8.785   1.547   8.820 -0.5102  0.1799 -0.9902
18899SOL     OW57912   7.856   1.590   1.194  0.1445 -0.1114 -0.4195
18899SOL    HW157913   7.873   1.665   1.137  1.6276 -0.5415 -0.5880
18899SOL    HW257914   7.762   1.575   1.187  0.3295 -0.5034 -3.2602
18900SOL     OW57915   8.356   1.291   0.750 -0.4279  0.3989  0.3933
18900SOL    HW157916   8.279   1.297   0.807 -1.4111  0.3010 -0.8893
18900SOL    HW257917   8.372   1.381   0.722  0.6000  0.5795  1.4920
18901SOL     OW57918   7.517   1.637   1.755 -0.1062 -0.0685 -0.0444
18901SOL    HW157919   7.486   1.690   1.682 -1.2860  0.1668  0.5936
18901SOL    HW257920   7.451   1.568   1.765  0.7033 -0.8539 -0.0021
18902SOL     OW57921   8.811   1.022   0.549 -0.5736 -0.5052 -0.1918
18902SOL    HW157922   8.780   1.099   0.596  1.3594 -0.2958  0.8237
18902SOL    HW257923   8.747   0.954   0.570 -0.2410 -0.1897  2.0896
18903SOL     OW57924   8.330   8.782   0.590  0.1057  0.4258 -0.5646
18903SOL    HW157925   8.407   8.830   0.559  1.2830  0.3958  1.9975
18903SOL    HW257926   8.336   8.696   0.549  1.7671  0.2629 -0.0658
18904SOL     OW57927   8.296   1.848   0.457  0.6400  0.0563  0.0379
18904SOL    HW157928   8.278   1.904   0.382  0.3608  0.5424  0.4648
18904SOL    HW257929   8.310   1.908   0.529  0.0460 -0.4211  0.5683
18905SOL     OW57930   7.606   1.637   0.245 -0.2348 -0.2956  0.3517
18905SOL    HW157931   7.648   1.555   0.219  0.7492  0.1134  0.5928
18905SOL    HW257932   7.544   1.655   0.175 -2.2673 -2.4741  1.4585
18906SOL     OW57933   7.355   1.268   1.550 -0.7721  1.3646  0.4712
18906SOL    HW157934   7.409   1.221   1.613 -0.5091  0.0109 -0.7087
18906SOL    HW257935   7.417   1.301   1.485 -1.1972  1.1507 -0.0550
18907SOL     OW57936   8.074   0.339   1.286 -0.2640 -0.4694 -0.2838
18907SOL    HW157937   8.045   0.429   1.301 -0.4399 -0.3790 -1.0966
18907SOL    HW257938   8.163   0.336   1.319  0.0890  0.2869 -1.1206
18908SOL     OW57939   7.472   0.677   0.124  0.2930 -0.0881  0.1003
18908SOL    HW157940   7.495   0.668   0.216  0.8076  0.1552 -0.0009
18908SOL    HW257941   7.387   0.633   0.116 -0.7591  1.6358  1.1190
18909SOL     OW57942   8.722   1.491   1.276  0.2828  0.0545 -0.4270
18909SOL    HW157943   8.673   1.510   1.196  1.0512  0.6201 -0.7789
18909SOL    HW257944   8.813   1.481   1.246  0.1936 -2.6298 -0.0348
18910SOL     OW57945   7.711   0.553   0.048  0.7505  0.1175  0.0181
18910SOL    HW157946   7.629   0.602   0.052  1.5313  1.4433  0.3212
18910SOL    HW257947   7.690   0.476  -0.005 -0.3876  1.0101 -0.8779
18911SOL     OW57948   8.099   1.555   0.439  0.2064 -0.3470  0.2805
18911SOL    HW157949   8.124   1.551   0.346 -1.5695 -0.4305 -0.2359
18911SOL    HW257950   8.173   1.516   0.485  2.3297  2.0714 -0.8126
18912SOL     OW57951   8.286   0.836   1.122  0.5424  0.0583 -0.6142
18912SOL    HW157952   8.237   0.840   1.040  0.6197  0.5916 -0.6363
18912SOL    HW257953   8.239   0.771   1.174 -0.1448  0.4946 -0.6699
18913SOL     OW57954   8.256   0.591   1.558 -0.5167 -0.1955  0.7016
18913SOL    HW157955   8.237   0.559   1.646 -0.7799  0.5390  0.9176
18913SOL    HW257956   8.286   0.681   1.571 -0.3414 -0.1558  0.0580
18914SOL     OW57957   8.673   1.727   1.405 -0.4704  0.1502  0.0264
18914SOL    HW157958   8.698   1.637   1.387 -0.8978  0.2559 -1.2271
18914SOL    HW257959   8.715   1.778   1.336 -0.7003  0.8402  0.3869
18915SOL     OW57960   7.186   2.240   1.511 -0.0609  0.3870 -0.5173
18915SOL    HW157961   7.181   2.310   1.576  0.3636 -0.1131  0.0628
18915SOL    HW257962   7.220   2.165   1.559  0.6530  0.1226 -1.4112
18916SOL     OW57963   0.174   0.265   0.162  0.0632  0.2526 -0.2841
18916SOL    HW157964   0.215   0.199   0.218  2.0973  0.8233 -0.9963
18916SOL    HW257965   0.110   0.217   0.111  0.7124 -0.9602  0.0045
18917SOL     OW57966   8.227   0.727   0.745 -0.4763  0.0969 -0.6835
18917SOL    HW157967   8.211   0.820   0.758  2.4096  0.6487 -0.6053
18917SOL    HW257968   8.295   0.723   0.677 -1.9384 -2.0646 -2.1619
18918SOL     OW57969   8.139   1.535   0.158  0.1185 -0.1441  0.0681
18918SOL    HW157970   8.223   1.561   0.119 -0.4528 -1.4087 -2.1584
18918SOL    HW257971   8.074   1.590   0.114 -0.3959 -0.4411  0.4529
18919SOL     OW57972   7.544   2.173   1.743 -0.5897 -0.3284 -0.3233
18919SOL    HW157973   7.562   2.251   1.690 -0.3631 -1.7597 -2.4674
18919SOL    HW257974   7.630   2.145   1.775 -0.5963 -0.0886 -0.0876
18920SOL     OW57975   8.132   0.956   0.870  0.5733 -0.3106 -0.0907
18920SOL    HW157976   8.080   0.983   0.794 -1.0440  0.8831  1.3638
18920SOL    HW257977   8.155   1.038   0.914  0.5776 -1.0101  1.2685
18921SOL     OW57978   8.675   0.795   0.045  0.0453  0.5957 -0.6266
18921SOL    HW157979   8.686   0.746   0.127 -1.6818 -0.8332 -1.1772
18921SOL    HW257980   8.724   0.876   0.059  0.0503  0.2688  1.7104
18922SOL     OW57981   7.711   1.486   1.864  0.3938 -0.6758 -0.1131
18922SOL    HW157982   7.638   1.543   1.840 -0.5994 -1.5422  0.7622
18922SOL    HW257983   7.670   1.411   1.908  1.8961 -0.4839  1.7710
18923SOL     OW57984   7.142   1.301   0.634 -0.5294  0.2847 -0.0977
18923SOL    HW157985   7.194   1.246   0.575 -0.7937 -1.0271  0.8546
18923SOL    HW257986   7.204   1.364   0.669  0.1348 -0.3967 -0.0258
18924SOL     OW57987   8.324   1.556   1.623  0.0520 -0.5146 -0.2095
18924SOL    HW157988   8.317   1.520   1.535 -2.0472 -0.0477 -0.2730
18924SOL    HW257989   8.413   1.592   1.627  0.3159 -0.8856 -1.9902
18925SOL     OW57990   7.683   0.679   0.783  0.1642 -0.2815 -0.3901
18925SOL    HW157991   7.755   0.622   0.756 -0.6436 -1.4606 -0.1076
18925SOL    HW257992   7.626   0.623   0.835  0.2097  1.2304  1.3652
18926SOL     OW57993   7.643   1.212   1.144  0.2138  0.1539 -0.4558
18926SOL    HW157994   7.718   1.227   1.086  0.0715 -0.4922 -0.8170
18926SOL    HW257995   7.670   1.138   1.199  0.8088  1.4903  1.1328
18927SOL     OW57996   8.222   2.001   0.866 -0.1397 -0.7290 -0.3583
18927SOL    HW157997   8.270   2.043   0.794 -0.7386  0.0732 -0.3064
18927SOL    HW257998   8.217   1.909   0.841 -0.7249 -0.3864 -1.5607
18928SOL     OW57999   8.369   8.435   1.678  0.0137  0.2282 -0.8182
18928SOL    HW158000   8.343   8.513   1.727  0.4543  0.5487 -1.0912
18928SOL    HW258001   8.389   8.370   1.745  0.4621  0.6138 -0.5745
18929SOL     OW58002   8.248   8.701   0.842 -0.2394  0.4514 -0.1083
18929SOL    HW158003   8.285   8.753   0.913  2.0232 -0.9992 -0.1354
18929SOL    HW258004   8.291   8.733   0.764  2.3059 -2.2375  0.0308
18930SOL     OW58005   8.557   1.904   0.567 -0.4399 -0.0546 -1.1203
18930SOL    HW158006   8.536   1.814   0.595 -0.9220  0.6969  1.1746
18930SOL    HW258007   8.652   1.911   0.577 -0.2934 -0.4961 -2.0365
18931SOL     OW58008   7.856   1.761   0.817 -0.1875  0.4194 -0.0474
18931SOL    HW158009   7.846   1.850   0.781 -0.1641  0.3035 -0.3419
18931SOL    HW258010   7.891   1.775   0.904  1.1525  0.6561 -0.5981
18932SOL     OW58011   7.650   1.187   0.347 -0.3758 -0.2449 -0.6955
18932SOL    HW158012   7.579   1.188   0.411 -0.5771 -0.3371 -0.9166
18932SOL    HW258013   7.700   1.108   0.367  0.6445  0.6743  0.5219
18933SOL     OW58014   8.347   2.070   0.622  0.0832 -0.3748  0.0988
18933SOL    HW158015   8.438   2.040   0.622 -0.2890 -1.6346  1.6460
18933SOL    HW258016   8.343   2.135   0.551  2.1822 -0.2412  0.0450
18934SOL     OW58017   7.946   0.391   1.645 -0.3372  0.3076 -0.4094
18934SOL    HW158018   7.881   0.459   1.660 -2.7911 -2.2469  2.0394
18934SOL    HW258019   8.001   0.393   1.723  1.0657  0.9260 -1.3877
18935SOL     OW58020   7.627   0.378   2.291  0.7075  0.5297 -0.0139
18935SOL    HW158021   7.556   0.314   2.289  0.3144  0.9644 -0.1576
18935SOL    HW258022   7.706   0.326   2.293  0.4504  0.0147 -1.6733
18936SOL     OW58023   7.643   0.648   2.205 -0.4897  0.1842  0.5306
18936SOL    HW158024   7.635   0.560   2.242  2.2910 -0.4768 -0.2358
18936SOL    HW258025   7.659   0.634   2.112  0.3606  1.4603  0.4506
18937SOL     OW58026   8.276   1.313   2.773  0.5336 -0.2695 -0.1710
18937SOL    HW158027   8.360   1.275   2.745 -0.2602 -0.8783 -1.9258
18937SOL    HW258028   8.227   1.238   2.809 -0.2597 -0.5468 -1.7286
18938SOL     OW58029   8.739   1.208   2.220 -0.6126  0.4335  0.1967
18938SOL    HW158030   8.785   1.198   2.304 -0.4031  2.9045  0.4633
18938SOL    HW258031   8.715   1.119   2.195  0.5408 -0.5155  2.1893
18939SOL     OW58032   0.014   1.075   2.436 -0.1180  0.2517  0.0699
18939SOL    HW158033   0.030   0.998   2.490 -0.7761 -0.5390 -0.8293
18939SOL    HW258034   0.068   1.061   2.358 -0.5454  0.5026 -0.2748
18940SOL     OW58035   8.407   0.600   2.830  0.0934 -0.5652  0.0408
18940SOL    HW158036   8.320   0.611   2.869  1.4557 -1.9232  3.8570
18940SOL    HW258037   8.413   0.506   2.812  1.4011 -0.8574  1.7289
18941SOL     OW58038   8.094   0.904   3.713  0.4037 -0.4097  0.2259
18941SOL    HW158039   8.137   0.864   3.789 -1.0197 -0.2663  1.1505
18941SOL    HW258040   8.053   0.983   3.748  1.6254  0.9381 -1.2000
18942SOL     OW58041   8.232   1.032   2.255 -0.1928 -0.2344 -0.3053
18942SOL    HW158042   8.313   1.033   2.205  0.1296 -1.0508  0.1684
18942SOL    HW258043   8.186   1.111   2.229  0.0896 -0.4884 -1.6645
18943SOL     OW58044   8.251   1.109   3.298 -0.3845 -0.3413  0.1108
18943SOL    HW158045   8.160   1.098   3.270 -0.1521  1.3575 -1.4168
18943SOL    HW258046   8.302   1.103   3.218  0.7731 -0.3145  0.8300
18944SOL     OW58047   7.594   1.501   2.513  0.0505 -0.3195  1.0947
18944SOL    HW158048   7.499   1.498   2.525 -0.2022  0.4904 -0.4549
18944SOL    HW258049   7.624   1.568   2.574 -0.7461  1.2925 -0.1811
18945SOL     OW58050   7.807   0.137   3.246 -1.0107  0.2971 -0.1318
18945SOL    HW158051   7.850   0.054   3.226  1.2000  1.2844  0.1462
18945SOL    HW258052   7.741   0.114   3.311 -1.2125 -1.3845 -0.8650
18946SOL     OW58053   7.977   1.960   2.284 -0.4584 -0.2969  0.1696
18946SOL    HW158054   8.021   1.998   2.361  1.1839 -1.7156 -0.0102
18946SOL    HW258055   7.963   2.035   2.226 -0.6242  0.6110  1.3236
18947SOL     OW58056   8.402   1.626   3.097 -0.4109 -0.2308 -0.5572
18947SOL    HW158057   8.359   1.549   3.132  0.1192 -0.2666  0.0211
18947SOL    HW258058   8.408   1.609   3.003 -2.2647  0.0788 -0.7605
18948SOL     OW58059   7.520   1.588   2.246  0.1103  0.5857 -0.0344
18948SOL    HW158060   7.565   1.540   2.315 -0.6776  0.7480  0.6084
18948SOL    HW258061   7.590   1.635   2.200  0.6443  0.5094  0.6751
18949SOL     OW58062   7.706   0.708   2.538  0.1900 -0.0134 -0.4031
18949SOL    HW158063   7.776   0.662   2.493  1.0714  1.4254 -0.5453
18949SOL    HW258064   7.670   0.767   2.472 -1.7135 -1.2655 -0.5708
18950SOL     OW58065   8.273   1.954   3.017 -0.0166  0.0126  0.1064
18950SOL    HW158066   8.249   2.010   3.090  0.3272  0.1026  0.1497
18950SOL    HW258067   8.368   1.959   3.012 -0.1071  1.1394 -1.2247
18951SOL     OW58068   8.192   0.832   1.978  0.1458  0.1474  0.3959
18951SOL    HW158069   8.229   0.904   2.029 -1.0990  0.7197  0.5253
18951SOL    HW258070   8.266   0.798   1.928  0.4552  2.6930 -1.0638
18952SOL     OW58071   7.366   0.807   2.359 -0.5608  0.4195 -0.0718
18952SOL    HW158072   7.364   0.853   2.276 -2.9161  1.6657  0.5826
18952SOL    HW258073   7.442   0.843   2.405  0.1299  0.4864 -1.2171
18953SOL     OW58074   7.735   1.652   2.112  0.0551 -0.1583  0.4218
18953SOL    HW158075   7.753   1.563   2.082  0.8585  0.4092 -0.8751
18953SOL    HW258076   7.736   1.705   2.032  1.0959  1.2464  1.3186
18954SOL     OW58077   0.143   0.544   2.309 -1.0272 -0.6500 -0.2211
18954SOL    HW158078   0.224   0.592   2.292 -0.7224 -1.1964 -0.3325
18954SOL    HW258079   0.160   0.494   2.388 -0.9421 -1.4490 -0.7333
18955SOL     OW58080   7.585   0.469   3.437  0.0154  0.0365 -0.2450
18955SOL    HW158081   7.663   0.512   3.474 -0.4666  1.2104 -0.5594
18955SOL    HW258082   7.616   0.429   3.356  0.3916  0.1400 -0.1547
18956SOL     OW58083   8.165   1.319   2.531  0.1476  0.0542 -0.3245
18956SOL    HW158084   8.201   1.289   2.615  1.2580 -0.2717 -0.9000
18956SOL    HW258085   8.228   1.384   2.500 -0.6141  0.6690 -0.5878
18957SOL     OW58086   8.325   1.106   3.037  0.0239 -0.5681 -0.1081
18957SOL    HW158087   8.253   1.080   2.981  0.6425 -0.2204 -1.0847
18957SOL    HW258088   8.404   1.092   2.984  0.6275 -0.2815  0.6852
18958SOL     OW58089   7.955   0.067   2.810 -0.0051 -0.0193  0.2875
18958SOL    HW158090   8.023   0.104   2.867 -0.5343  0.9165  0.3273
18958SOL    HW258091   7.899   0.141   2.788 -0.0131 -0.4350 -1.1925
18959SOL     OW58092   7.484   1.133   2.635 -0.0896  0.8097 -0.5882
18959SOL    HW158093   7.542   1.156   2.563 -0.9821  0.2996 -1.4902
18959SOL    HW258094   7.519   1.050   2.669  1.0659  1.6622  0.4095
18960SOL     OW58095   8.655   1.537   3.058 -0.2870  0.4149 -0.4673
18960SOL    HW158096   8.726   1.601   3.054  0.1860 -0.0937 -0.4535
18960SOL    HW258097   8.576   1.588   3.076  0.1262  0.9572 -0.1713
18961SOL     OW58098   7.611   0.541   4.032 -0.1992 -0.5903  0.2049
18961SOL    HW158099   7.604   0.543   3.936  1.0750  0.4312  0.1061
18961SOL    HW258100   7.532   0.586   4.063 -1.2859 -2.0677 -0.2883
18962SOL     OW58101   7.843   0.615   1.772 -0.2800 -0.6537 -0.7197
18962SOL    HW158102   7.878   0.701   1.798  1.1404 -1.8453  1.6267
18962SOL    HW258103   7.777   0.595   1.839  0.5114 -2.0384 -0.3218
18963SOL     OW58104   0.097   8.588   2.481 -0.0510 -0.2491 -0.2371
18963SOL    HW158105   0.039   8.560   2.410 -0.2763 -0.6857  0.1110
18963SOL    HW258106   0.103   8.511   2.538 -0.7057  0.4193  0.7603
18964SOL     OW58107   7.892   1.043   2.915  0.0422 -0.3778  0.0171
18964SOL    HW158108   7.804   1.008   2.903  0.8417 -1.7247 -3.1740
18964SOL    HW258109   7.895   1.120   2.857  0.4683  0.7387  1.4699
18965SOL     OW58110   8.340   0.933   3.481 -0.2305 -0.1296  0.0899
18965SOL    HW158111   8.331   0.966   3.570 -1.9453 -1.2212  0.3707
18965SOL    HW258112   8.301   1.001   3.426  0.7141  0.4866  0.1542
18966SOL     OW58113   8.275   1.396   3.195  0.1759  0.4152  0.0039
18966SOL    HW158114   8.312   1.367   3.278 -0.3211  0.9668  0.4295
18966SOL    HW258115   8.192   1.349   3.189  0.7867 -0.6059 -0.8118
18967SOL     OW58116   8.345   0.347   2.751 -0.1919 -0.6164  0.6412
18967SOL    HW158117   8.375   0.307   2.669 -2.0400 -0.5737 -0.1233
18967SOL    HW258118   8.303   0.276   2.798 -0.5063 -0.3059  0.8352
18968SOL     OW58119   8.344   0.851   1.615  0.2197  0.3127  0.1415
18968SOL    HW158120   8.368   0.804   1.694 -0.0414  0.1657  0.1331
18968SOL    HW258121   8.405   0.926   1.612 -0.5410  0.9934  1.1049
18969SOL     OW58122   7.366   0.921   2.081 -0.0492  0.0240 -0.0618
18969SOL    HW158123   7.410   0.986   2.026 -2.2438  2.6027  0.9789
18969SOL    HW258124   7.300   0.882   2.024  1.6290 -1.8593 -0.8485
18970SOL     OW58125   7.343   1.745   2.937  0.5697 -0.0070  0.1357
18970SOL    HW158126   7.417   1.689   2.914 -0.7295 -2.4974  1.5468
18970SOL    HW258127   7.303   1.703   3.013 -2.3141  1.1761 -0.5699
18971SOL     OW58128   8.189   0.086   1.852 -0.2545 -0.4278  0.8123
18971SOL    HW158129   8.165   0.170   1.889  1.8094  1.3048 -1.4255
18971SOL    HW258130   8.128   0.072   1.779  0.8688  0.4031 -0.3341
18972SOL     OW58131   0.033   0.981   1.868 -0.3760  0.2292 -0.3208
18972SOL    HW158132   0.024   0.886   1.858 -1.1146  0.2923 -0.2784
18972SOL    HW258133   0.120   1.001   1.833 -0.0545 -0.5156  0.0312
18973SOL     OW58134   7.763   0.298   2.933 -0.1975  0.5198  0.3405
18973SOL    HW158135   7.825   0.289   3.005 -0.2091 -1.5168  0.1604
18973SOL    HW258136   7.771   0.389   2.905  0.8215  0.9785  1.9881
18974SOL     OW58137   8.362   1.385   2.023 -0.7200 -0.5143  0.2092
18974SOL    HW158138   8.332   1.467   1.982 -1.1502 -0.9201 -0.3015
18974SOL    HW258139   8.442   1.410   2.069 -1.7737  0.5924  1.5264
18975SOL     OW58140   7.959   1.847   2.615 -0.7686  0.3442  0.6624
18975SOL    HW158141   7.891   1.831   2.550 -0.0975  1.6619 -0.4022
18975SOL    HW258142   7.915   1.833   2.700 -1.9051 -0.4351 -0.0250
18976SOL     OW58143   8.349   1.571   2.844  0.5976  0.3711  0.0833
18976SOL    HW158144   8.326   1.479   2.830 -0.5268  0.4893  1.0057
18976SOL    HW258145   8.369   1.605   2.757 -0.9980 -0.2378 -0.5569
18977SOL     OW58146   7.599   1.124   1.676  0.2552 -0.0236 -0.0525
18977SOL    HW158147   7.686   1.161   1.690  0.0343  0.2445  0.6470
18977SOL    HW258148   7.614   1.052   1.615  1.1237 -0.6486  0.8608
18978SOL     OW58149   7.687   1.588   3.115  0.3004 -0.1553  0.2067
18978SOL    HW158150   7.692   1.493   3.127 -0.0143 -0.2073 -0.0582
18978SOL    HW258151   7.636   1.600   3.035  0.7407  0.2302 -0.0173
18979SOL     OW58152   8.370   1.742   2.299  0.2550 -0.0599 -0.2375
18979SOL    HW158153   8.332   1.810   2.355  1.2384  1.5438 -1.4340
18979SOL    HW258154   8.335   1.761   2.212  2.2202  0.2552 -0.9924
18980SOL     OW58155   7.358   0.208   3.270 -0.1538  0.6535 -0.0983
18980SOL    HW158156   7.309   0.141   3.318 -2.7097  1.5256 -1.3256
18980SOL    HW258157   7.372   0.169   3.183  0.5380  0.7906 -0.0560
18981SOL     OW58158   8.007   1.715   2.128  0.0239 -0.1575 -0.0744
18981SOL    HW158159   7.923   1.671   2.139 -0.5967  1.3034  1.8212
18981SOL    HW258160   8.009   1.780   2.199  2.7377 -0.1001 -0.0887
18982SOL     OW58161   7.051   1.841   3.063 -1.1210 -0.3067 -0.1247
18982SOL    HW158162   7.132   1.851   3.113 -1.1656 -0.1968 -0.0735
18982SOL    HW258163   7.077   1.790   2.986 -1.1066 -0.7068  0.1394
18983SOL     OW58164   8.409   1.647   2.589  0.1038  0.4399 -0.3854
18983SOL    HW158165   8.461   1.599   2.524 -0.7166  0.9713 -1.4782
18983SOL    HW258166   8.327   1.667   2.543 -1.8206 -1.8472  1.7979
18984SOL     OW58167   7.679   0.521   1.969  0.0504 -0.1999  0.7249
18984SOL    HW158168   7.591   0.483   1.961 -0.2771  0.3122  1.6859
18984SOL    HW258169   7.738   0.445   1.964 -0.1439 -0.2753 -3.4431
18985SOL     OW58170   7.587   0.280   1.380  0.0710 -1.1020 -0.3039
18985SOL    HW158171   7.581   0.190   1.347  0.7384 -1.4846  0.5746
18985SOL    HW258172   7.674   0.285   1.419 -0.9380 -0.9402  2.1152
18986SOL     OW58173   7.836   0.553   3.583 -0.1860  0.5286 -0.1016
18986SOL    HW158174   7.915   0.516   3.623 -0.5262  0.9019  0.9343
18986SOL    HW258175   7.862   0.570   3.492 -0.2361 -3.0305 -0.9519
18987SOL     OW58176   7.792   1.726   2.428 -0.3087  0.0054 -0.5720
18987SOL    HW158177   7.838   1.644   2.413  0.8504  0.9354 -2.6302
18987SOL    HW258178   7.785   1.766   2.341  0.5157  2.7379  0.5035
18988SOL     OW58179   8.314   0.457   3.369  0.0370  0.0087 -0.5965
18988SOL    HW158180   8.407   0.475   3.381 -0.3368  1.7830 -0.0607
18988SOL    HW258181   8.271   0.499   3.443 -1.1620 -1.3465 -0.4725
18989SOL     OW58182   8.306   0.941   2.518  0.5823  0.1950  0.1649
18989SOL    HW158183   8.397   0.922   2.495  0.2129  0.5973 -1.7831
18989SOL    HW258184   8.272   0.990   2.443 -1.5540 -0.8626  0.3766
18990SOL     OW58185   8.163   0.450   2.443  0.1729  0.3315 -0.4793
18990SOL    HW158186   8.200   0.533   2.473  1.0557 -0.2150  0.0002
18990SOL    HW258187   8.231   0.385   2.464 -0.4131 -0.4751 -1.0405
18991SOL     OW58188   7.982   0.562   1.402 -0.2531 -0.5199 -0.0331
18991SOL    HW158189   7.952   0.652   1.390  0.4104 -0.4484 -1.3228
18991SOL    HW258190   7.982   0.549   1.497 -0.7212  0.7065  0.1561
18992SOL     OW58191   8.754   0.933   1.554 -0.1260  0.0689  0.4555
18992SOL    HW158192   8.749   0.838   1.539 -0.9822  0.1713  0.0424
18992SOL    HW258193   8.848   0.952   1.555  0.0430 -0.6356 -0.4162
18993SOL     OW58194   8.091   0.148   2.216  0.0365  0.3851  0.1522
18993SOL    HW158195   8.068   0.066   2.173  0.5528 -0.6405  1.7705
18993SOL    HW258196   8.179   0.169   2.184  0.8423 -0.9091  1.4208
18994SOL     OW58197   8.220   8.743   2.097 -0.0375 -0.2897 -0.6509
18994SOL    HW158198   8.210   8.786   2.011  1.0053  2.3022  0.4325
18994SOL    HW258199   8.294   8.684   2.086  1.3850  1.4735 -1.0981
18995SOL     OW58200   8.595   0.420   3.016  0.1052 -0.1450 -0.3366
18995SOL    HW158201   8.638   0.459   2.940  0.0937  2.8204  1.0674
18995SOL    HW258202   8.504   0.451   3.012  0.2509  0.5779  1.1763
18996SOL     OW58203   8.560   1.425   2.189 -0.1051  0.4317 -0.7503
18996SOL    HW158204   8.620   1.495   2.215  0.5834 -0.3551 -0.1703
18996SOL    HW258205   8.615   1.346   2.185 -1.0850 -0.2984 -0.2540
18997SOL     OW58206   7.675   1.037   2.168  0.0444  0.0672  0.1223
18997SOL    HW158207   7.606   1.034   2.102 -0.4439  1.8911  0.4993
18997SOL    HW258208   7.731   1.110   2.142  0.2625  0.3535  1.3112
18998SOL     OW58209   8.630   1.654   2.297 -0.4458 -0.3080 -0.5024
18998SOL    HW158210   8.687   1.720   2.259 -0.4243  0.0586  0.1407
18998SOL    HW258211   8.543   1.692   2.293 -0.1658  0.8373  1.9932
18999SOL     OW58212   8.057   0.583   2.048 -0.2560  0.3904  0.1942
18999SOL    HW158213   7.982   0.602   2.104 -1.8011 -1.0881 -1.2817
18999SOL    HW258214   8.077   0.667   2.005 -1.7641  0.5658 -0.2061
19000SOL     OW58215   7.769   0.539   2.760 -0.2010 -0.1009  0.6673
19000SOL    HW158216   7.729   0.618   2.726  0.6395 -0.1177 -0.4034
19000SOL    HW258217   7.808   0.496   2.684  1.6409 -0.2073  1.6009
19001SOL     OW58218   8.143   0.169   2.966 -0.2395 -0.5191 -0.7538
19001SOL    HW158219   8.154   0.254   3.009 -0.8129 -0.7949 -0.0402
19001SOL    HW258220   8.149   0.105   3.037  0.2547 -1.0860 -1.2915
19002SOL     OW58221   7.898   0.449   2.532  0.3668 -0.4229 -0.0574
19002SOL    HW158222   7.882   0.374   2.475 -0.7402  1.1122 -1.8661
19002SOL    HW258223   7.980   0.487   2.500  0.0032  0.1489 -0.3343
19003SOL     OW58224   8.090   0.071   2.543 -0.5954 -0.1480  0.7470
19003SOL    HW158225   8.017   0.032   2.494  0.7234 -0.6100 -0.9295
19003SOL    HW258226   8.085   0.030   2.630 -2.5241  0.0977  0.7913
19004SOL     OW58227   8.050   1.210   1.879  0.4196 -0.2085 -0.3154
19004SOL    HW158228   8.003   1.279   1.832  0.0235 -0.6638 -0.5950
19004SOL    HW258229   8.129   1.196   1.827 -0.4099 -1.2908 -1.3355
19005SOL     OW58230   8.562   0.430   1.740  0.5548  0.0623 -0.3852
19005SOL    HW158231   8.565   0.335   1.729  2.0204  0.0576 -0.0966
19005SOL    HW258232   8.558   0.443   1.835  1.9394  0.2904 -0.3383
19006SOL     OW58233   7.977   0.074   1.665  0.0668  0.4966  0.0273
19006SOL    HW158234   7.890   0.033   1.670  1.5071 -2.9469 -0.3153
19006SOL    HW258235   7.960   0.168   1.677 -3.5682 -0.1100  0.8618
19007SOL     OW58236   8.449   0.876   2.850 -0.6780 -0.1247  0.0473
19007SOL    HW158237   8.421   0.785   2.855  0.7363 -0.5438  1.0697
19007SOL    HW258238   8.507   0.880   2.774 -0.5596 -0.1428  0.1354
19008SOL     OW58239   0.113   1.348   2.525  0.0773  0.3581  0.2806
19008SOL    HW158240   0.079   1.259   2.527  1.1651 -0.0671  0.2403
19008SOL    HW258241   0.035   1.403   2.531 -0.7782 -0.5608 -1.6079
19009SOL     OW58242   8.353   0.785   3.226  0.0321  0.3996 -0.4041
19009SOL    HW158243   8.425   0.805   3.166 -0.3084  0.8821 -0.6556
19009SOL    HW258244   8.377   0.826   3.309  0.2878  0.1205 -0.3392
19010SOL     OW58245   8.415   1.151   4.026  0.9183  0.2745 -0.5718
19010SOL    HW158246   8.442   1.103   4.105 -3.3869 -2.4759 -0.3985
19010SOL    HW258247   8.341   1.205   4.055  0.2353  0.4073 -2.4180
19011SOL     OW58248   8.644   1.110   1.916  0.2075 -0.0389  0.4856
19011SOL    HW158249   8.727   1.079   1.880  0.1175  1.4512 -1.1584
19011SOL    HW258250   8.638   1.201   1.888 -1.1721  0.4115  2.0862
19012SOL     OW58251   7.524   0.872   2.709  0.0769  0.6486  0.0001
19012SOL    HW158252   7.595   0.844   2.651  0.8439  0.2173  1.1197
19012SOL    HW258253   7.444   0.849   2.661  0.6538 -2.2970  0.2663
19013SOL     OW58254   7.992   0.408   3.071 -0.1234  0.4283  0.0010
19013SOL    HW158255   8.028   0.476   3.014  1.6907 -0.1947  0.3361
19013SOL    HW258256   8.005   0.442   3.160  0.4953 -0.2000  0.1575
19014SOL     OW58257   7.566   1.596   2.882  0.1962  0.6158 -0.2249
19014SOL    HW158258   7.539   1.510   2.848 -0.5782  0.8910 -0.3298
19014SOL    HW258259   7.637   1.623   2.824  1.1665 -0.4052  0.4339
19015SOL     OW58260   7.919   1.152   2.098  0.3296 -0.0164  0.4826
19015SOL    HW158261   7.967   1.175   2.019  0.7564  2.3555  1.3774
19015SOL    HW258262   7.985   1.117   2.157  0.2508 -0.4277  0.3356
19016SOL     OW58263   8.054   0.454   2.753  0.1306 -0.0991 -0.4376
19016SOL    HW158264   8.147   0.436   2.738  0.9126  3.7833 -1.2880
19016SOL    HW258265   8.011   0.428   2.671  0.4323 -1.7683 -0.0986
19017SOL     OW58266   8.848   1.568   2.046  0.2112 -0.0108  0.0238
19017SOL    HW158267   8.899   1.487   2.054 -0.4683 -0.3289  1.2750
19017SOL    HW258268   8.913   1.638   2.057  0.8487 -0.3516 -1.3349
19018SOL     OW58269   8.642   1.210   2.986 -0.4945  0.4300 -0.8346
19018SOL    HW158270   8.634   1.304   3.002  0.9050  0.6396 -1.3070
19018SOL    HW258271   8.592   1.196   2.906 -0.6667  0.7681 -0.7918
19019SOL     OW58272   7.072   1.652   2.776 -0.9360  0.4213 -0.3751
19019SOL    HW158273   7.009   1.587   2.806 -0.1863 -0.2928 -0.3113
19019SOL    HW258274   7.026   1.701   2.708 -1.2314 -0.7587 -1.0524
19020SOL     OW58275   7.880   0.885   3.486 -0.0163 -0.2209 -0.2426
19020SOL    HW158276   7.901   0.972   3.522  0.3328 -0.0888 -0.7572
19020SOL    HW258277   7.952   0.865   3.427  0.2051 -1.1295  0.3131
19021SOL     OW58278   8.183   8.620   3.040 -0.1385 -0.1868  0.2979
19021SOL    HW158279   8.217   8.655   2.958  0.0263  1.0505  0.8584
19021SOL    HW258280   8.186   8.525   3.030  2.8315 -0.1490  0.0402
19022SOL     OW58281   7.609   0.079   3.410  0.3562 -0.0102  0.5410
19022SOL    HW158282   7.645  -0.009   3.424  2.0973  0.4005 -1.0123
19022SOL    HW258283   7.537   0.066   3.348  0.4953 -0.3525  0.4496
19023SOL     OW58284   8.380   1.044   2.018 -0.1278 -0.3020 -0.8498
19023SOL    HW158285   8.322   1.112   1.986 -0.9479  0.3948  1.8043
19023SOL    HW258286   8.468   1.080   2.006 -0.5564  1.6103  1.0059
19024SOL     OW58287   8.446   0.744   1.866  0.4907 -0.0455 -0.2201
19024SOL    HW158288   8.443   0.652   1.892 -1.8490 -0.5324 -1.8727
19024SOL    HW258289   8.528   0.776   1.902  0.6560 -2.3581  1.7497
19025SOL     OW58290   8.460   0.663   2.308 -0.2648 -0.5690 -0.0064
19025SOL    HW158291   8.530   0.610   2.345 -0.4843 -0.3015  0.8208
19025SOL    HW258292   8.393   0.601   2.281  0.0926 -0.7952 -0.3774
19026SOL     OW58293   7.376   0.097   3.017  0.0523  0.1611  0.9210
19026SOL    HW158294   7.437   0.146   2.962 -0.0201 -1.6888 -0.9420
19026SOL    HW258295   7.397   0.005   3.000 -0.4046 -0.5174  3.5701
19027SOL     OW58296   7.801   1.279   2.762 -0.3823 -0.4692 -0.3346
19027SOL    HW158297   7.756   1.271   2.846 -0.6677 -2.1616 -0.6223
19027SOL    HW258298   7.802   1.373   2.745  1.2471  0.1210  2.3959
19028SOL     OW58299   8.215   0.615   3.041 -0.5200  0.3714 -0.0475
19028SOL    HW158300   8.255   0.531   3.064 -0.4563  0.7110  1.1190
19028SOL    HW258301   8.245   0.675   3.108 -0.5139  1.3573 -0.9093
19029SOL     OW58302   7.462   0.166   2.321  0.0897  0.0915 -0.4581
19029SOL    HW158303   7.410   0.107   2.266 -0.6231  0.4003 -0.1310
19029SOL    HW258304   7.432   0.147   2.410  0.5516  0.2728 -0.2630
19030SOL     OW58305   8.781   0.312   2.712  0.2584 -0.4188  0.0980
19030SOL    HW158306   8.815   0.304   2.801 -0.1785 -1.4583  0.1844
19030SOL    HW258307   8.722   0.388   2.716  0.6219 -0.1525  0.5611
19031SOL     OW58308   8.190   0.707   2.521  0.1739  0.2420  0.1229
19031SOL    HW158309   8.236   0.791   2.529  1.3943 -0.3142 -0.6590
19031SOL    HW258310   8.150   0.710   2.435 -0.3140  0.2765  0.3517
19032SOL     OW58311   8.501   1.624   3.366  0.2865  0.0138 -0.3060
19032SOL    HW158312   8.437   1.677   3.413 -1.3210 -1.3561 -0.8169
19032SOL    HW258313   8.490   1.649   3.274  0.8130  0.0919 -0.3483
19033SOL     OW58314   7.696   1.326   3.286 -0.6182  0.3229 -0.5285
19033SOL    HW158315   7.670   1.234   3.277  4.5641 -1.4593 -0.8337
19033SOL    HW258316   7.713   1.337   3.379 -0.1133  0.5549 -0.6436
19034SOL     OW58317   8.798   1.139   1.343 -0.0431 -0.6066 -0.0480
19034SOL    HW158318   8.752   1.063   1.378 -0.9884  0.0711  0.2284
19034SOL    HW258319   8.728   1.202   1.322  0.8162  1.2884  2.3399
19035SOL     OW58320   8.616   1.197   2.509 -0.6186 -0.1008 -0.1557
19035SOL    HW158321   8.544   1.134   2.500 -0.6735 -0.4690  2.2385
19035SOL    HW258322   8.693   1.148   2.481 -0.9003 -0.6575  0.0194
19036SOL     OW58323   7.599   0.927   2.443  0.2337  0.2636 -0.5459
19036SOL    HW158324   7.612   0.968   2.358 -0.5506  0.0563 -0.7725
19036SOL    HW258325   7.655   0.976   2.503  0.5315  0.6234 -1.1201
19037SOL     OW58326   7.974   0.876   2.623 -0.3986  0.3405 -0.6870
19037SOL    HW158327   7.974   0.803   2.685  2.2251  0.8902  0.1003
19037SOL    HW258328   8.029   0.846   2.550  3.0626  2.2401  0.8489
19038SOL     OW58329   8.238   0.649   3.578  0.5582 -0.2352 -0.0893
19038SOL    HW158330   8.182   0.599   3.638  2.9027 -0.0403  2.4021
19038SOL    HW258331   8.205   0.738   3.583  0.1452 -0.3963  0.1196
19039SOL     OW58332   7.926   0.601   3.272  0.7560 -0.2136  0.2453
19039SOL    HW158333   7.982   0.667   3.312 -0.8067  0.9384  0.6688
19039SOL    HW258334   7.857   0.652   3.229 -1.1807 -1.5224  1.5987
19040SOL     OW58335   7.576   1.366   2.074  0.1879  0.1426  0.0274
19040SOL    HW158336   7.644   1.351   2.140 -0.5282 -0.9881  0.5531
19040SOL    HW258337   7.521   1.435   2.111 -0.3493 -0.6529  0.7573
19041SOL     OW58338   7.023   1.499   2.495 -0.0554 -0.5234  0.0281
19041SOL    HW158339   6.984   1.471   2.413 -1.4511 -2.1620  1.1764
19041SOL    HW258340   6.984   1.585   2.513 -0.3381 -0.5177 -0.6201
19042SOL     OW58341   7.958   1.177   2.383 -0.1948 -0.6296  0.0879
19042SOL    HW158342   7.929   1.139   2.466  0.2336  0.4053  0.7313
19042SOL    HW258343   8.045   1.213   2.402  0.6687 -1.8726 -1.2671
19043SOL     OW58344   8.178   1.049   2.801 -0.1218  0.4311  0.0814
19043SOL    HW158345   8.101   0.997   2.822  2.0779 -2.7033  1.1664
19043SOL    HW258346   8.205   1.019   2.714  1.0983 -0.2482  0.6608
19044SOL     OW58347   7.497   0.508   2.554 -0.2404  0.1748 -0.1387
19044SOL    HW158348   7.538   0.449   2.492 -0.2575  0.4718 -0.4387
19044SOL    HW258349   7.546   0.590   2.545 -1.0515  0.6139 -0.6967
19045SOL     OW58350   7.573   0.625   3.164 -0.0409 -0.0807  0.2922
19045SOL    HW158351   7.625   0.549   3.193  0.6734 -0.4180 -1.7231
19045SOL    HW258352   7.638   0.693   3.147 -0.4970  0.2891  0.0136
19046SOL     OW58353   7.846   0.839   2.233 -0.0474 -0.1827 -0.5291
19046SOL    HW158354   7.766   0.786   2.236 -0.4095  0.3883  1.8975
19046SOL    HW258355   7.821   0.918   2.186 -0.2364 -0.9738 -1.8117
19047SOL     OW58356   7.396   1.465   3.334 -0.5829 -0.1642 -0.2275
19047SOL    HW158357   7.446   1.538   3.372 -2.3525  0.6040  0.7542
19047SOL    HW258358   7.346   1.505   3.263 -2.9454  0.0790  1.4403
19048SOL     OW58359   7.947   0.273   3.402  0.9707  0.2234  0.9990
19048SOL    HW158360   7.994   0.197   3.438  1.9745 -0.0242 -0.7562
19048SOL    HW258361   7.908   0.241   3.321  1.4452  1.5809  0.2120
19049SOL     OW58362   8.270   1.834   3.307  0.0813 -0.4864 -0.5492
19049SOL    HW158363   8.245   1.812   3.217 -0.9057  2.6598 -1.1434
19049SOL    HW258364   8.203   1.895   3.337  2.3725  1.4541  0.9877
19050SOL     OW58365   7.847   0.283   1.436 -0.5386  0.0402 -0.2283
19050SOL    HW158366   7.928   0.276   1.385 -0.0967  1.8637  0.1301
19050SOL    HW258367   7.876   0.313   1.522 -1.5489  0.1476  0.0771
19051SOL     OW58368   7.663   1.259   3.018 -0.6796  0.6754 -0.1707
19051SOL    HW158369   7.663   1.163   3.016  0.4937  0.6678 -0.9197
19051SOL    HW258370   7.639   1.282   3.108 -0.3940 -0.3327  0.1711
19052SOL     OW58371   8.645   0.921   2.637 -0.0771  0.5211 -0.1770
19052SOL    HW158372   8.740   0.914   2.635  0.1573  2.8841 -1.0116
19052SOL    HW258373   8.618   0.903   2.547 -0.6063 -1.5652  0.3561
19053SOL     OW58374   8.597   0.673   1.336 -0.0372  0.6817  1.0795
19053SOL    HW158375   8.607   0.708   1.425 -0.2533  0.0017  1.3775
19053SOL    HW258376   8.534   0.601   1.346  1.0189 -0.3366  0.6387
19054SOL     OW58377   8.495   1.121   2.758  0.9917 -0.5882  0.4160
19054SOL    HW158378   8.574   1.084   2.717  0.5998 -0.7182 -0.2396
19054SOL    HW258379   8.440   1.045   2.776 -0.6706 -0.2794 -2.7259
19055SOL     OW58380   7.779   1.070   2.606 -0.1472 -0.1010  0.2319
19055SOL    HW158381   7.855   1.015   2.626  1.7316  2.5542  0.9423
19055SOL    HW258382   7.789   1.146   2.663 -1.6735  1.7785 -1.8179
19056SOL     OW58383   7.913   1.827   3.536  0.0376  0.5682  0.7020
19056SOL    HW158384   7.884   1.762   3.473  1.2257 -0.6836  1.4077
19056SOL    HW258385   7.992   1.865   3.498 -1.3009  2.5634 -0.2889
19057SOL     OW58386   0.160   1.325   2.013  0.2153  0.0046 -0.1217
19057SOL    HW158387   0.241   1.276   2.027  1.0468  1.4371  0.2490
19057SOL    HW258388   0.093   1.272   2.056  0.9703 -1.1136 -0.2823
19058SOL     OW58389   7.194   1.575   3.167 -0.4823  0.0287  0.2265
19058SOL    HW158390   7.179   1.512   3.096  0.5859 -1.1834  1.0293
19058SOL    HW258391   7.117   1.565   3.223 -1.2450  0.8650 -0.6452
19059SOL     OW58392   0.079   0.794   2.488  0.2448 -0.1395 -0.5862
19059SOL    HW158393   0.046   0.722   2.435  0.4132 -0.1072 -0.7369
19059SOL    HW258394   0.168   0.768   2.512 -0.8580 -1.6332  2.3760
19060SOL     OW58395   8.043   0.739   2.855 -0.0683 -0.3406 -0.4399
19060SOL    HW158396   8.101   0.721   2.930  0.2152 -0.2434 -0.6365
19060SOL    HW258397   8.047   0.659   2.802 -2.4111 -1.5472  1.0218
19061SOL     OW58398   8.245   1.602   1.896 -0.3664 -0.0590 -0.0931
19061SOL    HW158399   8.150   1.602   1.904 -0.3468 -0.9572  0.2362
19061SOL    HW258400   8.262   1.578   1.805 -0.4540  0.0808 -0.1465
19062SOL     OW58401   7.330   0.005   2.132  0.1820  0.3681  0.1764
19062SOL    HW158402   7.277   0.012   2.053  0.7282  1.1952 -0.1310
19062SOL    HW258403   7.296  -0.072   2.178  0.2920 -0.5174 -1.1878
19063SOL     OW58404   0.113   1.811   1.740 -0.3605 -0.0497  0.5402
19063SOL    HW158405   0.149   1.736   1.694 -1.1410 -0.0974 -0.0008
19063SOL    HW258406   0.189   1.865   1.761  0.0772 -0.4039 -0.1159
19064SOL     OW58407   7.985   1.057   3.151  0.5219 -0.0709 -0.0436
19064SOL    HW158408   7.956   1.042   3.061 -0.9486 -0.0956  0.4164
19064SOL    HW258409   7.963   1.149   3.168  0.9481 -0.0200  0.2419
19065SOL     OW58410   8.246   0.478   1.816  0.1995  0.2173 -0.4576
19065SOL    HW158411   8.166   0.473   1.867  1.1120  1.3781  1.1765
19065SOL    HW258412   8.317   0.476   1.881  1.5286 -0.9610 -1.8461
19066SOL     OW58413   7.771   1.576   2.702  0.3556  0.0942 -0.4818
19066SOL    HW158414   7.819   1.564   2.620 -0.4596 -0.3034 -0.9039
19066SOL    HW258415   7.815   1.650   2.745  0.5468  0.5466 -1.4457
19067SOL     OW58416   8.690   0.945   2.139 -0.1170 -0.2989  0.0770
19067SOL    HW158417   8.648   0.973   2.057 -0.2255  0.3369  0.3423
19067SOL    HW258418   8.781   0.930   2.115  0.2280  1.4378  0.1466
19068SOL     OW58419   8.309   0.214   2.505 -0.0688 -0.8730 -0.1602
19068SOL    HW158420   8.309   0.209   2.410 -1.8548  0.5621 -0.2863
19068SOL    HW258421   8.230   0.165   2.531  0.1211 -0.8116  0.5499
19069SOL     OW58422   8.432   1.422   2.443  0.0784 -0.2928 -0.0426
19069SOL    HW158423   8.473   1.410   2.358 -1.3778  0.6808 -0.9371
19069SOL    HW258424   8.501   1.404   2.506  0.8911 -2.1938 -1.3899
19070SOL     OW58425   8.164   1.278   2.189  0.1191  0.2746 -0.1058
19070SOL    HW158426   8.152   1.347   2.254  1.8220 -0.0338  0.5786
19070SOL    HW258427   8.232   1.311   2.130  0.6814 -0.6594  0.0044
19071SOL     OW58428   7.679   1.060   3.262  0.4667  0.0830 -0.6995
19071SOL    HW158429   7.632   0.999   3.318 -1.7878  0.2443 -2.2587
19071SOL    HW258430   7.761   1.016   3.242 -0.3463 -1.6824 -0.3885
19072SOL     OW58431   7.716   0.407   3.221 -0.3608  0.5302 -0.1720
19072SOL    HW158432   7.790   0.466   3.213 -1.0186  1.2897 -0.7267
19072SOL    HW258433   7.736   0.334   3.162 -0.5128  1.2253 -1.1030
19073SOL     OW58434   7.055   0.672   1.739  0.0809 -0.2073 -0.1152
19073SOL    HW158435   7.011   0.757   1.729  2.2987  0.8072 -2.3649
19073SOL    HW258436   6.984   0.610   1.756 -1.5145  2.2212  3.1092
19074SOL     OW58437   8.513   0.686   3.559 -0.0990  0.8033  0.5537
19074SOL    HW158438   8.425   0.649   3.565  0.0507 -0.0927 -1.5871
19074SOL    HW258439   8.498   0.778   3.535 -0.4509  1.0104  1.5388
19075SOL     OW58440   7.528   0.466   1.734 -0.4971  0.8926  0.5566
19075SOL    HW158441   7.580   0.527   1.683  0.5173 -0.5240 -0.1639
19075SOL    HW258442   7.461   0.520   1.776  1.3297  2.7351  1.2620
19076SOL     OW58443   8.570   1.330   1.400 -0.1833 -0.4645 -0.0686
19076SOL    HW158444   8.634   1.382   1.353 -1.3376  2.6182  1.5122
19076SOL    HW258445   8.485   1.363   1.370 -0.9465 -0.4882  1.9084
19077SOL     OW58446   8.080   0.825   3.297  0.3710 -0.0813  0.7991
19077SOL    HW158447   8.051   0.874   3.219 -1.4119  0.2231  1.5986
19077SOL    HW258448   8.174   0.841   3.301  0.8044 -1.3299 -2.1168
19078SOL     OW58449   7.597   0.980   2.945 -0.4410  0.1139 -0.0513
19078SOL    HW158450   7.515   0.955   2.988 -0.4682 -1.2660 -0.8438
19078SOL    HW258451   7.580   0.965   2.851  0.9668 -1.0303 -0.1562
19079SOL     OW58452   8.789   1.048   3.334 -0.1352  0.1884  0.0235
19079SOL    HW158453   8.775   1.004   3.418 -0.6025  0.2852 -0.0006
19079SOL    HW258454   8.751   0.988   3.269 -0.5612  0.5177 -0.0324
19080SOL     OW58455   7.672   1.975   3.271  0.3982 -0.4585  0.0035
19080SOL    HW158456   7.648   2.056   3.225 -0.1084 -0.7481 -0.2570
19080SOL    HW258457   7.697   2.004   3.359 -0.9748 -0.1127  0.3171
19081SOL     OW58458   8.263   0.501   2.196  0.0224 -0.7201 -0.0340
19081SOL    HW158459   8.189   0.546   2.155 -1.1021 -2.2798  0.1775
19081SOL    HW258460   8.223   0.426   2.241  1.6585 -1.1752  0.7285
19082SOL     OW58461   8.093   0.765   2.292 -0.2568 -0.2906  0.8131
19082SOL    HW158462   8.150   0.841   2.281  0.4644 -1.0216 -0.6688
19082SOL    HW258463   8.007   0.796   2.265 -0.3039  0.4279  1.7375
19083SOL     OW58464   8.617   1.351   1.705  0.5910  0.2567 -0.0281
19083SOL    HW158465   8.594   1.444   1.707  0.0212  0.1838 -1.7458
19083SOL    HW258466   8.646   1.336   1.615  0.4173 -1.2872  0.1549
19084SOL     OW58467   7.566   1.793   2.594 -0.3791 -0.2555  0.3755
19084SOL    HW158468   7.628   1.739   2.545  0.2194  1.3675 -0.7240
19084SOL    HW258469   7.587   1.883   2.569 -1.9916  0.4496  1.3952
19085SOL     OW58470   8.557   0.903   2.380  0.3319 -0.8172  0.5024
19085SOL    HW158471   8.625   0.925   2.316 -0.4170  1.2959  0.3393
19085SOL    HW258472   8.508   0.832   2.340 -0.8773  1.2171 -1.9205
19086SOL     OW58473   0.111   0.738   1.427  0.1378  0.1830 -0.5043
19086SOL    HW158474   0.114   0.643   1.438  3.3294  0.2746  0.3250
19086SOL    HW258475   0.069   0.750   1.342  3.3489 -2.2654 -2.6948
19087SOL     OW58476   7.874   1.662   3.326 -0.0854 -0.3402 -0.0686
19087SOL    HW158477   7.797   1.666   3.268 -0.2969  0.1797  0.2437
19087SOL    HW258478   7.926   1.589   3.291  1.0023  1.4275 -2.4242
19088SOL     OW58479   7.829   1.376   2.238 -0.0259  0.6611 -0.6044
19088SOL    HW158480   7.886   1.330   2.177  0.2053 -0.1328  0.1996
19088SOL    HW258481   7.857   1.347   2.325 -1.5041  0.4061 -0.1822
19089SOL     OW58482   7.968   1.337   3.180 -0.0617  0.2899  0.0301
19089SOL    HW158483   7.879   1.344   3.215 -0.0573 -1.3589  0.4396
19089SOL    HW258484   7.962   1.375   3.092 -1.7172 -1.7125 -0.8071
19090SOL     OW58485   8.034   0.346   1.930 -0.0590  0.0965 -0.2180
19090SOL    HW158486   8.020   0.425   1.982  0.6945 -1.0013  1.7879
19090SOL    HW258487   7.949   0.302   1.929 -0.4052  0.7811 -1.0833
19091SOL     OW58488   7.786   0.786   3.070 -0.1694  0.4394  0.2857
19091SOL    HW158489   7.726   0.840   3.018  0.7411  2.3228  1.0674
19091SOL    HW258490   7.855   0.761   3.009 -0.0639  1.0837  0.1252
19092SOL     OW58491   7.952   1.508   2.491 -0.2530  0.1315 -0.1882
19092SOL    HW158492   8.009   1.547   2.425  0.7439  0.9066  1.0621
19092SOL    HW258493   8.002   1.433   2.525 -0.7817 -0.3038 -0.3649
19093SOL     OW58494   0.050   0.370   2.949  1.0525 -0.0874  0.5097
19093SOL    HW158495   0.013   0.407   3.030 -1.6608  0.8952 -1.0472
19093SOL    HW258496   0.131   0.419   2.935  0.6710  0.9617  1.7135
19094SOL     OW58497   8.308   8.571   2.751 -0.0158 -0.4476  0.2143
19094SOL    HW158498   8.349   8.650   2.787  0.1146  0.0539 -0.9838
19094SOL    HW258499   8.379   8.524   2.708 -0.3240 -0.5748 -0.1636
19095SOL     OW58500   8.307   1.224   1.735 -0.2041  0.1927  0.2598
19095SOL    HW158501   8.353   1.301   1.769  0.5592 -0.0160 -0.2802
19095SOL    HW258502   8.376   1.160   1.717 -0.8501 -0.7027  0.8942
19096SOL     OW58503   8.124   1.714   2.939  0.4755  0.4678 -0.4534
19096SOL    HW158504   8.170   1.789   2.977 -1.0537  0.6942  1.0814
19096SOL    HW258505   8.187   1.642   2.944  1.1446  1.0804  0.2741
19097SOL     OW58506   7.669   0.649   1.577 -0.1519  0.7556 -0.1645
19097SOL    HW158507   7.650   0.739   1.552  0.7104  0.4900 -1.9168
19097SOL    HW258508   7.736   0.656   1.645 -1.0478  1.4458  0.6737
19098SOL     OW58509   8.148   1.569   2.309 -0.2038 -0.0162  0.1674
19098SOL    HW158510   8.106   1.591   2.226 -0.6104 -0.9000  0.1263
19098SOL    HW258511   8.225   1.626   2.313 -0.7387  0.7505 -0.3321
19099SOL     OW58512   7.402   1.191   3.683  0.9614  0.3952  0.0718
19099SOL    HW158513   7.426   1.169   3.773 -0.1869  0.5316  0.4297
19099SOL    HW258514   7.450   1.271   3.664 -0.0976  1.3352  1.1935
19100SOL     OW58515   7.244   0.348   4.197  0.9174 -0.6903 -0.2595
19100SOL    HW158516   7.254   0.266   4.147  2.2393  0.1399 -1.4523
19100SOL    HW258517   7.216   0.412   4.132 -1.2818 -0.3801  0.8839
19101SOL     OW58518   7.445   0.807   4.686  0.0832 -0.0629  0.3638
19101SOL    HW158519   7.350   0.817   4.674 -0.0494 -2.2663 -0.9617
19101SOL    HW258520   7.473   0.892   4.720 -2.3567  0.6515  0.8432
19102SOL     OW58521   8.004   1.347   4.756  0.3164  0.3054 -0.0400
19102SOL    HW158522   8.003   1.386   4.668 -0.4023  0.5076  0.0506
19102SOL    HW258523   7.985   1.420   4.815  1.8315  0.3811  0.3913
19103SOL     OW58524   8.616   1.993   4.310 -0.2688 -0.1133 -0.5694
19103SOL    HW158525   8.711   2.000   4.317 -0.1936  0.6527 -2.0060
19103SOL    HW258526   8.585   1.994   4.400  1.1045 -0.8283 -0.0535
19104SOL     OW58527   7.983   0.942   4.839 -0.0544 -0.2403  0.0646
19104SOL    HW158528   7.974   0.865   4.896  0.1756  0.3347  0.9012
19104SOL    HW258529   8.039   1.002   4.889  1.5792 -0.4032 -1.4930
19105SOL     OW58530   8.246   1.227   4.793  0.1057  0.2780  0.2764
19105SOL    HW158531   8.166   1.267   4.761 -0.7140 -0.4732  1.3037
19105SOL    HW258532   8.265   1.274   4.875  1.0364  0.8250 -0.2401
19106SOL     OW58533   8.679   1.037   5.576  0.3939  0.2758 -0.5081
19106SOL    HW158534   8.667   1.089   5.497 -1.3865  1.4942  0.4771
19106SOL    HW258535   8.618   0.963   5.566  0.1431  0.4485 -0.2809
19107SOL     OW58536   7.808   0.974   3.998  0.0723 -0.0706 -0.0429
19107SOL    HW158537   7.830   0.881   4.001 -0.4309 -0.1789  0.3787
19107SOL    HW258538   7.820   1.004   4.088 -0.4082  0.1252 -0.0435
19108SOL     OW58539   8.669   1.172   5.334  0.2622  0.1692 -0.4282
19108SOL    HW158540   8.699   1.181   5.244 -0.0335 -0.3257 -0.5804
19108SOL    HW258541   8.607   1.245   5.346  0.5878  0.4611 -0.4997
19109SOL     OW58542   7.364   1.248   4.731 -0.1153 -0.2957 -0.4570
19109SOL    HW158543   7.373   1.326   4.786 -3.1163  0.2727 -0.6213
19109SOL    HW258544   7.321   1.280   4.652  1.8703 -1.5539 -2.1324
19110SOL     OW58545   7.675   8.820   4.981 -0.3329 -0.5589 -0.2572
19110SOL    HW158546   7.690   8.872   4.902  1.1016 -3.3601 -1.9990
19110SOL    HW258547   7.597   8.767   4.961 -0.1908 -1.0016  0.3398
19111SOL     OW58548   7.584   1.674   3.604 -0.2855 -0.1988  0.1637
19111SOL    HW158549   7.496   1.710   3.602  0.1238  0.8787  0.4696
19111SOL    HW258550   7.633   1.728   3.541  0.2964 -0.3782  0.4518
19112SOL     OW58551   8.485   1.087   4.916  0.0387 -0.1846 -0.2643
19112SOL    HW158552   8.446   1.165   4.876 -0.1732 -0.3565 -0.3947
19112SOL    HW258553   8.459   1.015   4.859  0.2100 -0.3554 -0.1267
19113SOL     OW58554   7.706   1.522   4.380 -0.0894  0.2493  0.1479
19113SOL    HW158555   7.748   1.583   4.320  0.2270  0.5399  0.6558
19113SOL    HW258556   7.621   1.561   4.398 -0.7172 -0.4789 -1.0994
19114SOL     OW58557   7.293   1.340   4.474  0.0255  0.3104 -0.1199
19114SOL    HW158558   7.282   1.245   4.465  0.8643  0.1071  0.8417
19114SOL    HW258559   7.234   1.377   4.408  0.2894 -0.8934 -1.0765
19115SOL     OW58560   8.005   1.688   5.169  0.5596 -0.4611  0.1327
19115SOL    HW158561   8.022   1.618   5.231 -0.5592  1.4475  2.7593
19115SOL    HW258562   8.091   1.718   5.141  1.1063 -0.9803  1.2227
19116SOL     OW58563   7.768   1.389   3.577  0.0248  0.2535  0.1616
19116SOL    HW158564   7.693   1.409   3.633  0.8075 -0.5205  1.5246
19116SOL    HW258565   7.795   1.301   3.602  0.8130  0.1339 -0.9911
19117SOL     OW58566   7.487   0.810   4.223  0.2230 -0.1747 -0.1133
19117SOL    HW158567   7.418   0.801   4.158  0.5875 -0.5895 -0.4478
19117SOL    HW258568   7.457   0.757   4.297  0.2041 -0.3889 -0.2741
19118SOL     OW58569   7.222   1.500   3.571  0.0364 -0.4260  0.0934
19118SOL    HW158570   7.285   1.466   3.508  1.1392  2.3255 -0.4688
19118SOL    HW258571   7.241   1.594   3.576 -2.9661  0.2654  1.1620
19119SOL     OW58572   0.146   0.837   4.228  0.3011 -0.8514  0.0304
19119SOL    HW158573   0.123   0.915   4.176  1.1023 -0.9602 -0.5155
19119SOL    HW258574   0.147   0.766   4.165  0.8755 -1.0626  0.2650
19120SOL     OW58575   7.510   0.796   5.238  0.5304 -0.6207  0.1748
19120SOL    HW158576   7.529   0.865   5.301  1.5881 -1.0910  0.3996
19120SOL    HW258577   7.537   0.832   5.153 -1.3185  0.1847 -0.1161
19121SOL     OW58578   7.922   1.156   4.233  0.2594 -0.0832 -0.0343
19121SOL    HW158579   7.869   1.083   4.266 -1.6303  1.2118 -0.0469
19121SOL    HW258580   7.921   1.220   4.303  0.5751  0.5746 -0.6158
19122SOL     OW58581   8.267   0.765   4.739  0.3780  0.5488 -0.1491
19122SOL    HW158582   8.346   0.711   4.741 -0.5738 -0.8822 -0.0947
19122SOL    HW258583   8.299   0.853   4.719  2.1304  0.2660  1.1526
19123SOL     OW58584   7.709   8.401   4.423 -0.6601 -0.8013 -0.7434
19123SOL    HW158585   7.719   8.488   4.383 -1.5342 -1.3281 -2.1644
19123SOL    HW258586   7.628   8.407   4.474  0.3757 -0.1768  0.9258
19124SOL     OW58587   7.613   0.651   4.900  0.4953 -0.1512  0.5515
19124SOL    HW158588   7.645   0.650   4.810  0.2552  0.9590  0.4421
19124SOL    HW258589   7.659   0.578   4.942  0.8782 -0.4615 -0.3679
19125SOL     OW58590   0.009   1.879   5.075  0.5342  0.3474  0.2382
19125SOL    HW158591  -0.077   1.888   5.034  0.8831  1.0316 -0.3742
19125SOL    HW258592   0.068   1.862   5.002  1.0799  0.9798  0.5237
19126SOL     OW58593   7.725   0.235   5.601  0.5586 -0.5953  0.4779
19126SOL    HW158594   7.655   0.272   5.655 -0.3068  0.0452 -1.0506
19126SOL    HW258595   7.709   0.140   5.602 -1.0962 -0.3650 -0.8583
19127SOL     OW58596   7.639   1.299   3.957  0.2621  0.1086 -0.0028
19127SOL    HW158597   7.637   1.391   3.984  2.3545 -0.1521  1.2717
19127SOL    HW258598   7.635   1.250   4.039 -2.7076 -1.0853 -0.7226
19128SOL     OW58599   8.642   0.198   4.407 -0.2188 -0.3794  0.3166
19128SOL    HW158600   8.626   0.183   4.500  0.3555  0.4752  0.5699
19128SOL    HW258601   8.666   0.112   4.372 -0.2852 -0.6744  0.9901
19129SOL     OW58602   7.749   0.508   5.124  0.3772  0.1069  0.1242
19129SOL    HW158603   7.825   0.507   5.182 -0.3565  0.2722  1.1126
19129SOL    HW258604   7.679   0.468   5.176 -0.2830  0.2147 -0.6662
19130SOL     OW58605   8.721   0.102   4.900 -0.3085  0.3692 -0.3807
19130SOL    HW158606   8.748   0.035   4.963 -1.7777 -0.4431 -0.5827
19130SOL    HW258607   8.770   0.082   4.820 -2.4209 -1.9412 -1.1967
19131SOL     OW58608   8.450   0.719   5.111 -0.1006  0.1595  0.6623
19131SOL    HW158609   8.370   0.666   5.124  0.9401 -1.8088 -0.4370
19131SOL    HW258610   8.417   0.804   5.081 -1.7926 -0.7444 -0.2316
19132SOL     OW58611   8.330   0.379   4.867  0.3713  0.0449 -0.1801
19132SOL    HW158612   8.294   0.337   4.945 -1.3252  1.0555 -0.3680
19132SOL    HW258613   8.310   0.319   4.795  1.4295 -0.6192  0.0621
19133SOL     OW58614   8.157   0.698   4.171 -0.3309 -0.3033  0.2613
19133SOL    HW158615   8.220   0.634   4.140  0.0786 -0.2747  1.0258
19133SOL    HW258616   8.072   0.654   4.164 -0.5362  0.3340 -2.7020
19134SOL     OW58617   7.363   1.206   4.126 -0.5869  1.1177 -0.2355
19134SOL    HW158618   7.301   1.144   4.165  0.6644 -0.4834 -0.6850
19134SOL    HW258619   7.436   1.210   4.188 -0.1741  1.3021 -0.7269
19135SOL     OW58620   7.650   2.041   4.851  0.0819  0.2711  0.0203
19135SOL    HW158621   7.688   1.991   4.924 -0.2784 -0.9989 -0.6218
19135SOL    HW258622   7.580   1.984   4.818 -1.4004  1.9018  0.2318
19136SOL     OW58623   7.876   0.288   3.670 -0.2988  0.2163 -0.7994
19136SOL    HW158624   7.894   0.310   3.578  0.5781 -1.9255 -1.2004
19136SOL    HW258625   7.785   0.259   3.671 -0.5149  0.8702 -0.8410
19137SOL     OW58626   8.821   1.286   4.588  0.2145  0.0527  0.0551
19137SOL    HW158627   8.809   1.264   4.496  0.5996 -0.4427  0.1196
19137SOL    HW258628   8.741   1.334   4.612  0.9061  1.8671 -1.0165
19138SOL     OW58629   7.498   8.362   4.604 -0.4450  0.1328  0.3531
19138SOL    HW158630   7.531   8.286   4.653 -0.1995  0.7576  1.1713
19138SOL    HW258631   7.452   8.414   4.669 -0.0055  1.0366 -0.0468
19139SOL     OW58632   8.211   1.207   4.402 -0.3844  0.3097 -0.0467
19139SOL    HW158633   8.148   1.270   4.367 -0.7178  1.0894  1.8582
19139SOL    HW258634   8.159   1.146   4.454  0.1536 -0.5185 -0.4526
19140SOL     OW58635   7.570   1.860   4.339 -0.3904  0.1619  0.0967
19140SOL    HW158636   7.629   1.934   4.344 -0.4706  0.3314 -1.2321
19140SOL    HW258637   7.625   1.787   4.308 -0.8114  0.2665 -0.9256
19141SOL     OW58638   8.582   1.510   5.051 -0.0131 -0.2792 -0.0167
19141SOL    HW158639   8.600   1.417   5.034 -0.1820 -0.5471  1.1382
19141SOL    HW258640   8.510   1.532   4.993  0.3714 -0.7312 -0.6758
19142SOL     OW58641   7.735   0.808   3.724 -0.1592  0.8552 -0.3187
19142SOL    HW158642   7.790   0.775   3.653 -0.4528 -0.7719  0.1593
19142SOL    HW258643   7.778   0.778   3.804 -2.0317 -1.1287  0.0520
19143SOL     OW58644   7.735   1.510   5.317  0.3430  0.2903 -0.4370
19143SOL    HW158645   7.827   1.497   5.342 -0.1545 -1.7872  0.5851
19143SOL    HW258646   7.689   1.519   5.401 -0.5398  0.0325 -0.8819
19144SOL     OW58647   8.375   1.531   3.839  0.6204 -0.6604  0.2238
19144SOL    HW158648   8.335   1.576   3.765  0.8913 -0.9631 -0.1138
19144SOL    HW258649   8.326   1.449   3.847 -0.9018  0.3519  1.8247
19145SOL     OW58650   7.606   0.202   5.348 -0.5184  0.1173  0.3676
19145SOL    HW158651   7.600   0.297   5.340 -1.0322  0.2162  1.5887
19145SOL    HW258652   7.644   0.188   5.435  0.5024 -0.7936 -0.2124
19146SOL     OW58653   7.550   1.725   3.293  0.0306 -0.3754  0.1890
19146SOL    HW158654   7.595   1.809   3.281 -1.5453  0.2712 -1.6776
19146SOL    HW258655   7.596   1.664   3.236 -1.0252  0.1565 -1.2998
19147SOL     OW58656   7.466   1.977   4.651  0.0752  0.5754  0.1395
19147SOL    HW158657   7.419   1.939   4.577  1.1527  2.9765 -1.9518
19147SOL    HW258658   7.409   2.046   4.683  0.8876  1.6338 -0.5890
19148SOL     OW58659   8.223   1.806   4.302  0.6025  0.1330  0.2541
19148SOL    HW158660   8.131   1.781   4.311  0.6244 -0.5208 -1.0546
19148SOL    HW258661   8.221   1.893   4.264  0.4769 -0.5055 -1.3025
19149SOL     OW58662   7.782   0.278   4.035 -0.9033 -0.1222  0.0054
19149SOL    HW158663   7.712   0.216   4.012 -1.5415  0.6292 -0.1280
19149SOL    HW258664   7.752   0.362   4.000  0.8038 -0.0678 -1.4527
19150SOL     OW58665   7.685   8.816   3.756 -0.2660  0.4306  0.7310
19150SOL    HW158666   7.646   8.870   3.825 -0.6382  2.2033 -0.7991
19150SOL    HW258667   7.643   8.846   3.675  0.5568 -1.2036 -0.3610
19151SOL     OW58668   8.524   0.798   5.581  0.1458 -0.0224 -0.1266
19151SOL    HW158669   8.437   0.799   5.620  0.4915  1.0402  0.6505
19151SOL    HW258670   8.556   0.710   5.597 -0.3204 -0.0592  0.6498
19152SOL     OW58671   8.428   1.551   4.678 -0.1467 -0.8091 -0.0835
19152SOL    HW158672   8.472   1.484   4.626 -0.7606 -0.2977 -1.3095
19152SOL    HW258673   8.350   1.573   4.627  0.5213  1.5293 -0.2201
19153SOL     OW58674   0.330   0.496   4.931  0.0465  0.2485 -0.1033
19153SOL    HW158675   0.289   0.573   4.892  0.4527  0.9599  0.8399
19153SOL    HW258676   0.258   0.449   4.973 -0.1183  0.3832 -0.2353
19154SOL     OW58677   8.194   1.645   4.599  0.7393 -0.5561  0.0387
19154SOL    HW158678   8.158   1.728   4.631 -0.7064 -0.6351 -1.2750
19154SOL    HW258679   8.121   1.602   4.554  1.7480 -2.0516 -0.2658
19155SOL     OW58680   8.164   0.375   4.525 -0.6637 -0.2102  0.5098
19155SOL    HW158681   8.207   0.316   4.463  1.2303  0.7769  0.7934
19155SOL    HW258682   8.149   0.322   4.603 -1.5078 -1.0101 -0.1795
19156SOL     OW58683   7.865   0.502   4.877 -0.0038 -0.0105 -0.3646
19156SOL    HW158684   7.957   0.529   4.882  0.3753 -1.2169 -0.2538
19156SOL    HW258685   7.840   0.487   4.968  0.6480 -2.5441 -0.5205
19157SOL     OW58686   8.475   1.040   3.773 -0.3023 -0.1034 -0.3977
19157SOL    HW158687   8.483   1.093   3.853 -0.2301 -0.2021 -0.3391
19157SOL    HW258688   8.479   0.950   3.804  0.0409 -0.1409 -0.5474
19158SOL     OW58689   8.063   8.645   4.253  0.6205 -0.4438  0.0567
19158SOL    HW158690   8.032   8.702   4.324 -0.4572 -0.1265 -0.6353
19158SOL    HW258691   8.017   8.563   4.267  0.0465 -0.2279 -0.5320
19159SOL     OW58692   8.166   0.004   3.764  0.6930  0.5179  0.3520
19159SOL    HW158693   8.102  -0.029   3.827 -1.0566  2.0355 -0.5209
19159SOL    HW258694   8.219  -0.072   3.741 -1.0233 -0.9011  0.8706
19160SOL     OW58695   8.585   0.242   4.703  0.2859 -0.1026  0.2742
19160SOL    HW158696   8.642   0.314   4.678  0.1826  0.4222  1.4723
19160SOL    HW258697   8.620   0.212   4.787 -0.2778 -0.7964  0.2748
19161SOL     OW58698   0.071   2.090   4.526 -0.4425 -0.2217 -0.7396
19161SOL    HW158699   0.090   2.042   4.445  0.9283 -0.7532 -0.1327
19161SOL    HW258700   0.118   2.173   4.515  0.5180 -0.6668 -0.1282
19162SOL     OW58701   8.069   1.028   4.531  0.0014  0.4690  0.3842
19162SOL    HW158702   7.984   1.036   4.489  0.7075 -0.8341 -1.4370
19162SOL    HW258703   8.058   0.959   4.596 -0.2033 -0.1348 -0.2796
19163SOL     OW58704   8.654   1.800   3.524  0.0041 -0.4660  0.2495
19163SOL    HW158705   8.630   1.726   3.469 -0.8170  0.4575 -0.6836
19163SOL    HW258706   8.692   1.761   3.603  0.6444 -1.8341 -0.7045
19164SOL     OW58707   8.103   0.464   3.736 -0.1290 -0.2333 -0.1383
19164SOL    HW158708   8.059   0.380   3.718 -0.3701 -0.2521  0.4812
19164SOL    HW258709   8.158   0.445   3.812 -0.4328  0.2517  0.2038
19165SOL     OW58710   7.424   0.256   4.915  0.5422 -0.1416  0.0920
19165SOL    HW158711   7.407   0.198   4.990  0.7767  1.5142  1.5052
19165SOL    HW258712   7.394   0.342   4.946  2.8659  1.0592 -0.8268
19166SOL     OW58713   7.505   0.044   4.548 -0.1927 -0.3546  0.0867
19166SOL    HW158714   7.500   0.134   4.582 -0.5539 -0.0400 -0.7613
19166SOL    HW258715   7.538  -0.008   4.621  2.0176  0.8131 -0.0119
19167SOL     OW58716   8.005   8.776   4.499 -0.2066 -0.1645  0.2860
19167SOL    HW158717   8.016   8.699   4.554  0.9542  0.1146  0.4742
19167SOL    HW258718   7.945   8.832   4.549 -1.4946 -1.1458 -0.1017
19168SOL     OW58719   8.062   0.033   3.463  0.0695  0.3159 -0.0187
19168SOL    HW158720   8.094   0.025   3.553  1.5947  0.5062 -0.5036
19168SOL    HW258721   8.004  -0.042   3.451  1.9289 -1.2611  0.3316
19169SOL     OW58722   7.920   1.617   3.704  0.0313  0.2718  0.2710
19169SOL    HW158723   7.915   1.701   3.659 -0.4490  0.3109  0.3894
19169SOL    HW258724   7.867   1.558   3.650  1.6825 -0.3876 -0.7213
19170SOL     OW58725   8.409   0.555   3.911  0.8473 -0.5611  0.1919
19170SOL    HW158726   8.432   0.474   3.865  1.8001 -0.6090  0.7394
19170SOL    HW258727   8.421   0.535   4.003  2.0043  0.4598  0.2961
19171SOL     OW58728   7.689   0.164   4.305 -0.1280 -0.3166 -0.2927
19171SOL    HW158729   7.654   0.247   4.336 -0.0523 -0.7583  1.0511
19171SOL    HW258730   7.751   0.188   4.236 -0.2296  0.7189 -0.0356
19172SOL     OW58731   8.589   1.085   4.550  0.0520 -0.5557 -0.3777
19172SOL    HW158732   8.647   1.030   4.603  1.2003  0.5124 -0.4680
19172SOL    HW258733   8.644   1.118   4.479 -0.4072  1.1631  0.0023
19173SOL     OW58734   0.050   1.259   4.888  0.4317 -0.1238 -0.0702
19173SOL    HW158735   0.023   1.264   4.796 -0.0774 -0.4920  0.0584
19173SOL    HW258736   0.130   1.205   4.886  0.6355  0.1831 -0.3379
19174SOL     OW58737   8.270   0.160   5.168  0.2875  0.0542  0.1073
19174SOL    HW158738   8.184   0.157   5.126  0.2571 -1.4331  0.1979
19174SOL    HW258739   8.272   0.082   5.224  1.3246  0.5937  0.8569
19175SOL     OW58740   8.655   0.724   5.325  0.2832  0.7174  0.2794
19175SOL    HW158741   8.599   0.680   5.261  1.7825 -1.0247  0.1007
19175SOL    HW258742   8.594   0.751   5.394 -0.8140 -1.1723  0.1305
19176SOL     OW58743   8.043   1.103   3.911  0.0538  0.3961  0.1626
19176SOL    HW158744   7.957   1.111   3.954 -0.2043 -0.5962 -0.1445
19176SOL    HW258745   8.086   1.031   3.957  0.6257  0.7137  0.1333
19177SOL     OW58746   7.797   1.139   4.777 -0.3187 -0.4423 -0.3670
19177SOL    HW158747   7.863   1.070   4.781  1.2754  0.9179 -1.8540
19177SOL    HW258748   7.836   1.213   4.822 -2.7292 -0.8960  2.8591
19178SOL     OW58749   8.505   0.588   4.747 -0.1411 -0.0536  0.0442
19178SOL    HW158750   8.593   0.602   4.781  0.6190 -0.5192 -1.6210
19178SOL    HW258751   8.473   0.510   4.794  0.9867 -0.8613 -0.4897
19179SOL     OW58752   7.671   1.388   4.899 -0.0222  0.4205  0.8034
19179SOL    HW158753   7.607   1.458   4.911 -0.2697  0.4046 -0.2818
19179SOL    HW258754   7.712   1.408   4.815  1.1014  0.1895  1.2773
19180SOL     OW58755   7.844   1.254   4.494  0.3024 -0.2165  0.3050
19180SOL    HW158756   7.750   1.254   4.510 -0.0156 -0.5651 -1.4406
19180SOL    HW258757   7.883   1.246   4.582 -1.2952 -1.2601  0.9584
19181SOL     OW58758   7.604   0.900   5.029  0.2876  0.9620 -0.3403
19181SOL    HW158759   7.584   0.965   4.962  0.8383  1.5255  0.0274
19181SOL    HW258760   7.612   0.818   4.981  0.2822  1.2881 -0.9073
19182SOL     OW58761   8.444   1.642   4.350 -0.2893 -0.2855 -0.4415
19182SOL    HW158762   8.421   1.561   4.397  0.1195 -2.0981 -3.1200
19182SOL    HW258763   8.376   1.704   4.374 -4.0081 -3.1594 -2.4906
19183SOL     OW58764   0.024   1.506   5.046  0.4332 -0.6897  0.3157
19183SOL    HW158765  -0.070   1.522   5.039  0.3071 -1.4617  0.1388
19183SOL    HW258766   0.035   1.416   5.015  1.4730 -0.0152 -1.4202
19184SOL     OW58767   7.727   1.538   4.683 -0.3800  0.1659  0.1836
19184SOL    HW158768   7.755   1.543   4.591 -0.8655  0.3572  0.0432
19184SOL    HW258769   7.661   1.606   4.692  1.0966  1.5392  1.2025
19185SOL     OW58770   8.018   0.473   5.236 -0.1624 -0.0135 -0.2446
19185SOL    HW158771   8.015   0.566   5.217  1.2931  0.6674  2.3425
19185SOL    HW258772   8.111   0.449   5.225  0.3004 -0.1257  2.9164
19186SOL     OW58773   8.656   8.845   5.478 -0.0303  0.1507 -0.3841
19186SOL    HW158774   8.642   8.757   5.443 -0.5790 -0.3206  0.9594
19186SOL    HW258775   8.587   8.898   5.439 -1.9563 -0.8250  1.4957
19187SOL     OW58776   8.282   8.839   5.374 -0.4152  0.0435 -0.0476
19187SOL    HW158777   8.297   8.747   5.396 -1.7147 -0.2804 -0.4372
19187SOL    HW258778   8.268   8.882   5.459 -1.6371 -0.4874  0.0474
19188SOL     OW58779   7.578   1.259   4.529 -0.0666 -0.3508  0.2118
19188SOL    HW158780   7.558   1.348   4.500  0.7119  0.3311  1.6170
19188SOL    HW258781   7.499   1.230   4.574 -1.1950 -1.3278 -2.2153
19189SOL     OW58782   8.589   0.593   4.487 -0.1742 -0.0879 -0.3992
19189SOL    HW158783   8.548   0.611   4.571  0.7988 -1.1969  0.3463
19189SOL    HW258784   8.662   0.655   4.482 -0.6805  0.4867 -0.7824
19190SOL     OW58785   8.373   0.498   4.194 -0.0903  0.3850 -0.5708
19190SOL    HW158786   8.404   0.442   4.265 -0.4329 -0.2898 -0.9433
19190SOL    HW258787   8.424   0.579   4.203  0.2694  0.0903  0.0929
19191SOL     OW58788   6.996   8.839   5.008 -0.9356 -0.1535  0.8131
19191SOL    HW158789   7.087   8.813   4.995 -1.3951 -1.4242 -0.0305
19191SOL    HW258790   6.996   8.885   5.093  0.4388 -0.3007  0.9168
19192SOL     OW58791   7.337   1.479   4.880 -0.1542 -0.2637  0.0777
19192SOL    HW158792   7.344   1.474   4.975  2.8217 -0.9551 -0.0877
19192SOL    HW258793   7.258   1.531   4.865 -0.3848  0.3812  2.9091
19193SOL     OW58794   7.895   0.812   4.548 -0.0117  0.0082  0.1743
19193SOL    HW158795   7.941   0.733   4.521  1.7386  1.4158 -1.2100
19193SOL    HW258796   7.888   0.805   4.643 -1.9100 -2.7906 -0.0436
19194SOL     OW58797   7.816   0.119   4.606  0.0784 -0.1369  0.4196
19194SOL    HW158798   7.810   0.210   4.633 -0.6815  0.0287 -0.2912
19194SOL    HW258799   7.766   0.114   4.524  0.1202 -1.1820  0.4429
19195SOL     OW58800   8.729   0.638   3.723 -0.0880 -0.0074 -0.0186
19195SOL    HW158801   8.690   0.570   3.779  1.6622 -1.7595 -0.8399
19195SOL    HW258802   8.656   0.668   3.669 -1.4866  0.6633  2.0977
19196SOL     OW58803   8.114   0.642   4.533 -0.1977  0.0736  0.2138
19196SOL    HW158804   8.186   0.666   4.591  1.1083 -0.2533 -1.1978
19196SOL    HW258805   8.127   0.548   4.516 -0.4157  0.2073 -0.7533
19197SOL     OW58806   8.381   1.688   5.524  0.9897  0.2574 -0.0144
19197SOL    HW158807   8.394   1.701   5.430  1.9398 -0.9095 -0.0621
19197SOL    HW258808   8.299   1.639   5.531  0.9393  0.3130 -0.2349
19198SOL     OW58809   7.941   0.951   5.427  0.0935  0.0586  0.2570
19198SOL    HW158810   7.892   0.907   5.357  0.8490 -0.7351  0.2091
19198SOL    HW258811   7.996   0.882   5.464  1.3636  0.9845  0.1432
19199SOL     OW58812   8.016   0.469   4.060  0.3132 -0.2572  0.2508
19199SOL    HW158813   7.951   0.402   4.081 -1.0266  0.7506 -0.5068
19199SOL    HW258814   8.097   0.420   4.049 -0.4765 -1.6757  0.3960
19200SOL     OW58815   8.484   1.326   4.524 -0.0648  0.4528  0.0396
19200SOL    HW158816   8.410   1.309   4.466  0.5045 -0.1668 -0.5303
19200SOL    HW258817   8.528   1.242   4.532  0.9411  0.9373 -0.1506
19201SOL     OW58818   7.605   1.203   4.224  0.2195  0.3022 -0.3540
19201SOL    HW158819   7.623   1.119   4.265 -0.9639  0.2841  0.1638
19201SOL    HW258820   7.654   1.266   4.276 -0.7827  0.2064  0.7390
19202SOL     OW58821   7.658   0.656   4.619 -0.0416 -0.2405 -0.3438
19202SOL    HW158822   7.573   0.698   4.632 -1.1848 -2.0977 -1.4937
19202SOL    HW258823   7.686   0.686   4.532  0.1633 -0.1828 -0.2589
19203SOL     OW58824   8.710   0.366   5.014 -0.6271  0.1582 -0.0163
19203SOL    HW158825   8.672   0.374   5.101  0.4940 -1.4521  0.6512
19203SOL    HW258826   8.702   0.273   4.992 -0.8036  0.5181 -1.6016
19204SOL     OW58827   8.180   0.144   4.713  0.0968 -0.4356 -0.0994
19204SOL    HW158828   8.243   0.080   4.747  0.0082 -0.8535 -0.7222
19204SOL    HW258829   8.104   0.092   4.688  0.0173 -0.0800 -0.5994
19205SOL     OW58830   7.532   1.427   3.688  0.2747 -0.2717  0.2928
19205SOL    HW158831   7.519   1.445   3.781 -0.5400  1.4027 -0.1007
19205SOL    HW258832   7.531   1.513   3.647 -2.1249 -1.0945 -1.5951
19206SOL     OW58833   7.361   1.690   4.198 -0.1981  0.4545 -0.0806
19206SOL    HW158834   7.353   1.610   4.146 -0.2367 -0.4941  1.3394
19206SOL    HW258835   7.427   1.742   4.152  1.4953 -1.3685  0.1867
19207SOL     OW58836   7.497   1.698   4.727 -0.2984 -0.1409  0.4383
19207SOL    HW158837   7.422   1.638   4.728  0.8194 -1.5664  1.6365
19207SOL    HW258838   7.460   1.781   4.695 -2.4306 -0.7337  1.1967
19208SOL     OW58839   8.169   0.708   5.131  0.2151 -0.3180  0.1504
19208SOL    HW158840   8.155   0.802   5.132  1.1853 -0.1733  1.1280
19208SOL    HW258841   8.137   0.680   5.045 -2.6017  0.4860  0.8162
19209SOL     OW58842   7.485   0.294   4.636 -0.0927  0.3778  0.0890
19209SOL    HW158843   7.568   0.340   4.634  0.7557 -0.9571  1.6746
19209SOL    HW258844   7.469   0.277   4.729 -0.4104 -2.3033 -0.3553
19210SOL     OW58845   7.568   0.468   5.312  0.5796 -0.4421  0.2046
19210SOL    HW158846   7.590   0.502   5.399  0.0969 -1.7387  0.8674
19210SOL    HW258847   7.502   0.528   5.278  0.5283 -0.1086  0.8839
19211SOL     OW58848   7.830   0.697   4.013  0.1889  0.0559  0.0198
19211SOL    HW158849   7.897   0.628   4.018  0.0775 -0.3920 -2.7061
19211SOL    HW258850   7.747   0.651   4.027  0.3058  0.3261  1.7841
19212SOL     OW58851   7.656   1.653   5.677  0.3528  0.6357 -0.2848
19212SOL    HW158852   7.734   1.705   5.698  0.1270  1.0262 -0.4034
19212SOL    HW258853   7.682   1.563   5.695  0.5319  0.8458  0.5973
19213SOL     OW58854   7.771   0.392   4.645  0.0545 -0.2073 -0.1855
19213SOL    HW158855   7.770   0.474   4.595  1.9207 -0.3372 -0.4938
19213SOL    HW258856   7.810   0.415   4.729 -2.5780 -0.1071  1.1331
19214SOL     OW58857   8.325   1.520   4.940 -0.3483 -0.2352  0.0062
19214SOL    HW158858   8.328   1.536   4.846  0.0356 -0.2627  0.0120
19214SOL    HW258859   8.254   1.576   4.972 -0.2217  0.0659 -0.2433
19215SOL     OW58860   7.583   0.252   3.617  0.2110  0.7611  0.0814
19215SOL    HW158861   7.560   0.330   3.567 -1.1926  0.2487 -0.1275
19215SOL    HW258862   7.600   0.185   3.550  1.0542  0.7886  0.2633
19216SOL     OW58863   7.773   1.089   5.185 -0.0002  0.5074  0.2555
19216SOL    HW158864   7.852   1.132   5.153  0.2161  0.0182  0.1115
19216SOL    HW258865   7.736   1.047   5.108  0.9557 -1.3498  0.7339
19217SOL     OW58866   8.295   0.843   4.351  0.6839 -0.2497  0.4341
19217SOL    HW158867   8.242   0.864   4.427 -1.5924  0.1850 -1.1793
19217SOL    HW258868   8.243   0.780   4.302  2.0750 -0.5038 -0.7981
19218SOL     OW58869   8.450   1.080   4.294  0.5242 -0.1450  0.1838
19218SOL    HW158870   8.378   1.137   4.319  0.4684  0.2435 -0.8057
19218SOL    HW258871   8.425   0.993   4.325 -0.5278 -0.0731 -0.4232
19219SOL     OW58872   8.768   2.052   4.755 -0.3284 -0.2403  0.3834
19219SOL    HW158873   8.724   2.134   4.777 -1.3998 -0.6163 -0.2581
19219SOL    HW258874   8.823   2.073   4.680 -0.8770 -0.1875 -0.0068
19220SOL     OW58875   6.922   1.201   4.695  0.5588 -0.0602  0.8998
19220SOL    HW158876   6.974   1.151   4.757  1.2954  1.5797  1.6668
19220SOL    HW258877   6.986   1.249   4.643 -0.1096 -0.2289 -0.1166
19221SOL     OW58878   8.411   1.678   5.259 -0.2573 -0.9360 -0.6074
19221SOL    HW158879   8.467   1.621   5.207 -0.1791  0.6900 -2.4434
19221SOL    HW258880   8.375   1.740   5.196 -1.5770  0.0759  1.0366
19222SOL     OW58881   8.499   1.799   4.122 -0.0703 -0.1522 -0.3217
19222SOL    HW158882   8.544   1.866   4.174  0.8554 -0.4485 -0.7224
19222SOL    HW258883   8.462   1.740   4.188 -1.1133  0.8814  0.0370
19223SOL     OW58884   7.518   1.921   5.250 -0.4228  0.4682  0.1552
19223SOL    HW158885   7.595   1.871   5.223 -1.3277 -0.2916 -1.1614
19223SOL    HW258886   7.507   1.900   5.342 -0.1647 -0.9561 -0.1153
19224SOL     OW58887   8.530   0.745   4.205 -0.1424 -0.6629  0.0774
19224SOL    HW158888   8.610   0.734   4.256  0.1821  0.2278 -0.2261
19224SOL    HW258889   8.471   0.795   4.261  0.1770  0.2272 -0.3760
19225SOL     OW58890   7.997   1.243   5.091  0.7154  0.1201  0.2202
19225SOL    HW158891   7.941   1.315   5.062  0.8418  0.5525  1.0285
19225SOL    HW258892   8.086   1.278   5.085  0.8942 -0.4673 -0.7807
19226SOL     OW58893   8.037   1.654   3.954  0.1391 -0.3061 -0.4247
19226SOL    HW158894   8.025   1.572   4.001  0.4412  0.6129  1.3370
19226SOL    HW258895   7.985   1.644   3.874 -2.6035 -0.9463  1.3236
19227SOL     OW58896   7.604   0.454   4.300 -1.4345  0.4755  0.0028
19227SOL    HW158897   7.611   0.464   4.205  0.5073  0.2147  0.0762
19227SOL    HW258898   7.527   0.505   4.323 -1.3931  1.3558 -1.6109
19228SOL     OW58899   8.208   1.651   3.649 -0.0600  0.2283 -0.0574
19228SOL    HW158900   8.117   1.633   3.676  0.0097  1.4656  1.1430
19228SOL    HW258901   8.233   1.575   3.596 -1.5887 -0.4280  0.1017
19229SOL     OW58902   8.162   1.024   5.023 -0.6050  0.4446 -0.6896
19229SOL    HW158903   8.136   1.083   5.093  0.4018  1.2916 -1.0025
19229SOL    HW258904   8.245   1.060   4.991 -0.0100 -1.0911 -0.9500
19230SOL     OW58905   8.204   0.891   3.980 -0.2159 -0.3015  0.0104
19230SOL    HW158906   8.298   0.873   3.980  0.2053  1.5688  1.8163
19230SOL    HW258907   8.170   0.838   4.052 -0.5719 -0.9199 -0.5954
19231SOL     OW58908   7.936   1.508   4.953 -0.5200  0.3325 -0.5355
19231SOL    HW158909   7.956   1.579   5.014 -0.1226  0.6328 -1.0055
19231SOL    HW258910   7.853   1.533   4.912 -0.8596  0.0620 -0.0276
19232SOL     OW58911   8.071   1.409   4.269 -0.0122  0.0326 -0.0005
19232SOL    HW158912   8.007   1.406   4.198  1.0937 -0.9388 -0.9848
19232SOL    HW258913   8.156   1.403   4.226  0.6656 -1.7102  1.4591
19233SOL     OW58914   8.218   0.081   4.433 -0.3285 -0.3280 -0.1638
19233SOL    HW158915   8.208   0.126   4.517 -0.4276  0.6500 -0.6820
19233SOL    HW258916   8.151   0.014   4.434  1.6344 -2.4460  1.8356
19234SOL     OW58917   7.893   1.445   4.062 -0.6372  0.0525 -0.5095
19234SOL    HW158918   7.811   1.491   4.045 -1.2586 -0.0899  1.7420
19234SOL    HW258919   7.874   1.353   4.043 -0.2455  0.2906 -2.2442
19235SOL     OW58920   7.764   1.156   3.729  0.5794 -0.7333  0.1228
19235SOL    HW158921   7.752   1.062   3.740 -1.6712 -0.5120  0.1312
19235SOL    HW258922   7.746   1.193   3.815  0.9471 -0.2626  0.0000
19236SOL     OW58923   7.531   1.125   5.319  0.1093  0.2051  0.1871
19236SOL    HW158924   7.491   1.160   5.239 -1.3512 -0.6660  0.4921
19236SOL    HW258925   7.620   1.101   5.293 -0.7029 -1.1393 -1.5122
19237SOL     OW58926   7.788   0.113   5.191 -1.0482  0.6314 -0.1450
19237SOL    HW158927   7.762   0.074   5.107 -1.4069  0.5474  0.0035
19237SOL    HW258928   7.705   0.136   5.234 -1.0337 -2.0753  1.5216
19238SOL     OW58929   7.361   0.137   3.767  0.0379  0.0880 -0.1996
19238SOL    HW158930   7.421   0.185   3.709  0.0718 -0.1499 -0.3667
19238SOL    HW258931   7.274   0.160   3.736  0.0565 -0.0557 -0.3630
19239SOL     OW58932   8.747   0.605   4.875 -0.0182 -0.0055 -0.9905
19239SOL    HW158933   8.732   0.527   4.928 -1.1959 -0.5840 -2.1420
19239SOL    HW258934   8.744   0.677   4.938 -0.2842 -0.7686 -0.1064
19240SOL     OW58935   7.220   0.525   4.009  0.5359 -0.1944  0.4736
19240SOL    HW158936   7.237   0.620   4.011 -2.0365  0.3360  0.7389
19240SOL    HW258937   7.215   0.504   3.916  0.6171  0.0527  0.4108
19241SOL     OW58938   8.611   1.550   3.973 -0.5663 -0.0266  0.3549
19241SOL    HW158939   8.616   1.638   4.011  0.1327  1.5761 -3.0916
19241SOL    HW258940   8.522   1.544   3.938  0.2724  0.6339 -2.0797
19242SOL     OW58941   7.837   0.690   5.358 -0.5385  0.3733  0.0073
19242SOL    HW158942   7.794   0.645   5.430 -0.4061 -0.3439 -0.3477
19242SOL    HW258943   7.776   0.683   5.285  1.2770 -3.3799 -1.4394
19243SOL     OW58944   8.298   0.401   5.257 -0.1371  0.1718  0.1555
19243SOL    HW158945   8.297   0.307   5.239  3.6968 -0.3595  1.6805
19243SOL    HW258946   8.327   0.407   5.348  0.6893  2.8311 -0.2013
19244SOL     OW58947   8.693   0.915   4.744 -0.5128 -0.8146  0.2301
19244SOL    HW158948   8.685   0.820   4.751  2.2072 -1.0406  1.7327
19244SOL    HW258949   8.782   0.929   4.712 -0.7729  1.2218  0.2903
19245SOL     OW58950   8.040   1.457   5.349  0.0597 -0.6369 -0.2402
19245SOL    HW158951   8.052   1.489   5.439  1.9910 -1.2716 -0.2172
19245SOL    HW258952   8.024   1.364   5.359 -1.7603 -0.3905 -0.4987
19246SOL     OW58953   8.412   0.318   4.405 -0.8772 -0.4152  0.1538
19246SOL    HW158954   8.436   0.399   4.449  0.4399  0.0145 -1.2564
19246SOL    HW258955   8.490   0.263   4.410 -1.4071 -1.1907  0.1847
19247SOL     OW58956   7.765   0.962   4.339  0.1662  0.4556  0.1413
19247SOL    HW158957   7.710   0.894   4.300 -1.1681  1.4791  0.1357
19247SOL    HW258958   7.813   0.918   4.409 -0.7502 -0.4667  0.2045
19248SOL     OW58959   8.255   1.378   3.534 -0.2107 -0.5220  0.7727
19248SOL    HW158960   8.209   1.306   3.489 -1.4677  0.0458  1.1115
19248SOL    HW258961   8.269   1.345   3.623  0.3194 -0.8003  0.5954
19249SOL     OW58962   7.803   1.738   4.243 -0.2529 -0.2676 -0.1514
19249SOL    HW158963   7.854   1.727   4.163  2.3796 -3.5458  1.7072
19249SOL    HW258964   7.865   1.776   4.305 -1.0232 -1.4057  1.3686
19250SOL     OW58965   8.354   1.001   4.665 -0.3438 -0.5299  0.1628
19250SOL    HW158966   8.286   1.066   4.652 -0.0305 -0.2048  0.1510
19250SOL    HW258967   8.430   1.035   4.619  0.1482 -0.3763  1.0597
19251SOL     OW58968   8.490   0.824   3.934 -0.6597 -0.8528 -0.1704
19251SOL    HW158969   8.526   0.821   4.023 -1.4310 -2.2494  0.1321
19251SOL    HW258970   8.459   0.734   3.918 -1.7358 -0.3040 -1.3423
19252SOL     OW58971   7.558   1.372   5.155 -0.2934 -0.3156  0.0592
19252SOL    HW158972   7.621   1.419   5.211 -0.9034  0.5676  0.0085
19252SOL    HW258973   7.605   1.358   5.073  0.1253 -0.4043  0.3086
19253SOL     OW58974   7.993   1.501   4.519  0.3132  0.0613  0.1610
19253SOL    HW158975   8.037   1.490   4.434 -0.2326  1.1405 -0.2818
19253SOL    HW258976   7.909   1.458   4.508  0.8568 -1.1729  0.6944
19254SOL     OW58977   8.262   1.308   5.072  0.6140  0.3776  0.2774
19254SOL    HW158978   8.298   1.386   5.030 -0.1489  1.1735  1.0637
19254SOL    HW258979   8.287   1.317   5.164 -0.8489  0.5389  0.6876
19255SOL     OW58980   7.371   0.621   4.401  0.2497  0.2237 -0.0078
19255SOL    HW158981   7.383   0.654   4.490 -0.9494  0.7058 -0.0149
19255SOL    HW258982   7.316   0.544   4.410  0.8245 -0.2293 -0.2643
19256SOL     OW58983   8.111   0.615   4.886 -0.1982 -0.1089 -0.0065
19256SOL    HW158984   8.150   0.680   4.828  2.1640 -0.1772  1.3654
19256SOL    HW258985   8.164   0.536   4.872 -0.9571 -0.7601  0.6827
19257SOL     OW58986   8.296   1.429   4.101 -0.6404  0.3269  0.3227
19257SOL    HW158987   8.285   1.503   4.041  1.3083 -1.1268 -1.9940
19257SOL    HW258988   8.382   1.442   4.139 -0.7382 -0.1968  0.7319
19258SOL     OW58989   8.404   0.001   4.728 -0.2709 -0.4348  0.1391
19258SOL    HW158990   8.429  -0.074   4.674  1.0370  0.1658 -0.1334
19258SOL    HW258991   8.470   0.068   4.708 -0.8625  0.4583  1.0835
19259SOL     OW58992   7.937   8.734   4.843  0.0976  0.1437 -0.0300
19259SOL    HW158993   7.857   8.682   4.839  0.5207 -0.4603 -1.3417
19259SOL    HW258994   8.006   8.673   4.817  0.6564  1.2690 -1.2958
19260SOL     OW58995   8.247   1.259   3.821  0.0348  0.7506  0.2875
19260SOL    HW158996   8.316   1.196   3.844 -0.2086  0.4267  0.1478
19260SOL    HW258997   8.167   1.219   3.856  0.2291  2.3479  2.8259
19261SOL     OW58998   8.028   1.881   4.662  0.8543 -0.5654  0.0352
19261SOL    HW158999   7.943   1.923   4.648  1.6364  0.7815 -0.9166
19261SOL    HW259000   8.051   1.902   4.753  0.4175 -0.4822  0.1283
19262SOL     OW59001   7.518   0.915   3.857 -0.2775  0.2619 -0.6031
19262SOL    HW159002   7.581   0.875   3.797 -0.0265  1.6572 -1.3020
19262SOL    HW259003   7.569   0.978   3.908 -0.7689  0.1128  0.0903
19263SOL     OW59004   8.161   1.988   3.547  0.3806 -0.4937  0.0396
19263SOL    HW159005   8.129   1.963   3.633  0.6290  1.7120  0.8321
19263SOL    HW259006   8.247   1.945   3.541  0.0495 -1.2616  0.5538
19264SOL     OW59007   7.997   0.218   5.353  0.0615  0.2798 -0.1635
19264SOL    HW159008   7.970   0.307   5.330 -0.3802 -0.2469 -1.7392
19264SOL    HW259009   7.947   0.161   5.295  2.1799 -0.8872 -0.9355
19265SOL     OW59010   7.154   0.025   6.525  0.0265  0.1707  0.1830
19265SOL    HW159011   7.137  -0.065   6.554 -0.2636  0.5003  1.0816
19265SOL    HW259012   7.163   0.075   6.606  2.4206  0.5732 -0.2577
19266SOL     OW59013   7.443   0.665   5.966 -0.3546 -0.3694  0.3726
19266SOL    HW159014   7.361   0.655   5.917 -1.1841 -1.1086  1.8548
19266SOL    HW259015   7.424   0.735   6.029  0.9389  1.0919 -0.7857
19267SOL     OW59016   8.400   1.220   6.362 -0.4256 -0.0856 -0.2725
19267SOL    HW159017   8.326   1.276   6.385 -0.9648 -0.8015 -0.2526
19267SOL    HW259018   8.409   1.229   6.267  0.5573  1.3349 -0.0718
19268SOL     OW59019   0.247   2.021   6.409  0.0617 -0.4073 -0.5119
19268SOL    HW159020   0.224   1.951   6.349 -0.7503  0.3855 -1.1513
19268SOL    HW259021   0.319   2.068   6.366  0.9640 -1.1287  0.1530
19269SOL     OW59022   0.085   1.070   5.935 -0.3006  0.3817 -0.1775
19269SOL    HW159023   0.096   1.159   5.968 -1.6806  0.5886 -0.2190
19269SOL    HW259024   0.030   1.027   6.000 -1.1929  0.1263 -1.0785
19270SOL     OW59025   8.125   0.697   6.061  0.0341  0.0726 -0.3915
19270SOL    HW159026   8.091   0.740   6.139  1.0433 -0.8458  0.5948
19270SOL    HW259027   8.111   0.760   5.990 -1.6813  0.5861  0.3514
19271SOL     OW59028   8.529   0.767   7.183 -0.6932  0.0153  0.2233
19271SOL    HW159029   8.563   0.709   7.252 -1.0960 -0.2837  0.1754
19271SOL    HW259030   8.437   0.743   7.176 -1.3112  1.8465  1.4212
19272SOL     OW59031   8.257   1.191   5.782 -0.0726  0.3296 -0.1760
19272SOL    HW159032   8.258   1.107   5.736  0.9906 -0.1196  0.6420
19272SOL    HW259033   8.247   1.168   5.874 -1.8927  1.2120 -0.1238
19273SOL     OW59034   8.262   1.363   7.228  0.3659  0.3278  0.7051
19273SOL    HW159035   8.307   1.280   7.239 -0.1535  0.2804  3.0553
19273SOL    HW259036   8.281   1.390   7.139  1.4134 -1.7904  0.2408
19274SOL     OW59037   7.946   1.036   6.690 -0.0357 -0.1361 -0.1230
19274SOL    HW159038   7.901   1.102   6.636  0.4376 -0.8216 -1.4050
19274SOL    HW259039   7.975   0.970   6.627  0.5578 -0.9668  0.9928
19275SOL     OW59040   7.744   0.046   6.851  0.1844 -0.3357 -0.3097
19275SOL    HW159041   7.779   0.131   6.825  1.1741 -1.0041 -1.2363
19275SOL    HW259042   7.691   0.018   6.776  0.1968 -0.7284 -0.1714
19276SOL     OW59043   7.490   2.005   5.898  0.0836 -0.1568 -0.3082
19276SOL    HW159044   7.450   2.087   5.927  1.8141  0.4731  0.4200
19276SOL    HW259045   7.532   2.027   5.814  2.0958  0.2456  0.7435
19277SOL     OW59046   0.237   1.057   7.135  1.0070  0.2830 -0.3910
19277SOL    HW159047   0.283   1.119   7.079  2.5155 -0.9913 -0.6449
19277SOL    HW259048   0.159   1.034   7.086  0.3920  1.9770 -0.2645
19278SOL     OW59049   7.466   1.813   6.096  0.5895  0.0276 -0.3926
19278SOL    HW159050   7.504   1.869   6.028  2.4484 -0.1300  0.4517
19278SOL    HW259051   7.376   1.843   6.105 -0.0354 -0.5521 -3.5606
19279SOL     OW59052   8.068   1.069   6.417 -0.6832 -0.0009 -0.3489
19279SOL    HW159053   7.978   1.099   6.414 -0.0657  2.6644  2.3786
19279SOL    HW259054   8.120   1.146   6.393  0.8974 -0.7986  0.3611
19280SOL     OW59055   8.110   1.629   6.800  0.1812 -0.1337 -0.2447
19280SOL    HW159056   8.133   1.545   6.760  0.6543  0.3400 -0.9948
19280SOL    HW259057   8.138   1.694   6.736  1.6717  0.7070  1.2129
19281SOL     OW59058   7.949   1.208   5.388 -0.2119 -0.1375 -0.1910
19281SOL    HW159059   7.949   1.198   5.293 -0.8337 -0.5260 -0.1561
19281SOL    HW259060   7.937   1.119   5.422 -0.0761  0.0076  0.2461
19282SOL     OW59061   7.909   0.742   5.880  0.1118 -0.1678  0.5889
19282SOL    HW159062   7.849   0.729   5.953  0.5950 -0.1411  1.0001
19282SOL    HW259063   7.931   0.654   5.850  0.8278 -0.2312  1.2490
19283SOL     OW59064   7.896   2.033   5.348  0.0592 -0.3682 -0.0685
19283SOL    HW159065   7.857   1.947   5.336  0.2435 -0.6505  1.2982
19283SOL    HW259066   7.946   2.027   5.428 -1.1077  1.4188  0.8810
19284SOL     OW59067   0.645   0.608   5.463  0.9411 -0.5182 -0.5774
19284SOL    HW159068   0.656   0.668   5.389 -0.7844 -0.1556 -0.5860
19284SOL    HW259069   0.713   0.632   5.525  0.5753  1.1614 -0.7860
19285SOL     OW59070   7.575   0.602   6.819  0.5537 -0.5375 -0.7256
19285SOL    HW159071   7.592   0.525   6.873 -0.2582 -1.0173 -1.1327
19285SOL    HW259072   7.480   0.602   6.806  0.5854  0.3182 -1.0531
19286SOL     OW59073   8.088   1.540   6.195 -0.0544  0.1562  0.2959
19286SOL    HW159074   8.112   1.625   6.158  0.6475  0.4947  1.4968
19286SOL    HW259075   8.141   1.477   6.146 -0.4112  0.4226 -0.4442
19287SOL     OW59076   0.097   1.007   6.848  0.1060 -0.1472 -0.2288
19287SOL    HW159077   0.164   0.939   6.854 -0.3780 -0.6584 -0.4923
19287SOL    HW259078   0.018   0.960   6.822 -0.0604  0.6296 -1.1707
19288SOL     OW59079   8.200   0.268   5.904  0.0953 -0.1081 -0.2854
19288SOL    HW159080   8.186   0.309   5.989  0.0542 -0.2923 -0.2013
19288SOL    HW259081   8.295   0.268   5.893  0.1719 -1.0362  0.2450
19289SOL     OW59082   8.370   0.459   7.134 -0.1269 -0.2148  0.1866
19289SOL    HW159083   8.334   0.543   7.161  0.9623  0.0511  0.8788
19289SOL    HW259084   8.380   0.465   7.039  1.4541  1.0755  0.3929
19290SOL     OW59085   8.529   1.678   7.167 -0.6144  0.4255 -0.5549
19290SOL    HW159086   8.623   1.678   7.182 -0.7251 -0.0213  0.1409
19290SOL    HW259087   8.520   1.667   7.072  0.0248  0.0359 -0.5748
19291SOL     OW59088   7.513   0.338   6.978 -0.3614  0.6429 -0.0662
19291SOL    HW159089   7.560   0.279   7.036  0.8570  0.4583 -1.2041
19291SOL    HW259090   7.522   0.300   6.891 -0.2917  2.0211 -0.6998
19292SOL     OW59091   0.017   0.820   5.559 -0.0390  0.0562 -0.1041
19292SOL    HW159092  -0.014   0.910   5.546 -0.1277 -0.0233 -0.4375
19292SOL    HW259093  -0.030   0.768   5.495  0.4972 -0.1275 -0.3589
19293SOL     OW59094   0.110   0.102   6.313  0.1618  0.0783  0.0625
19293SOL    HW159095   0.136   0.013   6.336 -0.1870 -0.1047 -0.2569
19293SOL    HW259096   0.043   0.092   6.245  0.3368  0.5903 -0.1929
19294SOL     OW59097   8.022   0.327   6.642 -0.4458  0.2431  0.0816
19294SOL    HW159098   8.115   0.333   6.663  0.1786 -1.3577 -1.9340
19294SOL    HW259099   8.009   0.388   6.570 -0.8619  0.1472  0.0680
19295SOL     OW59100   8.512   1.150   7.090 -0.1909  0.3827  0.7187
19295SOL    HW159101   8.543   1.060   7.095 -1.9008 -0.2016  1.8174
19295SOL    HW259102   8.418   1.143   7.073 -0.4530  1.9332  1.2959
19296SOL     OW59103   7.916   0.483   7.234 -0.1256  0.4291 -0.2969
19296SOL    HW159104   7.835   0.509   7.279 -0.1574  1.0632 -0.7065
19296SOL    HW259105   7.933   0.554   7.173  0.5563  0.1291 -0.4643
19297SOL     OW59106   8.285   0.436   6.670 -0.2184  0.5932 -0.1978
19297SOL    HW159107   8.253   0.515   6.625 -0.3443  0.2868 -0.6501
19297SOL    HW259108   8.359   0.407   6.618 -0.3190  0.2760 -0.1632
19298SOL     OW59109   8.617   0.734   6.049 -0.2275  0.0301 -0.0954
19298SOL    HW159110   8.532   0.717   6.089 -1.4885 -2.4103 -3.3834
19298SOL    HW259111   8.660   0.649   6.047 -0.2418 -0.0302 -3.5925
19299SOL     OW59112   7.518   0.883   6.444  0.1555  0.1224 -0.2456
19299SOL    HW159113   7.542   0.961   6.493  1.5472 -0.1158 -0.5204
19299SOL    HW259114   7.474   0.917   6.365 -1.0623  0.5359  0.5825
19300SOL     OW59115   7.654   1.660   7.295  0.0383 -0.0176  0.3889
19300SOL    HW159116   7.646   1.646   7.389 -0.3491 -2.0924  0.0883
19300SOL    HW259117   7.730   1.607   7.269 -0.6412 -0.5070 -0.6573
19301SOL     OW59118   8.653   0.337   5.289  0.0876 -0.0890 -0.5091
19301SOL    HW159119   8.561   0.333   5.316 -0.1586  0.8059 -1.1459
19301SOL    HW259120   8.702   0.338   5.371 -0.3511 -2.3181 -0.1734
19302SOL     OW59121   0.309   1.532   6.069  0.0972 -0.0831  0.2127
19302SOL    HW159122   0.400   1.553   6.050  0.6148 -1.1048  1.4099
19302SOL    HW259123   0.310   1.440   6.094 -0.9642  0.3304  2.0003
19303SOL     OW59124   7.868   0.819   6.505  0.3043 -0.3570 -0.2244
19303SOL    HW159125   7.837   0.735   6.537  0.9328 -0.1509  0.9957
19303SOL    HW259126   7.790   0.875   6.503  0.1882 -0.4655  0.6994
19304SOL     OW59127   8.736   1.844   5.730  0.2683  0.4618 -0.6805
19304SOL    HW159128   8.778   1.771   5.685  0.2680  0.2194 -0.2918
19304SOL    HW259129   8.735   1.818   5.822 -0.8370  0.4096 -0.6939
19305SOL     OW59130   7.721   1.986   6.043  0.1871  0.3519 -0.2599
19305SOL    HW159131   7.662   1.999   5.969  0.9313  2.8806 -0.5115
19305SOL    HW259132   7.681   2.035   6.115  1.2237  0.9095 -0.0331
19306SOL     OW59133   8.599   1.532   6.936  0.3245  0.0082 -0.3557
19306SOL    HW159134   8.591   1.449   6.890 -1.9475  0.4312 -0.8187
19306SOL    HW259135   8.652   1.586   6.877  0.3337 -0.5537 -0.8744
19307SOL     OW59136   8.069   0.689   5.532  0.2207  0.7704 -0.1571
19307SOL    HW159137   8.079   0.659   5.622  3.6921 -1.9606 -1.2425
19307SOL    HW259138   7.993   0.641   5.499  2.7185 -3.5238 -0.3598
19308SOL     OW59139   8.065   1.014   7.184 -0.3335 -0.1293  0.0214
19308SOL    HW159140   8.143   1.025   7.238  0.1006  2.1928 -0.9666
19308SOL    HW259141   7.992   1.017   7.246  0.2749 -2.4919  0.9687
19309SOL     OW59142   8.293   1.997   5.406  0.9223 -0.1318  0.0721
19309SOL    HW159143   8.354   1.935   5.367  1.9757  0.2424  1.0695
19309SOL    HW259144   8.304   2.077   5.355  1.2416 -0.0767  0.2262
19310SOL     OW59145   7.691   0.138   7.118 -0.0400  0.0737 -0.6695
19310SOL    HW159146   7.713   0.108   7.030  1.8139  2.3951 -1.1175
19310SOL    HW259147   7.767   0.114   7.171 -1.1040 -1.2238  0.3239
19311SOL     OW59148   7.576   2.093   5.616 -0.1488 -0.2562 -0.5295
19311SOL    HW159149   7.555   2.184   5.595  0.5163  0.6503  2.2975
19311SOL    HW259150   7.669   2.094   5.638 -0.2861 -1.4620  0.2141
19312SOL     OW59151   7.764   1.658   6.548 -0.2416 -0.2171 -0.0058
19312SOL    HW159152   7.773   1.670   6.453  0.5744 -0.2827  0.0530
19312SOL    HW259153   7.673   1.633   6.561 -1.0158  2.0852 -0.5404
19313SOL     OW59154   8.611   1.564   6.363  0.1698 -0.4845 -0.2089
19313SOL    HW159155   8.618   1.497   6.296  1.2045  1.4665 -2.1930
19313SOL    HW259156   8.677   1.629   6.339 -1.5766  1.8466  0.8667
19314SOL     OW59157   8.109   0.869   5.732  0.3567  0.1607 -0.3760
19314SOL    HW159158   8.024   0.837   5.763  1.7353 -0.2878  3.4233
19314SOL    HW259159   8.138   0.802   5.669 -1.4813 -0.3496 -0.7454
19315SOL     OW59160   8.332   0.114   5.644 -0.3109 -0.4457 -0.4029
19315SOL    HW159161   8.376   0.031   5.662  0.2906 -0.4136 -1.5817
19315SOL    HW259162   8.239   0.095   5.653 -0.1720 -1.2111 -0.5116
19316SOL     OW59163   8.139   0.294   7.200  0.2795  0.2989  0.5798
19316SOL    HW159164   8.221   0.342   7.197  0.8086 -0.6501 -1.4162
19316SOL    HW259165   8.071   0.362   7.200  1.0130  1.1404 -1.9838
19317SOL     OW59166   8.370   1.678   6.046  0.1198 -0.7293  0.6528
19317SOL    HW159167   8.345   1.714   5.961 -3.9303 -5.8289 -0.8602
19317SOL    HW259168   8.319   1.729   6.109 -0.8680 -0.0995 -0.5987
19318SOL     OW59169   8.303   0.920   6.834 -0.1282  0.0984 -0.0490
19318SOL    HW159170   8.290   1.003   6.881  0.4060  0.1639 -0.0137
19318SOL    HW259171   8.247   0.858   6.880  1.4785 -0.1940  1.6259
19319SOL     OW59172   8.206   1.140   6.068  0.8054 -0.3391  0.2598
19319SOL    HW159173   8.210   1.235   6.057 -0.0749 -0.2574  0.5488
19319SOL    HW259174   8.114   1.119   6.056  1.3953 -1.5963 -3.0252
19320SOL     OW59175   8.380   0.648   6.200 -1.0302  0.2722 -0.2813
19320SOL    HW159176   8.397   0.557   6.177 -0.2164 -0.1015  1.5943
19320SOL    HW259177   8.291   0.665   6.168 -1.2730 -1.2412 -0.4713
19321SOL     OW59178   7.911   0.474   5.863  0.0894  0.0047 -0.2778
19321SOL    HW159179   7.863   0.408   5.914  3.6604 -1.0576  2.0819
19321SOL    HW259180   7.932   0.431   5.781  0.3519 -0.9551  0.2806
19322SOL     OW59181   0.379   0.815   5.549 -0.6478  0.1287 -0.3232
19322SOL    HW159182   0.286   0.797   5.545 -1.1042  1.4814  2.1256
19322SOL    HW259183   0.405   0.789   5.638  1.2360  0.0838 -0.8297
19323SOL     OW59184   8.032   8.506   5.335 -0.1558  0.1796  0.0930
19323SOL    HW159185   8.034   8.412   5.353  1.8374 -0.3869 -2.5552
19323SOL    HW259186   7.963   8.517   5.270 -1.3275  0.8425  1.3824
19324SOL     OW59187   8.503   0.206   5.856 -0.0012 -0.0372  0.4989
19324SOL    HW159188   8.447   0.180   5.782 -1.1418  0.2328  1.2490
19324SOL    HW259189   8.559   0.275   5.819  0.8454 -1.2795 -0.6418
19325SOL     OW59190   8.269   0.709   7.177 -0.4902 -0.1934 -0.5513
19325SOL    HW159191   8.215   0.700   7.098 -1.5300 -2.0032  0.3141
19325SOL    HW259192   8.212   0.756   7.239  0.1135  0.7091 -0.6632
19326SOL     OW59193   0.065   2.179   6.563 -0.2338  0.4167 -0.1434
19326SOL    HW159194   0.129   2.129   6.512 -1.0270 -0.3786 -0.3911
19326SOL    HW259195   0.090   2.271   6.550 -0.1244  0.2154 -1.5927
19327SOL     OW59196   8.002   1.299   5.942 -0.2782 -0.1644 -0.7126
19327SOL    HW159197   8.017   1.392   5.926  2.3737 -0.3415  0.2418
19327SOL    HW259198   7.989   1.262   5.855 -0.8613  1.0197 -1.1520
19328SOL     OW59199   8.688   1.824   6.026  0.1324  0.1834 -0.3038
19328SOL    HW159200   8.775   1.861   6.038  0.2434 -0.1405 -0.0822
19328SOL    HW259201   8.628   1.896   6.044  0.3690  1.0655 -2.7678
19329SOL     OW59202   8.790   0.355   5.527 -0.2790 -0.0936  0.2116
19329SOL    HW159203   8.878   0.389   5.512 -0.4949  1.1687  1.6257
19329SOL    HW259204   8.803   0.277   5.581 -0.0521  0.6152  1.2138
19330SOL     OW59205   7.768   0.606   6.633  0.3686  0.7373 -0.4920
19330SOL    HW159206   7.848   0.561   6.662 -0.0670  0.6301  0.5608
19330SOL    HW259207   7.702   0.583   6.698 -0.8421 -0.0871 -1.9395
19331SOL     OW59208   8.624   0.181   6.526 -0.0980 -0.1959  0.5990
19331SOL    HW159209   8.709   0.224   6.511 -1.1593  2.0064  0.5949
19331SOL    HW259210   8.647   0.096   6.563  2.0943  1.0325  2.2838
19332SOL     OW59211   8.414   0.396   6.110 -0.2219 -0.1476 -0.8618
19332SOL    HW159212   8.386   0.341   6.184 -0.6891  0.0486 -0.8896
19332SOL    HW259213   8.507   0.376   6.099  0.1400  0.6583  0.5075
19333SOL     OW59214   0.153   8.516   6.064 -0.0615 -0.4783 -0.0859
19333SOL    HW159215   0.175   8.543   5.975 -0.5594 -0.8284 -0.3216
19333SOL    HW259216   0.228   8.466   6.094  0.9549  1.2596  0.4196
19334SOL     OW59217   8.079   1.379   5.653  0.0372  0.1227 -0.0106
19334SOL    HW159218   8.018   1.306   5.647 -1.0591  0.6140  3.2764
19334SOL    HW259219   8.159   1.341   5.690  1.1508 -0.1398 -2.4661
19335SOL     OW59220   0.489   0.761   5.793  0.4054  0.1819  0.3212
19335SOL    HW159221   0.579   0.792   5.780  0.4393 -0.2464 -0.5259
19335SOL    HW259222   0.484   0.742   5.887  1.0663  0.6016  0.4505
19336SOL     OW59223   7.968   0.407   5.610 -0.1622 -0.0194  0.0906
19336SOL    HW159224   7.955   0.312   5.601  1.3537 -0.5014  2.1913
19336SOL    HW259225   8.052   0.424   5.569 -1.5092  0.9528 -2.5287
19337SOL     OW59226   8.466   1.061   6.076 -0.3143  0.4158  0.0449
19337SOL    HW159227   8.503   1.028   5.995  1.1985 -1.3667  1.3769
19337SOL    HW259228   8.373   1.075   6.057  0.0978  0.5261 -2.0800
19338SOL     OW59229   0.013   1.265   6.712 -0.1246  0.5231  0.6586
19338SOL    HW159230   0.032   1.189   6.768 -0.8720  1.2217  1.9054
19338SOL    HW259231  -0.081   1.281   6.725 -0.2705  0.8121 -0.6788
19339SOL     OW59232   0.100   0.469   6.630 -0.3063 -0.4465 -0.5966
19339SOL    HW159233   0.104   0.392   6.687  1.4337 -0.8719 -1.2111
19339SOL    HW259234   0.055   0.536   6.682 -1.7717 -1.8455 -0.0273
19340SOL     OW59235   8.338   1.458   6.978  0.0020  0.1309 -0.5785
19340SOL    HW159236   8.303   1.441   6.890 -0.3708 -0.7755 -0.2563
19340SOL    HW259237   8.419   1.506   6.962  0.1842 -0.4518 -1.4377
19341SOL     OW59238   8.450   1.198   5.587 -0.1001 -0.1357 -0.5457
19341SOL    HW159239   8.407   1.215   5.671 -1.1340 -1.4536 -0.7580
19341SOL    HW259240   8.518   1.134   5.607  2.1840  2.2565 -0.1381
19342SOL     OW59241   7.659   0.893   6.889  0.1614 -0.2613  0.4260
19342SOL    HW159242   7.633   0.802   6.879 -1.1674 -0.2098  2.7720
19342SOL    HW259243   7.747   0.889   6.926  0.4924 -0.5553 -0.3785
19343SOL     OW59244   8.457   0.481   6.874  0.1954  0.2739  0.5556
19343SOL    HW159245   8.526   0.546   6.857 -0.2927  0.0917 -2.7047
19343SOL    HW259246   8.397   0.490   6.800 -2.0084 -1.2780  2.0282
19344SOL     OW59247   7.780   1.621   6.850 -0.0402 -0.4168  0.2103
19344SOL    HW159248   7.789   1.637   6.756  0.3439 -0.9156  0.1588
19344SOL    HW259249   7.868   1.600   6.880 -0.2103 -0.5525  0.6285
19345SOL     OW59250   8.304   0.618   5.438  0.0308  0.2539 -0.5968
19345SOL    HW159251   8.316   0.645   5.347  1.6612  3.7786  0.4727
19345SOL    HW259252   8.210   0.627   5.453  0.0365  2.0488 -1.3693
19346SOL     OW59253   8.024   0.463   6.149 -0.2419  0.0038 -0.3396
19346SOL    HW159254   8.080   0.540   6.140 -0.0544 -0.0191  0.5379
19346SOL    HW259255   7.981   0.455   6.064 -1.1627  1.7666 -0.0973
19347SOL     OW59256   8.836   1.655   5.551 -0.3123  0.6215  0.2109
19347SOL    HW159257   8.782   1.578   5.573  0.6579  0.3003  1.6176
19347SOL    HW259258   8.832   1.660   5.456 -0.9914 -0.7410  0.1350
19348SOL     OW59259   0.039   1.531   6.616 -0.3083 -0.0719  0.2075
19348SOL    HW159260   0.075   1.520   6.528  0.4463 -1.7535  0.6685
19348SOL    HW259261   0.034   1.442   6.651 -3.0977  0.2854  0.9385
19349SOL     OW59262   7.941   1.386   6.623  0.0266  0.1616  0.0872
19349SOL    HW159263   7.914   1.476   6.640  0.3389  0.2899 -0.1029
19349SOL    HW259264   7.859   1.341   6.599  0.0816  0.7315 -1.2792
19350SOL     OW59265   7.808   0.315   6.855  0.1655 -0.1047  0.5215
19350SOL    HW159266   7.848   0.377   6.916  2.4154  0.2643 -1.2012
19350SOL    HW259267   7.874   0.303   6.787 -1.1932 -2.5352 -0.4690
19351SOL     OW59268   8.764   8.390   7.670 -0.3020 -0.2261 -0.1362
19351SOL    HW159269   8.823   8.464   7.659 -0.3821  0.0333  1.0597
19351SOL    HW259270   8.677   8.429   7.675 -0.5259 -0.5555 -1.2677
19352SOL     OW59271   8.179   8.749   7.192 -0.2054 -0.4612 -0.1674
19352SOL    HW159272   8.095   8.796   7.191  0.1157  0.1493  0.7074
19352SOL    HW259273   8.230   8.790   7.121 -0.1679  0.0723  0.1607
19353SOL     OW59274   7.994   0.521   6.414 -0.0347  0.0781 -0.3984
19353SOL    HW159275   7.983   0.476   6.330 -1.1271 -0.8895  0.2218
19353SOL    HW259276   8.032   0.606   6.392  1.5255 -0.8920 -1.6835
19354SOL     OW59277   0.497   0.835   6.733 -0.1819  0.5043 -0.0466
19354SOL    HW159278   0.421   0.827   6.791  1.2418 -0.4002  1.7644
19354SOL    HW259279   0.524   0.745   6.716  0.4243  0.8108 -0.7675
19355SOL     OW59280   0.281   0.594   5.759 -0.4199  0.3841 -0.0007
19355SOL    HW159281   0.371   0.605   5.727 -0.4617  0.2486 -0.1635
19355SOL    HW259282   0.250   0.684   5.773 -0.4097  0.4457 -0.3632
19356SOL     OW59283   7.512   0.221   6.194  0.6064  0.3361 -0.5608
19356SOL    HW159284   7.586   0.171   6.161  0.8988  0.1770  0.3120
19356SOL    HW259285   7.438   0.162   6.187  0.3789  0.7683 -2.1989
19357SOL     OW59286   7.569   1.036   6.683 -0.1191  0.1720  0.1907
19357SOL    HW159287   7.474   1.044   6.676 -0.2023  1.4463  2.0227
19357SOL    HW259288   7.582   0.973   6.754  0.4472 -0.9077 -0.8354
19358SOL     OW59289   8.069   0.807   6.340 -0.1476  0.5796  0.1255
19358SOL    HW159290   8.107   0.895   6.346 -1.2776  0.9789  1.9678
19358SOL    HW259291   8.002   0.805   6.408 -0.9348 -1.3380 -0.6503
19359SOL     OW59292   8.050   0.041   5.571 -0.2177  0.2506  0.7883
19359SOL    HW159293   7.992  -0.032   5.588  0.8411 -1.1199 -1.0401
19359SOL    HW259294   8.008   0.089   5.499  0.3497 -0.1398  0.1766
19360SOL     OW59295   0.447   0.888   6.359 -0.0964 -0.3776 -0.5136
19360SOL    HW159296   0.414   0.867   6.447  0.8133  0.2805 -0.0062
19360SOL    HW259297   0.371   0.874   6.302 -0.9767  0.1060  0.4973
19361SOL     OW59298   8.599   0.983   6.374 -0.1745  0.4451 -0.3763
19361SOL    HW159299   8.531   0.998   6.439  0.1043 -0.8178  0.2324
19361SOL    HW259300   8.564   1.020   6.293 -1.7148 -0.4665 -0.1526
19362SOL     OW59301   8.410   1.805   6.829 -0.4283 -0.8571 -0.8612
19362SOL    HW159302   8.325   1.766   6.808 -1.3140  1.3785 -1.8142
19362SOL    HW259303   8.465   1.785   6.753 -0.9457 -0.1429 -1.4462
19363SOL     OW59304   8.111   0.802   7.415  0.3702  0.0054 -0.0702
19363SOL    HW159305   8.024   0.764   7.429  0.3946  0.2427  0.7414
19363SOL    HW259306   8.094   0.895   7.402  0.6401  0.3718  1.9284
19364SOL     OW59307   0.208   0.475   5.508  0.1296 -0.3581 -0.1500
19364SOL    HW159308   0.230   0.513   5.593  0.6500  0.9676 -0.8565
19364SOL    HW259309   0.291   0.470   5.462 -0.3529  0.2623 -1.1072
19365SOL     OW59310   8.548   1.298   6.142  0.3486  0.0495 -1.1367
19365SOL    HW159311   8.532   1.210   6.109 -0.3861 -0.2942  0.0843
19365SOL    HW259312   8.642   1.301   6.160  0.4171 -0.3857 -1.4178
19366SOL     OW59313   8.161   0.568   5.754 -0.1836 -0.0888 -0.3279
19366SOL    HW159314   8.254   0.561   5.777  0.0213  1.0564 -0.7031
19366SOL    HW259315   8.114   0.553   5.837  0.2902 -1.4236 -0.2856
19367SOL     OW59316   7.566   0.596   6.352 -0.0381  0.3855 -0.7749
19367SOL    HW159317   7.549   0.680   6.395  0.8476 -0.6732  1.8758
19367SOL    HW259318   7.585   0.619   6.261 -0.2180  3.0078 -0.2342
19368SOL     OW59319   8.762   0.341   6.948  0.6825 -0.0823 -0.1661
19368SOL    HW159320   8.828   0.279   6.918 -0.4465 -1.0651 -0.7188
19368SOL    HW259321   8.788   0.363   7.037  2.1285  0.1140 -0.6136
19369SOL     OW59322   0.335   0.013   7.249 -0.2811  0.3639 -0.0868
19369SOL    HW159323   0.244   0.041   7.236 -0.3981  0.1838  0.3303
19369SOL    HW259324   0.383   0.095   7.264 -0.6764  0.3399  1.4384
19370SOL     OW59325   7.695   1.235   5.494  0.5712  1.2121 -0.0113
19370SOL    HW159326   7.616   1.213   5.445 -0.0976  1.1655  1.0456
19370SOL    HW259327   7.766   1.223   5.432  0.2629 -3.3979  0.1835
19371SOL     OW59328   7.791   1.524   6.238  0.0931 -0.3454 -0.0247
19371SOL    HW159329   7.885   1.537   6.238 -0.0689  1.8744 -2.7291
19371SOL    HW259330   7.754   1.612   6.228 -1.9602 -1.3673 -3.5605
19372SOL     OW59331   8.147   1.335   6.422  0.4431  0.0451  0.0963
19372SOL    HW159332   8.093   1.374   6.492  0.1547  0.4585 -0.3459
19372SOL    HW259333   8.140   1.397   6.350  0.8454 -0.3160 -0.2566
19373SOL     OW59334   8.759   0.588   6.819  0.2149 -0.3810  0.4502
19373SOL    HW159335   8.792   0.659   6.875 -1.1302  0.2060  0.5276
19373SOL    HW259336   8.744   0.515   6.878 -3.0761  0.8371  1.3098
19374SOL     OW59337   7.321   0.663   6.713 -0.4379  0.2175 -0.1205
19374SOL    HW159338   7.376   0.655   6.635 -0.4553  1.2178 -0.2485
19374SOL    HW259339   7.237   0.627   6.687  0.3696 -2.1533  0.3430
19375SOL     OW59340   8.078   0.434   6.943  0.1464 -0.4549  0.4139
19375SOL    HW159341   8.151   0.387   6.903  0.1874 -0.1830  0.1622
19375SOL    HW259342   8.064   0.390   7.027  0.0276 -1.0729  0.0830
19376SOL     OW59343   8.711   0.475   5.960  0.3603  0.7715  0.0350
19376SOL    HW159344   8.698   0.424   6.040 -1.0448  0.7332 -0.1939
19376SOL    HW259345   8.803   0.460   5.937  0.2719 -0.8024  0.5608
19377SOL     OW59346   8.088   1.626   7.614  0.2961 -0.2179  0.1595
19377SOL    HW159347   8.095   1.557   7.681  1.6447 -1.1576 -0.8919
19377SOL    HW259348   8.138   1.592   7.540 -0.8283  0.9712 -1.2016
19378SOL     OW59349   7.932   0.189   6.169 -0.5662  0.0694  0.1824
19378SOL    HW159350   7.986   0.266   6.187 -0.6974  0.3044 -0.4263
19378SOL    HW259351   7.952   0.129   6.241  0.4703  0.1702 -0.0096
19379SOL     OW59352   8.383   1.583   6.531  0.8710  0.2090  0.0336
19379SOL    HW159353   8.460   1.554   6.481 -0.4080 -0.8478 -1.4570
19379SOL    HW259354   8.392   1.678   6.537  2.1735  0.1261 -0.2895
19380SOL     OW59355   8.434   0.341   5.496 -0.0791 -0.6767 -0.0300
19380SOL    HW159356   8.386   0.268   5.535 -0.8028  0.7901  1.9541
19380SOL    HW259357   8.400   0.419   5.539  2.8805  0.5991  0.2572
19381SOL     OW59358   7.852   1.291   6.941 -0.2926 -0.2432  0.7800
19381SOL    HW159359   7.917   1.295   7.011  0.1464 -0.0266  0.3700
19381SOL    HW259360   7.904   1.279   6.861 -0.6991  0.7331  0.3510
19382SOL     OW59361   8.459   1.176   6.631 -0.3815  0.1316  0.1034
19382SOL    HW159362   8.427   1.206   6.546  0.5799  0.7820 -0.0366
19382SOL    HW259363   8.462   1.081   6.623 -1.3547  0.1121 -0.1996
19383SOL     OW59364   0.176   0.872   5.787  0.2309 -0.8360  0.2670
19383SOL    HW159365   0.145   0.954   5.825 -0.2007  0.2258 -2.1923
19383SOL    HW259366   0.119   0.857   5.712  1.0208 -2.8216 -0.0021
19384SOL     OW59367   8.641   1.670   6.692  0.1238  0.3227  0.0619
19384SOL    HW159368   8.645   1.610   6.618  0.5758  0.9865 -0.4551
19384SOL    HW259369   8.707   1.736   6.674 -0.2310  0.8728  0.7216
19385SOL     OW59370   7.744   1.183   6.569 -0.4419  0.2107 -0.7167
19385SOL    HW159371   7.680   1.131   6.617 -1.3978  1.7246 -0.2848
19385SOL    HW259372   7.706   1.194   6.481 -0.1229 -0.0257 -0.8865
19386SOL     OW59373   8.140   1.655   7.075 -0.5884 -0.4576  0.3534
19386SOL    HW159374   8.116   1.667   6.983  0.0420  1.0078  0.3499
19386SOL    HW259375   8.229   1.620   7.073 -0.6695 -0.6687  0.4054
19387SOL     OW59376   0.258   1.336   5.690  0.6974  0.4006 -0.4658
19387SOL    HW159377   0.335   1.282   5.675  0.2793 -0.1207 -0.7926
19387SOL    HW259378   0.189   1.293   5.640 -0.0141  0.3365  0.5235
19388SOL     OW59379   7.367   1.648   7.170 -0.0953  0.1505  0.2961
19388SOL    HW159380   7.374   1.584   7.099 -0.2250 -0.2315  0.6238
19388SOL    HW259381   7.457   1.659   7.202  0.2769  1.7918 -1.1934
19389SOL     OW59382   8.815   0.938   6.157 -0.4300  0.0252  0.0373
19389SOL    HW159383   8.768   0.989   6.223  0.2490  0.9252 -0.1416
19389SOL    HW259384   8.747   0.887   6.113 -1.3277  1.5560 -0.4668
19390SOL     OW59385   7.925   0.943   6.932 -0.8026 -0.5056  0.1194
19390SOL    HW159386   7.951   1.004   7.001  2.1327 -1.6587  0.2045
19390SOL    HW259387   7.923   0.995   6.852  0.0483  0.0367  0.4431
19391SOL     OW59388   8.027   1.645   5.619  0.6332 -0.3426 -0.4754
19391SOL    HW159389   7.997   1.664   5.708  0.4789 -0.3665 -0.5208
19391SOL    HW259390   8.046   1.551   5.620  0.9019 -0.2864 -0.3905
19392SOL     OW59391   7.488   8.746   6.010 -0.0174  0.2448 -0.1843
19392SOL    HW159392   7.520   8.836   6.011 -0.7340  0.5054  0.5645
19392SOL    HW259393   7.394   8.753   6.026 -0.3227 -0.5653 -1.4504
19393SOL     OW59394   8.696   1.218   5.074 -0.9784 -0.0565  0.2865
19393SOL    HW159395   8.628   1.169   5.029  0.3753 -0.7940 -1.0389
19393SOL    HW259396   8.768   1.224   5.011  0.0632  0.9885  1.5073
19394SOL     OW59397   8.435   0.917   6.601  0.0770 -0.5465 -0.3311
19394SOL    HW159398   8.423   0.824   6.581 -0.7528 -0.6997  0.7618
19394SOL    HW259399   8.365   0.937   6.663 -0.5857  1.1479 -1.5665
19395SOL     OW59400   7.954   1.146   5.667 -0.0528 -0.3481 -0.2649
19395SOL    HW159401   8.001   1.064   5.683  1.3290  0.3978 -0.3681
19395SOL    HW259402   7.874   1.119   5.622  2.1879 -1.3722 -4.0760
19396SOL     OW59403   7.920   1.586   7.207 -0.4331 -0.3598 -0.3237
19396SOL    HW159404   8.009   1.619   7.192 -0.2649 -0.0217  1.2861
19396SOL    HW259405   7.930   1.490   7.206  0.3076 -0.3439  1.5995
19397SOL     OW59406   8.619   1.570   5.903 -0.3550 -0.5641  0.5577
19397SOL    HW159407   8.564   1.639   5.939 -1.1245 -0.2295 -1.1483
19397SOL    HW259408   8.629   1.507   5.975 -1.5493  0.2067  1.4315
19398SOL     OW59409   8.555   0.639   6.615 -0.9478  0.2149  0.5662
19398SOL    HW159410   8.626   0.611   6.673 -0.0823  1.8124  0.3243
19398SOL    HW259411   8.534   0.561   6.563 -0.6522 -0.7958  1.9070
19399SOL     OW59412   7.956   1.591   5.905  0.1471 -0.1397  0.3752
19399SOL    HW159413   7.994   1.642   5.977 -0.0754 -1.5528  1.5151
19399SOL    HW259414   7.869   1.628   5.893  0.6233  0.9071 -0.0172
19400SOL     OW59415   7.743   1.385   5.700  0.1715  0.2099 -0.5288
19400SOL    HW159416   7.716   1.311   5.646 -0.4267  0.6768 -0.8766
19400SOL    HW259417   7.753   1.348   5.788 -0.0313 -0.2990 -0.7173
19401SOL     OW59418   7.634   1.132   7.039 -0.1195 -0.1686 -0.6710
19401SOL    HW159419   7.643   1.060   6.976 -0.6830  0.8622 -1.9656
19401SOL    HW259420   7.696   1.198   7.008 -0.1924  0.2362  0.0340
19402SOL     OW59421   8.518   0.204   6.884  0.3935  0.4750  0.0190
19402SOL    HW159422   8.478   0.288   6.860  0.7887  0.4343 -0.8051
19402SOL    HW259423   8.598   0.228   6.931  1.0071  0.5882 -1.0386
19403SOL     OW59424   7.021   0.693   5.215 -0.1463  0.5101 -0.4239
19403SOL    HW159425   6.963   0.622   5.187  0.7216 -0.5444  0.3692
19403SOL    HW259426   7.051   0.733   5.133  0.0850 -0.6489 -0.9203
19404SOL     OW59427   8.254   1.137   7.002 -0.3303 -0.1591  0.1723
19404SOL    HW159428   8.194   1.100   7.067 -0.3619 -2.6244 -1.1073
19404SOL    HW259429   8.196   1.177   6.936 -0.6843 -2.3875 -0.9769
19405SOL     OW59430   7.521   0.327   5.773  0.3054 -0.3597 -0.5104
19405SOL    HW159431   7.445   0.272   5.755  0.1206 -1.5076  2.9741
19405SOL    HW259432   7.487   0.416   5.774 -1.1090 -0.8647  1.0679
19406SOL     OW59433   8.781   0.918   5.114 -0.5251  0.1877 -0.6180
19406SOL    HW159434   8.721   0.939   5.186 -1.1734  1.4534 -1.4915
19406SOL    HW259435   8.755   0.977   5.043  0.2596 -0.8543 -1.8146
19407SOL     OW59436   8.125   0.711   6.934  0.1347 -0.3820 -0.2870
19407SOL    HW159437   8.054   0.766   6.901 -1.4244 -0.6675  2.2890
19407SOL    HW259438   8.091   0.622   6.929  1.6927 -0.9338 -2.1435
19408SOL     OW59439   0.129   0.257   6.784 -0.0744  0.2753 -0.5495
19408SOL    HW159440   0.136   0.161   6.782 -0.0695  0.2174  0.9609
19408SOL    HW259441   0.205   0.285   6.834 -0.3176  1.0430 -0.6013
19409SOL     OW59442   8.707   0.893   6.787 -0.0594  1.0148  0.2281
19409SOL    HW159443   8.627   0.919   6.741  0.8711  1.4289 -1.2218
19409SOL    HW259444   8.737   0.815   6.741  0.5556  1.0459  0.5639
19410SOL     OW59445   7.779   1.674   7.557  0.0612  0.3241 -0.0273
19410SOL    HW159446   7.716   1.651   7.625  0.6150  1.0523  0.7455
19410SOL    HW259447   7.864   1.659   7.597  0.4046  1.6185 -0.2450
19411SOL     OW59448   0.511   0.621   6.204  0.4080  0.5060 -0.1017
19411SOL    HW159449   0.525   0.687   6.272 -0.1724 -0.6984  1.2409
19411SOL    HW259450   0.491   0.541   6.252  1.9675 -0.8929 -1.6492
19412SOL     OW59451   8.424   0.525   5.795  0.1485 -0.0787 -0.0688
19412SOL    HW159452   8.453   0.515   5.885  0.9124  4.2631  0.3376
19412SOL    HW259453   8.504   0.536   5.744 -0.3442  2.3590 -0.4361
19413SOL     OW59454   8.422   1.331   5.351  0.2499 -0.4163  0.0976
19413SOL    HW159455   8.383   1.282   5.423  1.2927  0.9647  1.6963
19413SOL    HW259456   8.414   1.423   5.378  0.5629  0.1450 -1.6170
19414SOL     OW59457   8.477   1.969   6.225 -0.0414  0.2868  0.2740
19414SOL    HW159458   8.567   1.950   6.254  0.3338  0.2504 -0.8462
19414SOL    HW259459   8.488   2.012   6.140 -1.0729  0.8907  0.4302
19415SOL     OW59460   8.593   0.978   5.871 -0.3544  0.0159  0.0050
19415SOL    HW159461   8.654   0.995   5.799 -1.6974  2.5893 -0.6410
19415SOL    HW259462   8.585   0.883   5.873  0.8372 -0.2119 -2.3016
19416SOL     OW59463   8.664   0.580   5.684 -0.2911  0.2726 -0.0833
19416SOL    HW159464   8.677   0.511   5.619  0.9591  1.2244 -0.9059
19416SOL    HW259465   8.703   0.545   5.765  1.1062  0.3049 -0.7109
19417SOL     OW59466   7.689   1.225   7.520  0.1576 -0.6217  0.0804
19417SOL    HW159467   7.621   1.158   7.514 -0.2237 -0.1839 -0.6236
19417SOL    HW259468   7.713   1.227   7.612 -2.2919  0.6756  0.7792
19418SOL     OW59469   7.753   1.103   5.986 -0.2539  0.4404 -0.0423
19418SOL    HW159470   7.775   1.188   6.023 -0.8949  0.3777  0.5021
19418SOL    HW259471   7.770   1.040   6.056  0.5615  0.0624 -0.5539
19419SOL     OW59472   8.089   1.271   6.828  0.0386  0.8529 -0.0085
19419SOL    HW159473   8.071   1.211   6.754 -0.8387  0.1928  0.7149
19419SOL    HW259474   8.154   1.332   6.793  0.2006  0.1051 -1.1022
19420SOL     OW59475   7.709   0.634   6.043 -0.1512  0.1936  0.4867
19420SOL    HW159476   7.740   0.546   6.020  0.3443  0.4010  0.3488
19420SOL    HW259477   7.620   0.637   6.008  0.9061  0.8583 -2.4817
19421SOL     OW59478   7.591   0.340   6.452  0.4713 -0.0399 -0.5790
19421SOL    HW159479   7.571   0.322   6.360 -0.8479 -0.9597 -0.1410
19421SOL    HW259480   7.620   0.431   6.453 -1.7684  0.7477 -1.6012
19422SOL     OW59481   8.302   1.402   6.060 -0.0826  0.2373 -0.0620
19422SOL    HW159482   8.375   1.358   6.104 -2.1026  0.2179  3.6478
19422SOL    HW259483   8.332   1.492   6.047  1.4431 -0.3681 -1.0280
19423SOL     OW59484   0.331   0.297   6.963 -0.1507 -0.7860 -0.0953
19423SOL    HW159485   0.323   0.380   7.010  2.1078 -0.9725  0.7404
19423SOL    HW259486   0.334   0.231   7.032  0.4756 -1.3320 -0.6303
19424SOL     OW59487   8.466   0.390   6.483 -0.2856  0.5053 -0.2836
19424SOL    HW159488   8.406   0.344   6.424 -0.5289  0.5482 -0.0669
19424SOL    HW259489   8.532   0.324   6.505 -1.5634 -0.2660  1.3809
19425SOL     OW59490   8.637   1.483   5.641 -0.0904 -0.2077 -0.2563
19425SOL    HW159491   8.562   1.424   5.638  0.3410 -0.7560 -0.4505
19425SOL    HW259492   8.638   1.515   5.732 -0.5693 -0.1759 -0.2596
19426SOL     OW59493   8.299   1.414   6.719  0.1548  0.6680 -0.8021
19426SOL    HW159494   8.341   1.471   6.654 -1.8689  0.8712 -2.0294
19426SOL    HW259495   8.339   1.328   6.704  0.2256  0.8643 -1.8724
19427SOL     OW59496   7.749   0.975   5.759 -0.4046 -0.0664  0.3128
19427SOL    HW159497   7.791   0.893   5.785 -1.4697 -0.9468 -0.6249
19427SOL    HW259498   7.759   1.033   5.835  0.1543 -1.1364  1.0792
19428SOL     OW59499   8.346   1.785   5.788  0.6427  0.3866 -0.4336
19428SOL    HW159500   8.418   1.760   5.729 -0.2234 -2.9878 -0.2410
19428SOL    HW259501   8.278   1.817   5.729  0.6829 -0.6558 -1.0700
19429SOL     OW59502   7.676   0.491   7.386 -0.2313 -0.5523  0.4394
19429SOL    HW159503   7.617   0.501   7.311  0.4098 -1.0844 -0.1402
19429SOL    HW259504   7.659   0.403   7.418 -0.5980 -0.2789  1.0081
19430SOL     OW59505   7.485   0.030   8.173 -0.3889 -0.1792  0.1463
19430SOL    HW159506   7.486  -0.009   8.260 -1.4294  1.1611  0.7943
19430SOL    HW259507   7.484   0.124   8.189  0.2535  0.1111 -1.3394
19431SOL     OW59508   6.972   0.445   8.109 -0.5216 -0.3807 -0.3507
19431SOL    HW159509   7.037   0.483   8.167 -1.5891 -1.5807  1.7766
19431SOL    HW259510   6.893   0.497   8.123 -0.4900  0.0767 -1.7006
19432SOL     OW59511   7.745   1.391   0.186  0.3998  0.3410  0.0377
19432SOL    HW159512   7.722   1.304   0.220  0.2918  0.6290  0.7103
19432SOL    HW259513   7.760   1.377   0.092  1.7654 -0.6797  0.3841
19433SOL     OW59514   8.677   0.816   8.330 -0.1985 -0.5783  0.0443
19433SOL    HW159515   8.629   0.739   8.359  0.1939 -1.6540 -1.9472
19433SOL    HW259516   8.627   0.849   8.255  0.0757  0.6619  0.3750
19434SOL     OW59517   8.555   0.728   7.950  0.2869  0.1986 -0.5529
19434SOL    HW159518   8.650   0.718   7.947  0.6412  1.9949  1.8193
19434SOL    HW259519   8.540   0.819   7.924 -0.5891  0.4678  0.8111
19435SOL     OW59520   7.954   1.175   8.729 -0.2095 -0.1482  0.0344
19435SOL    HW159521   7.880   1.233   8.746  0.2325  0.1178  1.1299
19435SOL    HW259522   7.937   1.097   8.781  0.9679  0.5145  1.4806
19436SOL     OW59523   8.354   1.410   8.263  0.6049  0.1801  0.6141
19436SOL    HW159524   8.439   1.389   8.301  0.7984 -1.9153 -0.7928
19436SOL    HW259525   8.299   1.433   8.337  2.3510  1.4621  1.5655
19437SOL     OW59526   7.771   1.383   8.761 -0.2787  0.1865 -0.0290
19437SOL    HW159527   7.810   1.452   8.707 -0.8537  0.5511  0.0138
19437SOL    HW259528   7.677   1.404   8.763 -0.3272 -0.0774  0.7452
19438SOL     OW59529   7.860   0.194   0.375 -0.2600 -0.2075  0.9575
19438SOL    HW159530   7.846   0.280   0.337  0.3228  0.3076  1.8823
19438SOL    HW259531   7.913   0.147   0.311 -1.7429 -0.3866 -0.1877
19439SOL     OW59532   7.579   1.733   7.843 -0.1450  0.4032  0.4198
19439SOL    HW159533   7.610   1.744   7.933 -0.3087  1.2684  0.3771
19439SOL    HW259534   7.516   1.804   7.831  0.1409  0.5144 -0.4952
19440SOL     OW59535   7.549   1.401   8.422  0.3090 -0.4784 -0.2725
19440SOL    HW159536   7.639   1.377   8.402 -0.4995 -2.2764 -2.2581
19440SOL    HW259537   7.499   1.320   8.410 -1.8341  0.8753 -1.2970
19441SOL     OW59538   7.940   1.007   8.428  0.0845 -0.1506  0.6062
19441SOL    HW159539   7.989   1.083   8.396 -0.1284  0.2043  1.1088
19441SOL    HW259540   7.908   1.034   8.514 -0.6330 -0.5344  0.4678
19442SOL     OW59541   8.621   1.974   0.036  0.2343  0.2585  0.2261
19442SOL    HW159542   8.599   1.912   0.106 -1.1343  0.2623 -0.1691
19442SOL    HW259543   8.702   2.015   0.065  0.3446 -0.6216  1.2275
19443SOL     OW59544   8.254   1.176   7.571 -0.1542 -0.0964  0.5981
19443SOL    HW159545   8.283   1.263   7.542  1.8518 -1.2236 -1.0244
19443SOL    HW259546   8.251   1.184   7.667 -0.3560  1.8258  0.4873
19444SOL     OW59547   7.431   0.300   8.251  0.3126  0.1059 -0.1843
19444SOL    HW159548   7.355   0.302   8.193 -0.0208  0.1257  0.2488
19444SOL    HW259549   7.397   0.329   8.336  1.1581  1.7877 -0.3800
19445SOL     OW59550   7.544   1.457   7.479  0.1256  0.8473  0.4362
19445SOL    HW159551   7.476   1.481   7.542 -0.9543  0.3934 -0.5296
19445SOL    HW259552   7.603   1.400   7.529 -0.9594  0.1212  0.9360
19446SOL     OW59553   0.474   0.906   8.232  0.1672 -0.2758  0.2816
19446SOL    HW159554   0.468   0.995   8.267  1.1630  0.5825 -1.5566
19446SOL    HW259555   0.386   0.889   8.198 -0.3700 -0.5100  1.7259
19447SOL     OW59556   8.058   1.262   8.298  0.1776 -0.0793 -0.4056
19447SOL    HW159557   8.110   1.216   8.232  1.3138  1.1551 -0.4322
19447SOL    HW259558   8.116   1.332   8.328 -0.7824  0.1373  1.0074
19448SOL     OW59559   8.387   0.266   7.613  0.3412 -0.0666  0.2902
19448SOL    HW159560   8.415   0.298   7.528 -0.3258 -1.6095 -0.5472
19448SOL    HW259561   8.345   0.182   7.595 -0.6198 -0.0217  2.0322
19449SOL     OW59562   7.579   0.880   8.809  0.0992  0.2406 -0.4407
19449SOL    HW159563   7.507   0.928   8.768  0.6591 -0.2522 -2.0481
19449SOL    HW259564   7.537   0.806   8.852 -0.5820  1.2093  0.6247
19450SOL     OW59565   7.874   0.714   7.106  0.0368 -0.7856  0.1637
19450SOL    HW159566   7.925   0.775   7.053 -0.6671  0.2553  0.6469
19450SOL    HW259567   7.826   0.770   7.167 -2.1592 -1.6780 -0.6661
19451SOL     OW59568   8.334   0.771   8.250 -0.2422  0.1535 -0.4246
19451SOL    HW159569   8.361   0.687   8.213  0.8330 -0.1297  0.8950
19451SOL    HW259570   8.250   0.752   8.292 -0.2323 -0.1485 -0.5335
19452SOL     OW59571   8.648   0.467   0.467  0.3202  0.3556 -0.5056
19452SOL    HW159572   8.652   0.554   0.509 -0.7144  0.0854  0.2153
19452SOL    HW259573   8.561   0.465   0.427  0.2601 -0.4276 -0.3353
19453SOL     OW59574   8.554   0.331   8.588  0.8273  0.0202 -0.7318
19453SOL    HW159575   8.625   0.297   8.643 -0.4360 -0.9325  0.3870
19453SOL    HW259576   8.578   0.306   8.499  1.1780 -1.6226 -0.2119
19454SOL     OW59577   8.515   0.985   7.874  0.3349  0.1246  0.1477
19454SOL    HW159578   8.428   1.017   7.850  0.8376 -0.8687 -3.5189
19454SOL    HW259579   8.571   1.064   7.873  0.3039  0.1769 -2.2103
19455SOL     OW59580   7.826   0.274   8.014  0.3616  0.4592 -0.8062
19455SOL    HW159581   7.748   0.293   8.066  1.7689  1.1928  1.1691
19455SOL    HW259582   7.841   0.180   8.026  1.1670  0.7693  0.9541
19456SOL     OW59583   7.888   1.631   0.081 -0.2747  0.0063 -0.0681
19456SOL    HW159584   7.866   1.684   0.157  0.6885 -0.1913  0.3661
19456SOL    HW259585   7.839   1.549   0.093 -1.7760  0.7604 -0.7485
19457SOL     OW59586   8.139   0.464   7.668  0.3280  0.2832 -0.3897
19457SOL    HW159587   8.073   0.446   7.601  1.3578 -1.1819 -1.0761
19457SOL    HW259588   8.203   0.394   7.657  1.6879  1.3176  0.6487
19458SOL     OW59589   8.718   1.219   7.446  0.2890  0.7891 -0.1422
19458SOL    HW159590   8.671   1.138   7.463  0.4188  0.6929 -0.2459
19458SOL    HW259591   8.770   1.202   7.368 -0.2007  1.1904 -0.5649
19459SOL     OW59592   7.901   0.381   8.300  0.6792  0.2426  0.7836
19459SOL    HW159593   7.934   0.291   8.304  0.8820  0.3303  1.0802
19459SOL    HW259594   7.962   0.426   8.242  0.3181  0.0836  0.2627
19460SOL     OW59595   8.429   1.392   7.997 -0.3814  0.0844 -0.3921
19460SOL    HW159596   8.418   1.433   8.083  1.8576 -0.5484  0.2771
19460SOL    HW259597   8.418   1.464   7.935  0.9370  1.2246  0.6225
19461SOL     OW59598   7.878   1.665   8.432  0.1732 -0.5327 -0.2905
19461SOL    HW159599   7.891   1.752   8.395 -0.3676 -0.6323 -0.7291
19461SOL    HW259600   7.884   1.678   8.527 -0.9014  0.1633 -0.2981
19462SOL     OW59601   7.926   1.117   7.400 -0.3891 -0.3574 -0.2869
19462SOL    HW159602   7.838   1.151   7.418 -0.8774 -0.7207 -1.7994
19462SOL    HW259603   7.965   1.103   7.486 -0.8502  2.2349  0.4082
19463SOL     OW59604   8.316   1.893   7.127  0.5471  0.9882  0.0725
19463SOL    HW159605   8.380   1.823   7.141  0.2922  0.2538 -2.1552
19463SOL    HW259606   8.339   1.931   7.043 -0.6358  2.1825  0.2507
19464SOL     OW59607   8.297   1.600   7.874  0.1004 -0.0175 -0.2557
19464SOL    HW159608   8.286   1.695   7.871 -0.7881 -0.0736  0.5779
19464SOL    HW259609   8.223   1.569   7.927  0.8141 -1.0985  0.1574
19465SOL     OW59610   7.575   1.837   8.430  0.0132  0.6543  0.4168
19465SOL    HW159611   7.601   1.752   8.466  2.6458  0.7520 -1.0183
19465SOL    HW259612   7.604   1.901   8.494 -1.2072  0.5549  1.0984
19466SOL     OW59613   8.232   1.739   8.544 -0.1328  0.0116  0.3907
19466SOL    HW159614   8.283   1.725   8.624 -0.1840 -0.8571  0.2871
19466SOL    HW259615   8.150   1.778   8.574 -0.0337 -0.0377  0.7313
19467SOL     OW59616   8.080   0.720   7.782 -0.4271 -0.4526 -0.5603
19467SOL    HW159617   7.999   0.689   7.823  0.1848  0.1930  1.2574
19467SOL    HW259618   8.104   0.651   7.720 -1.8337 -1.1053 -0.4218
19468SOL     OW59619   7.688   0.205   7.440 -0.3861 -0.2472 -0.2751
19468SOL    HW159620   7.689   0.159   7.524  2.0017 -1.1241 -0.7073
19468SOL    HW259621   7.669   0.137   7.376  0.9941 -0.2413 -0.7166
19469SOL     OW59622   8.225   1.172   8.768  0.6441 -0.2349 -0.2256
19469SOL    HW159623   8.130   1.177   8.759  0.5341 -2.0480 -0.4790
19469SOL    HW259624   8.259   1.232   8.702 -0.3113  0.4973 -0.0737
19470SOL     OW59625   7.838   0.946   0.018  0.2153 -0.0249  0.3113
19470SOL    HW159626   7.863   0.928   0.108 -2.1441 -0.0981  1.0166
19470SOL    HW259627   7.752   0.906   0.008  0.2417  0.3174 -1.8703
19471SOL     OW59628   0.102   0.178   8.462 -0.3349  0.1019 -0.5124
19471SOL    HW159629   0.009   0.159   8.460 -0.4670  0.7018 -1.9985
19471SOL    HW259630   0.123   0.206   8.372  1.3676 -0.4696 -0.3398
19472SOL     OW59631   8.063   0.345   7.930 -0.2784  0.0191  0.5909
19472SOL    HW159632   7.978   0.312   7.960 -0.5936 -1.4088 -1.6114
19472SOL    HW259633   8.041   0.418   7.872 -0.1829 -1.2161 -1.0918
19473SOL     OW59634   8.724   0.909   7.070 -0.1883  0.4421 -0.0428
19473SOL    HW159635   8.714   0.917   6.975 -1.1952  0.4296  0.0514
19473SOL    HW259636   8.651   0.853   7.098 -0.8532  1.7254  0.9244
19474SOL     OW59637   7.476   8.742   7.527  0.4364 -0.0411 -0.1067
19474SOL    HW159638   7.475   8.648   7.513  0.8659 -0.3258  1.5427
19474SOL    HW259639   7.429   8.755   7.609 -0.4195  1.2854 -0.7772
19475SOL     OW59640   8.340   0.359   7.916  0.5417 -0.4054 -0.1518
19475SOL    HW159641   8.244   0.353   7.919  0.3025  2.1816  0.1137
19475SOL    HW259642   8.360   0.358   7.822  0.0490  0.7377 -0.2927
19476SOL     OW59643   8.348   1.854   8.277 -0.1878  0.1324 -0.4449
19476SOL    HW159644   8.298   1.792   8.331  0.1358 -0.1324 -0.4461
19476SOL    HW259645   8.281   1.902   8.228 -0.4229 -0.5346 -0.7859
19477SOL     OW59646   8.226   0.889   7.957 -0.0645 -0.3400 -0.3546
19477SOL    HW159647   8.164   0.831   7.912 -0.3931 -0.5113  0.3084
19477SOL    HW259648   8.241   0.847   8.041 -0.0851  0.3983  0.0225
19478SOL     OW59649   8.799   1.791   8.195  0.5595  0.1779 -0.5841
19478SOL    HW159650   8.727   1.848   8.220  1.7914  0.7572  1.9445
19478SOL    HW259651   8.842   1.768   8.278  1.6288 -2.4004 -1.7412
19479SOL     OW59652   8.455   0.343   7.364 -0.2597  0.1139 -0.0374
19479SOL    HW159653   8.524   0.410   7.364 -0.2430  0.0971 -0.0840
19479SOL    HW259654   8.397   0.369   7.292  1.0191 -1.2214 -1.6220
19480SOL     OW59655   8.119   8.527   8.705  0.2948 -0.2847 -0.6119
19480SOL    HW159656   8.144   8.436   8.691 -0.1166 -0.3808 -0.7246
19480SOL    HW259657   8.034   8.523   8.748  0.0050  0.0477 -1.1352
19481SOL     OW59658   8.399   0.555   8.088  0.4005  0.2356  0.1465
19481SOL    HW159659   8.452   0.620   8.043 -1.8051  1.6194 -0.6296
19481SOL    HW259660   8.393   0.482   8.026  2.3223 -0.4716  0.7406
19482SOL     OW59661   8.707   0.355   7.884  0.6155 -0.2086 -0.2711
19482SOL    HW159662   8.718   0.419   7.814  0.3399  0.9633  0.7301
19482SOL    HW259663   8.621   0.375   7.922  0.9980 -0.4453  0.7589
19483SOL     OW59664   7.978   1.295   7.184  0.7127 -0.3154 -0.2401
19483SOL    HW159665   7.959   1.266   7.273  0.8147 -0.8459 -0.3862
19483SOL    HW259666   8.073   1.306   7.182  0.6408  0.3688 -0.0878
19484SOL     OW59667   8.630   0.574   7.347 -0.1491  0.0660  0.2802
19484SOL    HW159668   8.673   0.527   7.275  2.3237  0.6417  1.2694
19484SOL    HW259669   8.702   0.617   7.394 -2.0355  2.7730  0.9240
19485SOL     OW59670   7.358   0.130   7.418 -0.5113 -0.0618 -0.3506
19485SOL    HW159671   7.378   0.221   7.441  1.1236 -0.8036  1.3615
19485SOL    HW259672   7.411   0.077   7.477 -1.7697 -2.1669 -0.9800
19486SOL     OW59673   8.101   1.906   8.095 -0.5332 -0.2292 -0.0194
19486SOL    HW159674   8.070   1.901   8.185  0.9321  2.6054  0.7502
19486SOL    HW259675   8.081   1.996   8.067 -3.9042 -1.7942 -3.7974
19487SOL     OW59676   8.297   1.052   7.327  0.3739 -0.3902 -0.3447
19487SOL    HW159677   8.379   1.003   7.329  0.0497 -0.9543 -0.5985
19487SOL    HW259678   8.289   1.089   7.415  1.0443 -0.0884 -0.4084
19488SOL     OW59679   8.050   1.010   0.605  0.2130  0.7253  0.1954
19488SOL    HW159680   7.999   1.091   0.607  1.3096  1.5089 -1.4307
19488SOL    HW259681   8.042   0.979   0.515  0.3468 -0.6354  0.6380
19489SOL     OW59682   8.738   0.616   8.685  0.1684  0.2665  0.3337
19489SOL    HW159683   8.770   0.698   8.722 -1.5436  0.5560  1.3076
19489SOL    HW259684   8.651   0.605   8.724 -0.5599 -0.8838 -1.5006
19490SOL     OW59685   7.496   1.434   8.789 -0.0636 -0.1915  0.5785
19490SOL    HW159686   7.417   1.407   8.741  0.6891  0.2744 -0.9725
19490SOL    HW259687   7.487   1.392   8.875 -1.6315 -0.7554  0.1722
19491SOL     OW59688   7.733   1.239   8.098 -0.4580  0.0190  0.0836
19491SOL    HW159689   7.794   1.178   8.056 -0.2219 -0.6553  1.3455
19491SOL    HW259690   7.762   1.326   8.070  1.7896 -0.2036  1.4522
19492SOL     OW59691   7.887   0.680   8.523  0.0155  0.3109  0.0934
19492SOL    HW159692   7.831   0.602   8.528 -1.9627  1.7621  2.8588
19492SOL    HW259693   7.832   0.747   8.483  1.6069  0.4749 -1.9920
19493SOL     OW59694   8.650   1.228   7.919  0.1107 -0.0418  0.2189
19493SOL    HW159695   8.708   1.227   7.995 -0.0908  1.2854  0.4197
19493SOL    HW259696   8.575   1.281   7.947 -0.4088 -0.3277 -0.5942
19494SOL     OW59697   8.324   1.362   8.621  0.0746  0.2453 -0.2246
19494SOL    HW159698   8.372   1.320   8.550 -0.1860 -2.3628  1.0186
19494SOL    HW259699   8.380   1.434   8.649  2.5989 -1.7739  0.2011
19495SOL     OW59700   7.921   1.742   8.684 -0.9311  0.0029  0.1404
19495SOL    HW159701   7.922   1.709   8.774 -1.2038 -0.9172 -0.1888
19495SOL    HW259702   7.971   1.824   8.688 -2.4184  0.9007  1.4783
19496SOL     OW59703   7.929   0.842   0.242  0.1261 -0.2202  0.9262
19496SOL    HW159704   7.996   0.909   0.256  0.7980 -0.4406 -0.9507
19496SOL    HW259705   7.978   0.763   0.221 -0.7063 -0.7020  0.7478
19497SOL     OW59706   8.414   0.774   8.548 -0.2486 -0.4119 -0.1322
19497SOL    HW159707   8.401   0.701   8.609 -1.1493  0.8131  1.2039
19497SOL    HW259708   8.354   0.756   8.476 -2.2075  0.1351  1.2855
19498SOL     OW59709   8.520   0.623   7.679  0.2104 -0.0283  0.3004
19498SOL    HW159710   8.494   0.648   7.767 -0.0931 -0.4898  0.3456
19498SOL    HW259711   8.463   0.674   7.621 -0.6361 -0.8294  0.3965
19499SOL     OW59712   7.752   0.270   8.773 -0.0681  0.3185  0.2160
19499SOL    HW159713   7.680   0.236   8.720 -0.0962 -1.1642  1.1611
19499SOL    HW259714   7.742   0.228   8.858  1.3408  0.8508  0.6765
19500SOL     OW59715   7.278   1.330   8.666  0.0354  0.3336  0.5203
19500SOL    HW159716   7.224   1.264   8.623  0.9517 -0.1980  0.1482
19500SOL    HW259717   7.235   1.413   8.646 -1.2052 -0.1410  1.0973
19501SOL     OW59718   8.263   0.371   0.069  0.2961  0.1080 -0.0778
19501SOL    HW159719   8.299   0.423  -0.003 -0.1059 -0.1304 -0.4567
19501SOL    HW259720   8.174   0.350   0.042  0.2415 -0.2478  0.3522
19502SOL     OW59721   7.690   0.016   8.016 -0.3225 -0.0988  0.1565
19502SOL    HW159722   7.759   0.027   8.081 -0.0693  0.3662 -0.1856
19502SOL    HW259723   7.610   0.007   8.068 -0.0427 -0.3921  0.5471
19503SOL     OW59724   0.073   0.096   7.605 -0.0844  0.1159  0.4133
19503SOL    HW159725   0.018   0.045   7.545 -0.8080 -0.8265  1.8158
19503SOL    HW259726   0.036   0.079   7.691  2.1099 -0.1077  1.3687
19504SOL     OW59727   8.368   0.528   8.669  0.1369 -0.2514 -0.4320
19504SOL    HW159728   8.441   0.466   8.673  1.2966  0.6363 -3.9829
19504SOL    HW259729   8.303   0.485   8.613 -0.4538  0.4705 -0.3197
19505SOL     OW59730   8.594   1.278   6.840 -0.5072  0.3604  0.1455
19505SOL    HW159731   8.539   1.237   6.907  2.2427 -2.4427  0.9047
19505SOL    HW259732   8.562   1.242   6.757 -1.1536  0.4669  0.3389
19506SOL     OW59733   8.294   1.203   7.836  0.2310 -0.6288 -0.4914
19506SOL    HW159734   8.327   1.288   7.866  0.4889 -0.6574 -0.6852
19506SOL    HW259735   8.199   1.207   7.849  0.4644 -1.3237  2.1173
19507SOL     OW59736   7.576   1.025   8.477 -0.4525  0.4496 -0.4558
19507SOL    HW159737   7.527   1.060   8.403 -2.7978 -0.0554  0.7716
19507SOL    HW259738   7.594   1.102   8.532 -0.9285  0.4617 -0.3193
19508SOL     OW59739   7.734   0.450   8.500 -0.2250  0.4505  0.4077
19508SOL    HW159740   7.734   0.381   8.567 -1.2678 -0.0217 -0.0499
19508SOL    HW259741   7.787   0.415   8.429  2.0475  1.5144  1.4937
19509SOL     OW59742   8.431   0.046   0.173 -0.5430  0.1681  0.0469
19509SOL    HW159743   8.369   0.101   0.221 -3.1305 -2.1560 -0.3949
19509SOL    HW259744   8.379   0.007   0.102  1.1964 -2.5119  0.0971
19510SOL     OW59745   7.748   1.235   7.774 -0.4552  0.0467  0.7371
19510SOL    HW159746   7.765   1.203   7.862 -0.4132 -0.9992  0.3700
19510SOL    HW259747   7.704   1.319   7.786  1.8153  1.1664  1.7358
19511SOL     OW59748   7.413   1.652   8.186  0.2476  0.4097  0.0025
19511SOL    HW159749   7.337   1.697   8.150  0.1894  1.7590  1.7204
19511SOL    HW259750   7.464   1.720   8.228  0.8576 -0.9277  1.5287
19512SOL     OW59751   8.127   1.554   8.099  0.4029  0.1575 -0.1613
19512SOL    HW159752   8.080   1.612   8.160 -0.0547 -0.4192  0.0448
19512SOL    HW259753   8.188   1.506   8.153 -1.4509 -1.8862  0.2451
19513SOL     OW59754   8.336   0.762   0.158 -0.1182  0.1981 -0.3531
19513SOL    HW159755   8.408   0.809   0.115 -1.0694  2.6173  0.5029
19513SOL    HW259756   8.257   0.797   0.117 -0.8876 -1.5776 -0.4794
19514SOL     OW59757   7.421   0.338   0.004 -0.1075 -0.1133  0.0282
19514SOL    HW159758   7.415   0.354  -0.090  0.3555  1.2980  0.2209
19514SOL    HW259759   7.355   0.394   0.043  1.7116  1.6645  0.7484
19515SOL     OW59760   8.117   0.502   8.162 -0.0517 -0.6989 -0.1062
19515SOL    HW159761   8.099   0.431   8.100  1.0426 -1.2410  0.1644
19515SOL    HW259762   8.187   0.552   8.120 -1.4145  0.7819 -0.7083
19516SOL     OW59763   8.067   0.620   0.194 -0.3787  0.5527  0.0666
19516SOL    HW159764   8.047   0.624   0.101 -1.0553 -0.7157  0.1416
19516SOL    HW259765   8.162   0.633   0.198 -0.0578 -1.1571 -0.9747
19517SOL     OW59766   8.230   1.918   0.197  0.2527  0.4149  0.5551
19517SOL    HW159767   8.300   1.861   0.167 -1.3807 -1.1482 -0.5581
19517SOL    HW259768   8.243   2.000   0.149  1.3386  0.1815  0.4252
19518SOL     OW59769   8.322   0.791   7.596 -0.4885  0.1520 -0.9995
19518SOL    HW159770   8.260   0.799   7.524 -1.3835 -0.7032 -0.3430
19518SOL    HW259771   8.274   0.822   7.673  0.6135  1.5211 -0.8157
19519SOL     OW59772   7.439   1.250   0.156  0.0617  0.1043 -0.4501
19519SOL    HW159773   7.516   1.205   0.190 -1.2858 -1.2154  1.0178
19519SOL    HW259774   7.373   1.238   0.224 -1.7600  0.2926 -2.1209
19520SOL     OW59775   8.378   1.041   8.584  0.5983 -0.2286  0.3408
19520SOL    HW159776   8.334   1.068   8.664 -0.9529 -0.3308 -0.4400
19520SOL    HW259777   8.375   0.945   8.586 -0.8548 -0.2182 -0.5661
19521SOL     OW59778   8.752   0.752   7.614  0.0371  0.2969  0.0132
19521SOL    HW159779   8.686   0.690   7.645 -1.8669  1.8861 -0.6344
19521SOL    HW259780   8.808   0.768   7.690 -1.7334  0.6312  1.2875
19522SOL     OW59781   8.156   1.507   8.423 -0.0131  0.1480 -0.0232
19522SOL    HW159782   8.160   1.454   8.503 -2.2277  0.3482  0.2680
19522SOL    HW259783   8.165   1.597   8.453 -0.3255  0.1885 -0.0442
19523SOL     OW59784   7.809   1.380   8.390  0.2277  0.4322  0.1447
19523SOL    HW159785   7.844   1.469   8.379 -0.8730  0.7332 -1.2090
19523SOL    HW259786   7.882   1.323   8.367  0.0862  1.0462 -2.0141
19524SOL     OW59787   0.039   1.652   7.982  0.8603 -0.0713  1.3707
19524SOL    HW159788  -0.044   1.621   7.946  0.8908 -0.9311  2.0108
19524SOL    HW259789   0.014   1.702   8.060  0.8840  0.6206  0.9465
19525SOL     OW59790   8.500   1.020   8.158 -0.2615 -0.3517 -0.4192
19525SOL    HW159791   8.438   0.950   8.182 -0.2309 -0.2231  0.0397
19525SOL    HW259792   8.525   0.999   8.068 -1.2270 -0.2260 -0.7351
19526SOL     OW59793   8.273   1.453   7.486 -0.0962  0.5457  0.4493
19526SOL    HW159794   8.245   1.428   7.398 -0.8766 -1.3948  1.2108
19526SOL    HW259795   8.367   1.470   7.477 -0.0563 -0.1292 -0.6567
19527SOL     OW59796   7.302   0.262   7.869 -0.1186 -0.0788 -0.1212
19527SOL    HW159797   7.245   0.195   7.830  0.0126 -0.3547  0.1598
19527SOL    HW259798   7.265   0.278   7.956 -0.4793  0.6233 -0.3947
19528SOL     OW59799   0.062   1.451   7.412 -0.6286 -0.0554  0.9928
19528SOL    HW159800   0.094   1.361   7.415  1.9107  0.7511  0.5913
19528SOL    HW259801  -0.031   1.443   7.391 -0.5892 -2.5774  1.4962
19529SOL     OW59802   8.083   1.074   0.329  0.5126 -0.0742 -0.0237
19529SOL    HW159803   8.152   1.141   0.330 -0.7626  1.3405  2.1327
19529SOL    HW259804   8.001   1.124   0.334 -0.4488 -1.6730  3.1860
19530SOL     OW59805   8.534   0.953   7.483  0.1144  0.0506 -0.5499
19530SOL    HW159806   8.461   0.901   7.516 -0.6115 -0.2253 -2.4819
19530SOL    HW259807   8.604   0.940   7.547 -0.6623 -1.8154 -0.0402
19531SOL     OW59808   8.233   1.258   0.191 -0.0848 -0.0773 -0.2419
19531SOL    HW159809   8.235   1.222   0.102 -2.8518 -0.1386 -0.3781
19531SOL    HW259810   8.179   1.336   0.184 -0.7311 -0.3262  1.4357
19532SOL     OW59811   8.007   0.128   8.429 -0.4356 -0.2818 -0.6384
19532SOL    HW159812   8.078   0.070   8.458 -1.5492 -0.9627  0.8246
19532SOL    HW259813   7.997   0.191   8.500 -0.6252  0.4504 -1.3002
19533SOL     OW59814   8.027   1.343   7.719  0.5762  0.0073 -0.2837
19533SOL    HW159815   7.968   1.392   7.776  1.5774 -0.6850  1.4070
19533SOL    HW259816   7.984   1.258   7.707  0.0341  0.3852 -1.1899
19534SOL     OW59817   7.926   1.523   7.911 -0.5981  1.4269  0.7097
19534SOL    HW159818   7.916   1.618   7.899  1.5938  1.7895  1.3246
19534SOL    HW259819   7.992   1.514   7.980 -0.3828 -0.5567  0.3070
19535SOL     OW59820   7.514   0.422   7.922  0.2393 -0.8675 -0.1553
19535SOL    HW159821   7.571   0.423   7.845 -0.8525  1.2039 -1.0259
19535SOL    HW259822   7.450   0.353   7.904 -0.6923  0.3300 -1.7248
19536SOL     OW59823   7.905   0.440   7.528 -0.1531  0.5826 -0.2428
19536SOL    HW159824   7.903   0.349   7.497  1.8592  0.0271  1.0451
19536SOL    HW259825   7.844   0.486   7.471 -0.3024 -1.3258 -1.7398
19537SOL     OW59826   8.701   1.378   7.156 -0.3263 -0.6256  0.7769
19537SOL    HW159827   8.640   1.309   7.128  1.2630 -1.2542 -1.3772
19537SOL    HW259828   8.699   1.442   7.085  2.6960 -1.4856 -0.2311
19538SOL     OW59829   8.327   1.055   0.629  0.1019 -0.0160  0.4136
19538SOL    HW159830   8.233   1.037   0.628 -0.0249  0.3595  2.0121
19538SOL    HW259831   8.336   1.132   0.685  1.3767 -0.1654  0.4439
19539SOL     OW59832   7.907   2.128   0.021 -0.4955  0.0030  0.5085
19539SOL    HW159833   7.890   2.154  -0.070 -0.5019  1.2723  0.8494
19539SOL    HW259834   7.828   2.080   0.047  0.1403 -1.7580 -0.6190
19540SOL     OW59835   8.847   0.123   7.890  0.2893  0.2009  0.3584
19540SOL    HW159836   8.829   0.213   7.918 -1.5467 -0.2110  0.6315
19540SOL    HW259837   8.820   0.069   7.964  2.7715 -0.5506  0.7898
19541SOL     OW59838   8.159   0.639   8.417 -0.3972  0.0786  0.1185
19541SOL    HW159839   8.092   0.694   8.457 -0.2648 -0.7174  1.4950
19541SOL    HW259840   8.110   0.581   8.359 -0.7808  0.2015  0.3154
19542SOL     OW59841   8.729   1.349   7.688  0.7461  0.3253 -0.2061
19542SOL    HW159842   8.712   1.285   7.756  1.7032 -0.3372 -0.5558
19542SOL    HW259843   8.703   1.306   7.607 -0.7051  1.2301 -0.2664
19543SOL     OW59844   7.952   1.939   8.338  0.4084 -0.1039  0.1123
19543SOL    HW159845   7.867   1.949   8.296  0.0411  0.2914  0.9182
19543SOL    HW259846   7.973   2.026   8.373  1.2442 -0.1462 -0.2619
19544SOL     OW59847   8.142   0.898   0.037  0.5724  0.0352 -0.0818
19544SOL    HW159848   8.071   0.930  -0.019  1.6262 -0.0565 -1.4871
19544SOL    HW259849   8.211   0.963   0.029  2.4172 -2.0088 -2.3041
19545SOL     OW59850   8.829   1.130   7.208 -0.1830 -0.0828 -0.1857
19545SOL    HW159851   8.795   1.054   7.161  1.0144  0.0625 -1.3060
19545SOL    HW259852   8.821   1.202   7.146  1.1113  0.1730 -0.0816
19546SOL     OW59853   8.008   0.799   8.143 -0.1424  0.2474  0.0821
19546SOL    HW159854   8.061   0.842   8.210  0.9504  0.3309 -0.8073
19546SOL    HW259855   7.933   0.763   8.191  0.1751  1.0325  1.2057
19547SOL     OW59856   7.721   0.473   7.746  0.2695  0.4357 -0.3582
19547SOL    HW159857   7.770   0.437   7.672 -1.2627 -0.4907 -0.9972
19547SOL    HW259858   7.787   0.504   7.807  1.6611 -1.5222 -0.7829
19548SOL     OW59859   7.720   0.856   8.335  0.1120 -1.0323 -0.0441
19548SOL    HW159860   7.643   0.912   8.349  0.4891 -0.5003 -0.0852
19548SOL    HW259861   7.793   0.916   8.329  0.4533 -1.4880 -0.6686
19549SOL     OW59862   7.907   1.796   7.918  0.2557  0.1588 -0.4334
19549SOL    HW159863   7.950   1.811   7.834  1.1790 -0.3093 -0.0529
19549SOL    HW259864   7.967   1.833   7.983  0.3736 -1.0166  0.1464
19550SOL     OW59865   0.244   0.144   8.697 -0.3185 -0.0325  0.2248
19550SOL    HW159866   0.222   0.118   8.607  1.8498 -1.6695  0.0980
19550SOL    HW259867   0.265   0.237   8.690  1.5791 -0.5145 -1.3740
19551SOL     OW59868   8.557   0.350   8.272 -0.3095 -0.1114  0.4844
19551SOL    HW159869   8.514   0.286   8.215 -0.1036 -0.7298  1.0097
19551SOL    HW259870   8.523   0.434   8.243 -0.4219 -0.4386 -0.3634
19552SOL     OW59871   8.566   1.507   7.398  0.0023  0.0165  0.1457
19552SOL    HW159872   8.619   1.435   7.363 -0.0830 -0.3834  0.8203
19552SOL    HW259873   8.527   1.548   7.321 -0.9585 -1.4542 -0.1883
19553SOL     OW59874   8.093   1.932   8.753  0.3378 -0.0497  0.9752
19553SOL    HW159875   8.168   1.987   8.732 -0.5375  0.4542 -1.1450
19553SOL    HW259876   8.043   1.982   8.817  0.8599  0.4456  1.0007
19554SOL     OW59877   7.984   0.971   7.715  0.0283 -0.1310  0.0422
19554SOL    HW159878   7.932   0.933   7.644 -1.3135 -2.0248  1.9133
19554SOL    HW259879   8.046   0.901   7.738 -0.0170  0.1812  1.1631
19555SOL     OW59880   8.658   1.584   7.834 -0.4051 -0.5036  0.8038
19555SOL    HW159881   8.636   1.496   7.805  0.6345 -0.7410  0.6865
19555SOL    HW259882   8.660   1.637   7.754  0.1477 -0.6432  0.7206
19556SOL     OW59883   7.668   2.351   0.051 -0.1181  0.7186  0.2685
19556SOL    HW159884   7.658   2.257   0.061  1.4690  0.5047  0.0044
19556SOL    HW259885   7.677   2.384   0.141 -0.9566  0.6675  0.3787
19557SOL     OW59886   7.592   1.962   1.140 -0.1665 -0.6710 -0.1308
19557SOL    HW159887   7.558   1.946   1.051 -0.7256  2.3258 -0.5857
19557SOL    HW259888   7.514   1.970   1.194  0.0986 -0.6922  0.2563
19558SOL     OW59889   7.756   2.600   0.212  0.3311  0.1706 -0.0836
19558SOL    HW159890   7.759   2.681   0.161  1.9144  0.0186 -0.2756
19558SOL    HW259891   7.694   2.618   0.282 -0.7289  0.9044 -1.1797
19559SOL     OW59892   7.386   3.409   1.654  0.3235 -0.4567  0.3238
19559SOL    HW159893   7.377   3.405   1.559  0.6939 -3.0179  0.3197
19559SOL    HW259894   7.447   3.338   1.675 -0.3749 -0.4742  2.5427
19560SOL     OW59895   0.068   3.252   0.951  0.2332 -0.0861  0.5234
19560SOL    HW159896   0.106   3.200   0.880  0.0601 -1.2696  1.2770
19560SOL    HW259897   0.144   3.282   1.002  0.4306  1.5712 -0.6525
19561SOL     OW59898   8.122   2.640   0.557 -0.0267 -0.0540  0.4181
19561SOL    HW159899   8.193   2.633   0.621  0.4203 -0.0490 -0.0710
19561SOL    HW259900   8.044   2.656   0.609 -0.4367 -4.0461  1.3827
19562SOL     OW59901   7.837   3.035   1.264  0.0495  0.6492 -0.0405
19562SOL    HW159902   7.929   3.016   1.246  0.1220  0.9308  0.0276
19562SOL    HW259903   7.832   3.131   1.265 -0.1859  0.6365  0.2408
19563SOL     OW59904   8.353   2.814   1.921  0.4930  0.0197 -0.2099
19563SOL    HW159905   8.285   2.828   1.854 -1.4604  0.6968  1.8015
19563SOL    HW259906   8.348   2.721   1.940  0.2828  0.0232 -0.2391
19564SOL     OW59907   8.025   3.069   1.006 -0.4639 -0.3745 -0.0469
19564SOL    HW159908   8.098   3.124   1.036 -0.6211 -0.7928  1.1596
19564SOL    HW259909   7.953   3.130   0.991  0.1827  0.0767 -1.4956
19565SOL     OW59910   8.367   3.157   2.222  0.1483  0.3959 -0.4213
19565SOL    HW159911   8.301   3.220   2.251  1.0555  0.8486  0.7481
19565SOL    HW259912   8.333   3.123   2.140 -2.4200 -0.6882  0.9639
19566SOL     OW59913   7.544   3.418   1.160  0.6556  0.2400  0.5766
19566SOL    HW159914   7.496   3.394   1.081  0.4811 -0.4854  0.8985
19566SOL    HW259915   7.613   3.476   1.129 -0.6356  1.6386  0.1374
19567SOL     OW59916   7.718   2.324   1.102 -0.2430  0.1747  0.4082
19567SOL    HW159917   7.654   2.312   1.032  0.3158 -2.4821  0.2465
19567SOL    HW259918   7.667   2.318   1.182 -0.4912  0.1634  0.2515
19568SOL     OW59919   7.337   3.260   0.307 -0.1184 -0.2636 -0.3789
19568SOL    HW159920   7.363   3.272   0.398 -1.2640 -0.2369 -0.0421
19568SOL    HW259921   7.417   3.232   0.263 -0.1836 -3.4649  1.2327
19569SOL     OW59922   8.637   3.257   1.797 -0.1783 -0.9290 -0.1328
19569SOL    HW159923   8.588   3.321   1.848 -1.0172 -2.4695  1.0969
19569SOL    HW259924   8.625   3.174   1.844  0.5720 -2.0688 -1.8293
19570SOL     OW59925   7.649   3.360   0.189  0.2609  0.2823  0.4027
19570SOL    HW159926   7.677   3.371   0.098  1.6584  1.4953  0.9459
19570SOL    HW259927   7.690   3.278   0.217 -1.1138 -0.7189 -0.3568
19571SOL     OW59928   7.559   2.827   0.626 -0.0743 -0.5819 -0.7060
19571SOL    HW159929   7.629   2.781   0.672 -0.4585  1.6759  2.4624
19571SOL    HW259930   7.479   2.795   0.666 -0.6023 -0.0494 -1.3122
19572SOL     OW59931   8.347   3.445   1.188  0.4224 -0.5842  1.0361
19572SOL    HW159932   8.361   3.526   1.139  0.5314 -1.2334 -0.0353
19572SOL    HW259933   8.275   3.465   1.248  1.5015  0.7873  1.9250
19573SOL     OW59934   8.020   2.830   0.386 -0.2805 -0.0587  0.2040
19573SOL    HW159935   8.037   2.742   0.419  0.6240  0.4421  1.1114
19573SOL    HW259936   7.985   2.878   0.461  1.9497  1.1372  0.5566
19574SOL     OW59937   7.373   2.322   0.981 -0.0613 -0.4380 -0.2131
19574SOL    HW159938   7.326   2.250   0.940 -1.5387  0.5720 -0.3726
19574SOL    HW259939   7.362   2.308   1.075  0.3333 -0.8331 -0.2207
19575SOL     OW59940   7.076   3.679   0.071 -0.4446  0.2896  0.0499
19575SOL    HW159941   7.169   3.665   0.086 -0.8258 -0.5169  1.9309
19575SOL    HW259942   7.046   3.727   0.148 -1.5291  0.8448 -0.6895
19576SOL     OW59943   0.023   2.661   0.304  0.2949 -0.2761 -0.3689
19576SOL    HW159944   0.116   2.636   0.304  0.8594  1.6902 -0.0202
19576SOL    HW259945  -0.004   2.653   0.213  0.7762 -0.9170 -0.4629
19577SOL     OW59946   7.621   2.882   1.449 -0.3809  0.0183  0.3825
19577SOL    HW159947   7.676   2.945   1.402  0.5565 -0.7612  0.4119
19577SOL    HW259948   7.590   2.931   1.525 -2.3867  1.4879 -1.2725
19578SOL     OW59949   7.799   3.263   8.771 -0.5264  0.2664  0.1301
19578SOL    HW159950   7.882   3.297   8.806  0.2611 -1.4894  0.0367
19578SOL    HW259951   7.776   3.324   8.701 -0.5895  2.1447  1.6805
19579SOL     OW59952   8.315   2.845   1.396  0.0996  0.0199 -0.0973
19579SOL    HW159953   8.253   2.918   1.394 -0.9142 -0.7666  1.0731
19579SOL    HW259954   8.285   2.786   1.328  0.7644  0.5440 -0.8663
19580SOL     OW59955   7.889   1.957   0.597 -0.4040 -0.4562 -0.0119
19580SOL    HW159956   7.926   1.893   0.536  0.5812  0.6470 -0.6130
19580SOL    HW259957   7.950   2.031   0.595 -1.3835  0.4211  0.8301
19581SOL     OW59958   7.152   3.063   1.580 -0.0280  0.2126  0.2354
19581SOL    HW159959   7.069   3.079   1.624  0.7983  2.3119  1.1399
19581SOL    HW259960   7.213   3.042   1.651  0.3996 -0.5519 -0.3438
19582SOL     OW59961   8.493   3.486   1.926  0.0044  0.8379  1.2741
19582SOL    HW159962   8.554   3.560   1.923  0.4666  0.4462  0.8294
19582SOL    HW259963   8.494   3.458   2.018  2.8862 -1.1075  0.7966
19583SOL     OW59964   7.724   1.820   1.891  0.4186 -0.2265 -0.0167
19583SOL    HW159965   7.651   1.783   1.841  0.1205  0.5671 -0.1905
19583SOL    HW259966   7.752   1.896   1.840 -0.9731  1.6194  1.8001
19584SOL     OW59967   7.940   2.736   0.745  0.3647 -0.2619 -0.3861
19584SOL    HW159968   7.938   2.827   0.715  0.6556  0.2337  1.0201
19584SOL    HW259969   7.848   2.712   0.755  0.2989  0.1173 -0.0704
19585SOL     OW59970   8.484   2.316   0.484  0.1014 -0.2689  0.3136
19585SOL    HW159971   8.475   2.348   0.574 -0.9698 -1.9476  0.8400
19585SOL    HW259972   8.525   2.388   0.437  0.8668  0.5743  2.1917
19586SOL     OW59973   8.012   2.833   1.424  0.1575 -0.2020  0.1193
19586SOL    HW159974   8.021   2.770   1.353  0.5429 -1.5407  1.3250
19586SOL    HW259975   8.029   2.918   1.383  1.1925 -1.0271 -1.2061
19587SOL     OW59976   8.712   2.383   1.564  0.1415  0.3015 -0.0686
19587SOL    HW159977   8.772   2.456   1.582 -0.5764  0.7562  0.5317
19587SOL    HW259978   8.738   2.315   1.625  2.1226 -0.7611 -1.9504
19588SOL     OW59979   8.367   2.642   1.617 -0.2325 -0.0150 -1.1376
19588SOL    HW159980   8.417   2.563   1.596  2.0730  0.5615  1.5445
19588SOL    HW259981   8.388   2.704   1.547  4.9473  0.9762  0.8798
19589SOL     OW59982   8.296   2.212   1.078  0.4129 -0.2652 -0.5445
19589SOL    HW159983   8.254   2.279   1.024 -0.4545 -1.2299 -1.0958
19589SOL    HW259984   8.225   2.169   1.124  0.7473 -1.8838 -1.4371
19590SOL     OW59985   8.399   2.615   0.635 -0.5542 -0.2219  0.1107
19590SOL    HW159986   8.457   2.548   0.670  0.7128  1.1631  0.7988
19590SOL    HW259987   8.458   2.684   0.603 -1.8030  1.1629  0.6531
19591SOL     OW59988   7.339   2.687   0.697  0.0837 -0.0830 -0.3677
19591SOL    HW159989   7.276   2.730   0.754 -0.2184 -1.9954  0.8275
19591SOL    HW259990   7.294   2.678   0.613 -0.9423 -0.6738  0.2260
19592SOL     OW59991   7.152   3.796   1.341 -0.0841 -0.3654 -0.3489
19592SOL    HW159992   7.124   3.855   1.411  1.4496 -0.5132  0.4493
19592SOL    HW259993   7.085   3.804   1.274 -0.3566  1.6488  0.0984
19593SOL     OW59994   8.124   2.322   0.045  0.1749 -0.1977 -0.4481
19593SOL    HW159995   8.106   2.298  -0.046 -2.5306  1.0566 -0.3434
19593SOL    HW259996   8.072   2.260   0.096 -0.2253  0.6049  0.1366
19594SOL     OW59997   0.088   3.120   0.705  0.0187  0.1455  0.0654
19594SOL    HW159998   0.035   3.099   0.628  0.9169 -0.4736 -0.4036
19594SOL    HW259999   0.095   3.037   0.752  0.7082  0.1762  0.0243
19595SOL     OW60000   8.449   2.379   1.597 -0.2788 -0.0307 -0.3509
19595SOL    HW160001   8.409   2.299   1.562 -1.3101 -0.0788  0.8553
19595SOL    HW260002   8.540   2.374   1.569 -0.5258 -1.2134 -1.0142
19596SOL     OW60003   8.169   3.335   0.518 -0.2229  0.5708 -0.3574
19596SOL    HW160004   8.091   3.328   0.463 -0.8674 -0.9168  0.6692
19596SOL    HW260005   8.137   3.321   0.607  1.1315  0.5800  0.1513
19597SOL     OW60006   7.681   3.636   0.778 -0.1213  0.2830  0.1680
19597SOL    HW160007   7.634   3.609   0.699  2.1327 -0.0997 -1.0958
19597SOL    HW260008   7.668   3.731   0.783  1.4440  0.6592 -1.9039
19598SOL     OW60009   8.586   3.311   1.503  0.3918 -0.1463 -0.4198
19598SOL    HW160010   8.612   3.303   1.595 -1.0113 -0.8187 -0.0525
19598SOL    HW260011   8.572   3.404   1.490 -0.8908 -0.1747  0.5126
19599SOL     OW60012   7.749   2.817   0.059  0.5908  0.1375  0.2200
19599SOL    HW160013   7.758   2.909   0.081 -0.0057  0.5416 -1.0902
19599SOL    HW260014   7.743   2.816  -0.037  0.4450 -1.2480  0.2187
19600SOL     OW60015   7.903   3.550   1.546  0.3923 -0.0980 -0.7130
19600SOL    HW160016   7.900   3.645   1.532  1.1663 -0.2740 -2.2851
19600SOL    HW260017   7.841   3.514   1.483  1.2558 -0.7207 -1.2308
19601SOL     OW60018   8.546   3.655   0.735  0.3959 -0.1311 -0.2424
19601SOL    HW160019   8.532   3.652   0.830 -1.4664  0.6735 -0.4381
19601SOL    HW260020   8.579   3.568   0.713 -1.5297 -1.2127  0.8526
19602SOL     OW60021   7.637   2.368   1.598 -0.8226 -0.6759 -0.3883
19602SOL    HW160022   7.581   2.440   1.568  0.0222 -0.0028 -0.3905
19602SOL    HW260023   7.699   2.355   1.526  0.1855 -0.1518  0.3632
19603SOL     OW60024   0.603   2.927   0.008 -0.8212  0.2297  0.2106
19603SOL    HW160025   0.614   2.980  -0.071 -1.5906 -1.6098 -1.2088
19603SOL    HW260026   0.688   2.886   0.021 -0.8106  0.2013  0.0579
19604SOL     OW60027   7.649   3.538   0.370 -0.3250  0.6649  0.0977
19604SOL    HW160028   7.651   3.462   0.312  0.9364 -0.5625  1.6450
19604SOL    HW260029   7.718   3.595   0.337  1.7251 -0.9187  1.4268
19605SOL     OW60030   7.400   3.695   1.263 -0.4224  0.2301 -0.3569
19605SOL    HW160031   7.407   3.608   1.303  2.0544  0.6492  0.3505
19605SOL    HW260032   7.313   3.726   1.286 -0.7001 -1.3666  0.9062
19606SOL     OW60033   8.479   3.146   0.924  0.5625  0.1173  0.7805
19606SOL    HW160034   8.544   3.195   0.873 -0.4454  0.6198 -0.0611
19606SOL    HW260035   8.460   3.069   0.870  1.9678 -1.1460  1.9888
19607SOL     OW60036   7.494   2.554   0.886  0.0437 -0.3443  0.1335
19607SOL    HW160037   7.432   2.570   0.815  1.2833 -0.3528 -0.9936
19607SOL    HW260038   7.472   2.467   0.918 -1.0393 -0.0221  0.3281
19608SOL     OW60039   7.893   2.153   1.537  0.0394  0.2244  0.2458
19608SOL    HW160040   7.901   2.245   1.511 -1.2911  0.0081 -1.1279
19608SOL    HW260041   7.983   2.119   1.535  0.3866  1.1453 -0.6564
19609SOL     OW60042   8.141   3.048   1.337 -0.4219  0.1005 -0.3172
19609SOL    HW160043   8.168   3.089   1.255 -0.8807  1.0120 -0.0224
19609SOL    HW260044   8.139   3.120   1.401 -4.1105  0.3185 -0.4367
19610SOL     OW60045   0.183   2.427   1.640 -0.1472 -0.0767 -0.0585
19610SOL    HW160046   0.107   2.484   1.651 -0.4635 -0.5785  0.4104
19610SOL    HW260047   0.256   2.478   1.674 -0.7323 -0.6725  2.2879
19611SOL     OW60048   7.721   3.586   1.044  0.1661  0.7762  0.0706
19611SOL    HW160049   7.731   3.675   1.079  1.7884  0.8116 -0.3943
19611SOL    HW260050   7.697   3.599   0.952 -1.1369  0.7044  0.3861
19612SOL     OW60051   8.308   2.155   0.347 -0.2494 -0.5766 -0.4467
19612SOL    HW160052   8.367   2.130   0.275  0.8250 -2.3093  0.9479
19612SOL    HW260053   8.350   2.229   0.389 -0.9169  0.4910 -1.5993
19613SOL     OW60054   7.505   2.215   0.348  0.5828 -0.0392  0.0574
19613SOL    HW160055   7.448   2.203   0.423  0.0052 -1.2359 -0.5536
19613SOL    HW260056   7.533   2.307   0.353 -0.6056  0.2874  0.9098
19614SOL     OW60057   8.610   3.446   0.085 -0.5529  0.2146 -0.2455
19614SOL    HW160058   8.635   3.536   0.108  0.0364 -0.0252  0.0746
19614SOL    HW260059   8.533   3.429   0.139 -1.1476  0.7981 -0.8892
19615SOL     OW60060   8.334   2.489   0.065  0.4091  0.1154  0.0165
19615SOL    HW160061   8.262   2.443   0.021  0.2561  0.2471  0.1270
19615SOL    HW260062   8.300   2.509   0.152 -0.6688  3.1068 -0.9680
19616SOL     OW60063   8.477   2.445   1.271  0.0365  0.1717 -0.1574
19616SOL    HW160064   8.445   2.416   1.186 -2.6337  1.6725  0.2402
19616SOL    HW260065   8.470   2.368   1.327 -0.2972 -0.2332 -0.7509
19617SOL     OW60066   0.016   3.529   0.918 -0.6369  0.3731 -0.4115
19617SOL    HW160067   0.003   3.534   0.823  0.9442 -0.5228 -0.7123
19617SOL    HW260068   0.044   3.439   0.933  0.8353  0.9746  0.6593
19618SOL     OW60069   7.811   3.278   1.016 -0.3478 -0.5322  0.4415
19618SOL    HW160070   7.823   3.336   0.941  2.3285 -0.3850  0.8895
19618SOL    HW260071   7.734   3.226   0.995 -1.0597  1.1505 -1.3009
19619SOL     OW60072   0.058   3.740   0.539  0.2113 -0.2697  0.3335
19619SOL    HW160073   0.121   3.781   0.479  1.4372 -1.5319  0.7124
19619SOL    HW260074   0.067   3.789   0.621  0.5884 -0.3363  0.3343
19620SOL     OW60075   0.112   2.338   8.733  0.3142 -0.1621 -0.3539
19620SOL    HW160076   0.196   2.293   8.722  0.4666  0.1618 -0.5398
19620SOL    HW260077   0.134   2.431   8.725 -0.4879 -0.1337 -3.3954
19621SOL     OW60078   7.414   2.732   1.327 -0.2824 -0.0782 -0.4317
19621SOL    HW160079   7.418   2.744   1.232 -0.6523 -1.4317 -0.6490
19621SOL    HW260080   7.468   2.802   1.363 -1.1843  1.2487 -1.5704
19622SOL     OW60081   8.382   1.891   1.508 -0.1455 -0.2496 -0.0146
19622SOL    HW160082   8.416   1.870   1.421  0.8604 -2.4294  0.8436
19622SOL    HW260083   8.287   1.887   1.497 -0.1051  1.4311 -1.4126
19623SOL     OW60084   8.222   2.593   0.308  0.3920  0.2973 -0.1872
19623SOL    HW160085   8.206   2.647   0.385  0.3025 -0.6299  0.4563
19623SOL    HW260086   8.137   2.552   0.290  0.5936 -0.0572 -0.3325
19624SOL     OW60087   7.996   2.207   0.902  0.1895 -0.0189 -0.3471
19624SOL    HW160088   7.924   2.144   0.906  1.4580 -1.5348 -0.0404
19624SOL    HW260089   8.074   2.154   0.920  1.3214  1.6641 -0.0870
19625SOL     OW60090   7.552   3.181   8.415 -0.7231  0.3176 -0.2952
19625SOL    HW160091   7.549   3.265   8.369 -1.4979  1.1873  1.2753
19625SOL    HW260092   7.581   3.118   8.348  0.1407  1.8648 -1.4262
19626SOL     OW60093   0.081   2.293   8.073 -0.3907  0.4240 -0.6021
19626SOL    HW160094  -0.014   2.289   8.086 -0.3014  1.1972  0.4027
19626SOL    HW260095   0.091   2.314   7.980 -1.2187  0.9670 -0.5791
19627SOL     OW60096   7.771   2.322   0.531 -0.6360  0.2031 -0.2728
19627SOL    HW160097   7.807   2.234   0.517  0.1054  0.4021  0.3282
19627SOL    HW260098   7.806   2.349   0.616 -0.1860  1.4087 -0.8102
19628SOL     OW60099   8.543   3.220   1.246 -0.7085  0.2989  0.3766
19628SOL    HW160100   8.559   3.263   1.330 -0.5862  0.1381  0.4366
19628SOL    HW260101   8.514   3.290   1.188  2.4979  1.1107 -0.4509
19629SOL     OW60102   8.575   2.909   1.150 -0.4329  0.1392 -0.1198
19629SOL    HW160103   8.513   2.977   1.177  0.5616  0.4322  1.5495
19629SOL    HW260104   8.660   2.952   1.154  0.1058 -0.9166 -0.0523
19630SOL     OW60105   8.430   2.170   1.405  0.1114 -0.1187 -0.0039
19630SOL    HW160106   8.517   2.130   1.405  0.6249  0.9015 -1.6362
19630SOL    HW260107   8.371   2.100   1.377  0.6520 -0.3796 -0.5020
19631SOL     OW60108   8.150   3.085   2.043  0.3062 -0.4014  0.1244
19631SOL    HW160109   8.107   3.057   2.124 -0.0350 -1.5753 -0.4237
19631SOL    HW260110   8.115   3.025   1.977  0.7107  0.4240 -0.8565
19632SOL     OW60111   7.910   3.009   0.657  0.1494 -0.6488 -0.4238
19632SOL    HW160112   7.816   3.019   0.667 -0.2610  0.3122 -3.8288
19632SOL    HW260113   7.930   3.051   0.573  3.2869 -2.5992 -0.8451
19633SOL     OW60114   8.025   2.900   1.906 -0.5413  0.2257  0.4833
19633SOL    HW160115   7.940   2.897   1.861 -0.9637 -1.2972  1.2727
19633SOL    HW260116   8.088   2.872   1.841 -0.8135  0.2815  0.1925
19634SOL     OW60117   8.145   2.463   1.506 -0.2061  0.1859  0.4620
19634SOL    HW160118   8.171   2.477   1.597  1.2411 -1.6629  0.4055
19634SOL    HW260119   8.221   2.494   1.455  0.5593 -2.0712  0.1113
19635SOL     OW60120   7.372   3.404   1.378  0.5145  0.5441  0.6594
19635SOL    HW160121   7.412   3.395   1.291  0.5814 -1.0168  0.8085
19635SOL    HW260122   7.315   3.326   1.385  1.4533 -0.0141  2.4787
19636SOL     OW60123   7.706   3.346   0.596 -0.0224  0.4990  0.4417
19636SOL    HW160124   7.715   3.419   0.535  0.0988  0.8844  0.9173
19636SOL    HW260125   7.612   3.336   0.609 -0.0103  1.4129  1.3689
19637SOL     OW60126   7.891   2.418   0.768  0.3204  0.5309 -0.0150
19637SOL    HW160127   7.975   2.463   0.765  0.5789  0.0759  0.2877
19637SOL    HW260128   7.903   2.348   0.832 -0.2147  0.3166 -0.1408
19638SOL     OW60129   8.495   3.084   0.127  0.7709 -0.1274  0.6159
19638SOL    HW160130   8.474   3.035   0.047  1.3539  1.7073 -0.7228
19638SOL    HW260131   8.414   3.129   0.150  0.6569 -0.5040  0.9655
19639SOL     OW60132   8.837   3.012   1.106  0.1914 -0.4978 -0.1945
19639SOL    HW160133   8.837   3.102   1.073 -0.2136  0.6609  2.6874
19639SOL    HW260134   8.877   2.961   1.036  2.2346  2.2292 -1.1959
19640SOL     OW60135   7.289   3.614   0.810 -0.6621  0.0654  0.1903
19640SOL    HW160136   7.260   3.524   0.824 -0.5872  0.3404  2.4031
19640SOL    HW260137   7.347   3.609   0.734  1.4878 -2.2813  1.8211
19641SOL     OW60138   7.776   2.653   1.770  0.0209  0.1794  0.5101
19641SOL    HW160139   7.788   2.559   1.783  1.7635  0.1764 -0.7486
19641SOL    HW260140   7.785   2.666   1.676 -1.2326  1.5074  0.5338
19642SOL     OW60141   8.488   1.768   1.947  0.0725  0.0962 -0.0568
19642SOL    HW160142   8.430   1.692   1.935 -0.2583  0.4324 -0.6028
19642SOL    HW260143   8.572   1.741   1.911  0.3817 -0.5303  1.0741
19643SOL     OW60144   7.968   1.604   1.903  0.0811  0.5328  0.0437
19643SOL    HW160145   7.882   1.572   1.874  0.5336  0.0544 -0.8133
19643SOL    HW260146   7.948   1.661   1.977 -1.2226  2.3471 -1.5815
19644SOL     OW60147   8.177   2.821   1.706 -0.1651 -0.0083  0.1634
19644SOL    HW160148   8.259   2.788   1.671  0.0378 -0.6445  1.2098
19644SOL    HW260149   8.120   2.829   1.629  0.4914 -0.6666 -0.4072
19645SOL     OW60150   8.358   2.711   1.062  0.0163  0.4294 -0.1791
19645SOL    HW160151   8.424   2.777   1.041 -0.5560  1.7681  1.9183
19645SOL    HW260152   8.275   2.749   1.035 -0.3458  0.7258  1.2598
19646SOL     OW60153   8.721   2.566   0.055 -0.5306 -0.1120 -0.3763
19646SOL    HW160154   8.662   2.612   0.115  1.4102  1.0510  0.7849
19646SOL    HW260155   8.673   2.488   0.028 -2.2652  0.3637  1.1332
19647SOL     OW60156   7.530   2.260   1.289 -0.3702 -0.2225 -0.0847
19647SOL    HW160157   7.439   2.282   1.268 -0.2864  0.1116 -0.1023
19647SOL    HW260158   7.523   2.185   1.348 -0.7676  1.5704  2.2908
19648SOL     OW60159   7.620   3.262   1.665 -0.4473  0.2026 -0.3662
19648SOL    HW160160   7.698   3.281   1.716 -1.7221 -1.0657  2.2365
19648SOL    HW260161   7.633   3.173   1.632 -0.5258  0.2169 -0.4364
19649SOL     OW60162   7.994   2.688   1.205  0.4898  0.4730 -0.3323
19649SOL    HW160163   8.029   2.728   1.126  3.3656  0.7199  0.9099
19649SOL    HW260164   7.996   2.594   1.188  1.0783  0.5260 -0.5847
19650SOL     OW60165   7.586   2.570   0.446  0.2855 -0.3603 -0.1839
19650SOL    HW160166   7.544   2.632   0.505  0.2129  0.0067 -0.6135
19650SOL    HW260167   7.626   2.505   0.503  2.2471  1.2461  0.3741
19651SOL     OW60168   0.031   2.350   0.141 -0.0122  0.0207 -0.2049
19651SOL    HW160169   0.049   2.327   0.050  0.8421 -0.8004  0.1576
19651SOL    HW260170  -0.020   2.431   0.135 -2.2725 -1.4023 -1.4807
19652SOL     OW60171   8.263   2.478   0.925  0.2560  0.1402  0.0400
19652SOL    HW160172   8.306   2.553   0.965  0.1700  0.0514  0.2995
19652SOL    HW260173   8.294   2.478   0.834  1.2604 -0.2501  0.3662
19653SOL     OW60174   0.034   3.253   1.675  0.1822 -0.0783  0.6101
19653SOL    HW160175  -0.051   3.278   1.711  0.2705  1.1994 -0.0293
19653SOL    HW260176   0.036   3.158   1.684 -0.7266 -0.0095  1.9120
19654SOL     OW60177   8.077   2.599   2.068 -0.4593 -0.0142  0.0983
19654SOL    HW160178   8.072   2.693   2.051  1.7019  0.0233 -0.7982
19654SOL    HW260179   8.168   2.576   2.045 -1.5870 -2.7760 -2.2666
19655SOL     OW60180   8.743   2.509   8.384 -0.0945  0.2623 -0.1808
19655SOL    HW160181   8.780   2.420   8.383  0.4435  0.4531 -2.1063
19655SOL    HW260182   8.726   2.527   8.476  2.1099 -0.9020  0.5319
19656SOL     OW60183   8.645   3.316   0.679 -0.5000  0.0840 -0.0741
19656SOL    HW160184   8.703   3.243   0.697 -1.1205 -0.5482 -0.6031
19656SOL    HW260185   8.703   3.387   0.652  0.0627 -0.3876 -0.1162
19657SOL     OW60186   7.749   2.798   1.144 -0.0474 -0.1830 -0.8652
19657SOL    HW160187   7.831   2.750   1.158  0.9577  2.0199  1.6269
19657SOL    HW260188   7.755   2.874   1.202 -3.5316  0.5372 -1.2111
19658SOL     OW60189   7.779   1.975   1.357 -0.2792  0.0857  0.2386
19658SOL    HW160190   7.706   1.992   1.298 -1.9518 -0.0945  2.1444
19658SOL    HW260191   7.784   2.052   1.413 -0.3522 -0.7657  1.4477
19659SOL     OW60192   8.219   1.894   1.855 -0.7219 -0.4424  0.3749
19659SOL    HW160193   8.313   1.888   1.871 -0.4891 -0.0769 -0.7991
19659SOL    HW260194   8.191   1.803   1.844 -0.2693 -0.4868 -0.5026
19660SOL     OW60195   7.866   2.414   1.448 -0.0722 -0.2818 -0.0787
19660SOL    HW160196   7.824   2.500   1.444 -0.9998 -0.7713 -1.4736
19660SOL    HW260197   7.959   2.433   1.453 -0.3457  0.8133  1.8658
19661SOL     OW60198   7.187   3.349   0.751  0.1888  0.2435 -0.0070
19661SOL    HW160199   7.155   3.274   0.801  0.1315 -1.5027 -2.4884
19661SOL    HW260200   7.118   3.367   0.687  0.5619  1.9147  0.0132
19662SOL     OW60201   8.004   3.740   1.104 -0.0377  0.4874  0.0868
19662SOL    HW160202   7.961   3.788   1.033  1.1023  3.1048  1.0421
19662SOL    HW260203   8.040   3.662   1.063  1.9708  2.6645 -2.6568
19663SOL     OW60204   8.108   2.809   0.963 -0.0961  0.1523 -0.7413
19663SOL    HW160205   8.050   2.782   0.892 -0.3657  1.4252 -1.0287
19663SOL    HW260206   8.085   2.901   0.980  1.9282  0.7430 -0.9707
19664SOL     OW60207   7.497   2.776   1.055 -0.6111  0.1994 -0.0844
19664SOL    HW160208   7.493   2.688   1.018 -1.2351  1.1293 -2.3894
19664SOL    HW260209   7.583   2.781   1.096 -1.0816 -1.8945  1.3528
19665SOL     OW60210   7.518   2.696   1.711 -0.2166  0.4185  0.8236
19665SOL    HW160211   7.612   2.682   1.725  0.3839  2.4598 -0.7605
19665SOL    HW260212   7.496   2.639   1.637  0.3798  1.6575 -0.3621
19666SOL     OW60213   8.267   2.783   0.085  0.0157 -0.4593 -0.3239
19666SOL    HW160214   8.299   2.841   0.016  0.4760 -0.7777 -0.3816
19666SOL    HW260215   8.239   2.704   0.039 -1.7915  0.1725 -0.3876
19667SOL     OW60216   7.897   3.148   1.843 -0.0112 -0.0092  0.0658
19667SOL    HW160217   7.912   3.091   1.769 -0.3828 -0.2598  0.1789
19667SOL    HW260218   7.874   3.233   1.804 -1.5809 -0.4865 -0.1409
19668SOL     OW60219   7.979   2.439   1.107 -0.3046  0.3972 -0.0148
19668SOL    HW160220   7.888   2.409   1.106 -0.6187  1.2919 -0.0190
19668SOL    HW260221   8.020   2.397   1.032 -0.2415 -1.3628  0.9674
19669SOL     OW60222   7.682   3.352   1.393  0.2408 -0.3187 -0.3442
19669SOL    HW160223   7.621   3.352   1.319  0.5134  0.9544 -0.5965
19669SOL    HW260224   7.625   3.344   1.470 -0.3277  1.2726 -0.5514
19670SOL     OW60225   7.934   2.470   0.342  0.2336  0.3188 -0.2821
19670SOL    HW160226   7.884   2.421   0.407  2.5587 -0.9623  0.6526
19670SOL    HW260227   7.868   2.520   0.294 -2.1790 -2.6975 -0.4202
19671SOL     OW60228   7.787   2.722   2.035 -0.4661  0.4712  1.0907
19671SOL    HW160229   7.821   2.707   1.946 -2.8708  1.6883 -0.1295
19671SOL    HW260230   7.698   2.687   2.032 -0.5644  0.4594  3.0977
19672SOL     OW60231   8.563   2.692   1.370  0.1970 -0.0760 -0.1801
19672SOL    HW160232   8.541   2.599   1.366  1.0858 -0.3774  1.1699
19672SOL    HW260233   8.558   2.722   1.279  0.3417 -1.5484 -0.6981
19673SOL     OW60234   8.847   3.103   0.146  0.5177 -0.0905 -0.4634
19673SOL    HW160235   8.754   3.080   0.150  0.3491  0.3394 -1.5233
19673SOL    HW260236   8.885   3.064   0.224 -0.3240 -1.3423 -0.6492
19674SOL     OW60237   8.748   4.063   1.351 -0.1924 -0.0722 -0.0948
19674SOL    HW160238   8.819   4.029   1.406 -0.5946  2.7117  2.3678
19674SOL    HW260239   8.792   4.095   1.272  0.7581 -1.7100 -0.2786
19675SOL     OW60240   7.353   3.075   0.746 -0.2517  0.7970  0.0952
19675SOL    HW160241   7.358   3.000   0.806 -0.0460  0.4834 -0.3032
19675SOL    HW260242   7.289   3.049   0.680 -0.3586  1.0736  0.0877
19676SOL     OW60243   7.831   3.387   1.770 -0.1225 -0.2037 -0.3786
19676SOL    HW160244   7.780   3.449   1.822 -1.0445 -0.7852 -0.5708
19676SOL    HW260245   7.873   3.441   1.703 -1.4535  0.1372 -0.9687
19677SOL     OW60246   8.473   1.571   8.678 -0.2822 -0.4424 -0.5502
19677SOL    HW160247   8.509   1.596   8.593 -0.8664  2.9355  0.0607
19677SOL    HW260248   8.549   1.565   8.736 -0.1469  1.5081 -0.4401
19678SOL     OW60249   8.654   3.245   0.330 -0.0503 -0.3963 -0.2439
19678SOL    HW160250   8.640   3.221   0.238 -0.2298  0.8023 -0.5510
19678SOL    HW260251   8.567   3.267   0.363  0.2262  0.9571 -0.3411
19679SOL     OW60252   7.131   3.359   1.710  0.0559 -0.8470 -0.4653
19679SOL    HW160253   7.146   3.372   1.803  1.2245 -1.8362 -0.4713
19679SOL    HW260254   7.220   3.355   1.672 -0.3903 -0.7246 -1.5740
19680SOL     OW60255   8.578   2.807   0.545 -0.6879  0.1510  0.2124
19680SOL    HW160256   8.513   2.861   0.500  0.7495  1.0968 -0.8135
19680SOL    HW260257   8.654   2.865   0.557  0.0183 -0.9404  1.2865
19681SOL     OW60258   8.140   3.460   1.370  0.6351 -0.2435  0.2714
19681SOL    HW160259   8.103   3.375   1.346  0.3032 -0.3435  1.1104
19681SOL    HW260260   8.064   3.517   1.382  0.8586  0.1905 -0.3283
19682SOL     OW60261   8.164   3.191   0.186 -0.2181  0.2636 -0.3557
19682SOL    HW160262   8.137   3.100   0.175 -0.0473  0.0316  0.9017
19682SOL    HW260263   8.109   3.240   0.126 -1.5872 -0.4895  0.2253
19683SOL     OW60264   7.389   2.389   0.023 -0.0957  0.6946 -0.6547
19683SOL    HW160265   7.484   2.402   0.031  0.0845  0.3646 -2.0184
19683SOL    HW260266   7.379   2.298  -0.005 -0.8156  0.7302 -0.5332
19684SOL     OW60267   8.446   3.758   0.131  0.4893  0.2526  0.4086
19684SOL    HW160268   8.373   3.745   0.191  0.6753 -1.1325  0.3513
19684SOL    HW260269   8.473   3.849   0.146 -1.4580  0.9183  0.1711
19685SOL     OW60270   8.093   3.228   1.554 -0.4752  0.3129  0.9297
19685SOL    HW160271   8.147   3.227   1.633  0.7426  2.2865  0.2047
19685SOL    HW260272   8.059   3.318   1.550  0.5738  0.6585 -1.4576
19686SOL     OW60273   8.643   2.771   8.505 -0.5060  0.1554 -0.3246
19686SOL    HW160274   8.649   2.859   8.543  0.3969 -0.2499  0.5188
19686SOL    HW260275   8.576   2.727   8.558  0.5427 -0.3156  0.6488
19687SOL     OW60276   7.832   3.013   2.075  0.0680 -0.5410  0.2191
19687SOL    HW160277   7.856   3.071   2.003  1.5596 -0.7824  0.4938
19687SOL    HW260278   7.864   2.927   2.048 -0.8489 -0.9611  0.4452
19688SOL     OW60279   8.374   2.963   0.489  0.4419  0.2430 -0.3029
19688SOL    HW160280   8.314   2.960   0.415 -0.2771  1.2156  0.2120
19688SOL    HW260281   8.394   3.056   0.500 -0.2746  0.2455  1.3216
19689SOL     OW60282   8.538   2.408   0.752  0.4750 -0.1271  0.8368
19689SOL    HW160283   8.577   2.322   0.760  0.0245 -0.3213  1.0044
19689SOL    HW260284   8.555   2.450   0.836  0.3157 -0.2183  0.9163
19690SOL     OW60285   7.879   3.067   8.466 -0.0071 -0.1734  0.2029
19690SOL    HW160286   7.947   3.055   8.533  1.0196  0.5253 -0.6980
19690SOL    HW260287   7.811   3.004   8.491  0.9331 -0.8563  1.1592
19691SOL     OW60288   7.663   2.853   8.643  0.0290 -0.0774 -0.6244
19691SOL    HW160289   7.682   2.828   8.553  0.1620  0.1034 -0.6479
19691SOL    HW260290   7.597   2.921   8.636 -0.8415 -0.8864 -0.5312
19692SOL     OW60291   7.501   2.684   2.122  0.2572 -0.1041  0.4254
19692SOL    HW160292   7.482   2.771   2.157  0.4004 -0.1713  0.6788
19692SOL    HW260293   7.502   2.627   2.199 -3.1168 -0.9640 -0.0486
19693SOL     OW60294   7.872   1.724   1.442 -0.6171 -0.6429 -0.2271
19693SOL    HW160295   7.880   1.666   1.367  2.6450  1.3542 -1.6765
19693SOL    HW260296   7.794   1.776   1.425  0.5858  0.4435 -2.8678
19694SOL     OW60297   7.635   2.078   0.109 -0.0661 -0.0965  0.2213
19694SOL    HW160298   7.598   2.103   0.193 -0.6984 -0.0888 -0.0569
19694SOL    HW260299   7.589   1.998   0.084 -1.2478  0.9137 -0.9980
19695SOL     OW60300   0.263   2.899   1.722  0.2200 -0.0613  0.0638
19695SOL    HW160301   0.170   2.902   1.697 -0.3959 -0.7073  2.0276
19695SOL    HW260302   0.299   2.981   1.690 -0.7370 -0.3000 -1.7588
19696SOL     OW60303   8.033   2.174   0.538  0.6437  0.3174 -0.5398
19696SOL    HW160304   8.095   2.197   0.468  0.6246  1.3745 -0.2341
19696SOL    HW260305   8.051   2.237   0.607  1.6123 -1.5899  1.0191
19697SOL     OW60306   8.499   2.715   0.214  0.0909 -0.2288  0.1426
19697SOL    HW160307   8.516   2.807   0.235 -0.1045 -0.4491  1.3532
19697SOL    HW260308   8.406   2.712   0.193 -0.1455 -0.3093  1.1407
19698SOL     OW60309   7.919   3.031   1.610  0.6160 -0.2351 -0.5531
19698SOL    HW160310   7.987   3.092   1.580  2.7115 -2.5256 -0.8177
19698SOL    HW260311   7.915   2.964   1.542 -1.1045 -0.8041  0.0487
19699SOL     OW60312   7.816   2.080   1.787 -0.1213 -0.0355 -0.3134
19699SOL    HW160313   7.872   2.116   1.718  0.4751 -1.0726 -0.3824
19699SOL    HW260314   7.855   2.112   1.868  0.5552 -0.7210 -0.3641
19700SOL     OW60315   8.455   3.042   1.845  0.3881 -0.3374 -0.2219
19700SOL    HW160316   8.451   3.020   1.752 -1.0588  0.6274 -0.4291
19700SOL    HW260317   8.423   2.963   1.890 -1.2191 -0.0125 -0.7205
19701SOL     OW60318   7.629   3.829   1.416 -0.0692 -0.0896  0.2518
19701SOL    HW160319   7.565   3.797   1.353 -0.2213 -0.2034  0.4613
19701SOL    HW260320   7.712   3.829   1.369  0.0416 -1.3621  0.4166
19702SOL     OW60321   8.467   2.646   8.703  0.0559  0.4027 -0.1799
19702SOL    HW160322   8.473   2.568   8.647  0.2517 -0.1297  0.5716
19702SOL    HW260323   8.419   2.616   8.780 -0.5766  1.2429 -0.2368
19703SOL     OW60324   7.714   2.610   0.726  0.0464  0.4660 -0.0497
19703SOL    HW160325   7.646   2.584   0.789 -0.0928 -1.2923 -0.8503
19703SOL    HW260326   7.778   2.539   0.730  0.5170  0.7981 -1.1984
19704SOL     OW60327   8.420   3.245   0.527  0.4203 -0.0748 -0.1820
19704SOL    HW160328   8.346   3.303   0.510  0.3123 -0.6645 -2.0295
19704SOL    HW260329   8.475   3.293   0.588  0.2831  1.9444 -1.5509
19705SOL     OW60330   7.910   3.336   1.270 -0.4162  0.7189  0.3338
19705SOL    HW160331   7.826   3.355   1.312 -0.8403 -1.1112  0.3755
19705SOL    HW260332   7.889   3.336   1.176 -0.2724  1.0651  0.2988
19706SOL     OW60333   8.412   2.942   0.766  0.1772 -0.4830 -0.3925
19706SOL    HW160334   8.327   2.934   0.809  1.0670 -0.9342  1.3545
19706SOL    HW260335   8.394   2.926   0.673 -1.0484 -5.0235  0.4065
19707SOL     OW60336   8.721   3.199   8.380 -0.1351 -0.1361  0.5693
19707SOL    HW160337   8.803   3.151   8.388 -0.6948 -1.0409  1.0979
19707SOL    HW260338   8.694   3.186   8.289  0.1084 -0.1633  0.5016
19708SOL     OW60339   7.797   2.970   2.355 -0.9903 -0.1482  0.1821
19708SOL    HW160340   7.760   3.054   2.382 -1.3436 -0.0299 -0.6526
19708SOL    HW260341   7.798   2.974   2.260 -0.5505 -0.8995  0.1512
19709SOL     OW60342   7.648   3.045   0.490 -0.6045  0.2949  0.1942
19709SOL    HW160343   7.608   2.979   0.547  0.7156 -1.6190 -0.9616
19709SOL    HW260344   7.622   3.019   0.402 -0.2271  1.4819 -0.2891
19710SOL     OW60345   8.215   3.520   1.805 -0.5134  0.1210  0.0941
19710SOL    HW160346   8.206   3.425   1.799  0.1977 -0.0041  0.7478
19710SOL    HW260347   8.296   3.533   1.854 -1.2145  1.0482  1.0620
19711SOL     OW60348   7.788   2.034   0.888 -0.0067  0.0752  0.7414
19711SOL    HW160349   7.729   2.077   0.826  0.0682  0.5078  0.9723
19711SOL    HW260350   7.729   1.988   0.948 -0.1101  0.4661  0.9429
19712SOL     OW60351   7.789   2.671   1.513 -0.1745 -0.1286  0.4687
19712SOL    HW160352   7.875   2.712   1.502 -0.5315  0.2372 -1.2522
19712SOL    HW260353   7.727   2.738   1.485 -1.0614 -0.3677  1.7357
19713SOL     OW60354   7.924   3.292   0.735  0.4287  0.2113  0.1314
19713SOL    HW160355   7.938   3.200   0.713  1.9828  0.2751  0.6940
19713SOL    HW260356   7.839   3.314   0.696 -0.3781 -1.6783  0.7197
19714SOL     OW60357   8.767   2.321   1.298 -0.5189  0.4419 -0.1771
19714SOL    HW160358   8.725   2.235   1.288  2.4370 -1.5819  2.7015
19714SOL    HW260359   8.752   2.344   1.390  1.4877  1.3727 -0.0439
19715SOL     OW60360   8.652   2.157   0.759  0.4430 -0.2896  0.0858
19715SOL    HW160361   8.738   2.175   0.799  0.4357  1.0756 -0.4553
19715SOL    HW260362   8.673   2.126   0.671  0.4034  2.8369 -1.1318
19716SOL     OW60363   7.883   3.153   0.415 -0.9429  0.1701 -0.3403
19716SOL    HW160364   7.794   3.121   0.432 -0.5894 -0.8273 -0.3371
19716SOL    HW260365   7.894   3.146   0.320 -0.4715 -0.7856 -0.2223
19717SOL     OW60366   8.244   3.203   1.090  0.6732 -0.1959  0.1626
19717SOL    HW160367   8.315   3.174   1.033 -0.9323 -0.5656 -1.7412
19717SOL    HW260368   8.272   3.289   1.122  2.8204 -1.1665  1.0583
19718SOL     OW60369   7.564   2.469   8.607  0.2703  0.0350 -0.4374
19718SOL    HW160370   7.571   2.380   8.643  2.3202  0.3531  0.0635
19718SOL    HW260371   7.654   2.503   8.609 -0.4090  1.9873 -0.9872
19719SOL     OW60372   8.393   3.373   0.240  0.0179 -0.0989 -0.2392
19719SOL    HW160373   8.315   3.321   0.220  0.1943  0.2260 -1.8428
19719SOL    HW260374   8.359   3.446   0.292 -0.6282 -0.3859 -0.2404
19720SOL     OW60375   7.886   2.382   2.657 -0.3024 -0.2391 -0.4532
19720SOL    HW160376   7.829   2.360   2.730 -0.5840 -0.3604 -0.7072
19720SOL    HW260377   7.974   2.373   2.692 -0.4154 -1.3651 -0.4283
19721SOL     OW60378   7.281   1.810   2.602  0.2761 -0.4008  0.2689
19721SOL    HW160379   7.371   1.841   2.597  0.7890 -1.7903  0.3920
19721SOL    HW260380   7.269   1.785   2.694 -0.0047 -0.8590  0.1130
19722SOL     OW60381   7.587   2.051   2.501 -0.3212  0.1705  0.3155
19722SOL    HW160382   7.531   2.090   2.434  0.5377  0.1397 -0.4259
19722SOL    HW260383   7.675   2.058   2.466 -0.0736 -1.8898  0.4486
19723SOL     OW60384   7.876   3.138   2.942  0.1808  0.0846 -0.5564
19723SOL    HW160385   7.968   3.160   2.962  0.2733 -0.9871  0.3108
19723SOL    HW260386   7.882   3.070   2.876  0.0393 -0.4921  0.0182
19724SOL     OW60387   0.397   3.628   2.770  0.6575  0.5075 -0.3118
19724SOL    HW160388   0.443   3.602   2.690  0.9363  0.8114 -0.2532
19724SOL    HW260389   0.308   3.646   2.741  0.8400  0.9379 -0.6192
19725SOL     OW60390   0.207   2.757   2.035  0.3083  0.2160 -0.2107
19725SOL    HW160391   0.286   2.741   2.087  1.5353  0.7230 -1.8354
19725SOL    HW260392   0.238   2.808   1.960 -1.0295 -2.0281 -2.4271
19726SOL     OW60393   8.191   2.855   3.073 -0.1592  0.0865 -0.2112
19726SOL    HW160394   8.258   2.801   3.114  0.0187 -0.7984 -1.5810
19726SOL    HW260395   8.215   2.856   2.980 -1.8039  0.0860 -0.6698
19727SOL     OW60396   8.298   2.416   3.733  0.8131  0.3369 -0.0510
19727SOL    HW160397   8.300   2.494   3.678  3.3275  1.2784  1.2067
19727SOL    HW260398   8.369   2.361   3.698 -1.3050 -1.7743 -1.3168
19728SOL     OW60399   8.193   2.750   2.326  0.3635 -0.4592 -0.0136
19728SOL    HW160400   8.108   2.744   2.283  0.6094 -0.6322 -0.4759
19728SOL    HW260401   8.173   2.783   2.414 -0.3563 -2.0853  0.4666
19729SOL     OW60402   8.348   3.278   3.733 -0.2203  0.2475  0.3744
19729SOL    HW160403   8.402   3.354   3.709 -1.2171  0.9519  0.2712
19729SOL    HW260404   8.280   3.275   3.665 -0.3633 -0.5583  0.5466
19730SOL     OW60405   7.978   3.308   2.665 -0.3692 -0.0497 -0.3529
19730SOL    HW160406   7.887   3.326   2.640 -0.6032  1.6462  1.5014
19730SOL    HW260407   8.027   3.383   2.633  0.6341 -1.3850 -2.1804
19731SOL     OW60408   8.194   2.603   3.291  0.3267 -0.2348  0.1109
19731SOL    HW160409   8.199   2.680   3.347 -0.2915 -0.6879  0.8106
19731SOL    HW260410   8.277   2.602   3.244  0.3179  0.8899  0.0401
19732SOL     OW60411   7.775   3.944   1.936  0.0710 -0.4996 -0.4083
19732SOL    HW160412   7.779   4.032   1.975 -0.9858 -0.0840 -1.1933
19732SOL    HW260413   7.734   3.890   2.003  1.7786 -0.6971  0.5447
19733SOL     OW60414   8.781   3.074   4.225  0.5573 -0.0759  0.2002
19733SOL    HW160415   8.791   3.046   4.135  3.2136 -1.6261  0.8593
19733SOL    HW260416   8.724   3.009   4.265  1.6985 -1.0858  0.2538
19734SOL     OW60417   7.715   3.351   2.611  0.0799  0.3566  0.2306
19734SOL    HW160418   7.641   3.403   2.581  1.6252  3.5834  1.4814
19734SOL    HW260419   7.713   3.359   2.707  1.5112 -0.2608  0.3459
19735SOL     OW60420   7.710   3.359   2.878 -0.7992  0.5034  0.4175
19735SOL    HW160421   7.767   3.289   2.911 -1.4687  0.5691  1.7800
19735SOL    HW260422   7.653   3.381   2.952 -0.9482  2.1478 -0.1422
19736SOL     OW60423   8.169   3.144   3.023  0.2513 -0.2196  0.2332
19736SOL    HW160424   8.225   3.165   2.948  1.6702  1.8725  1.7522
19736SOL    HW260425   8.205   3.063   3.059  0.8145 -0.1582 -0.1952
19737SOL     OW60426   8.062   3.031   2.300  1.1515  0.2482  0.0977
19737SOL    HW160427   8.128   2.964   2.320  0.6072  0.1525  1.7469
19737SOL    HW260428   7.979   2.990   2.324  0.7114  1.1765  0.2017
19738SOL     OW60429   7.826   2.460   2.401  0.0934  0.4093 -0.4432
19738SOL    HW160430   7.872   2.541   2.377 -1.4960  1.7079  0.6764
19738SOL    HW260431   7.833   2.456   2.496  1.0920 -1.4026 -0.5643
19739SOL     OW60432   7.543   3.271   2.267  0.1484  0.1110  0.3864
19739SOL    HW160433   7.451   3.261   2.293 -0.2733 -1.4824 -1.4430
19739SOL    HW260434   7.549   3.360   2.232 -0.6866  0.2651  0.6111
19740SOL     OW60435   0.469   2.723   2.463 -0.5077 -0.2223 -0.1344
19740SOL    HW160436   0.463   2.674   2.545  0.1328  0.6271  0.4335
19740SOL    HW260437   0.469   2.655   2.395 -0.4337 -0.9653  0.5896
19741SOL     OW60438   7.568   2.751   3.571 -0.2484 -0.1485 -0.1004
19741SOL    HW160439   7.475   2.742   3.553 -0.4085  0.1762  0.5602
19741SOL    HW260440   7.610   2.733   3.487 -0.8563 -1.1675 -0.2099
19742SOL     OW60441   8.150   3.274   2.394  0.4739  0.0452 -0.2773
19742SOL    HW160442   8.112   3.256   2.480  2.3554 -2.0270  0.2370
19742SOL    HW260443   8.114   3.206   2.337 -0.3934  1.1167 -1.0280
19743SOL     OW60444   8.820   3.007   3.679 -0.0243  0.2488 -0.4676
19743SOL    HW160445   8.874   2.974   3.607  0.7650  0.8580 -0.1691
19743SOL    HW260446   8.853   2.963   3.757  0.1670  0.7656 -0.2538
19744SOL     OW60447   8.407   2.050   2.296  0.1251  0.4508 -0.5585
19744SOL    HW160448   8.467   2.045   2.222  0.4985  2.0032 -0.3913
19744SOL    HW260449   8.322   2.026   2.260  0.5056  0.0546 -1.2130
19745SOL     OW60450   7.420   2.662   3.105 -0.3520  0.7862  0.5760
19745SOL    HW160451   7.504   2.706   3.093  0.2236  0.0755  1.7962
19745SOL    HW260452   7.356   2.724   3.073  0.7557  0.2697 -3.1347
19746SOL     OW60453   0.154   3.774   3.187  1.3805  0.4420  0.1147
19746SOL    HW160454   0.080   3.729   3.227 -0.4092  0.8915 -2.4650
19746SOL    HW260455   0.209   3.705   3.151  0.4483  0.1781 -0.8346
19747SOL     OW60456   7.988   2.282   3.558  0.4051  0.4149 -0.2460
19747SOL    HW160457   7.995   2.372   3.589 -1.5182  0.9095 -1.1169
19747SOL    HW260458   8.051   2.233   3.612 -0.6716  1.7084  2.3529
19748SOL     OW60459   8.127   2.266   2.252  0.3289 -0.5080  0.1518
19748SOL    HW160460   8.189   2.292   2.184 -1.5256 -0.5801 -1.6829
19748SOL    HW260461   8.053   2.325   2.241 -0.1291 -0.6569  2.0168
19749SOL     OW60462   0.087   2.636   2.640  0.2479 -0.0248 -0.0510
19749SOL    HW160463  -0.002   2.644   2.605 -0.1365  5.5421  1.2626
19749SOL    HW260464   0.078   2.577   2.715 -1.2762 -2.7825 -2.1976
19750SOL     OW60465   8.354   2.172   3.151  0.3922 -0.0762  0.6041
19750SOL    HW160466   8.377   2.233   3.221  0.6617 -0.2726  0.6874
19750SOL    HW260467   8.433   2.120   3.137  0.7408  0.7775 -0.6899
19751SOL     OW60468   8.815   2.397   3.247 -0.1358  0.3767 -0.2866
19751SOL    HW160469   8.892   2.344   3.266 -0.5607  0.0797  0.6802
19751SOL    HW260470   8.768   2.348   3.181  1.2247  1.2734 -2.0035
19752SOL     OW60471   8.436   2.737   3.175  0.9623 -0.1669  0.3576
19752SOL    HW160472   8.441   2.801   3.245 -0.4666 -1.0829  1.3420
19752SOL    HW260473   8.484   2.661   3.208  1.3527 -0.1617 -0.1817
19753SOL     OW60474   8.565   2.544   2.994 -0.3399  0.1758 -0.4664
19753SOL    HW160475   8.575   2.505   3.081  0.8165  0.4553 -0.4588
19753SOL    HW260476   8.518   2.625   3.010 -1.4698 -0.4889 -0.3021
19754SOL     OW60477   8.121   2.395   1.812  0.0985  0.0020  0.1759
19754SOL    HW160478   8.061   2.406   1.886  0.1437 -0.1116  0.2301
19754SOL    HW260479   8.064   2.387   1.736 -0.2380 -3.9932  0.5912
19755SOL     OW60480   7.612   2.834   2.984  0.1456  0.0717 -0.0133
19755SOL    HW160481   7.628   2.925   3.005 -0.1712  0.3528 -0.9437
19755SOL    HW260482   7.698   2.796   2.969  0.3315  0.0190  1.1116
19756SOL     OW60483   6.929   3.956   3.439 -0.2577 -0.4394 -0.2065
19756SOL    HW160484   6.943   3.955   3.344  1.3464  1.5672 -0.0515
19756SOL    HW260485   6.903   4.046   3.458 -0.3829 -0.7766  1.2923
19757SOL     OW60486   8.086   2.127   1.919 -0.1867  0.2849 -0.4729
19757SOL    HW160487   8.130   2.044   1.900  1.4194  0.9150  0.2919
19757SOL    HW260488   8.129   2.191   1.862 -1.1208  0.6814 -0.7549
19758SOL     OW60489   8.696   2.757   2.263  0.0976 -0.2707  0.4939
19758SOL    HW160490   8.685   2.763   2.168  0.9415 -1.5210  0.2890
19758SOL    HW260491   8.644   2.829   2.298 -0.7915 -0.2121 -0.8756
19759SOL     OW60492   7.862   1.774   2.860  0.0381 -0.1915 -0.6059
19759SOL    HW160493   7.947   1.749   2.896 -1.0734 -2.0211  0.9523
19759SOL    HW260494   7.832   1.845   2.917  0.0214 -0.3371 -0.4328
19760SOL     OW60495   8.831   3.590   2.440  0.5059 -0.4126  0.5279
19760SOL    HW160496   8.818   3.520   2.376  1.3545 -0.7964  0.7652
19760SOL    HW260497   8.829   3.670   2.387  0.9139 -0.7049  0.0608
19761SOL     OW60498   7.607   3.876   2.285  0.0931  0.2169  0.1826
19761SOL    HW160499   7.668   3.945   2.260  1.1337 -0.7208  0.0572
19761SOL    HW260500   7.589   3.891   2.377  1.3441 -0.0804  0.4979
19762SOL     OW60501   8.667   3.318   3.402  0.1021  0.4744 -0.0085
19762SOL    HW160502   8.579   3.296   3.433  0.4427 -0.3350  0.4204
19762SOL    HW260503   8.672   3.279   3.315  0.0352  0.5014 -0.0243
19763SOL     OW60504   7.917   2.738   2.286  0.0961  0.2067 -0.2903
19763SOL    HW160505   7.879   2.710   2.203  0.7053 -0.8543 -0.2431
19763SOL    HW260506   7.859   2.806   2.318  0.2169  1.1131 -1.9097
19764SOL     OW60507   7.969   3.542   3.150  0.1893  0.5287 -0.0739
19764SOL    HW160508   7.948   3.587   3.232 -0.5646  0.1697 -0.0682
19764SOL    HW260509   7.956   3.609   3.083  0.5912  0.7601  0.0742
19765SOL     OW60510   8.566   3.849   2.467 -0.1203  0.1979 -0.1598
19765SOL    HW160511   8.533   3.896   2.390 -0.2621  1.0931  0.4344
19765SOL    HW260512   8.656   3.828   2.445 -0.4698 -0.4918 -0.9908
19766SOL     OW60513   7.789   2.057   3.527 -0.3531 -0.1388 -0.1105
19766SOL    HW160514   7.826   1.986   3.579 -1.4658 -1.3797 -0.9738
19766SOL    HW260515   7.860   2.121   3.520  0.5773 -1.0271  0.9024
19767SOL     OW60516   8.011   3.665   1.893 -0.0973  0.0889 -0.4689
19767SOL    HW160517   7.951   3.691   1.823 -0.3559  1.8314  0.3556
19767SOL    HW260518   8.074   3.607   1.850 -1.8621 -1.1509 -1.5390
19768SOL     OW60519   8.244   3.757   2.863  0.6136  0.2887 -0.2159
19768SOL    HW160520   8.163   3.808   2.872  0.9882  0.6003  1.8639
19768SOL    HW260521   8.298   3.809   2.804 -0.4081  0.4367 -1.0501
19769SOL     OW60522   8.569   3.681   2.939  0.2396  0.4437  0.2414
19769SOL    HW160523   8.612   3.599   2.915  0.7226  0.4685  0.9850
19769SOL    HW260524   8.519   3.659   3.018 -0.7195  0.5415 -0.3215
19770SOL     OW60525   8.178   2.550   2.702 -0.8219 -0.0612 -0.0011
19770SOL    HW160526   8.152   2.633   2.664  0.6146  0.6558  0.4995
19770SOL    HW260527   8.173   2.564   2.797 -0.6381 -0.5707  0.0902
19771SOL     OW60528   8.226   1.909   2.125 -0.7410  0.6223 -0.0446
19771SOL    HW160529   8.149   1.869   2.166 -0.0432 -1.7854 -0.8862
19771SOL    HW260530   8.201   1.918   2.033 -1.1120  2.8772  0.2198
19772SOL     OW60531   8.430   2.246   3.401  0.3953 -0.1251  0.2174
19772SOL    HW160532   8.437   2.153   3.420 -0.2829 -0.0560  0.8652
19772SOL    HW260533   8.446   2.289   3.486 -0.4839  0.2874  0.1829
19773SOL     OW60534   8.361   3.621   3.101  0.4168  0.5492 -0.7053
19773SOL    HW160535   8.299   3.667   3.044  0.6791 -1.1186 -2.4814
19773SOL    HW260536   8.342   3.528   3.084  2.1514  0.0174  0.1355
19774SOL     OW60537   8.727   2.827   2.975 -0.0381 -0.1956  0.4853
19774SOL    HW160538   8.763   2.763   3.035  1.3010 -0.4137 -0.5034
19774SOL    HW260539   8.670   2.882   3.029  1.2318 -0.2862  1.9782
19775SOL     OW60540   8.475   3.017   2.616 -0.8222  0.1535  0.1884
19775SOL    HW160541   8.490   3.023   2.522  0.7910  1.0682  0.4729
19775SOL    HW260542   8.555   2.977   2.651 -0.3405  2.0514  1.4184
19776SOL     OW60543   8.576   2.446   1.924  0.9825  0.7619 -0.4478
19776SOL    HW160544   8.585   2.352   1.914  0.4743  0.9382 -3.2820
19776SOL    HW260545   8.657   2.482   1.888  0.7492  1.4349 -0.3199
19777SOL     OW60546   7.880   2.123   2.531 -0.5199  0.3793  0.6256
19777SOL    HW160547   7.855   2.211   2.557  0.4854  0.7801  0.2968
19777SOL    HW260548   7.932   2.090   2.605 -1.7042 -0.3198  1.1698
19778SOL     OW60549   8.843   2.959   1.715  0.0894 -0.4197  0.3760
19778SOL    HW160550   8.774   2.894   1.719 -1.1146  0.8625  1.5154
19778SOL    HW260551   8.875   2.966   1.806  1.3794 -0.6165 -0.0354
19779SOL     OW60552   7.625   2.030   2.115  0.7454  0.3968  0.2602
19779SOL    HW160553   7.632   1.960   2.050  0.4320  0.9713 -0.3985
19779SOL    HW260554   7.712   2.070   2.116 -0.1331  2.7082 -2.4790
19780SOL     OW60555   8.472   2.248   2.486 -0.1545  0.1229 -0.0843
19780SOL    HW160556   8.530   2.182   2.524  1.4142  0.9446 -0.9564
19780SOL    HW260557   8.431   2.205   2.411  0.3837 -0.0552 -0.2761
19781SOL     OW60558   8.510   2.901   3.359 -0.0695  0.2436  0.3106
19781SOL    HW160559   8.511   2.899   3.455 -1.5771  2.3931  0.4349
19781SOL    HW260560   8.597   2.931   3.335  0.4517 -0.6837  0.9665
19782SOL     OW60561   0.483   3.516   3.334  0.6533 -0.5993  0.2438
19782SOL    HW160562   0.479   3.476   3.247  1.3530 -2.8444  1.1753
19782SOL    HW260563   0.395   3.503   3.370  0.2830  0.5706 -0.1860
19783SOL     OW60564   8.061   2.799   2.560 -0.6927 -0.3317 -0.0603
19783SOL    HW160565   8.065   2.862   2.633  0.2516  1.8256 -1.8490
19783SOL    HW260566   7.970   2.770   2.558 -0.9580  0.3178  1.3660
19784SOL     OW60567   0.227   3.831   2.461  0.5366 -0.7065 -0.3092
19784SOL    HW160568   0.158   3.791   2.513  0.1006 -0.9805 -1.0843
19784SOL    HW260569   0.281   3.757   2.431  0.6350 -0.5761 -0.4574
19785SOL     OW60570   0.007   2.624   1.571  0.2273 -0.5698 -0.1326
19785SOL    HW160571  -0.002   2.680   1.494  0.7096 -1.1384 -0.6126
19785SOL    HW260572  -0.020   2.680   1.644  0.1213  0.0947 -0.6647
19786SOL     OW60573   7.646   2.695   3.316  0.0426 -0.4859  0.1974
19786SOL    HW160574   7.739   2.675   3.304  0.1607 -0.6699  1.3014
19786SOL    HW260575   7.635   2.782   3.278  1.4665  1.0849  3.0327
19787SOL     OW60576   7.886   1.974   3.092 -0.2982  0.3567 -0.2098
19787SOL    HW160577   7.807   1.966   3.146 -0.5254  2.3787 -0.1792
19787SOL    HW260578   7.955   2.000   3.153  0.2320 -0.5906 -0.3797
19788SOL     OW60579   8.199   1.834   2.501  0.2774  0.0846  0.0576
19788SOL    HW160580   8.109   1.850   2.528  0.2570  0.0946 -0.0174
19788SOL    HW260581   8.248   1.830   2.584 -0.1315 -2.1142  0.2489
19789SOL     OW60582   7.778   3.237   2.381  0.3072  1.0601 -0.1874
19789SOL    HW160583   7.686   3.236   2.353 -0.3262 -0.9375  1.6331
19789SOL    HW260584   7.779   3.294   2.458  0.8215  1.8627 -0.7770
19790SOL     OW60585   8.827   2.587   1.885  0.0089  0.4650 -0.1780
19790SOL    HW160586   8.844   2.664   1.939 -1.8055 -0.0513  1.2452
19790SOL    HW260587   8.887   2.520   1.919  1.3274  1.0797 -1.1777
19791SOL     OW60588   7.879   2.136   2.077 -0.2048  0.1676  0.2532
19791SOL    HW160589   7.958   2.133   2.023  0.9572  1.0837  1.8042
19791SOL    HW260590   7.848   2.226   2.069  0.0006  0.3247  1.1130
19792SOL     OW60591   8.777   3.170   3.168  0.1280  0.3162  0.0277
19792SOL    HW160592   8.791   3.087   3.214  1.3597  1.3452  1.6136
19792SOL    HW260593   8.742   3.144   3.082  0.4239 -1.8242  0.4965
19793SOL     OW60594   0.189   3.265   3.208  0.2148 -0.1331  0.1891
19793SOL    HW160595   0.097   3.269   3.182  0.2832  1.3866  0.1023
19793SOL    HW260596   0.234   3.227   3.133 -0.3626 -1.1073  0.3248
19794SOL     OW60597   0.012   1.706   3.044  0.4431 -0.4750 -0.3609
19794SOL    HW160598   0.038   1.771   2.979  1.1277 -1.4176 -1.0478
19794SOL    HW260599   0.069   1.722   3.119  0.7606 -0.4186 -0.6124
19795SOL     OW60600   8.013   3.073   3.686 -0.2245  0.0639  0.5266
19795SOL    HW160601   7.944   3.008   3.671  1.4960 -1.3372 -2.1171
19795SOL    HW260602   8.044   3.055   3.775 -0.0794 -2.5717  0.0241
19796SOL     OW60603   8.388   2.338   2.187 -0.1062 -0.1531  0.2898
19796SOL    HW160604   8.389   2.401   2.115  0.4034 -0.8811 -0.3510
19796SOL    HW260605   8.467   2.285   2.174  0.5351  0.3125  1.9338
19797SOL     OW60606   8.157   2.596   2.956  0.2023  0.4689 -0.4220
19797SOL    HW160607   8.158   2.518   3.012  0.4292  1.0914  0.4773
19797SOL    HW260608   8.094   2.655   2.999  1.4468  1.5303  0.0227
19798SOL     OW60609   0.010   2.090   2.761 -0.1481  0.1498  0.2026
19798SOL    HW160610   0.047   2.177   2.741  1.5674 -0.4485  0.6322
19798SOL    HW260611   0.054   2.031   2.700  0.0388 -0.6841  1.1292
19799SOL     OW60612   7.997   3.677   2.708  0.4486  0.1913 -0.2831
19799SOL    HW160613   8.063   3.648   2.645  0.0488 -0.4343 -0.4233
19799SOL    HW260614   7.944   3.741   2.661  1.5275  1.4137  0.1229
19800SOL     OW60615   7.784   2.752   2.558 -0.0534  0.0872  0.5768
19800SOL    HW160616   7.699   2.709   2.564  0.5858 -1.2317  0.4767
19800SOL    HW260617   7.770   2.823   2.495 -1.2661  0.3925  1.1490
19801SOL     OW60618   8.468   2.407   2.741  0.4492  0.2029  0.2777
19801SOL    HW160619   8.483   2.318   2.773 -1.1498  0.6987  2.7417
19801SOL    HW260620   8.489   2.463   2.816 -0.6830  1.7190 -0.4870
19802SOL     OW60621   0.001   3.499   2.054  0.2809  0.3989 -0.5255
19802SOL    HW160622   0.031   3.559   2.122 -2.6975  1.4123  0.0576
19802SOL    HW260623  -0.063   3.443   2.098 -1.8901  1.2087 -2.4213
19803SOL     OW60624   0.245   3.541   3.061  0.1654  0.2299 -0.2617
19803SOL    HW160625   0.188   3.515   2.988  0.6660  1.3323 -1.0709
19803SOL    HW260626   0.332   3.513   3.034  0.0734 -1.3653  0.9324
19804SOL     OW60627   8.039   3.030   2.696  0.5760  0.7364  0.3479
19804SOL    HW160628   7.997   3.115   2.684  0.0665  0.2983 -1.1269
19804SOL    HW260629   8.132   3.050   2.708  0.9491  1.3951 -2.9479
19805SOL     OW60630   7.927   2.634   3.316  0.6421  0.8898  0.1773
19805SOL    HW160631   7.943   2.716   3.363 -0.5715  0.2186  1.8639
19805SOL    HW260632   8.014   2.606   3.288  1.4607  1.2904  2.1502
19806SOL     OW60633   8.482   1.977   3.442 -0.2174 -0.4467  0.3238
19806SOL    HW160634   8.422   1.925   3.390 -0.8752 -0.2653  0.8905
19806SOL    HW260635   8.532   1.913   3.493  0.9007 -0.6693 -0.9862
19807SOL     OW60636   8.046   2.051   3.309 -0.4781  0.0580 -0.0963
19807SOL    HW160637   8.043   2.144   3.289 -0.8128  0.0014 -0.3036
19807SOL    HW260638   8.086   2.047   3.396 -0.2695  0.3798 -0.1759
19808SOL     OW60639   8.508   3.035   3.017  0.0960  0.5842 -0.3133
19808SOL    HW160640   8.476   2.988   3.093 -2.4043 -0.3241 -1.8217
19808SOL    HW260641   8.477   2.984   2.942 -0.3532  3.1391 -1.9881
19809SOL     OW60642   8.679   2.679   2.526 -0.5037 -0.0781  0.7615
19809SOL    HW160643   8.584   2.676   2.527 -0.5817  1.1017 -0.2945
19809SOL    HW260644   8.702   2.693   2.434  0.7473 -1.4549  0.8359
19810SOL     OW60645   8.580   2.190   1.968 -0.0605 -0.0987 -0.2073
19810SOL    HW160646   8.595   2.108   2.015 -3.1258 -0.5035  0.2661
19810SOL    HW260647   8.551   2.163   1.881  1.2838  0.5905 -0.9090
19811SOL     OW60648   7.484   1.967   2.915  0.2136  0.3632  0.0169
19811SOL    HW160649   7.438   1.883   2.924  0.6701  0.1401  0.3005
19811SOL    HW260650   7.414   2.033   2.914 -0.0877  0.0628  0.8243
19812SOL     OW60651   7.435   3.403   3.276 -0.4683  0.1405  0.2944
19812SOL    HW160652   7.524   3.380   3.250 -0.4627  0.6626 -0.1532
19812SOL    HW260653   7.439   3.411   3.371 -0.5557 -2.1051  0.5592
19813SOL     OW60654   8.251   3.074   3.419 -0.0252 -0.6003 -0.2563
19813SOL    HW160655   8.337   3.080   3.377 -0.1668  0.2458 -0.4475
19813SOL    HW260656   8.233   3.163   3.451 -1.2644 -0.5143 -1.1149
19814SOL     OW60657   7.136   1.638   2.072 -0.3242  0.2713 -0.2144
19814SOL    HW160658   7.177   1.669   2.153 -0.2005  0.9111 -0.5199
19814SOL    HW260659   7.098   1.716   2.032  0.5821  0.1569 -1.3374
19815SOL     OW60660   0.833   2.374   2.355 -0.2153  0.0208  0.0492
19815SOL    HW160661   0.855   2.433   2.283  0.4478 -0.8480 -0.4694
19815SOL    HW260662   0.775   2.308   2.317  1.3547 -1.3393 -0.0982
19816SOL     OW60663   0.012   2.480   2.855  0.5084  0.4658 -0.2856
19816SOL    HW160664   0.079   2.428   2.899  0.9336  0.4639 -0.9305
19816SOL    HW260665  -0.066   2.470   2.910  1.0115  0.4089  0.4284
19817SOL     OW60666   7.874   2.744   3.932 -0.9652 -0.2146 -0.2676
19817SOL    HW160667   7.855   2.651   3.941  2.6776 -1.1038 -0.0566
19817SOL    HW260668   7.807   2.777   3.873 -2.0997 -3.0699 -0.7243
19818SOL     OW60669   7.222   2.345   4.283  0.0191  0.2382  0.0241
19818SOL    HW160670   7.234   2.256   4.316  0.1882  1.1032  2.5213
19818SOL    HW260671   7.127   2.354   4.273  0.0785 -0.6478 -1.6829
19819SOL     OW60672   0.009   2.937   1.991  0.2032 -0.2390 -0.3354
19819SOL    HW160673   0.076   2.883   2.033  0.9310 -1.2706 -2.6855
19819SOL    HW260674  -0.074   2.898   2.019  0.5589  0.2392  1.5383
19820SOL     OW60675   8.715   3.196   2.888 -0.2777 -0.1127  0.0564
19820SOL    HW160676   8.708   3.222   2.795 -1.1350  2.5961  0.7730
19820SOL    HW260677   8.629   3.158   2.908  0.8589 -3.5121 -0.9015
19821SOL     OW60678   7.677   3.063   3.145 -0.4402 -0.5148  0.2074
19821SOL    HW160679   7.699   3.075   3.238  0.9806 -0.2647 -0.1290
19821SOL    HW260680   7.753   3.098   3.098 -1.7934  0.7996 -1.1065
19822SOL     OW60681   7.682   2.086   2.766  0.4212 -0.7052  0.3133
19822SOL    HW160682   7.623   2.029   2.815 -0.3077  0.6006  0.9952
19822SOL    HW260683   7.642   2.094   2.679 -0.1683 -0.1908  0.6308
19823SOL     OW60684   8.669   2.265   3.087 -0.2456 -0.2925  0.0015
19823SOL    HW160685   8.619   2.256   3.006  0.7688 -2.0631 -0.4906
19823SOL    HW260686   8.732   2.193   3.084  0.8591  0.5454  1.6361
19824SOL     OW60687   8.838   2.079   3.035  0.4146 -0.3384  0.2011
19824SOL    HW160688   8.870   2.026   3.108  1.5151 -0.7251 -0.5414
19824SOL    HW260689   8.878   2.040   2.958 -0.4176  0.3135 -0.5753
19825SOL     OW60690   7.274   3.232   2.409 -0.3443  0.3468  0.0322
19825SOL    HW160691   7.210   3.304   2.418  0.2859  0.7698  1.2587
19825SOL    HW260692   7.285   3.198   2.497 -0.2524 -0.9547 -0.4618
19826SOL     OW60693   7.832   3.586   2.302  0.1826  0.3970  0.1156
19826SOL    HW160694   7.785   3.623   2.376  0.9726  0.7962  0.4245
19826SOL    HW260695   7.790   3.625   2.225 -1.0994 -0.5481  0.2992
19827SOL     OW60696   8.051   3.543   2.469  0.4458  0.0099 -0.3054
19827SOL    HW160697   8.109   3.496   2.409 -2.2458 -3.1299 -0.7008
19827SOL    HW260698   7.988   3.587   2.412  0.5369  0.7867  0.1793
19828SOL     OW60699   0.126   2.944   2.924  0.1891 -0.3544 -0.1186
19828SOL    HW160700   0.169   2.878   2.869  3.0136  1.1712  0.0419
19828SOL    HW260701   0.038   2.910   2.939  0.8642 -3.0747 -1.6806
19829SOL     OW60702   7.358   2.589   2.809 -0.2441  0.4734 -0.3483
19829SOL    HW160703   7.338   2.617   2.898  0.6102  0.0935 -0.0212
19829SOL    HW260704   7.304   2.645   2.753  0.1545  1.5810  0.3499
19830SOL     OW60705   7.681   3.033   3.443  0.3837 -0.0954 -0.4911
19830SOL    HW160706   7.669   3.118   3.486 -1.2260 -0.7098  0.3471
19830SOL    HW260707   7.618   2.975   3.486 -0.7601 -0.9660 -3.1368
19831SOL     OW60708   8.191   2.138   2.493  0.1805 -0.3359 -0.1776
19831SOL    HW160709   8.199   2.044   2.475 -0.4036 -0.4573  0.1542
19831SOL    HW260710   8.177   2.177   2.407  1.1004 -0.4699 -0.3958
19832SOL     OW60711   7.941   3.843   3.646  0.0069  0.4154 -0.2608
19832SOL    HW160712   7.950   3.927   3.690  0.3823  0.3765 -0.2634
19832SOL    HW260713   7.925   3.780   3.716  1.1987  0.2586 -0.1174
19833SOL     OW60714   8.152   2.370   3.084  0.1435 -0.0264  0.0545
19833SOL    HW160715   8.081   2.354   3.146  0.5827 -0.8495  0.3693
19833SOL    HW260716   8.221   2.310   3.112  0.8965  0.6297 -0.3527
19834SOL     OW60717   8.040   3.961   2.878 -0.2261 -0.0789  0.1870
19834SOL    HW160718   7.954   3.968   2.836  0.3848  0.1497 -1.0875
19834SOL    HW260719   8.049   4.043   2.927 -0.7872 -0.1653  0.4423
19835SOL     OW60720   7.847   2.383   1.774 -0.1682 -0.2693  0.6955
19835SOL    HW160721   7.778   2.395   1.838 -1.2365 -0.4070 -0.3840
19835SOL    HW260722   7.801   2.379   1.690  1.2507  0.6948 -0.1618
19836SOL     OW60723   7.828   3.295   3.374  0.2152  0.6578  0.1693
19836SOL    HW160724   7.907   3.245   3.351 -1.1787 -1.9507  0.6663
19836SOL    HW260725   7.849   3.336   3.458  0.4595 -1.6256  1.3115
19837SOL     OW60726   8.718   2.905   2.699  0.4162  0.1473  0.2442
19837SOL    HW160727   8.724   2.822   2.653 -1.9698  0.8593 -1.5927
19837SOL    HW260728   8.710   2.882   2.791  1.3984 -1.5414 -0.0641
19838SOL     OW60729   8.540   2.992   2.317  0.3504  0.6639 -0.2565
19838SOL    HW160730   8.474   3.051   2.281  0.0987 -0.1238 -1.1153
19838SOL    HW260731   8.622   3.041   2.310  0.1815  0.8394 -1.1835
19839SOL     OW60732   0.123   3.865   2.907  0.0559 -0.3120  0.1269
19839SOL    HW160733   0.126   3.797   2.840 -0.7804 -1.1300  0.8881
19839SOL    HW260734   0.189   3.839   2.971  0.3336  0.0649 -0.0011
19840SOL     OW60735   7.426   3.348   2.988  0.3915  0.3041 -0.2446
19840SOL    HW160736   7.367   3.274   3.001  0.1985  0.2262 -1.5010
19840SOL    HW260737   7.445   3.379   3.077 -1.1032 -0.0024  0.2092
19841SOL     OW60738   7.916   3.909   3.172  0.6567  0.3054 -0.1248
19841SOL    HW160739   7.855   3.923   3.099 -0.8968 -2.8250  0.4151
19841SOL    HW260740   7.879   3.962   3.243 -0.0981  0.2715 -0.4767
19842SOL     OW60741   0.483   3.643   2.428  0.4072  0.3439  0.3827
19842SOL    HW160742   0.456   3.551   2.426  2.3699 -0.2791 -0.9676
19842SOL    HW260743   0.487   3.668   2.336  1.1020  1.3948  0.6841
19843SOL     OW60744   7.676   3.426   3.840  0.1614  0.0909  0.1959
19843SOL    HW160745   7.603   3.488   3.850 -0.4027 -0.6043  0.4533
19843SOL    HW260746   7.660   3.359   3.906  0.7407 -0.3667 -0.1185
19844SOL     OW60747   0.050   3.417   2.888 -0.4535  0.1790 -0.2957
19844SOL    HW160748   0.002   3.351   2.938  0.7080  0.3313  1.0936
19844SOL    HW260749   0.115   3.366   2.839 -0.3941  0.1832 -0.2213
19845SOL     OW60750   8.377   3.325   3.385 -0.6659  0.0838  0.2696
19845SOL    HW160751   8.386   3.398   3.446 -1.7643 -0.8086  1.5720
19845SOL    HW260752   8.317   3.357   3.318  0.1361  0.8990 -0.0826
19846SOL     OW60753   8.050   4.228   1.940 -0.5184  0.8197  0.2397
19846SOL    HW160754   8.087   4.214   2.027 -0.0173  0.8422  0.0357
19846SOL    HW260755   8.118   4.276   1.893 -0.0691 -0.6199 -0.6673
19847SOL     OW60756   7.348   1.789   2.271  0.0838  0.4030 -0.2898
19847SOL    HW160757   7.341   1.765   2.363 -1.0963 -0.0980 -0.4837
19847SOL    HW260758   7.399   1.719   2.230  1.0987  0.9144  0.0666
19848SOL     OW60759   8.803   3.830   2.315  0.5362  0.2726  0.5885
19848SOL    HW160760   8.787   3.912   2.269  2.3672  1.4121  1.8631
19848SOL    HW260761   8.885   3.798   2.279 -0.2344 -1.1434 -0.0108
19849SOL     OW60762   8.577   2.880   3.610 -0.4147 -0.4742  0.1602
19849SOL    HW160763   8.666   2.916   3.607 -1.5647  2.6681  0.4294
19849SOL    HW260764   8.543   2.909   3.695 -2.3742  0.2695 -0.8299
19850SOL     OW60765   8.324   2.547   1.935 -0.5531 -0.4712 -0.3493
19850SOL    HW160766   8.279   2.509   1.860 -0.2963 -1.1334 -0.1744
19850SOL    HW260767   8.416   2.521   1.923 -0.1269  1.1875 -0.9139
19851SOL     OW60768   8.210   3.384   3.156 -0.4071  0.3322  0.3605
19851SOL    HW160769   8.134   3.440   3.140  0.2618  1.1486 -0.1052
19851SOL    HW260770   8.189   3.302   3.112 -1.4254  0.1990  1.0820
19852SOL     OW60771   8.613   2.810   2.020  0.7956 -0.5811 -0.1615
19852SOL    HW160772   8.622   2.775   1.932 -0.7532 -0.0048 -0.5951
19852SOL    HW260773   8.521   2.835   2.026  0.9652 -0.2284  1.4842
19853SOL     OW60774   8.547   2.179   2.808  0.0799  0.2348 -0.5895
19853SOL    HW160775   8.493   2.122   2.862 -1.5177  0.5181 -1.8031
19853SOL    HW260776   8.633   2.137   2.806  0.1409  0.0799  1.8941
19854SOL     OW60777   7.950   3.288   2.175  0.8904  0.2314 -0.2858
19854SOL    HW160778   7.913   3.312   2.260  0.5797  1.3963 -0.7426
19854SOL    HW260779   7.925   3.196   2.164  0.6147  0.1690  0.7067
19855SOL     OW60780   7.486   3.550   2.504  0.0569 -0.6695  0.1179
19855SOL    HW160781   7.428   3.565   2.429  0.4760  2.1372  0.2509
19855SOL    HW260782   7.433   3.499   2.565 -2.1640  1.3028 -0.0064
19856SOL     OW60783   7.768   2.492   3.952 -0.1640 -0.3827 -0.0717
19856SOL    HW160784   7.711   2.494   3.876 -0.9643 -0.9986  0.4878
19856SOL    HW260785   7.756   2.404   3.989 -0.0413  0.0124  0.9405
19857SOL     OW60786   8.540   1.990   3.081 -0.3943 -0.0780  0.6083
19857SOL    HW160787   8.561   1.935   3.005 -0.9896  1.5331 -0.7837
19857SOL    HW260788   8.604   1.965   3.147  1.9958  0.4193 -1.3814
19858SOL     OW60789   7.627   2.431   1.945 -0.2927 -0.3388  0.0651
19858SOL    HW160790   7.544   2.457   1.906 -0.5727  0.1329  0.9363
19858SOL    HW260791   7.617   2.450   2.038  1.2454  0.9567  0.0175
19859SOL     OW60792   8.791   2.599   3.724  0.0448  0.3679  0.0494
19859SOL    HW160793   8.886   2.599   3.712  0.1053 -0.1641  0.4785
19859SOL    HW260794   8.757   2.570   3.640  0.2109  1.5118 -0.4212
19860SOL     OW60795   7.259   2.169   1.821 -0.3083  0.0050 -0.4758
19860SOL    HW160796   7.245   2.237   1.755  0.7990 -1.3275 -2.1581
19860SOL    HW260797   7.354   2.168   1.835 -0.3502 -0.9141 -0.1660
19861SOL     OW60798   8.688   3.420   2.241  0.1918 -0.0952  0.3854
19861SOL    HW160799   8.635   3.350   2.280 -1.3692  0.0155 -1.3910
19861SOL    HW260800   8.627   3.494   2.235  0.9891  0.5063 -0.3704
19862SOL     OW60801   7.923   2.914   3.415 -0.1859 -0.1448  0.4257
19862SOL    HW160802   7.834   2.948   3.425 -0.1525  0.3635 -0.7678
19862SOL    HW260803   7.964   2.974   3.352  1.3948  0.3482  1.8637
19863SOL     OW60804   8.513   2.519   3.305  0.4353  0.3562 -0.0789
19863SOL    HW160805   8.495   2.428   3.330  0.1238  0.5432  0.4011
19863SOL    HW260806   8.519   2.566   3.389 -0.4301  0.9699 -0.3446
19864SOL     OW60807   0.015   2.531   3.471 -0.2392 -0.3412 -0.0639
19864SOL    HW160808   0.082   2.597   3.452 -0.5198  0.5670  1.8104
19864SOL    HW260809  -0.012   2.499   3.386  2.6409 -0.8348 -0.8953
19865SOL     OW60810   7.918   3.721   2.954  0.4478 -0.2998 -0.1175
19865SOL    HW160811   7.953   3.684   2.873  0.6633 -0.5117  0.0685
19865SOL    HW260812   7.959   3.807   2.961 -1.8450  1.0684 -1.7851
19866SOL     OW60813   8.814   2.469   2.245  0.3108  0.0412  0.5860
19866SOL    HW160814   8.905   2.485   2.270  0.9615  1.1528 -2.0976
19866SOL    HW260815   8.777   2.557   2.232 -0.1218 -0.4004 -1.4762
19867SOL     OW60816   8.293   2.499   2.391 -0.0949  0.3670 -0.0479
19867SOL    HW160817   8.248   2.579   2.365  2.1045  2.4061  1.8607
19867SOL    HW260818   8.330   2.464   2.310 -1.6886  0.8276 -1.0144
19868SOL     OW60819   8.429   3.534   2.199  0.2147 -0.6398 -0.0426
19868SOL    HW160820   8.352   3.520   2.144  0.2503  1.1882 -0.6193
19868SOL    HW260821   8.395   3.570   2.280  0.3976 -0.4607 -0.0425
19869SOL     OW60822   8.395   3.349   2.507 -0.3756 -0.0856 -0.0717
19869SOL    HW160823   8.349   3.293   2.445 -0.1166  1.5125 -1.8022
19869SOL    HW260824   8.338   3.426   2.516  1.1364  1.1989 -0.9778
19870SOL     OW60825   8.352   2.881   2.833  0.7472 -0.3251 -0.6791
19870SOL    HW160826   8.363   2.946   2.763 -0.2209 -0.3480 -0.8623
19870SOL    HW260827   8.362   2.797   2.790 -1.6799 -0.4204 -1.2084
19871SOL     OW60828   8.218   3.217   1.781 -0.2644 -0.1593  0.0688
19871SOL    HW160829   8.156   3.206   1.853 -1.1020  0.0154 -0.6083
19871SOL    HW260830   8.296   3.171   1.810 -0.9012 -0.8728  0.7126
19872SOL     OW60831   7.582   3.187   3.657  0.1929  0.5648  0.1234
19872SOL    HW160832   7.524   3.251   3.616 -0.8164 -0.3053  0.1673
19872SOL    HW260833   7.649   3.240   3.701 -0.9647  1.6102  0.6776
19873SOL     OW60834   7.363   3.097   2.632  0.2185 -0.3201  0.1073
19873SOL    HW160835   7.393   3.183   2.661  0.9374 -0.5726  0.1220
19873SOL    HW260836   7.416   3.035   2.680  0.0734 -0.7713 -0.3005
19874SOL     OW60837   8.034   3.150   3.272 -0.5468 -0.3441 -0.4044
19874SOL    HW160838   8.117   3.124   3.313 -0.9444 -3.1118 -1.1394
19874SOL    HW260839   8.050   3.139   3.178 -2.3202 -3.2420 -0.4919
19875SOL     OW60840   8.152   2.283   2.787 -0.3950 -0.0502  0.2316
19875SOL    HW160841   8.097   2.207   2.808 -0.3222 -0.0036  0.6087
19875SOL    HW260842   8.165   2.326   2.872 -1.3594  1.0122 -0.1450
19876SOL     OW60843   7.927   2.114   2.873  0.0515  0.4613  0.1017
19876SOL    HW160844   7.838   2.097   2.842  0.4931  0.1658 -1.0591
19876SOL    HW260845   7.938   2.056   2.948 -0.8601  0.7918  0.5072
19877SOL     OW60846   8.646   3.295   2.639 -0.3759  0.2331 -0.0143
19877SOL    HW160847   8.563   3.283   2.594  0.6753 -1.3418 -1.6845
19877SOL    HW260848   8.640   3.382   2.678 -2.2926  0.6745 -1.1640
19878SOL     OW60849   8.324   1.962   2.735  0.2871 -0.3235 -0.3792
19878SOL    HW160850   8.293   1.950   2.825  1.9011  0.3627  0.3100
19878SOL    HW260851   8.291   2.048   2.710  1.0869  0.1588  0.1484
19879SOL     OW60852   8.645   1.554   2.771  0.5246  0.1073 -0.6893
19879SOL    HW160853   8.552   1.547   2.753  0.2926 -0.7736  0.7196
19879SOL    HW260854   8.653   1.539   2.865  1.9889  1.2082 -0.5964
19880SOL     OW60855   8.418   2.746   2.491  0.0972  0.2603 -0.3810
19880SOL    HW160856   8.376   2.792   2.419  0.8439 -0.2509 -1.1676
19880SOL    HW260857   8.384   2.657   2.486 -1.5694  0.7419  1.3163
19881SOL     OW60858   8.281   3.193   2.787 -0.3197  0.5176  0.2228
19881SOL    HW160859   8.217   3.264   2.775  1.2991  2.0529  0.3120
19881SOL    HW260860   8.328   3.190   2.704  0.1555  0.0785  0.5070
19882SOL     OW60861   8.598   1.959   2.119  0.0233  0.6787  0.4944
19882SOL    HW160862   8.684   1.925   2.146  0.3423  1.0658 -0.0076
19882SOL    HW260863   8.562   1.890   2.064 -0.1987  0.3125  1.0856
19883SOL     OW60864   7.479   2.907   2.754 -0.6807  0.2482  0.1867
19883SOL    HW160865   7.508   2.872   2.838 -1.6995  0.8941  0.8299
19883SOL    HW260866   7.509   2.844   2.690  0.0303 -0.3101  1.0480
19884SOL     OW60867   7.994   3.882   2.284  0.6081 -0.0166  0.0626
19884SOL    HW160868   7.918   3.938   2.268  0.1002 -0.4866  0.7393
19884SOL    HW260869   7.957   3.802   2.322  0.7990 -2.6615 -4.5775
19885SOL     OW60870   7.417   2.252   3.907 -0.1375  0.0695  0.1176
19885SOL    HW160871   7.454   2.238   3.820 -2.1210 -0.1048 -0.7406
19885SOL    HW260872   7.417   2.347   3.918 -0.8640  0.1546 -0.5400
19886SOL     OW60873   7.104   2.019   4.559  0.0076  0.1179 -0.3240
19886SOL    HW160874   7.119   2.066   4.641 -2.6731  0.9723 -0.2179
19886SOL    HW260875   7.191   2.000   4.526  1.2258 -1.0339  3.1162
19887SOL     OW60876   6.677   1.983   4.197 -0.1006 -0.5046  0.1323
19887SOL    HW160877   6.709   2.062   4.153 -1.6423 -0.0331 -0.1730
19887SOL    HW260878   6.656   1.922   4.126  2.7955 -1.9924  0.3609
19888SOL     OW60879   8.080   2.968   4.262 -0.7563 -0.0150 -0.3401
19888SOL    HW160880   8.094   2.980   4.168 -0.3323 -0.3528 -0.3219
19888SOL    HW260881   8.044   3.052   4.291 -0.7479  0.1434 -0.7754
19889SOL     OW60882   0.028   3.509   4.541  0.4778 -0.5783 -0.1069
19889SOL    HW160883   0.005   3.533   4.451  1.1682  0.9033  0.0834
19889SOL    HW260884   0.071   3.423   4.533 -2.5270 -2.1603 -0.7651
19890SOL     OW60885   8.712   2.450   4.400  0.4325 -0.2834  0.1022
19890SOL    HW160886   8.652   2.523   4.384  0.8144 -0.1041 -0.5422
19890SOL    HW260887   8.777   2.456   4.330  1.0421 -0.6436  0.6190
19891SOL     OW60888   8.003   2.616   4.647 -0.0836 -0.1435 -0.6152
19891SOL    HW160889   8.043   2.668   4.578  0.8794  1.1003  0.8224
19891SOL    HW260890   7.910   2.640   4.645  0.3852  1.9050  0.1985
19892SOL     OW60891   8.194   2.605   5.622  0.1500  0.2724 -0.2899
19892SOL    HW160892   8.278   2.652   5.624 -0.2454  1.0891 -1.4378
19892SOL    HW260893   8.129   2.674   5.610 -0.6271 -0.4110 -0.0382
19893SOL     OW60894   8.038   2.592   4.303 -0.6835  0.4155 -0.5382
19893SOL    HW160895   8.065   2.683   4.317 -1.5947  1.3443 -3.7708
19893SOL    HW260896   7.944   2.593   4.321 -0.7854  0.2515 -1.0547
19894SOL     OW60897   7.876   2.970   5.026 -0.7476 -0.7809 -0.9045
19894SOL    HW160898   7.843   3.035   4.964 -1.9305  0.6835  1.1140
19894SOL    HW260899   7.935   2.915   4.975 -0.3710  1.3384 -2.9269
19895SOL     OW60900   7.740   3.102   4.574  0.5680 -0.3060 -0.0839
19895SOL    HW160901   7.778   3.017   4.597  0.5828 -0.3956 -0.4294
19895SOL    HW260902   7.788   3.129   4.496 -0.2474 -0.5467 -0.6852
19896SOL     OW60903   8.016   2.365   4.736  0.7151 -0.2554  0.1405
19896SOL    HW160904   8.105   2.339   4.712  0.2241 -1.0960 -0.8825
19896SOL    HW260905   8.008   2.455   4.704  0.9379 -0.4618 -0.5144
19897SOL     OW60906   7.657   3.329   4.340  0.6071 -0.2882 -0.3374
19897SOL    HW160907   7.564   3.309   4.328  0.9236 -0.8527 -2.1531
19897SOL    HW260908   7.679   3.386   4.266  1.6858 -0.1023  0.1160
19898SOL     OW60909   0.009   3.402   5.398  0.0272 -0.1402  0.3831
19898SOL    HW160910   0.040   3.397   5.488  0.1691 -1.5724  0.2790
19898SOL    HW260911  -0.086   3.417   5.406 -0.1320 -1.2587  0.8092
19899SOL     OW60912   8.140   3.272   3.576  0.0865  0.2746  0.1040
19899SOL    HW160913   8.059   3.310   3.541 -0.3903  0.9016  1.7954
19899SOL    HW260914   8.111   3.193   3.622  0.3123  0.8816  1.3309
19900SOL     OW60915   7.130   2.752   4.400  0.7463  0.5687  0.5821
19900SOL    HW160916   7.190   2.680   4.380  2.5939  2.1259  0.3398
19900SOL    HW260917   7.135   2.810   4.325 -1.3522  0.6021  0.4161
19901SOL     OW60918   7.935   3.789   5.173  0.1005  0.8316 -0.5726
19901SOL    HW160919   8.021   3.828   5.187  0.1485  0.6207 -0.2824
19901SOL    HW260920   7.877   3.834   5.235 -0.0483  1.1279 -0.9178
19902SOL     OW60921   8.134   2.347   4.358  0.3671  0.3829 -0.4304
19902SOL    HW160922   8.106   2.439   4.354  1.1172  0.6563  0.3919
19902SOL    HW260923   8.208   2.342   4.297  0.5574  0.4196 -0.2063
19903SOL     OW60924   6.964   2.443   4.254 -0.1473  0.3967 -0.0872
19903SOL    HW160925   6.962   2.517   4.193 -2.5818 -0.0485 -0.6412
19903SOL    HW260926   6.920   2.476   4.332  0.4402  0.0827  0.3811
19904SOL     OW60927   7.682   2.865   3.807  0.0164 -0.0699 -0.0910
19904SOL    HW160928   7.663   2.811   3.730  1.8817 -0.5151 -0.2833
19904SOL    HW260929   7.619   2.937   3.802 -0.6000 -0.6677 -1.4304
19905SOL     OW60930   8.798   2.792   4.543 -0.3299 -0.1817  0.1148
19905SOL    HW160931   8.875   2.827   4.498  0.0325  0.8189  1.4722
19905SOL    HW260932   8.776   2.857   4.609 -1.4042 -1.1829  0.7893
19906SOL     OW60933   7.308   2.161   4.758  0.2914  0.6512  0.4663
19906SOL    HW160934   7.268   2.199   4.836  1.3672  0.0823  1.3302
19906SOL    HW260935   7.401   2.183   4.765  1.1971 -2.7806  1.5514
19907SOL     OW60936   7.991   3.401   4.114  0.0122 -0.6709 -0.3266
19907SOL    HW160937   7.920   3.456   4.145  1.0436  1.7576 -1.9946
19907SOL    HW260938   7.962   3.372   4.027  1.5515  1.6173 -1.7147
19908SOL     OW60939   8.383   3.017   5.251 -0.2811 -0.6961  0.5320
19908SOL    HW160940   8.453   3.028   5.315  0.5763 -0.4894 -0.4184
19908SOL    HW260941   8.327   3.093   5.263  0.7653  0.1948 -0.0341
19909SOL     OW60942   8.141   2.062   4.104 -0.2942  0.0730  0.4815
19909SOL    HW160943   8.134   2.009   4.024 -1.0757  2.8293 -1.4256
19909SOL    HW260944   8.235   2.076   4.115 -0.2099  1.6635 -1.5164
19910SOL     OW60945   7.188   2.342   4.615  0.3476  0.1511 -0.0641
19910SOL    HW160946   7.256   2.285   4.652 -0.3158 -1.4707 -1.1966
19910SOL    HW260947   7.216   2.357   4.525 -0.9045 -0.8143 -0.6521
19911SOL     OW60948   8.786   3.709   5.396 -0.1209  0.3126  0.6003
19911SOL    HW160949   8.700   3.711   5.355 -0.8782 -0.4161  2.0992
19911SOL    HW260950   8.838   3.651   5.340 -0.9060 -0.0946  0.2749
19912SOL     OW60951   7.776   2.234   5.211 -0.1661  0.6261  0.5087
19912SOL    HW160952   7.820   2.175   5.272 -1.4786 -0.7946  0.1451
19912SOL    HW260953   7.821   2.220   5.128 -1.1869 -0.7669  0.1547
19913SOL     OW60954   8.072   2.298   3.893  0.5647 -0.0963  0.0751
19913SOL    HW160955   8.123   2.262   3.966  0.2604 -0.8291 -0.0702
19913SOL    HW260956   8.134   2.355   3.847  1.0741 -0.4728  0.2814
19914SOL     OW60957   0.206   2.699   4.595 -0.1303  0.2710  0.5531
19914SOL    HW160958   0.148   2.775   4.604 -0.2553  0.3761 -0.9845
19914SOL    HW260959   0.169   2.634   4.656 -1.3757  0.6264  0.2107
19915SOL     OW60960   7.923   2.616   5.472 -0.3584  0.5862 -0.1933
19915SOL    HW160961   8.004   2.581   5.511  0.6562  0.5240 -2.2328
19915SOL    HW260962   7.853   2.569   5.517  0.8650 -3.0785 -1.7083
19916SOL     OW60963   0.083   2.805   5.780 -0.5560 -0.2152 -0.3194
19916SOL    HW160964  -0.010   2.824   5.788 -0.1143  2.4127 -0.7239
19916SOL    HW260965   0.125   2.864   5.842  1.0775  1.7706 -3.0801
19917SOL     OW60966   8.234   2.860   5.090 -0.0860  0.3018  0.1705
19917SOL    HW160967   8.196   2.927   5.033  1.6416  1.5284  0.4027
19917SOL    HW260968   8.293   2.908   5.148  0.9484 -1.3875  0.5720
19918SOL     OW60969   8.579   2.248   4.847 -0.0328 -0.3668 -0.3152
19918SOL    HW160970   8.570   2.297   4.766 -1.4741  0.3622  0.2465
19918SOL    HW260971   8.609   2.313   4.911  0.5674 -0.8096 -0.1388
19919SOL     OW60972   8.106   2.632   4.019  0.2008  0.3155  0.0826
19919SOL    HW160973   8.082   2.571   4.089  2.2070 -1.0042 -0.2976
19919SOL    HW260974   8.023   2.668   3.989 -1.0774 -2.2214  0.3443
19920SOL     OW60975   7.246   2.866   4.623  0.5428  0.2615  0.5069
19920SOL    HW160976   7.250   2.800   4.693  1.9292  1.2213  1.3856
19920SOL    HW260977   7.190   2.826   4.556  0.7550 -1.5052  1.3095
19921SOL     OW60978   7.475   3.782   5.217  0.1606 -0.0811 -0.4458
19921SOL    HW160979   7.549   3.721   5.218  1.2973  1.2418 -1.0471
19921SOL    HW260980   7.427   3.763   5.298  0.1248 -2.1585 -0.8844
19922SOL     OW60981   8.468   2.129   4.123 -0.0979 -0.0673  0.2235
19922SOL    HW160982   8.526   2.145   4.049 -1.2840 -0.9459 -0.9495
19922SOL    HW260983   8.526   2.104   4.194  0.9943 -0.5257 -0.7992
19923SOL     OW60984   8.616   3.246   4.404  0.1212  0.1482 -0.1977
19923SOL    HW160985   8.532   3.203   4.392 -1.7391  3.4294 -0.0321
19923SOL    HW260986   8.670   3.213   4.332 -1.4685 -1.6226 -0.6488
19924SOL     OW60987   7.969   1.890   4.388  0.0035  0.1598  0.1325
19924SOL    HW160988   7.971   1.981   4.358 -1.3852  0.5342  1.0922
19924SOL    HW260989   7.981   1.896   4.483 -0.0517 -0.6703  0.1969
19925SOL     OW60990   7.929   3.275   3.874 -0.3885  0.3033 -0.7332
19925SOL    HW160991   7.917   3.186   3.906  1.0326 -0.0603 -1.1524
19925SOL    HW260992   7.936   3.266   3.779 -1.2798  0.9902 -0.8741
19926SOL     OW60993   7.695   3.730   4.647 -0.3308  0.4694  0.5376
19926SOL    HW160994   7.763   3.703   4.586 -0.7272  1.2060 -0.2513
19926SOL    HW260995   7.662   3.648   4.684 -0.4164 -0.0209 -0.5971
19927SOL     OW60996   8.265   3.306   5.041 -0.1431  0.2414  0.5443
19927SOL    HW160997   8.316   3.241   4.993 -1.7721 -1.0714  0.4671
19927SOL    HW260998   8.199   3.335   4.978  0.1709  1.5221  0.7842
19928SOL     OW60999   7.710   2.474   4.291 -0.3676  0.0178  0.2670
19928SOL    HW161000   7.692   2.413   4.219  1.5195  0.5192 -0.6891
19928SOL    HW261001   7.736   2.419   4.364 -0.0013 -0.3951 -0.1700
19929SOL     OW61002   7.676   3.390   5.360  0.0374 -0.0682 -0.0169
19929SOL    HW161003   7.676   3.441   5.279  2.4437 -1.7268 -1.1642
19929SOL    HW261004   7.612   3.320   5.344  1.5864 -1.2940 -1.1885
19930SOL     OW61005   8.561   3.678   4.213  0.0472  0.3334  0.3051
19930SOL    HW161006   8.603   3.764   4.206 -0.2013  0.3850 -0.7453
19930SOL    HW261007   8.622   3.619   4.168 -1.0718  0.4481 -1.4619
19931SOL     OW61008   7.898   2.204   4.952 -0.3924 -0.3368 -0.2680
19931SOL    HW161009   7.936   2.277   4.903  1.3282 -0.7014  0.4751
19931SOL    HW261010   7.861   2.147   4.885 -0.9292  0.7462 -0.9156
19932SOL     OW61011   8.161   3.529   3.724  0.0585 -0.4231 -0.2725
19932SOL    HW161012   8.077   3.541   3.769  0.0975 -0.6857 -0.1239
19932SOL    HW261013   8.171   3.434   3.718  0.4812 -0.3972 -0.0277
19933SOL     OW61014   7.672   3.489   4.782 -0.0281 -0.0022 -0.1360
19933SOL    HW161015   7.648   3.424   4.716  1.8816 -0.8587 -0.0642
19933SOL    HW261016   7.591   3.504   4.832 -0.5137 -2.5075 -0.0183
19934SOL     OW61017   8.329   3.388   4.409  0.4111 -0.6498  0.0449
19934SOL    HW161018   8.360   3.321   4.348 -0.0046 -2.2100  1.4626
19934SOL    HW261019   8.235   3.368   4.420  0.1575  0.5117  0.0817
19935SOL     OW61020   7.722   2.597   4.635  0.1266 -0.0243  0.1550
19935SOL    HW161021   7.734   2.505   4.661 -1.4354  0.2415  2.0414
19935SOL    HW261022   7.628   2.611   4.641  0.3303  1.6913 -0.2119
19936SOL     OW61023   8.618   2.014   3.760  0.3120  0.0069 -0.4005
19936SOL    HW161024   8.597   1.936   3.812 -0.4823 -0.4760 -1.4159
19936SOL    HW261025   8.634   1.981   3.672 -1.2978  1.0858 -1.1539
19937SOL     OW61026   8.173   2.312   5.105 -0.2841  0.9377  0.1435
19937SOL    HW161027   8.133   2.390   5.066 -0.9355  0.1797 -0.7628
19937SOL    HW261028   8.234   2.281   5.038 -0.4378  0.3540  0.2728
19938SOL     OW61029   8.343   3.431   4.699  0.7566  0.2681 -0.0726
19938SOL    HW161030   8.379   3.347   4.730 -2.4203 -1.2097  0.0562
19938SOL    HW261031   8.334   3.419   4.604 -0.7965 -0.0824  0.0891
19939SOL     OW61032   8.441   2.669   5.025 -0.3533  0.9409 -0.0420
19939SOL    HW161033   8.354   2.709   5.025 -2.2396 -2.7246  1.3752
19939SOL    HW261034   8.437   2.602   4.957  2.0071  1.6237 -0.9914
19940SOL     OW61035   8.141   2.809   4.467  0.3068  0.0156 -0.5313
19940SOL    HW161036   8.108   2.868   4.400 -1.6997  0.3373  0.6618
19940SOL    HW261037   8.234   2.831   4.474 -0.1361  2.2846 -0.9170
19941SOL     OW61038   8.620   2.537   4.854  0.5954 -0.0634  0.0457
19941SOL    HW161039   8.668   2.588   4.919 -1.3283  0.1400  1.3787
19941SOL    HW261040   8.571   2.603   4.804 -0.1759 -0.4294  0.3129
19942SOL     OW61041   7.971   2.147   4.309  0.6686  0.3682 -0.2130
19942SOL    HW161042   8.025   2.210   4.356  0.9023  0.1460 -0.1820
19942SOL    HW261043   8.025   2.122   4.233 -0.2293  1.7408 -1.3562
19943SOL     OW61044   0.279   2.884   4.059  0.6477  0.0693  0.1773
19943SOL    HW161045   0.193   2.866   4.095  0.6825 -0.5464 -0.0379
19943SOL    HW261046   0.281   2.836   3.976  1.7979 -1.3226  0.9617
19944SOL     OW61047   7.307   1.765   3.583 -0.0433  0.6727 -0.2392
19944SOL    HW161048   7.240   1.802   3.640  0.0263  0.2990  0.0933
19944SOL    HW261049   7.358   1.841   3.554 -0.7346  0.9856 -0.6746
19945SOL     OW61050   8.534   2.055   4.571 -0.2679  0.0832  0.7346
19945SOL    HW161051   8.531   2.150   4.583 -2.0228 -0.0834  1.9459
19945SOL    HW261052   8.615   2.029   4.615  1.2364  1.1638 -1.2245
19946SOL     OW61053   8.543   2.338   4.583 -0.3588 -0.4747 -0.4374
19946SOL    HW161054   8.470   2.399   4.591 -1.5168 -1.6841 -1.2406
19946SOL    HW261055   8.611   2.387   4.536 -1.1745  0.2750 -0.8648
19947SOL     OW61056   8.715   3.502   4.768 -0.1240 -0.2361 -0.3998
19947SOL    HW161057   8.768   3.511   4.689 -1.6676  1.8350 -1.2853
19947SOL    HW261058   8.683   3.412   4.766 -0.4024 -0.1289 -2.3379
19948SOL     OW61059   7.715   2.744   4.319  0.1490 -0.7146  0.0782
19948SOL    HW161060   7.694   2.654   4.293 -1.0915 -0.9442  1.6951
19948SOL    HW261061   7.712   2.743   4.415 -1.4187  1.3438  0.1373
19949SOL     OW61062   8.512   3.365   4.017  0.1872  0.6946  0.0684
19949SOL    HW161063   8.456   3.436   3.985  0.4629  0.1849 -1.6559
19949SOL    HW261064   8.583   3.409   4.062 -0.9799  1.3947  1.2946
19950SOL     OW61065   8.496   2.267   3.669 -0.6335  0.6026  0.1359
19950SOL    HW161066   8.578   2.315   3.669 -1.7743  2.6869  0.8988
19950SOL    HW261067   8.521   2.176   3.686  1.4222  1.3170  1.3268
19951SOL     OW61068   7.487   2.339   4.540  0.3457 -0.6129 -0.4138
19951SOL    HW161069   7.581   2.338   4.553  0.4663 -0.2864 -1.1910
19951SOL    HW261070   7.454   2.399   4.608  0.2957 -3.2147  2.0538
19952SOL     OW61071   7.773   2.022   4.598  0.0476 -0.5159 -0.1789
19952SOL    HW161072   7.707   2.010   4.666 -0.3491 -0.7145 -0.5980
19952SOL    HW261073   7.723   2.032   4.517  0.4762  0.6960 -0.3163
19953SOL     OW61074   8.274   1.986   4.504 -0.2074 -0.1204  0.4431
19953SOL    HW161075   8.263   1.903   4.459 -1.3525 -1.4663  2.9937
19953SOL    HW261076   8.369   1.996   4.511 -0.0217 -0.3130 -1.3635
19954SOL     OW61077   8.457   1.813   3.859 -0.0802 -0.3441  0.0861
19954SOL    HW161078   8.483   1.721   3.851 -1.1408 -0.5496 -1.4676
19954SOL    HW261079   8.455   1.829   3.953  0.5041 -1.8025  0.3701
19955SOL     OW61080   7.902   3.007   3.951 -0.0076  0.2357 -0.4357
19955SOL    HW161081   7.819   3.015   3.999  0.1652 -0.3781 -0.0182
19955SOL    HW261082   7.908   2.914   3.931  1.3295 -0.0116  0.9255
19956SOL     OW61083   8.813   2.310   3.633  0.8103  0.0453 -0.2549
19956SOL    HW161084   8.829   2.378   3.567  1.1388  0.7761  0.5610
19956SOL    HW261085   8.840   2.350   3.715  0.8124 -1.0146  0.2700
19957SOL     OW61086   8.177   1.881   3.906 -0.2228  0.7212 -0.1231
19957SOL    HW161087   8.128   1.800   3.903  0.7405  0.0743  0.7735
19957SOL    HW261088   8.266   1.857   3.878  0.2518  1.3032  0.8077
19958SOL     OW61089   8.149   3.177   4.615 -0.4111  0.0023  0.3113
19958SOL    HW161090   8.107   3.226   4.686 -2.2254  0.7144 -1.1781
19958SOL    HW261091   8.091   3.189   4.540  1.3109 -0.9338 -1.2479
19959SOL     OW61092   8.369   3.023   4.614 -0.1522  0.1557  0.0001
19959SOL    HW161093   8.399   3.034   4.524 -0.1358  0.6038  0.0580
19959SOL    HW261094   8.282   3.064   4.616  0.4186  1.4141  0.5195
19960SOL     OW61095   8.391   1.776   4.853 -0.3738 -0.0788 -0.0481
19960SOL    HW161096   8.467   1.834   4.856 -0.7451  0.4309 -0.3900
19960SOL    HW261097   8.426   1.691   4.825  0.3897 -0.4031  1.7094
19961SOL     OW61098   8.202   3.268   5.309  0.4450  0.0959 -0.1171
19961SOL    HW161099   8.221   3.296   5.219 -1.5649  1.5462 -0.1625
19961SOL    HW261100   8.109   3.290   5.321 -0.2422 -3.0602  1.2360
19962SOL     OW61101   8.412   2.634   3.588 -0.5416  0.9317 -0.8752
19962SOL    HW161102   8.337   2.672   3.542  0.1149  1.0599 -1.8725
19962SOL    HW261103   8.474   2.707   3.596 -0.3560  0.7235 -0.4235
19963SOL     OW61104   7.595   2.515   4.977 -0.5262  0.1059 -0.2072
19963SOL    HW161105   7.621   2.602   4.948 -0.5259  0.0781 -0.2896
19963SOL    HW261106   7.597   2.520   5.073  1.1136 -0.2823 -0.1856
19964SOL     OW61107   0.098   2.335   5.053  0.5243 -0.2422 -0.2590
19964SOL    HW161108   0.177   2.293   5.017 -0.2595 -1.2758 -0.8289
19964SOL    HW261109   0.048   2.262   5.090  0.7321  0.6386  1.8995
19965SOL     OW61110   7.465   3.532   4.922 -0.6317 -0.3628  0.3776
19965SOL    HW161111   7.437   3.621   4.901 -0.1332 -0.4337 -0.6242
19965SOL    HW261112   7.386   3.490   4.957 -1.2907  0.0184 -0.6051
19966SOL     OW61113   7.346   2.822   3.991 -0.2285 -0.4291  0.0674
19966SOL    HW161114   7.397   2.888   3.944  1.4621 -1.2579  0.6269
19966SOL    HW261115   7.364   2.840   4.084 -0.5374 -1.0556  0.2573
19967SOL     OW61116   8.204   2.223   4.595 -0.6798 -0.4514  0.4869
19967SOL    HW161117   8.170   2.262   4.515  0.6447 -0.9356 -0.3407
19967SOL    HW261118   8.202   2.128   4.578 -1.3829 -0.6241  1.4464
19968SOL     OW61119   0.172   3.252   4.265  0.2796 -0.0121 -0.2619
19968SOL    HW161120   0.182   3.234   4.171 -0.1998 -0.1573 -0.2866
19968SOL    HW261121   0.085   3.219   4.286 -0.2537  1.4235 -0.1132
19969SOL     OW61122   0.038   3.419   5.130  0.0782  0.1351 -0.5361
19969SOL    HW161123   0.034   3.413   5.226  1.4867  1.1738 -0.3842
19969SOL    HW261124   0.053   3.329   5.101 -0.9474 -0.2837  0.1570
19970SOL     OW61125   7.654   3.272   5.011 -0.2771  0.5544 -0.7169
19970SOL    HW161126   7.591   3.285   5.083  0.0494  0.7899 -0.4674
19970SOL    HW261127   7.622   3.328   4.941 -0.3901  0.6127 -0.6196
19971SOL     OW61128   7.853   2.522   5.229 -0.1275  0.2061  0.1347
19971SOL    HW161129   7.867   2.539   5.322 -2.4048  0.4937  0.4852
19971SOL    HW261130   7.839   2.428   5.224 -0.3020  0.2324  0.1275
19972SOL     OW61131   8.498   2.371   5.112  0.1839  0.2348  0.5052
19972SOL    HW161132   8.578   2.356   5.162  1.0600  0.3342 -0.8325
19972SOL    HW261133   8.466   2.456   5.143  0.7497  0.3300  0.8339
19973SOL     OW61134   7.748   1.782   5.247 -0.3495  0.1985 -0.1550
19973SOL    HW161135   7.829   1.767   5.198 -0.8813 -0.8472 -0.7474
19973SOL    HW261136   7.709   1.695   5.255 -2.2680  0.9088 -1.3810
19974SOL     OW61137   7.606   2.770   4.886  0.3027  0.3346  0.1622
19974SOL    HW161138   7.640   2.801   4.801  0.5437  1.0860  0.5248
19974SOL    HW261139   7.590   2.850   4.936  3.3909 -0.0732  2.0858
19975SOL     OW61140   8.617   2.973   4.979 -0.0848 -0.2782  0.3004
19975SOL    HW161141   8.702   2.964   5.022 -0.4610  0.2111  1.1895
19975SOL    HW261142   8.555   2.983   5.051 -0.5927  1.8882 -0.3385
19976SOL     OW61143   8.647   2.723   4.022  0.3827  0.7102 -0.0722
19976SOL    HW161144   8.563   2.709   3.979  0.6857 -1.1623 -0.1751
19976SOL    HW261145   8.689   2.636   4.021  1.9139  1.3922  0.7996
19977SOL     OW61146   7.543   2.306   4.827  0.4036  0.0685 -0.5974
19977SOL    HW161147   7.604   2.232   4.833  1.5776  0.9707 -0.8859
19977SOL    HW261148   7.570   2.365   4.897  1.3589  1.5075 -2.0878
19978SOL     OW61149   6.761   3.233   5.305  0.3220  0.2872  0.3006
19978SOL    HW161150   6.810   3.314   5.320  3.5275 -1.3585 -0.4198
19978SOL    HW261151   6.787   3.175   5.376  0.3356 -1.0128 -0.7154
19979SOL     OW61152   8.305   2.261   4.847 -0.7996  0.1645 -0.6558
19979SOL    HW161153   8.395   2.229   4.853 -1.0408 -0.2439  1.7600
19979SOL    HW261154   8.286   2.262   4.753  1.2903 -0.9491 -1.1487
19980SOL     OW61155   7.712   2.081   4.350 -0.2861  0.0691 -0.0526
19980SOL    HW161156   7.660   2.102   4.273 -0.3873  0.5244  0.1376
19980SOL    HW261157   7.801   2.107   4.327 -0.0334 -1.2069 -0.5783
19981SOL     OW61158   0.183   2.447   3.823 -0.2914  0.5074 -0.5342
19981SOL    HW161159   0.233   2.515   3.870 -1.0739  0.2692  0.6872
19981SOL    HW261160   0.205   2.366   3.868  0.0317  0.0504 -1.4991
19982SOL     OW61161   8.360   2.584   4.582  0.2492 -0.3230 -0.3877
19982SOL    HW161162   8.273   2.580   4.541 -0.0652 -0.7179  0.2891
19982SOL    HW261163   8.341   2.593   4.676  0.9143  3.5530 -0.4888
19983SOL     OW61164   8.550   3.387   5.414  0.0229 -0.4185 -0.2766
19983SOL    HW161165   8.514   3.395   5.326 -0.0496  0.3387 -0.1811
19983SOL    HW261166   8.556   3.293   5.429 -0.9653 -0.5517 -0.6824
19984SOL     OW61167   7.549   2.563   5.321 -0.1388 -0.0936 -0.1275
19984SOL    HW161168   7.512   2.647   5.293 -0.9566 -0.6979 -0.9113
19984SOL    HW261169   7.643   2.571   5.301 -0.4211  0.1494 -1.4592
19985SOL     OW61170   8.760   2.971   3.959 -0.3129 -0.2255 -0.2141
19985SOL    HW161171   8.723   2.882   3.961 -0.3614 -0.2007  0.9655
19985SOL    HW261172   8.694   3.023   3.914 -0.6686 -0.6322 -0.1748
19986SOL     OW61173   8.399   3.059   4.347 -0.0940 -0.0077  0.2796
19986SOL    HW161174   8.450   2.984   4.316  3.3176  2.1838  0.0557
19986SOL    HW261175   8.358   3.095   4.268  1.0878  0.3077 -0.2084
19987SOL     OW61176   7.534   2.870   4.522 -0.6369  0.3735 -0.5454
19987SOL    HW161177   7.585   2.941   4.560 -0.2746 -1.1670  2.0457
19987SOL    HW261178   7.448   2.876   4.565 -0.8453 -0.2932 -0.8476
19988SOL     OW61179   7.337   2.596   4.355 -0.3312  0.1845  0.6418
19988SOL    HW161180   7.345   2.507   4.319 -0.7942  0.7955 -1.0917
19988SOL    HW261181   7.395   2.597   4.431  0.6194 -1.2578 -0.0247
19989SOL     OW61182   8.694   2.318   5.279 -0.3880 -0.4303  0.8369
19989SOL    HW161183   8.778   2.285   5.312  2.2753  2.4146 -2.3312
19989SOL    HW261184   8.684   2.404   5.320 -2.1882 -0.9874  1.6558
19990SOL     OW61185   8.606   1.931   4.940  0.0615  0.5419 -0.2112
19990SOL    HW161186   8.630   1.991   4.869 -0.1801 -0.5597 -1.2608
19990SOL    HW261187   8.576   1.988   5.011  0.7434  1.6931 -0.8197
19991SOL     OW61188   7.577   3.260   4.011 -0.7849 -0.2641 -0.0878
19991SOL    HW161189   7.494   3.290   4.048  0.1816  2.1242  0.3425
19991SOL    HW261190   7.598   3.181   4.061 -2.9161 -1.1417 -0.4589
19992SOL     OW61191   7.371   3.761   4.804  0.2692  0.2173  0.3129
19992SOL    HW161192   7.357   3.816   4.727 -0.2352 -1.4510 -0.8377
19992SOL    HW261193   7.284   3.749   4.841  0.1052 -1.2584 -0.5035
19993SOL     OW61194   7.857   3.122   4.332 -0.2608  0.2849 -0.1324
19993SOL    HW161195   7.794   3.195   4.327 -1.1433 -0.1539  2.7447
19993SOL    HW261196   7.837   3.068   4.256 -1.6135  1.4906 -0.6900
19994SOL     OW61197   8.444   3.183   4.844  0.1013  0.1033  0.6211
19994SOL    HW161198   8.512   3.149   4.902  0.1859 -0.2649  0.3082
19994SOL    HW261199   8.439   3.119   4.772 -0.3943  0.2604  0.5122
19995SOL     OW61200   6.903   2.173   4.900 -0.4493 -0.1554  0.2728
19995SOL    HW161201   6.882   2.251   4.951 -2.9327  0.5961 -1.7415
19995SOL    HW261202   6.913   2.204   4.810  1.4629 -1.7763 -0.1435
19996SOL     OW61203   7.239   2.535   5.142 -0.4050 -0.4024 -0.0007
19996SOL    HW161204   7.306   2.590   5.183  1.1837 -2.2316 -0.0094
19996SOL    HW261205   7.231   2.569   5.053  0.7209 -0.2951 -0.0791
19997SOL     OW61206   8.277   2.318   4.135  0.6955 -0.0899 -0.4074
19997SOL    HW161207   8.357   2.265   4.136  1.3998  0.9192 -1.1686
19997SOL    HW261208   8.307   2.407   4.116 -0.3617  0.7829  1.6594
19998SOL     OW61209   7.947   3.348   5.390  0.0884 -0.0336  0.3870
19998SOL    HW161210   7.905   3.282   5.445 -0.0251  1.6604  2.4772
19998SOL    HW261211   7.875   3.400   5.356  0.1757 -0.9353 -1.2994
19999SOL     OW61212   8.271   2.542   4.849  0.5388 -0.0257 -0.6895
19999SOL    HW161213   8.284   2.449   4.867 -1.0029  0.0045  0.7714
19999SOL    HW261214   8.215   2.573   4.919  0.7709  1.9658 -1.3148
20000SOL     OW61215   8.445   3.430   5.193 -1.1355  0.3279  0.5202
20000SOL    HW161216   8.380   3.389   5.136 -1.9569  0.3281  1.4334
20000SOL    HW261217   8.507   3.470   5.133 -1.7725  0.0035 -0.3775
20001SOL     OW61218   7.797   2.428   3.428  0.6867 -0.4401 -0.9482
20001SOL    HW161219   7.860   2.382   3.484  3.1943 -0.1580 -3.3393
20001SOL    HW261220   7.847   2.500   3.389 -1.2065  0.0277 -2.7138
20002SOL     OW61221   7.175   2.891   5.006 -0.2738 -0.4591  0.1561
20002SOL    HW161222   7.138   2.825   4.947  0.0194 -0.7316  0.2759
20002SOL    HW261223   7.104   2.911   5.067 -1.0871  0.8914 -1.1396
20003SOL     OW61224   8.668   3.266   4.681 -0.2502 -0.1889  0.2687
20003SOL    HW161225   8.706   3.179   4.676  0.9746  0.3098  0.5775
20003SOL    HW261226   8.635   3.283   4.593 -0.0562 -0.7644  0.0799
20004SOL     OW61227   8.590   2.879   4.246 -0.2471  0.2139  0.0156
20004SOL    HW161228   8.596   2.822   4.170 -0.7155  0.5155 -0.2569
20004SOL    HW261229   8.580   2.819   4.320  0.8772 -0.0995 -0.0741
20005SOL     OW61230   8.605   3.536   5.016 -0.2806  0.0863  0.1081
20005SOL    HW161231   8.645   3.551   4.930 -0.5900  0.0053 -0.0502
20005SOL    HW261232   8.679   3.515   5.073 -0.0534  0.3049 -0.0990
20006SOL     OW61233   7.426   2.973   4.252 -0.7145  0.3086 -0.0200
20006SOL    HW161234   7.451   2.897   4.304 -0.4025 -0.6138 -1.4656
20006SOL    HW261235   7.359   3.017   4.305 -0.7834 -0.8608  0.9166
20007SOL     OW61236   8.072   3.548   5.131  0.2719 -0.2095 -0.1588
20007SOL    HW161237   7.993   3.595   5.102  0.6514  0.9448  0.6414
20007SOL    HW261238   8.046   3.455   5.128 -0.6462  0.0560 -1.2891
20008SOL     OW61239   0.148   3.554   3.906  0.0851  0.3746 -0.0620
20008SOL    HW161240   0.218   3.619   3.913  0.0298  0.5305 -0.9260
20008SOL    HW261241   0.175   3.498   3.833 -0.4543  0.1423 -0.0851
20009SOL     OW61242   7.736   3.687   5.437 -0.1365 -0.3440  0.2424
20009SOL    HW161243   7.680   3.749   5.484  0.6507 -0.4002  1.2752
20009SOL    HW261244   7.680   3.612   5.420 -1.0629  0.5577 -0.8868
20010SOL     OW61245   8.512   2.807   4.745 -0.5639 -0.3311 -0.0648
20010SOL    HW161246   8.462   2.869   4.692  0.1279 -0.1882 -0.5702
20010SOL    HW261247   8.535   2.856   4.823  0.1240  0.1247 -0.5372
20011SOL     OW61248   8.129   3.076   4.878  0.1130 -0.8950 -0.3429
20011SOL    HW161249   8.191   3.100   4.808  2.7444 -3.2775  0.9630
20011SOL    HW261250   8.110   3.158   4.922  0.5026  0.2652 -2.2297
20012SOL     OW61251   8.252   3.787   3.632  0.3772 -0.0413  0.1231
20012SOL    HW161252   8.205   3.800   3.550 -1.4318 -2.1650  0.7116
20012SOL    HW261253   8.264   3.692   3.638  0.8554  0.1027  2.0937
20013SOL     OW61254   7.143   1.901   4.176  0.3214  0.3515 -0.3366
20013SOL    HW161255   7.168   1.969   4.112  1.4096  0.0356 -0.2719
20013SOL    HW261256   7.227   1.868   4.209 -0.2324  0.7113  1.4860
20014SOL     OW61257   0.039   3.250   3.581  0.8738  0.0048 -0.7559
20014SOL    HW161258  -0.005   3.198   3.648  2.4772  0.9769  1.1747
20014SOL    HW261259  -0.032   3.292   3.532 -0.3613 -0.5205  0.5318
20015SOL     OW61260   8.018   2.818   4.852  0.2772  0.5587  0.1058
20015SOL    HW161261   8.014   2.751   4.783 -1.4105  0.3236  0.3854
20015SOL    HW261262   8.094   2.872   4.829  2.5313 -2.1873  0.5898
20016SOL     OW61263   7.960   2.518   3.658 -0.0258  0.1918  0.2037
20016SOL    HW161264   8.016   2.533   3.734 -0.7620 -1.5231  1.1512
20016SOL    HW261265   7.876   2.492   3.695 -0.8899  0.8662 -1.2104
20017SOL     OW61266   7.552   3.002   5.009 -0.6758 -0.4919 -0.1254
20017SOL    HW161267   7.460   3.026   5.022 -0.6665 -0.4188 -0.1922
20017SOL    HW261268   7.598   3.086   5.008 -0.5020 -0.5665  0.7230
20018SOL     OW61269   8.389   2.640   3.929  0.5701 -0.2882  0.1871
20018SOL    HW161270   8.396   2.581   3.854  0.8917 -1.1294  0.8542
20018SOL    HW261271   8.297   2.635   3.955  0.4141  0.1613 -0.2685
20019SOL     OW61272   0.642   2.098   4.259  0.3763  0.0089  0.1692
20019SOL    HW161273   0.598   2.175   4.223  3.5514  1.1185 -1.7788
20019SOL    HW261274   0.634   2.031   4.191  2.0933  0.4266 -0.4828
20020SOL     OW61275   7.766   3.549   4.203 -0.3236  0.3624  0.0907
20020SOL    HW161276   7.760   3.596   4.286  1.6350  1.5722 -0.3869
20020SOL    HW261277   7.775   3.617   4.137  3.1901 -0.5543 -0.5712
20021SOL     OW61278   7.900   3.443   3.586 -0.0578  0.1172 -0.0185
20021SOL    HW161279   7.858   3.489   3.658 -3.1766 -0.7627 -1.0971
20021SOL    HW261280   7.958   3.508   3.546 -1.4873  1.9364  0.7180
20022SOL     OW61281   7.387   2.748   5.201  0.1219 -0.3826  0.9293
20022SOL    HW161282   7.374   2.824   5.257  3.1753  1.7847 -1.0287
20022SOL    HW261283   7.348   2.772   5.117  2.6171 -0.1563 -0.2372
20023SOL     OW61284   8.221   1.810   5.050  0.8902  0.2976  0.7601
20023SOL    HW161285   8.296   1.814   4.991  0.5645 -1.2550  0.2030
20023SOL    HW261286   8.158   1.873   5.014  0.3021 -1.2890 -1.1580
20024SOL     OW61287   7.399   2.015   3.522  0.5340 -0.3603  0.8581
20024SOL    HW161288   7.314   2.049   3.494  0.6879 -1.6104 -1.4158
20024SOL    HW261289   7.437   2.085   3.575 -1.5055  0.5991  1.1569
20025SOL     OW61290   8.612   2.642   5.210 -0.2755  0.3032 -0.1268
20025SOL    HW161291   8.549   2.656   5.140  0.0499 -1.0320 -0.7060
20025SOL    HW261292   8.559   2.622   5.287 -0.6027  0.8181 -0.2176
20026SOL     OW61293   7.164   2.258   3.727 -0.5006  0.0723 -0.0417
20026SOL    HW161294   7.160   2.280   3.821  2.2500 -0.6457  0.3537
20026SOL    HW261295   7.183   2.342   3.685  0.0863  0.1159  0.2882
20027SOL     OW61296   8.525   3.071   3.877 -0.5779  0.0587  0.3246
20027SOL    HW161297   8.432   3.052   3.877 -0.9416  1.5878 -1.4324
20027SOL    HW261298   8.531   3.167   3.873  1.0433 -0.0349 -0.3763
20028SOL     OW61299   8.073   2.582   5.059  0.4452 -0.1057 -0.3890
20028SOL    HW161300   8.093   2.673   5.040 -2.4489  0.3916 -1.5970
20028SOL    HW261301   7.985   2.584   5.098 -0.1476 -2.4059 -1.3986
20029SOL     OW61302   8.091   2.239   5.351 -0.2418  0.1824 -0.5337
20029SOL    HW161303   8.045   2.158   5.328  2.9028 -2.4477  1.5793
20029SOL    HW261304   8.122   2.273   5.267  0.0882 -1.9928 -1.3585
20030SOL     OW61305   8.589   3.105   5.456 -0.2959 -0.6221  0.1481
20030SOL    HW161306   8.663   3.056   5.422  0.1528  0.7305 -0.8847
20030SOL    HW261307   8.605   3.111   5.550  0.5150 -0.9635  0.0362
20031SOL     OW61308   7.678   3.556   5.148  0.0097  0.0811  0.0109
20031SOL    HW161309   7.750   3.617   5.130  0.0886  0.3756  1.2837
20031SOL    HW261310   7.619   3.567   5.074  1.1087  0.0665 -0.9021
20032SOL     OW61311   8.757   2.463   3.969  0.2232  0.3973 -0.3101
20032SOL    HW161312   8.740   2.369   3.963  0.3600  0.3294  0.3521
20032SOL    HW261313   8.745   2.495   3.879  1.7075 -0.4952 -0.8518
20033SOL     OW61314   7.952   2.016   3.822 -0.3419 -0.6664  0.3270
20033SOL    HW161315   8.027   1.964   3.852 -0.4444 -0.4818  0.9051
20033SOL    HW261316   7.963   2.101   3.864  0.1435 -0.0035 -1.0786
20034SOL     OW61317   8.487   3.553   3.563 -0.4321  0.1874  0.1516
20034SOL    HW161318   8.478   3.634   3.513 -0.8170 -0.2505 -0.4868
20034SOL    HW261319   8.534   3.580   3.643 -2.9302  1.5810  1.2661
20035SOL     OW61320   8.051   3.377   4.384  0.1156  0.0978  0.1528
20035SOL    HW161321   8.026   3.462   4.420  0.8078  0.1128  0.6390
20035SOL    HW261322   8.042   3.386   4.289  1.5113  1.1833  0.0917
20036SOL     OW61323   8.572   2.689   4.442 -0.1118  0.6270 -0.1258
20036SOL    HW161324   8.645   2.733   4.486  1.2815 -1.4956 -0.1679
20036SOL    HW261325   8.516   2.659   4.513 -0.0908  0.8582 -0.0099
20037SOL     OW61326   8.202   2.808   3.468  0.2691 -0.2714  0.0065
20037SOL    HW161327   8.110   2.833   3.479  0.3378 -0.1115  0.2244
20037SOL    HW261328   8.248   2.891   3.455  0.0910 -0.4960 -2.3347
20038SOL     OW61329   7.681   3.020   5.319 -0.6734  0.0730 -0.2388
20038SOL    HW161330   7.645   2.970   5.246  0.6124 -0.0373 -0.8079
20038SOL    HW261331   7.620   3.093   5.330 -0.9399  0.0279 -1.3435
20039SOL     OW61332   7.703   2.955   4.151 -0.0377 -0.5328 -0.2529
20039SOL    HW161333   7.719   2.873   4.198 -1.0625  0.2974  1.7105
20039SOL    HW261334   7.611   2.975   4.170 -0.4933 -0.1005 -2.6586
20040SOL     OW61335   7.916   3.318   5.102  0.3148  0.4557 -0.1801
20040SOL    HW161336   7.832   3.320   5.055  0.9604  0.3613 -1.3885
20040SOL    HW261337   7.919   3.232   5.143  0.7374 -0.4159 -1.9417
20041SOL     OW61338   7.619   2.205   4.133  0.1658  0.5206  0.5431
20041SOL    HW161339   7.548   2.230   4.073  0.4143  2.6622  1.0713
20041SOL    HW261340   7.648   2.120   4.101 -2.9519 -0.7040  0.5793
20042SOL     OW61341   7.780   2.317   4.561 -0.3838  0.0059  0.2548
20042SOL    HW161342   7.803   2.227   4.536  0.4038  0.2951 -0.1071
20042SOL    HW261343   7.819   2.329   4.647 -0.5421 -0.0186  0.3300
20043SOL     OW61344   8.191   3.616   4.145  0.4454 -0.3755 -0.1829
20043SOL    HW161345   8.147   3.681   4.200  1.2198  0.3197 -0.3567
20043SOL    HW261346   8.123   3.554   4.121 -0.0580 -0.3021  0.9877
20044SOL     OW61347   0.268   2.454   4.780  0.4861 -0.4870 -0.6726
20044SOL    HW161348   0.183   2.497   4.790  1.3125  1.1361 -0.1167
20044SOL    HW261349   0.306   2.455   4.869  1.6603  0.1620 -1.1508
20045SOL     OW61350   8.849   2.487   4.659 -0.3077  0.5342 -0.2955
20045SOL    HW161351   8.827   2.539   4.581  0.4875 -1.5240 -1.9775
20045SOL    HW261352   8.766   2.482   4.707 -0.5429  2.8255 -0.3289
20046SOL     OW61353   8.300   3.220   4.135  0.1286 -0.4558  0.8269
20046SOL    HW161354   8.232   3.289   4.134 -0.0239 -0.5626 -1.0107
20046SOL    HW261355   8.365   3.251   4.072  0.9454 -1.1720  1.3097
20047SOL     OW61356   7.927   3.612   4.820 -0.2274  0.3415 -0.0790
20047SOL    HW161357   7.845   3.565   4.803  0.3633 -0.3239 -1.2544
20047SOL    HW261358   7.905   3.704   4.807 -1.1505  0.3262  1.1932
20048SOL     OW61359   8.737   2.198   3.916 -0.3309  0.0184 -0.3726
20048SOL    HW161360   8.756   2.136   3.986  0.2926  0.0139 -0.5429
20048SOL    HW261361   8.701   2.144   3.845 -1.8757  0.1420  0.2761
20049SOL     OW61362   7.132   2.663   4.096 -1.0781  0.3278  0.0087
20049SOL    HW161363   7.199   2.718   4.056  0.1526 -1.1198 -0.0159
20049SOL    HW261364   7.168   2.640   4.181 -1.4949 -0.5595 -0.0481
20050SOL     OW61365   8.562   3.757   3.773 -0.4270 -0.4155  0.3899
20050SOL    HW161366   8.553   3.852   3.781  2.2226 -0.2458  3.5165
20050SOL    HW261367   8.491   3.722   3.827  0.5061 -0.0477  1.9108
20051SOL     OW61368   7.094   2.531   5.782  1.0252  0.3129 -0.2651
20051SOL    HW161369   7.043   2.504   5.705 -0.3778  1.1319  0.3488
20051SOL    HW261370   7.076   2.464   5.847  1.2699  0.2563 -0.2529
20052SOL     OW61371   7.704   2.029   6.739  0.0341  0.1616 -0.4813
20052SOL    HW161372   7.757   2.103   6.769  0.5560 -0.3472 -0.1350
20052SOL    HW261373   7.638   2.018   6.806  0.5366 -0.2845 -0.0529
20053SOL     OW61374   7.396   2.256   5.891  0.6324  0.4875  0.0137
20053SOL    HW161375   7.376   2.316   5.820  1.4019  1.0013  0.2188
20053SOL    HW261376   7.325   2.268   5.954 -0.2370 -0.2203 -0.8059
20054SOL     OW61377   7.818   2.994   6.180  0.5673 -0.2908 -0.2038
20054SOL    HW161378   7.840   2.900   6.177 -0.4713 -0.5490 -3.2062
20054SOL    HW261379   7.890   3.036   6.133  1.5965  0.6759  2.0547
20055SOL     OW61380   0.057   3.553   6.268 -0.3980 -0.1378 -0.7580
20055SOL    HW161381   0.031   3.643   6.289 -2.4442 -0.6292 -0.9857
20055SOL    HW261382   0.094   3.519   6.350 -0.5508  0.5985 -0.3772
20056SOL     OW61383   8.212   3.211   6.344  0.5730 -0.1416 -0.2328
20056SOL    HW161384   8.147   3.248   6.404  0.4400  0.8207 -0.9471
20056SOL    HW261385   8.178   3.124   6.322  0.5968 -0.4910  1.0197
20057SOL     OW61386   8.566   2.950   6.554 -0.0618 -0.1417  0.2642
20057SOL    HW161387   8.574   3.045   6.553  0.7221 -0.1929 -0.4879
20057SOL    HW261388   8.542   2.928   6.643 -1.6157  0.8536  0.1219
20058SOL     OW61389   8.078   2.368   7.581 -0.2640 -0.1037 -0.0037
20058SOL    HW161390   8.135   2.301   7.617 -1.0422 -0.6652  0.2082
20058SOL    HW261391   8.105   2.378   7.490 -0.5425 -1.1548 -0.2088
20059SOL     OW61392   8.477   2.758   5.649  0.2012  0.0692  0.2903
20059SOL    HW161393   8.567   2.782   5.668  0.4597 -1.7842  1.6093
20059SOL    HW261394   8.425   2.823   5.697  0.8784 -1.1474  2.8494
20060SOL     OW61395   8.234   3.268   7.122 -0.4709  0.1653  0.0421
20060SOL    HW161396   8.296   3.336   7.097  0.1722 -0.4499 -0.0707
20060SOL    HW261397   8.288   3.199   7.160 -0.5215 -2.1492 -3.5776
20061SOL     OW61398   7.491   3.135   6.551 -0.0757  0.1750  0.1535
20061SOL    HW161399   7.417   3.075   6.554 -1.0493  1.2752 -0.5591
20061SOL    HW261400   7.513   3.140   6.458  1.2297 -0.5034  0.4075
20062SOL     OW61401   8.222   2.128   6.768 -0.2060  0.3587 -0.4965
20062SOL    HW161402   8.318   2.127   6.775 -0.2218 -0.5985 -0.2634
20062SOL    HW261403   8.194   2.053   6.820 -1.2250  1.8769  1.2373
20063SOL     OW61404   7.543   3.499   5.696  0.2888 -0.1476  0.1895
20063SOL    HW161405   7.533   3.468   5.786 -0.2276 -0.8939 -0.1146
20063SOL    HW261406   7.637   3.510   5.685  0.4689 -1.2669  0.4330
20064SOL     OW61407   8.287   3.158   6.748 -0.2593 -0.1030  0.7049
20064SOL    HW161408   8.282   3.110   6.831 -4.1135  0.5760  1.0210
20064SOL    HW261409   8.207   3.133   6.701 -0.9182  3.6297 -0.4242
20065SOL     OW61410   7.537   3.405   5.956  0.1006  0.3654 -0.2176
20065SOL    HW161411   7.572   3.448   6.035  0.9003 -0.1904 -0.2604
20065SOL    HW261412   7.477   3.338   5.990 -2.0760  2.2087 -0.1660
20066SOL     OW61413   7.937   2.758   6.165  0.3012  0.2829 -0.2990
20066SOL    HW161414   7.972   2.762   6.076  0.4755  2.6659 -0.1833
20066SOL    HW261415   7.973   2.677   6.201 -0.0609 -0.9373 -2.4779
20067SOL     OW61416   8.407   3.864   6.419 -0.4272  0.5807 -0.0139
20067SOL    HW161417   8.432   3.775   6.394 -0.0259  0.4685  0.7607
20067SOL    HW261418   8.474   3.921   6.382 -0.9521  0.6126 -0.9316
20068SOL     OW61419   7.902   2.872   5.568 -0.6858 -0.5726 -0.6298
20068SOL    HW161420   7.889   2.782   5.539  1.5023 -1.0882 -0.1735
20068SOL    HW261421   7.930   2.919   5.490  1.5853 -1.1296 -0.2198
20069SOL     OW61422   7.780   2.477   5.685  0.2477  0.2494 -0.5155
20069SOL    HW161423   7.729   2.418   5.740  0.2130 -0.4681 -1.3119
20069SOL    HW261424   7.825   2.534   5.747 -2.4319  1.7496  0.2477
20070SOL     OW61425   7.216   3.236   5.512  0.6894 -0.0567 -0.3170
20070SOL    HW161426   7.256   3.183   5.580 -1.3381  0.4391  1.3488
20070SOL    HW261427   7.238   3.326   5.535  2.0948  0.0073 -1.7751
20071SOL     OW61428   0.697   3.549   6.309 -0.1125 -0.2561  0.5435
20071SOL    HW161429   0.726   3.527   6.397  1.8877 -1.3691 -0.3295
20071SOL    HW261430   0.685   3.464   6.266 -2.1180  0.2366  0.0233
20072SOL     OW61431   7.673   2.805   6.824  0.3390  0.2506  0.2969
20072SOL    HW161432   7.715   2.868   6.765  0.9173  1.4270  1.8753
20072SOL    HW261433   7.612   2.858   6.876  0.2568 -0.6356  1.1247
20073SOL     OW61434   8.001   3.159   6.073 -0.4064  0.3661 -0.2838
20073SOL    HW161435   8.092   3.162   6.045  0.2382  2.2116  1.7517
20073SOL    HW261436   7.953   3.200   6.002  0.6179  1.1219 -0.5646
20074SOL     OW61437   8.701   3.117   7.042  0.0514  0.7643  0.2935
20074SOL    HW161438   8.639   3.145   6.975  0.6822  1.6083  0.0319
20074SOL    HW261439   8.775   3.081   6.992 -0.4901 -0.8488  0.6168
20075SOL     OW61440   8.208   1.892   6.175 -0.2914 -0.7158 -0.3506
20075SOL    HW161441   8.140   1.924   6.234 -1.3572  3.4939 -3.3999
20075SOL    HW261442   8.283   1.950   6.190  0.1693 -0.9400 -1.6332
20076SOL     OW61443   7.874   2.594   6.576 -0.0418 -0.5654  0.1382
20076SOL    HW161444   7.817   2.596   6.653 -1.5567  0.2057 -0.9468
20076SOL    HW261445   7.871   2.503   6.546 -0.9785 -0.4790 -0.0710
20077SOL     OW61446   8.762   3.642   7.122 -0.0372  0.1129  0.5965
20077SOL    HW161447   8.856   3.633   7.112  0.1539  1.7664  0.6588
20077SOL    HW261448   8.732   3.678   7.038 -0.9302 -2.1291 -0.1450
20078SOL     OW61449   8.118   2.506   6.902  0.3605 -0.1578 -0.0747
20078SOL    HW161450   8.027   2.525   6.882 -0.1152 -1.4191  0.7811
20078SOL    HW261451   8.118   2.415   6.930  2.0345 -0.4617 -0.9349
20079SOL     OW61452   8.235   2.502   5.865  0.2394 -0.5996 -0.0877
20079SOL    HW161453   8.204   2.509   5.775 -0.7443 -0.5533  0.2463
20079SOL    HW261454   8.245   2.407   5.880  1.0824 -0.5816 -0.4547
20080SOL     OW61455   0.215   2.550   6.300 -0.2046  0.6099  0.2918
20080SOL    HW161456   0.150   2.589   6.241 -0.8616 -2.2000 -1.0059
20080SOL    HW261457   0.296   2.597   6.281 -0.6852  0.6087 -1.9898
20081SOL     OW61458   8.429   1.930   6.511 -0.4909 -0.0032  0.2763
20081SOL    HW161459   8.492   1.990   6.550 -0.0026 -0.3108 -0.0357
20081SOL    HW261460   8.442   1.940   6.416  0.2320 -1.2606  0.2255
20082SOL     OW61461   0.055   2.334   7.406  0.1162 -0.1003 -0.5312
20082SOL    HW161462   0.141   2.365   7.434 -1.4958  2.3624  2.3187
20082SOL    HW261463   0.029   2.394   7.336  0.1845 -0.0142 -0.4825
20083SOL     OW61464   8.339   2.227   7.486  0.2751 -0.0227  0.0082
20083SOL    HW161465   8.351   2.141   7.446  2.1213 -1.2398  2.8509
20083SOL    HW261466   8.410   2.281   7.450  0.3622 -0.3129 -0.2536
20084SOL     OW61467   8.530   2.343   6.362  0.5902  0.4072 -1.0991
20084SOL    HW161468   8.494   2.311   6.280  1.3649 -0.4370 -1.1326
20084SOL    HW261469   8.463   2.402   6.397 -1.2544 -1.7857 -0.6895
20085SOL     OW61470   0.141   2.542   5.757  0.8041 -0.4005  0.0212
20085SOL    HW161471   0.230   2.543   5.794  0.9554  0.6999 -0.3236
20085SOL    HW261472   0.116   2.634   5.754 -0.5239 -0.7293  0.4932
20086SOL     OW61473   7.851   2.601   5.930 -0.5273 -0.6676 -0.6612
20086SOL    HW161474   7.796   2.671   5.964 -1.2539 -1.4302 -0.2251
20086SOL    HW261475   7.842   2.530   5.993  0.2568 -1.1321 -1.0533
20087SOL     OW61476   8.075   3.660   7.097 -0.0222  0.0758 -0.2120
20087SOL    HW161477   8.110   3.711   7.170 -0.1695 -0.9324  0.5895
20087SOL    HW261478   8.065   3.571   7.132 -0.1321 -0.4284 -1.4513
20088SOL     OW61479   8.454   2.111   5.104  0.4415 -0.0627 -0.1805
20088SOL    HW161480   8.501   2.085   5.184  1.7973 -0.9914 -1.2147
20088SOL    HW261481   8.456   2.207   5.104 -0.3193 -0.0307  1.2943
20089SOL     OW61482   8.840   3.430   6.037  0.0827  0.2306 -0.5122
20089SOL    HW161483   8.748   3.450   6.028  0.2528  1.1828 -0.1882
20089SOL    HW261484   8.864   3.462   6.124  0.9709  1.0166 -1.0217
20090SOL     OW61485   8.149   2.307   6.318 -0.1122  0.3641 -0.1556
20090SOL    HW161486   8.144   2.231   6.375 -0.0244  0.2346 -0.3214
20090SOL    HW261487   8.239   2.308   6.286 -0.3261  0.0867 -0.7740
20091SOL     OW61488   8.242   3.261   5.959  0.5189  0.1472 -0.1437
20091SOL    HW161489   8.302   3.277   5.886  0.0022  0.0444 -0.5998
20091SOL    HW261490   8.285   3.301   6.035  0.9200  0.5242 -0.5621
20092SOL     OW61491   7.496   3.795   6.353  0.0022  0.1595  0.0972
20092SOL    HW161492   7.554   3.866   6.382 -0.4836  0.3549  0.5852
20092SOL    HW261493   7.524   3.719   6.403  0.6393 -0.0496 -0.5531
20093SOL     OW61494   8.229   3.419   6.739  0.4306 -0.0407 -0.3182
20093SOL    HW161495   8.313   3.436   6.696  1.0396 -0.3934  0.6929
20093SOL    HW261496   8.230   3.325   6.757  0.8422  0.2838  1.6950
20094SOL     OW61497   7.871   2.908   5.853 -0.3656 -0.7823 -0.4074
20094SOL    HW161498   7.892   2.903   5.759  0.4786 -0.2964 -0.2577
20094SOL    HW261499   7.939   2.854   5.895  0.3355  0.4238  0.0562
20095SOL     OW61500   7.922   3.000   6.873  0.1734 -0.1319  0.2051
20095SOL    HW161501   7.910   3.005   6.778 -0.9703 -2.7100  0.1225
20095SOL    HW261502   7.874   3.075   6.907 -1.0126 -0.2084 -1.1966
20096SOL     OW61503   8.475   3.763   5.857  1.0392 -0.5023  0.1311
20096SOL    HW161504   8.444   3.693   5.800  1.7479 -1.9504  1.4412
20096SOL    HW261505   8.395   3.802   5.892  0.6237 -0.2983 -1.0027
20097SOL     OW61506   7.840   1.976   7.067 -0.0720  0.0924 -0.0810
20097SOL    HW161507   7.801   1.888   7.059  1.0214 -0.5969  1.4946
20097SOL    HW261508   7.863   1.983   7.160  0.7724  1.6679 -0.3754
20098SOL     OW61509   7.811   3.509   5.664 -0.1363 -0.1692  0.2859
20098SOL    HW161510   7.905   3.496   5.681 -0.2159 -0.6951  0.3392
20098SOL    HW261511   7.800   3.489   5.571 -0.0363  0.8132  0.0592
20099SOL     OW61512   7.579   3.733   7.129  0.0235 -0.5383  0.6385
20099SOL    HW161513   7.599   3.640   7.140 -2.4176 -1.0813  0.9687
20099SOL    HW261514   7.630   3.760   7.053  0.4039 -2.2636  0.2452
20100SOL     OW61515   7.827   3.176   6.386 -0.5652  0.3820 -0.0213
20100SOL    HW161516   7.827   3.114   6.314 -2.0646 -0.7946  0.9188
20100SOL    HW261517   7.768   3.245   6.358 -0.5050  0.3449 -0.2414
20101SOL     OW61518   7.976   2.190   5.871  0.2814 -0.2629  0.3492
20101SOL    HW161519   7.967   2.210   5.964 -0.8347 -1.2647  0.4868
20101SOL    HW261520   7.931   2.261   5.826  0.9049  0.2729  0.5614
20102SOL     OW61521   8.493   2.044   5.952  0.9993  0.0858  0.0568
20102SOL    HW161522   8.435   1.981   5.910 -0.5864  1.2181  0.4527
20102SOL    HW261523   8.523   2.101   5.881  1.3009 -0.2416 -0.0822
20103SOL     OW61524   8.308   2.204   7.121  0.3435  0.3718  0.8078
20103SOL    HW161525   8.216   2.183   7.109  0.4763 -0.5346  1.3163
20103SOL    HW261526   8.309   2.298   7.140 -0.4842  0.3522  0.9804
20104SOL     OW61527   7.808   3.663   6.421  0.2238  0.5756 -0.2656
20104SOL    HW161528   7.855   3.727   6.476  0.2335  0.3014  0.0442
20104SOL    HW261529   7.846   3.676   6.333  1.0075  0.2385  0.0137
20105SOL     OW61530   8.583   2.435   6.874 -0.2684  0.2186  0.0055
20105SOL    HW161531   8.561   2.415   6.965  0.0051 -1.2582 -0.2179
20105SOL    HW261532   8.678   2.441   6.873 -0.1473 -1.2673 -0.4159
20106SOL     OW61533   8.115   2.739   6.586  0.4875 -0.4756 -0.6660
20106SOL    HW161534   8.023   2.712   6.586  0.4572 -0.3748 -1.1457
20106SOL    HW261535   8.164   2.657   6.579  0.3832 -0.4008 -3.0656
20107SOL     OW61536   8.806   2.681   6.172  0.0499 -0.4690  0.0414
20107SOL    HW161537   8.783   2.601   6.218 -0.9749 -0.9134 -1.1914
20107SOL    HW261538   8.748   2.748   6.209 -2.0905 -1.2035 -1.7777
20108SOL     OW61539   8.247   2.227   5.897 -0.4365  0.5807 -0.1603
20108SOL    HW161540   8.285   2.205   5.812  0.2466 -1.1910  0.5677
20108SOL    HW261541   8.159   2.190   5.895 -0.6952  1.1860 -0.3488
20109SOL     OW61542   8.423   3.258   5.751 -0.3636 -0.3522  0.1814
20109SOL    HW161543   8.379   3.213   5.679 -1.7262 -0.0374  0.7863
20109SOL    HW261544   8.481   3.321   5.708 -0.5496 -0.7323 -0.6416
20110SOL     OW61545   8.095   2.005   4.897  0.2427  0.0713 -0.0299
20110SOL    HW161546   8.181   2.037   4.871  0.7805  0.1766  1.7539
20110SOL    HW261547   8.050   2.082   4.932 -0.2096 -0.1777 -0.0551
20111SOL     OW61548   7.933   1.830   6.065  0.2624 -0.4736  0.0408
20111SOL    HW161549   7.856   1.881   6.040  0.0962  0.1350  1.6776
20111SOL    HW261550   8.006   1.892   6.060  0.0827 -0.0711  1.8914
20112SOL     OW61551   8.836   2.526   7.231  0.1562 -0.2158  0.2630
20112SOL    HW161552   8.841   2.528   7.136 -1.0699  0.6374  0.1972
20112SOL    HW261553   8.813   2.616   7.256  0.3297 -0.4547  1.3634
20113SOL     OW61554   8.172   3.532   6.398  0.4190  0.0214  0.2164
20113SOL    HW161555   8.262   3.528   6.430  0.5324  0.5007 -0.0286
20113SOL    HW261556   8.135   3.446   6.420  1.2262 -0.5436 -0.5321
20114SOL     OW61557   8.106   2.785   5.923 -0.0920  0.7651 -0.4413
20114SOL    HW161558   8.132   2.698   5.894  0.1748  0.1304  1.5878
20114SOL    HW261559   8.168   2.844   5.880  2.0620 -0.3678  0.9685
20115SOL     OW61560   8.393   4.032   6.066 -0.5299 -0.1700  0.2587
20115SOL    HW161561   8.337   3.970   6.019 -0.2563  0.8500 -1.5139
20115SOL    HW261562   8.350   4.116   6.054  0.6484  0.4179  0.0783
20116SOL     OW61563   8.294   2.380   5.458 -0.2403  0.5051  0.0978
20116SOL    HW161564   8.229   2.320   5.424 -1.2700  0.5884  1.7721
20116SOL    HW261565   8.243   2.453   5.494  0.7047  0.4289  1.7374
20117SOL     OW61566   7.483   2.226   6.808 -0.1634 -0.0903  0.0535
20117SOL    HW161567   7.487   2.145   6.858  1.9268  1.3638  2.4785
20117SOL    HW261568   7.472   2.295   6.874  0.2609  1.7747 -1.7079
20118SOL     OW61569   7.909   1.922   6.583  0.4686  0.1433 -0.5350
20118SOL    HW161570   7.902   1.826   6.580  1.2738  0.0513  0.2643
20118SOL    HW261571   7.826   1.950   6.623  0.9919 -0.3589  0.9686
20119SOL     OW61572   0.300   2.815   6.497 -0.3394 -0.4437  0.0174
20119SOL    HW161573   0.344   2.898   6.480 -0.1104 -0.5892 -0.1032
20119SOL    HW261574   0.207   2.836   6.494 -0.3592 -0.5998 -2.2435
20120SOL     OW61575   8.386   2.299   6.137  0.8482  0.0037 -0.3765
20120SOL    HW161576   8.434   2.360   6.082 -0.3955  0.4626 -1.0067
20120SOL    HW261577   8.367   2.224   6.081 -0.7453  0.6328 -0.7562
20121SOL     OW61578   7.954   2.956   5.297  0.2221 -0.0529 -0.3128
20121SOL    HW161579   7.944   2.937   5.203  0.5190 -1.4440 -0.0864
20121SOL    HW261580   7.869   2.989   5.324 -0.0186 -0.1182 -0.9803
20122SOL     OW61581   0.151   2.411   5.504 -0.1221 -0.0422 -1.0013
20122SOL    HW161582   0.055   2.404   5.507 -0.0477 -2.2983 -2.0365
20122SOL    HW261583   0.174   2.451   5.588 -1.8855 -0.7476 -0.1247
20123SOL     OW61584   8.043   1.927   5.571  0.3315 -0.4933 -0.1660
20123SOL    HW161585   8.053   1.832   5.563 -1.0899 -0.5808 -1.1835
20123SOL    HW261586   8.124   1.962   5.534  0.4392 -1.2849 -0.7030
20124SOL     OW61587   0.105   3.022   6.698 -0.8946  0.0230  0.0550
20124SOL    HW161588   0.076   2.976   6.619 -1.5904 -0.6213  0.6606
20124SOL    HW261589   0.104   2.954   6.766 -0.0288  0.4978  0.5613
20125SOL     OW61590   0.034   3.301   6.716  0.1020 -0.1448 -0.7454
20125SOL    HW161591   0.086   3.319   6.794  0.7722  1.8243 -1.5939
20125SOL    HW261592   0.045   3.206   6.701  0.8492 -0.3436  0.8932
20126SOL     OW61593   8.809   1.929   6.733 -0.1281  0.2869  0.0189
20126SOL    HW161594   8.811   2.003   6.672 -0.0058 -0.3536 -0.7735
20126SOL    HW261595   8.807   1.969   6.820  1.9475  1.2443 -0.3056
20127SOL     OW61596   8.514   2.580   7.369  0.6234 -0.1172 -0.5298
20127SOL    HW161597   8.451   2.641   7.331 -0.4346 -0.7000  0.2315
20127SOL    HW261598   8.528   2.514   7.301  0.4025  0.0086 -0.6976
20128SOL     OW61599   8.334   2.920   6.189 -0.3329 -0.8503 -0.2603
20128SOL    HW161600   8.253   2.933   6.239  0.3198 -0.4981  0.7315
20128SOL    HW261601   8.340   2.826   6.175 -0.4395 -0.9637  0.4686
20129SOL     OW61602   8.146   2.459   6.604 -0.2094  0.1229 -0.1272
20129SOL    HW161603   8.182   2.449   6.691 -0.8614  1.4112  0.3215
20129SOL    HW261604   8.111   2.372   6.582 -1.7957  0.2124  1.7257
20130SOL     OW61605   8.496   2.186   6.780 -0.1692  0.5194 -0.8515
20130SOL    HW161606   8.490   2.275   6.813  0.9840  0.5934 -0.7773
20130SOL    HW261607   8.561   2.191   6.709  2.4424 -0.7615  1.2471
20131SOL     OW61608   7.396   3.522   6.527  0.4445 -0.4547  0.1660
20131SOL    HW161609   7.400   3.503   6.621 -1.1051 -2.8193 -0.1717
20131SOL    HW261610   7.377   3.438   6.486 -1.9605  1.0222 -2.0311
20132SOL     OW61611   7.514   2.957   6.297  0.1265 -1.1336 -0.4455
20132SOL    HW161612   7.581   2.997   6.241  1.4726  0.7002  2.2259
20132SOL    HW261613   7.542   2.865   6.305  1.9518 -0.6005 -0.0522
20133SOL     OW61614   8.132   2.577   6.263  0.4667  0.4364 -0.2374
20133SOL    HW161615   8.216   2.592   6.220  1.3077 -1.2891  0.6975
20133SOL    HW261616   8.131   2.483   6.281 -1.2130  0.6023  0.7103
20134SOL     OW61617   8.308   3.408   6.191 -0.8150 -0.1628 -0.9575
20134SOL    HW161618   8.277   3.492   6.226  1.1749  0.7586 -1.3146
20134SOL    HW261619   8.266   3.342   6.247  0.4699  1.1883  1.7893
20135SOL     OW61620   0.333   3.845   6.611 -0.1314  0.1988 -0.2552
20135SOL    HW161621   0.367   3.844   6.701  0.8948  1.9163 -0.5778
20135SOL    HW261622   0.263   3.910   6.613  1.4718  2.0628 -1.1623
20136SOL     OW61623   7.563   3.443   6.762 -0.4974  0.4772 -0.6692
20136SOL    HW161624   7.587   3.359   6.722  0.0535  0.6959 -0.7988
20136SOL    HW261625   7.624   3.506   6.724 -1.0598  0.9837 -0.7504
20137SOL     OW61626   8.316   2.754   6.887  0.2537  0.3640  0.0706
20137SOL    HW161627   8.271   2.827   6.931  1.5052  0.0513  1.9771
20137SOL    HW261628   8.256   2.680   6.895 -0.0610  0.6289  0.1605
20138SOL     OW61629   8.353   1.778   7.567 -0.3174  0.4546 -0.2941
20138SOL    HW161630   8.294   1.753   7.639 -1.4660 -0.1720 -1.4245
20138SOL    HW261631   8.440   1.753   7.598 -1.0772 -2.3930 -0.2154
20139SOL     OW61632   8.098   1.961   6.959 -0.1888  0.5231 -0.1153
20139SOL    HW161633   8.142   1.910   7.027  0.0933  1.6516  0.5813
20139SOL    HW261634   8.005   1.960   6.984 -0.1613  0.4839 -0.0171
20140SOL     OW61635   7.834   2.309   6.565 -0.9738 -0.0700  0.5404
20140SOL    HW161636   7.915   2.282   6.522 -1.4817 -1.0055  0.1346
20140SOL    HW261637   7.851   2.295   6.658 -0.5724 -0.0050  0.4774
20141SOL     OW61638   0.411   3.051   6.398 -0.2715  0.1120  0.0422
20141SOL    HW161639   0.463   3.116   6.445 -2.6975  2.1974  0.0257
20141SOL    HW261640   0.425   3.071   6.305  0.1705 -0.4277 -0.0164
20142SOL     OW61641   8.746   2.436   5.566  0.0586 -0.3421 -0.0249
20142SOL    HW161642   8.759   2.516   5.616  2.3377 -1.1437  0.7945
20142SOL    HW261643   8.658   2.445   5.528 -0.4421  1.7267  1.4616
20143SOL     OW61644   7.640   1.778   7.037 -0.0252  0.0517 -0.3857
20143SOL    HW161645   7.655   1.717   7.109 -0.5686  1.2018  0.7406
20143SOL    HW261646   7.694   1.745   6.965  1.7745 -0.2379  1.0426
20144SOL     OW61647   7.758   2.777   6.399 -0.2232 -0.2234 -0.5879
20144SOL    HW161648   7.731   2.820   6.481  1.5623  0.5373 -0.3485
20144SOL    HW261649   7.813   2.704   6.427 -2.0075 -1.8252 -1.0574
20145SOL     OW61650   8.359   2.536   6.468 -0.6258  0.2492 -0.1882
20145SOL    HW161651   8.392   2.551   6.556  1.3182  0.3211 -0.8619
20145SOL    HW261652   8.264   2.540   6.476 -0.4656  1.2252  1.7101
20146SOL     OW61653   7.193   2.189   6.064 -0.5382  0.2325  0.2364
20146SOL    HW161654   7.255   2.188   6.137  0.0044  1.4270 -0.1825
20146SOL    HW261655   7.166   2.098   6.054  0.3829 -0.1453  1.0790
20147SOL     OW61656   0.302   2.882   6.085  0.1707  0.6113  0.0640
20147SOL    HW161657   0.343   2.799   6.107 -1.7810 -0.5472 -0.4445
20147SOL    HW261658   0.317   2.893   5.991  2.9225  2.3616  0.5797
20148SOL     OW61659   8.670   2.678   6.574 -0.4070  0.2525 -0.1045
20148SOL    HW161660   8.620   2.742   6.523 -1.3595 -0.6780 -0.3730
20148SOL    HW261661   8.606   2.643   6.636 -0.1900 -1.2224 -0.6934
20149SOL     OW61662   8.590   3.450   7.239  0.5937  0.3605 -0.2687
20149SOL    HW161663   8.509   3.452   7.187  0.5500  0.9098 -0.1887
20149SOL    HW261664   8.638   3.528   7.211  0.9717  0.1830 -0.1178
20150SOL     OW61665   8.354   3.081   7.283 -0.5682 -0.6671  0.6710
20150SOL    HW161666   8.286   3.097   7.348 -0.7859  0.6226  0.1631
20150SOL    HW261667   8.437   3.094   7.330 -0.7070 -0.5521  0.8833
20151SOL     OW61668   8.814   2.607   5.033  0.4669  0.2921 -0.3894
20151SOL    HW161669   8.843   2.519   5.057  1.3890  0.4324 -0.9571
20151SOL    HW261670   8.743   2.626   5.094 -1.7682 -1.9971 -2.0950
20152SOL     OW61671   8.050   3.000   6.610  0.0503 -0.0771 -0.0793
20152SOL    HW161672   8.100   2.924   6.641  1.3304  1.2127  1.2340
20152SOL    HW261673   8.038   2.984   6.516 -1.0026 -2.5532  0.3983
20153SOL     OW61674   8.108   2.893   6.330 -0.0763  0.1496  0.3691
20153SOL    HW161675   8.054   2.847   6.266  0.5585 -0.2241  0.0891
20153SOL    HW261676   8.100   2.841   6.410 -0.2023  0.1456  0.3539
20154SOL     OW61677   7.915   2.276   6.148 -0.0559  0.5275 -0.3114
20154SOL    HW161678   7.914   2.195   6.200 -1.2696  0.9053  0.3093
20154SOL    HW261679   7.972   2.335   6.197  0.9289  0.0259 -0.8292
20155SOL     OW61680   8.657   2.248   7.464 -0.4093 -0.2218 -0.2458
20155SOL    HW161681   8.646   2.193   7.387  0.7140 -3.1416  1.5274
20155SOL    HW261682   8.737   2.297   7.448  0.0558 -1.1336 -0.7557
20156SOL     OW61683   8.583   2.139   7.193 -0.0196 -0.1594  0.1626
20156SOL    HW161684   8.628   2.080   7.132 -1.3030  0.1457 -1.1500
20156SOL    HW261685   8.490   2.130   7.170 -0.3793  1.1637  1.0228
20157SOL     OW61686   7.453   3.207   5.260  0.6313  0.0970 -0.4799
20157SOL    HW161687   7.391   3.239   5.326  0.9602  4.1196 -1.8814
20157SOL    HW261688   7.399   3.155   5.200 -0.5618  0.1710  0.4890
20158SOL     OW61689   7.215   3.858   6.309 -0.6040  0.3400 -0.0654
20158SOL    HW161690   7.166   3.801   6.368 -0.0387 -0.5101 -0.4008
20158SOL    HW261691   7.302   3.819   6.304 -0.3525  0.9556 -0.6911
20159SOL     OW61692   7.626   3.409   6.247  0.4602 -0.0527  0.1710
20159SOL    HW161693   7.705   3.396   6.195  0.3943  0.4515 -0.0583
20159SOL    HW261694   7.644   3.487   6.300 -0.4485  1.0023 -0.9999
20160SOL     OW61695   8.541   2.911   6.847  0.1797  0.2759 -0.1169
20160SOL    HW161696   8.459   2.862   6.850  0.5853 -0.4285 -0.3842
20160SOL    HW261697   8.608   2.847   6.870  0.8086  0.4926 -1.2945
20161SOL     OW61698   7.566   2.422   6.537 -0.2713  0.1274 -0.0713
20161SOL    HW161699   7.503   2.415   6.609 -2.0486 -1.0130 -1.6342
20161SOL    HW261700   7.641   2.370   6.566 -0.8348 -0.0841  1.0743
20162SOL     OW61701   7.913   2.878   7.113  0.8127 -0.0095  0.1110
20162SOL    HW161702   7.951   2.956   7.153  1.4648 -0.3180  0.1137
20162SOL    HW261703   7.924   2.891   7.019  0.0904  0.3116  0.0671
20163SOL     OW61704   8.598   2.425   6.028  0.1864  0.4730 -0.4849
20163SOL    HW161705   8.689   2.452   6.042  1.0940 -2.5837  0.3347
20163SOL    HW261706   8.603   2.357   5.960 -1.2588 -0.6598  0.4631
20164SOL     OW61707   8.014   3.400   7.207 -0.4285  0.0985  0.3752
20164SOL    HW161708   8.089   3.363   7.159  0.9207  2.3313  0.6299
20164SOL    HW261709   7.941   3.392   7.146  0.6308  0.2982 -0.9898
20165SOL     OW61710   8.057   2.147   6.555 -0.9081  0.3016 -0.3491
20165SOL    HW161711   7.986   2.086   6.579 -0.9149 -0.0760 -1.2863
20165SOL    HW261712   8.112   2.151   6.633 -1.2386 -0.4414 -0.0632
20166SOL     OW61713   8.665   3.466   6.825 -0.6846 -0.5630  0.2525
20166SOL    HW161714   8.646   3.386   6.776 -0.9328  0.7006 -1.8124
20166SOL    HW261715   8.757   3.484   6.807 -1.1254  0.6556 -0.9539
20167SOL     OW61716   7.544   2.343   5.538 -0.7891  0.2878 -0.1570
20167SOL    HW161717   7.605   2.417   5.530 -0.3747 -0.1362 -1.0930
20167SOL    HW261718   7.458   2.381   5.524 -0.5022  0.4638 -1.6254
20168SOL     OW61719   7.747   2.976   6.604 -0.0859  0.3444  0.0187
20168SOL    HW161720   7.821   3.007   6.552 -0.2642  0.3579 -0.2286
20168SOL    HW261721   7.677   3.039   6.586 -0.1639  0.3214  0.2368
20169SOL     OW61722   0.263   3.271   6.915  0.0148  0.1328 -0.7298
20169SOL    HW161723   0.311   3.261   6.834  1.1385  0.5119 -0.1294
20169SOL    HW261724   0.314   3.333   6.967  0.3384 -1.4708  1.0117
20170SOL     OW61725   0.323   2.778   5.681 -0.3194 -0.4353  0.2393
20170SOL    HW161726   0.242   2.824   5.702 -0.0039  0.3860 -0.2939
20170SOL    HW261727   0.349   2.814   5.596 -0.2716 -1.8764 -0.3840
20171SOL     OW61728   8.783   3.812   6.351 -0.0737  0.0900  0.2379
20171SOL    HW161729   8.752   3.864   6.277  0.4014 -0.4686 -0.3764
20171SOL    HW261730   8.804   3.876   6.419  0.8469  0.7436 -0.6295
20172SOL     OW61731   7.074   2.720   6.213 -0.1337 -0.1493  0.6062
20172SOL    HW161732   7.124   2.639   6.204 -0.4826 -0.1979 -1.2495
20172SOL    HW261733   6.996   2.695   6.263 -0.7571 -1.2329 -0.8517
20173SOL     OW61734   8.825   3.937   6.805  0.2777 -0.2905 -0.1200
20173SOL    HW161735   8.894   3.926   6.870  0.7869  0.5562 -0.5042
20173SOL    HW261736   8.762   3.867   6.825  1.7911 -1.8231 -0.4904
20174SOL     OW61737   8.613   4.017   6.257  0.0640 -0.1794 -0.5953
20174SOL    HW161738   8.581   4.107   6.264 -0.1918 -0.3228  0.1778
20174SOL    HW261739   8.576   3.984   6.176  0.7658  0.6508 -1.2662
20175SOL     OW61740   7.505   4.079   7.224  0.1775  0.2325 -0.4599
20175SOL    HW161741   7.458   4.031   7.292  0.9558  2.4289  1.7741
20175SOL    HW261742   7.597   4.052   7.234  0.2641  0.3819 -0.8226
20176SOL     OW61743   0.044   3.020   6.240 -0.8487 -0.6086  0.3795
20176SOL    HW161744   0.068   2.952   6.177  0.6602  0.2027  0.0297
20176SOL    HW261745   0.058   2.979   6.325  0.6439 -0.6016  0.1779
20177SOL     OW61746   8.568   3.181   6.804  0.0950 -0.7012 -0.5497
20177SOL    HW161747   8.476   3.189   6.780 -0.2056 -2.4307 -0.1160
20177SOL    HW261748   8.583   3.086   6.810  1.6418 -0.4313  0.3789
20178SOL     OW61749   8.147   3.575   5.705  0.0890  0.2713 -0.5914
20178SOL    HW161750   8.235   3.580   5.667  0.2379  0.4965 -0.2248
20178SOL    HW261751   8.088   3.597   5.633  0.2298 -1.4090 -1.2696
20179SOL     OW61752   7.842   2.024   5.708 -0.2912  0.4208  0.4289
20179SOL    HW161753   7.910   1.986   5.652 -0.7800  0.2057 -0.0223
20179SOL    HW261754   7.891   2.063   5.781  0.3258  0.3681  0.0538
20180SOL     OW61755   8.477   3.533   5.651  0.1087 -0.6600 -0.2905
20180SOL    HW161756   8.470   3.506   5.559 -1.1447 -0.1073 -0.3814
20180SOL    HW261757   8.571   3.541   5.667  0.4166 -2.3191 -1.0489
20181SOL     OW61758   8.782   2.794   7.175  0.1511  0.3423 -0.2600
20181SOL    HW161759   8.768   2.815   7.083  2.2839  0.4926 -0.5917
20181SOL    HW261760   8.784   2.880   7.218 -0.1064  0.3064 -0.1708
20182SOL     OW61761   8.500   2.578   5.451 -0.1123 -0.0922 -0.2372
20182SOL    HW161762   8.475   2.645   5.515 -1.8356  0.8882 -1.8219
20182SOL    HW261763   8.441   2.505   5.469 -1.7247  0.8006 -1.6429
20183SOL     OW61764   8.204   2.990   6.969 -0.1594  0.0570  0.1465
20183SOL    HW161765   8.212   3.058   7.036  0.2799  0.2071 -0.0514
20183SOL    HW261766   8.123   3.011   6.923 -0.7338 -0.3428  0.9488
20184SOL     OW61767   0.011   2.875   6.486  0.0419 -0.3443 -0.1356
20184SOL    HW161768  -0.068   2.923   6.510  0.4172 -0.1589  0.7467
20184SOL    HW261769  -0.016   2.783   6.489 -0.2362 -0.2681 -0.2098
20185SOL     OW61770   8.617   2.130   6.532  0.4153  0.0459  0.0577
20185SOL    HW161771   8.587   2.195   6.469  0.4044  0.9110  0.9256
20185SOL    HW261772   8.713   2.134   6.527  0.4362  0.7720  0.7101
20186SOL     OW61773   7.785   3.251   5.846  0.3865  0.5314 -0.2119
20186SOL    HW161774   7.705   3.207   5.873  0.1000 -1.0950 -3.2511
20186SOL    HW261775   7.760   3.343   5.837 -0.8551  0.2225 -0.0980
20187SOL     OW61776   7.960   3.169   5.659  0.1651  0.0170 -0.5484
20187SOL    HW161777   7.937   3.076   5.662 -0.4840  0.1591 -1.0375
20187SOL    HW261778   7.901   3.210   5.723 -0.0026  0.1847 -0.8090
20188SOL     OW61779   8.035   3.094   7.209 -0.0152  0.3267  0.2700
20188SOL    HW161780   8.101   3.158   7.186  0.9574 -0.9376 -0.6083
20188SOL    HW261781   8.014   3.114   7.301  1.4436  0.8867  0.5179
20189SOL     OW61782   8.197   1.823   6.643 -0.9504 -0.3642  0.3621
20189SOL    HW161783   8.271   1.870   6.605  0.3351 -1.2009  1.6961
20189SOL    HW261784   8.120   1.869   6.610  0.1992  2.3004  1.0711
20190SOL     OW61785   7.487   2.190   5.133 -0.1944 -0.4041 -0.5933
20190SOL    HW161786   7.490   2.098   5.157  2.0977 -0.8190 -2.1692
20190SOL    HW261787   7.553   2.231   5.189 -4.1530  1.3431  3.4200
20191SOL     OW61788   0.003   2.776   6.893  0.0979 -0.1658 -0.6309
20191SOL    HW161789  -0.013   2.701   6.835  0.6772 -0.3004 -0.6269
20191SOL    HW261790   0.091   2.760   6.928  0.4976  0.8436 -1.1349
20192SOL     OW61791   7.190   1.879   5.456 -1.0867  0.0287 -0.1521
20192SOL    HW161792   7.148   1.797   5.484 -0.5106  0.0443  0.7941
20192SOL    HW261793   7.283   1.859   5.455 -1.0524  0.2077 -1.5287
20193SOL     OW61794   8.662   3.197   6.211  0.0454  0.2117  0.2986
20193SOL    HW161795   8.733   3.140   6.239  0.8280  1.6269  1.3667
20193SOL    HW261796   8.634   3.163   6.126  0.4891 -1.6988  0.8797
20194SOL     OW61797   8.456   2.616   6.715  0.0299 -0.1043  0.2963
20194SOL    HW161798   8.396   2.667   6.769 -0.7489 -2.0145  1.3416
20194SOL    HW261799   8.491   2.549   6.774  1.7734 -0.1992 -0.7672
20195SOL     OW61800   8.558   2.415   7.158  0.4335  0.6816  0.3436
20195SOL    HW161801   8.643   2.456   7.171  0.5090  0.0880  1.9257
20195SOL    HW261802   8.573   2.322   7.171 -0.6843  0.6992  2.1819
20196SOL     OW61803   8.702   2.736   7.485 -0.0114 -0.3579  0.1160
20196SOL    HW161804   8.694   2.829   7.468 -0.5582 -0.2097  1.1032
20196SOL    HW261805   8.616   2.700   7.463 -0.2723 -0.3831  1.1208
20197SOL     OW61806   8.043   3.587   6.802  0.6502  0.1467  0.1084
20197SOL    HW161807   8.114   3.531   6.772  0.2888  0.0695 -0.6225
20197SOL    HW261808   8.084   3.650   6.861  1.5573  0.9296 -1.2999
20198SOL     OW61809   8.359   2.172   5.646  0.2401 -0.3709 -0.0946
20198SOL    HW161810   8.413   2.101   5.610  0.0152 -0.4195 -0.3359
20198SOL    HW261811   8.345   2.231   5.573  0.1444 -0.2484  0.0227
20199SOL     OW61812   8.352   2.615   6.100 -0.0433 -0.3275  0.1849
20199SOL    HW161813   8.440   2.578   6.090 -0.1934 -0.5569 -0.3722
20199SOL    HW261814   8.304   2.582   6.023  0.1844  2.1070 -1.1121
20200SOL     OW61815   8.234   3.179   5.576 -0.0356 -0.1047 -0.3693
20200SOL    HW161816   8.217   3.217   5.490 -0.3156  1.4260  0.3245
20200SOL    HW261817   8.165   3.214   5.632  0.2682 -0.8945  0.5439
20201SOL     OW61818   7.834   3.465   6.104 -0.2805 -0.0372  0.1331
20201SOL    HW161819   7.827   3.552   6.064 -1.1829 -0.6111 -1.0408
20201SOL    HW261820   7.918   3.430   6.072 -0.2304  0.1458  0.0652
20202SOL     OW61821   8.578   2.838   6.279 -0.1837 -0.2357 -0.2586
20202SOL    HW161822   8.580   2.866   6.370  0.5113 -1.2664  0.0623
20202SOL    HW261823   8.497   2.875   6.244 -0.0458  0.8577  0.5472
20203SOL     OW61824   8.166   2.857   5.474  0.0642 -0.6999  0.2848
20203SOL    HW161825   8.214   2.937   5.453 -0.8548  0.1306  1.2363
20203SOL    HW261826   8.103   2.847   5.402  0.0313 -0.4424  0.2761
20204SOL     OW61827   7.697   3.087   7.141 -0.3208  0.2430 -0.4258
20204SOL    HW161828   7.673   2.995   7.128  1.4635 -0.7876  2.5975
20204SOL    HW261829   7.675   3.105   7.232  0.4373  2.5144 -0.6212
20205SOL     OW61830   7.406   3.257   6.306  0.1787  0.0152 -0.0731
20205SOL    HW161831   7.479   3.319   6.312 -1.5055  1.9900  1.6552
20205SOL    HW261832   7.403   3.233   6.214  1.8219  1.3459 -0.5396
20206SOL     OW61833   8.439   3.730   7.057 -0.0649 -0.0047  0.3871
20206SOL    HW161834   8.385   3.807   7.042  0.7294  0.3855 -0.6141
20206SOL    HW261835   8.453   3.728   7.151  0.3504  1.3903  0.3776
20207SOL     OW61836   7.679   2.313   5.975  0.3180 -0.0225  0.0451
20207SOL    HW161837   7.606   2.251   5.973 -1.3221  1.8054 -0.5713
20207SOL    HW261838   7.746   2.271   6.029 -0.5764 -2.4170 -0.5949
20208SOL     OW61839   7.854   2.246   6.829  0.3407  0.0208  0.6179
20208SOL    HW161840   7.926   2.237   6.892 -1.0377 -1.3991  2.0801
20208SOL    HW261841   7.783   2.286   6.879 -0.6203 -0.6650 -0.1495
20209SOL     OW61842   8.080   3.468   5.943 -0.1131  0.5494  0.0845
20209SOL    HW161843   8.137   3.394   5.960 -0.8030  0.0280  0.1601
20209SOL    HW261844   8.099   3.493   5.852  1.9170  1.8917  0.8069
20210SOL     OW61845   0.154   2.425   6.533 -0.3601  0.4013 -0.0202
20210SOL    HW161846   0.182   2.429   6.442 -0.0996  0.9864  0.0855
20210SOL    HW261847   0.084   2.490   6.540  1.7132  2.6566  0.9261
20211SOL     OW61848   8.617   1.970   6.950  0.3682  0.0247  0.1738
20211SOL    HW161849   8.604   2.045   6.891  0.0431 -0.2436 -0.1023
20211SOL    HW261850   8.548   1.909   6.926  0.4280 -0.2240  0.6273
20212SOL     OW61851   8.255   2.927   5.741  0.0311  0.3108  0.0157
20212SOL    HW161852   8.267   3.019   5.714 -0.5735  0.2481 -0.4986
20212SOL    HW261853   8.173   2.901   5.699 -0.6616  0.0348  1.4995
20213SOL     OW61854   7.835   3.500   6.659  0.0480  0.0709  0.0474
20213SOL    HW161855   7.805   3.564   6.594 -1.3114  0.0147  0.5931
20213SOL    HW261856   7.901   3.547   6.710 -0.9127  1.0779  0.4274
20214SOL     OW61857   8.567   2.081   5.340 -0.9351  0.1754 -0.3414
20214SOL    HW161858   8.600   2.166   5.371 -0.4513  0.1177 -0.6937
20214SOL    HW261859   8.535   2.038   5.419  0.1074  0.1152  0.0669
20215SOL     OW61860   7.643   3.027   5.942  0.1027 -0.4108  0.1081
20215SOL    HW161861   7.668   3.024   6.035  1.0527  1.0210 -0.0671
20215SOL    HW261862   7.716   2.985   5.897 -0.5299 -1.4410  0.0157
20216SOL     OW61863   8.230   3.854   5.945 -0.2519  0.4494  0.9626
20216SOL    HW161864   8.206   3.801   6.022 -0.6465 -0.0740  0.4858
20216SOL    HW261865   8.146   3.876   5.905 -0.0799  1.3208  1.0729
20217SOL     OW61866   7.761   2.809   7.331 -0.3515 -0.1490  0.7363
20217SOL    HW161867   7.676   2.793   7.289 -0.3676  0.5679  0.4861
20217SOL    HW261868   7.809   2.863   7.268  0.2941 -0.5362  0.8839
20218SOL     OW61869   7.429   2.333   8.255  0.0282  0.2938 -0.1742
20218SOL    HW161870   7.519   2.306   8.234  0.0711  0.5011 -0.2612
20218SOL    HW261871   7.384   2.251   8.276  0.8834  0.3948  2.4069
20219SOL     OW61872   7.370   2.690   7.676  0.4106 -0.9963  0.0226
20219SOL    HW161873   7.381   2.782   7.654 -0.0135 -0.9357  0.0596
20219SOL    HW261874   7.455   2.651   7.658 -0.0109 -1.0269 -2.0633
20220SOL     OW61875   8.037   2.957   0.126 -0.3758  0.1986 -0.4950
20220SOL    HW161876   8.029   2.904   0.205 -0.8822  0.7507 -0.1629
20220SOL    HW261877   8.074   2.898   0.060 -0.7584 -0.5013 -0.0854
20221SOL     OW61878   8.837   3.428   8.303  0.2666  0.3557 -0.4492
20221SOL    HW161879   8.909   3.425   8.366 -0.1174  1.5852  0.0897
20221SOL    HW261880   8.781   3.354   8.327  0.8082  0.0166 -0.2053
20222SOL     OW61881   8.192   3.000   8.173  0.0247 -0.0237  0.1851
20222SOL    HW161882   8.149   3.080   8.142 -0.0144 -0.8427 -2.0761
20222SOL    HW261883   8.281   3.006   8.139  0.7013  0.0668  1.9220
20223SOL     OW61884   7.938   3.594   8.147  0.0797  0.3527 -0.1015
20223SOL    HW161885   7.850   3.610   8.112  0.1680  1.0570 -0.0254
20223SOL    HW261886   7.936   3.503   8.177  0.1790 -0.5332 -2.5090
20224SOL     OW61887   7.962   2.790   7.796 -0.0377  0.0247 -0.0948
20224SOL    HW161888   7.885   2.847   7.801  1.4719  2.1769  0.3474
20224SOL    HW261889   7.927   2.701   7.798 -2.4203  0.8904  1.5695
20225SOL     OW61890   7.845   3.247   8.234 -0.1571 -0.8220 -0.3181
20225SOL    HW161891   7.789   3.185   8.188 -2.4855  0.0506  1.1446
20225SOL    HW261892   7.861   3.206   8.319 -0.5351 -0.0679  0.1317
20226SOL     OW61893   7.477   2.588   8.360  1.0267  0.1093  0.3616
20226SOL    HW161894   7.487   2.557   8.450 -3.3703  0.7282  1.3053
20226SOL    HW261895   7.491   2.511   8.306  2.7056 -0.5196  1.6254
20227SOL     OW61896   7.390   3.829   7.809  0.1545  0.3125  0.4834
20227SOL    HW161897   7.392   3.886   7.886  1.6905  0.9962 -0.0332
20227SOL    HW261898   7.367   3.887   7.736 -1.6611 -0.3957  0.4276
20228SOL     OW61899   7.662   3.731   7.764  0.2362 -0.5008  0.4888
20228SOL    HW161900   7.645   3.668   7.694 -1.2832 -0.3956  0.7183
20228SOL    HW261901   7.580   3.781   7.771  1.8416  2.5398 -0.7112
20229SOL     OW61902   7.269   3.223   8.411  0.1702  0.4907 -0.6211
20229SOL    HW161903   7.356   3.184   8.420 -0.6597 -1.0969  1.3386
20229SOL    HW261904   7.237   3.188   8.328  0.5699 -0.7061 -0.2903
20230SOL     OW61905   8.235   3.933   0.014  0.1373  0.8131 -0.1535
20230SOL    HW161906   8.196   3.928  -0.074 -0.3574 -0.8523  0.1310
20230SOL    HW261907   8.316   3.883   0.008  1.7098  3.2273 -0.4082
20231SOL     OW61908   8.299   2.775   7.328  0.5419 -0.0057  0.2224
20231SOL    HW161909   8.308   2.862   7.288  0.3266  0.7958  1.8587
20231SOL    HW261910   8.233   2.786   7.396 -0.7406 -1.8870 -0.6330
20232SOL     OW61911   0.038   2.298   8.379 -0.1916  0.4933 -0.6641
20232SOL    HW161912   0.112   2.242   8.405 -1.2558 -0.9381 -0.6196
20232SOL    HW261913   0.036   2.291   8.283  0.2731  1.2801 -0.7438
20233SOL     OW61914   7.708   2.311   7.878 -0.6271  0.3874 -0.2098
20233SOL    HW161915   7.758   2.369   7.936  1.2505  0.7356 -2.0249
20233SOL    HW261916   7.630   2.361   7.854 -0.5971  0.8863  0.7029
20234SOL     OW61917   7.783   3.426   7.062  0.3525 -0.3773  0.2036
20234SOL    HW161918   7.731   3.436   7.142  0.4302  0.0710  0.2016
20234SOL    HW261919   7.783   3.513   7.023  0.8983 -0.4332  0.0717
20235SOL     OW61920   0.022   2.918   8.121  0.7839  0.3022  0.3822
20235SOL    HW161921  -0.066   2.886   8.138  0.7641 -1.0268 -1.7587
20235SOL    HW261922   0.030   2.916   8.026  3.4695 -0.6555  0.5444
20236SOL     OW61923   7.678   3.162   7.805 -0.4762  0.2615 -0.1182
20236SOL    HW161924   7.621   3.204   7.869  0.9851  0.3632  1.1861
20236SOL    HW261925   7.704   3.080   7.847  1.6725  0.9971  0.1189
20237SOL     OW61926   8.011   1.886   7.656  0.2141  0.3789  0.6600
20237SOL    HW161927   7.940   1.910   7.597  1.0764 -0.6993 -0.8902
20237SOL    HW261928   8.049   1.807   7.617  0.7611 -0.4537  2.7252
20238SOL     OW61929   7.751   3.007   8.105  0.2919  0.6980  0.0508
20238SOL    HW161930   7.745   2.964   8.019  1.2590  1.6077 -0.4966
20238SOL    HW261931   7.750   2.935   8.168 -1.7706  0.0692 -0.6268
20239SOL     OW61932   7.845   2.233   7.612 -0.1585  0.6383 -0.3206
20239SOL    HW161933   7.820   2.283   7.690 -0.9869  0.7208 -0.6375
20239SOL    HW261934   7.918   2.283   7.575  1.0192 -0.0003  1.0090
20240SOL     OW61935   0.114   1.673   8.451 -0.1740  0.1187  0.0655
20240SOL    HW161936   0.110   1.590   8.499  1.1848  0.1267  0.2193
20240SOL    HW261937   0.113   1.740   8.519  1.1373  0.1475  0.0681
20241SOL     OW61938   8.077   2.993   8.632  0.3627  0.6020 -0.7316
20241SOL    HW161939   8.051   2.911   8.673 -0.3587  1.9665  1.7282
20241SOL    HW261940   8.160   2.972   8.588  1.6133 -0.8809  2.0531
20242SOL     OW61941   8.296   2.110   8.677  0.0178  0.3965  0.8820
20242SOL    HW161942   8.367   2.118   8.614  0.2118 -0.1483  1.0264
20242SOL    HW261943   8.231   2.175   8.649 -0.4994 -0.7438 -0.6596
20243SOL     OW61944   8.195   2.676   7.940 -0.0187 -0.1387  0.4015
20243SOL    HW161945   8.246   2.650   7.863 -0.7970  0.5811 -0.3814
20243SOL    HW261946   8.122   2.727   7.905  0.5585  1.7398  1.7104
20244SOL     OW61947   7.267   3.008   8.091  0.1596 -0.0485 -0.4254
20244SOL    HW161948   7.310   3.062   8.024 -0.8004 -0.2143 -1.2017
20244SOL    HW261949   7.195   3.061   8.122  0.2618 -0.2014  0.0782
20245SOL     OW61950   7.608   3.751   0.024 -0.2363  0.0855  0.0551
20245SOL    HW161951   7.518   3.752   0.057 -0.1317 -1.0992  0.4178
20245SOL    HW261952   7.638   3.841   0.033 -1.2301  0.3965  0.3657
20246SOL     OW61953   8.274   1.981   7.389  0.3526 -0.2608  0.0565
20246SOL    HW161954   8.289   1.909   7.451 -0.0284  0.3285  0.8597
20246SOL    HW261955   8.284   1.941   7.303 -0.7813 -1.5024  0.4634
20247SOL     OW61956   0.135   3.268   8.044 -0.1598 -0.0285 -0.2276
20247SOL    HW161957   0.225   3.237   8.050  0.0324  0.4399 -0.6552
20247SOL    HW261958   0.132   3.344   8.101  0.3347  1.3483 -1.9438
20248SOL     OW61959   7.671   2.237   8.208 -0.0538  0.5097  0.1601
20248SOL    HW161960   7.711   2.150   8.214 -0.9227  0.0839  0.0338
20248SOL    HW261961   7.740   2.298   8.233  0.4968 -0.2365  0.4834
20249SOL     OW61962   8.574   3.335   7.910  0.8334 -0.3309  0.0830
20249SOL    HW161963   8.518   3.374   7.843  2.2567  2.0708  0.1636
20249SOL    HW261964   8.567   3.394   7.985  0.5437 -2.0754  1.4994
20250SOL     OW61965   7.822   3.549   8.441 -0.0924 -0.2143 -0.0673
20250SOL    HW161966   7.915   3.525   8.452 -0.0232  0.2775  0.4891
20250SOL    HW261967   7.779   3.512   8.518 -0.1159  0.7377  0.3952
20251SOL     OW61968   7.314   3.152   7.854 -0.0707 -0.0879 -0.5839
20251SOL    HW161969   7.287   3.230   7.807 -1.9512  0.8948  1.9033
20251SOL    HW261970   7.258   3.082   7.820 -1.4216  0.6112  0.1504
20252SOL     OW61971   8.774   3.870   7.291  0.2622 -0.1729  0.2709
20252SOL    HW161972   8.703   3.813   7.263  2.2288 -3.1159  0.7909
20252SOL    HW261973   8.800   3.918   7.212  1.0074 -2.9066 -1.2498
20253SOL     OW61974   7.763   3.936   7.252  0.2585  0.4184 -0.2265
20253SOL    HW161975   7.686   3.882   7.234 -0.1592  1.1158 -0.5376
20253SOL    HW261976   7.832   3.899   7.196  0.0982 -0.0712 -0.1060
20254SOL     OW61977   7.098   3.549   8.627 -0.3122  0.4076 -0.4570
20254SOL    HW161978   7.152   3.599   8.688  0.8315  0.9937 -1.8641
20254SOL    HW261979   7.100   3.460   8.661 -0.4270  0.8742  0.8153
20255SOL     OW61980   8.374   3.744   8.539  0.0075  0.0812 -0.2894
20255SOL    HW161981   8.420   3.677   8.487 -0.7148 -0.1814 -0.5973
20255SOL    HW261982   8.325   3.694   8.605  0.1195  0.3583  0.0063
20256SOL     OW61983   7.489   2.455   7.771 -0.7071  0.2653 -0.0685
20256SOL    HW161984   7.527   2.481   7.688 -0.6367  0.7116  0.0988
20256SOL    HW261985   7.429   2.384   7.750  1.6836 -1.8799 -0.1054
20257SOL     OW61986   7.998   2.306   7.055  0.5918 -0.4386 -0.0549
20257SOL    HW161987   7.983   2.219   7.092 -3.9012 -1.4520 -3.3512
20257SOL    HW261988   7.922   2.357   7.083  1.8736  1.7001 -0.2677
20258SOL     OW61989   8.033   3.389   0.024  0.1157  0.0089 -0.4288
20258SOL    HW161990   8.035   3.484   0.030  1.8635  0.0325 -0.9443
20258SOL    HW261991   8.083   3.368  -0.054 -1.5579 -1.3006 -1.2217
20259SOL     OW61992   8.240   3.385   8.198 -0.2126 -0.1833  0.5083
20259SOL    HW161993   8.291   3.395   8.279  0.4945 -0.7173  0.1310
20259SOL    HW261994   8.292   3.430   8.132  0.4010 -1.7766 -0.1344
20260SOL     OW61995   8.020   2.196   8.375  0.0166  0.4743  0.3391
20260SOL    HW161996   8.065   2.187   8.291 -2.1907 -0.6193 -0.8406
20260SOL    HW261997   7.947   2.255   8.356 -0.1546  0.7049  1.6608
20261SOL     OW61998   8.015   2.094   7.319  0.0034  0.3348  0.1819
20261SOL    HW161999   7.975   2.008   7.331  0.2933  0.2099  0.2603
20261SOL    HW262000   8.105   2.084   7.350  0.4521  0.2956 -1.0804
20262SOL     OW62001   8.740   2.999   7.469 -0.2334  0.0255  0.2251
20262SOL    HW162002   8.683   3.076   7.481 -0.1758  0.0471  0.3622
20262SOL    HW262003   8.816   3.034   7.423  0.1981  0.2343  1.0707
20263SOL     OW62004   7.917   1.851   7.366  0.1931  0.5032  0.2868
20263SOL    HW162005   7.828   1.829   7.395 -0.3134  0.9267 -0.8740
20263SOL    HW262006   7.950   1.770   7.326  0.6748  0.0894  1.4824
20264SOL     OW62007   8.247   2.105   7.719  0.1678  0.5349  0.3269
20264SOL    HW162008   8.291   2.149   7.645  2.1649 -1.2638  0.3408
20264SOL    HW262009   8.178   2.053   7.678  0.7042  0.2120 -0.1887
20265SOL     OW62010   8.530   3.640   8.344  0.2714 -0.3386 -0.0050
20265SOL    HW162011   8.590   3.705   8.307  0.0500 -1.7151 -3.1455
20265SOL    HW262012   8.587   3.569   8.374  0.3534 -0.5282 -0.5931
20266SOL     OW62013   7.622   2.896   7.556  0.4511  0.2408  0.1964
20266SOL    HW162014   7.649   2.848   7.477  0.4844  2.0442 -0.9499
20266SOL    HW262015   7.584   2.977   7.523 -3.9120 -0.8557  1.8302
20267SOL     OW62016   7.895   3.903   8.160 -0.4810 -0.4833  0.7680
20267SOL    HW162017   7.861   3.824   8.202 -1.7873  0.2479  1.1149
20267SOL    HW262018   7.888   3.886   8.067  0.2393 -1.1847  0.8297
20268SOL     OW62019   7.932   2.108   7.882 -0.0251  0.5266 -0.3347
20268SOL    HW162020   7.907   2.033   7.828  1.0600  2.0877 -3.2349
20268SOL    HW262021   7.849   2.149   7.906 -0.5395  0.0995 -1.3295
20269SOL     OW62022   8.072   2.320   8.610  0.5587  0.4938 -0.8974
20269SOL    HW162023   8.075   2.280   8.523  0.7069  0.3331 -0.8207
20269SOL    HW262024   8.104   2.409   8.597  0.1944  0.6011 -1.0776
20270SOL     OW62025   7.924   2.511   7.748 -0.1669 -0.4006  0.1272
20270SOL    HW162026   7.995   2.457   7.712  0.5865 -0.0031  0.9522
20270SOL    HW262027   7.907   2.576   7.680  0.5658 -0.2490  0.0724
20271SOL     OW62028   8.295   1.869   7.883  0.1835 -0.3981  0.3195
20271SOL    HW162029   8.219   1.877   7.939 -2.0471 -2.0733 -2.2185
20271SOL    HW262030   8.290   1.945   7.824 -0.0626 -0.9733 -0.4173
20272SOL     OW62031   7.908   3.504   7.465  0.3277  0.3110  0.3880
20272SOL    HW162032   7.920   3.470   7.376  1.4755  1.0216  0.2527
20272SOL    HW262033   7.872   3.430   7.514 -0.6153 -0.0029 -0.7263
20273SOL     OW62034   8.679   2.192   7.741 -0.3623  0.2947  0.1110
20273SOL    HW162035   8.671   2.204   7.646 -1.1229 -0.2357  0.1002
20273SOL    HW262036   8.657   2.100   7.756  1.0896  0.0087  0.6693
20274SOL     OW62037   7.685   1.987   7.559 -0.2524 -0.2575  0.3583
20274SOL    HW162038   7.638   1.969   7.477 -1.1583  0.3067  0.7436
20274SOL    HW262039   7.740   2.063   7.539 -1.4317  0.6920  0.6175
20275SOL     OW62040   8.433   3.060   8.080  0.0430 -0.0611  0.2115
20275SOL    HW162041   8.488   3.134   8.058  0.4653 -1.2596 -3.3601
20275SOL    HW262042   8.493   2.995   8.117  0.1860  0.2732  0.5747
20276SOL     OW62043   7.980   3.104   7.512 -0.2565  0.0092  0.7007
20276SOL    HW162044   7.945   3.015   7.514  0.4200 -0.3379 -1.1906
20276SOL    HW262045   8.030   3.111   7.593 -0.5167 -1.2496  1.0017
20277SOL     OW62046   7.793   3.075   0.115  0.0466 -0.5742 -0.0482
20277SOL    HW162047   7.880   3.034   0.108  0.8543  0.9432  0.6910
20277SOL    HW262048   7.792   3.141   0.046 -1.5550 -2.2427 -1.7561
20278SOL     OW62049   8.252   2.446   8.323 -0.0656 -0.0776 -0.1816
20278SOL    HW162050   8.341   2.455   8.288 -0.7331 -0.8745 -2.2780
20278SOL    HW262051   8.246   2.354   8.349 -0.7520 -0.4750 -1.6308
20279SOL     OW62052   6.829   3.438   8.625 -0.2197 -0.0182  0.2003
20279SOL    HW162053   6.816   3.476   8.711 -1.9964 -2.0789  0.9364
20279SOL    HW262054   6.922   3.414   8.622 -0.0447  0.4897  1.3414
20280SOL     OW62055   7.546   3.394   7.923 -0.5242  0.1060  0.0308
20280SOL    HW162056   7.567   3.420   7.833 -0.7950 -1.4296 -0.5052
20280SOL    HW262057   7.450   3.400   7.927 -0.5887 -0.7090 -0.0909
20281SOL     OW62058   7.871   2.430   8.270  0.0388 -0.3445 -0.0983
20281SOL    HW162059   7.896   2.454   8.181  1.2356  1.3607  0.6593
20281SOL    HW262060   7.853   2.513   8.314 -1.0575 -1.1817  1.1294
20282SOL     OW62061   8.411   2.926   7.806 -0.2196 -0.0344  0.4410
20282SOL    HW162062   8.404   2.981   7.885 -1.3529  0.3969  0.0641
20282SOL    HW262063   8.505   2.912   7.794 -0.0074  0.3248  1.5737
20283SOL     OW62064   8.408   3.277   8.753 -0.3624  0.3209 -0.2803
20283SOL    HW162065   8.461   3.251   8.828 -0.8460 -0.3098 -0.1482
20283SOL    HW262066   8.448   3.359   8.722  1.4715 -0.7823 -0.9921
20284SOL     OW62067   7.541   3.458   8.313 -0.3048  0.3130 -0.0835
20284SOL    HW162068   7.620   3.503   8.346 -0.7261  0.8747  0.1927
20284SOL    HW262069   7.470   3.518   8.335 -1.0166 -0.9470  1.2197
20285SOL     OW62070   8.009   2.815   8.370  0.1721 -0.2907 -0.0779
20285SOL    HW162071   8.043   2.853   8.289  0.4807 -0.8618 -0.2202
20285SOL    HW262072   7.976   2.890   8.420 -1.5342 -0.0666 -1.4199
20286SOL     OW62073   8.504   2.450   8.247 -0.3938 -0.0069  0.0489
20286SOL    HW162074   8.572   2.511   8.277  0.5521  0.7623 -3.2586
20286SOL    HW262075   8.521   2.370   8.296  0.5809  1.2764  1.9423
20287SOL     OW62076   8.181   2.164   8.155 -0.1012  0.1872  0.1109
20287SOL    HW162077   8.153   2.224   8.086 -0.9025 -2.0118 -1.5946
20287SOL    HW262078   8.276   2.154   8.142  0.4636  2.6421  1.7816
20288SOL     OW62079   7.708   1.971   8.216 -0.1363  0.0991 -0.1946
20288SOL    HW162080   7.668   1.934   8.294 -0.2054 -0.8199 -0.6536
20288SOL    HW262081   7.660   1.933   8.143  1.0789 -0.4719 -0.7339
20289SOL     OW62082   7.677   3.627   8.032 -0.0780  0.4234  0.0573
20289SOL    HW162083   7.666   3.646   7.939 -1.5725  0.0658  0.1419
20289SOL    HW262084   7.657   3.534   8.040  0.6748  0.3031  0.6483
20290SOL     OW62085   8.054   2.568   8.484  0.2340 -0.0640  0.6466
20290SOL    HW162086   8.012   2.644   8.443  2.1003  0.3545 -0.5988
20290SOL    HW262087   8.131   2.550   8.430  0.2874 -2.3766  1.3734
20291SOL     OW62088   8.133   2.279   7.909 -0.1076  0.2452  0.3242
20291SOL    HW162089   8.212   2.232   7.883 -1.3971 -0.6360 -2.3755
20291SOL    HW262090   8.061   2.222   7.881 -1.7380  1.4915  1.7385
20292SOL     OW62091   0.007   1.870   7.720 -0.4376 -0.6026  0.3834
20292SOL    HW162092   0.051   1.787   7.698 -1.7338 -1.0589 -0.6399
20292SOL    HW262093   0.064   1.911   7.784  1.0017 -1.5973 -0.2002
20293SOL     OW62094   8.355   2.721   8.159 -0.1276 -0.5421  0.4061
20293SOL    HW162095   8.308   2.658   8.214 -0.7963  0.5234  1.0921
20293SOL    HW262096   8.306   2.722   8.077 -0.8315 -0.0316  0.8290
20294SOL     OW62097   8.525   2.472   7.614 -0.7769 -0.6124 -0.5742
20294SOL    HW162098   8.619   2.457   7.620 -0.4546  1.1814 -0.4210
20294SOL    HW262099   8.508   2.485   7.521 -0.8749 -0.9196 -0.5998
20295SOL     OW62100   8.033   3.111   7.786  0.3347  0.1897 -0.6786
20295SOL    HW162101   8.039   3.020   7.815  1.1575  0.1087 -1.0951
20295SOL    HW262102   8.041   3.162   7.867 -1.3810 -0.1125 -0.2756
20296SOL     OW62103   7.681   2.836   8.367 -0.1937 -0.1403 -0.5404
20296SOL    HW162104   7.586   2.831   8.384 -0.2779  1.5679 -0.3456
20296SOL    HW262105   7.698   2.765   8.305 -1.3236 -1.4367  0.5458
20297SOL     OW62106   7.546   2.650   7.978 -0.4963 -0.3416 -0.2647
20297SOL    HW162107   7.466   2.673   8.025 -0.0159  1.8200 -0.3784
20297SOL    HW262108   7.519   2.583   7.916 -2.4859  1.0253 -0.9911
20298SOL     OW62109   8.650   1.973   8.623  0.2019  0.6567  0.0768
20298SOL    HW162110   8.684   2.061   8.608 -0.7049  0.8903 -0.6920
20298SOL    HW262111   8.629   1.971   8.716 -0.5195  1.5249 -0.0619
20299SOL     OW62112   7.592   3.779   7.443 -0.3283  0.1742 -0.3277
20299SOL    HW162113   7.560   3.696   7.407 -0.4776  0.0105  0.1654
20299SOL    HW262114   7.517   3.838   7.438  0.1948  0.7309 -2.0264
20300SOL     OW62115   7.312   3.619   8.331  0.2799  0.1781  0.3156
20300SOL    HW162116   7.289   3.632   8.239  0.7318 -0.8719  0.0402
20300SOL    HW262117   7.241   3.565   8.367 -0.7820  1.9801  1.0454
20301SOL     OW62118   7.460   3.678   8.586  0.0182  0.0698 -0.4387
20301SOL    HW162119   7.502   3.762   8.604  2.9889 -1.4683  0.3687
20301SOL    HW262120   7.440   3.680   8.492  2.5161  0.6893 -1.0159
20302SOL     OW62121   8.402   2.915   8.733  0.3776  0.1414  0.0330
20302SOL    HW162122   8.347   2.918   8.655 -1.7187  1.1656  1.4561
20302SOL    HW262123   8.458   2.838   8.721 -0.2178  0.0033 -2.2114
20303SOL     OW62124   7.188   2.270   8.032 -0.1030  0.2036 -0.3621
20303SOL    HW162125   7.167   2.348   8.084 -1.1904 -0.1088 -0.3150
20303SOL    HW262126   7.283   2.263   8.038 -0.1008  0.8400  0.6269
20304SOL     OW62127   8.089   2.426   7.308  0.3513  0.0367  0.4676
20304SOL    HW162128   8.048   2.374   7.238 -1.4289  1.4610  0.3862
20304SOL    HW262129   8.069   2.517   7.285  0.7803  0.5964  2.1868
20305SOL     OW62130   7.817   2.528   8.639  0.2462 -0.1013 -0.4009
20305SOL    HW162131   7.832   2.510   8.732  1.4025  0.4223 -0.4698
20305SOL    HW262132   7.882   2.474   8.594 -0.5922 -0.6804 -0.9413
20306SOL     OW62133   8.066   3.446   8.443 -0.8038  0.2368 -0.3843
20306SOL    HW162134   8.093   3.380   8.379  0.4195  1.4713 -1.1746
20306SOL    HW262135   8.095   3.410   8.527 -1.4957 -0.9034 -0.5976
20307SOL     OW62136   8.072   2.678   7.200  0.4662  0.1949  0.3843
20307SOL    HW162137   8.153   2.725   7.217  0.6923  0.6264 -1.6171
20307SOL    HW262138   8.007   2.747   7.186 -0.3281 -0.1402  2.1227
20308SOL     OW62139   7.500   3.071   8.657 -0.1706 -0.2059 -0.1018
20308SOL    HW162140   7.528   3.112   8.575 -4.1400  2.0225 -0.6237
20308SOL    HW262141   7.509   3.139   8.723 -0.4099 -0.7715  0.5283
20309SOL     OW62142   8.608   2.803   8.217 -0.2936  0.2481 -0.0385
20309SOL    HW162143   8.517   2.774   8.213 -0.2781  0.1794  0.1084
20309SOL    HW262144   8.632   2.798   8.309 -0.5412  1.5304  0.1119
20310SOL     OW62145   8.679   2.899   7.753  0.1762  0.5606  0.0048
20310SOL    HW162146   8.705   2.898   7.661  0.2834  1.2735  0.0235
20310SOL    HW262147   8.762   2.905   7.801  0.3248 -2.2636  0.2648
20311SOL     OW62148   8.070   3.655   0.036  0.0546  0.1647  0.2109
20311SOL    HW162149   8.014   3.709  -0.019 -0.5531 -0.7916 -0.1363
20311SOL    HW262150   8.045   3.678   0.125 -0.8561 -0.1962  0.0619
20312SOL     OW62151   6.991   3.639   8.158 -0.3005  0.4149  0.1984
20312SOL    HW162152   6.960   3.640   8.249  2.4443 -1.2991  1.2706
20312SOL    HW262153   6.954   3.560   8.120  1.0555 -0.5896  0.8794
20313SOL     OW62154   0.166   3.559   7.900  0.2817 -0.9776  0.2280
20313SOL    HW162155   0.164   3.645   7.856 -0.1492  0.3285  2.6149
20313SOL    HW262156   0.176   3.496   7.828 -0.3018  0.9818 -1.7143
20314SOL     OW62157   8.314   2.639   7.713 -0.2780 -0.7052  0.2734
20314SOL    HW162158   8.384   2.703   7.723  0.1111 -1.2107  0.9361
20314SOL    HW262159   8.355   2.566   7.666 -0.3180 -1.0393  0.7388
20315SOL     OW62160   8.431   3.459   6.998  0.1584  0.1229  0.4424
20315SOL    HW162161   8.501   3.441   6.935 -1.6044 -0.4488 -1.4735
20315SOL    HW262162   8.411   3.552   6.985 -1.3573 -0.3829 -1.1682
20316SOL     OW62163   7.434   2.184   7.973 -0.1307  0.2294 -0.5719
20316SOL    HW162164   7.502   2.249   7.990 -0.9609  1.5458 -2.0929
20316SOL    HW262165   7.449   2.156   7.883 -1.2879  0.1620 -0.7586
20317SOL     OW62166   8.596   3.232   7.404  0.6213  0.0375  0.0223
20317SOL    HW162167   8.520   3.251   7.458  0.1516 -0.2081 -0.5404
20317SOL    HW262168   8.593   3.296   7.334  0.5429 -0.3987 -0.3817
20318SOL     OW62169   8.634   3.021   8.603 -0.8239 -0.2087 -0.2893
20318SOL    HW162170   8.604   3.057   8.687  1.4410 -0.5545  0.7396
20318SOL    HW262171   8.651   3.097   8.548 -0.3932  0.1080  0.2784
20319SOL     OW62172   8.121   2.764   7.546 -0.7398  0.0367 -0.0294
20319SOL    HW162173   8.038   2.717   7.541 -1.7332  1.5284  1.4630
20319SOL    HW262174   8.170   2.720   7.615 -1.0908  0.3299  0.4096
20320SOL     OW62175   8.060   3.234   8.064  0.1520  0.8058  0.0222
20320SOL    HW162176   7.983   3.241   8.121 -0.4265  2.5424 -0.9054
20320SOL    HW262177   8.131   3.276   8.114  0.1513  0.4922  0.2897
20321SOL     OW62178   8.463   2.078   8.133 -0.1444  0.3110  0.8096
20321SOL    HW162179   8.517   2.149   8.099 -0.4823  1.3046  2.2861
20321SOL    HW262180   8.505   1.998   8.101 -0.1805  1.1456 -1.5086
20322SOL     OW62181   8.024   3.396   7.833 -0.2574  0.0830 -0.3133
20322SOL    HW162182   8.007   3.358   7.920  0.6709  0.5950  0.1123
20322SOL    HW262183   7.946   3.377   7.783 -0.1437 -1.7100  0.1178
20323SOL     OW62184   7.807   3.290   7.588 -0.0607  0.1797 -0.2246
20323SOL    HW162185   7.861   3.219   7.552  0.8460  0.6805  0.1106
20323SOL    HW262186   7.763   3.251   7.663  0.3112 -0.0702 -0.1362
20324SOL     OW62187   7.973   2.552   0.047  0.0319 -0.1854  0.2774
20324SOL    HW162188   8.008   2.467   0.071  0.1562  0.2686  1.7864
20324SOL    HW262189   7.901   2.567   0.108 -0.0539  0.7509 -0.0356
20325SOL     OW62190   7.831   2.584   6.873 -0.0556  0.1189  0.2801
20325SOL    HW162191   7.783   2.540   6.943 -1.2008 -1.7076 -1.5412
20325SOL    HW262192   7.796   2.673   6.871 -0.3990  0.0262  1.6592
20326SOL     OW62193   7.328   1.804   7.614  0.3723 -0.0778 -0.0025
20326SOL    HW162194   7.396   1.737   7.619  1.8776  1.4694  1.3283
20326SOL    HW262195   7.280   1.783   7.534  0.5143 -2.9512  0.5557
20327SOL     OW62196   8.349   3.303   7.528  0.0586 -0.3148 -0.0651
20327SOL    HW162197   8.286   3.367   7.561 -0.6396 -0.4961 -1.0204
20327SOL    HW262198   8.322   3.220   7.568  0.2699 -0.2348  0.2565
20328SOL     OW62199   8.054   2.741   8.710  0.2990  0.2245  1.0796
20328SOL    HW162200   8.004   2.674   8.755 -0.1711  0.8749  1.5431
20328SOL    HW262201   8.079   2.701   8.627 -0.8400 -0.1721  0.9152
20329SOL     OW62202   7.680   3.523   8.673  0.0291 -0.3376 -0.1510
20329SOL    HW162203   7.695   3.580   8.748 -0.2123 -0.6051  0.1011
20329SOL    HW262204   7.601   3.560   8.631  0.4425  0.1049 -0.5605
20330SOL     OW62205   8.584   1.954   7.889 -0.5070 -0.5052 -0.2478
20330SOL    HW162206   8.499   1.912   7.878 -0.8167 -0.4723  1.6939
20330SOL    HW262207   8.647   1.888   7.861 -1.0760 -1.5081  0.7525
20331SOL     OW62208   7.705   2.863   7.806 -0.3025 -0.1276 -0.7808
20331SOL    HW162209   7.640   2.799   7.833  0.3030 -1.0355 -1.4428
20331SOL    HW262210   7.684   2.883   7.715 -0.1408  0.1865 -0.7525
20332SOL     OW62211   8.385   3.461   7.784 -0.4577 -0.5080  0.7040
20332SOL    HW162212   8.334   3.486   7.860  0.2145  0.9350  0.7230
20332SOL    HW262213   8.339   3.502   7.710  1.1685  1.8080  0.8333
20333SOL     OW62214   8.301   3.580   8.743 -0.1617 -0.2546  0.6673
20333SOL    HW162215   8.379   3.563   8.795 -0.8833 -0.6980  1.6320
20333SOL    HW262216   8.237   3.613   8.806 -0.5939  0.6201 -0.2011
20334SOL     OW62217   8.159   3.265   8.661 -0.3851  0.5681  0.3670
20334SOL    HW162218   8.132   3.174   8.665 -0.0992  0.4662  0.0390
20334SOL    HW262219   8.246   3.266   8.702 -0.6158  0.7867  0.8603
20335SOL     OW62220   8.265   2.996   7.568  0.1995 -0.1868  0.3017
20335SOL    HW162221   8.314   2.967   7.645 -1.0507  0.5475  1.4187
20335SOL    HW262222   8.198   2.928   7.555  0.2511 -0.1852  0.0093
20336SOL     OW62223   7.600   3.453   7.664  0.4354  0.3531 -0.1671
20336SOL    HW162224   7.642   3.386   7.611  0.2876  1.1792 -1.3799
20336SOL    HW262225   7.535   3.493   7.605  0.5044  1.5287  0.5153
20337SOL     OW62226   7.937   2.483   8.005  0.4082 -0.2447  0.1891
20337SOL    HW162227   8.014   2.427   8.001 -0.8370 -1.9794 -0.9904
20337SOL    HW262228   7.918   2.504   7.913 -1.3329 -1.0576  0.3201
20338SOL     OW62229   7.759   2.671   8.155  0.4972  0.4553 -0.0251
20338SOL    HW162230   7.838   2.628   8.122  0.9310 -0.6908  2.3051
20338SOL    HW262231   7.689   2.639   8.098  0.7181 -3.9108  1.7939
20339SOL     OW62232   8.112   3.686   8.326 -0.0640 -0.6006 -0.0157
20339SOL    HW162233   8.092   3.662   8.236  0.7875 -2.3022  0.1977
20339SOL    HW262234   8.108   3.603   8.374 -2.5123  0.5177  1.9485
20340SOL     OW62235   8.608   1.861   8.386  0.0207  0.2285 -0.0134
20340SOL    HW162236   8.515   1.865   8.361  0.1501  4.0913 -0.4170
20340SOL    HW262237   8.610   1.893   8.476  0.8750 -1.3687  0.5741
20341SOL     OW62238   0.283   2.018   8.176  0.6662  0.2463 -0.6142
20341SOL    HW162239   0.304   1.937   8.129 -0.1302 -0.1556 -0.2809
20341SOL    HW262240   0.193   2.039   8.150 -0.5412 -1.0318  2.1542
20342SOL     OW62241   8.170   3.491   7.614 -0.0746 -0.4062 -0.1962
20342SOL    HW162242   8.112   3.470   7.687 -1.3116 -1.6626 -1.4698
20342SOL    HW262243   8.112   3.529   7.548  1.1430  1.4678 -0.2750
20343SOL     OW62244   7.878   3.805   8.759 -0.1286 -0.2347 -0.5443
20343SOL    HW162245   7.783   3.811   8.751 -0.2150  0.0928  0.6005
20343SOL    HW262246   7.912   3.845   8.679 -0.9538 -1.8383 -1.7696
20344SOL     OW62247   8.746   1.748   7.380 -0.2307  0.2654  0.1271
20344SOL    HW162248   8.771   1.767   7.289  0.8454  3.5530  0.9579
20344SOL    HW262249   8.829   1.743   7.427 -0.8127 -0.4171  1.1203
20345SOL     OW62250   6.764   3.317   7.243 -0.9602  0.1730 -0.5110
20345SOL    HW162251   6.675   3.283   7.235 -0.8864  0.1756 -1.5078
20345SOL    HW262252   6.808   3.290   7.162  0.0607 -0.1406  0.1277
20346SOL     OW62253   8.607   3.599   7.537  0.4434  0.0053 -0.3353
20346SOL    HW162254   8.689   3.552   7.528 -0.2985 -1.7949  1.5561
20346SOL    HW262255   8.540   3.537   7.508 -0.4656  0.3279  0.9851
20347SOL     OW62256   7.909   4.361   0.429  0.1000 -0.2590  0.0107
20347SOL    HW162257   7.951   4.442   0.457 -0.5343  0.3550 -0.7912
20347SOL    HW262258   7.946   4.294   0.487  2.2568  0.2218 -0.7058
20348SOL     OW62259   7.683   3.910   1.153  0.3050 -0.3969 -0.7105
20348SOL    HW162260   7.744   3.891   1.082  0.5310 -0.9026 -0.3856
20348SOL    HW262261   7.608   3.853   1.136  1.1699 -1.9693  0.5111
20349SOL     OW62262   7.077   4.035   0.479 -0.7519 -0.6607  0.1092
20349SOL    HW162263   7.003   4.061   0.533 -0.5588 -0.4259  0.2615
20349SOL    HW262264   7.154   4.069   0.525 -0.3413 -2.8119  1.1316
20350SOL     OW62265   8.156   5.126   1.155 -0.0121  0.0307 -0.1074
20350SOL    HW162266   8.093   5.057   1.136  1.4876 -1.5756  0.5866
20350SOL    HW262267   8.102   5.200   1.184 -1.7397 -0.3356 -2.1743
20351SOL     OW62268   8.575   5.162   0.871 -0.4480 -0.0154 -0.0265
20351SOL    HW162269   8.587   5.168   0.965 -0.7065 -1.5959  0.1342
20351SOL    HW262270   8.498   5.106   0.860 -0.4326  0.1612 -1.1717
20352SOL     OW62271   8.416   4.643   0.499 -0.4631 -0.2419  0.3490
20352SOL    HW162272   8.362   4.713   0.463 -3.6348 -1.5810  2.0848
20352SOL    HW262273   8.461   4.605   0.424  0.4454  2.8317 -0.7741
20353SOL     OW62274   7.956   4.940   1.038  0.2483 -0.2015 -0.1465
20353SOL    HW162275   7.878   4.906   0.994  0.2837 -0.1851 -0.2218
20353SOL    HW262276   8.028   4.885   1.007  0.7782  1.5974 -2.3783
20354SOL     OW62277   8.163   4.662   1.803 -0.4596  0.0750  0.4471
20354SOL    HW162278   8.077   4.649   1.841 -1.2152 -1.3931 -1.6395
20354SOL    HW262279   8.155   4.743   1.752 -0.6348 -0.1446  0.1301
20355SOL     OW62280   8.350   4.530   0.765 -0.2601  0.1718 -0.5883
20355SOL    HW162281   8.364   4.447   0.718  0.0705  0.0317 -0.2502
20355SOL    HW262282   8.371   4.598   0.701  0.9848 -0.0270 -0.4160
20356SOL     OW62283   8.148   4.959   1.949 -0.1359  0.4898  0.4651
20356SOL    HW162284   8.064   5.003   1.936 -0.4721 -0.3429 -0.2694
20356SOL    HW262285   8.213   5.025   1.925 -0.5826  1.0555  0.7896
20357SOL     OW62286   7.746   4.663   0.524 -0.1490  0.2414 -0.3331
20357SOL    HW162287   7.755   4.584   0.578  0.4228  0.2306 -0.4392
20357SOL    HW262288   7.656   4.691   0.539  0.0878  0.4246  0.8839
20358SOL     OW62289   8.110   4.211   1.609 -0.2005  0.6661  0.2902
20358SOL    HW162290   8.148   4.284   1.657  0.9060 -0.3547  1.0314
20358SOL    HW262291   8.103   4.141   1.673 -2.5844  0.5201 -0.0421
20359SOL     OW62292   7.426   5.502   0.083  0.5148 -0.6228 -0.1162
20359SOL    HW162293   7.392   5.438   0.145 -0.3171 -0.8369 -0.7770
20359SOL    HW262294   7.481   5.560   0.136  0.8410 -1.5516  0.5822
20360SOL     OW62295   8.519   4.415   1.808 -0.1702  0.2838  0.0070
20360SOL    HW162296   8.480   4.343   1.857 -2.5470  2.1925  1.1117
20360SOL    HW262297   8.572   4.372   1.741 -0.6723 -2.4502  1.2383
20361SOL     OW62298   7.696   5.503   8.756 -0.2245  0.2757 -0.1987
20361SOL    HW162299   7.705   5.590   8.796  0.4401  0.8130 -1.4593
20361SOL    HW262300   7.613   5.508   8.708 -1.3123 -0.5569  1.4605
20362SOL     OW62301   7.503   4.834   0.521 -0.1808  0.4647  0.9486
20362SOL    HW162302   7.468   4.870   0.440 -0.1568 -0.6316  0.4333
20362SOL    HW262303   7.426   4.799   0.567 -0.0433 -0.0287  0.8114
20363SOL     OW62304   7.617   5.618   1.178 -0.4479 -0.2652  0.7893
20363SOL    HW162305   7.708   5.637   1.199 -0.1239 -0.8412 -0.0455
20363SOL    HW262306   7.567   5.674   1.238  0.4583  2.1562 -0.5345
20364SOL     OW62307   8.428   4.817   8.796 -0.5419  0.1712  0.0078
20364SOL    HW162308   8.357   4.760   8.826  0.4101 -2.3248 -2.0456
20364SOL    HW262309   8.390   4.865   8.722 -0.9226  1.1394  0.8168
20365SOL     OW62310   7.619   4.416   0.398 -0.4458 -0.1534  0.3965
20365SOL    HW162311   7.706   4.378   0.386 -0.9989 -1.4265  0.2772
20365SOL    HW262312   7.618   4.447   0.489  0.4576  0.7807  0.1017
20366SOL     OW62313   7.293   5.306   8.785  0.2856 -0.6798  1.0625
20366SOL    HW162314   7.341   5.370   8.838 -1.2917  1.4664  0.0619
20366SOL    HW262315   7.289   5.227   8.839  2.5454 -0.0765  2.2479
20367SOL     OW62316   0.471   4.603   0.533  0.0973  0.1769 -0.3705
20367SOL    HW162317   0.481   4.519   0.488  0.9241  0.2344 -0.3103
20367SOL    HW262318   0.437   4.662   0.466  1.7346  0.3722 -1.0703
20368SOL     OW62319   8.067   4.305   1.232  0.2435  0.1893  0.2628
20368SOL    HW162320   8.023   4.387   1.210  2.7888  1.3466 -0.8459
20368SOL    HW262321   7.999   4.253   1.276 -1.0074  3.5802  2.8123
20369SOL     OW62322   7.790   5.074   0.274 -0.0762  0.1378 -0.1621
20369SOL    HW162323   7.807   5.069   0.180  2.6874 -0.2684  0.2607
20369SOL    HW262324   7.712   5.021   0.287  1.0255 -2.0888 -1.9313
20370SOL     OW62325   8.289   4.874   1.210 -0.0764 -0.0580 -0.5491
20370SOL    HW162326   8.382   4.897   1.207  0.4369 -1.9646 -0.5236
20370SOL    HW262327   8.244   4.957   1.221  1.7907  0.7047  2.3686
20371SOL     OW62328   8.232   3.600   0.340 -0.1256 -0.1521  0.0569
20371SOL    HW162329   8.215   3.692   0.360 -0.1524  0.3057 -1.8750
20371SOL    HW262330   8.194   3.552   0.413 -1.3871  1.2975  0.4050
20372SOL     OW62331   7.950   4.617   1.066  0.0840  0.1692 -0.1000
20372SOL    HW162332   7.894   4.553   1.109  1.7451 -0.9453  0.4990
20372SOL    HW262333   7.892   4.662   1.004 -0.9095 -2.7196 -1.4361
20373SOL     OW62334   8.208   5.422   1.989 -0.2158 -0.1724 -0.1979
20373SOL    HW162335   8.302   5.410   1.996 -0.3151 -0.7566  0.1987
20373SOL    HW262336   8.191   5.425   1.895  0.1846 -0.1763 -0.2706
20374SOL     OW62337   7.465   4.065   1.432  0.3135 -0.0356 -0.2558
20374SOL    HW162338   7.526   3.994   1.415  0.0318 -0.4689  0.5105
20374SOL    HW262339   7.419   4.078   1.348  2.2464  1.1031 -1.2023
20375SOL     OW62340   7.946   4.706   0.744 -0.0080 -0.3997 -0.4065
20375SOL    HW162341   7.912   4.668   0.663  0.0013  0.4647 -0.8321
20375SOL    HW262342   7.874   4.758   0.778  0.4339  0.3599 -0.6037
20376SOL     OW62343   8.480   3.912   0.666 -0.1863  0.0133  0.1764
20376SOL    HW162344   8.484   3.824   0.703  0.2442 -0.5169 -1.0802
20376SOL    HW262345   8.387   3.928   0.651 -0.1200 -1.7654 -3.0031
20377SOL     OW62346   8.137   3.983   1.776  0.6065 -0.3342  0.1360
20377SOL    HW162347   8.136   3.889   1.760  2.5650 -0.8138  2.2933
20377SOL    HW262348   8.092   3.994   1.859 -0.1471  0.7514 -0.3857
20378SOL     OW62349   0.133   4.102   1.913  0.1807 -0.4698 -0.0261
20378SOL    HW162350   0.110   4.009   1.917 -2.0089  0.0174 -0.4623
20378SOL    HW262351   0.132   4.123   1.820  0.3723  0.0762  0.0921
20379SOL     OW62352   8.294   4.457   1.406 -0.4366 -0.1960  0.1537
20379SOL    HW162353   8.258   4.477   1.320  2.0453 -0.3088 -0.9825
20379SOL    HW262354   8.270   4.532   1.461  0.4258  1.3031 -1.4282
20380SOL     OW62355   7.859   3.948   0.928 -0.5696  0.0178 -0.6707
20380SOL    HW162356   7.874   4.042   0.939 -1.1031 -0.1731  2.9358
20380SOL    HW262357   7.778   3.943   0.876 -0.9837  1.6058 -0.2477
20381SOL     OW62358   8.578   4.563   0.286  0.1973 -0.0091  0.6849
20381SOL    HW162359   8.620   4.639   0.243 -0.1822 -0.2753 -0.1806
20381SOL    HW262360   8.536   4.516   0.214 -2.4473  0.7588  1.6055
20382SOL     OW62361   7.302   4.250   0.562 -0.0920  0.1196 -0.0072
20382SOL    HW162362   7.318   4.224   0.472  1.8712 -1.2183  0.6751
20382SOL    HW262363   7.289   4.345   0.557 -1.7388 -0.1469 -1.8615
20383SOL     OW62364   7.401   5.461   1.691  0.0425 -0.6086  0.8233
20383SOL    HW162365   7.465   5.514   1.738  0.6132 -0.7106  0.1854
20383SOL    HW262366   7.316   5.493   1.720  0.3597  1.2266 -0.1459
20384SOL     OW62367   8.018   3.931   0.191 -0.3680  0.5398 -0.7420
20384SOL    HW162368   7.965   4.011   0.196  0.9817  1.4647 -0.6491
20384SOL    HW262369   8.073   3.944   0.114 -0.1881 -0.3526 -0.7705
20385SOL     OW62370   8.576   4.740   0.777  0.3955 -0.2114  0.1546
20385SOL    HW162371   8.515   4.757   0.705  0.0478  2.3133  0.9501
20385SOL    HW262372   8.660   4.773   0.744  0.1023  1.5663  1.0707
20386SOL     OW62373   7.956   3.595   0.836 -0.1972  0.5907  0.2484
20386SOL    HW162374   7.977   3.512   0.794  3.4369  2.2064 -1.5877
20386SOL    HW262375   7.862   3.607   0.820 -0.3251 -2.0211 -1.5083
20387SOL     OW62376   8.611   5.091   0.464  0.2259  0.6620  0.4941
20387SOL    HW162377   8.634   5.147   0.538 -2.9968  1.3696  1.1102
20387SOL    HW262378   8.588   5.151   0.394 -0.3380  0.0726  0.1570
20388SOL     OW62379   7.705   5.391   0.681  0.0396 -0.6223 -0.3958
20388SOL    HW162380   7.644   5.459   0.651 -0.5084 -0.7692  0.3535
20388SOL    HW262381   7.729   5.343   0.602 -0.1564 -0.0275 -0.8213
20389SOL     OW62382   8.560   5.235   1.462  0.4838 -0.5928 -0.4177
20389SOL    HW162383   8.469   5.207   1.455  0.0237  0.0261  1.9668
20389SOL    HW262384   8.583   5.265   1.374 -1.3504 -1.4856 -1.2593
20390SOL     OW62385   8.105   5.019   0.157 -0.0586  0.1919  0.4567
20390SOL    HW162386   8.099   5.109   0.124 -0.0495  0.3245  0.8115
20390SOL    HW262387   8.041   4.970   0.105  0.6907  0.1791 -0.4794
20391SOL     OW62388   7.631   5.058   1.734 -0.3445 -0.1746  0.0084
20391SOL    HW162389   7.622   4.986   1.671 -0.5096  0.3335 -0.5539
20391SOL    HW262390   7.546   5.061   1.779 -0.2550 -0.4796  0.2063
20392SOL     OW62391   8.727   5.451   0.169  0.4495 -0.0316  0.1753
20392SOL    HW162392   8.790   5.457   0.097 -2.3122 -2.3335 -2.7248
20392SOL    HW262393   8.777   5.412   0.241  2.7019 -0.2616 -1.4178
20393SOL     OW62394   7.489   4.064   1.705 -0.6307 -0.5763 -0.5515
20393SOL    HW162395   7.484   4.065   1.609 -1.2653 -0.9397 -0.5310
20393SOL    HW262396   7.489   3.971   1.728 -0.0296 -0.4975 -0.2145
20394SOL     OW62397   0.375   4.757   0.302 -0.1866  0.2220 -0.4292
20394SOL    HW162398   0.305   4.694   0.285  0.0316  0.2041 -1.3449
20394SOL    HW262399   0.340   4.815   0.370 -0.4247 -0.8280  0.3734
20395SOL     OW62400   8.257   5.693   0.081  0.9091  0.0144  0.2406
20395SOL    HW162401   8.236   5.787   0.078 -1.0441 -0.3923 -2.0829
20395SOL    HW262402   8.339   5.685   0.032  2.0313  0.6452  1.9264
20396SOL     OW62403   7.440   5.527   0.975  0.2101  0.1768 -0.7712
20396SOL    HW162404   7.505   5.571   1.030  0.9554 -2.2869  0.4543
20396SOL    HW262405   7.484   5.447   0.945 -2.1871 -1.5665  0.0520
20397SOL     OW62406   8.367   5.457   0.711 -0.4992  0.0092  0.6612
20397SOL    HW162407   8.287   5.505   0.690  0.0763  0.7621  0.1333
20397SOL    HW262408   8.438   5.514   0.680  0.2271 -0.8048  0.7969
20398SOL     OW62409   7.456   4.011   0.600 -0.5542 -0.7000 -0.8795
20398SOL    HW162410   7.484   3.983   0.513  1.1840  0.1649 -0.6520
20398SOL    HW262411   7.408   4.093   0.585  0.5704 -0.0449 -0.9648
20399SOL     OW62412   8.356   3.978   2.091 -0.0907 -0.0945  0.1447
20399SOL    HW162413   8.278   3.924   2.075 -0.8886  1.0329  0.1569
20399SOL    HW262414   8.339   4.022   2.174 -0.2503  1.5214 -0.7020
20400SOL     OW62415   7.916   5.647   1.162 -0.0965  0.4978 -0.2674
20400SOL    HW162416   7.998   5.673   1.204  0.2929 -0.0555 -0.6704
20400SOL    HW262417   7.941   5.577   1.102 -1.0181 -0.3386  0.2979
20401SOL     OW62418   8.661   4.289   1.630 -0.0653 -0.1896  0.4251
20401SOL    HW162419   8.600   4.218   1.613  1.3973 -1.5735  0.7826
20401SOL    HW262420   8.748   4.250   1.620  0.7968  1.1664  2.0088
20402SOL     OW62421   7.978   5.434   0.996  0.0406  0.3268  0.2034
20402SOL    HW162422   8.017   5.415   0.910  0.9793 -0.1416  0.7205
20402SOL    HW262423   7.884   5.421   0.982  0.2934 -0.9998 -0.4518
20403SOL     OW62424   8.038   3.872   0.575  0.2837 -0.4098  0.1621
20403SOL    HW162425   8.082   3.854   0.658  1.5038  1.0021 -0.1420
20403SOL    HW262426   8.106   3.862   0.508  0.2333  1.8437 -0.3214
20404SOL     OW62427   7.821   3.732   0.246  0.0994  0.3541 -0.5774
20404SOL    HW162428   7.878   3.800   0.211 -1.1496  1.7200 -0.0820
20404SOL    HW262429   7.751   3.723   0.181 -0.6751  0.8237  0.1657
20405SOL     OW62430   8.663   4.408   0.536  0.2076 -0.3319 -0.1381
20405SOL    HW162431   8.586   4.362   0.569 -0.7451  0.8550 -0.6065
20405SOL    HW262432   8.648   4.414   0.442 -0.5542  2.3029  0.0589
20406SOL     OW62433   8.224   3.871   0.382 -0.8087 -0.3184  0.1209
20406SOL    HW162434   8.163   3.912   0.321 -0.0786 -1.0800 -1.1576
20406SOL    HW262435   8.309   3.908   0.360 -0.4744 -0.8804  0.4288
20407SOL     OW62436   8.649   4.786   1.041 -0.2457  0.2888 -0.5760
20407SOL    HW162437   8.730   4.755   1.000 -0.7774  0.1572 -1.5681
20407SOL    HW262438   8.579   4.755   0.982 -0.9074  1.9364 -0.7018
20408SOL     OW62439   8.309   5.252   0.558 -0.0912  0.1148  0.2775
20408SOL    HW162440   8.388   5.251   0.503 -0.0212 -0.3923  0.3871
20408SOL    HW262441   8.324   5.324   0.620  0.4088 -0.1546  0.4733
20409SOL     OW62442   8.052   4.803   0.415 -0.2156 -0.3503 -0.3484
20409SOL    HW162443   7.974   4.853   0.439 -0.8274 -0.8509 -1.2409
20409SOL    HW262444   8.091   4.854   0.344 -0.2421 -0.5864 -0.5306
20410SOL     OW62445   8.514   5.662   0.593  0.6462  0.5374 -0.3720
20410SOL    HW162446   8.471   5.691   0.512 -0.2119 -0.8291 -0.4382
20410SOL    HW262447   8.588   5.609   0.563  0.2622 -0.0644 -0.2924
20411SOL     OW62448   8.096   4.938   8.691 -0.2213 -0.2318  0.4095
20411SOL    HW162449   8.115   4.871   8.624 -1.0221 -0.1634  0.0912
20411SOL    HW262450   8.054   4.889   8.762  0.9411 -0.3603  1.0340
20412SOL     OW62451   7.497   4.250   1.137 -0.0396 -0.7845  0.2858
20412SOL    HW162452   7.474   4.159   1.158 -0.8093 -0.3043  1.6339
20412SOL    HW262453   7.581   4.265   1.180  0.7575 -1.2334 -1.0513
20413SOL     OW62454   8.239   3.751   1.614 -0.0487 -0.2283 -0.3773
20413SOL    HW162455   8.225   3.722   1.524  0.1630  0.7884 -0.7524
20413SOL    HW262456   8.218   3.674   1.668 -3.9338  0.1462 -1.0379
20414SOL     OW62457   7.843   4.078   0.568 -0.4463 -0.2041  0.1452
20414SOL    HW162458   7.885   3.994   0.585  0.9703  0.6714  1.1649
20414SOL    HW262459   7.896   4.142   0.615 -1.9112  1.1926  0.0085
20415SOL     OW62460   8.151   3.787   0.836 -0.1348  0.0047  0.2302
20415SOL    HW162461   8.119   3.871   0.867 -1.0492  0.2478 -1.2926
20415SOL    HW262462   8.073   3.733   0.827  0.2920 -0.5839 -0.0391
20416SOL     OW62463   8.054   5.537   0.005 -0.9465  0.6550  0.0389
20416SOL    HW162464   8.065   5.557  -0.088 -1.5181  0.1217 -0.1509
20416SOL    HW262465   8.126   5.582   0.049 -1.6246  2.2996 -0.4789
20417SOL     OW62466   0.344   4.088   8.332 -0.0649 -0.0878 -0.1548
20417SOL    HW162467   0.385   4.049   8.254 -0.1554 -0.1848 -0.1534
20417SOL    HW262468   0.260   4.043   8.340 -0.3441  0.3818 -0.3833
20418SOL     OW62469   7.650   4.025   0.082 -0.6561 -0.4222 -0.2383
20418SOL    HW162470   7.721   4.058   0.137  1.8855 -1.6467 -2.5316
20418SOL    HW262471   7.579   4.089   0.093  1.4738  1.9502  0.7483
20419SOL     OW62472   8.409   4.962   1.588 -0.5034  0.2452 -0.4698
20419SOL    HW162473   8.369   5.024   1.526 -0.8258 -0.6525 -1.1896
20419SOL    HW262474   8.420   5.012   1.668 -0.6182  1.2811 -1.0786
20420SOL     OW62475   8.495   5.181   1.144 -0.1678  0.3107  0.6065
20420SOL    HW162476   8.514   5.104   1.197  0.5111 -1.3444 -1.8761
20420SOL    HW262477   8.406   5.167   1.112  0.4827 -0.2855 -1.0697
20421SOL     OW62478   8.473   3.544   1.449  0.1391 -0.4708  0.2909
20421SOL    HW162479   8.397   3.519   1.396  0.2552 -1.6948  0.6668
20421SOL    HW262480   8.492   3.634   1.423 -0.4109 -0.7098 -1.0107
20422SOL     OW62481   8.605   4.728   1.604  0.3133  0.2106  0.0512
20422SOL    HW162482   8.557   4.694   1.680 -1.6118  1.8852 -0.3269
20422SOL    HW262483   8.562   4.812   1.584  1.1863  0.1355 -2.4915
20423SOL     OW62484   8.703   4.779   0.466  0.3049 -0.2224  0.0508
20423SOL    HW162485   8.697   4.686   0.444  0.8213 -0.6251  1.5500
20423SOL    HW262486   8.625   4.817   0.426  1.6087 -0.6833 -3.2846
20424SOL     OW62487   7.767   4.152   1.237 -0.1110  0.3303  0.0948
20424SOL    HW162488   7.818   4.158   1.317  0.4788  1.2605 -0.3292
20424SOL    HW262489   7.742   4.060   1.231  1.9034 -0.2691  0.0970
20425SOL     OW62490   8.536   4.064   1.505  0.1201 -0.0091 -0.2933
20425SOL    HW162491   8.451   4.098   1.477 -1.2111 -3.2578 -0.5374
20425SOL    HW262492   8.595   4.085   1.433 -0.7693  1.0735 -0.7468
20426SOL     OW62493   7.711   5.400   0.950 -0.4146  0.3734  0.4902
20426SOL    HW162494   7.726   5.437   0.863 -0.9820 -0.0209  0.2192
20426SOL    HW262495   7.670   5.316   0.933  1.8932 -0.9488  1.0437
20427SOL     OW62496   8.125   4.520   0.516 -0.4102 -0.0604 -0.5889
20427SOL    HW162497   8.220   4.517   0.520 -0.3492  0.1722 -1.5572
20427SOL    HW262498   8.104   4.613   0.501 -0.9529  0.4232  2.5580
20428SOL     OW62499   7.674   3.911   0.420  0.5145 -0.5949  0.1890
20428SOL    HW162500   7.713   3.957   0.495 -1.4071  0.3510  0.6822
20428SOL    HW262501   7.736   3.842   0.399  2.5947  1.0271  0.6698
20429SOL     OW62502   8.363   5.009   0.850 -0.4889  0.6554 -0.2174
20429SOL    HW162503   8.417   4.968   0.781  1.2208 -1.2554  2.0684
20429SOL    HW262504   8.297   4.943   0.870 -0.1733  0.6411  0.8148
20430SOL     OW62505   0.474   5.254   1.022 -0.1038 -0.3830  0.1119
20430SOL    HW162506   0.476   5.272   1.116 -0.9728 -0.6352  0.1884
20430SOL    HW262507   0.406   5.187   1.012 -0.2305 -0.1385 -0.7260
20431SOL     OW62508   7.779   5.190   1.216 -1.1091  0.2005 -0.3503
20431SOL    HW162509   7.829   5.229   1.146  0.6494 -0.8698  0.2463
20431SOL    HW262510   7.755   5.263   1.273  0.2972  0.6712 -0.3401
20432SOL     OW62511   8.242   4.393   1.789  0.1320 -0.0724 -0.1092
20432SOL    HW162512   8.328   4.406   1.748  1.4405  0.1579  2.4817
20432SOL    HW262513   8.225   4.475   1.835 -1.2922 -0.2716 -0.2474
20433SOL     OW62514   8.605   3.902   2.022  0.0128  0.2190  1.1809
20433SOL    HW162515   8.574   3.862   1.940  1.7456  0.7602  0.2187
20433SOL    HW262516   8.524   3.928   2.068 -1.0789 -2.1642  0.7437
20434SOL     OW62517   7.860   3.824   1.714 -0.0703  0.1620 -0.3648
20434SOL    HW162518   7.849   3.894   1.650 -1.8221 -0.0931 -0.3915
20434SOL    HW262519   7.827   3.862   1.796 -1.6634 -0.8017 -0.5191
20435SOL     OW62520   8.152   3.982   1.437  0.0233 -0.0389 -0.3057
20435SOL    HW162521   8.172   4.065   1.479 -1.5446  0.2434 -0.0802
20435SOL    HW262522   8.146   3.919   1.509  1.2063 -0.3870 -0.4753
20436SOL     OW62523   8.537   4.115   0.852 -0.0914  0.1779  0.2945
20436SOL    HW162524   8.631   4.129   0.837 -0.0693  1.2155  1.2403
20436SOL    HW262525   8.520   4.028   0.817  1.1187  0.1758 -0.3562
20437SOL     OW62526   0.006   4.172   0.083  0.1199 -0.8654 -0.2193
20437SOL    HW162527  -0.076   4.182   0.036 -0.4932  1.5354  1.2190
20437SOL    HW262528  -0.019   4.132   0.167  0.0897  1.2908  0.8706
20438SOL     OW62529   7.455   3.757   1.006  0.6986 -0.3590  0.2407
20438SOL    HW162530   7.440   3.709   1.088  0.6667  0.5222  0.7571
20438SOL    HW262531   7.401   3.711   0.941  0.9270 -1.2200  0.6513
20439SOL     OW62532   8.028   5.367   1.248  0.5030  0.1370  0.2806
20439SOL    HW162533   8.018   5.395   1.157 -0.5109 -2.4056 -0.4837
20439SOL    HW262534   7.943   5.385   1.288  0.7783  0.7599  0.6024
20440SOL     OW62535   8.032   4.168   0.771  0.2863 -0.3083  0.4012
20440SOL    HW162536   8.077   4.115   0.837  1.0378 -0.2575 -0.0644
20440SOL    HW262537   8.038   4.258   0.803  1.5478 -0.1535 -0.2225
20441SOL     OW62538   7.231   3.763   0.438  0.7179 -0.0079  0.7456
20441SOL    HW162539   7.272   3.834   0.388 -1.1209  0.5461 -0.0411
20441SOL    HW262540   7.147   3.798   0.466  0.5425 -1.2659  1.9448
20442SOL     OW62541   0.178   4.078   0.834  0.0608  0.0259  0.1125
20442SOL    HW162542   0.204   4.134   0.907  2.9405 -1.0045  0.0124
20442SOL    HW262543   0.212   4.124   0.756 -0.1178 -0.4528 -0.2528
20443SOL     OW62544   8.220   4.241   0.438 -0.2963  0.1581 -0.2276
20443SOL    HW162545   8.240   4.208   0.350 -0.8288  0.6940 -0.5591
20443SOL    HW262546   8.176   4.325   0.422  1.0066  1.0395  0.5796
20444SOL     OW62547   8.500   5.403   1.751  0.5308  0.4535  0.1466
20444SOL    HW162548   8.408   5.427   1.739  0.1240 -0.6879  0.8405
20444SOL    HW262549   8.517   5.338   1.682  0.5859  0.0752  0.5141
20445SOL     OW62550   7.672   4.695   1.761 -0.3031  0.0216  0.1330
20445SOL    HW162551   7.660   4.603   1.785  0.8914  0.0332  0.8308
20445SOL    HW262552   7.660   4.696   1.666  2.8985 -1.4915 -0.4359
20446SOL     OW62553   0.144   4.326   8.012  1.0885 -0.4083  0.0489
20446SOL    HW162554   0.097   4.358   7.936  1.7289  0.2652 -0.0757
20446SOL    HW262555   0.107   4.239   8.029  0.5433 -0.3221 -0.6718
20447SOL     OW62556   8.176   4.811   0.829 -0.2387  0.0553  0.0472
20447SOL    HW162557   8.097   4.793   0.778  0.6419 -1.2884 -0.8971
20447SOL    HW262558   8.227   4.730   0.824  0.9934  0.7382  1.0251
20448SOL     OW62559   7.404   4.221   0.868 -0.3217  0.3571  0.1860
20448SOL    HW162560   7.398   4.216   0.963 -1.5048 -0.0522  0.1121
20448SOL    HW262561   7.405   4.129   0.839  0.0833  0.4773 -0.1903
20449SOL     OW62562   8.143   4.077   0.999 -0.1506 -0.3141  0.2847
20449SOL    HW162563   8.231   4.055   1.030  1.1765  1.2533 -2.1280
20449SOL    HW262564   8.128   4.167   1.031  1.2108  1.3049 -3.1979
20450SOL     OW62565   8.337   4.207   1.371 -0.1592 -0.5069  0.4094
20450SOL    HW162566   8.267   4.169   1.319  0.4993 -1.0949 -0.0549
20450SOL    HW262567   8.311   4.299   1.383 -1.6714 -1.0341  1.3952
20451SOL     OW62568   8.582   3.813   1.377  0.2050 -0.1165  0.1081
20451SOL    HW162569   8.670   3.803   1.412  0.1538 -1.1627 -0.0117
20451SOL    HW262570   8.568   3.907   1.372  1.3670  0.0615 -0.0092
20452SOL     OW62571   7.374   5.788   0.818  0.0646  0.4583  0.3234
20452SOL    HW162572   7.401   5.719   0.879 -0.8938 -1.6498 -1.5256
20452SOL    HW262573   7.445   5.792   0.753 -1.0420 -0.6440 -1.0019
20453SOL     OW62574   7.859   5.050   0.585 -0.4123  0.3204  0.0152
20453SOL    HW162575   7.837   5.091   0.501  2.6817 -0.9513 -1.5700
20453SOL    HW262576   7.950   5.074   0.600  0.4598 -2.9755  0.7924
20454SOL     OW62577   8.195   4.588   1.173  0.0110  0.4046 -0.6264
20454SOL    HW162578   8.112   4.591   1.125  0.6845  0.5188 -1.8360
20454SOL    HW262579   8.223   4.680   1.177  0.7831  0.2238 -1.5361
20455SOL     OW62580   7.060   4.093   0.963  0.3609 -0.6385  0.0422
20455SOL    HW162581   7.071   4.182   0.930 -1.4761 -0.1913  0.5063
20455SOL    HW262582   7.061   4.102   1.058 -0.5635 -0.9761  0.1034
20456SOL     OW62583   7.674   4.414   1.704 -0.0098 -0.1923 -0.8771
20456SOL    HW162584   7.723   4.423   1.622  0.2922 -0.2323 -0.7039
20456SOL    HW262585   7.599   4.360   1.681  0.0090 -0.1048 -1.1538
20457SOL     OW62586   8.199   4.709   0.046  0.0610 -0.5500 -0.9804
20457SOL    HW162587   8.188   4.645   0.116 -1.1869 -0.0164 -0.6690
20457SOL    HW262588   8.110   4.735   0.023  0.5520  1.7437 -0.4929
20458SOL     OW62589   7.806   5.258   1.652 -0.3039  0.3517 -0.5828
20458SOL    HW162590   7.815   5.325   1.720  0.0594  0.4591 -0.7299
20458SOL    HW262591   7.750   5.192   1.690 -0.0227  0.3639 -0.1374
20459SOL     OW62592   8.249   3.723   1.327  0.1148  0.0687 -0.2833
20459SOL    HW162593   8.263   3.815   1.351 -0.0387 -0.2517  1.1406
20459SOL    HW262594   8.270   3.719   1.234  2.5886  1.0590  0.1352
20460SOL     OW62595   8.385   5.876   1.420 -0.2745 -0.2204 -0.3308
20460SOL    HW162596   8.464   5.865   1.474 -0.0539  0.0623 -0.5953
20460SOL    HW262597   8.374   5.971   1.413  1.5008 -0.1033 -3.3829
20461SOL     OW62598   7.788   4.448   0.679  0.0920 -0.6014 -0.0620
20461SOL    HW162599   7.854   4.431   0.746  1.1347  1.3263 -0.5225
20461SOL    HW262600   7.706   4.417   0.718  0.6336  0.5485  2.1689
20462SOL     OW62601   7.822   4.762   1.285  0.8233  0.2485 -0.3279
20462SOL    HW162602   7.775   4.689   1.326  1.2467  0.6735  0.9386
20462SOL    HW262603   7.895   4.720   1.239 -0.2683 -0.3362 -1.6190
20463SOL     OW62604   8.695   4.462   1.055  0.1335 -0.1875  0.3718
20463SOL    HW162605   8.700   4.513   1.135 -0.5403  3.5296 -1.7102
20463SOL    HW262606   8.604   4.470   1.026  0.4104 -1.2015 -0.9145
20464SOL     OW62607   0.318   4.298   0.161 -0.2231  0.1459  0.8240
20464SOL    HW162608   0.253   4.366   0.143 -0.7704 -0.4999  0.3196
20464SOL    HW262609   0.397   4.347   0.187 -0.9354  0.9387  1.5759
20465SOL     OW62610   8.290   5.314   0.956 -0.2944 -0.2790 -0.8358
20465SOL    HW162611   8.252   5.227   0.967  0.1340 -0.5390 -1.3817
20465SOL    HW262612   8.323   5.314   0.867 -0.3690  0.4775 -0.8660
20466SOL     OW62613   7.785   4.446   1.181  0.0630 -0.1494 -0.1119
20466SOL    HW162614   7.733   4.479   1.253 -0.5621 -0.8269 -0.2414
20466SOL    HW262615   7.781   4.350   1.189  1.6679 -0.2221  0.1455
20467SOL     OW62616   8.149   5.898   1.843  0.1246 -0.3423 -0.3704
20467SOL    HW162617   8.124   5.988   1.864 -1.1148 -0.6665 -0.3859
20467SOL    HW262618   8.081   5.844   1.883  1.7825 -1.4051  1.1613
20468SOL     OW62619   8.587   4.125   8.817  0.2325 -0.6565 -0.3212
20468SOL    HW162620   8.597   4.163   8.729  0.3682  2.0091  0.7465
20468SOL    HW262621   8.571   4.032   8.801  0.9498 -0.4020 -3.1294
20469SOL     OW62622   8.772   5.206   0.667 -0.4153  0.5407 -0.0246
20469SOL    HW162623   8.854   5.206   0.716  1.2492 -1.7454 -2.5249
20469SOL    HW262624   8.703   5.200   0.733  1.5064  0.8211  2.0880
20470SOL     OW62625   7.165   5.117   2.028  0.3805 -0.1561  0.3406
20470SOL    HW162626   7.172   5.166   2.110 -0.4557 -1.4239  1.2127
20470SOL    HW262627   7.230   5.157   1.970  1.2964  0.4916  1.7645
20471SOL     OW62628   0.020   4.537   0.641  0.7390  0.1199  0.2971
20471SOL    HW162629  -0.068   4.506   0.619  0.4040  0.5915  0.9360
20471SOL    HW262630   0.078   4.464   0.620  0.1972 -0.1661 -0.1912
20472SOL     OW62631   8.045   5.084   1.611 -0.1422  0.2826 -0.1202
20472SOL    HW162632   7.992   5.078   1.691 -0.0407  0.2132 -0.0578
20472SOL    HW262633   7.982   5.076   1.540  0.0398 -2.3643 -0.0759
20473SOL     OW62634   8.406   5.920   0.130  0.6193 -0.5135  0.2740
20473SOL    HW162635   8.353   5.998   0.111  0.4154 -1.2063 -2.3984
20473SOL    HW262636   8.497   5.952   0.130  0.7249 -0.5027 -2.9940
20474SOL     OW62637   7.613   3.922   0.807 -0.4380 -0.4806 -0.1493
20474SOL    HW162638   7.539   3.902   0.864  0.3201  2.2618  2.0639
20474SOL    HW262639   7.575   3.962   0.729 -1.3987  1.4863  1.2302
20475SOL     OW62640   8.672   4.762   0.126 -0.0525 -0.1018 -0.3482
20475SOL    HW162641   8.590   4.781   0.080 -0.5394 -2.8658 -0.7727
20475SOL    HW262642   8.727   4.720   0.061  1.3412  0.7973  0.2187
20476SOL     OW62643   8.238   4.754   1.458 -0.4915  0.0736  0.1145
20476SOL    HW162644   8.285   4.781   1.537  0.0317 -1.0283  0.2000
20476SOL    HW262645   8.282   4.799   1.386  1.7386 -2.0494  0.0127
20477SOL     OW62646   8.757   4.165   8.299  0.5291  0.0120  0.4222
20477SOL    HW162647   8.752   4.256   8.270  0.4372 -0.0752  0.1606
20477SOL    HW262648   8.784   4.116   8.221  1.1088 -0.1165  0.6918
20478SOL     OW62649   7.912   5.021   1.388  0.3115  0.4623 -0.5403
20478SOL    HW162650   7.899   4.946   1.330 -0.9020  0.3532 -0.1586
20478SOL    HW262651   7.858   5.091   1.350 -1.5996 -0.0036  1.1174
20479SOL     OW62652   8.115   5.080   0.627  0.1105 -0.5996 -0.2542
20479SOL    HW162653   8.170   5.009   0.663  0.2718 -0.1772  0.3388
20479SOL    HW262654   8.177   5.136   0.581 -0.0407 -0.9222 -0.8626
20480SOL     OW62655   8.263   4.049   0.648 -0.6119  0.1318 -0.2855
20480SOL    HW162656   8.230   4.066   0.560 -1.9743  0.1295  0.2131
20480SOL    HW262657   8.198   4.087   0.707  0.0150 -0.3318  0.7436
20481SOL     OW62658   8.065   5.272   0.336  0.2619 -0.5982 -0.2614
20481SOL    HW162659   8.061   5.177   0.327 -0.6369 -0.5931  0.0028
20481SOL    HW262660   8.132   5.299   0.273 -0.2690 -1.3015 -1.1546
20482SOL     OW62661   7.794   5.100   8.832  0.7843 -0.5777  0.0938
20482SOL    HW162662   7.870   5.154   8.810 -1.2985  2.2824 -0.7845
20482SOL    HW262663   7.785   5.039   8.759  1.7880 -0.4540 -0.1492
20483SOL     OW62664   7.476   4.342   1.487 -0.4072 -0.4839 -0.0226
20483SOL    HW162665   7.385   4.373   1.486 -0.3499 -0.3246 -0.3070
20483SOL    HW262666   7.472   4.254   1.450 -0.3216 -0.1257 -0.9112
20484SOL     OW62667   8.126   3.836   2.056 -0.3885 -0.0826  0.2537
20484SOL    HW162668   8.077   3.831   2.138 -1.5986 -0.6789 -0.4914
20484SOL    HW262669   8.076   3.785   1.994  0.7184  0.0358 -0.7825
20485SOL     OW62670   7.405   3.939   0.324  0.0475  0.2935 -0.6909
20485SOL    HW162671   7.419   4.033   0.317  0.9107  0.4297  1.9385
20485SOL    HW262672   7.493   3.902   0.335 -0.0927 -1.0883 -3.2360
20486SOL     OW62673   8.430   4.520   1.028  0.5730  0.3387  0.5284
20486SOL    HW162674   8.382   4.515   0.946 -0.2253  2.0164  0.8438
20486SOL    HW262675   8.363   4.540   1.094  1.4180  0.7046  1.2986
20487SOL     OW62676   7.337   3.787   0.094  0.1421 -0.5704 -0.0013
20487SOL    HW162677   7.361   3.800   0.185 -3.2063 -3.4448  1.5178
20487SOL    HW262678   7.306   3.873   0.065 -2.1263 -0.2810  2.8268
20488SOL     OW62679   8.428   4.926   0.580  0.1593  0.2201  0.2328
20488SOL    HW162680   8.348   4.942   0.530  0.3370 -0.1982 -0.1876
20488SOL    HW262681   8.493   4.983   0.538  0.7105 -1.2932 -1.0542
20489SOL     OW62682   7.889   4.221   1.466  0.0940  0.0911 -0.0534
20489SOL    HW162683   7.850   4.158   1.527  0.3276 -0.9595 -0.9521
20489SOL    HW262684   7.977   4.235   1.499  0.4466 -0.9853 -0.4854
20490SOL     OW62685   8.494   3.866   1.748 -0.0162  0.1323  0.3047
20490SOL    HW162686   8.494   3.961   1.744 -0.3769  0.1802  1.0946
20490SOL    HW262687   8.412   3.840   1.706 -0.8876  0.2926  1.8349
20491SOL     OW62688   8.612   4.341   1.355 -0.3291  0.6410 -0.1072
20491SOL    HW162689   8.626   4.328   1.449  1.5802 -2.1651 -0.6420
20491SOL    HW262690   8.518   4.356   1.346 -0.5056  1.2777  2.2517
20492SOL     OW62691   7.829   5.388   1.424 -0.1813  0.9077  0.3604
20492SOL    HW162692   7.740   5.410   1.397  0.0549 -0.0565 -1.3620
20492SOL    HW262693   7.818   5.321   1.492 -0.7942  0.0811 -0.5231
20493SOL     OW62694   8.540   4.114   0.471  0.2143  0.7427  0.2085
20493SOL    HW162695   8.620   4.104   0.523  0.6642  0.9760 -0.4329
20493SOL    HW262696   8.472   4.070   0.524  1.3723 -2.5267 -0.7414
20494SOL     OW62697   8.075   4.414   0.844  0.1395 -0.1263  0.0954
20494SOL    HW162698   8.070   4.484   0.909 -1.6478  2.1307 -2.2970
20494SOL    HW262699   8.144   4.442   0.784 -0.0503 -0.8325 -0.4602
20495SOL     OW62700   8.094   5.267   0.014  0.5374  0.4396 -0.6852
20495SOL    HW162701   8.054   5.352   0.029  0.4820  0.3756 -0.4810
20495SOL    HW262702   8.106   5.263  -0.081 -0.7162  0.1080 -0.8498
20496SOL     OW62703   8.031   5.314   0.753 -0.8271  0.0419 -0.3899
20496SOL    HW162704   8.022   5.370   0.676 -1.6128  0.2378 -0.1658
20496SOL    HW262705   8.057   5.229   0.718 -0.6097  0.2827 -0.8191
20497SOL     OW62706   8.410   4.293   0.662 -0.1063  0.2723 -0.0057
20497SOL    HW162707   8.426   4.223   0.725 -0.5606 -0.0229 -0.2132
20497SOL    HW262708   8.364   4.250   0.589 -1.1255  0.9313  0.2253
20498SOL     OW62709   8.782   4.860   8.686  0.1852 -0.0712 -0.7184
20498SOL    HW162710   8.816   4.931   8.741 -0.9107 -0.0853 -0.0003
20498SOL    HW262711   8.699   4.895   8.651 -0.2922 -0.9357 -0.4769
20499SOL     OW62712   7.563   5.177   2.145  0.2329 -0.2089  0.5110
20499SOL    HW162713   7.491   5.175   2.209  0.9185 -1.3126  1.2886
20499SOL    HW262714   7.570   5.086   2.115 -1.4529  0.5942 -2.7849
20500SOL     OW62715   7.642   4.969   0.735 -0.7475 -0.4799  0.5343
20500SOL    HW162716   7.717   5.006   0.688  0.0693 -0.0677  2.0759
20500SOL    HW262717   7.591   4.924   0.668  0.7635 -0.5779 -0.6014
20501SOL     OW62718   8.093   5.355   1.534  0.4436  0.7084 -0.5653
20501SOL    HW162719   8.044   5.358   1.452  1.7946 -0.3333 -1.4651
20501SOL    HW262720   8.085   5.264   1.563  1.7421  0.5405 -0.6902
20502SOL     OW62721   7.486   3.644   0.583  0.4224  0.0560 -0.0045
20502SOL    HW162722   7.519   3.599   0.505 -2.5290 -1.4198 -0.5183
20502SOL    HW262723   7.410   3.694   0.552 -0.3542  0.0406  1.7895
20503SOL     OW62724   7.934   3.840   1.340  0.0349  0.1987  0.6158
20503SOL    HW162725   7.980   3.922   1.359 -0.8616  0.7761  0.3268
20503SOL    HW262726   7.948   3.826   1.246  0.1942 -0.0013  0.6657
20504SOL     OW62727   8.179   5.643   0.343  0.7370 -0.0953 -0.0523
20504SOL    HW162728   8.191   5.645   0.248  1.4778  0.1531  0.0358
20504SOL    HW262729   8.251   5.696   0.377 -0.2687  0.8952  0.5840
20505SOL     OW62730   8.386   4.085   1.109  0.2862  0.2795 -0.4560
20505SOL    HW162731   8.448   4.119   1.045  1.0937 -0.0333  0.1478
20505SOL    HW262732   8.400   4.138   1.187 -1.1705  1.1162 -0.7147
20506SOL     OW62733   8.326   3.691   1.046 -0.1424  0.1545  0.5306
20506SOL    HW162734   8.258   3.730   0.991 -0.4902 -2.1021 -0.7754
20506SOL    HW262735   8.408   3.707   0.999 -0.2564 -0.4792  0.1117
20507SOL     OW62736   8.322   4.949   0.293 -0.8268 -0.1747  0.2294
20507SOL    HW162737   8.238   4.977   0.256 -1.4666  0.9800  2.3542
20507SOL    HW262738   8.388   4.990   0.237 -1.7456  1.9002  0.5583
20508SOL     OW62739   8.281   5.112   1.418  0.0347 -0.2014  0.0972
20508SOL    HW162740   8.199   5.123   1.465  0.3981  1.0027  0.4984
20508SOL    HW262741   8.269   5.161   1.337  0.7486  1.0119  0.6930
20509SOL     OW62742   7.620   5.277   0.082  0.3376 -0.6261 -0.1046
20509SOL    HW162743   7.686   5.212   0.060  2.0845  0.5557  1.3880
20509SOL    HW262744   7.635   5.349   0.021  1.6416  0.3712  1.3191
20510SOL     OW62745   8.492   5.296   0.356  0.1125 -0.5478  0.0061
20510SOL    HW162746   8.560   5.360   0.333 -1.1355  1.2733  1.0875
20510SOL    HW262747   8.422   5.313   0.293 -0.7775  0.1370  1.1406
20511SOL     OW62748   7.889   4.658   1.915 -0.3194  0.5202  0.5677
20511SOL    HW162749   7.824   4.703   1.862  0.3092  1.3715  0.4919
20511SOL    HW262750   7.838   4.605   1.976 -1.0557 -1.3621 -1.5695
20512SOL     OW62751   7.405   4.116   2.578 -0.0832  0.4353 -0.9109
20512SOL    HW162752   7.432   4.075   2.495 -0.4785  1.0230 -1.3433
20512SOL    HW262753   7.356   4.048   2.624 -0.5842  0.3569 -1.5439
20513SOL     OW62754   7.460   4.533   2.390 -0.6371  0.4621  0.5790
20513SOL    HW162755   7.380   4.581   2.412  0.7572  2.7390  0.9912
20513SOL    HW262756   7.456   4.522   2.295 -1.5705  0.2758  0.6269
20514SOL     OW62757   8.127   5.444   3.130  0.3056  0.5456 -0.2361
20514SOL    HW162758   8.139   5.382   3.202  1.1588  1.1438  0.1432
20514SOL    HW262759   8.148   5.529   3.168 -1.5997  1.1979 -0.5380
20515SOL     OW62760   0.164   5.383   2.425 -0.1025 -0.4136 -0.3419
20515SOL    HW162761   0.155   5.464   2.374  1.3139  0.0875  0.1568
20515SOL    HW262762   0.087   5.331   2.401 -0.1972  0.3908 -1.9090
20516SOL     OW62763   8.400   4.908   2.401 -0.0139  0.1928 -0.4591
20516SOL    HW162764   8.376   4.862   2.320  2.0671  0.1826 -1.1219
20516SOL    HW262765   8.375   4.848   2.471 -0.4012 -0.4950 -1.1720
20517SOL     OW62766   7.633   5.248   2.967 -0.2940  0.2129  0.0097
20517SOL    HW162767   7.560   5.247   2.905  0.1281  1.8666 -0.5425
20517SOL    HW262768   7.702   5.199   2.923 -0.5038  0.0541 -0.1494
20518SOL     OW62769   8.354   4.120   3.546 -0.2748  0.2323 -0.3717
20518SOL    HW162770   8.436   4.092   3.587  0.0836  1.0404 -0.5230
20518SOL    HW262771   8.340   4.209   3.578 -1.7807 -0.3315  0.6829
20519SOL     OW62772   8.086   4.788   2.386  0.0786  0.4652 -0.4853
20519SOL    HW162773   8.106   4.881   2.384 -1.6097  0.8930  0.1186
20519SOL    HW262774   8.060   4.767   2.296  1.1083  0.4014 -0.7755
20520SOL     OW62775   8.261   4.673   3.711 -0.0601  0.0993 -0.1367
20520SOL    HW162776   8.330   4.739   3.716 -0.1541  0.1485  0.7169
20520SOL    HW262777   8.209   4.697   3.635  1.6395 -0.7008 -1.6175
20521SOL     OW62778   7.384   5.152   2.840 -0.4442  0.4481  0.0290
20521SOL    HW162779   7.399   5.087   2.771  0.6554 -0.6570  1.2345
20521SOL    HW262780   7.306   5.121   2.885 -1.1949  1.2001 -0.7371
20522SOL     OW62781   7.408   4.071   3.395  0.0852 -0.6422  0.1875
20522SOL    HW162782   7.419   4.033   3.482 -0.1885 -2.8073 -0.6551
20522SOL    HW262783   7.319   4.104   3.393  0.5721  0.8427  1.1915
20523SOL     OW62784   7.214   6.067   2.536  0.2569  0.2976  0.1831
20523SOL    HW162785   7.226   6.003   2.465 -2.2127 -0.9433  0.7797
20523SOL    HW262786   7.182   6.145   2.491 -1.5187 -0.5523 -0.1298
20524SOL     OW62787   8.400   4.912   3.652 -0.3369 -0.1034 -0.1828
20524SOL    HW162788   8.495   4.903   3.660 -0.4574 -0.7550  0.6517
20524SOL    HW262789   8.387   4.944   3.563  0.6946  0.4803 -0.1406
20525SOL     OW62790   7.802   5.282   2.419 -0.2998  0.5843 -0.2528
20525SOL    HW162791   7.887   5.302   2.457  0.5870 -2.0054 -0.7114
20525SOL    HW262792   7.781   5.195   2.452 -1.2397 -0.1969 -2.7166
20526SOL     OW62793   7.784   5.050   2.595 -0.7545  0.4242 -0.1668
20526SOL    HW162794   7.845   4.980   2.569  0.7192  2.0656 -1.3801
20526SOL    HW262795   7.701   5.005   2.610  0.4759 -1.7803  0.5395
20527SOL     OW62796   8.281   5.524   3.572  0.0848  0.3164  0.1537
20527SOL    HW162797   8.357   5.496   3.520  0.5327  1.0317  0.4062
20527SOL    HW262798   8.208   5.523   3.510  0.3346 -0.1802 -0.1441
20528SOL     OW62799   7.696   4.561   2.100 -0.0594  0.7293  0.1340
20528SOL    HW162800   7.737   4.516   2.173  1.2394  2.5612  0.6020
20528SOL    HW262801   7.602   4.550   2.114  0.1921 -0.1031  1.2907
20529SOL     OW62802   7.856   4.494   2.332  0.1899  0.1184  0.3211
20529SOL    HW162803   7.884   4.557   2.399  2.3219 -0.6937  0.2952
20529SOL    HW262804   7.937   4.448   2.308 -1.1225 -1.9146 -0.4088
20530SOL     OW62805   7.695   5.454   1.849  0.1517 -0.2888 -0.3128
20530SOL    HW162806   7.671   5.536   1.806 -1.1185 -0.9123 -0.8445
20530SOL    HW262807   7.626   5.440   1.914  0.1103 -1.1558 -0.5292
20531SOL     OW62808   0.207   4.709   2.327 -0.4659  0.1772 -0.1690
20531SOL    HW162809   0.167   4.791   2.357 -0.8816 -0.3937  0.9079
20531SOL    HW262810   0.145   4.641   2.352  0.0965 -0.5174 -0.6042
20532SOL     OW62811   7.182   4.303   3.173 -0.3400 -0.2310 -0.1028
20532SOL    HW162812   7.212   4.218   3.141 -1.1892 -1.7182  2.7036
20532SOL    HW262813   7.099   4.318   3.129 -0.7653 -1.4673  0.2508
20533SOL     OW62814   8.135   5.334   2.858 -0.3768  0.5289  0.2626
20533SOL    HW162815   8.132   5.392   2.934  1.8325 -0.6413  1.3260
20533SOL    HW262816   8.062   5.273   2.871  0.4123 -0.1273  1.8909
20534SOL     OW62817   8.734   5.132   3.797 -0.8880  0.3597  0.3673
20534SOL    HW162818   8.692   5.052   3.766 -0.9427  0.1543  0.9617
20534SOL    HW262819   8.664   5.197   3.796 -0.7377  0.5151 -0.5359
20535SOL     OW62820   8.390   3.621   2.455 -0.2363 -0.6442 -0.5499
20535SOL    HW162821   8.465   3.622   2.515 -1.5734 -0.6998  1.2173
20535SOL    HW262822   8.331   3.688   2.490 -2.1036 -2.2946 -0.3655
20536SOL     OW62823   7.489   4.625   3.417  0.1191  0.6779  0.4296
20536SOL    HW162824   7.465   4.706   3.462  0.3312  0.0697  1.6892
20536SOL    HW262825   7.524   4.569   3.486 -0.1250 -0.5311 -0.3944
20537SOL     OW62826   0.056   5.236   3.373  0.3961  0.2540 -0.5775
20537SOL    HW162827   0.034   5.143   3.367 -0.5806  0.3468  1.0847
20537SOL    HW262828   0.043   5.270   3.284 -0.6838 -0.8905 -0.8823
20538SOL     OW62829   7.553   3.857   4.119  0.4114 -0.3157  0.6334
20538SOL    HW162830   7.479   3.918   4.121 -0.3411 -1.1796 -0.0085
20538SOL    HW262831   7.614   3.895   4.055  1.2873  1.2054  2.2780
20539SOL     OW62832   8.307   4.707   2.196 -0.3300  0.6336  0.1267
20539SOL    HW162833   8.252   4.654   2.254 -0.2365 -0.1077 -0.4626
20539SOL    HW262834   8.254   4.720   2.118 -0.4498  1.6222  0.3531
20540SOL     OW62835   0.586   4.048   2.859  0.5232 -0.1827 -0.0916
20540SOL    HW162836   0.536   4.104   2.918  1.3377 -1.4106  1.8482
20540SOL    HW262837   0.550   4.068   2.772 -1.1180  1.2667  0.8402
20541SOL     OW62838   8.456   4.343   2.649  1.0206  0.6414 -0.6465
20541SOL    HW162839   8.530   4.289   2.678  1.8275  1.6835 -0.7011
20541SOL    HW262840   8.409   4.364   2.730  0.1803 -0.8446 -0.7153
20542SOL     OW62841   0.007   4.324   3.500 -0.1530  0.3650 -0.3041
20542SOL    HW162842   0.047   4.411   3.494 -0.0123  0.2648 -0.9576
20542SOL    HW262843   0.070   4.266   3.457  0.3916 -0.2928  1.3190
20543SOL     OW62844   8.749   4.479   3.132  0.2207 -0.2879  0.4537
20543SOL    HW162845   8.843   4.462   3.142  0.2610 -0.8292 -0.7288
20543SOL    HW262846   8.710   4.444   3.212  0.9555 -0.5932  0.6897
20544SOL     OW62847   8.670   4.178   2.402  0.4117 -0.1339 -0.4062
20544SOL    HW162848   8.632   4.263   2.380  1.6796  0.7318  0.5678
20544SOL    HW262849   8.645   4.164   2.494  0.0354 -0.9186 -0.6216
20545SOL     OW62850   8.695   4.848   2.365 -0.1730  0.1009 -0.0028
20545SOL    HW162851   8.664   4.866   2.453 -0.3100  0.1043 -0.0520
20545SOL    HW262852   8.644   4.773   2.336 -0.3102  0.2608 -0.1762
20546SOL     OW62853   7.408   4.551   2.781  0.1269 -0.3864  0.7687
20546SOL    HW162854   7.390   4.626   2.838 -1.1024 -0.9677  1.1834
20546SOL    HW262855   7.415   4.477   2.842  1.3324 -0.6246  0.3660
20547SOL     OW62856   7.636   5.602   3.391 -0.1878  0.5503  0.0305
20547SOL    HW162857   7.550   5.641   3.373 -0.6710 -1.1064 -1.6987
20547SOL    HW262858   7.694   5.640   3.325 -0.5633 -1.1375 -1.3742
20548SOL     OW62859   8.414   4.107   1.848 -0.6785 -0.2930  0.2974
20548SOL    HW162860   8.424   4.095   1.942 -1.3112 -0.0183  0.4038
20548SOL    HW262861   8.339   4.054   1.824 -0.2310 -0.7419 -0.1427
20549SOL     OW62862   8.800   5.206   2.197 -0.2765 -0.6425  0.0681
20549SOL    HW162863   8.724   5.169   2.153 -0.6803 -0.1863  0.3724
20549SOL    HW262864   8.764   5.272   2.257  0.3530 -0.4352  0.2307
20550SOL     OW62865   8.150   3.464   2.813 -0.1955 -0.0575  0.0477
20550SOL    HW162866   8.058   3.492   2.807 -0.4815 -0.3608  2.2790
20550SOL    HW262867   8.198   3.545   2.829 -0.2444 -0.0680  0.2482
20551SOL     OW62868   8.353   5.457   2.282  0.0733 -0.3749  0.1313
20551SOL    HW162869   8.293   5.528   2.257 -1.8010 -0.6062  3.3826
20551SOL    HW262870   8.407   5.442   2.205 -1.9956  2.0106 -1.9323
20552SOL     OW62871   7.782   5.769   2.598 -0.4789  0.5611 -0.0985
20552SOL    HW162872   7.797   5.744   2.507  1.5808 -0.8737  0.5683
20552SOL    HW262873   7.866   5.803   2.628 -1.7173  3.2721  0.6745
20553SOL     OW62874   0.178   5.058   3.804  0.0210 -0.5225  0.4028
20553SOL    HW162875   0.103   5.115   3.824  0.8713  0.4675  0.8795
20553SOL    HW262876   0.162   4.979   3.856 -0.3015  0.0021  1.1249
20554SOL     OW62877   7.421   4.565   2.112 -0.4644 -0.1917 -0.5268
20554SOL    HW162878   7.352   4.631   2.112 -0.2660  0.0131 -0.6032
20554SOL    HW262879   7.403   4.511   2.035 -0.8956 -0.5093 -0.2116
20555SOL     OW62880   8.055   5.085   3.462 -0.4251 -0.4188  0.0121
20555SOL    HW162881   8.071   5.013   3.401 -0.3732 -0.0493 -0.4152
20555SOL    HW262882   7.960   5.097   3.461 -0.5513 -1.2237  0.9492
20556SOL     OW62883   8.711   5.918   1.843 -0.0208  0.6554  0.3668
20556SOL    HW162884   8.618   5.928   1.819 -0.2611  2.8642  1.8977
20556SOL    HW262885   8.714   5.941   1.935  2.2175  1.7126  0.0835
20557SOL     OW62886   7.564   3.945   3.145 -0.2084 -0.0628  0.5663
20557SOL    HW162887   7.501   3.952   3.216 -1.3690  0.2516 -0.4540
20557SOL    HW262888   7.560   3.852   3.120  0.7552 -0.3387  1.3772
20558SOL     OW62889   7.495   6.019   2.606 -0.2138 -0.4062 -0.3631
20558SOL    HW162890   7.504   5.977   2.520 -2.1789  0.3802 -0.9981
20558SOL    HW262891   7.403   6.045   2.611  0.5655  2.5841  0.5713
20559SOL     OW62892   7.452   5.297   3.205 -0.1986  0.7719  0.3391
20559SOL    HW162893   7.519   5.307   3.137 -0.2729 -2.2520 -0.3205
20559SOL    HW262894   7.502   5.294   3.287  0.2516  0.7461  0.0670
20560SOL     OW62895   8.076   5.404   2.578  0.2326  0.2825  0.4038
20560SOL    HW162896   8.053   5.406   2.671 -0.2865  1.9539  0.2726
20560SOL    HW262897   8.075   5.495   2.551 -0.1828 -0.2046 -1.3831
20561SOL     OW62898   7.588   4.446   2.614 -0.0614 -0.8323  0.3813
20561SOL    HW162899   7.511   4.472   2.664 -0.2170 -1.3259  0.4059
20561SOL    HW262900   7.570   4.477   2.525  0.3450  0.3049  0.6818
20562SOL     OW62901   8.218   3.863   2.469 -0.2517 -0.7816  0.3044
20562SOL    HW162902   8.134   3.818   2.458  0.0457 -1.5955  1.2308
20562SOL    HW262903   8.206   3.947   2.425 -1.9409 -0.4089  1.3924
20563SOL     OW62904   8.425   4.014   3.300 -0.6642 -0.2288  0.0124
20563SOL    HW162905   8.385   4.042   3.383  0.5064 -1.1543  0.9360
20563SOL    HW262906   8.419   3.918   3.302 -0.0229 -0.2916 -0.6551
20564SOL     OW62907   8.323   5.036   2.928  0.0224  0.1585 -0.4212
20564SOL    HW162908   8.241   5.049   2.975 -0.7277 -1.3972 -1.2098
20564SOL    HW262909   8.391   5.048   2.994 -0.9197 -0.1974  0.6388
20565SOL     OW62910   8.416   4.534   3.396  0.0349 -0.2552  0.0857
20565SOL    HW162911   8.353   4.497   3.457  1.2374  0.2180  1.6895
20565SOL    HW262912   8.494   4.479   3.406  0.1973 -0.2818 -1.1731
20566SOL     OW62913   7.808   5.528   2.938 -0.2859  0.0639  0.4118
20566SOL    HW162914   7.885   5.545   2.885  0.1888  2.9624  1.8273
20566SOL    HW262915   7.789   5.435   2.925  1.6571 -0.0476 -2.2536
20567SOL     OW62916   0.023   4.520   2.339 -0.3926 -0.1709 -0.5365
20567SOL    HW162917  -0.065   4.521   2.300 -0.1402 -1.5618 -1.2045
20567SOL    HW262918   0.070   4.452   2.290  1.0326  0.4727 -0.1221
20568SOL     OW62919   7.725   4.261   2.417  0.5939  0.2064  0.1040
20568SOL    HW162920   7.660   4.272   2.486  0.8103  1.8493  0.0861
20568SOL    HW262921   7.720   4.341   2.366 -0.0629 -1.2282 -2.2709
20569SOL     OW62922   8.814   4.558   1.510 -0.2377  0.6510  0.0903
20569SOL    HW162923   8.854   4.628   1.459 -1.4624  1.2995 -0.0108
20569SOL    HW262924   8.738   4.599   1.552 -0.6246 -0.4639  0.5203
20570SOL     OW62925   7.541   3.794   1.710  1.2124 -0.4498 -0.1843
20570SOL    HW162926   7.533   3.798   1.614  1.6768 -2.6651 -0.3662
20570SOL    HW262927   7.635   3.778   1.725  0.9634 -1.2611  0.5630
20571SOL     OW62928   8.383   3.893   2.659 -0.0382 -0.0530  0.1200
20571SOL    HW162929   8.467   3.897   2.614  0.7381 -1.9713  1.3087
20571SOL    HW262930   8.318   3.887   2.588  1.0845 -2.1236 -0.8173
20572SOL     OW62931   8.303   4.673   2.967 -0.8316  0.1875 -0.7214
20572SOL    HW162932   8.340   4.741   2.911  0.7727  0.6755  0.8444
20572SOL    HW262933   8.320   4.591   2.920  0.1567  0.6099 -1.1260
20573SOL     OW62934   8.388   5.286   2.757 -0.6280 -0.4814 -0.0630
20573SOL    HW162935   8.311   5.277   2.814 -2.2636  2.4307 -1.5577
20573SOL    HW262936   8.354   5.268   2.669  0.8781 -0.8828 -0.5904
20574SOL     OW62937   7.866   5.173   2.836 -0.4208  0.5203  0.5325
20574SOL    HW162938   7.896   5.094   2.882  1.0554  0.2779 -0.7611
20574SOL    HW262939   7.868   5.149   2.743  1.3230  2.4463  0.0059
20575SOL     OW62940   8.520   5.535   2.777  0.5731 -0.1380  0.0652
20575SOL    HW162941   8.586   5.557   2.711  1.4871 -1.6609  0.4117
20575SOL    HW262942   8.496   5.444   2.756  1.3120 -0.8567  2.1374
20576SOL     OW62943   8.717   4.566   1.993 -0.4084  0.5515 -0.5012
20576SOL    HW162944   8.697   4.511   1.918  1.2511  0.2484 -0.7765
20576SOL    HW262945   8.754   4.646   1.954  1.1729  0.0843 -0.0260
20577SOL     OW62946   7.226   3.956   2.700  0.4176  0.1142  0.8824
20577SOL    HW162947   7.134   3.937   2.682  0.7110 -0.3555 -0.1814
20577SOL    HW262948   7.263   3.872   2.729  0.8097 -0.0315 -0.0005
20578SOL     OW62949   7.850   3.833   2.510 -0.1164 -0.4613  0.2246
20578SOL    HW162950   7.883   3.921   2.530  0.9580 -1.4716  3.5407
20578SOL    HW262951   7.755   3.842   2.509 -0.0637  0.6088  1.6005
20579SOL     OW62952   7.909   4.112   2.545  0.0120  0.1811 -0.4809
20579SOL    HW162953   7.851   4.172   2.497 -0.2405  1.0215  0.8181
20579SOL    HW262954   7.996   4.149   2.534 -0.1582  0.8957  0.4214
20580SOL     OW62955   0.115   3.645   2.687 -0.3433 -0.5847  0.4170
20580SOL    HW162956   0.084   3.586   2.756 -1.5345 -0.4216  0.0423
20580SOL    HW262957   0.077   3.610   2.606  0.0316 -0.0706  0.0109
20581SOL     OW62958   7.827   5.313   2.036  0.5834  0.3064  0.3170
20581SOL    HW162959   7.773   5.307   2.115  0.1538 -0.8320 -0.0468
20581SOL    HW262960   7.768   5.346   1.968  0.3103 -0.9857 -0.0930
20582SOL     OW62961   0.022   3.837   1.984  0.2539  0.1000  0.2039
20582SOL    HW162962  -0.068   3.868   1.998  0.7833  1.8939 -0.0996
20582SOL    HW262963   0.016   3.779   1.909 -0.7110 -0.0790  0.4031
20583SOL     OW62964   7.766   4.231   1.960 -0.0093  0.7135 -0.3787
20583SOL    HW162965   7.857   4.260   1.971  0.3540 -0.6212  0.3726
20583SOL    HW262966   7.727   4.295   1.900  0.8204  2.5234  0.9326
20584SOL     OW62967   8.448   4.757   3.204  0.2113 -0.8416 -0.3732
20584SOL    HW162968   8.435   4.678   3.257  1.5427 -1.4899 -0.9598
20584SOL    HW262969   8.412   4.734   3.118  1.4610 -1.1848 -0.8246
20585SOL     OW62970   8.645   4.943   3.318 -0.3142  0.1233 -0.3718
20585SOL    HW162971   8.609   4.869   3.270 -0.0645 -0.1977 -0.0739
20585SOL    HW262972   8.712   4.905   3.374  0.5276  0.7106 -0.9504
20586SOL     OW62973   8.503   4.195   3.024  0.4060 -0.1359 -0.2380
20586SOL    HW162974   8.447   4.128   2.984  1.5176 -1.7529  0.8146
20586SOL    HW262975   8.535   4.155   3.105 -0.0387  2.2162  1.2291
20587SOL     OW62976   8.052   4.898   3.261  0.1259  0.0179 -0.2703
20587SOL    HW162977   8.054   4.926   3.170 -0.5096  0.3872 -0.1733
20587SOL    HW262978   7.989   4.826   3.263 -0.3500  0.4368 -0.0088
20588SOL     OW62979   8.352   5.047   2.153  0.1478 -0.6550  0.5641
20588SOL    HW162980   8.295   4.981   2.114  0.7781 -1.2391  0.6150
20588SOL    HW262981   8.307   5.073   2.234 -0.2630 -0.7840  0.3798
20589SOL     OW62982   8.091   4.446   3.421  0.0242  0.4230 -0.7317
20589SOL    HW162983   8.087   4.402   3.335  0.6911 -0.2876 -0.4092
20589SOL    HW262984   8.058   4.380   3.482  0.3370  0.6401 -0.3316
20590SOL     OW62985   8.709   3.879   2.785  0.6765  0.2314 -0.2208
20590SOL    HW162986   8.651   3.838   2.850  0.8884 -2.4894 -1.5862
20590SOL    HW262987   8.795   3.882   2.828  0.3420  0.6436  0.4347
20591SOL     OW62988   7.257   4.945   3.233 -0.3494 -0.5618 -0.0884
20591SOL    HW162989   7.231   4.853   3.230  1.4357 -1.2176  2.1098
20591SOL    HW262990   7.212   4.981   3.309  0.3273 -0.1041  0.1102
20592SOL     OW62991   7.633   4.859   2.027  0.1241 -0.1446  0.0848
20592SOL    HW162992   7.606   4.836   1.938 -0.5574 -0.1967  0.3017
20592SOL    HW262993   7.684   4.784   2.057  1.0439  0.2083 -0.5456
20593SOL     OW62994   8.625   3.599   2.621  0.1202 -0.6180 -0.5501
20593SOL    HW162995   8.633   3.689   2.652 -0.2514 -1.3803  1.9186
20593SOL    HW262996   8.704   3.585   2.568  0.8852  0.7160  0.1886
20594SOL     OW62997   8.623   5.622   2.310  0.0911  0.3265 -0.0685
20594SOL    HW162998   8.575   5.563   2.252 -0.7250  1.7766 -0.9337
20594SOL    HW262999   8.554   5.664   2.362  0.5747  1.1429 -0.0738
20595SOL     OW63000   8.552   5.048   3.061 -0.0086 -0.3580 -0.4963
20595SOL    HW163001   8.586   5.025   3.148  0.4381  0.6573 -0.3805
20595SOL    HW263002   8.572   4.973   3.006  1.5430 -0.1897 -0.1902
20596SOL     OW63003   7.494   4.960   3.088  0.4791  0.3881  0.2115
20596SOL    HW163004   7.542   5.040   3.066 -0.6596  1.2710  0.8242
20596SOL    HW263005   7.415   4.991   3.133 -1.3478 -0.8807 -1.8949
20597SOL     OW63006   7.604   4.265   3.359  0.4386 -0.1323  0.0946
20597SOL    HW163007   7.607   4.308   3.444  1.6461  0.0430 -0.0224
20597SOL    HW263008   7.547   4.189   3.373 -1.2388  1.1388  0.4547
20598SOL     OW63009   8.501   3.734   3.313 -0.3659  0.2945  0.5811
20598SOL    HW163010   8.464   3.701   3.230 -1.5452 -0.5737  1.4179
20598SOL    HW263011   8.591   3.702   3.312  0.9959  3.6423 -2.1557
20599SOL     OW63012   7.668   3.905   3.500  0.6971 -0.0899 -0.0276
20599SOL    HW163013   7.734   3.893   3.569 -1.2470 -0.8218  1.8054
20599SOL    HW263014   7.718   3.937   3.425  2.8734  1.2028  1.8365
20600SOL     OW63015   8.003   4.431   2.803  0.4093 -0.3210 -0.3195
20600SOL    HW163016   7.946   4.504   2.779 -0.7974 -1.2221 -0.2515
20600SOL    HW263017   7.943   4.359   2.824  1.5683 -1.2909 -0.2351
20601SOL     OW63018   8.611   4.894   2.650 -0.0803  0.0294 -0.8561
20601SOL    HW163019   8.584   4.985   2.642  0.5101  0.0503 -3.4139
20601SOL    HW263020   8.701   4.899   2.685 -0.7188  0.2688  0.8772
20602SOL     OW63021   8.039   4.763   2.116 -0.6093 -0.0172 -0.2124
20602SOL    HW163022   7.958   4.717   2.093 -0.7281 -0.7051  1.4443
20602SOL    HW263023   8.059   4.817   2.039 -2.2405 -0.3776 -0.9243
20603SOL     OW63024   7.759   3.971   2.932 -0.0749  0.5580 -0.1913
20603SOL    HW163025   7.704   3.979   3.010 -0.3207 -0.1936 -0.2795
20603SOL    HW263026   7.739   4.049   2.881  0.4898  1.3335  0.7403
20604SOL     OW63027   7.461   4.941   3.450 -0.4955 -0.1562 -0.2808
20604SOL    HW163028   7.437   5.025   3.490  2.0954  0.1277  0.8841
20604SOL    HW263029   7.426   4.946   3.361 -3.6240  0.5494  0.8574
20605SOL     OW63030   8.349   4.483   2.393  0.0457  0.5262  0.3699
20605SOL    HW163031   8.420   4.514   2.337 -0.2466 -0.3709 -0.5340
20605SOL    HW263032   8.394   4.444   2.468  0.7077 -2.1722 -1.2749
20606SOL     OW63033   7.668   3.699   2.107 -0.0199  0.0468 -0.2632
20606SOL    HW163034   7.653   3.732   2.196  0.4773  0.4386 -0.3166
20606SOL    HW263035   7.595   3.640   2.090  0.6297 -1.1422  0.9372
20607SOL     OW63036   0.092   4.694   1.835  0.3398  0.6398  0.0491
20607SOL    HW163037   0.085   4.777   1.788 -0.2809  0.0986 -0.8343
20607SOL    HW263038   0.135   4.717   1.918 -0.2490  1.9084  0.0207
20608SOL     OW63039   8.593   4.554   2.896 -0.4566  0.3734  0.3023
20608SOL    HW163040   8.670   4.524   2.944 -0.0680  2.4756  1.0470
20608SOL    HW263041   8.540   4.475   2.886  1.4493 -0.9917  0.3599
20609SOL     OW63042   8.391   5.009   3.347 -0.7726  0.3336  0.1284
20609SOL    HW163043   8.483   4.983   3.345 -1.0419 -0.7020  0.7006
20609SOL    HW263044   8.348   4.951   3.285 -0.9534  1.2451 -0.6251
20610SOL     OW63045   7.901   4.487   3.679  0.5386  0.7436  0.1315
20610SOL    HW163046   7.969   4.463   3.741 -0.3469  1.3275  1.3778
20610SOL    HW263047   7.928   4.573   3.647 -0.8043  2.1673  2.5426
20611SOL     OW63048   0.563   4.362   1.902 -0.3394 -0.1208  0.2998
20611SOL    HW163049   0.489   4.330   1.851  0.3485 -0.1920 -0.6928
20611SOL    HW263050   0.633   4.299   1.884  0.5197  0.9662 -0.2965
20612SOL     OW63051   8.526   5.151   2.440  0.2300  1.1591 -0.3169
20612SOL    HW163052   8.513   5.057   2.431  0.6329  0.8397  1.9453
20612SOL    HW263053   8.438   5.186   2.453  0.2230  0.8378  0.5996
20613SOL     OW63054   7.636   4.396   3.062  0.3414 -0.1911  0.1099
20613SOL    HW163055   7.597   4.478   3.093 -0.0826 -0.4750  0.3277
20613SOL    HW263056   7.653   4.346   3.142 -0.7543 -0.9273 -0.1083
20614SOL     OW63057   7.574   3.806   2.556 -0.1943  0.0397 -0.0632
20614SOL    HW163058   7.594   3.806   2.650  2.1870 -0.1799 -0.5086
20614SOL    HW263059   7.525   3.725   2.542  0.4486 -0.5168  0.7983
20615SOL     OW63060   8.582   4.587   3.672  0.3270 -0.0873 -0.3265
20615SOL    HW163061   8.580   4.522   3.602  0.1885  0.0721 -0.4678
20615SOL    HW263062   8.539   4.544   3.746 -1.5953  0.5641 -1.0233
20616SOL     OW63063   8.628   4.126   2.689  0.3133 -0.2162 -0.2689
20616SOL    HW163064   8.626   4.139   2.784 -0.5219  0.4677 -0.3754
20616SOL    HW263065   8.653   4.034   2.679  0.8649 -0.1793  0.5990
20617SOL     OW63066   7.318   4.944   2.232 -0.0468  0.3253 -0.2137
20617SOL    HW163067   7.366   4.916   2.154 -0.8990 -0.6770 -0.4130
20617SOL    HW263068   7.254   5.007   2.199  0.9123  1.4390  0.0068
20618SOL     OW63069   7.378   5.354   2.475  0.0641  0.0692  0.4103
20618SOL    HW163070   7.446   5.293   2.503  0.7802  0.5320 -0.2532
20618SOL    HW263071   7.354   5.402   2.554  1.2369  0.5838  0.4724
20619SOL     OW63072   7.945   5.586   2.118  0.0641 -0.0315  0.3920
20619SOL    HW163073   7.993   5.581   2.201 -0.0614 -0.7426  0.4338
20619SOL    HW263074   7.990   5.524   2.061  0.7336  1.1529 -0.3957
20620SOL     OW63075   8.053   4.563   3.032  0.1859 -0.4678  0.1121
20620SOL    HW163076   8.137   4.606   3.017 -0.8343  1.4520 -0.4020
20620SOL    HW263077   8.033   4.521   2.948 -0.5669  1.3242 -0.6522
20621SOL     OW63078   7.206   4.312   2.721  0.3785 -0.4014 -0.2345
20621SOL    HW163079   7.252   4.294   2.803  0.2069 -0.8680 -0.2408
20621SOL    HW263080   7.243   4.250   2.658 -0.5377 -1.0535 -0.1428
20622SOL     OW63081   7.809   4.177   3.679 -0.2694  0.5076  0.4654
20622SOL    HW163082   7.884   4.237   3.672 -1.1331  1.4576 -1.5064
20622SOL    HW263083   7.736   4.234   3.702 -1.1459  0.3113 -1.6097
20623SOL     OW63084   8.562   4.632   2.236 -0.4211  0.2179 -0.0166
20623SOL    HW163085   8.480   4.666   2.200  0.7185  1.5693 -1.4883
20623SOL    HW263086   8.602   4.585   2.163  0.9038  1.0556  0.1450
20624SOL     OW63087   7.683   5.362   3.843 -0.4281  0.3485 -0.6342
20624SOL    HW163088   7.634   5.426   3.896 -2.0797 -2.0509  0.9931
20624SOL    HW263089   7.641   5.278   3.863  2.2926 -1.4347 -1.8053
20625SOL     OW63090   8.163   4.305   2.608 -0.3394  0.4240 -0.1378
20625SOL    HW163091   8.130   4.367   2.673 -0.1157  0.0273  0.3608
20625SOL    HW263092   8.259   4.313   2.613 -0.1283 -2.0572  2.0760
20626SOL     OW63093   8.548   5.316   3.730 -0.1727  0.4226 -0.0562
20626SOL    HW163094   8.493   5.313   3.652 -0.5577 -0.5092  0.2322
20626SOL    HW263095   8.496   5.366   3.794 -0.3713  0.1686 -0.0180
20627SOL     OW63096   7.803   4.074   1.666 -0.1849 -0.3712  0.2654
20627SOL    HW163097   7.855   4.100   1.741 -0.6398 -1.0378  0.8186
20627SOL    HW263098   7.720   4.044   1.703  0.0725 -1.9895 -0.3886
20628SOL     OW63099   7.911   4.675   3.278  0.8783  0.2813  0.3718
20628SOL    HW163100   7.828   4.632   3.258  0.7371  0.6247  0.1975
20628SOL    HW263101   7.977   4.624   3.231  0.4135  1.8729 -2.2588
20629SOL     OW63102   8.844   4.813   3.446  0.4305 -0.8466 -0.3818
20629SOL    HW163103   8.898   4.886   3.416  1.4419 -1.5551 -0.3317
20629SOL    HW263104   8.893   4.735   3.423  0.4047 -1.4734  1.4824
20630SOL     OW63105   8.607   4.906   1.867 -0.3338  0.3120 -0.1122
20630SOL    HW163106   8.561   4.824   1.851 -0.7467  0.3633  0.7432
20630SOL    HW263107   8.601   4.919   1.962  0.2568  1.0170 -0.1624
20631SOL     OW63108   0.004   5.348   3.130 -0.6676 -0.2650  0.6577
20631SOL    HW163109   0.044   5.312   3.051 -0.3714  0.7681  0.3241
20631SOL    HW263110  -0.089   5.327   3.123 -0.6899  0.0735 -0.1110
20632SOL     OW63111   7.630   4.651   3.174 -0.1140  0.1133 -0.6337
20632SOL    HW163112   7.591   4.634   3.259 -0.7976  0.4800 -0.8685
20632SOL    HW263113   7.616   4.744   3.158  1.2159  0.3455 -0.5548
20633SOL     OW63114   8.733   5.498   3.445 -0.1965  0.1037  0.1906
20633SOL    HW163115   8.772   5.424   3.399  1.0706  0.1286  1.1357
20633SOL    HW263116   8.783   5.503   3.527 -2.9140 -0.5140  2.0218
20634SOL     OW63117   8.418   5.743   2.459  0.0436  0.1179 -0.8487
20634SOL    HW163118   8.436   5.835   2.479  0.7630 -0.2164  0.0965
20634SOL    HW263119   8.326   5.731   2.486  0.3339  0.2434  0.2571
20635SOL     OW63120   7.308   5.605   3.912 -0.0557 -0.4435 -0.0834
20635SOL    HW163121   7.251   5.679   3.931 -0.5485 -0.7994 -0.1596
20635SOL    HW263122   7.393   5.645   3.893 -0.3650  0.1134 -0.3350
20636SOL     OW63123   0.113   4.949   2.388 -0.2185  0.2504  0.4809
20636SOL    HW163124   0.022   4.929   2.366  0.0107 -0.5079  0.2071
20636SOL    HW263125   0.106   5.011   2.461 -0.9589 -0.3347  0.9317
20637SOL     OW63126   7.832   4.710   2.561  0.1680 -0.0687  0.2885
20637SOL    HW163127   7.807   4.671   2.645  1.0161  3.3194  2.3622
20637SOL    HW263128   7.927   4.720   2.566  0.5346 -1.6353 -2.0611
20638SOL     OW63129   7.497   5.782   2.382 -0.0311 -0.6037 -0.2793
20638SOL    HW163130   7.559   5.715   2.412 -0.2720 -0.3166  0.9049
20638SOL    HW263131   7.463   5.748   2.300  0.6983 -1.3970 -0.2661
20639SOL     OW63132   7.795   4.083   2.228  0.0655 -0.0100 -0.8272
20639SOL    HW163133   7.749   4.137   2.292  2.9814  1.4510  0.2576
20639SOL    HW263134   7.788   4.131   2.146 -0.9042 -0.1818 -0.8524
20640SOL     OW63135   8.740   5.488   1.894  0.1361 -0.0197 -0.6942
20640SOL    HW163136   8.807   5.421   1.900 -0.5462 -0.6534 -0.0423
20640SOL    HW263137   8.675   5.453   1.833 -2.0083 -1.6008  2.2493
20641SOL     OW63138   8.361   4.802   2.696  0.3589 -0.3380  0.0272
20641SOL    HW163139   8.450   4.806   2.662  0.1639  0.5194 -0.4056
20641SOL    HW263140   8.354   4.877   2.755 -1.3919  2.3541 -3.2734
20642SOL     OW63141   8.615   4.969   2.126 -0.3265 -0.1925  0.1049
20642SOL    HW163142   8.524   4.990   2.147 -1.2058 -2.7916 -0.6485
20642SOL    HW263143   8.651   4.935   2.208 -0.3160  0.0600  0.2029
20643SOL     OW63144   7.961   4.932   2.900 -0.4716  0.4293  0.2059
20643SOL    HW163145   7.915   4.858   2.940  0.6541 -0.1368  0.5120
20643SOL    HW263146   8.037   4.892   2.857 -0.2310  1.3318 -0.2328
20644SOL     OW63147   8.717   5.363   2.428  0.2209 -0.3662  0.4097
20644SOL    HW163148   8.652   5.293   2.427  0.9456 -1.1123  2.1219
20644SOL    HW263149   8.670   5.441   2.398 -0.5241 -1.6024 -1.8606
20645SOL     OW63150   0.474   4.089   2.595  0.2690  0.0288 -0.0822
20645SOL    HW163151   0.386   4.053   2.580  0.0822  0.6179 -0.4508
20645SOL    HW263152   0.530   4.040   2.535 -0.0001  0.4066 -0.6535
20646SOL     OW63153   8.111   5.641   2.345 -0.0437 -0.0989 -0.6858
20646SOL    HW163154   8.109   5.695   2.424 -1.3912  1.0459 -1.4372
20646SOL    HW263155   8.174   5.684   2.288 -1.0462  0.6909 -1.2465
20647SOL     OW63156   8.294   5.297   2.496  0.2281  0.0219 -0.1102
20647SOL    HW163157   8.217   5.329   2.545  1.6498  3.0467  0.3992
20647SOL    HW263158   8.313   5.367   2.434  1.1443 -1.7795 -1.9823
20648SOL     OW63159   7.646   4.453   3.609 -0.3906  0.0046  0.1417
20648SOL    HW163160   7.614   4.447   3.699  1.0119 -3.0182  0.5853
20648SOL    HW263161   7.741   4.465   3.618  0.1300 -2.6923 -0.7483
20649SOL     OW63162   8.598   4.340   3.448  0.1443  0.1096  0.1899
20649SOL    HW163163   8.692   4.332   3.467  0.1378 -0.0824  0.1422
20649SOL    HW263164   8.576   4.259   3.403  0.2910  0.8176 -1.2104
20650SOL     OW63165   7.325   4.298   1.740 -0.1770 -0.0494  0.4198
20650SOL    HW163166   7.374   4.215   1.743  0.3060  0.2072 -0.1680
20650SOL    HW263167   7.288   4.301   1.652 -0.5981  0.1316  0.6033
20651SOL     OW63168   8.322   4.386   2.876 -0.3357  0.4691 -0.3631
20651SOL    HW163169   8.240   4.359   2.916 -0.0335  0.8583  0.5341
20651SOL    HW263170   8.389   4.336   2.923 -0.0181  0.5047 -0.7685
20652SOL     OW63171   7.394   4.090   2.151 -0.6041  0.1897 -0.3665
20652SOL    HW163172   7.391   4.135   2.236 -0.0195 -0.8247  0.2227
20652SOL    HW263173   7.362   4.001   2.170 -1.8251  0.3597 -1.5170
20653SOL     OW63174   8.397   5.101   1.845 -0.0590  0.2775 -0.1445
20653SOL    HW163175   8.432   5.157   1.914 -0.2778 -1.2728  1.2603
20653SOL    HW263176   8.466   5.035   1.830 -0.7524 -0.4605 -0.1340
20654SOL     OW63177   8.287   4.281   3.220 -0.3843 -0.2530 -0.6312
20654SOL    HW163178   8.347   4.212   3.193 -0.7675  0.0436 -2.3623
20654SOL    HW263179   8.343   4.354   3.247  0.0208 -0.6405 -0.4204
20655SOL     OW63180   7.849   4.091   3.383  0.1079  0.1695  0.4402
20655SOL    HW163181   7.789   4.164   3.399  0.7967  0.6197  1.0589
20655SOL    HW263182   7.923   4.107   3.443  1.5341  0.4377 -1.3008
20656SOL     OW63183   0.257   4.733   3.278 -0.5593  0.0031  0.2815
20656SOL    HW163184   0.223   4.715   3.190 -1.1581  2.9796 -0.1859
20656SOL    HW263185   0.351   4.747   3.266 -0.3152 -1.3131  0.4565
20657SOL     OW63186   7.817   5.209   3.151  0.5262 -0.4386 -0.1627
20657SOL    HW163187   7.789   5.204   3.243  2.1314  0.8885  0.4538
20657SOL    HW263188   7.737   5.232   3.103 -0.3785 -1.3095  0.8581
20658SOL     OW63189   8.170   4.086   2.316  0.1595 -0.2493 -0.4436
20658SOL    HW163190   8.146   4.175   2.289 -0.9533 -0.9078 -1.7307
20658SOL    HW263191   8.090   4.035   2.303  1.3403 -1.8496 -1.6758
20659SOL     OW63192   8.114   4.356   2.299  0.1901  0.0494 -0.6152
20659SOL    HW163193   8.099   4.322   2.387 -0.4635 -0.2994 -0.8648
20659SOL    HW263194   8.197   4.403   2.307  0.4274 -0.4579  0.0512
20660SOL     OW63195   7.884   5.047   1.860  0.2909 -0.3435 -0.6476
20660SOL    HW163196   7.849   5.072   1.945  2.0597  0.7509 -0.1906
20660SOL    HW263197   7.811   5.058   1.799 -0.0004  2.6059  0.1234
20661SOL     OW63198   7.795   5.871   3.097 -0.1933  0.5025 -0.2800
20661SOL    HW163199   7.826   5.795   3.146  0.5187  1.5487  0.9543
20661SOL    HW263200   7.865   5.889   3.035  0.5046  1.2313  0.6805
20662SOL     OW63201   8.083   4.767   2.648 -0.4251 -0.6603 -0.2213
20662SOL    HW163202   8.173   4.786   2.674 -0.8403  1.0877  0.0594
20662SOL    HW263203   8.087   4.751   2.554  0.5813 -3.5541  0.2309
20663SOL     OW63204   8.451   4.672   1.823  0.2232  0.1413 -0.3208
20663SOL    HW163205   8.357   4.652   1.831  0.2532  0.1797  0.1530
20663SOL    HW263206   8.490   4.589   1.796  0.4785 -0.7708  2.5539
20664SOL     OW63207   7.769   5.110   3.412 -0.4481 -0.1416 -0.1464
20664SOL    HW163208   7.771   5.189   3.466  0.7164  0.2629 -0.7512
20664SOL    HW263209   7.707   5.052   3.457  0.6577  0.0825  1.7531
20665SOL     OW63210   7.477   5.066   2.420 -0.2456 -0.4265  1.0901
20665SOL    HW163211   7.408   5.021   2.371  0.1462 -1.1714  1.2038
20665SOL    HW263212   7.557   5.020   2.395  0.7746  2.4231 -1.5933
20666SOL     OW63213   8.102   5.122   3.088  0.7621 -0.3064  0.3176
20666SOL    HW163214   8.135   5.180   3.157  0.5645  0.2003 -0.0160
20666SOL    HW263215   8.011   5.150   3.074  0.3169 -1.3808  0.8960
20667SOL     OW63216   8.167   3.475   2.085 -0.3658 -0.3297 -0.5769
20667SOL    HW163217   8.118   3.393   2.092 -0.0201 -0.6482 -1.5983
20667SOL    HW263218   8.108   3.535   2.039 -0.2164 -0.3557 -0.8040
20668SOL     OW63219   7.667   4.222   2.866  0.1252  0.1582  0.1618
20668SOL    HW163220   7.656   4.291   2.931  1.3872  1.1920 -0.6775
20668SOL    HW263221   7.649   4.265   2.782 -0.0516 -0.7855 -0.3011
20669SOL     OW63222   8.412   5.950   2.117 -0.6102 -0.5478 -0.2622
20669SOL    HW163223   8.496   5.965   2.160 -0.9097 -0.2144  0.2203
20669SOL    HW263224   8.426   5.979   2.026 -0.5303  0.6114  0.1007
20670SOL     OW63225   0.099   4.155   2.941 -0.2327 -0.0925 -0.2437
20670SOL    HW163226   0.156   4.205   2.883  0.5106 -0.9348 -0.2639
20670SOL    HW263227   0.062   4.087   2.885 -1.8766  0.8822 -0.4070
20671SOL     OW63228   8.332   4.034   2.897 -0.4842 -0.0922 -0.1884
20671SOL    HW163229   8.361   3.998   2.813 -0.3312  0.1962 -0.2614
20671SOL    HW263230   8.239   4.015   2.900 -0.2915 -1.0608  0.0639
20672SOL     OW63231   8.165   5.048   2.351  0.3163  0.0504  0.1042
20672SOL    HW163232   8.123   5.095   2.278  1.7847 -1.0279 -1.5281
20672SOL    HW263233   8.198   5.118   2.408  1.8101  1.0732 -1.8805
20673SOL     OW63234   7.995   5.466   3.400  0.3043  0.4119 -0.2962
20673SOL    HW163235   8.051   5.390   3.385 -1.8056 -1.3222  0.1028
20673SOL    HW263236   7.944   5.444   3.478  1.0484  3.1615  1.1279
20674SOL     OW63237   0.240   4.437   2.021  1.0735 -0.1301  0.3769
20674SOL    HW163238   0.217   4.378   2.093  0.6731  0.5946  0.8460
20674SOL    HW263239   0.173   4.420   1.955 -0.9720  1.9902  1.7476
20675SOL     OW63240   7.631   4.820   2.371 -0.0119 -0.2982  0.7485
20675SOL    HW163241   7.554   4.776   2.406  0.4232 -2.2708 -0.6272
20675SOL    HW263242   7.704   4.783   2.421  0.1628  0.7509  1.2929
20676SOL     OW63243   8.058   5.214   2.151 -0.1358 -0.4585 -0.0612
20676SOL    HW163244   7.968   5.227   2.121  0.2822 -1.4057 -1.8626
20676SOL    HW263245   8.111   5.272   2.096  0.4532 -0.5656  0.3771
20677SOL     OW63246   7.611   4.315   3.850 -0.1789  0.3703  0.2101
20677SOL    HW163247   7.611   4.312   3.945 -0.7988  0.1951  0.2097
20677SOL    HW263248   7.526   4.279   3.824  1.1375 -2.4486 -0.5140
20678SOL     OW63249   7.414   4.112   4.931 -0.1117  0.2353  0.2801
20678SOL    HW163250   7.423   4.207   4.929 -0.9649  0.3412 -2.0999
20678SOL    HW263251   7.341   4.094   4.872  0.0863 -1.9127  0.6213
20679SOL     OW63252   8.018   3.864   4.285  0.1767 -0.9166 -0.2270
20679SOL    HW163253   8.052   3.952   4.302 -2.0065 -0.1361  0.3707
20679SOL    HW263254   7.942   3.856   4.342  0.6007 -3.4229  0.1196
20680SOL     OW63255   7.926   4.478   4.753  0.0191  0.1844  0.1730
20680SOL    HW163256   7.862   4.510   4.689 -0.4160 -1.6689 -0.3719
20680SOL    HW263257   7.878   4.474   4.835 -0.3766 -0.5031 -0.0829
20681SOL     OW63258   8.627   4.829   4.244 -0.5442  0.1223 -0.7692
20681SOL    HW163259   8.716   4.805   4.221 -0.1146 -0.1798  1.0569
20681SOL    HW263260   8.577   4.818   4.163  0.9292 -0.4050 -1.6330
20682SOL     OW63261   8.506   4.287   4.320 -0.2656  0.2117  0.1297
20682SOL    HW163262   8.484   4.225   4.390 -1.5157 -0.2167 -0.6117
20682SOL    HW263263   8.431   4.284   4.261 -0.4508  2.5602  0.1464
20683SOL     OW63264   8.390   4.462   4.686 -0.2346  0.2483  0.3082
20683SOL    HW163265   8.318   4.494   4.632 -0.1589  0.3159  0.2483
20683SOL    HW263266   8.434   4.541   4.717  0.3949  0.1932 -0.4312
20684SOL     OW63267   8.321   4.612   5.740 -0.3156 -0.2818 -0.2082
20684SOL    HW163268   8.413   4.590   5.728 -0.0548 -0.4767  1.8985
20684SOL    HW263269   8.314   4.703   5.709  0.8496  0.1286  0.6523
20685SOL     OW63270   8.263   4.393   4.087  0.1746 -0.1276 -0.1524
20685SOL    HW163271   8.262   4.304   4.124 -0.5853  0.3009  0.9327
20685SOL    HW263272   8.266   4.450   4.164 -1.8138  0.8226 -0.7253
20686SOL     OW63273   8.207   4.439   5.234 -0.1299 -0.1616 -0.2211
20686SOL    HW163274   8.263   4.378   5.281  1.7879  0.5761 -1.4060
20686SOL    HW263275   8.208   4.407   5.144 -1.0768  0.2523 -0.3877
20687SOL     OW63276   7.938   5.059   4.525 -0.3780  0.0406 -0.0344
20687SOL    HW163277   7.971   5.126   4.465  0.4363 -1.3515 -1.2081
20687SOL    HW263278   7.879   5.005   4.472  0.2029 -1.0923  0.4192
20688SOL     OW63279   8.143   3.907   5.567  0.4158 -0.4071 -0.2088
20688SOL    HW163280   8.090   3.830   5.584 -0.4940  0.5488  1.5595
20688SOL    HW263281   8.085   3.981   5.585  1.5892  0.6983 -0.7728
20689SOL     OW63282   7.237   5.248   4.327  0.1017  0.1828 -0.5214
20689SOL    HW163283   7.167   5.313   4.331 -1.0094 -0.8909 -1.5584
20689SOL    HW263284   7.270   5.253   4.238  0.7145  0.0409 -0.3063
20690SOL     OW63285   8.579   5.398   5.223 -0.4264 -0.0489 -0.6983
20690SOL    HW163286   8.587   5.304   5.212  0.5938  0.2508 -3.9402
20690SOL    HW263287   8.620   5.417   5.308 -0.4106 -2.4678 -0.1181
20691SOL     OW63288   7.433   5.498   4.622 -0.4146  0.5073  0.3753
20691SOL    HW163289   7.523   5.511   4.653 -0.1229 -0.3355 -0.0616
20691SOL    HW263290   7.444   5.454   4.537 -1.2556 -1.0012  1.0019
20692SOL     OW63291   7.707   4.423   4.531  0.1275 -0.7077 -0.3164
20692SOL    HW163292   7.646   4.435   4.458 -1.0464 -1.3843  0.5164
20692SOL    HW263293   7.732   4.331   4.527 -0.8241 -1.0392  0.7624
20693SOL     OW63294   7.899   5.186   5.206 -0.8908  0.2085  0.0787
20693SOL    HW163295   7.813   5.177   5.246 -1.1124 -0.9880 -0.6300
20693SOL    HW263296   7.881   5.222   5.119 -0.7958 -1.0510 -0.4837
20694SOL     OW63297   7.850   4.535   4.051  0.9160 -1.1007  0.3667
20694SOL    HW163298   7.839   4.443   4.074  2.3328 -1.2664  0.4748
20694SOL    HW263299   7.931   4.537   3.999  0.4792 -0.0262 -0.3055
20695SOL     OW63300   7.995   4.144   4.328  0.0364 -0.3336  0.3271
20695SOL    HW163301   7.900   4.147   4.339  0.1036  0.4798  0.7566
20695SOL    HW263302   8.028   4.216   4.381  1.0073 -1.4406  1.3051
20696SOL     OW63303   7.116   5.047   3.795  0.2471  0.6584 -0.8034
20696SOL    HW163304   7.075   5.133   3.801 -2.9621 -0.8153  2.7545
20696SOL    HW263305   7.198   5.056   3.844 -0.2225  1.6358 -0.1614
20697SOL     OW63306   0.391   4.554   4.444  0.0101 -0.0848 -0.3773
20697SOL    HW163307   0.313   4.519   4.401 -0.0797 -1.3665  0.7523
20697SOL    HW263308   0.361   4.575   4.533  0.9383 -0.6213  0.0753
20698SOL     OW63309   7.481   4.373   4.801  0.0995  0.5873 -0.4433
20698SOL    HW163310   7.557   4.340   4.755 -0.1181 -1.3546  0.5132
20698SOL    HW263311   7.419   4.396   4.731  0.9544  0.7307 -1.1723
20699SOL     OW63312   8.084   4.761   4.516 -0.0422  0.3092 -0.1577
20699SOL    HW163313   8.167   4.806   4.503 -0.3120  1.4925  1.8038
20699SOL    HW263314   8.036   4.816   4.579 -1.5578 -1.2784  0.1620
20700SOL     OW63315   8.695   4.635   5.029 -0.2436 -0.1907  0.3624
20700SOL    HW163316   8.646   4.677   4.958 -0.4107 -1.0811 -0.0592
20700SOL    HW263317   8.780   4.679   5.028 -0.9432  1.2612  0.9938
20701SOL     OW63318   7.893   3.758   4.047  0.1558 -0.0675 -0.3919
20701SOL    HW163319   7.943   3.798   4.117  0.0916  0.2779 -0.5423
20701SOL    HW263320   7.857   3.831   3.998 -1.0399 -0.3056  0.0952
20702SOL     OW63321   7.273   3.917   5.063 -0.2909  0.2680 -0.1175
20702SOL    HW163322   7.342   3.964   5.015 -0.5597  0.7937 -0.0012
20702SOL    HW263323   7.320   3.865   5.128  0.0523 -0.1313 -0.6794
20703SOL     OW63324   8.395   5.690   4.887 -0.4938  0.6540  0.2509
20703SOL    HW163325   8.418   5.782   4.871 -2.9027  1.3890  0.6611
20703SOL    HW263326   8.451   5.664   4.960  0.2333  1.7924  0.1225
20704SOL     OW63327   7.613   4.165   5.499  0.0919  0.2916 -0.4339
20704SOL    HW163328   7.669   4.236   5.466 -0.6524  1.3373  0.4689
20704SOL    HW263329   7.540   4.161   5.437 -1.6346  2.6787  1.2301
20705SOL     OW63330   8.210   3.883   3.898  0.1312 -0.4440  0.2413
20705SOL    HW163331   8.213   3.845   3.810 -1.5207 -1.2726  0.4985
20705SOL    HW263332   8.155   3.823   3.948  0.5218  0.3569  1.6799
20706SOL     OW63333   8.768   3.522   4.119 -0.1362  0.1215 -0.4755
20706SOL    HW163334   8.813   3.531   4.035  0.9971  2.1013  0.2733
20706SOL    HW263335   8.822   3.572   4.181 -0.9759 -1.2043  1.4323
20707SOL     OW63336   8.369   4.158   5.189 -0.6863  0.3015 -0.0679
20707SOL    HW163337   8.413   4.169   5.273  1.9776 -1.1566 -1.1442
20707SOL    HW263338   8.311   4.082   5.201 -0.4405  0.1994  0.4825
20708SOL     OW63339   0.065   4.153   4.951 -0.2557 -0.4844 -0.1495
20708SOL    HW163340   0.035   4.244   4.949  0.5122 -0.1880  1.0112
20708SOL    HW263341  -0.007   4.105   4.992  0.1528 -0.0468  1.1207
20709SOL     OW63342   8.532   4.555   5.487 -0.1235 -0.5639  0.4473
20709SOL    HW163343   8.537   4.588   5.397  0.9958 -2.3800 -0.1946
20709SOL    HW263344   8.547   4.633   5.542 -2.4898  0.9004 -0.8358
20710SOL     OW63345   8.730   3.998   5.055 -0.0588 -0.2684  0.3507
20710SOL    HW163346   8.764   3.997   5.144  0.3478  0.5185  0.2182
20710SOL    HW263347   8.688   3.913   5.044 -1.3972  0.1511  1.7806
20711SOL     OW63348   8.544   4.069   4.037  0.4484 -0.4207 -0.0758
20711SOL    HW163349   8.589   4.015   4.101 -0.1363  0.7489  1.4001
20711SOL    HW263350   8.459   4.088   4.077  0.4867  1.2423 -0.6749
20712SOL     OW63351   7.350   4.566   4.173 -0.3851  0.0021 -0.0511
20712SOL    HW163352   7.356   4.659   4.151 -0.7901 -0.2515 -1.3190
20712SOL    HW263353   7.352   4.521   4.089 -0.6884 -1.1165  0.5145
20713SOL     OW63354   7.559   5.394   5.553 -0.1084 -0.8885 -0.2797
20713SOL    HW163355   7.490   5.331   5.574 -1.1442 -0.1961 -1.4437
20713SOL    HW263356   7.512   5.474   5.530  1.0773 -0.4556 -1.3135
20714SOL     OW63357   8.091   4.159   3.074 -0.3394 -0.0385  0.0986
20714SOL    HW163358   8.087   4.089   3.139  1.2742 -0.9653 -0.7430
20714SOL    HW263359   8.155   4.221   3.109  0.1125 -0.2587 -0.3237
20715SOL     OW63360   0.033   4.739   4.220 -0.3401  0.7505 -0.2024
20715SOL    HW163361   0.038   4.645   4.199 -0.8054  0.7189 -0.1793
20715SOL    HW263362   0.104   4.778   4.169 -1.1818  0.6120 -1.5335
20716SOL     OW63363   8.019   3.637   4.477  0.7737 -0.2930 -0.0343
20716SOL    HW163364   8.049   3.679   4.558 -1.6570  0.5021  0.5278
20716SOL    HW263365   8.030   3.704   4.410  1.6858 -0.5530 -0.1603
20717SOL     OW63366   8.459   5.065   4.314  0.0063  0.6893  0.3494
20717SOL    HW163367   8.506   4.985   4.294  0.2343  0.7198  0.7480
20717SOL    HW263368   8.386   5.066   4.253  1.6227  1.6571 -1.7194
20718SOL     OW63369   7.624   5.090   4.661  0.2531  0.2050  0.1330
20718SOL    HW163370   7.694   5.133   4.611 -0.0481 -0.3185 -0.7613
20718SOL    HW263371   7.593   5.020   4.603 -1.6152  0.9808  0.1216
20719SOL     OW63372   8.248   5.268   4.944 -0.0557 -0.2461  0.1311
20719SOL    HW163373   8.224   5.334   5.008  0.3763 -0.3850  0.4438
20719SOL    HW263374   8.339   5.289   4.922  0.0518 -0.6766  0.1607
20720SOL     OW63375   8.263   4.550   4.315  0.1906  0.4349 -0.0361
20720SOL    HW163376   8.239   4.640   4.338 -2.3282 -0.2111  0.1136
20720SOL    HW263377   8.226   4.497   4.385  1.1712 -0.7919 -0.4211
20721SOL     OW63378   8.021   4.545   5.451 -0.5517 -0.1711 -0.1327
20721SOL    HW163379   8.004   4.483   5.522 -1.8298  0.6964  0.3701
20721SOL    HW263380   8.103   4.515   5.411 -0.6675 -1.6404  0.6536
20722SOL     OW63381   8.434   5.464   3.944 -0.4149  0.2039  0.0365
20722SOL    HW163382   8.381   5.526   3.994 -0.7636  0.8614 -1.1095
20722SOL    HW263383   8.383   5.383   3.943 -1.1429  0.6592 -0.5688
20723SOL     OW63384   7.757   3.976   5.280 -0.0648  0.5049  0.0995
20723SOL    HW163385   7.811   4.043   5.322  0.5203 -0.1617  0.4405
20723SOL    HW263386   7.702   3.942   5.351 -0.5422  0.8006 -0.1276
20724SOL     OW63387   7.355   5.623   4.326 -0.3569 -0.1522 -0.1409
20724SOL    HW163388   7.411   5.701   4.326  0.4679 -0.7123 -1.2509
20724SOL    HW263389   7.323   5.617   4.416  0.0748  1.1007  0.1182
20725SOL     OW63390   7.676   5.525   4.733  0.3340 -0.2199 -0.1818
20725SOL    HW163391   7.765   5.501   4.710 -0.1945 -1.5547 -0.9232
20725SOL    HW263392   7.664   5.492   4.822 -0.1336 -2.1452 -0.9090
20726SOL     OW63393   8.097   5.238   4.687  0.2478  0.3595 -0.0861
20726SOL    HW163394   8.167   5.212   4.747  0.1552 -1.6217 -0.7624
20726SOL    HW263395   8.051   5.157   4.666 -2.3400  1.5860  0.3672
20727SOL     OW63396   7.777   4.146   4.506 -0.2916 -0.3378 -0.3542
20727SOL    HW163397   7.834   4.152   4.583 -0.7956 -0.3337  0.0273
20727SOL    HW263398   7.704   4.092   4.536 -0.7769  0.1455 -0.6580
20728SOL     OW63399   7.961   3.666   3.454  0.5516  0.0829  0.2750
20728SOL    HW163400   8.045   3.681   3.411  1.0524 -1.8933  0.4677
20728SOL    HW263401   7.954   3.737   3.518  2.1508  0.2201  0.3367
20729SOL     OW63402   8.446   3.918   5.593  0.4742 -0.0561  0.0588
20729SOL    HW163403   8.352   3.901   5.586 -0.0731  1.8509  1.6183
20729SOL    HW263404   8.478   3.852   5.654  0.2182 -0.8729 -0.6736
20730SOL     OW63405   8.070   5.045   4.889  0.7308  0.5455 -0.5306
20730SOL    HW163406   8.142   5.089   4.934  0.1882  1.5470 -0.6084
20730SOL    HW263407   8.029   4.991   4.957  0.6287  1.1483 -0.1054
20731SOL     OW63408   0.141   4.706   4.976  0.1787  0.5220  0.1687
20731SOL    HW163409   0.140   4.681   4.883 -0.3878 -3.6150  1.0641
20731SOL    HW263410   0.221   4.665   5.010 -0.2548  0.9274  1.7238
20732SOL     OW63411   7.874   4.878   4.737  0.1535 -0.1148 -0.4963
20732SOL    HW163412   7.912   4.879   4.825  0.7862 -2.0684 -0.6842
20732SOL    HW263413   7.902   4.960   4.697  0.2428  0.5925  0.9668
20733SOL     OW63414   8.784   4.141   3.741 -0.0103  0.3354  0.5041
20733SOL    HW163415   8.765   4.197   3.666 -1.1945 -0.1912  0.3813
20733SOL    HW263416   8.871   4.106   3.724 -1.5275 -2.5162 -2.4353
20734SOL     OW63417   7.858   3.999   3.899 -0.0070  0.1125  0.6268
20734SOL    HW163418   7.819   4.044   3.824 -0.8987  1.4594  1.8443
20734SOL    HW263419   7.907   4.067   3.945  0.0443 -0.5438  1.5653
20735SOL     OW63420   0.039   4.845   3.878 -0.1233 -0.2093  0.5582
20735SOL    HW163421  -0.037   4.881   3.833 -0.2132 -0.9349  0.1182
20735SOL    HW263422   0.042   4.753   3.851  0.6945 -0.2795  0.8593
20736SOL     OW63423   7.892   3.589   3.831  0.1831 -0.0383  0.4150
20736SOL    HW163424   7.814   3.534   3.835 -0.0409  0.2642  0.2806
20736SOL    HW263425   7.894   3.634   3.916 -0.0200  0.2569  0.2687
20737SOL     OW63426   8.371   3.907   4.239  0.0581 -0.1107 -0.3199
20737SOL    HW163427   8.400   3.824   4.202 -0.9509 -0.5469 -0.1616
20737SOL    HW263428   8.425   3.919   4.317 -1.2602 -1.7443  0.9194
20738SOL     OW63429   8.657   4.261   5.220 -0.1656 -0.1504  0.3441
20738SOL    HW163430   8.721   4.287   5.154 -1.6284  0.7227 -0.7784
20738SOL    HW263431   8.706   4.264   5.303  2.1390 -2.7789 -0.7667
20739SOL     OW63432   8.563   5.280   4.486  0.1852  0.1004  0.0435
20739SOL    HW163433   8.577   5.240   4.572 -1.8699  0.7890  0.7605
20739SOL    HW263434   8.524   5.210   4.433  0.1883  0.0587  0.0951
20740SOL     OW63435   8.118   4.498   4.548 -0.3272 -0.5511 -0.1889
20740SOL    HW163436   8.055   4.487   4.619 -1.7227  0.1101 -1.2520
20740SOL    HW263437   8.092   4.580   4.506  2.5784  0.8599  0.5806
20741SOL     OW63438   0.167   5.462   4.659  0.1490  0.1090  0.0522
20741SOL    HW163439   0.120   5.406   4.597  0.4385 -0.3367  0.2263
20741SOL    HW263440   0.116   5.456   4.740  0.9217 -1.0066  0.4743
20742SOL     OW63441   8.182   3.750   3.330 -0.0846  0.2236 -0.1012
20742SOL    HW163442   8.132   3.805   3.270 -0.2299  1.9494  1.5231
20742SOL    HW263443   8.274   3.770   3.310 -0.0491 -0.7966 -1.1180
20743SOL     OW63444   7.444   4.213   4.427 -0.4249 -0.0380 -0.1999
20743SOL    HW163445   7.481   4.154   4.493 -2.1170  0.1307  0.9550
20743SOL    HW263446   7.407   4.286   4.478 -1.7246  0.1237 -1.3203
20744SOL     OW63447   8.110   3.373   4.839  0.3937 -0.2282 -0.1060
20744SOL    HW163448   8.163   3.436   4.790 -0.4213 -0.5222 -1.4289
20744SOL    HW263449   8.030   3.420   4.859  0.1586 -0.5405 -0.2960
20745SOL     OW63450   8.677   3.756   4.549 -0.4448 -0.0595  0.4253
20745SOL    HW163451   8.664   3.765   4.455 -0.0834  2.8829  0.5386
20745SOL    HW263452   8.608   3.698   4.578 -0.0889 -1.6773 -1.7315
20746SOL     OW63453   8.364   3.575   3.931  0.1633 -0.3920 -0.1903
20746SOL    HW163454   8.306   3.595   4.005 -0.4110  0.0317 -0.7432
20746SOL    HW263455   8.305   3.558   3.858  0.6708  2.3176 -1.3810
20747SOL     OW63456   8.136   5.482   3.816  0.1576  0.3812  0.2347
20747SOL    HW163457   8.214   5.451   3.862 -0.2720 -1.5063 -0.2266
20747SOL    HW263458   8.168   5.513   3.732  0.4985  0.3040  0.3354
20748SOL     OW63459   8.525   4.067   3.747 -0.4623  0.5377  0.2162
20748SOL    HW163460   8.501   4.071   3.840 -1.2085  1.7233 -0.0051
20748SOL    HW263461   8.619   4.083   3.745 -0.5842  1.3677  0.7127
20749SOL     OW63462   8.066   4.139   3.562  0.1384  0.3781  0.0501
20749SOL    HW163463   8.136   4.092   3.517 -0.4950 -1.3434  0.7757
20749SOL    HW263464   8.094   4.143   3.653  0.6025  2.2920 -0.1327
20750SOL     OW63465   8.750   4.817   5.358 -0.3547  0.0306 -0.0381
20750SOL    HW163466   8.805   4.842   5.283 -0.7197 -1.4267 -0.8330
20750SOL    HW263467   8.683   4.760   5.320 -1.8783  1.0262  1.0683
20751SOL     OW63468   8.363   4.844   4.860 -0.0307 -0.0098  0.0781
20751SOL    HW163469   8.279   4.824   4.818 -0.2775  2.3683 -0.6927
20751SOL    HW263470   8.340   4.883   4.944  0.2398  1.5424 -0.5445
20752SOL     OW63471   8.321   3.664   5.182 -0.4367  0.0937 -0.2620
20752SOL    HW163472   8.234   3.638   5.153 -0.4488  0.2354 -0.3517
20752SOL    HW263473   8.367   3.582   5.195 -0.5668  0.0196 -0.2677
20753SOL     OW63474   8.554   4.688   5.239  0.6749 -0.3806  0.5093
20753SOL    HW163475   8.590   4.659   5.156  1.3266 -1.3698  1.1149
20753SOL    HW263476   8.466   4.720   5.218  1.4622  1.0366 -0.8240
20754SOL     OW63477   8.268   4.160   4.215 -0.5094  0.3208  0.0797
20754SOL    HW163478   8.175   4.138   4.216 -0.0513 -2.2477 -1.8269
20754SOL    HW263479   8.312   4.077   4.232  1.4071  1.0732 -0.9287
20755SOL     OW63480   7.884   4.293   5.030  0.2642 -0.2514 -0.2759
20755SOL    HW163481   7.888   4.358   5.100  0.7807 -0.1670 -0.3787
20755SOL    HW263482   7.838   4.218   5.069 -2.8231  1.1398 -0.9544
20756SOL     OW63483   8.761   4.375   4.981  0.0925  0.0214  0.3400
20756SOL    HW163484   8.736   4.460   5.017 -2.7816 -0.9297  0.8166
20756SOL    HW263485   8.753   4.384   4.887  2.5713  1.0131  0.1490
20757SOL     OW63486   7.584   5.122   4.947  0.8292  0.5535 -0.5770
20757SOL    HW163487   7.620   5.106   4.859 -3.0097  0.0550 -2.2568
20757SOL    HW263488   7.642   5.074   5.005  2.5072 -0.6718 -3.0588
20758SOL     OW63489   7.955   5.260   3.978 -0.5689 -0.4864 -0.2203
20758SOL    HW163490   7.888   5.292   3.918 -0.2635  0.7894  0.0754
20758SOL    HW263491   8.038   5.285   3.937 -0.2360 -2.1753 -0.6572
20759SOL     OW63492   8.571   4.029   4.451  0.0403 -0.3109  0.1694
20759SOL    HW163493   8.514   3.997   4.521  0.9539 -1.7244  0.3096
20759SOL    HW263494   8.639   4.080   4.497  0.2308 -0.6362  0.2572
20760SOL     OW63495   8.474   4.927   3.953  0.3809 -0.0333 -0.0057
20760SOL    HW163496   8.386   4.930   3.992  0.5592  1.1320  0.3734
20760SOL    HW263497   8.460   4.896   3.864 -0.3460 -0.3922  0.2260
20761SOL     OW63498   8.801   5.077   4.942  0.1627 -0.5763 -0.1731
20761SOL    HW163499   8.842   5.028   4.871 -0.0440 -1.4227  0.2779
20761SOL    HW263500   8.722   5.027   4.963 -1.1570  1.0363 -1.0528
20762SOL     OW63501   7.663   4.744   4.617  0.3617 -0.4178 -0.2416
20762SOL    HW163502   7.746   4.760   4.662  0.0286 -0.6337  0.4624
20762SOL    HW263503   7.676   4.662   4.570  0.0440 -1.3068  1.1563
20763SOL     OW63504   7.833   4.438   5.272 -0.9269 -0.4516  0.4218
20763SOL    HW163505   7.748   4.482   5.267 -0.7683 -0.1475  0.3861
20763SOL    HW263506   7.890   4.500   5.318 -0.4993 -0.2978 -0.2911
20764SOL     OW63507   0.098   4.120   5.692 -0.0364 -0.1417 -0.2383
20764SOL    HW163508   0.124   4.035   5.655  0.2259  0.2620 -1.0056
20764SOL    HW263509   0.048   4.098   5.770  0.6277 -0.9886 -0.0439
20765SOL     OW63510   8.003   3.667   5.441 -0.1544  0.4502 -0.1975
20765SOL    HW163511   8.023   3.628   5.356 -1.4442 -2.1188  0.5708
20765SOL    HW263512   7.912   3.695   5.434 -0.2035  0.4162  0.2485
20766SOL     OW63513   8.186   4.344   4.947  0.1096  0.0837  0.1669
20766SOL    HW163514   8.127   4.271   4.929 -1.0361  0.6362  1.4965
20766SOL    HW263515   8.131   4.422   4.939  1.3091  0.8414 -1.2116
20767SOL     OW63516   8.715   4.406   4.726 -0.2862 -0.0485 -1.0669
20767SOL    HW163517   8.715   4.454   4.643 -0.7160  1.2133 -0.3579
20767SOL    HW263518   8.634   4.355   4.724 -2.6606  3.2763  0.3398
20768SOL     OW63519   8.345   4.391   3.637  0.1380  0.1971  0.6471
20768SOL    HW163520   8.316   4.482   3.645 -1.5029 -0.1557 -0.5896
20768SOL    HW263521   8.318   4.350   3.720 -2.6659  0.0068 -0.2564
20769SOL     OW63522   7.696   4.061   4.996  0.3951  0.0231  0.5210
20769SOL    HW163523   7.703   4.032   5.087  0.7624 -1.3429  0.0757
20769SOL    HW263524   7.604   4.049   4.973  0.1994  0.8322  0.8469
20770SOL     OW63525   7.261   4.781   4.455  0.7317 -0.2688  0.0868
20770SOL    HW163526   7.253   4.686   4.447  0.6805 -0.3900  1.4048
20770SOL    HW263527   7.223   4.815   4.374 -2.1254 -1.2726  0.8881
20771SOL     OW63528   8.438   3.961   4.904  0.2574  0.3302  0.9113
20771SOL    HW163529   8.424   3.979   4.811  2.4702  0.9590  0.6363
20771SOL    HW263530   8.409   3.871   4.916  0.5074  0.0328 -0.5395
20772SOL     OW63531   7.577   3.985   4.567  0.5603  0.4384  0.2911
20772SOL    HW163532   7.483   3.966   4.576  0.4905  1.0424  0.9329
20772SOL    HW263533   7.620   3.912   4.612  0.3808  0.4094  0.4183
20773SOL     OW63534   0.310   3.814   4.193  0.2452 -0.6312 -0.1069
20773SOL    HW163535   0.214   3.808   4.201  0.2695  0.8487  2.7495
20773SOL    HW263536   0.324   3.893   4.141 -0.1220 -0.1939  0.4392
20774SOL     OW63537   8.674   4.101   4.766  0.4514 -0.8255 -0.2939
20774SOL    HW163538   8.746   4.146   4.722  0.7464 -0.3113  0.6790
20774SOL    HW263539   8.707   4.013   4.783  0.8364 -0.6088  0.0977
20775SOL     OW63540   8.590   4.922   5.041 -0.4698  0.5142  0.5845
20775SOL    HW163541   8.524   4.905   4.974 -0.0233  1.2813 -0.0598
20775SOL    HW263542   8.548   4.980   5.104 -1.1321 -0.7842  1.3930
20776SOL     OW63543   8.098   4.702   5.897 -0.0028 -0.2702 -0.1234
20776SOL    HW163544   8.076   4.638   5.965  1.2293 -0.2819  0.3047
20776SOL    HW263545   8.156   4.654   5.838  0.2220  0.1998 -0.2907
20777SOL     OW63546   0.020   4.593   3.730 -0.1524 -0.0449 -0.1505
20777SOL    HW163547  -0.058   4.541   3.708 -0.1799 -0.0737  0.0195
20777SOL    HW263548   0.069   4.597   3.648 -0.6868  0.5742 -0.4531
20778SOL     OW63549   8.357   4.814   4.520 -0.1574 -0.0498  0.2053
20778SOL    HW163550   8.416   4.882   4.486  1.4405 -0.4009  2.1101
20778SOL    HW263551   8.402   4.732   4.503 -0.7872 -0.4476  0.4045
20779SOL     OW63552   7.201   4.142   4.767 -0.0105 -0.3284  0.4136
20779SOL    HW163553   7.122   4.094   4.791 -1.9072  1.1946 -2.2267
20779SOL    HW263554   7.191   4.227   4.809 -0.7231  0.4888 -1.3313
20780SOL     OW63555   8.136   3.794   4.713  0.0516  0.4838  0.0310
20780SOL    HW163556   8.072   3.821   4.779  0.0960  0.1947  0.1953
20780SOL    HW263557   8.192   3.731   4.759  0.9458  1.3352  0.1238
20781SOL     OW63558   8.832   4.214   5.425  0.2589 -0.7408  0.5039
20781SOL    HW163559   8.862   4.200   5.515  1.2213  0.8801  0.4813
20781SOL    HW263560   8.904   4.263   5.384 -1.0999  0.4715 -0.5046
20782SOL     OW63561   0.395   4.070   4.816  0.2228 -0.0564  0.3116
20782SOL    HW163562   0.460   4.137   4.836  1.0944 -0.3655 -1.2927
20782SOL    HW263563   0.421   3.995   4.871 -0.2561  0.6079  1.4786
20783SOL     OW63564   7.658   4.960   4.012  0.0611 -0.1555  0.0738
20783SOL    HW163565   7.638   4.942   3.920  0.4638  1.1372 -0.2867
20783SOL    HW263566   7.573   4.954   4.056 -0.2485 -0.1227 -0.4977
20784SOL     OW63567   7.625   5.431   4.959 -0.2645 -0.2178 -0.6501
20784SOL    HW163568   7.631   5.435   5.054 -0.7413  0.9152 -0.6560
20784SOL    HW263569   7.611   5.338   4.940  0.0560 -0.4839  0.3634
20785SOL     OW63570   7.939   5.434   4.716 -0.0576 -0.2047 -0.3140
20785SOL    HW163571   8.011   5.497   4.721  0.6552 -1.0043 -0.3919
20785SOL    HW263572   7.980   5.351   4.693 -0.8715 -0.9282  0.7406
20786SOL     OW63573   7.319   4.391   4.583 -0.7350  0.9519 -0.2049
20786SOL    HW163574   7.270   4.453   4.529 -2.3103 -0.3762 -0.3759
20786SOL    HW263575   7.262   4.373   4.657 -0.0597  0.1647  0.1483
20787SOL     OW63576   7.419   4.397   5.066 -0.5015  0.2897 -0.3316
20787SOL    HW163577   7.362   4.473   5.073 -1.2533 -0.3063  0.3291
20787SOL    HW263578   7.459   4.404   4.980 -1.6058  0.7275 -0.8310
20788SOL     OW63579   8.396   3.869   4.636 -0.2552  0.1664 -0.5144
20788SOL    HW163580   8.302   3.872   4.654 -0.8557  0.7963 -3.2669
20788SOL    HW263581   8.407   3.789   4.585  0.9608 -0.5162  0.7497
20789SOL     OW63582   7.713   4.894   5.120 -0.6198 -0.3294 -0.0212
20789SOL    HW163583   7.695   4.953   5.194  1.7850  1.5979 -0.8174
20789SOL    HW263584   7.634   4.842   5.111 -1.8770  0.9519  2.4480
20790SOL     OW63585   8.538   3.868   5.310 -0.3088 -0.1658  0.6338
20790SOL    HW163586   8.459   3.831   5.270 -0.9065 -0.6191  2.1590
20790SOL    HW263587   8.512   3.889   5.399  0.4777  2.4580  0.3491
20791SOL     OW63588   7.886   5.276   4.941 -0.4623 -0.0867  0.5073
20791SOL    HW163589   7.891   5.330   4.862  2.1531 -0.4861  0.3190
20791SOL    HW263590   7.945   5.203   4.924 -0.3147 -0.5058  2.5927
20792SOL     OW63591   8.227   4.152   3.801  0.6273 -0.7239 -0.1390
20792SOL    HW163592   8.198   4.103   3.878 -0.0588  1.4380  1.0430
20792SOL    HW263593   8.287   4.092   3.756  1.3579 -1.9241  2.2642
20793SOL     OW63594   7.709   4.542   4.974  0.1732  0.3849 -0.4811
20793SOL    HW163595   7.662   4.473   4.926  1.4490 -0.6065 -0.3679
20793SOL    HW263596   7.645   4.613   4.982 -0.6604 -0.1137 -2.0799
20794SOL     OW63597   8.603   4.741   4.792  0.0832 -0.1162  0.5938
20794SOL    HW163598   8.605   4.752   4.697  0.7449 -0.9841  0.4984
20794SOL    HW263599   8.524   4.789   4.820 -0.2312 -0.0291 -0.4042
20795SOL     OW63600   8.680   4.297   3.988 -0.4237 -0.5029  0.1499
20795SOL    HW163601   8.633   4.214   3.985  3.2006 -2.8229  1.7964
20795SOL    HW263602   8.734   4.298   3.910  1.0264 -0.7294  1.1126
20796SOL     OW63603   8.458   5.597   4.618 -0.2385  0.6880 -0.0003
20796SOL    HW163604   8.510   5.524   4.585 -0.5792  0.9648 -1.2076
20796SOL    HW263605   8.479   5.601   4.711  3.0319  1.6915 -0.6603
20797SOL     OW63606   6.943   4.825   4.347 -0.4198 -0.4858  0.1602
20797SOL    HW163607   6.955   4.730   4.359 -1.3237 -0.7886 -1.1776
20797SOL    HW263608   6.994   4.846   4.269  0.4631  0.3141  0.9291
20798SOL     OW63609   8.116   5.291   5.347  0.1335 -0.1233 -0.0815
20798SOL    HW163610   8.128   5.386   5.343 -0.9763  0.0275 -0.0328
20798SOL    HW263611   8.046   5.272   5.284  1.1808 -1.0737 -1.0135
20799SOL     OW63612   8.819   5.403   4.463  0.0737  0.2011 -0.5502
20799SOL    HW163613   8.796   5.494   4.481  0.1283 -0.1668  1.6412
20799SOL    HW263614   8.736   5.360   4.446 -0.3759  0.0294  1.7509
20800SOL     OW63615   7.649   5.077   5.325  0.3152  0.4577 -0.2520
20800SOL    HW163616   7.615   5.163   5.299  0.3111  1.0673  1.6103
20800SOL    HW263617   7.601   5.057   5.405  0.2837 -1.3346 -0.6835
20801SOL     OW63618   0.134   4.769   4.473 -0.7278 -0.3103  0.6811
20801SOL    HW163619   0.201   4.836   4.477 -0.0872 -0.9605  1.1220
20801SOL    HW263620   0.094   4.779   4.387 -0.7072  0.6878  0.7797
20802SOL     OW63621   8.253   4.721   5.256 -0.1693  0.1954  0.2713
20802SOL    HW163622   8.220   4.739   5.344  0.6625 -1.4327  0.9434
20802SOL    HW263623   8.247   4.626   5.247  2.2653  0.0405 -0.3936
20803SOL     OW63624   8.182   5.280   3.333  0.0288  0.4646 -0.0072
20803SOL    HW163625   8.271   5.246   3.346 -0.2597 -0.6288 -0.7985
20803SOL    HW263626   8.125   5.210   3.366 -0.5474  1.1958  0.5787
20804SOL     OW63627   7.910   3.901   4.885 -0.0119  0.6286 -0.3258
20804SOL    HW163628   7.885   3.864   4.970 -0.1800 -0.6110 -0.9000
20804SOL    HW263629   7.845   3.969   4.869 -0.5102  0.2682  0.1336
20805SOL     OW63630   8.216   5.087   3.738 -0.2883 -0.1034  0.4214
20805SOL    HW163631   8.172   5.078   3.653 -0.1161  0.9429  0.2112
20805SOL    HW263632   8.286   5.022   3.735  0.2231  0.4627 -0.5735
20806SOL     OW63633   8.438   4.306   4.901 -0.1503  0.1272 -0.2978
20806SOL    HW163634   8.348   4.308   4.933 -0.5827 -1.6552 -1.3067
20806SOL    HW263635   8.434   4.350   4.816 -0.1519 -0.3148 -0.5273
20807SOL     OW63636   8.103   4.716   3.504 -0.7047  0.3405  0.2581
20807SOL    HW163637   8.123   4.633   3.460 -0.5442 -0.7458  2.2397
20807SOL    HW263638   8.068   4.772   3.436  1.2318 -0.5956 -1.6273
20808SOL     OW63639   8.004   4.834   5.063  0.5760 -0.5351 -0.5207
20808SOL    HW163640   8.038   4.792   5.142  1.8363  1.0371 -0.1781
20808SOL    HW263641   7.909   4.836   5.076  0.6597 -1.4424  0.3508
20809SOL     OW63642   8.739   4.398   4.243 -0.1485  0.0988 -0.0130
20809SOL    HW163643   8.737   4.374   4.151  0.0921  1.6279 -0.4509
20809SOL    HW263644   8.652   4.373   4.276  0.4799 -2.4060 -0.0736
20810SOL     OW63645   8.826   3.872   4.722 -0.1300  0.1290  0.5222
20810SOL    HW163646   8.871   3.810   4.780  0.7734 -0.8487 -1.1529
20810SOL    HW263647   8.784   3.817   4.656 -0.2739  1.2411 -0.3421
20811SOL     OW63648   8.177   5.090   4.173 -0.7886 -0.1130 -0.1516
20811SOL    HW163649   8.181   5.124   4.262 -0.5182 -1.1448  0.2450
20811SOL    HW263650   8.087   5.060   4.162 -1.4937  2.1280 -1.0657
20812SOL     OW63651   7.576   5.075   4.349  0.4479  0.4808  0.1077
20812SOL    HW163652   7.559   4.981   4.344 -0.1914  0.4884  1.5653
20812SOL    HW263653   7.670   5.083   4.338  0.2641 -0.0686 -2.5871
20813SOL     OW63654   7.205   4.550   5.055 -0.4606 -0.4901  0.2703
20813SOL    HW163655   7.189   4.616   4.987  0.0504 -0.8185 -0.1759
20813SOL    HW263656   7.120   4.535   5.095 -0.3902  1.3466  1.2076
20814SOL     OW63657   8.200   3.885   5.302  0.4733  0.3354 -0.0032
20814SOL    HW163658   8.239   3.798   5.288  1.4619  0.9296 -1.1341
20814SOL    HW263659   8.196   3.894   5.397 -1.3863 -1.6857  0.2071
20815SOL     OW63660   7.311   3.688   3.700  0.0729  0.6802  0.0540
20815SOL    HW163661   7.373   3.684   3.628 -0.1807 -0.3625 -0.1142
20815SOL    HW263662   7.226   3.674   3.660 -0.6135  4.3300 -0.0666
20816SOL     OW63663   8.846   4.893   4.771 -0.2370 -0.4496  0.3406
20816SOL    HW163664   8.756   4.871   4.746 -0.0785  0.1446 -0.8177
20816SOL    HW263665   8.892   4.809   4.771 -0.4057 -0.5479 -0.7279
20817SOL     OW63666   7.557   3.671   3.845 -0.1435  0.0287  0.9463
20817SOL    HW163667   7.464   3.671   3.824  0.1981  1.6246 -0.7831
20817SOL    HW263668   7.561   3.706   3.934 -1.2047 -0.5594  1.2454
20818SOL     OW63669   8.225   4.861   4.031 -0.1205  0.6315  0.4088
20818SOL    HW163670   8.186   4.877   4.117 -0.2921 -0.5132  0.5581
20818SOL    HW263671   8.151   4.833   3.977  0.0930  0.7471  0.0614
20819SOL     OW63672   8.340   4.345   5.462 -0.2784 -0.0748  0.3268
20819SOL    HW163673   8.407   4.413   5.461 -1.1200  0.7725 -0.1121
20819SOL    HW263674   8.324   4.329   5.556  0.1944  0.0619  0.4317
20820SOL     OW63675   8.371   4.166   5.698 -0.2678 -0.0695  0.1693
20820SOL    HW163676   8.444   4.173   5.760  0.5333 -0.2773 -0.7228
20820SOL    HW263677   8.398   4.096   5.638  0.3209  2.0052 -2.1475
20821SOL     OW63678   0.378   4.952   4.966  0.4810  0.2335 -0.1210
20821SOL    HW163679   0.405   4.865   4.997 -1.4809  0.3392  2.1621
20821SOL    HW263680   0.460   5.000   4.956  1.5004 -1.3589  0.1669
20822SOL     OW63681   8.032   5.616   5.324  0.4646 -0.3845  0.0110
20822SOL    HW163682   7.968   5.589   5.258 -0.5404 -0.0822  0.8284
20822SOL    HW263683   8.047   5.709   5.307  0.0420 -0.2548  0.3284
20823SOL     OW63684   0.095   4.032   4.235 -0.2320  0.2632 -0.0898
20823SOL    HW163685   0.134   4.117   4.212  0.2874 -0.2354 -1.1526
20823SOL    HW263686   0.107   4.025   4.329 -0.6290  1.5394  0.0714
20824SOL     OW63687   7.812   4.207   4.770  0.3025 -0.0448  0.5551
20824SOL    HW163688   7.799   4.161   4.853 -0.1582  0.8796  1.0163
20824SOL    HW263689   7.864   4.284   4.793 -1.6621  1.4091  0.4173
20825SOL     OW63690   7.908   5.020   4.126 -0.5224  0.0466 -0.8533
20825SOL    HW163691   7.919   5.104   4.081 -1.9990  0.8221  0.1352
20825SOL    HW263692   7.828   4.983   4.089 -0.8704 -0.0589 -0.0146
20826SOL     OW63693   7.725   5.506   4.432  0.5473 -0.1651 -0.4788
20826SOL    HW163694   7.649   5.448   4.431  1.0555 -0.8550  0.0003
20826SOL    HW263695   7.777   5.479   4.357 -0.3930  1.3346 -1.7621
20827SOL     OW63696   8.513   4.600   4.462  0.4794 -0.2116 -0.1577
20827SOL    HW163697   8.490   4.552   4.383  1.3038  2.3621 -2.0906
20827SOL    HW263698   8.607   4.617   4.454  0.5786  0.1509  1.3724
20828SOL     OW63699   8.479   4.458   3.903 -0.3955  0.4644 -0.0102
20828SOL    HW163700   8.396   4.466   3.951 -0.2376  2.1702  0.0391
20828SOL    HW263701   8.540   4.423   3.967 -0.4695  1.6329  0.7390
20829SOL     OW63702   7.967   5.200   5.644 -0.0226 -0.0816  0.2464
20829SOL    HW163703   7.911   5.128   5.673  1.5448 -2.1489 -1.5139
20829SOL    HW263704   7.924   5.279   5.678 -2.7181 -1.6903  0.8962
20830SOL     OW63705   7.487   5.307   4.436  0.4932  0.0623 -0.9089
20830SOL    HW163706   7.391   5.310   4.429  0.5133  0.8975 -0.9149
20830SOL    HW263707   7.511   5.221   4.401 -0.2841 -0.3089 -0.5559
20831SOL     OW63708   8.086   4.609   4.945  0.2316 -0.2667 -0.0469
20831SOL    HW163709   8.031   4.589   4.869  1.6244 -0.0221 -1.1735
20831SOL    HW263710   8.050   4.690   4.980 -0.7385 -0.6486 -0.1347
20832SOL     OW63711   8.399   3.632   4.466  0.6768  0.7555  0.1301
20832SOL    HW163712   8.367   3.544   4.446 -0.1175  1.2286 -0.7610
20832SOL    HW263713   8.443   3.661   4.386 -0.6601  1.8540 -0.2448
20833SOL     OW63714   7.937   4.181   5.339  0.0203  0.0929  0.8063
20833SOL    HW163715   7.924   4.275   5.327  0.1150  0.2567  1.8753
20833SOL    HW263716   7.995   4.155   5.268  1.3282  1.1583  1.4571
20834SOL     OW63717   8.760   5.690   4.420  0.1502 -0.3223  0.3434
20834SOL    HW163718   8.750   5.765   4.477 -1.2404 -1.5546  1.8018
20834SOL    HW263719   8.714   5.714   4.340  1.1538  0.9821  0.1146
20835SOL     OW63720   0.113   3.668   4.821  0.2250  0.1651  0.2081
20835SOL    HW163721   0.196   3.676   4.775  0.8782 -0.3430  1.2736
20835SOL    HW263722   0.059   3.614   4.763  0.6290  0.4813 -0.4817
20836SOL     OW63723   8.359   3.647   4.854  0.4737  0.3186 -0.0431
20836SOL    HW163724   8.426   3.634   4.922  0.2128  0.1455  0.1859
20836SOL    HW263725   8.376   3.578   4.790  0.5035  0.2600  0.0271
20837SOL     OW63726   8.134   4.495   3.875 -0.4950  0.1230 -0.2599
20837SOL    HW163727   8.185   4.568   3.840 -1.0689  0.1557 -1.0497
20837SOL    HW263728   8.189   4.458   3.944 -0.0437  1.0752 -0.0921
20838SOL     OW63729   7.564   4.506   4.316 -0.5336  0.1996  0.9103
20838SOL    HW163730   7.479   4.512   4.272 -0.3515  0.0245  0.5265
20838SOL    HW263731   7.606   4.590   4.297 -0.0992 -0.2171 -0.0057
20839SOL     OW63732   0.337   4.238   4.243 -0.0459 -0.1056  0.1533
20839SOL    HW163733   0.376   4.157   4.276  0.1983 -0.9012 -1.9450
20839SOL    HW263734   0.410   4.299   4.237  0.5516 -0.9169 -1.6967
20840SOL     OW63735   7.677   4.726   4.157  0.4098  0.0400 -0.0447
20840SOL    HW163736   7.679   4.788   4.084 -1.0441 -0.1457 -0.2632
20840SOL    HW263737   7.722   4.648   4.124  1.6702  0.7181  0.0120
20841SOL     OW63738   8.058   5.276   4.357  0.0528 -0.1649  0.2547
20841SOL    HW163739   7.987   5.316   4.307  0.3369 -0.7516 -0.6371
20841SOL    HW263740   8.097   5.348   4.406  0.5356  0.6759 -1.2853
20842SOL     OW63741   7.676   4.574   5.542 -0.8402  0.5463 -0.5954
20842SOL    HW163742   7.762   4.593   5.505  1.0981 -1.7063  2.2418
20842SOL    HW263743   7.632   4.520   5.476  1.4044 -1.1793 -0.8124
20843SOL     OW63744   7.192   4.134   6.472  0.4818  0.3928  0.1862
20843SOL    HW163745   7.118   4.107   6.526  0.9975  0.4055  0.9191
20843SOL    HW263746   7.209   4.058   6.416  0.6747 -0.0781  0.8624
20844SOL     OW63747   7.428   4.108   5.853 -0.2235 -0.8352  0.1165
20844SOL    HW163748   7.379   4.075   5.930 -0.6813 -1.6834 -0.5146
20844SOL    HW263749   7.519   4.110   5.882 -0.3529 -1.4337  0.6053
20845SOL     OW63750   7.941   4.962   7.103  0.5232  0.3743  0.1445
20845SOL    HW163751   7.998   4.926   7.171  1.3568 -0.0504 -0.7664
20845SOL    HW263752   7.921   4.887   7.047  2.2602  1.2641 -1.7729
20846SOL     OW63753   0.160   5.530   5.990  0.5046  0.2770 -0.0883
20846SOL    HW163754   0.230   5.519   5.925  2.2461 -1.6477  1.9629
20846SOL    HW263755   0.160   5.449   6.040 -2.1987  0.8477  1.0306
20847SOL     OW63756   8.412   4.606   6.180 -0.8335  0.3393 -0.4321
20847SOL    HW163757   8.349   4.672   6.150 -2.3722 -1.1855 -0.7514
20847SOL    HW263758   8.427   4.551   6.102  1.2427  0.8892 -0.4710
20848SOL     OW63759   8.311   4.757   6.631  0.0341 -0.2869 -0.0617
20848SOL    HW163760   8.370   4.816   6.586 -1.7905  1.8677  0.1919
20848SOL    HW263761   8.367   4.686   6.663  2.5004  1.7194  0.3974
20849SOL     OW63762   8.259   4.584   7.521  0.5041 -0.4869 -0.1002
20849SOL    HW163763   8.282   4.520   7.589  2.7012  0.4483  0.1201
20849SOL    HW263764   8.326   4.652   7.529 -0.3632  0.6401 -1.9216
20850SOL     OW63765   8.342   5.170   6.199 -0.7814 -0.2635  0.0432
20850SOL    HW163766   8.379   5.246   6.246  0.5742 -0.9948  0.2087
20850SOL    HW263767   8.254   5.161   6.235 -0.1233 -0.2183  1.7881
20851SOL     OW63768   8.492   4.761   7.517  0.2969 -0.2879 -0.4692
20851SOL    HW163769   8.510   4.828   7.451  0.6440  0.0901  0.0092
20851SOL    HW263770   8.504   4.805   7.601 -0.3187 -0.7159 -0.1438
20852SOL     OW63771   7.917   4.955   6.621 -0.8105 -1.2013  0.1123
20852SOL    HW163772   7.926   5.050   6.628 -1.2795 -0.9293 -2.1506
20852SOL    HW263773   7.841   4.934   6.674 -2.0665  0.0475 -1.1015
20853SOL     OW63774   7.967   4.279   6.975  0.4281  0.1759  0.4010
20853SOL    HW163775   7.973   4.253   6.884  0.0177 -0.1018  0.4518
20853SOL    HW263776   8.058   4.283   7.005  0.6776  1.9134 -0.4724
20854SOL     OW63777   6.848   5.657   5.972 -0.0696 -0.5811  0.0536
20854SOL    HW163778   6.797   5.691   5.899 -1.2002  0.1496  1.1500
20854SOL    HW263779   6.939   5.674   5.948 -0.2895 -1.7800 -1.8727
20855SOL     OW63780   8.573   4.930   7.315 -0.3906  0.1424  0.2407
20855SOL    HW163781   8.652   4.984   7.321 -1.8649  2.2763  2.0482
20855SOL    HW263782   8.556   4.924   7.220  0.4725  1.9621 -0.0845
20856SOL     OW63783   7.824   5.818   5.831  0.5294  0.4002 -0.1251
20856SOL    HW163784   7.818   5.784   5.742 -0.2345 -0.5562  0.2704
20856SOL    HW263785   7.838   5.741   5.886 -0.8304  0.7291  0.7527
20857SOL     OW63786   7.818   5.274   6.372 -0.3286 -0.4790  0.3218
20857SOL    HW163787   7.822   5.262   6.467  1.6122  0.8223  0.4576
20857SOL    HW263788   7.760   5.203   6.341 -0.6909 -1.1587  2.4053
20858SOL     OW63789   7.990   5.436   7.289  0.0753 -0.5634 -0.0107
20858SOL    HW163790   7.958   5.347   7.274 -1.8065  0.2785 -1.5204
20858SOL    HW263791   7.912   5.486   7.312  0.6651  1.1248 -1.4366
20859SOL     OW63792   7.990   4.977   5.938 -0.2169  0.0452 -0.3275
20859SOL    HW163793   8.001   4.882   5.930  0.0487 -0.2130  2.2748
20859SOL    HW263794   8.060   5.014   5.883  0.5600 -1.2884 -0.2740
20860SOL     OW63795   7.012   4.144   6.143  0.0295  0.3600  0.1370
20860SOL    HW163796   7.080   4.115   6.082 -1.2688 -0.7185 -0.8630
20860SOL    HW263797   7.003   4.071   6.204 -1.2567 -0.1972 -0.6678
20861SOL     OW63798   7.563   5.521   5.816  0.4621  0.2202 -0.3246
20861SOL    HW163799   7.469   5.511   5.824  0.3819  1.1707  0.0717
20861SOL    HW263800   7.584   5.485   5.731  0.0078 -1.6645  0.3206
20862SOL     OW63801   8.781   4.715   6.711  0.0371 -0.0384  0.3692
20862SOL    HW163802   8.788   4.797   6.663  1.4614 -0.8152 -0.8044
20862SOL    HW263803   8.699   4.676   6.680 -0.0503  0.3821  0.0582
20863SOL     OW63804   7.394   4.591   6.433 -0.0900  0.5849 -1.0861
20863SOL    HW163805   7.392   4.644   6.353  1.4354 -1.1735 -2.3695
20863SOL    HW263806   7.408   4.501   6.403 -0.4782 -0.2906  1.1143
20864SOL     OW63807   7.980   5.250   6.676 -0.0016  0.0238  0.2478
20864SOL    HW163808   8.033   5.330   6.680  1.5709 -0.9529 -0.4231
20864SOL    HW263809   7.890   5.282   6.669  0.5616  1.7354  0.3706
20865SOL     OW63810   8.842   4.881   6.936 -0.2637  0.2164 -0.1060
20865SOL    HW163811   8.875   4.834   7.012 -0.0129  1.5085  0.6247
20865SOL    HW263812   8.844   4.817   6.864 -0.2295 -0.9369  0.8995
20866SOL     OW63813   7.805   3.938   6.156 -0.4693  0.2164  0.2841
20866SOL    HW163814   7.867   3.942   6.083  0.1324 -3.2840  0.4236
20866SOL    HW263815   7.860   3.936   6.234 -0.8950 -0.1469  0.5797
20867SOL     OW63816   7.872   4.502   6.772  0.3458  0.1921 -0.4147
20867SOL    HW163817   7.836   4.485   6.685  0.4350 -0.8639 -0.2502
20867SOL    HW263818   7.842   4.428   6.825  1.9683 -0.2194 -0.0376
20868SOL     OW63819   8.426   5.578   6.802 -0.6757  0.0336 -1.0044
20868SOL    HW163820   8.459   5.489   6.803  0.0573  0.2738 -1.9747
20868SOL    HW263821   8.440   5.608   6.712 -0.9987  1.0925 -0.7224
20869SOL     OW63822   8.049   3.933   7.382  0.1799 -0.3669 -0.4563
20869SOL    HW163823   8.021   3.981   7.303 -0.7020 -0.2470 -0.0831
20869SOL    HW263824   7.971   3.885   7.410  0.4264 -0.2555  0.4565
20870SOL     OW63825   7.941   4.828   6.239 -0.4622  0.1461 -0.4630
20870SOL    HW163826   7.889   4.897   6.281 -0.8499 -0.6532  0.4233
20870SOL    HW263827   7.997   4.795   6.310  1.7326  1.3724 -1.5142
20871SOL     OW63828   0.154   4.271   6.570 -0.1379  0.0964 -0.2630
20871SOL    HW163829   0.198   4.271   6.485  0.2794 -1.6983 -0.1032
20871SOL    HW263830   0.095   4.346   6.568  0.2043  0.3450 -1.9524
20872SOL     OW63831   8.230   4.274   7.085  0.1886  0.7758  0.7355
20872SOL    HW163832   8.315   4.288   7.044  0.2091 -0.2621  0.3985
20872SOL    HW263833   8.250   4.265   7.178  0.4278  0.7862  0.6869
20873SOL     OW63834   0.309   3.994   7.180  0.4482  0.1345 -0.1496
20873SOL    HW163835   0.334   4.081   7.150 -1.2596  0.5939 -0.3832
20873SOL    HW263836   0.320   3.997   7.275 -0.0981  0.8003 -0.1008
20874SOL     OW63837   8.497   4.177   7.228  0.0741 -0.3078  0.1152
20874SOL    HW163838   8.556   4.165   7.303 -1.6605  1.0429  1.8131
20874SOL    HW263839   8.534   4.123   7.159  3.2060  0.3725  1.1001
20875SOL     OW63840   8.312   3.940   6.684 -0.5751 -0.5371  0.0906
20875SOL    HW163841   8.315   4.023   6.637 -0.8197 -0.3635  0.3867
20875SOL    HW263842   8.365   3.881   6.630 -0.4127 -0.1959 -0.1269
20876SOL     OW63843   8.460   4.235   6.320  0.2727 -0.0279  0.2634
20876SOL    HW163844   8.485   4.199   6.405  2.2684  2.2268  0.7149
20876SOL    HW263845   8.365   4.250   6.327  0.1708 -1.0905  1.5631
20877SOL     OW63846   7.650   4.455   6.458  0.3931 -0.1617 -0.2976
20877SOL    HW163847   7.592   4.519   6.499  2.8936  1.5666  0.7862
20877SOL    HW263848   7.600   4.373   6.458 -1.8844  1.1442  0.8369
20878SOL     OW63849   7.500   5.846   6.693  0.5855 -0.1365 -0.0957
20878SOL    HW163850   7.569   5.781   6.701  1.4795  0.5872 -1.5484
20878SOL    HW263851   7.434   5.819   6.757  2.5774 -0.3558  1.9951
20879SOL     OW63852   7.942   4.083   5.585  0.2248  0.6382 -0.0837
20879SOL    HW163853   7.928   4.157   5.645  0.0233  1.4683 -1.1289
20879SOL    HW263854   7.960   4.124   5.500 -0.5720 -0.5176 -0.8424
20880SOL     OW63855   8.575   5.131   5.857  0.1996 -0.3076  0.3486
20880SOL    HW163856   8.528   5.069   5.912  0.9420 -1.1899  0.0062
20880SOL    HW263857   8.651   5.082   5.825  1.5710  1.1670  1.1794
20881SOL     OW63858   7.495   3.904   6.722  0.0660  0.3193 -0.2385
20881SOL    HW163859   7.565   3.849   6.757 -0.5742 -0.5056 -0.2144
20881SOL    HW263860   7.530   3.937   6.639  0.8374  0.6781  0.2228
20882SOL     OW63861   8.388   5.720   6.263  0.1148 -0.4507  0.3888
20882SOL    HW163862   8.424   5.798   6.220  0.4151 -1.2873 -0.9237
20882SOL    HW263863   8.431   5.646   6.219 -2.4308 -1.4750 -0.5388
20883SOL     OW63864   7.825   5.735   6.602  0.0652 -0.0857  0.6120
20883SOL    HW163865   7.783   5.740   6.515 -1.4722 -1.2634  1.2392
20883SOL    HW263866   7.909   5.692   6.585  0.7652  1.6085 -0.5684
20884SOL     OW63867   8.519   5.257   7.098  0.4862  0.4819  0.3288
20884SOL    HW163868   8.568   5.192   7.048 -2.5097 -2.2343  0.6178
20884SOL    HW263869   8.548   5.244   7.188 -0.5028 -0.9626  0.4715
20885SOL     OW63870   8.008   4.874   5.607  0.1136 -0.6760 -0.7131
20885SOL    HW163871   7.973   4.786   5.592 -1.5077 -0.1464 -0.3326
20885SOL    HW263872   7.931   4.931   5.601  1.1003  0.7013 -0.7846
20886SOL     OW63873   7.515   5.177   7.175 -0.7823 -0.0386 -0.6961
20886SOL    HW163874   7.435   5.229   7.172 -1.4819 -1.0939 -1.8808
20886SOL    HW263875   7.485   5.089   7.200  0.0404 -0.3840 -0.8905
20887SOL     OW63876   8.536   5.677   5.752  0.2298 -0.3401  0.8877
20887SOL    HW163877   8.605   5.618   5.722  0.0805 -0.1369  0.1457
20887SOL    HW263878   8.573   5.765   5.741 -1.3061  0.0067 -2.7198
20888SOL     OW63879   8.039   4.215   6.712  0.5065 -0.2694 -0.0273
20888SOL    HW163880   8.116   4.251   6.668  0.5774 -0.2677  0.0969
20888SOL    HW263881   8.042   4.121   6.691  1.8657 -0.7097  1.9074
20889SOL     OW63882   8.307   5.304   5.919 -0.2556 -0.3715 -0.1369
20889SOL    HW163883   8.341   5.253   5.993 -0.2675 -0.4138 -0.1604
20889SOL    HW263884   8.219   5.330   5.947 -0.5947 -1.1097 -0.4754
20890SOL     OW63885   7.484   5.526   6.538  0.2413 -0.0699 -0.1786
20890SOL    HW163886   7.529   5.568   6.611 -2.0187  1.4735  0.4348
20890SOL    HW263887   7.426   5.461   6.579  0.5584 -0.7726 -0.8051
20891SOL     OW63888   8.340   5.080   6.779  0.2736 -0.5851  0.2263
20891SOL    HW163889   8.318   5.173   6.769 -0.1714 -0.8058 -0.9517
20891SOL    HW263890   8.261   5.040   6.815  1.0880 -0.2101  2.6030
20892SOL     OW63891   7.686   5.074   6.264 -0.0150 -0.0663 -0.2336
20892SOL    HW163892   7.601   5.084   6.306  0.2755  1.2011  0.1132
20892SOL    HW263893   7.677   4.998   6.206 -1.2237 -0.2250  0.1552
20893SOL     OW63894   7.946   3.969   5.914 -0.6008  0.1457  0.5036
20893SOL    HW163895   7.927   3.911   5.839 -0.0187  0.4017  0.1563
20893SOL    HW263896   7.863   4.015   5.929 -1.3246 -1.3278  1.2846
20894SOL     OW63897   8.632   4.070   6.987 -0.5108 -0.1648 -0.7420
20894SOL    HW163898   8.642   4.123   6.908  0.1690  0.8464 -0.0194
20894SOL    HW263899   8.721   4.039   7.007 -0.9284 -1.7602 -1.2485
20895SOL     OW63900   8.243   5.273   7.041 -0.4561  0.5244 -0.4802
20895SOL    HW163901   8.218   5.196   6.990  1.1860  0.6456 -1.5397
20895SOL    HW263902   8.328   5.251   7.078 -0.1852  1.6558 -0.4005
20896SOL     OW63903   0.023   4.280   7.059  0.0669 -0.1484 -0.2409
20896SOL    HW163904   0.009   4.268   7.152 -1.9302 -0.1142 -0.4952
20896SOL    HW263905   0.015   4.374   7.045  0.3360 -0.1562 -0.4570
20897SOL     OW63906   8.269   5.381   6.542 -0.7353  0.0249 -0.4042
20897SOL    HW163907   8.332   5.403   6.474  0.6066 -0.0493  0.7668
20897SOL    HW263908   8.246   5.290   6.527 -2.8882  0.8181 -2.5968
20898SOL     OW63909   8.206   4.336   6.278  0.0313  0.2423 -0.4174
20898SOL    HW163910   8.130   4.289   6.313  0.8043 -0.2185  0.6627
20898SOL    HW263911   8.179   4.428   6.278 -0.6629  0.0433 -0.3993
20899SOL     OW63912   7.791   3.709   5.999 -0.0381  0.3660  0.2480
20899SOL    HW163913   7.836   3.706   5.914 -0.8304 -0.1109 -0.1654
20899SOL    HW263914   7.752   3.796   6.003  0.4710  0.5947  0.3828
20900SOL     OW63915   7.848   3.789   5.711  0.0148  0.2435 -0.3378
20900SOL    HW163916   7.787   3.836   5.654 -0.4385  0.5906  0.4127
20900SOL    HW263917   7.833   3.696   5.692  0.8636  0.3741 -1.7756
20901SOL     OW63918   8.185   4.164   5.923  0.3740  0.6675 -0.3718
20901SOL    HW163919   8.147   4.076   5.926  0.0838  0.7613 -1.0512
20901SOL    HW263920   8.239   4.164   5.844 -0.1187  1.2868 -0.7194
20902SOL     OW63921   8.488   4.379   7.020  0.0510 -0.2057  0.1871
20902SOL    HW163922   8.556   4.445   7.033 -0.4665  0.2309  0.7899
20902SOL    HW263923   8.512   4.308   7.079 -0.6833  0.5004  1.3928
20903SOL     OW63924   8.684   5.370   5.953  0.2043  0.1238  0.1798
20903SOL    HW163925   8.634   5.302   5.908 -1.3353  1.7798 -0.7072
20903SOL    HW263926   8.684   5.444   5.893 -1.2578  2.1554  2.4888
20904SOL     OW63927   8.076   5.292   6.270 -0.1780 -0.0872  0.3839
20904SOL    HW163928   8.098   5.260   6.358 -0.0051 -0.3317  0.2558
20904SOL    HW263929   7.981   5.291   6.267 -0.1798 -0.4085  0.4542
20905SOL     OW63930   8.450   5.324   5.666 -0.0963  0.2411  0.0441
20905SOL    HW163931   8.368   5.372   5.676 -0.3092  0.0735 -0.8454
20905SOL    HW263932   8.453   5.265   5.741 -0.8545  0.1485  0.0054
20906SOL     OW63933   7.966   4.324   5.901  0.4730  0.2961 -0.0832
20906SOL    HW163934   8.049   4.278   5.894  2.0449  2.9507 -0.2275
20906SOL    HW263935   7.948   4.328   5.994 -0.8783 -2.4045 -0.1239
20907SOL     OW63936   7.614   4.246   6.753  0.0708 -0.1778 -0.1448
20907SOL    HW163937   7.610   4.185   6.827  2.9914  0.2403  0.4771
20907SOL    HW263938   7.654   4.195   6.683  0.1601  0.3177 -0.4578
20908SOL     OW63939   7.818   3.764   6.993 -0.3270  0.0131  0.3838
20908SOL    HW163940   7.835   3.856   6.971 -0.9301 -0.1197 -0.6747
20908SOL    HW263941   7.905   3.726   7.004  0.2497 -0.4057 -3.9229
20909SOL     OW63942   7.969   4.255   6.447  0.6560 -0.0328  0.0640
20909SOL    HW163943   7.982   4.272   6.540  0.6320  0.5879 -0.0405
20909SOL    HW263944   7.916   4.329   6.416  1.7437  0.4531 -0.7064
20910SOL     OW63945   8.135   3.694   6.153 -0.1183 -0.3794  0.2661
20910SOL    HW163946   8.131   3.650   6.238  2.0737 -1.2784 -0.0243
20910SOL    HW263947   8.146   3.622   6.090  3.0426  0.4294 -0.2781
20911SOL     OW63948   8.196   5.002   5.450  0.2387  0.0114 -0.1689
20911SOL    HW163949   8.157   5.084   5.417 -1.6890 -0.4639  0.7558
20911SOL    HW263950   8.130   4.968   5.511  2.1305 -0.9314  1.4506
20912SOL     OW63951   8.597   4.177   5.834 -0.4264  0.8007 -0.7374
20912SOL    HW163952   8.598   4.162   5.928  0.1635 -1.9500 -1.1005
20912SOL    HW263953   8.665   4.120   5.799 -0.1590  2.2519 -2.7993
20913SOL     OW63954   7.841   4.591   6.124 -0.1934 -0.3154 -0.4570
20913SOL    HW163955   7.789   4.596   6.043  0.4159  1.2662 -0.7695
20913SOL    HW263956   7.845   4.681   6.156 -0.1503 -0.8671  1.1822
20914SOL     OW63957   8.491   4.875   6.968 -0.0710  0.0224 -0.0690
20914SOL    HW163958   8.437   4.943   6.930  0.0208  0.0772 -0.1021
20914SOL    HW263959   8.438   4.838   7.039 -0.4054 -0.3571 -0.5130
20915SOL     OW63960   8.474   4.942   6.527  0.5680  0.5031  0.2179
20915SOL    HW163961   8.535   4.885   6.481  1.6845  0.7393  1.3244
20915SOL    HW263962   8.530   4.995   6.584 -0.7195  0.1394  1.9262
20916SOL     OW63963   7.923   3.967   6.412 -0.0034 -0.1171  0.5492
20916SOL    HW163964   8.007   3.926   6.430  0.7625  1.7581  1.5480
20916SOL    HW263965   7.936   4.060   6.434 -1.6865  0.6550 -1.3496
20917SOL     OW63966   8.460   4.406   7.392 -0.4350  0.1564 -0.5010
20917SOL    HW163967   8.421   4.332   7.346 -0.6674  1.5495 -2.6374
20917SOL    HW263968   8.398   4.478   7.379 -0.0896  0.8565  1.3242
20918SOL     OW63969   8.206   4.780   6.127  0.3808  0.5248  0.3953
20918SOL    HW163970   8.159   4.780   6.044 -0.0980  2.6787  0.5992
20918SOL    HW263971   8.141   4.807   6.192  0.4936 -2.0809  1.6941
20919SOL     OW63972   7.950   4.748   6.950  0.2631 -0.3196  0.2465
20919SOL    HW163973   8.031   4.765   6.902 -1.2729  1.7654 -1.8949
20919SOL    HW263974   7.907   4.677   6.902 -0.1246  0.0307  0.0651
20920SOL     OW63975   8.449   4.204   6.801 -0.2078 -0.1439  0.3394
20920SOL    HW163976   8.488   4.279   6.844 -0.9019  0.4084  0.0224
20920SOL    HW263977   8.524   4.152   6.770  0.3286 -0.7979  2.5610
20921SOL     OW63978   7.322   5.790   6.897 -0.4977 -0.0298  0.1132
20921SOL    HW163979   7.251   5.730   6.919 -0.7659 -0.6335 -2.1617
20921SOL    HW263980   7.300   5.871   6.943 -2.4554 -0.3300 -0.2136
20922SOL     OW63981   8.192   5.109   5.766 -0.1080 -0.2209  0.0198
20922SOL    HW163982   8.116   5.146   5.722  0.0554  1.1156  0.8062
20922SOL    HW263983   8.236   5.184   5.805  1.3634 -1.0292 -0.0161
20923SOL     OW63984   7.632   4.119   6.258 -0.3156  0.3667 -0.4135
20923SOL    HW163985   7.663   4.047   6.203  1.7741 -0.2825  1.4378
20923SOL    HW263986   7.629   4.195   6.199  2.0060 -0.2522 -1.4543
20924SOL     OW63987   8.673   5.425   5.486  0.1239  0.2157 -0.3241
20924SOL    HW163988   8.669   5.516   5.513 -0.8021  0.4970 -1.3225
20924SOL    HW263989   8.600   5.383   5.531  0.2184  0.0854 -0.2908
20925SOL     OW63990   8.652   5.261   6.506 -0.2827 -0.0011  0.2537
20925SOL    HW163991   8.645   5.204   6.582  0.3437 -0.9528 -0.3769
20925SOL    HW263992   8.705   5.211   6.444  0.9729  1.5885 -0.0129
20926SOL     OW63993   7.736   5.137   7.002  0.0835  0.4022  0.4910
20926SOL    HW163994   7.814   5.106   7.048 -0.4498 -0.5636  0.7639
20926SOL    HW263995   7.672   5.152   7.071 -0.3233  0.1536  0.1686
20927SOL     OW63996   8.102   4.571   7.125  0.5260  0.2314 -0.5919
20927SOL    HW163997   8.175   4.632   7.130  0.1886  0.6754 -0.9110
20927SOL    HW263998   8.052   4.600   7.048 -1.6684  1.8595  1.2696
20928SOL     OW63999   8.270   3.924   6.988 -0.4117 -0.4612 -0.1994
20928SOL    HW164000   8.311   4.002   7.025 -1.1587 -0.0069 -0.3013
20928SOL    HW264001   8.256   3.946   6.896 -2.1612 -0.0370  0.1354
20929SOL     OW64002   8.002   4.018   7.112  0.2015 -0.0063  0.5207
20929SOL    HW164003   8.091   4.010   7.078 -0.4639 -0.3170 -1.2904
20929SOL    HW264004   7.972   4.104   7.081 -0.8288 -0.7933 -0.7797
20930SOL     OW64005   8.368   4.522   6.843 -0.1025  0.6275  0.1986
20930SOL    HW164006   8.300   4.464   6.808  0.4812  0.1109 -0.1027
20930SOL    HW264007   8.406   4.474   6.916 -0.6839  1.3120  0.9686
20931SOL     OW64008   8.604   4.752   6.356  0.8820  0.2352 -0.6412
20931SOL    HW164009   8.690   4.728   6.323  0.9794  0.6307 -0.6767
20931SOL    HW264010   8.543   4.714   6.293  0.9732 -1.1766  0.0857
20932SOL     OW64011   8.622   4.300   6.103 -0.1222 -0.1284  0.1776
20932SOL    HW164012   8.560   4.302   6.176 -1.6193 -0.3120 -1.0385
20932SOL    HW264013   8.683   4.372   6.122 -2.1580  1.7122  0.2063
20933SOL     OW64014   7.641   4.010   6.518 -0.0029  0.7620 -0.4833
20933SOL    HW164015   7.617   4.058   6.439 -0.8505 -0.1251 -0.7816
20933SOL    HW264016   7.734   3.989   6.505 -0.0439  0.9135 -1.0792
20934SOL     OW64017   7.707   5.271   6.675 -0.4194  0.6377  0.1771
20934SOL    HW164018   7.716   5.319   6.757 -0.8087  0.8251  0.1135
20934SOL    HW264019   7.613   5.251   6.669 -0.1685 -0.7964  0.5771
20935SOL     OW64020   8.139   4.482   6.582  0.2895 -0.1405  0.6278
20935SOL    HW164021   8.190   4.556   6.550  0.0994 -0.4721 -0.4617
20935SOL    HW264022   8.048   4.513   6.580  0.1545 -0.5815 -0.3591
20936SOL     OW64023   7.302   4.367   6.175  0.3661 -0.1446  0.1643
20936SOL    HW164024   7.218   4.323   6.183 -1.1670  2.5472  0.2392
20936SOL    HW264025   7.347   4.351   6.258 -0.0637 -1.5891  0.1334
20937SOL     OW64026   0.299   4.367   5.834  0.1188 -0.0735  0.5422
20937SOL    HW164027   0.232   4.323   5.782 -0.3583  0.9604  0.2728
20937SOL    HW264028   0.370   4.303   5.839 -0.3870 -0.7175 -0.1982
20938SOL     OW64029   8.459   4.496   6.418 -0.4542  0.4091  0.5737
20938SOL    HW164030   8.468   4.403   6.394 -2.2654 -0.4017  2.7192
20938SOL    HW264031   8.427   4.538   6.338 -0.3799 -0.9458 -0.2158
20939SOL     OW64032   8.136   4.901   7.329  0.0253 -0.1133  0.3404
20939SOL    HW164033   8.110   4.993   7.331 -1.1108 -0.4299  1.8377
20939SOL    HW264034   8.094   4.862   7.406 -0.1444 -2.0588 -0.6707
20940SOL     OW64035   7.466   4.501   7.296  0.2849  0.0658  0.3096
20940SOL    HW164036   7.552   4.465   7.320 -0.1629 -2.8338 -1.8310
20940SOL    HW264037   7.452   4.472   7.206 -2.3207  1.7673  0.0490
20941SOL     OW64038   0.336   4.686   5.468  0.1513 -0.1630  0.2146
20941SOL    HW164039   0.376   4.599   5.475 -0.1084 -0.4441 -1.3780
20941SOL    HW264040   0.365   4.718   5.382 -0.6834  0.8426  0.3012
20942SOL     OW64041   8.783   5.291   6.205  0.6571 -0.5418 -0.1791
20942SOL    HW164042   8.777   5.316   6.112 -1.3463  0.6996  0.2172
20942SOL    HW264043   8.736   5.207   6.210 -1.4654  0.5934  0.0486
20943SOL     OW64044   7.894   4.501   6.376 -0.1010 -0.4349  0.2207
20943SOL    HW164045   7.803   4.492   6.403 -0.5509  1.1785 -0.6237
20943SOL    HW264046   7.890   4.536   6.287  1.3272  0.2033  0.3722
20944SOL     OW64047   7.843   5.207   6.040 -0.2186  0.3840  0.1441
20944SOL    HW164048   7.885   5.125   6.014 -0.9538  0.4088 -1.2099
20944SOL    HW264049   7.778   5.182   6.106  0.0699 -0.0119  0.2790
20945SOL     OW64050   8.729   4.214   6.743 -0.4622  0.7619 -0.3669
20945SOL    HW164051   8.751   4.302   6.776 -0.6065  1.0527 -1.0208
20945SOL    HW264052   8.807   4.162   6.761  0.3899  1.5126 -1.6899
20946SOL     OW64053   0.204   4.188   6.845 -0.9137 -0.2773 -0.0025
20946SOL    HW164054   0.144   4.229   6.907 -0.9969 -0.4521  0.0308
20946SOL    HW264055   0.193   4.239   6.764 -2.5677 -1.5077 -0.6150
20947SOL     OW64056   7.810   5.354   5.797  0.0640  0.2385  0.5487
20947SOL    HW164057   7.829   5.328   5.888  1.6507  2.5598  0.9624
20947SOL    HW264058   7.734   5.411   5.804 -1.5173 -1.6557 -0.0017
20948SOL     OW64059   7.564   5.411   6.283  0.0106 -0.1490  0.0276
20948SOL    HW164060   7.621   5.356   6.336 -0.9889 -0.6182  0.6427
20948SOL    HW264061   7.519   5.467   6.347  0.7170  1.1262 -0.5520
20949SOL     OW64062   7.649   5.596   6.765 -0.2321 -0.3040  0.2260
20949SOL    HW164063   7.695   5.548   6.834  1.3059  0.8109  0.0405
20949SOL    HW264064   7.719   5.624   6.705 -1.1094  1.7212  0.0861
20950SOL     OW64065   8.294   4.238   6.569  0.5753  0.3366 -0.3478
20950SOL    HW164066   8.296   4.329   6.537 -1.6501  1.2207  1.7193
20950SOL    HW264067   8.355   4.238   6.643 -0.0618  0.4300  0.1936
20951SOL     OW64068   8.091   4.794   6.461  0.1265  0.2111 -0.1075
20951SOL    HW164069   8.030   4.824   6.528 -1.4151 -2.7718 -0.0048
20951SOL    HW264070   8.176   4.789   6.506 -0.2982  0.9031  0.8064
20952SOL     OW64071   7.834   4.612   7.248  0.1677  0.1474 -0.1384
20952SOL    HW164072   7.845   4.517   7.240 -0.0572  0.2209 -1.6054
20952SOL    HW264073   7.922   4.647   7.235  0.3397  0.1417  0.8878
20953SOL     OW64074   8.015   3.946   6.703 -0.4285 -0.3772 -0.3241
20953SOL    HW164075   8.103   3.920   6.676 -0.6685 -1.1284 -0.4121
20953SOL    HW264076   7.962   3.868   6.690 -1.2368  0.2290 -0.8240
20954SOL     OW64077   7.806   5.189   7.368 -0.0709 -0.3265  0.5029
20954SOL    HW164078   7.747   5.149   7.304  1.7629 -1.1493 -0.7541
20954SOL    HW264079   7.749   5.244   7.422 -1.9356 -0.9173 -0.7659
20955SOL     OW64080   8.037   3.304   6.513 -0.7538 -0.0605  0.3098
20955SOL    HW164081   7.954   3.271   6.478 -0.1275  0.0499 -1.4259
20955SOL    HW264082   8.024   3.308   6.607 -2.2601 -1.3157  0.2059
20956SOL     OW64083   8.082   5.700   6.814 -0.7639  0.1390  0.0380
20956SOL    HW164084   8.162   5.752   6.816 -1.3632  1.2340 -2.0022
20956SOL    HW264085   8.018   5.753   6.862 -0.9377  0.5194 -0.6040
20957SOL     OW64086   7.878   4.419   5.658 -0.1736 -0.3218  0.5399
20957SOL    HW164087   7.906   4.390   5.745 -1.8746  0.7836  1.5106
20957SOL    HW264088   7.787   4.446   5.670 -0.0151  1.2030 -1.2783
20958SOL     OW64089   7.637   4.723   7.004 -0.6543 -0.2052  0.1575
20958SOL    HW164090   7.553   4.680   7.021 -1.0305  0.1923 -0.6206
20958SOL    HW264091   7.698   4.683   7.066 -1.4569 -0.3624  0.8669
20959SOL     OW64092   8.656   5.054   6.703  0.1561  0.4036 -0.0999
20959SOL    HW164093   8.710   5.086   6.775 -0.2544  0.5226  0.1604
20959SOL    HW264094   8.569   5.041   6.742  0.0191  0.1261 -0.4885
20960SOL     OW64095   0.071   4.584   5.791  0.0299  0.3033  0.5442
20960SOL    HW164096   0.136   4.525   5.828  0.6291  0.4778 -0.2049
20960SOL    HW264097  -0.000   4.526   5.762  0.5810 -0.0594 -0.1246
20961SOL     OW64098   8.453   5.406   6.349  0.6779 -0.0813 -0.0263
20961SOL    HW164099   8.523   5.355   6.390  0.4151  0.5468  1.2538
20961SOL    HW264100   8.499   5.467   6.291  1.2681  0.8042  1.3288
20962SOL     OW64101   7.313   4.954   6.529  0.3648 -0.3456  0.1986
20962SOL    HW164102   7.356   4.883   6.576 -0.8318 -1.4244 -0.2845
20962SOL    HW264103   7.354   4.954   6.442  0.9204  0.1043  0.4490
20963SOL     OW64104   8.202   5.523   7.164  0.1489  0.2725 -0.5867
20963SOL    HW164105   8.242   5.446   7.123 -0.2863 -1.1454  1.4657
20963SOL    HW264106   8.118   5.491   7.197  0.4146  1.3085  1.2180
20964SOL     OW64107   0.221   5.876   5.952 -0.1426 -0.5020  0.3985
20964SOL    HW164108   0.249   5.879   6.044 -1.2768 -2.3115  0.8610
20964SOL    HW264109   0.195   5.785   5.938 -2.2109  0.2233 -1.0344
20965SOL     OW64110   7.459   5.539   7.002  0.2830 -0.5194  0.3454
20965SOL    HW164111   7.532   5.486   7.034 -0.4255 -2.2975 -0.7964
20965SOL    HW264112   7.487   5.568   6.915 -0.2480 -0.9981  0.0072
20966SOL     OW64113   8.680   5.031   6.260  0.0805 -0.2068 -0.3219
20966SOL    HW164114   8.597   4.986   6.275  0.4440 -1.4691 -1.7696
20966SOL    HW264115   8.741   4.991   6.322 -0.4610  1.0670  1.0866
20967SOL     OW64116   8.111   5.069   6.914  0.3197 -0.3877  0.3305
20967SOL    HW164117   8.061   5.015   6.975  0.2648 -0.4388  0.2408
20967SOL    HW264118   8.047   5.093   6.846  0.3911 -0.3659  0.2713
20968SOL     OW64119   8.444   5.136   5.452 -0.1574  0.5116  0.1493
20968SOL    HW164120   8.358   5.093   5.452 -0.3451  0.8633  0.9613
20968SOL    HW264121   8.442   5.193   5.530  1.5594 -0.9936  1.3821
20969SOL     OW64122   7.439   4.272   6.401  0.2168  0.0828 -0.2435
20969SOL    HW164123   7.481   4.197   6.360 -0.6306  0.5653 -2.0946
20969SOL    HW264124   7.380   4.235   6.467  1.2020 -0.7359  0.2115
20970SOL     OW64125   8.843   5.271   5.112 -0.1367  0.1566  0.3809
20970SOL    HW164126   8.806   5.205   5.054 -0.5134  0.0567  0.7298
20970SOL    HW264127   8.841   5.230   5.199  0.2911  0.3571  0.4845
20971SOL     OW64128   8.627   4.625   7.027  0.2534 -0.1910  0.1393
20971SOL    HW164129   8.589   4.704   6.988  0.0832  0.3657  1.3929
20971SOL    HW264130   8.714   4.652   7.056  1.0226 -1.0364 -1.2569
20972SOL     OW64131   8.702   4.424   5.744 -0.1763 -0.6705 -0.0929
20972SOL    HW164132   8.642   4.369   5.796 -0.2254 -0.4769  0.0606
20972SOL    HW264133   8.660   4.431   5.659 -0.9395  0.3638  0.3418
20973SOL     OW64134   7.698   4.842   7.340 -1.0358  0.6338  0.6930
20973SOL    HW164135   7.733   4.763   7.299 -0.2162  0.9344  0.7940
20973SOL    HW264136   7.770   4.875   7.394 -0.2714  3.0917 -1.6157
20974SOL     OW64137   8.414   4.969   6.024  0.5685  0.5055 -0.3314
20974SOL    HW164138   8.342   4.910   6.051 -0.8322  2.3968  0.2830
20974SOL    HW264139   8.400   5.048   6.076  1.4304  2.0151 -2.3130
20975SOL     OW64140   8.130   3.807   6.484 -0.6359 -0.0938  0.6379
20975SOL    HW164141   8.136   3.712   6.469 -0.7665  0.0121 -0.1480
20975SOL    HW264142   8.219   3.839   6.467 -0.8845  0.0844 -0.3587
20976SOL     OW64143   8.059   5.365   6.012 -0.0650  0.3047  0.2086
20976SOL    HW164144   8.075   5.366   6.106  0.9704  0.8920  0.0554
20976SOL    HW264145   7.981   5.311   6.000 -0.0618  0.0244  1.3750
20977SOL     OW64146   8.339   4.898   5.655  0.3928  0.6516  0.4599
20977SOL    HW164147   8.317   4.923   5.566 -2.9070 -2.6969  0.0887
20977SOL    HW264148   8.273   4.940   5.709  0.2369 -0.1185  0.8778
20978SOL     OW64149   7.582   4.718   7.838  0.1910  0.4867  0.1200
20978SOL    HW164150   7.503   4.666   7.823  0.9597 -0.1296 -2.2362
20978SOL    HW264151   7.575   4.791   7.776  0.0314  2.2238  2.0729
20979SOL     OW64152   8.423   3.470   6.506  0.1083  0.2812  0.1700
20979SOL    HW164153   8.447   3.387   6.466 -0.2335  0.7101 -0.9794
20979SOL    HW264154   8.497   3.528   6.489 -1.1130  1.2800 -2.4107
20980SOL     OW64155   7.438   4.160   5.282  0.2529 -0.1045  0.1767
20980SOL    HW164156   7.399   4.097   5.221 -0.9705  0.2385  0.5780
20980SOL    HW264157   7.427   4.245   5.239 -1.1828  0.2170  1.1038
20981SOL     OW64158   8.562   4.584   6.633 -0.4015  0.1352 -0.3494
20981SOL    HW164159   8.497   4.542   6.690  0.5993 -1.1987 -0.1465
20981SOL    HW264160   8.535   4.563   6.544 -0.7725  0.4065 -0.3035
20982SOL     OW64161   7.617   3.899   5.580 -0.0203 -0.3064  0.2080
20982SOL    HW164162   7.617   3.991   5.553  1.3932 -0.2553  0.2632
20982SOL    HW264163   7.528   3.882   5.610 -0.3943  0.9470 -0.1355
20983SOL     OW64164   8.818   5.082   5.774 -0.0544 -0.0716  0.2243
20983SOL    HW164165   8.844   5.021   5.705 -0.1969  0.8860 -0.6952
20983SOL    HW264166   8.843   5.168   5.741  0.0377  0.3922  1.4503
20984SOL     OW64167   8.202   4.769   6.875  0.0353  0.2708 -0.5200
20984SOL    HW164168   8.207   4.790   6.782 -0.0787  0.0259 -0.5805
20984SOL    HW264169   8.288   4.733   6.897 -0.3208 -0.7989 -0.8055
20985SOL     OW64170   8.165   4.198   7.350  0.0228 -0.3654 -0.1832
20985SOL    HW164171   8.152   4.139   7.424  1.7614 -1.9276 -1.0387
20985SOL    HW264172   8.112   4.275   7.371 -0.4672 -1.2459  2.0990
20986SOL     OW64173   0.489   4.972   7.414  0.1887  0.3235  0.6491
20986SOL    HW164174   0.453   4.922   7.341  0.8842 -0.4296  0.8025
20986SOL    HW264175   0.574   5.003   7.382  0.3817  0.2105  1.0419
20987SOL     OW64176   7.681   5.864   7.491  0.4543 -0.5052  0.6133
20987SOL    HW164177   7.732   5.917   7.430  0.2534  1.0762  1.7614
20987SOL    HW264178   7.591   5.870   7.458  0.6029 -1.2180  0.0315
20988SOL     OW64179   8.605   4.125   6.527 -0.3678 -0.4511  0.6183
20988SOL    HW164180   8.673   4.154   6.588  0.0166 -1.6267  0.7720
20988SOL    HW264181   8.654   4.090   6.452 -0.8305  0.5745 -0.1896
20989SOL     OW64182   7.615   4.349   6.128 -0.1696 -0.2772  0.3807
20989SOL    HW164183   7.555   4.390   6.066 -0.0728 -0.8820 -0.1147
20989SOL    HW264184   7.652   4.423   6.177 -1.2372  0.1150  0.6373
20990SOL     OW64185   8.586   4.735   5.688  0.2533 -0.2207 -0.2407
20990SOL    HW164186   8.598   4.764   5.778  0.6495  1.4352 -0.7826
20990SOL    HW264187   8.504   4.776   5.660  1.4659  1.5320 -1.4235
20991SOL     OW64188   8.141   5.804   6.320  0.1068 -0.8333 -0.2722
20991SOL    HW164189   8.224   5.759   6.300  1.3427  0.8269  0.8317
20991SOL    HW264190   8.087   5.738   6.362  1.0457 -1.8443 -0.6076
20992SOL     OW64191   8.192   5.100   6.476  0.4395 -0.4068  0.4735
20992SOL    HW164192   8.111   5.052   6.496 -0.5423  0.6066 -0.9360
20992SOL    HW264193   8.261   5.040   6.502 -0.6788 -0.3570  4.0675
20993SOL     OW64194   8.841   4.847   5.631 -0.1856  0.1189  0.2834
20993SOL    HW164195   8.775   4.805   5.686 -1.4392  1.8559  0.2052
20993SOL    HW264196   8.800   4.852   5.544  0.9292 -0.7017 -0.3138
20994SOL     OW64197   7.610   4.736   8.108  0.3294  0.9400  0.1048
20994SOL    HW164198   7.609   4.732   8.013 -0.3847  0.4815  0.1222
20994SOL    HW264199   7.702   4.751   8.131  1.5711 -4.0142 -0.4613
20995SOL     OW64200   7.837   5.389   5.476  0.1415  0.2750  0.2942
20995SOL    HW164201   7.760   5.377   5.531 -0.2912 -0.6626 -0.4797
20995SOL    HW264202   7.897   5.319   5.504 -0.7067 -1.2088 -1.4304
20996SOL     OW64203   8.328   4.771   7.174 -0.1708 -0.1662 -0.1299
20996SOL    HW164204   8.344   4.729   7.259  1.6905  1.1089  0.2098
20996SOL    HW264205   8.267   4.843   7.194  0.5155  0.3338  0.2213
20997SOL     OW64206   7.656   4.646   5.916 -0.4866 -0.2058 -0.4544
20997SOL    HW164207   7.570   4.610   5.934 -0.5444 -0.7513 -1.6676
20997SOL    HW264208   7.659   4.655   5.820  0.4159  0.7846 -0.3623
20998SOL     OW64209   7.558   4.366   7.003 -0.2473  0.6367 -0.2827
20998SOL    HW164210   7.558   4.301   6.932 -0.1761  1.0978 -0.7146
20998SOL    HW264211   7.470   4.404   7.001 -1.6951 -2.1532  2.5450
20999SOL     OW64212   8.054   5.566   6.571 -0.4522 -0.0905 -0.3113
20999SOL    HW164213   8.126   5.509   6.545  0.4093  0.9714 -0.3198
20999SOL    HW264214   8.078   5.597   6.659 -0.6444  0.6612 -0.5129
21000SOL     OW64215   0.074   4.001   6.558  0.2588  0.5375 -0.1544
21000SOL    HW164216   0.096   4.088   6.592 -1.1338  0.6611  0.4771
21000SOL    HW264217   0.021   3.960   6.626  0.7651 -0.7634 -0.5066
21001SOL     OW64218   8.488   3.193   6.431  0.1809 -0.7605 -0.3804
21001SOL    HW164219   8.401   3.179   6.392 -0.4722  3.5131 -0.9157
21001SOL    HW264220   8.547   3.200   6.356  0.0073  1.3310 -0.3767
21002SOL     OW64221   7.466   5.291   6.050 -0.6118  0.1017  0.2520
21002SOL    HW164222   7.491   5.315   6.139  0.0383 -0.3112  0.1915
21002SOL    HW264223   7.408   5.362   6.021 -1.8223 -0.3681  1.4259
21003SOL     OW64224   8.042   5.441   6.880  0.3868  0.1562  0.2213
21003SOL    HW164225   8.126   5.419   6.920  1.1516 -1.2217 -1.9729
21003SOL    HW264226   8.050   5.534   6.858  1.0439  0.2139  0.6630
21004SOL     OW64227   0.356   3.903   5.715 -0.4194  0.9384 -0.0559
21004SOL    HW164228   0.358   3.819   5.762  0.7815  0.8840 -0.1610
21004SOL    HW264229   0.374   3.879   5.624 -0.3459  1.2821 -0.1314
21005SOL     OW64230   7.747   5.032   5.704 -0.4313 -0.3693 -0.2227
21005SOL    HW164231   7.695   5.059   5.780 -1.9073 -1.3407 -0.8482
21005SOL    HW264232   7.682   5.020   5.634  0.8353 -0.0186 -1.4963
21006SOL     OW64233   8.164   5.415   5.619 -0.3222  0.3784 -0.4613
21006SOL    HW164234   8.102   5.469   5.668 -0.5007  1.2259 -1.6036
21006SOL    HW264235   8.110   5.346   5.580 -0.2408 -0.0402  0.1405
21007SOL     OW64236   7.884   4.447   7.548  0.1796  0.2928  0.1472
21007SOL    HW164237   7.950   4.475   7.485 -0.9573 -0.1462 -1.2953
21007SOL    HW264238   7.854   4.362   7.516 -0.9199  0.3736  0.8921
21008SOL     OW64239   7.313   4.259   8.679  0.1322 -0.4978  0.1279
21008SOL    HW164240   7.270   4.332   8.634  3.2056  1.6778  0.4160
21008SOL    HW264241   7.372   4.221   8.614  1.2087 -0.3482  0.9871
21009SOL     OW64242   7.312   4.539   7.723 -0.3902  0.1331 -1.0540
21009SOL    HW164243   7.369   4.463   7.739  0.0392  0.7734  0.6358
21009SOL    HW264244   7.339   4.571   7.637  1.2068 -0.0990 -0.6678
21010SOL     OW64245   8.388   5.425   8.589  0.3030 -0.8429 -0.0083
21010SOL    HW164246   8.343   5.351   8.629  0.3970 -0.7690  0.2353
21010SOL    HW264247   8.317   5.483   8.560  0.2171 -1.2361 -0.6114
21011SOL     OW64248   0.116   5.138   7.957 -0.7381 -0.3421  0.2222
21011SOL    HW164249   0.185   5.150   7.891 -1.0400  1.1331  0.1617
21011SOL    HW264250   0.108   5.042   7.965  0.3860 -0.5412 -0.7320
21012SOL     OW64251   8.443   4.197   8.032 -0.0215  0.3877  0.3112
21012SOL    HW164252   8.462   4.257   8.105  0.0693 -0.6585  1.1646
21012SOL    HW264253   8.356   4.163   8.051 -0.7341  1.3986 -0.9885
21013SOL     OW64254   8.207   5.038   8.368 -0.0611 -0.4116  0.4376
21013SOL    HW164255   8.287   4.987   8.353  0.1994  0.1434 -0.1069
21013SOL    HW264256   8.141   4.997   8.313  0.2949  0.1698 -0.4555
21014SOL     OW64257   8.078   4.462   7.377 -0.2067 -0.6022 -0.0854
21014SOL    HW164258   8.090   4.466   7.282 -1.8596 -1.2537 -0.3606
21014SOL    HW264259   8.155   4.505   7.413 -0.1734  0.8717 -1.7629
21015SOL     OW64260   7.977   5.451   8.400 -0.2131  1.1810 -0.4697
21015SOL    HW164261   7.922   5.495   8.335  0.0190  1.2517 -0.6182
21015SOL    HW264262   8.031   5.391   8.349 -0.0714  1.1955 -0.3360
21016SOL     OW64263   7.947   4.533   0.178 -0.0744 -0.0917 -0.7491
21016SOL    HW164264   7.931   4.475   0.104  1.1309  0.2162 -1.2796
21016SOL    HW264265   8.011   4.487   0.232  0.9808  0.7535 -1.2312
21017SOL     OW64266   7.365   5.799   7.444 -0.3112  0.1692 -0.4702
21017SOL    HW164267   7.360   5.727   7.381  1.9464 -0.2147 -0.3035
21017SOL    HW264268   7.371   5.878   7.390 -0.0954 -0.0120 -0.7146
21018SOL     OW64269   7.440   5.196   8.107  0.3478  0.7147 -0.1313
21018SOL    HW164270   7.473   5.285   8.095  0.9698  0.5231  0.1174
21018SOL    HW264271   7.346   5.203   8.088  0.5607  1.2209 -1.0962
21019SOL     OW64272   7.737   4.786   8.701 -0.0173  0.1051 -0.0386
21019SOL    HW164273   7.741   4.858   8.637  1.3196 -0.1506 -0.2693
21019SOL    HW264274   7.793   4.718   8.664 -1.4284 -1.1763  0.0645
21020SOL     OW64275   7.576   5.839   8.403 -0.7058 -0.1745 -0.5694
21020SOL    HW164276   7.624   5.757   8.412 -0.7637 -0.0036  1.8860
21020SOL    HW264277   7.492   5.824   8.447 -1.7308  0.4840 -2.1897
21021SOL     OW64278   7.936   4.841   7.543  0.3926 -0.4199  0.0115
21021SOL    HW164279   7.885   4.900   7.598 -0.5545  0.0005 -1.2758
21021SOL    HW264280   7.948   4.763   7.597 -0.7175 -0.1161  0.7255
21022SOL     OW64281   8.492   4.025   0.223 -0.5674 -0.0104 -0.2669
21022SOL    HW164282   8.528   4.082   0.155 -0.5923  0.5191  0.1571
21022SOL    HW264283   8.518   4.066   0.305 -3.6099  1.4647  0.1192
21023SOL     OW64284   7.565   4.396   8.024 -0.2596 -0.2051  0.0210
21023SOL    HW164285   7.483   4.398   7.975 -0.4245 -3.0821  0.0213
21023SOL    HW264286   7.633   4.409   7.959 -0.6005 -0.8421 -0.4657
21024SOL     OW64287   7.858   5.030   7.990 -0.1167  0.4257 -0.0672
21024SOL    HW164288   7.950   5.040   7.968  1.1209  0.3931  4.1399
21024SOL    HW264289   7.811   5.072   7.918  3.2475  2.2391 -1.4399
21025SOL     OW64290   0.455   4.760   7.909  0.6413  0.1434  0.4836
21025SOL    HW164291   0.456   4.825   7.840  1.4811 -0.1411  0.2122
21025SOL    HW264292   0.495   4.682   7.870 -1.2968 -0.9106  0.4660
21026SOL     OW64293   7.681   5.217   8.441 -0.4915  0.7225 -0.0976
21026SOL    HW164294   7.731   5.253   8.514 -1.3348  0.5082  0.6095
21026SOL    HW264295   7.735   5.145   8.408  0.5343  1.6963 -0.5924
21027SOL     OW64296   8.473   3.542   8.054 -0.3132 -0.1706  0.2537
21027SOL    HW164297   8.429   3.617   8.015 -1.0211 -0.3744  0.6454
21027SOL    HW264298   8.475   3.561   8.148 -0.5431 -0.6575  0.3619
21028SOL     OW64299   8.161   5.196   8.609  0.7720  0.3008  0.0136
21028SOL    HW164300   8.215   5.166   8.536  0.0808  0.2592 -0.4829
21028SOL    HW264301   8.125   5.116   8.647  0.8598  0.3443  0.1878
21029SOL     OW64302   7.789   4.385   7.797  0.1637 -0.3006 -0.0710
21029SOL    HW164303   7.748   4.298   7.794 -0.1504 -0.1422 -0.4215
21029SOL    HW264304   7.815   4.402   7.707  0.3839 -0.1070  0.0297
21030SOL     OW64305   8.173   4.034   7.994  0.4177 -0.1526 -0.5478
21030SOL    HW164306   8.123   3.954   8.006 -0.0344  0.1528 -0.3563
21030SOL    HW264307   8.177   4.074   8.081 -0.5476  0.7097 -0.8623
21031SOL     OW64308   8.284   4.455   8.566  0.0017 -0.0240 -0.1148
21031SOL    HW164309   8.285   4.360   8.576 -0.0715  0.0570  0.7742
21031SOL    HW264310   8.363   4.484   8.612 -0.0056  0.3506 -0.3333
21032SOL     OW64311   8.225   4.203   0.066 -0.2324  0.2689 -0.2283
21032SOL    HW164312   8.226   4.213  -0.029 -1.3965 -0.5885 -0.3530
21032SOL    HW264313   8.236   4.109   0.081  0.7767  0.4853  0.5326
21033SOL     OW64314   8.520   4.195   7.788 -0.0411 -0.1274 -0.1590
21033SOL    HW164315   8.499   4.185   7.881 -0.5229 -1.4321 -0.3963
21033SOL    HW264316   8.530   4.106   7.756  0.1525  0.3166 -1.3602
21034SOL     OW64317   7.735   4.448   8.340 -0.0102  0.3896 -0.2619
21034SOL    HW164318   7.696   4.378   8.288 -0.5960  0.5855 -0.0913
21034SOL    HW264319   7.667   4.473   8.402  0.3500  0.8113 -0.0311
21035SOL     OW64320   7.374   5.715   8.527 -0.9061  0.5878  0.1269
21035SOL    HW164321   7.389   5.620   8.533  0.3516  0.7037 -0.7648
21035SOL    HW264322   7.338   5.739   8.613 -0.5917 -0.5846  0.6057
21036SOL     OW64323   8.121   4.125   7.738  0.0174  0.0220 -0.1221
21036SOL    HW164324   8.144   4.078   7.818 -0.3411 -0.1520 -0.1169
21036SOL    HW264325   8.041   4.082   7.708 -0.8979  1.2954  0.4306
21037SOL     OW64326   8.541   4.508   7.936 -0.2917  0.0892  0.0341
21037SOL    HW164327   8.446   4.509   7.921 -0.7021  0.1840  2.2758
21037SOL    HW264328   8.571   4.426   7.898 -1.1677  0.2676 -1.1072
21038SOL     OW64329   7.912   3.855   8.455 -0.2317  0.5490 -0.0810
21038SOL    HW164330   7.822   3.849   8.424 -0.1171  0.4594 -0.3945
21038SOL    HW264331   7.963   3.808   8.390 -0.0252  0.0933  0.3941
21039SOL     OW64332   8.051   4.641   7.992  0.4301 -0.0157  0.2046
21039SOL    HW164333   8.118   4.574   7.980 -0.1230 -0.5381 -0.0407
21039SOL    HW264334   8.007   4.646   7.907 -1.0465 -1.0102  0.8803
21040SOL     OW64335   7.675   5.600   8.419  0.1868  0.5341 -0.0239
21040SOL    HW164336   7.743   5.561   8.474  2.7275  2.8387 -1.2500
21040SOL    HW264337   7.681   5.553   8.336 -1.4134 -0.7786  0.5404
21041SOL     OW64338   7.996   4.912   8.248 -0.4498 -0.0774 -0.1824
21041SOL    HW164339   7.945   4.952   8.177 -1.8470  0.5687  1.1367
21041SOL    HW264340   7.976   4.819   8.242  0.2244 -0.1776 -1.2216
21042SOL     OW64341   8.622   5.254   7.360  0.8519 -0.1454  0.1597
21042SOL    HW164342   8.588   5.226   7.445  0.6518  0.4883  0.2886
21042SOL    HW264343   8.709   5.213   7.355  1.2671  0.5924  1.0925
21043SOL     OW64344   7.331   5.596   7.251  0.1663  0.3891  0.1276
21043SOL    HW164345   7.372   5.581   7.166  0.2998  0.4047  0.1897
21043SOL    HW264346   7.248   5.547   7.247  1.5480 -2.2235  1.1249
21044SOL     OW64347   6.986   5.567   8.774 -0.3196  0.1984  0.6811
21044SOL    HW164348   6.967   5.533   8.686  0.2816  0.1242  0.5756
21044SOL    HW264349   6.921   5.636   8.787  0.3516  1.0742 -0.3341
21045SOL     OW64350   8.151   5.282   8.258 -0.0788 -0.0507 -0.8279
21045SOL    HW164351   8.244   5.303   8.245 -0.4477  2.8703  0.5406
21045SOL    HW264352   8.153   5.197   8.302  1.9219 -0.2539 -1.1967
21046SOL     OW64353   7.914   4.650   8.220 -0.1641  0.5302  0.5177
21046SOL    HW164354   7.860   4.572   8.230 -2.3409  1.8352 -0.2452
21046SOL    HW264355   7.955   4.641   8.134  0.4364 -0.2079  0.8669
21047SOL     OW64356   8.653   3.739   6.895  0.0600 -0.1767 -0.4730
21047SOL    HW164357   8.586   3.761   6.959  1.9506 -3.0007  2.7920
21047SOL    HW264358   8.621   3.660   6.852  1.5950 -2.3375  2.0435
21048SOL     OW64359   8.416   5.326   8.239 -0.1400 -0.2301  0.1574
21048SOL    HW164360   8.497   5.371   8.263  1.4027 -1.1540 -2.8269
21048SOL    HW264361   8.439   5.234   8.237 -1.0410 -0.4625 -1.3625
21049SOL     OW64362   8.087   5.367   7.990  0.0264  0.5673  0.8995
21049SOL    HW164363   8.175   5.356   7.952 -0.3289 -1.3791  0.5532
21049SOL    HW264364   8.094   5.329   8.077 -1.0680 -2.0343 -0.0489
21050SOL     OW64365   8.210   4.196   8.638 -0.0561 -0.3458  0.0424
21050SOL    HW164366   8.219   4.108   8.602 -0.4118 -0.4974  0.3310
21050SOL    HW264367   8.121   4.223   8.615  0.0185 -0.0973  0.0378
21051SOL     OW64368   7.869   3.785   7.522  0.1151 -0.0362  0.4116
21051SOL    HW164369   7.776   3.787   7.502  0.5552  0.4249 -1.8310
21051SOL    HW264370   7.887   3.694   7.547 -0.8143 -0.2621  0.2714
21052SOL     OW64371   0.166   4.543   7.769  0.8411  0.4161 -0.2536
21052SOL    HW164372   0.112   4.464   7.772  0.2081  0.8545  0.4583
21052SOL    HW264373   0.251   4.515   7.802  0.1836  0.3406  1.4626
21053SOL     OW64374   7.844   4.157   7.391  0.1428 -0.3287 -0.7403
21053SOL    HW164375   7.805   4.076   7.360 -3.2509  0.8170  0.0850
21053SOL    HW264376   7.829   4.220   7.320  1.9715 -0.1587 -1.0306
21054SOL     OW64377   8.074   3.711   7.839  0.4511  0.2738 -0.0895
21054SOL    HW164378   8.042   3.627   7.872 -1.0555 -0.1044 -2.3097
21054SOL    HW264379   7.997   3.766   7.834  0.7487  0.5810 -2.0561
21055SOL     OW64380   8.296   5.546   7.736 -0.4666 -0.4693 -0.8302
21055SOL    HW164381   8.204   5.525   7.722 -0.5305  0.9745 -3.1160
21055SOL    HW264382   8.303   5.639   7.715  1.1764 -0.0073  1.3710
21056SOL     OW64383   8.553   4.927   8.556 -0.0204  0.4532 -0.0771
21056SOL    HW164384   8.506   4.880   8.487 -0.0391  0.9287 -0.3983
21056SOL    HW264385   8.595   5.000   8.510  1.5550 -0.3129  0.0846
21057SOL     OW64386   8.122   5.053   7.936 -0.0688  0.0450  0.5004
21057SOL    HW164387   8.180   4.987   7.975  0.3648 -0.9614 -1.6815
21057SOL    HW264388   8.181   5.118   7.898 -0.4885  1.4367  2.1082
21058SOL     OW64389   8.342   3.989   7.407 -0.1399  1.0422 -0.3298
21058SOL    HW164390   8.257   3.947   7.418  0.1066  1.0368  1.8669
21058SOL    HW264391   8.323   4.069   7.359 -1.2552  0.6629 -0.5528
21059SOL     OW64392   7.614   3.956   8.645 -0.0143 -0.1259 -0.0774
21059SOL    HW164393   7.605   3.991   8.733 -0.2627  1.4573 -0.7091
21059SOL    HW264394   7.575   4.022   8.588  0.7325 -0.8105 -1.4459
21060SOL     OW64395   8.324   3.750   7.951  0.0928  0.5934  0.2871
21060SOL    HW164396   8.302   3.836   7.987 -0.0659  0.3588  0.7494
21060SOL    HW264397   8.264   3.739   7.878 -0.8763  0.2494  1.1253
21061SOL     OW64398   8.161   3.915   8.580 -0.7395 -0.3226 -0.3015
21061SOL    HW164399   8.087   3.889   8.526 -0.4308  0.7112 -1.2791
21061SOL    HW264400   8.236   3.870   8.541 -0.8385 -1.4949  0.7807
21062SOL     OW64401   7.487   5.530   7.869 -0.5785  0.0790 -0.5668
21062SOL    HW164402   7.494   5.609   7.816  0.4159  0.6979  0.4379
21062SOL    HW264403   7.456   5.462   7.809  0.7744  0.6857 -2.0040
21063SOL     OW64404   0.276   3.704   7.165  0.5116 -1.4413 -0.1953
21063SOL    HW164405   0.232   3.716   7.249 -0.3177  2.0687 -1.0111
21063SOL    HW264406   0.354   3.759   7.170  1.7901 -3.0805 -0.9127
21064SOL     OW64407   7.850   3.903   7.891 -0.0383  0.1051 -0.3141
21064SOL    HW164408   7.782   3.849   7.851  0.4592  0.0619 -1.1517
21064SOL    HW264409   7.861   3.976   7.830 -0.2144  0.7738  0.4539
21065SOL     OW64410   8.565   5.099   8.282  0.3790  0.2699  0.0371
21065SOL    HW164411   8.643   5.148   8.306  0.9520 -0.6903  0.1790
21065SOL    HW264412   8.592   5.044   8.209  0.3205 -1.3050  1.1601
21066SOL     OW64413   8.638   4.383   7.637 -0.0294 -0.2335  0.6826
21066SOL    HW164414   8.599   4.369   7.551  1.5986 -0.6513 -0.0327
21066SOL    HW264415   8.605   4.311   7.690  0.8487 -1.4087 -0.3076
21067SOL     OW64416   8.569   4.420   8.624 -0.3378 -0.1258 -0.0996
21067SOL    HW164417   8.604   4.334   8.599 -1.5752 -0.7295  0.1326
21067SOL    HW264418   8.640   4.481   8.607  0.8809 -1.3101  0.5417
21068SOL     OW64419   0.114   4.000   8.704 -0.1173 -0.4725 -0.1772
21068SOL    HW164420   0.069   4.047   8.774 -0.7552 -1.0701 -0.1768
21068SOL    HW264421   0.201   4.038   8.702 -0.6924  0.8727 -0.3341
21069SOL     OW64422   7.497   5.056   8.761 -0.3400  0.3767  0.0132
21069SOL    HW164423   7.556   5.064   8.836 -0.8225 -0.3529  0.4801
21069SOL    HW264424   7.410   5.072   8.797 -0.7986 -1.7909  0.0184
21070SOL     OW64425   8.172   4.606   8.306 -0.8339  0.1947  0.8310
21070SOL    HW164426   8.199   4.521   8.272 -0.2711  0.7069 -0.0565
21070SOL    HW264427   8.081   4.615   8.280 -0.4352  0.5476 -0.5437
21071SOL     OW64428   7.952   4.245   8.559  0.2525 -0.1720 -0.1106
21071SOL    HW164429   7.905   4.167   8.588  0.3954 -0.3779 -0.4201
21071SOL    HW264430   7.930   4.254   8.466  1.8993 -1.0972 -0.6457
21072SOL     OW64431   0.028   4.761   7.905 -0.1367  0.0509  0.1993
21072SOL    HW164432   0.083   4.683   7.907 -1.6881 -1.1797 -1.5776
21072SOL    HW264433   0.062   4.812   7.832  0.1717  0.4987  0.6510
21073SOL     OW64434   8.557   5.252   8.016 -0.3314 -0.4193 -0.2388
21073SOL    HW164435   8.503   5.286   8.087  0.5214 -1.6139  1.0423
21073SOL    HW264436   8.647   5.273   8.043 -0.0550  0.7869 -1.9128
21074SOL     OW64437   7.845   5.294   8.636  0.2377  0.0882 -0.0371
21074SOL    HW164438   7.924   5.328   8.594  1.1754 -0.3362  1.3316
21074SOL    HW264439   7.816   5.365   8.693 -0.5042  0.3205 -0.6910
21075SOL     OW64440   8.374   4.814   8.368 -0.1835  0.0429 -0.1176
21075SOL    HW164441   8.302   4.756   8.342  0.8592 -1.9748  1.2620
21075SOL    HW264442   8.437   4.809   8.296 -0.0606 -0.6466  0.0301
21076SOL     OW64443   0.048   4.684   8.358  0.4892 -0.1477 -0.1546
21076SOL    HW164444   0.049   4.773   8.321  1.3727  0.5499  1.4033
21076SOL    HW264445   0.089   4.630   8.291  0.8858  0.8231 -0.7305
21077SOL     OW64446   8.702   4.093   7.429  0.3559  0.0197 -0.4529
21077SOL    HW164447   8.744   4.011   7.403  0.4243  0.2432 -1.0580
21077SOL    HW264448   8.650   4.070   7.506  1.3100 -0.3355  0.1025
21078SOL     OW64449   7.309   3.907   8.362 -0.0776 -0.6252  0.4063
21078SOL    HW164450   7.249   3.881   8.432  0.0884 -0.3888  0.6401
21078SOL    HW264451   7.337   3.825   8.321 -0.1450 -0.7668  0.6425
21079SOL     OW64452   7.458   4.762   8.663  0.0902  0.0689  0.0856
21079SOL    HW164453   7.456   4.855   8.641  2.1283 -0.3472 -2.2391
21079SOL    HW264454   7.545   4.748   8.700  0.5625 -1.2070 -1.3895
21080SOL     OW64455   8.221   4.084   8.275  0.1374  0.0985 -0.6883
21080SOL    HW164456   8.293   4.035   8.315  0.9289  1.1591 -0.7819
21080SOL    HW264457   8.146   4.065   8.331  0.5160 -0.8803 -0.4827
21081SOL     OW64458   7.726   3.751   8.289 -0.2701 -0.5723  0.3186
21081SOL    HW164459   7.671   3.704   8.226  0.8203 -0.5662 -0.6693
21081SOL    HW264460   7.767   3.681   8.340 -1.0301 -0.5821  0.9301
21082SOL     OW64461   0.660   4.411   7.658 -0.2163  0.0273 -0.0747
21082SOL    HW164462   0.647   4.439   7.568 -1.0910 -1.5234 -0.4607
21082SOL    HW264463   0.658   4.315   7.654 -1.5027 -0.0770  1.7425
21083SOL     OW64464   8.633   4.188   8.528 -0.2015  0.1512  0.0657
21083SOL    HW164465   8.557   4.147   8.487 -0.5704  1.4378 -0.6132
21083SOL    HW264466   8.694   4.204   8.456  0.1283  0.3743  0.3880
21084SOL     OW64467   8.823   4.339   7.331  0.0479  0.1978  0.1353
21084SOL    HW164468   8.800   4.259   7.379  1.0207 -0.8740 -1.0996
21084SOL    HW264469   8.767   4.407   7.369 -1.2951 -1.2018  0.7804
21085SOL     OW64470   8.507   4.720   8.104  0.4056  0.0288  0.0582
21085SOL    HW164471   8.534   4.650   8.044 -0.5933  1.6820 -2.5310
21085SOL    HW264472   8.583   4.779   8.106 -0.6055  1.5861 -2.3203
21086SOL     OW64473   7.888   4.588   8.584  0.4178  0.0940 -0.1335
21086SOL    HW164474   7.889   4.514   8.524  1.1940 -0.3790  0.4284
21086SOL    HW264475   7.976   4.625   8.577  0.3700  0.3099  0.3642
21087SOL     OW64476   8.140   4.690   8.556  0.4846  0.1443  0.0818
21087SOL    HW164477   8.174   4.614   8.603 -0.3348 -0.9789 -1.0522
21087SOL    HW264478   8.161   4.672   8.464 -1.1333  0.4902 -0.3879
21088SOL     OW64479   8.482   4.417   0.047 -0.0423  0.0435  0.1104
21088SOL    HW164480   8.523   4.435  -0.037 -0.9367  2.3647  0.1120
21088SOL    HW264481   8.431   4.337   0.032 -1.0833  1.0119 -1.9244
21089SOL     OW64482   7.507   5.105   7.611  0.2259 -0.3212  0.5365
21089SOL    HW164483   7.428   5.139   7.569  1.1795  1.2256 -0.1297
21089SOL    HW264484   7.511   5.013   7.585 -0.3379  0.0654 -1.0312
21090SOL     OW64485   7.792   5.941   7.940  0.0620 -0.1118 -0.0890
21090SOL    HW164486   7.771   5.918   8.030 -2.4853 -0.6978 -0.7433
21090SOL    HW264487   7.735   6.016   7.921  1.8239  1.1416 -0.7359
21091SOL     OW64488   8.144   5.581   8.581  0.6000  0.2795 -0.8002
21091SOL    HW164489   8.170   5.655   8.525  1.4880 -0.6137 -1.6027
21091SOL    HW264490   8.097   5.522   8.523  2.8749 -1.4128 -1.0853
21092SOL     OW64491   8.757   4.604   8.561  0.5167 -0.3871  1.0130
21092SOL    HW164492   8.775   4.688   8.603 -1.8499  0.7383 -0.0530
21092SOL    HW264493   8.792   4.613   8.472 -1.9986  0.5504  0.0340
21093SOL     OW64494   7.491   4.359   0.025 -0.0212  0.4702 -0.0362
21093SOL    HW164495   7.410   4.341  -0.023 -0.5310  3.1493 -0.3281
21093SOL    HW264496   7.556   4.375  -0.043 -0.0746  1.5710  0.1615
21094SOL     OW64497   7.866   4.147   8.284  0.1311 -0.5415  0.6546
21094SOL    HW164498   7.777   4.182   8.278  0.8646  1.5280  0.8739
21094SOL    HW264499   7.857   4.053   8.267 -1.9125 -0.1740 -0.5862
21095SOL     OW64500   7.888   4.315   8.847  0.2327 -0.5788  0.3989
21095SOL    HW164501   7.803   4.358   8.863  0.9473  1.3378 -0.5713
21095SOL    HW264502   7.887   4.296   8.753  1.4533  0.9221  0.0435
21096SOL     OW64503   8.319   5.277   0.146 -0.2126  0.3139  0.0220
21096SOL    HW164504   8.375   5.202   0.125 -0.4782  0.0938  0.0823
21096SOL    HW264505   8.249   5.273   0.081  0.9350  1.8212 -1.4067
21097SOL     OW64506   7.879   4.025   7.638 -0.1778  0.1959 -0.4671
21097SOL    HW164507   7.857   4.081   7.563 -1.7517 -0.3620 -0.4640
21097SOL    HW264508   7.895   3.939   7.599 -2.3426 -0.4391 -0.1186
21098SOL     OW64509   7.931   4.818   0.051  0.2594  0.4901 -0.0242
21098SOL    HW164510   7.869   4.799  -0.019 -0.4630  1.2963  0.3747
21098SOL    HW264511   7.886   4.791   0.132  0.7648  0.3019  0.2011
21099SOL     OW64512   8.834   4.613   8.815  0.4174  0.2201  0.1135
21099SOL    HW164513   8.803   4.587   8.728  2.2490  0.5204 -0.6537
21099SOL    HW264514   8.912   4.665   8.799  0.6418  0.5130  1.9438
21100SOL     OW64515   0.312   4.315   7.521 -0.1066  0.3251  0.0786
21100SOL    HW164516   0.391   4.272   7.490 -1.4701 -0.6608 -2.2409
21100SOL    HW264517   0.290   4.270   7.603  0.2405 -1.2596 -0.6839
21101SOL     OW64518   8.716   5.594   8.194  0.0375  0.3605  0.1046
21101SOL    HW164519   8.795   5.553   8.161 -1.2048 -1.8124 -0.3926
21101SOL    HW264520   8.683   5.645   8.121  1.2689  1.8008  0.5175
21102SOL     OW64521   7.480   4.502   8.491  0.2091  0.1786 -0.2799
21102SOL    HW164522   7.454   4.565   8.558 -0.6359 -1.3981  0.9189
21102SOL    HW264523   7.450   4.541   8.409 -0.0060  1.4704  0.3861
21103SOL     OW64524   8.803   5.306   8.074 -0.3328 -0.2078  0.1739
21103SOL    HW164525   8.874   5.341   8.127 -0.7986 -0.2495  0.8289
21103SOL    HW264526   8.846   5.243   8.016 -0.1046 -1.8942  2.0679
21104SOL     OW64527   8.742   4.426   8.206 -0.6294  0.2700  0.3728
21104SOL    HW164528   8.754   4.476   8.125 -0.3631 -1.3698 -0.6451
21104SOL    HW264529   8.650   4.439   8.228 -1.0737 -0.3343 -0.9769
21105SOL     OW64530   7.712   5.246   7.737  0.2682 -0.9788 -0.4919
21105SOL    HW164531   7.638   5.193   7.710 -0.0518 -0.5429 -0.4865
21105SOL    HW264532   7.715   5.318   7.674  0.0421 -0.4226  0.1128
21106SOL     OW64533   7.642   4.113   7.839  0.3643 -0.0341 -0.5982
21106SOL    HW164534   7.637   4.071   7.924  0.6578 -0.5126 -0.8118
21106SOL    HW264535   7.693   4.052   7.785 -1.3022 -0.5703 -1.6223
21107SOL     OW64536   8.679   4.966   7.668 -0.1707  0.5540 -0.1092
21107SOL    HW164537   8.646   5.047   7.630 -3.5431 -0.7150 -0.2241
21107SOL    HW264538   8.601   4.923   7.704  1.9396 -1.1498  2.8758
21108SOL     OW64539   8.474   5.640   8.756 -0.4521 -0.7110  0.1841
21108SOL    HW164540   8.463   5.701   8.683  0.0661  0.1222  0.7827
21108SOL    HW264541   8.453   5.554   8.719  0.9661 -0.4817 -1.2816
21109SOL     OW64542   8.314   4.357   7.698 -0.1148  0.2596  0.3682
21109SOL    HW164543   8.379   4.287   7.707  0.1932  0.5710  0.6155
21109SOL    HW264544   8.231   4.311   7.687  0.3455 -0.1671 -1.7861
21110SOL     OW64545   8.737   4.872   8.096  0.0961 -0.9515  0.8975
21110SOL    HW164546   8.810   4.901   8.151  1.0614 -0.5792 -0.5442
21110SOL    HW264547   8.778   4.823   8.024 -1.0844 -0.8631  0.1296
21111SOL     OW64548   8.451   3.969   8.382 -0.5056  0.0153 -0.1404
21111SOL    HW164549   8.445   3.893   8.441  1.2858  0.4442  0.6809
21111SOL    HW264550   8.531   3.952   8.331 -0.8699  0.6904 -0.9489
21112SOL     OW64551   7.724   5.045   8.224 -0.1817  0.5068  0.6326
21112SOL    HW164552   7.638   5.058   8.184  0.4604 -0.8405 -1.3910
21112SOL    HW264553   7.786   5.063   8.153  1.2240  1.0694  1.9311
21113SOL     OW64554   7.626   5.660   8.081  0.0594  0.0157  0.2745
21113SOL    HW164555   7.583   5.605   8.015  1.9037 -0.5412 -0.5161
21113SOL    HW264556   7.678   5.599   8.133 -0.1368  0.6605  1.2472
21114SOL     OW64557   7.850   4.140   0.288 -0.3123  0.2257 -0.0927
21114SOL    HW164558   7.854   4.093   0.371  1.4277 -2.0511 -1.3624
21114SOL    HW264559   7.871   4.231   0.311 -0.7874 -0.1501  2.0496
21115SOL     OW64560   7.780   4.333   7.162  0.0062  0.2976  0.0450
21115SOL    HW164561   7.840   4.306   7.093  0.4441  0.9895  0.1337
21115SOL    HW264562   7.694   4.338   7.120  0.0230 -0.5849 -0.1136
21116SOL     OW64563   7.275   4.034   7.666 -0.7530  0.0151 -0.2647
21116SOL    HW164564   7.181   4.043   7.681 -0.4964  0.8788  0.9925
21116SOL    HW264565   7.291   4.077   7.583 -1.1774  1.8198  0.5404
21117SOL     OW64566   8.740   4.614   7.495 -0.0776  1.0590 -0.0972
21117SOL    HW164567   8.658   4.663   7.490 -0.4383  0.6501  1.3541
21117SOL    HW264568   8.729   4.555   7.570  1.4700  0.8508  0.0061
21118SOL     OW64569   8.530   5.112   0.075  0.1973 -0.0974  0.3892
21118SOL    HW164570   8.529   5.020   0.047 -0.6717  0.6456 -2.2592
21118SOL    HW264571   8.605   5.150   0.029 -1.2731  1.1836 -1.0440
21119SOL     OW64572   7.451   5.454   8.596 -1.0847  0.3362 -0.1516
21119SOL    HW164573   7.391   5.411   8.658 -0.2831  0.9583  1.0778
21119SOL    HW264574   7.492   5.381   8.549 -2.5562 -0.1122 -0.8218
21120SOL     OW64575   8.504   3.761   7.314  0.1964 -0.2519  0.4898
21120SOL    HW164576   8.545   3.724   7.393 -2.7953 -1.0452  1.8335
21120SOL    HW264577   8.444   3.828   7.348 -1.0834 -0.5278 -1.0820
21121SOL     OW64578   8.089   4.349   8.196 -0.1328 -0.3818  0.0323
21121SOL    HW164579   8.122   4.265   8.228 -0.2458 -1.6177 -2.7132
21121SOL    HW264580   7.996   4.333   8.178  0.0733 -0.0445 -1.4952
21122SOL     OW64581   8.423   4.893   7.762 -0.5565 -0.0130  0.0682
21122SOL    HW164582   8.358   4.956   7.730 -1.6241 -1.0958  0.0273
21122SOL    HW264583   8.390   4.867   7.847  1.1011  1.1739  1.1307
21123SOL     OW64584   8.046   6.206   8.173 -0.0848 -0.1469 -0.5899
21123SOL    HW164585   8.135   6.216   8.140  0.0763  0.1584 -0.0757
21123SOL    HW264586   8.046   6.120   8.215  0.8364  1.0082  1.9852
21124SOL     OW64587   8.253   4.459   7.938  0.1767 -0.5492  0.0756
21124SOL    HW164588   8.211   4.379   7.969 -1.0847  0.4570  1.0759
21124SOL    HW264589   8.274   4.441   7.846 -1.5715 -1.4733 -0.1925
21125SOL     OW64590   0.094   4.749   7.402 -0.2189  0.0353  0.4189
21125SOL    HW164591   0.027   4.687   7.430  1.4719 -1.9869  0.2598
21125SOL    HW264592   0.176   4.701   7.411  0.9255  1.1605 -2.7322
21126SOL     OW64593   7.472   5.067   8.498  0.2754 -0.1973  0.6798
21126SOL    HW164594   7.491   5.073   8.592 -0.9562  1.3417  0.8742
21126SOL    HW264595   7.547   5.108   8.455  0.5284 -0.2947  1.0264
21127SOL     OW64596   7.500   4.148   8.485 -0.0516  0.0827 -0.0391
21127SOL    HW164597   7.442   4.092   8.434 -0.9028  0.1644  0.7879
21127SOL    HW264598   7.536   4.211   8.422 -1.9388  0.8942 -0.3817
21128SOL     OW64599   7.676   4.424   8.683  0.5234 -0.3745 -0.0413
21128SOL    HW164600   7.599   4.447   8.632 -1.9111 -2.4409  2.3635
21128SOL    HW264601   7.737   4.496   8.670 -1.5807  1.1096 -2.4923
21129SOL     OW64602   7.799   5.370   7.988  0.6014 -0.2195 -0.3361
21129SOL    HW164603   7.891   5.346   8.002  0.5317 -0.2467  0.0965
21129SOL    HW264604   7.783   5.351   7.896  1.2845  0.6322 -0.6503
21130SOL     OW64605   0.124   3.966   8.415  0.8235 -0.0462 -0.1953
21130SOL    HW164606   0.048   4.008   8.375 -1.4046 -2.7038  0.8977
21130SOL    HW264607   0.134   4.009   8.500 -0.3823 -0.5618  0.2319
21131SOL     OW64608   8.572   3.859   8.755  0.1152  0.3318  0.1874
21131SOL    HW164609   8.605   3.792   8.696 -0.5848  2.1740 -2.4585
21131SOL    HW264610   8.529   3.810   8.825 -0.2397 -1.9897 -1.5362
21132SOL     OW64611   7.883   4.679   7.759  0.0997 -0.1976 -0.0094
21132SOL    HW164612   7.800   4.689   7.806 -1.1350 -0.6432 -1.9909
21132SOL    HW264613   7.874   4.598   7.710  1.0964  0.5167 -1.4548
21133SOL     OW64614   8.366   5.855   8.539  0.5842 -0.0906 -0.1342
21133SOL    HW164615   8.348   5.949   8.531  0.1501 -0.1219  0.4014
21133SOL    HW264616   8.339   5.819   8.455 -0.1362  0.1368 -0.0118
21134SOL     OW64617   0.046   3.998   7.084 -0.4708  0.7947  0.3491
21134SOL    HW164618   0.130   3.971   7.121 -0.4839  0.2823  0.0127
21134SOL    HW264619   0.055   4.092   7.071 -1.0910  1.3699  3.2966
21135SOL     OW64620   7.803   4.929   8.473 -0.3573 -0.2338 -0.7463
21135SOL    HW164621   7.891   4.931   8.437 -0.2985  2.4963 -0.6371
21135SOL    HW264622   7.746   4.930   8.396 -0.2656  0.1087 -0.8117
21136SOL     OW64623   8.069   5.159   7.364 -0.1132  0.0444 -0.3781
21136SOL    HW164624   8.117   5.221   7.418 -0.1661 -1.5772  1.6377
21136SOL    HW264625   7.978   5.190   7.367  0.2542  1.3631 -1.6625
21137SOL     OW64626   7.562   6.595   8.757  0.5833 -0.4177 -0.3490
21137SOL    HW164627   7.612   6.609   8.676  1.4203 -1.6650 -0.0643
21137SOL    HW264628   7.582   6.671   8.811  0.3939  0.1916 -1.1047
21138SOL     OW64629   7.758   5.633   0.421  0.4079  0.1303  0.1391
21138SOL    HW164630   7.776   5.685   0.499  0.2043 -0.4537  0.5799
21138SOL    HW264631   7.800   5.548   0.438  0.4903  0.0472 -0.4464
21139SOL     OW64632   7.388   5.908   0.097 -0.1056 -0.1802  0.2935
21139SOL    HW164633   7.311   5.858   0.072  0.0599  0.0223 -0.6648
21139SOL    HW264634   7.462   5.849   0.077  0.0414  0.0529  0.1516
21140SOL     OW64635   8.032   7.003   0.644 -0.3043  0.2349 -0.5253
21140SOL    HW164636   8.024   6.908   0.652 -1.9921  0.3338 -0.7186
21140SOL    HW264637   7.946   7.037   0.666  0.3904  1.7742  0.0049
21141SOL     OW64638   8.633   7.445   0.814  0.0531 -0.0741  0.0299
21141SOL    HW164639   8.655   7.392   0.890  1.2294  0.2851 -0.0374
21141SOL    HW264640   8.560   7.399   0.772 -0.9888  0.0023  1.6541
21142SOL     OW64641   8.598   6.584   0.263 -0.1108  0.5108  0.1915
21142SOL    HW164642   8.517   6.625   0.293  0.1038  1.7333 -0.8466
21142SOL    HW264643   8.573   6.535   0.185 -0.4188 -1.6550  1.5590
21143SOL     OW64644   8.203   6.903   0.864 -0.4824 -0.1633  0.5608
21143SOL    HW164645   8.121   6.925   0.909 -0.8292 -2.2381  1.0484
21143SOL    HW264646   8.179   6.833   0.804  0.5746  0.5804 -0.7928
21144SOL     OW64647   8.153   6.284   1.198 -0.3944 -0.4478 -0.3289
21144SOL    HW164648   8.089   6.237   1.252 -0.7594 -0.0051 -0.3753
21144SOL    HW264649   8.144   6.376   1.224 -0.6275 -0.2174 -1.1937
21145SOL     OW64650   7.940   6.585   0.302 -0.2838  0.1944 -0.2712
21145SOL    HW164651   8.008   6.525   0.273 -1.2597 -0.9080 -0.3503
21145SOL    HW264652   7.957   6.666   0.254  0.4993 -0.3203 -0.8836
21146SOL     OW64653   8.224   6.475   1.476  0.1541 -0.2460 -0.4451
21146SOL    HW164654   8.318   6.459   1.472  0.1105 -0.5023 -0.4619
21146SOL    HW264655   8.202   6.464   1.569 -0.0343 -1.2308 -0.5912
21147SOL     OW64656   7.294   7.082   0.757  0.2095  0.0178 -0.3463
21147SOL    HW164657   7.367   7.111   0.812 -0.3423  1.0065 -0.1177
21147SOL    HW264658   7.294   6.986   0.766  2.0636 -0.1070 -1.1038
21148SOL     OW64659   7.727   6.159   0.975 -0.2442  0.9971 -0.8182
21148SOL    HW164660   7.810   6.112   0.986  0.5430  2.3751 -0.7050
21148SOL    HW264661   7.666   6.113   1.033  0.4721  0.0699 -0.7723
21149SOL     OW64662   7.568   7.325   0.277  0.3458 -0.1306 -0.1372
21149SOL    HW164663   7.600   7.239   0.304 -0.4438 -0.9323 -1.6407
21149SOL    HW264664   7.576   7.325   0.182 -1.7729  0.5544 -0.3842
21150SOL     OW64665   0.051   7.211   2.075  0.3895  0.2144  0.9069
21150SOL    HW164666  -0.009   7.276   2.038  0.9440  0.3809  0.2710
21150SOL    HW264667  -0.005   7.151   2.123 -0.3614 -0.0322 -0.2423
21151SOL     OW64668   7.775   6.638   0.527  0.1795  0.0125  0.1164
21151SOL    HW164669   7.833   6.625   0.452 -0.2397 -1.5716  0.0370
21151SOL    HW264670   7.734   6.553   0.540 -1.3685  0.8348  0.8121
21152SOL     OW64671   7.939   6.533   0.880 -0.1809  0.3605  0.1120
21152SOL    HW164672   7.873   6.478   0.922  1.5079 -3.2298 -1.5641
21152SOL    HW264673   8.010   6.539   0.944  0.0666 -0.3736 -0.0818
21153SOL     OW64674   7.834   7.581   1.224 -0.4499 -0.5253 -0.5227
21153SOL    HW164675   7.749   7.569   1.181 -0.0810  0.6925 -1.6404
21153SOL    HW264676   7.819   7.650   1.288  0.0349  0.8825 -1.8568
21154SOL     OW64677   7.876   6.470   8.591  0.1734 -0.3055  0.3399
21154SOL    HW164678   7.822   6.418   8.532  3.2397  0.4385 -3.5172
21154SOL    HW264679   7.841   6.559   8.584 -0.7815 -0.5568  1.4857
21155SOL     OW64680   7.185   6.169   8.309  0.8790  0.4917 -0.3657
21155SOL    HW164681   7.233   6.142   8.387 -1.7986 -2.2114  0.5577
21155SOL    HW264682   7.166   6.087   8.263 -1.2944  1.5647 -1.5454
21156SOL     OW64683   7.155   7.585   8.759 -0.1887  0.4178 -0.3032
21156SOL    HW164684   7.075   7.540   8.785 -0.5684  1.2320 -0.0396
21156SOL    HW264685   7.165   7.565   8.666 -1.2400  1.1045 -0.5785
21157SOL     OW64686   0.349   6.558   0.698  0.1986  0.1824  0.0304
21157SOL    HW164687   0.324   6.473   0.662  1.2061  0.6127 -1.8119
21157SOL    HW264688   0.278   6.616   0.673 -0.1032  0.0602  0.5887
21158SOL     OW64689   7.268   5.799   1.367 -0.2241  0.2550  0.1674
21158SOL    HW164690   7.335   5.738   1.401  1.3285  0.3332 -2.4963
21158SOL    HW264691   7.317   5.859   1.311 -2.5612  0.0160 -2.3224
21159SOL     OW64692   8.451   7.253   0.697 -0.1974  0.1588 -0.4153
21159SOL    HW164693   8.381   7.203   0.655 -0.6146  0.2517  0.1675
21159SOL    HW264694   8.525   7.246   0.636 -0.6031 -0.2266 -0.8683
21160SOL     OW64695   7.991   6.571   1.383 -0.1933  0.0528  0.1942
21160SOL    HW164696   7.945   6.494   1.417  1.2291 -0.0165  2.1721
21160SOL    HW264697   8.084   6.550   1.395  0.2265  2.1160  0.9823
21161SOL     OW64698   8.075   5.946   0.113  0.2057  0.3577  0.4755
21161SOL    HW164699   8.015   5.874   0.133  0.4928 -0.1743 -0.5305
21161SOL    HW264700   8.051   6.015   0.175  0.8235 -1.0707  2.4063
21162SOL     OW64701   7.572   6.548   0.922  0.0125  0.4668 -0.7715
21162SOL    HW164702   7.638   6.520   0.987 -1.5099  0.2721  0.7738
21162SOL    HW264703   7.556   6.640   0.943 -0.9075  0.2493 -0.4622
21163SOL     OW64704   8.801   7.721   1.817 -0.0323  0.0160 -0.4393
21163SOL    HW164705   8.825   7.628   1.815  0.8016  0.1868  0.4066
21163SOL    HW264706   8.808   7.745   1.909 -0.4348  0.8758 -0.6231
21164SOL     OW64707   7.556   5.678   1.762 -0.0507 -0.0691 -0.5924
21164SOL    HW164708   7.646   5.709   1.747 -0.2987  1.0492  0.1001
21164SOL    HW264709   7.501   5.755   1.747 -0.8269 -0.5286 -0.1748
21165SOL     OW64710   7.482   6.126   8.727 -0.3264 -0.6152  0.5823
21165SOL    HW164711   7.496   6.062   8.797 -0.8814 -0.1332  1.1447
21165SOL    HW264712   7.459   6.206   8.773 -1.6400 -0.5355 -0.1802
21166SOL     OW64713   8.483   5.804   0.991  0.1626 -0.2155  0.5681
21166SOL    HW164714   8.413   5.745   0.963  0.4487 -0.2901  0.0054
21166SOL    HW264715   8.511   5.769   1.076 -1.0106  0.2695  1.1881
21167SOL     OW64716   7.903   5.920   1.105  0.2872 -0.3139 -0.1194
21167SOL    HW164717   7.875   5.829   1.111 -0.9481 -0.0357 -1.1617
21167SOL    HW264718   7.930   5.930   1.013 -1.9113  0.9530 -0.7009
21168SOL     OW64719   8.625   6.310   1.827 -0.5645  0.7218  0.2340
21168SOL    HW164720   8.713   6.301   1.863 -0.4785  0.2326 -0.0936
21168SOL    HW264721   8.632   6.278   1.738 -1.5641 -1.5629  0.8997
21169SOL     OW64722   8.294   6.766   1.158  0.5813 -0.4295 -0.2164
21169SOL    HW164723   8.362   6.729   1.102  1.1184 -2.7422  1.8314
21169SOL    HW264724   8.339   6.834   1.209  0.6382  0.0300 -0.8603
21170SOL     OW64725   8.247   5.990   1.076  0.2349 -0.4883 -0.1797
21170SOL    HW164726   8.209   6.042   1.005  0.0032  1.7504  1.4891
21170SOL    HW264727   8.300   5.924   1.031  0.7276  1.3184 -2.4393
21171SOL     OW64728   8.318   6.207   0.134  0.1648  0.8436 -0.4419
21171SOL    HW164729   8.413   6.218   0.127  0.4848 -1.7033 -1.0528
21171SOL    HW264730   8.303   6.185   0.226  0.3948 -0.3867 -0.6893
21172SOL     OW64731   7.286   6.164   0.605  0.2285  0.1384 -0.6415
21172SOL    HW164732   7.227   6.149   0.679 -0.7417 -1.8639 -1.7495
21172SOL    HW264733   7.228   6.177   0.530  1.2076  1.2334 -1.2473
21173SOL     OW64734   7.379   7.261   1.922 -0.1946 -0.3151 -0.3220
21173SOL    HW164735   7.402   7.193   1.985  0.3978  0.2130  0.0518
21173SOL    HW264736   7.304   7.305   1.961  0.5393  0.3968  0.3296
21174SOL     OW64737   8.782   5.221   8.844 -0.5939  0.1182 -0.2651
21174SOL    HW164738   8.876   5.228   8.829 -0.5427 -1.8321 -1.2012
21174SOL    HW264739   8.768   5.259   8.930  1.1899 -0.3020  0.2483
21175SOL     OW64740   8.410   6.778   0.531  0.2875  0.4022  0.5999
21175SOL    HW164741   8.487   6.791   0.587  0.4687 -0.7773  0.6475
21175SOL    HW264742   8.419   6.844   0.463  2.0063 -0.4574 -0.0834
21176SOL     OW64743   7.780   5.338   0.426  0.0327  0.3094  0.0741
21176SOL    HW164744   7.708   5.304   0.373  0.0105 -0.7810  0.7743
21176SOL    HW264745   7.858   5.299   0.388  0.1574  0.6550 -0.0290
21177SOL     OW64746   8.281   7.494   0.691 -1.1592  0.3046  0.2091
21177SOL    HW164747   8.212   7.439   0.654 -1.6603  0.9980  0.0922
21177SOL    HW264748   8.352   7.433   0.712 -1.7799 -0.4108  0.2749
21178SOL     OW64749   8.269   7.108   0.572  0.2412  0.6325 -0.2137
21178SOL    HW164750   8.199   7.050   0.603  0.7041  1.3239  2.3491
21178SOL    HW264751   8.323   7.053   0.516  1.3988 -1.9258  3.0817
21179SOL     OW64752   8.462   7.220   1.763  0.3517 -0.0533 -0.0976
21179SOL    HW164753   8.382   7.271   1.754  0.2256 -0.1182  0.5634
21179SOL    HW264754   8.438   7.148   1.823  1.0679  0.3085  0.6461
21180SOL     OW64755   7.604   6.846   0.050  0.0921 -0.1613 -0.1126
21180SOL    HW164756   7.684   6.888   0.019  0.5310 -0.2336  0.8983
21180SOL    HW264757   7.534   6.888  -0.000  0.7445  0.0376 -0.8616
21181SOL     OW64758   7.814   6.767   0.937 -0.0291 -0.1937  0.2305
21181SOL    HW164759   7.837   6.675   0.942  1.0554  0.1034  1.0960
21181SOL    HW264760   7.775   6.778   0.850 -0.5052 -1.5255  0.2650
21182SOL     OW64761   8.420   6.973   0.341  0.3249 -0.0660 -0.4368
21182SOL    HW164762   8.404   6.976   0.246 -0.7060  1.4299 -0.2400
21182SOL    HW264763   8.481   7.044   0.358  0.9857 -0.7113 -0.0355
21183SOL     OW64764   7.922   5.657   1.496 -0.1282  0.0774  0.2103
21183SOL    HW164765   8.014   5.674   1.517 -0.4576 -0.1154  1.9840
21183SOL    HW264766   7.919   5.565   1.470  0.4039  0.5019 -1.4849
21184SOL     OW64767   0.099   6.656   0.648 -0.2244 -0.1252  0.3596
21184SOL    HW164768   0.053   6.655   0.564 -1.2946  1.6358  0.8761
21184SOL    HW264769   0.071   6.576   0.692 -1.8870  0.3309  0.1698
21185SOL     OW64770   7.817   7.198   0.069  0.0006 -0.0142 -0.3257
21185SOL    HW164771   7.848   7.136   0.134 -2.9465  1.1148  2.4003
21185SOL    HW264772   7.850   7.283   0.099 -2.8214  0.7619  0.8490
21186SOL     OW64773   7.785   7.107   0.657 -0.1285 -0.1340  0.2400
21186SOL    HW164774   7.721   7.045   0.692  0.2557  0.2549  1.6825
21186SOL    HW264775   7.748   7.193   0.675 -0.0817  0.0885 -0.6580
21187SOL     OW64776   7.879   7.175   1.246 -0.0518  0.6235 -0.3156
21187SOL    HW164777   7.798   7.214   1.213 -0.7641 -0.3496  0.2327
21187SOL    HW264778   7.879   7.196   1.339 -1.1135 -1.7177  0.2754
21188SOL     OW64779   7.549   6.698   0.286  0.2212  0.0812  0.0637
21188SOL    HW164780   7.560   6.739   0.200  1.0146  0.6003  0.4058
21188SOL    HW264781   7.604   6.619   0.283 -0.5664 -0.4695 -0.2604
21189SOL     OW64782   8.176   5.750   1.595  0.5626  0.1757  0.0679
21189SOL    HW164783   8.257   5.746   1.545  0.8234 -0.3750  0.5316
21189SOL    HW264784   8.197   5.804   1.671 -0.1931  2.1693 -1.0473
21190SOL     OW64785   7.795   7.033   1.005 -0.2664 -0.3419  0.4662
21190SOL    HW164786   7.821   6.942   0.992  0.6755 -0.2292  1.4205
21190SOL    HW264787   7.835   7.058   1.089 -2.4584  0.2304  1.4030
21191SOL     OW64788   8.505   6.460   1.577  0.0494 -0.1531 -0.6158
21191SOL    HW164789   8.569   6.388   1.581 -0.6384 -0.7141  1.5580
21191SOL    HW264790   8.516   6.496   1.489  2.3542 -1.1385 -0.8180
21192SOL     OW64791   8.220   6.429   0.544  0.6847  0.6136  0.1035
21192SOL    HW164792   8.253   6.472   0.623 -0.5479 -0.8391  1.5085
21192SOL    HW264793   8.140   6.384   0.574  0.1154  0.1270 -2.0189
21193SOL     OW64794   8.427   5.909   0.729  0.3003  0.0507 -0.1524
21193SOL    HW164795   8.333   5.899   0.717  0.3643 -0.2591 -0.4203
21193SOL    HW264796   8.466   5.843   0.671  0.6728 -0.1128  0.2765
21194SOL     OW64797   7.685   5.785   0.036  0.6463 -0.5449  0.2700
21194SOL    HW164798   7.627   5.763   0.109  0.4596  0.5484  0.4596
21194SOL    HW264799   7.772   5.785   0.074  0.4939  0.6452  0.6605
21195SOL     OW64800   8.698   6.830   8.528  0.4650 -0.2483 -0.0457
21195SOL    HW164801   8.699   6.739   8.559 -0.7148  0.0984  1.1237
21195SOL    HW264802   8.616   6.838   8.479  0.4457  0.2476  0.0632
21196SOL     OW64803   8.368   5.808   0.385  0.0824 -0.5059 -0.5245
21196SOL    HW164804   8.294   5.857   0.420  0.6486 -0.2869  0.4069
21196SOL    HW264805   8.370   5.830   0.292 -0.6249 -0.0216 -0.4350
21197SOL     OW64806   8.665   6.242   1.581 -0.3287  0.4850 -0.3466
21197SOL    HW164807   8.709   6.314   1.537 -0.9631  1.0201 -0.1125
21197SOL    HW264808   8.661   6.173   1.515  0.4857  0.5740 -0.4994
21198SOL     OW64809   7.820   6.792   1.326 -0.5642 -0.3465 -0.3053
21198SOL    HW164810   7.897   6.826   1.281 -0.5866  0.8376  0.4856
21198SOL    HW264811   7.849   6.709   1.365  0.0775 -0.2952 -0.6644
21199SOL     OW64812   7.999   6.353   0.674 -0.0179  0.3630 -0.0722
21199SOL    HW164813   7.971   6.407   0.748 -0.4956  0.0338 -0.0036
21199SOL    HW264814   7.927   6.362   0.610 -0.4520 -0.7574  0.2393
21200SOL     OW64815   8.570   7.699   0.702 -0.0466  0.2071  0.7285
21200SOL    HW164816   8.615   7.627   0.747 -0.0014 -0.0970  0.2047
21200SOL    HW264817   8.480   7.694   0.733  0.0629  0.2227  1.0565
21201SOL     OW64818   8.781   6.074   8.783  0.8748  0.9063  0.2059
21201SOL    HW164819   8.840   6.010   8.821 -0.3176  0.4159  1.2823
21201SOL    HW264820   8.724   6.023   8.726  0.1178  1.0398  0.8294
21202SOL     OW64821   7.273   6.044   0.929 -0.6676 -0.6327  0.1119
21202SOL    HW164822   7.348   5.995   0.895  0.5344  0.5559  0.9634
21202SOL    HW264823   7.199   5.984   0.917  0.1437 -1.3317 -2.0008
21203SOL     OW64824   7.649   5.720   0.706 -0.5053  0.6440  0.5207
21203SOL    HW164825   7.686   5.804   0.680 -0.4104  0.1844 -0.9110
21203SOL    HW264826   7.725   5.664   0.721 -0.5141 -0.2073 -2.1086
21204SOL     OW64827   8.367   6.205   0.421  0.3804 -0.1235  0.2931
21204SOL    HW164828   8.442   6.197   0.479  1.2408  0.4246 -0.7122
21204SOL    HW264829   8.324   6.286   0.448 -0.2607 -0.7668  1.2966
21205SOL     OW64830   8.176   5.973   0.450 -0.5807  0.6908 -0.1721
21205SOL    HW164831   8.228   6.051   0.428 -0.4618  0.3068 -1.3206
21205SOL    HW264832   8.096   6.009   0.488 -0.4940  1.3895 -0.6126
21206SOL     OW64833   6.953   7.096   0.051 -0.2763 -0.6608  0.0380
21206SOL    HW164834   6.934   7.168   0.110  1.3117 -0.7719  0.7361
21206SOL    HW264835   6.874   7.041   0.054 -2.2985  1.8612 -1.9189
21207SOL     OW64836   0.380   5.861   0.249  0.6106  0.0072 -0.4175
21207SOL    HW164837   0.331   5.927   0.298 -1.0358 -0.4634 -1.3436
21207SOL    HW264838   0.470   5.869   0.280  0.4779  2.6797 -0.4835
21208SOL     OW64839   7.892   6.149   0.251  0.3497 -0.2642 -1.0607
21208SOL    HW164840   7.870   6.203   0.174  0.6229  2.8488  0.8788
21208SOL    HW264841   7.807   6.124   0.286 -0.0564  2.6362  0.3479
21209SOL     OW64842   7.646   6.555   1.279 -0.3547 -0.1031 -0.2445
21209SOL    HW164843   7.676   6.548   1.369  1.1129 -0.6239 -0.7304
21209SOL    HW264844   7.650   6.649   1.260  0.4418 -0.0922 -0.0860
21210SOL     OW64845   8.588   7.027   1.151  0.0610 -0.0663  0.5207
21210SOL    HW164846   8.506   7.015   1.198  0.1508  1.4049  1.0834
21210SOL    HW264847   8.562   7.034   1.059 -0.7100  2.4719  0.8648
21211SOL     OW64848   8.551   5.610   1.428  0.4009  0.0032  0.4562
21211SOL    HW164849   8.546   5.540   1.363 -0.8151 -2.1769  2.7387
21211SOL    HW264850   8.616   5.579   1.492 -0.8512  0.4594  2.0150
21212SOL     OW64851   8.754   6.942   1.965  0.2292  0.6151  0.4879
21212SOL    HW164852   8.780   6.952   2.056  0.7588  1.1813  0.2793
21212SOL    HW264853   8.658   6.941   1.967  0.2436  0.0714  1.1033
21213SOL     OW64854   8.260   6.611   0.088  0.5064 -0.4735  0.0585
21213SOL    HW164855   8.193   6.543   0.075  0.4492 -0.4664  0.2953
21213SOL    HW264856   8.270   6.615   0.183  2.1880 -1.7901 -0.0077
21214SOL     OW64857   7.666   6.335   0.774  0.2033  0.1497 -0.2062
21214SOL    HW164858   7.629   6.411   0.819  0.5869 -0.9083  1.9939
21214SOL    HW264859   7.705   6.282   0.843 -0.3774 -2.2644 -1.6141
21215SOL     OW64860   0.034   5.842   1.139 -0.0883 -0.4859  0.4410
21215SOL    HW164861  -0.039   5.832   1.201 -1.8855 -0.2035 -1.5110
21215SOL    HW264862  -0.009   5.859   1.055  2.2657 -0.4008 -0.8073
21216SOL     OW64863   7.258   7.193   1.366 -0.3983  0.3409 -0.1233
21216SOL    HW164864   7.337   7.181   1.418 -0.5878 -0.8685 -0.0846
21216SOL    HW264865   7.196   7.129   1.401 -1.4363  1.3170 -0.1051
21217SOL     OW64866   7.816   7.109   0.370  0.4778 -0.1974  0.0988
21217SOL    HW164867   7.740   7.050   0.365  0.0542  0.3958 -0.6296
21217SOL    HW264868   7.843   7.105   0.461 -1.9656  1.4525  1.0017
21218SOL     OW64869   7.949   5.998   0.845 -0.1035 -0.1968  0.5409
21218SOL    HW164870   7.929   6.015   0.753  2.5622 -1.0594 -0.2993
21218SOL    HW264871   8.007   6.069   0.870  4.1292 -2.9505 -0.4216
21219SOL     OW64872   8.453   7.045   0.880 -0.2043  0.2801 -0.4139
21219SOL    HW164873   8.434   7.106   0.808  1.0309  1.3437  0.1346
21219SOL    HW264874   8.372   6.994   0.889 -1.3812  2.0099 -0.7165
21220SOL     OW64875   8.168   7.633   1.074  0.2245  0.0622 -0.7617
21220SOL    HW164876   8.117   7.622   1.155  0.4348 -0.3841 -0.6882
21220SOL    HW264877   8.123   7.578   1.010  0.1262  0.3246 -0.9172
21221SOL     OW64878   7.555   7.148   0.892 -0.2800  0.0316  0.5309
21221SOL    HW164879   7.632   7.110   0.935 -0.9100 -1.3019  0.5231
21221SOL    HW264880   7.590   7.222   0.842  0.9637 -0.4132  0.6947
21222SOL     OW64881   7.605   6.093   1.252  0.1625 -0.0674  0.0696
21222SOL    HW164882   7.511   6.074   1.257 -0.3258  2.0567 -0.0115
21222SOL    HW264883   7.647   6.008   1.259 -1.7107 -0.9304  1.7311
21223SOL     OW64884   8.159   5.799   1.249  0.5982  0.8373  0.3240
21223SOL    HW164885   8.165   5.877   1.195  0.2263  0.6325 -0.0180
21223SOL    HW264886   8.239   5.801   1.303  1.9259  0.1089 -1.4997
21224SOL     OW64887   8.239   5.502   1.695  0.4489 -0.5273 -0.4523
21224SOL    HW164888   8.191   5.447   1.634 -0.3776 -2.2857  1.6709
21224SOL    HW264889   8.204   5.590   1.681 -1.3431 -1.2831 -0.9449
21225SOL     OW64890   8.136   6.212   0.918  0.0055 -0.3529  0.3311
21225SOL    HW164891   8.136   6.231   1.011 -0.7752 -0.1817  0.3054
21225SOL    HW264892   8.112   6.295   0.876 -1.2458 -0.8107  0.0855
21226SOL     OW64893   8.717   6.203   0.913 -0.3522 -0.6861 -0.5270
21226SOL    HW164894   8.805   6.239   0.923 -0.7137  0.6135 -1.7032
21226SOL    HW264895   8.728   6.109   0.928  1.1654 -0.5121 -0.3480
21227SOL     OW64896   8.466   6.252   8.658  0.1010  0.7544  0.0582
21227SOL    HW164897   8.454   6.307   8.580 -1.1186 -0.2131 -0.4848
21227SOL    HW264898   8.560   6.236   8.662  0.4096  2.3137 -0.1379
21228SOL     OW64899   7.458   5.619   1.431  0.4717 -0.1460  0.2218
21228SOL    HW164900   7.444   5.590   1.521 -0.4128  1.8896  0.7985
21228SOL    HW264901   7.449   5.539   1.379  0.5889 -1.3001  1.8807
21229SOL     OW64902   7.520   6.806   0.996 -0.2365 -0.0811  0.0519
21229SOL    HW164903   7.494   6.861   1.069 -0.3400 -0.2907  0.1724
21229SOL    HW264904   7.611   6.832   0.977 -0.3835  0.3349 -0.0836
21230SOL     OW64905   8.444   6.250   1.090  0.3173  0.8530  0.5548
21230SOL    HW164906   8.443   6.323   1.028  1.3567  1.3229  1.0563
21230SOL    HW264907   8.380   6.188   1.056 -0.2250  1.7712 -0.1592
21231SOL     OW64908   7.917   5.751   0.209 -0.1172  0.4643  0.3067
21231SOL    HW164909   7.991   5.714   0.258 -0.4115  1.6039  1.6730
21231SOL    HW264910   7.842   5.738   0.266 -1.4865 -2.5488 -1.9029
21232SOL     OW64911   0.083   6.256   0.342  0.0566 -0.2113 -0.4792
21232SOL    HW164912   0.154   6.312   0.311 -1.1040  0.8816 -1.2814
21232SOL    HW264913   0.122   6.169   0.349  1.6988  0.5317  0.0132
21233SOL     OW64914   8.536   6.156   0.657 -0.5331 -0.1703 -0.1382
21233SOL    HW164915   8.598   6.195   0.718 -0.3610  1.2498 -1.1536
21233SOL    HW264916   8.500   6.081   0.703  1.0439 -0.3152  0.9312
21234SOL     OW64917   8.729   7.409   1.956 -0.9769  0.0079  0.0884
21234SOL    HW164918   8.745   7.414   1.862  0.8335  0.0755  0.3762
21234SOL    HW264919   8.674   7.485   1.975 -0.9275  0.2778 -0.8236
21235SOL     OW64920   7.734   6.507   1.945 -0.1668  0.1735  0.1239
21235SOL    HW164921   7.695   6.512   2.032 -0.2391 -0.9665  0.1662
21235SOL    HW264922   7.802   6.440   1.953  0.5432  0.8075 -0.4310
21236SOL     OW64923   8.519   6.893   8.184  0.2416  0.2393 -0.4704
21236SOL    HW164924   8.610   6.901   8.214  0.0368 -1.5055  0.7766
21236SOL    HW264925   8.474   6.849   8.256 -1.9336  2.1881 -0.5186
21237SOL     OW64926   8.023   6.891   1.137 -0.1556  0.4267 -0.1334
21237SOL    HW164927   8.117   6.894   1.156 -0.0287  1.7206 -0.8065
21237SOL    HW264928   8.015   6.826   1.068  0.0766 -0.5389  0.7305
21238SOL     OW64929   7.705   5.952   0.531 -0.0762 -0.0679 -0.4578
21238SOL    HW164930   7.691   5.921   0.441 -2.9695  0.5328 -0.2903
21238SOL    HW264931   7.651   6.030   0.539 -1.0926 -0.9297  2.2416
21239SOL     OW64932   7.440   5.822   0.492 -0.1831 -0.7105 -0.2304
21239SOL    HW164933   7.372   5.884   0.467  1.9356  1.7225 -0.3402
21239SOL    HW264934   7.494   5.870   0.556  1.3067 -2.5995  0.0224
21240SOL     OW64935   8.413   5.971   1.830  0.4264 -0.2161  0.3423
21240SOL    HW164936   8.401   6.052   1.781  2.8132  0.6983  1.1380
21240SOL    HW264937   8.325   5.931   1.833 -1.1246  2.9644  1.0910
21241SOL     OW64938   8.703   5.822   1.357  0.3636 -0.1176 -0.2287
21241SOL    HW164939   8.635   5.756   1.343  1.1862 -1.3131  1.1181
21241SOL    HW264940   8.733   5.806   1.446 -1.3441  3.9611  1.3137
21242SOL     OW64941   7.462   7.429   0.553  0.1964 -0.3041 -0.3987
21242SOL    HW164942   7.380   7.476   0.540 -0.4703 -1.1348  0.5841
21242SOL    HW264943   7.496   7.415   0.465 -0.8340 -0.1351 -0.8417
21243SOL     OW64944   8.058   6.721   0.696 -0.3306  0.0449  0.1038
21243SOL    HW164945   8.116   6.679   0.632 -0.7640  0.2084 -0.4010
21243SOL    HW264946   8.004   6.650   0.730 -0.1149 -0.0388  0.2761
21244SOL     OW64947   8.660   6.103   1.355  0.3466 -0.0355  0.3184
21244SOL    HW164948   8.569   6.105   1.325 -0.0811 -1.8813  1.2795
21244SOL    HW264949   8.687   6.012   1.341  0.9435 -0.3552  3.0195
21245SOL     OW64950   7.237   6.307   0.907 -0.1857  0.1826 -0.0635
21245SOL    HW164951   7.163   6.325   0.966  0.0529  0.3994  0.1724
21245SOL    HW264952   7.255   6.214   0.919 -0.5656  0.0797 -0.2888
21246SOL     OW64953   7.718   6.268   1.472 -0.7459  0.1642 -0.4509
21246SOL    HW164954   7.710   6.193   1.532 -2.1708  0.8793  0.3186
21246SOL    HW264955   7.683   6.237   1.389  1.1568 -0.8117 -0.9353
21247SOL     OW64956   7.527   6.123   8.467  0.0652 -0.1051 -0.5778
21247SOL    HW164957   7.500   6.137   8.558  0.1860  0.7366 -0.6639
21247SOL    HW264958   7.524   6.028   8.456  3.1018 -0.5538  1.2445
21248SOL     OW64959   7.538   7.469   1.491 -0.8069  0.2785  0.1963
21248SOL    HW164960   7.579   7.547   1.529  0.5138  0.1726 -0.8953
21248SOL    HW264961   7.444   7.481   1.506 -0.7552  2.6339 -0.8702
21249SOL     OW64962   8.153   5.831   0.724  0.3408  0.5924 -0.0477
21249SOL    HW164963   8.142   5.857   0.633  0.4777 -0.0108 -0.2370
21249SOL    HW264964   8.091   5.887   0.772 -0.0119  0.6375 -0.5498
21250SOL     OW64965   8.327   7.239   1.405  0.0506 -0.0664  0.3921
21250SOL    HW164966   8.265   7.257   1.334 -0.4426 -1.5257  0.4205
21250SOL    HW264967   8.296   7.293   1.478 -1.2740 -0.8511  0.4390
21251SOL     OW64968   7.884   6.290   8.807  0.1725  0.3074 -0.6631
21251SOL    HW164969   7.873   6.367   8.751  0.2110  0.7748 -0.0290
21251SOL    HW264970   7.830   6.223   8.764 -1.7212  1.3289 -0.0082
21252SOL     OW64971   7.472   6.883   1.260  0.1436  0.0068  0.3598
21252SOL    HW164972   7.540   6.939   1.297  0.6618 -1.3487  1.5848
21252SOL    HW264973   7.417   6.860   1.335  0.4053 -1.7175  0.0577
21253SOL     OW64974   8.515   6.684   1.026  0.2484 -0.1749 -0.1753
21253SOL    HW164975   8.537   6.614   0.964  0.5368  1.3820 -1.9321
21253SOL    HW264976   8.599   6.724   1.049 -0.0656  1.0332 -1.0226
21254SOL     OW64977   8.504   6.540   8.813  0.3748  0.0625 -0.1080
21254SOL    HW164978   8.418   6.562   8.849 -0.2278 -2.8798  0.4748
21254SOL    HW264979   8.487   6.470   8.750  2.3172 -0.4360 -0.1392
21255SOL     OW64980   8.379   6.979   1.315  0.2306  0.5333  0.5742
21255SOL    HW164981   8.344   7.068   1.324 -0.0581  0.7395 -1.9671
21255SOL    HW264982   8.403   6.954   1.404 -1.0869  2.5699  1.5785
21256SOL     OW64983   7.016   6.397   1.053 -0.0081 -0.4598 -0.4173
21256SOL    HW164984   6.976   6.397   0.966 -1.0702  1.1706  0.0337
21256SOL    HW264985   7.047   6.487   1.066  1.4643 -1.0262  0.3352
21257SOL     OW64986   8.039   7.494   1.379  0.7501  0.1440 -0.3615
21257SOL    HW164987   8.057   7.585   1.401 -1.7195  0.7832 -0.6958
21257SOL    HW264988   7.951   7.495   1.341  0.6237 -2.3979 -0.3283
21258SOL     OW64989   8.626   5.464   8.495  0.3995 -0.2272 -0.6884
21258SOL    HW164990   8.674   5.382   8.482 -0.5978 -1.0189  0.3946
21258SOL    HW264991   8.537   5.437   8.518  0.3711  1.1156  0.9920
21259SOL     OW64992   8.693   7.376   0.421  0.7464  0.2560  0.0241
21259SOL    HW164993   8.663   7.455   0.377 -0.5383  0.0477  0.4704
21259SOL    HW264994   8.769   7.404   0.471 -0.4551  1.5632  1.2328
21260SOL     OW64995   7.374   7.142   1.617 -0.2921 -0.0197 -0.2542
21260SOL    HW164996   7.444   7.078   1.629 -0.8321 -0.5192  0.2996
21260SOL    HW264997   7.366   7.185   1.702 -1.5894 -0.9327  0.1038
21261SOL     OW64998   8.345   6.588   0.736 -0.3105  0.2819  0.9758
21261SOL    HW164999   8.401   6.583   0.814 -0.6103  0.7018  1.2295
21261SOL    HW265000   8.371   6.670   0.693 -0.6407  0.4191  1.0308
21262SOL     OW65001   7.727   6.542   1.551  0.1358  0.5503 -0.2278
21262SOL    HW165002   7.764   6.568   1.635 -0.5819 -0.7854  0.5275
21262SOL    HW265003   7.729   6.447   1.552  0.1058  0.5112 -1.7291
21263SOL     OW65004   8.317   7.075   0.091  0.1021 -0.3904 -0.3268
21263SOL    HW165005   8.355   7.160   0.067  0.0327 -0.0720  0.6531
21263SOL    HW265006   8.261   7.094   0.166 -0.6465 -1.1529 -0.6755
21264SOL     OW65007   7.602   6.224   0.265  0.2728 -0.2594 -0.4398
21264SOL    HW165008   7.506   6.223   0.269  0.2674  0.5181 -0.2218
21264SOL    HW265009   7.623   6.306   0.220  0.8133 -1.0033 -1.5800
21265SOL     OW65010   8.433   6.919   8.755 -0.4345  0.1915  0.3514
21265SOL    HW165011   8.384   6.978   8.813 -0.9500  1.0634 -0.9100
21265SOL    HW265012   8.522   6.918   8.791 -1.0872 -0.5077  2.0174
21266SOL     OW65013   8.125   6.576   1.099  0.1549  0.0818  0.0592
21266SOL    HW165014   8.182   6.652   1.113  0.4441 -0.1659  0.2427
21266SOL    HW265015   8.053   6.588   1.162  0.4837 -0.0718  0.4715
21267SOL     OW65016   8.135   6.436   8.649 -0.6723 -0.4757 -0.0497
21267SOL    HW165017   8.046   6.464   8.629 -0.2181  0.8010 -0.3857
21267SOL    HW265018   8.125   6.360   8.706 -1.9908 -1.5209 -1.6026
21268SOL     OW65019   7.444   6.514   1.575 -0.4275 -0.2301  0.7579
21268SOL    HW165020   7.539   6.523   1.571 -0.5460  0.6329 -0.5121
21268SOL    HW265021   7.425   6.438   1.521 -0.5087 -0.0201  0.4901
21269SOL     OW65022   8.279   6.609   0.361  0.4199 -0.0941 -0.0404
21269SOL    HW165023   8.262   6.538   0.423 -1.6762  0.2795 -0.1127
21269SOL    HW265024   8.302   6.684   0.416  0.3535 -0.2406  0.1877
21270SOL     OW65025   8.052   5.492   0.512 -0.2468  0.2907 -0.1389
21270SOL    HW165026   8.098   5.556   0.458  0.4449 -0.0691  0.0126
21270SOL    HW265027   8.043   5.415   0.455  0.9498 -0.2763  0.4052
21271SOL     OW65028   7.846   6.912   8.789  0.1931  0.8190 -0.0259
21271SOL    HW165029   7.879   6.889   8.876 -1.0122 -0.1171  0.2094
21271SOL    HW265030   7.916   6.963   8.749  0.6315  1.5526  1.6244
21272SOL     OW65031   7.080   6.822   8.744 -0.4262  0.0563  0.2521
21272SOL    HW165032   7.069   6.896   8.803  1.8991 -0.1335  1.0421
21272SOL    HW265033   7.173   6.800   8.751 -1.1324 -3.4099  0.6203
21273SOL     OW65034   7.816   6.675   1.755  0.1116  0.4689 -0.9566
21273SOL    HW165035   7.799   6.768   1.769  1.0432  0.8882 -2.4165
21273SOL    HW265036   7.784   6.633   1.835  0.1977  2.0924 -0.0128
21274SOL     OW65037   7.915   5.671   0.653  0.6584 -0.0346  0.3059
21274SOL    HW165038   7.989   5.717   0.691  0.5132  0.3449  0.1327
21274SOL    HW265039   7.955   5.605   0.596  0.8744 -0.5615  1.0501
21275SOL     OW65040   6.991   6.270   8.150  0.8131 -0.5022  0.0326
21275SOL    HW165041   7.014   6.257   8.058 -1.5698 -2.5989 -0.3687
21275SOL    HW265042   7.055   6.218   8.199 -0.7624 -3.4680 -0.8355
21276SOL     OW65043   8.843   6.757   1.592 -0.5998  0.0675  0.4270
21276SOL    HW165044   8.779   6.803   1.538 -0.0859  1.3029  0.8377
21276SOL    HW265045   8.912   6.730   1.531 -1.6125 -1.5335 -0.0671
21277SOL     OW65046   7.120   5.926   8.177  0.3418  0.4581 -0.9349
21277SOL    HW165047   7.110   5.833   8.195 -1.5385  0.8208  0.2375
21277SOL    HW265048   7.213   5.938   8.161  1.1702 -1.1378  1.9520
21278SOL     OW65049   8.778   6.931   8.283 -0.2415 -0.0148 -0.1996
21278SOL    HW165050   8.765   6.940   8.378 -0.7774 -1.4365 -0.1097
21278SOL    HW265051   8.861   6.883   8.275 -1.2612 -1.8475 -0.3361
21279SOL     OW65052   8.387   6.161   1.372  0.7705 -0.0038  0.0093
21279SOL    HW165053   8.347   6.190   1.290  0.6802 -0.1010  0.0179
21279SOL    HW265054   8.364   6.228   1.436  2.6132  1.1783 -0.4992
21280SOL     OW65055   7.810   5.889   1.366 -0.6450 -0.1091 -0.3480
21280SOL    HW165056   7.848   5.819   1.418 -1.7681 -0.2699  0.2883
21280SOL    HW265057   7.871   5.901   1.293  1.0732  0.2470  1.0753
21281SOL     OW65058   8.668   6.892   1.399 -0.1889  0.4055  0.2685
21281SOL    HW165059   8.624   6.903   1.315 -0.5719 -2.4086 -0.0260
21281SOL    HW265060   8.602   6.850   1.455  0.4199  1.1731  1.6080
21282SOL     OW65061   7.485   7.685   1.281 -0.3054 -0.0127 -0.0417
21282SOL    HW165062   7.418   7.745   1.314 -1.4710 -0.9345 -0.6532
21282SOL    HW265063   7.478   7.607   1.337 -0.5708 -0.5786 -0.8399
21283SOL     OW65064   8.596   6.182   0.141  0.2171 -0.7673 -0.6673
21283SOL    HW165065   8.620   6.181   0.234  0.3231 -1.2996 -0.6953
21283SOL    HW265066   8.670   6.141   0.097 -0.2132 -1.3239 -0.8903
21284SOL     OW65067   8.094   6.412   0.149 -0.3114 -0.3076  0.0234
21284SOL    HW165068   8.061   6.342   0.093  0.3022 -0.7689  0.2265
21284SOL    HW265069   8.148   6.367   0.214  1.0732  0.4650 -0.5608
21285SOL     OW65070   8.043   6.813   0.144 -0.4825  0.2068  0.1995
21285SOL    HW165071   8.085   6.897   0.162 -1.6102  0.6471  0.8800
21285SOL    HW265072   8.114   6.749   0.148  0.0595  0.8539  1.8292
21286SOL     OW65073   8.085   7.280   0.897 -0.3817 -0.8313 -0.0147
21286SOL    HW165074   8.019   7.350   0.899  0.1344 -0.3104 -0.4443
21286SOL    HW265075   8.051   7.217   0.833 -0.5533 -0.6576 -0.0967
21287SOL     OW65076   7.952   6.064   0.572 -0.3909 -0.5018 -0.8537
21287SOL    HW165077   7.954   6.159   0.567  1.2579 -0.2247  2.3689
21287SOL    HW265078   7.859   6.041   0.561 -1.0702  1.6402 -0.0422
21288SOL     OW65079   8.433   6.793   8.432  0.4396 -0.1963 -0.6242
21288SOL    HW165080   8.412   6.700   8.438  0.9842 -0.3277 -0.6887
21288SOL    HW265081   8.408   6.829   8.518 -3.4345  0.3990 -1.7988
21289SOL     OW65082   7.682   7.098   1.686  0.1160 -0.2877 -0.1022
21289SOL    HW165083   7.710   7.074   1.774 -2.7817 -1.5967  0.5740
21289SOL    HW265084   7.685   7.194   1.686 -0.7697 -0.2043  1.8160
21290SOL     OW65085   7.666   6.823   0.689  0.2401 -0.2823 -0.1138
21290SOL    HW165086   7.713   6.760   0.634 -0.3922 -0.9524  0.0919
21290SOL    HW265087   7.576   6.819   0.658 -0.0606 -0.4288  0.7429
21291SOL     OW65088   7.901   7.272   1.489  0.5077  0.0160 -0.4309
21291SOL    HW165089   7.872   7.291   1.578 -1.0184 -0.0036 -0.8862
21291SOL    HW265090   7.961   7.343   1.467  2.2008 -0.8456  1.1516
21292SOL     OW65091   7.421   6.390   0.025 -0.0142 -0.6977  0.2644
21292SOL    HW165092   7.484   6.462   0.026 -0.8075  0.0717  2.7791
21292SOL    HW265093   7.412   6.365   0.117 -2.4158 -1.6340 -0.1599
21293SOL     OW65094   7.562   5.715   0.275  0.4107 -0.2714  0.5247
21293SOL    HW165095   7.609   5.676   0.349 -1.9449 -1.8760  1.2984
21293SOL    HW265096   7.485   5.755   0.314  0.6271  1.5280 -0.7892
21294SOL     OW65097   8.175   7.208   1.164  0.2376 -0.5964  0.3250
21294SOL    HW165098   8.148   7.227   1.074  0.6616  1.3873  0.5644
21294SOL    HW265099   8.097   7.172   1.206 -1.0872  1.7366  0.0550
21295SOL     OW65100   8.468   6.454   1.297  0.4175 -0.0816 -0.5781
21295SOL    HW165101   8.439   6.500   1.218 -2.0672 -1.4404 -0.5527
21295SOL    HW265102   8.491   6.366   1.266  0.2448 -0.3641  0.0786
21296SOL     OW65103   8.286   5.607   0.985  0.4674  0.0012  0.6905
21296SOL    HW165104   8.205   5.634   1.029  1.1552  1.5094  1.1168
21296SOL    HW265105   8.284   5.511   0.987 -1.6182 -0.0078  0.0653
21297SOL     OW65106   8.235   6.783   8.635  0.0543 -0.3723  0.2751
21297SOL    HW165107   8.242   6.693   8.669  0.0655  0.0066  1.3149
21297SOL    HW265108   8.297   6.833   8.689 -0.8147  0.4729  0.5062
21298SOL     OW65109   7.653   7.018   1.410 -0.4323 -0.2026  0.1450
21298SOL    HW165110   7.712   6.956   1.365 -0.1305  1.5046 -2.0262
21298SOL    HW265111   7.687   7.022   1.499  1.1722 -1.1958 -0.3554
21299SOL     OW65112   7.695   6.466   0.177  0.2683 -0.6534  0.0972
21299SOL    HW165113   7.691   6.503   0.089 -2.0595  0.0689  0.4245
21299SOL    HW265114   7.776   6.500   0.214 -0.4945  2.0995 -0.5456
21300SOL     OW65115   8.062   7.085   0.256 -0.3069 -0.3938  0.2147
21300SOL    HW165116   7.976   7.097   0.298 -0.4234  0.9827 -0.3566
21300SOL    HW265117   8.096   7.173   0.246  1.6347 -0.9739  1.2938
21301SOL     OW65118   7.766   6.085   1.674 -0.0072 -0.1181 -0.1426
21301SOL    HW165119   7.789   5.993   1.668  0.5965  0.0366 -0.2710
21301SOL    HW265120   7.685   6.087   1.726  0.8453 -0.5942  1.2484
21302SOL     OW65121   7.611   6.045   2.959  0.1334 -0.0748 -0.2246
21302SOL    HW165122   7.671   6.037   2.885 -0.7353 -0.7710 -0.8809
21302SOL    HW265123   7.634   5.971   3.016  0.9614  0.5990  0.3367
21303SOL     OW65124   6.732   6.049   2.205 -0.3888 -0.4492 -0.0427
21303SOL    HW165125   6.810   6.006   2.169  0.6187  0.6335  0.7788
21303SOL    HW265126   6.667   5.979   2.212  1.0229 -1.7348  0.7759
21304SOL     OW65127   7.928   6.890   2.920  0.4150 -0.1830 -0.3826
21304SOL    HW165128   7.982   6.967   2.940 -0.2790  0.6095 -1.4677
21304SOL    HW265129   7.843   6.909   2.959 -0.4403  0.6317 -2.5194
21305SOL     OW65130   0.055   7.221   2.913  0.1488 -0.5328 -0.2432
21305SOL    HW165131  -0.014   7.157   2.929  1.3334 -1.4734  1.4068
21305SOL    HW265132   0.110   7.181   2.846  0.8814 -1.2806  0.7780
21306SOL     OW65133   8.559   6.926   2.484 -0.1414 -0.5148 -0.1686
21306SOL    HW165134   8.587   6.840   2.454  1.2725 -0.2183  0.2007
21306SOL    HW265135   8.619   6.987   2.442  0.1879  0.1182  1.1409
21307SOL     OW65136   7.674   6.715   2.899  0.2792  0.0581  0.3243
21307SOL    HW165137   7.748   6.662   2.928 -0.1883 -0.5347  0.4266
21307SOL    HW265138   7.605   6.698   2.963  0.0078  0.5203  0.1597
21308SOL     OW65139   0.112   6.550   3.442  0.1233 -0.1148  0.0212
21308SOL    HW165140   0.181   6.568   3.505 -0.2126  1.3174  0.0073
21308SOL    HW265141   0.057   6.485   3.484  1.2210 -0.9530  0.2089
21309SOL     OW65142   7.964   6.741   2.420  0.3712 -0.4811 -0.3092
21309SOL    HW165143   7.952   6.759   2.513 -0.8116  1.2482 -0.7481
21309SOL    HW265144   8.041   6.683   2.416  0.4201 -0.6071  1.7174
21310SOL     OW65145   7.965   6.097   3.566 -0.4501  0.6111 -0.2288
21310SOL    HW165146   8.002   6.013   3.538 -0.3734  0.3981  0.4707
21310SOL    HW265147   7.998   6.161   3.504  0.5829  0.3295  0.0197
21311SOL     OW65148   7.405   7.243   2.504 -0.3820 -0.7246 -0.1372
21311SOL    HW165149   7.381   7.150   2.495  1.1956 -1.0914 -0.8349
21311SOL    HW265150   7.442   7.249   2.592 -1.3758 -0.5327  0.2773
21312SOL     OW65151   8.059   5.833   3.460 -0.3348 -0.2364 -0.0392
21312SOL    HW165152   8.028   5.772   3.393 -0.2780  0.0972 -0.3689
21312SOL    HW265153   8.026   5.796   3.542 -0.6666 -0.4812 -0.2767
21313SOL     OW65154   7.277   7.465   2.419  0.2766  0.2095 -0.0112
21313SOL    HW165155   7.203   7.493   2.474 -1.1231 -1.1754 -1.0826
21313SOL    HW265156   7.306   7.383   2.459 -1.2115 -1.1841 -1.6187
21314SOL     OW65157   8.317   6.322   3.480  0.0644 -0.2209 -0.2329
21314SOL    HW165158   8.372   6.245   3.463 -1.4306 -1.2889 -0.4297
21314SOL    HW265159   8.256   6.325   3.406 -0.1460  0.9476 -0.0352
21315SOL     OW65160   7.412   6.963   2.508 -0.0543 -0.0778 -0.2540
21315SOL    HW165161   7.464   6.932   2.583  0.7067 -0.2584 -0.8433
21315SOL    HW265162   7.453   6.922   2.432 -1.0530 -0.1973 -0.7446
21316SOL     OW65163   7.749   7.104   2.704  0.1567  0.3564 -0.0513
21316SOL    HW165164   7.702   7.024   2.729  1.2929 -0.2807  0.1436
21316SOL    HW265165   7.683   7.173   2.708 -0.5250 -0.3302  1.1790
21317SOL     OW65166   7.819   7.560   3.306 -0.4236  0.3693 -0.1939
21317SOL    HW165167   7.732   7.569   3.346 -1.1284  0.8053 -1.7390
21317SOL    HW265168   7.876   7.612   3.362 -1.0203 -0.4258  1.2033
21318SOL     OW65169   7.757   6.415   1.072 -0.5192  0.6698 -0.2325
21318SOL    HW165170   7.717   6.445   1.154 -0.4638  2.2986 -0.7582
21318SOL    HW265171   7.746   6.320   1.073 -2.0620  0.8153  0.8667
21319SOL     OW65172   7.219   6.190   2.237 -0.1876  0.5970 -0.7070
21319SOL    HW165173   7.153   6.187   2.307  1.0333 -1.3421  0.4669
21319SOL    HW265174   7.278   6.260   2.264  0.5166 -0.4226  0.4873
21320SOL     OW65175   7.690   7.256   1.955  0.3295  0.1406  0.3016
21320SOL    HW165176   7.731   7.204   2.025  0.6078 -2.3544 -1.5941
21320SOL    HW265177   7.609   7.288   1.994 -0.5194 -2.8397  1.2776
21321SOL     OW65178   0.553   6.476   2.004  0.4413  0.3558  0.2462
21321SOL    HW165179   0.513   6.449   2.086 -1.4175  2.4464  0.1190
21321SOL    HW265180   0.544   6.401   1.945  1.9448 -1.2284  1.9187
21322SOL     OW65181   7.566   6.268   3.498  0.1258 -0.5103 -0.3458
21322SOL    HW165182   7.603   6.298   3.581  1.4255 -1.0921 -0.6860
21322SOL    HW265183   7.640   6.271   3.437  0.1624 -3.6132 -0.5881
21323SOL     OW65184   8.297   6.871   2.556 -0.3462 -0.2759  0.3711
21323SOL    HW165185   8.388   6.886   2.529  0.5102 -1.0210  2.5720
21323SOL    HW265186   8.253   6.954   2.539  0.1538 -0.4966 -2.6250
21324SOL     OW65187   8.169   6.545   3.098  0.2879 -0.0794 -0.6068
21324SOL    HW165188   8.203   6.603   3.030 -0.0211 -0.0506 -0.7419
21324SOL    HW265189   8.228   6.557   3.172  0.8663 -0.4122 -1.0080
21325SOL     OW65190   7.954   5.957   2.365 -0.0571  0.1787  0.2015
21325SOL    HW165191   8.037   5.979   2.322  0.2544  0.7154  1.0546
21325SOL    HW265192   7.889   5.959   2.295  1.0306 -2.9294 -1.0403
21326SOL     OW65193   7.815   6.390   3.332  0.3496  0.0331 -0.3178
21326SOL    HW165194   7.776   6.342   3.259  0.9960 -0.1796 -0.5379
21326SOL    HW265195   7.780   6.478   3.326 -0.9313 -0.4236  0.1453
21327SOL     OW65196   8.472   7.891   3.118  0.1742  0.2130 -0.5818
21327SOL    HW165197   8.384   7.924   3.102 -0.2567 -1.1924 -1.3105
21327SOL    HW265198   8.487   7.829   3.047  1.3033 -0.4305  0.1906
21328SOL     OW65199   7.444   6.004   3.739 -0.1395 -0.3061 -0.2345
21328SOL    HW165200   7.508   6.017   3.670  0.5169  0.8337  0.5550
21328SOL    HW265201   7.392   5.930   3.710  1.3256 -1.0570 -1.0605
21329SOL     OW65202   7.691   6.065   2.200 -0.0626 -0.5946 -0.4579
21329SOL    HW165203   7.605   6.044   2.236  0.6023 -2.6891  0.0172
21329SOL    HW265204   7.700   6.008   2.124  0.3808  0.5792 -1.3095
21330SOL     OW65205   8.613   6.028   2.839 -0.2075  0.4179  0.6406
21330SOL    HW165206   8.524   5.994   2.832 -0.0141  0.1894 -1.4635
21330SOL    HW265207   8.639   6.010   2.929 -2.6131  1.3717  1.5971
21331SOL     OW65208   8.340   5.793   3.570 -0.3221  0.2892  0.5678
21331SOL    HW165209   8.266   5.810   3.511  0.0113  0.3416  0.1524
21331SOL    HW265210   8.339   5.698   3.583  0.3116  0.1211 -0.4936
21332SOL     OW65211   0.162   5.622   3.612 -0.0046 -0.0080 -0.0721
21332SOL    HW165212   0.225   5.616   3.683  1.1070 -2.0968 -1.1552
21332SOL    HW265213   0.117   5.538   3.613 -1.6875  0.8395 -0.3556
21333SOL     OW65214   8.004   6.658   3.385  0.4054 -0.5013 -0.1285
21333SOL    HW165215   8.019   6.728   3.448  0.3831 -2.6473  2.4214
21333SOL    HW265216   7.917   6.676   3.350  0.3691  0.6704  0.5145
21334SOL     OW65217   8.702   5.669   3.883  0.0581  0.2844  0.3162
21334SOL    HW165218   8.629   5.732   3.885  0.0041  0.2195  0.4068
21334SOL    HW265219   8.661   5.585   3.901  0.2035  0.2917  0.6971
21335SOL     OW65220   7.961   6.426   1.788  0.1072  0.3432 -0.1689
21335SOL    HW165221   8.008   6.455   1.866 -0.6038  2.1861 -0.3595
21335SOL    HW265222   7.926   6.507   1.750 -0.5066 -0.6251 -1.7847
21336SOL     OW65223   7.617   6.296   2.359  0.4041  0.0447 -0.2042
21336SOL    HW165224   7.611   6.206   2.327  0.0118  0.6844 -2.0811
21336SOL    HW265225   7.691   6.295   2.420  1.4507 -1.2359 -1.4053
21337SOL     OW65226   7.172   7.250   3.802 -0.2457  0.1789 -0.3527
21337SOL    HW165227   7.260   7.283   3.783 -0.4318 -0.0970 -1.7863
21337SOL    HW265228   7.154   7.188   3.732 -0.8763 -1.1523  0.9282
21338SOL     OW65229   8.193   6.032   2.274  0.1045 -0.0981 -0.1308
21338SOL    HW165230   8.251   5.963   2.243  1.4346  1.2185 -0.7163
21338SOL    HW265231   8.183   6.091   2.199 -0.3534  0.7635  0.5810
21339SOL     OW65232   0.060   7.040   2.488  0.0081 -0.1612 -0.3279
21339SOL    HW165233   0.117   7.057   2.563 -0.4051  0.0758 -0.0598
21339SOL    HW265234   0.000   7.115   2.486 -1.5189 -1.2815  0.5577
21340SOL     OW65235   8.036   5.644   2.803 -0.0078 -0.3105  0.0673
21340SOL    HW165236   8.028   5.736   2.828  1.1999 -0.1498 -0.0910
21340SOL    HW265237   8.130   5.627   2.802 -0.1710 -1.2938 -0.8089
21341SOL     OW65238   7.894   7.365   2.691 -0.0428  0.5588  0.1090
21341SOL    HW165239   7.845   7.284   2.679 -2.0103  1.7279 -0.3589
21341SOL    HW265240   7.848   7.428   2.636  0.9519  2.1750  1.0492
21342SOL     OW65241   7.654   7.547   2.767  0.4902 -0.7045  0.2818
21342SOL    HW165242   7.707   7.555   2.845  0.8969  0.8685 -0.1241
21342SOL    HW265243   7.600   7.627   2.766 -0.0181 -1.0401 -0.6573
21343SOL     OW65244   8.508   7.444   3.290 -0.3590  0.2430  0.7530
21343SOL    HW165245   8.539   7.520   3.241  1.8129 -0.3466  1.1220
21343SOL    HW265246   8.424   7.471   3.327  1.1578  3.1253  2.4046
21344SOL     OW65247   7.953   7.001   1.893  0.1698  0.1064 -0.2498
21344SOL    HW165248   8.022   7.010   1.958 -0.4850  2.4505  0.2141
21344SOL    HW265249   7.993   7.032   1.811 -0.0163  0.5041 -0.1938
21345SOL     OW65250   8.133   7.008   3.774  0.2960  0.3290  0.4048
21345SOL    HW165251   8.105   6.965   3.694  1.6418 -1.2949  0.7556
21345SOL    HW265252   8.052   7.020   3.824 -0.3056 -0.3894 -0.3644
21346SOL     OW65253   8.674   7.191   2.419 -0.1204  0.4801 -0.0165
21346SOL    HW165254   8.637   7.224   2.337 -2.6660 -0.7154  0.5531
21346SOL    HW265255   8.639   7.248   2.486 -0.1269 -0.0908  0.4748
21347SOL     OW65256   7.794   5.388   3.567 -0.1359 -0.4658  0.0200
21347SOL    HW165257   7.736   5.443   3.516 -0.5924  1.5683  2.5069
21347SOL    HW265258   7.753   5.382   3.653  1.9281 -1.3217  1.0412
21348SOL     OW65259   8.166   7.166   2.376 -0.5168 -0.9787  0.4785
21348SOL    HW165260   8.101   7.129   2.435  0.0367 -2.9616 -0.0814
21348SOL    HW265261   8.221   7.092   2.351  0.8126  0.2853 -0.5359
21349SOL     OW65262   7.455   7.152   2.975 -0.1512  0.5122 -0.2620
21349SOL    HW165263   7.526   7.122   3.033 -1.2147  0.2071  0.9265
21349SOL    HW265264   7.401   7.208   3.031 -2.3963 -1.4604 -0.3269
21350SOL     OW65265   7.997   7.818   2.159  0.4983  0.1893  0.6547
21350SOL    HW165266   7.902   7.814   2.149  0.6034 -1.6614 -0.0037
21350SOL    HW265267   8.012   7.809   2.253  0.0495 -0.6814  0.6473
21351SOL     OW65268   7.654   5.878   2.023 -0.1023 -0.2011  0.0029
21351SOL    HW165269   7.596   5.885   1.947 -0.1310 -3.0065 -0.3663
21351SOL    HW265270   7.601   5.834   2.089  0.8425 -0.5484  0.5400
21352SOL     OW65271   8.249   5.747   2.152 -0.2871 -0.5303  0.0985
21352SOL    HW165272   8.326   5.803   2.137 -0.0753 -1.0223 -0.6700
21352SOL    HW265273   8.185   5.777   2.088  0.2096 -1.8636 -1.0677
21353SOL     OW65274   7.948   5.619   3.967 -0.8476 -0.0967  0.3935
21353SOL    HW165275   8.012   5.568   3.916  0.1716  1.1177  0.3960
21353SOL    HW265276   7.994   5.700   3.988 -2.6797  1.2080 -0.3309
21354SOL     OW65277   8.232   6.668   2.834 -0.1720 -0.4463  0.1013
21354SOL    HW165278   8.249   6.762   2.831 -3.9169  0.5267  2.0854
21354SOL    HW265279   8.187   6.649   2.751 -2.4054  0.4131  1.0241
21355SOL     OW65280   8.697   6.306   3.338  0.3481  0.4869 -0.0625
21355SOL    HW165281   8.720   6.390   3.299  1.6823 -0.1117 -0.6466
21355SOL    HW265282   8.705   6.320   3.432 -0.8327  1.3830 -0.0832
21356SOL     OW65283   8.203   6.599   2.514 -0.1252 -0.4538  0.2101
21356SOL    HW165284   8.274   6.565   2.458  0.8710  1.5054  0.1964
21356SOL    HW265285   8.218   6.693   2.517 -2.2202 -0.0914  0.9929
21357SOL     OW65286   7.979   6.272   2.416 -0.0372  0.2720  0.4160
21357SOL    HW165287   8.022   6.188   2.400 -0.9539 -0.2655  0.7005
21357SOL    HW265288   7.930   6.289   2.335  1.3015  1.2636 -0.2106
21358SOL     OW65289   7.916   5.788   1.926 -0.1369 -0.7314 -0.2787
21358SOL    HW165290   7.924   5.706   1.975 -0.2255 -1.4526 -1.4482
21358SOL    HW265291   7.868   5.846   1.986 -3.1426 -2.5917 -0.6353
21359SOL     OW65292   8.429   6.771   1.511  0.3468 -0.3166 -0.0300
21359SOL    HW165293   8.344   6.777   1.466  0.2016  2.2439  0.3884
21359SOL    HW265294   8.409   6.727   1.594 -0.5596  0.1190 -0.0015
21360SOL     OW65295   7.355   5.210   1.809 -0.2498  0.2398 -0.4613
21360SOL    HW165296   7.312   5.152   1.746 -1.2533  1.4370 -0.9060
21360SOL    HW265297   7.389   5.282   1.756 -0.7681  1.0671  0.3111
21361SOL     OW65298   8.333   6.241   2.440  0.3884 -0.2240  0.3419
21361SOL    HW165299   8.253   6.191   2.420  0.4950 -0.6682  0.9817
21361SOL    HW265300   8.405   6.183   2.416  0.5140 -0.3387  0.9657
21362SOL     OW65301   8.249   5.934   3.233  0.1363  0.0325  0.3244
21362SOL    HW165302   8.194   5.944   3.310 -0.2507  1.8535 -0.1586
21362SOL    HW265303   8.323   5.992   3.248  0.4923 -0.2370 -0.3092
21363SOL     OW65304   8.100   7.228   2.860 -0.0255 -0.4299 -0.0497
21363SOL    HW165305   8.024   7.233   2.802 -0.8234 -1.2886  0.8814
21363SOL    HW265306   8.174   7.217   2.801 -0.7821 -0.9945 -0.9245
21364SOL     OW65307   7.865   6.724   2.143  0.1362 -0.1229  0.3339
21364SOL    HW165308   7.868   6.736   2.238 -0.2202 -0.5123  0.3937
21364SOL    HW265309   7.869   6.630   2.130  1.5917 -0.0228 -0.0980
21365SOL     OW65310   8.322   7.174   2.687  0.1406 -0.0142  0.5311
21365SOL    HW165311   8.377   7.252   2.681  0.1364 -0.0931 -0.7207
21365SOL    HW265312   8.376   7.110   2.733  0.6134  0.3236  0.4514
21366SOL     OW65313   8.302   6.207   1.664  0.9175 -0.1078  0.1284
21366SOL    HW165314   8.207   6.199   1.676  1.1158 -0.6950  1.4737
21366SOL    HW265315   8.330   6.267   1.733  1.7052 -1.0412  0.6442
21367SOL     OW65316   7.427   5.976   3.158 -0.0471 -0.3718 -0.2281
21367SOL    HW165317   7.371   6.047   3.189  0.8019  0.5107 -0.6575
21367SOL    HW265318   7.437   5.991   3.064  0.8326 -0.5455 -0.1768
21368SOL     OW65319   8.237   5.661   3.245  0.0500  0.2254 -0.3024
21368SOL    HW165320   8.308   5.640   3.185  1.4261  1.0459  0.9461
21368SOL    HW265321   8.237   5.757   3.250 -1.5959  0.2824 -0.7626
21369SOL     OW65322   8.619   6.627   2.466 -0.2327 -0.1019  0.7467
21369SOL    HW165323   8.589   6.623   2.556 -0.2026 -0.1481  0.7545
21369SOL    HW265324   8.670   6.547   2.454 -0.0859 -0.0081  0.7432
21370SOL     OW65325   8.146   5.822   2.547 -0.2000 -0.7974 -0.4346
21370SOL    HW165326   8.174   5.877   2.620 -0.3450 -0.5298 -0.5803
21370SOL    HW265327   8.072   5.869   2.508 -1.1912 -1.7528  0.2595
21371SOL     OW65328   8.131   7.178   1.752  0.0679 -0.2093 -0.3363
21371SOL    HW165329   8.169   7.231   1.682  2.7156 -2.6404 -0.9640
21371SOL    HW265330   8.200   7.174   1.818 -0.4723 -1.9207  0.1633
21372SOL     OW65331   8.584   6.548   2.040 -0.7057  0.1664 -0.1772
21372SOL    HW165332   8.637   6.470   2.056 -1.2491 -0.7007 -2.2478
21372SOL    HW265333   8.607   6.574   1.950 -0.7934  2.2059  0.3434
21373SOL     OW65334   8.146   6.138   2.008 -0.5533 -0.5363 -0.6066
21373SOL    HW165335   8.229   6.186   2.011 -0.8640 -0.0125  1.9798
21373SOL    HW265336   8.105   6.165   1.927  1.2406  0.1577 -1.3348
21374SOL     OW65337   8.417   7.158   3.201 -0.1378  0.1487 -0.3289
21374SOL    HW165338   8.453   7.246   3.216 -0.4504  0.2350 -0.0584
21374SOL    HW265339   8.450   7.106   3.275 -0.5300  0.2190 -0.1001
21375SOL     OW65340   8.754   7.454   3.063 -0.4008  0.8583 -0.3424
21375SOL    HW165341   8.765   7.506   3.142 -0.0560  1.0385 -0.5095
21375SOL    HW265342   8.816   7.381   3.072 -2.4094 -0.8220  0.9404
21376SOL     OW65343   8.460   5.470   3.384 -0.3839 -0.3416  0.2696
21376SOL    HW165344   8.438   5.496   3.294  0.7175 -2.2464 -0.6074
21376SOL    HW265345   8.554   5.488   3.392 -0.5658  0.2683  1.2481
21377SOL     OW65346   8.747   6.437   3.622  0.4703  0.2607 -0.5183
21377SOL    HW165347   8.741   6.382   3.700  2.2816  0.4113 -0.2144
21377SOL    HW265348   8.775   6.522   3.656 -0.0739  0.7232 -1.2116
21378SOL     OW65349   7.935   6.154   1.290 -0.4761  0.7781  0.3661
21378SOL    HW165350   7.899   6.140   1.377  0.8129 -1.0231  0.6676
21378SOL    HW265351   7.880   6.102   1.232 -1.7117  2.4512 -0.0609
21379SOL     OW65352   7.723   6.240   3.109  0.3309  0.2808 -0.1475
21379SOL    HW165353   7.791   6.236   3.041 -0.4413  1.1536 -1.0187
21379SOL    HW265354   7.665   6.166   3.090 -0.3410  0.9915 -0.9919
21380SOL     OW65355   8.631   5.710   3.305  0.1265  0.0996  0.0759
21380SOL    HW165356   8.679   5.640   3.350 -0.2869  1.0281  2.0649
21380SOL    HW265357   8.617   5.777   3.372  0.7497  2.2610 -1.8091
21381SOL     OW65358   7.478   6.694   3.095  0.0543 -0.4711  0.1764
21381SOL    HW165359   7.457   6.602   3.105  1.0116 -0.7224 -0.0186
21381SOL    HW265360   7.409   6.740   3.142 -0.0609 -1.3091  0.8401
21382SOL     OW65361   7.877   7.322   1.759  0.2431  0.1848 -0.0468
21382SOL    HW165362   7.961   7.281   1.779  0.4460  0.1911 -0.8466
21382SOL    HW265363   7.824   7.309   1.838  0.4219 -1.2889 -0.1399
21383SOL     OW65364   8.007   5.892   2.900 -0.1122 -0.2326  0.0266
21383SOL    HW165365   7.951   5.962   2.868 -1.4013  0.0063  2.5957
21383SOL    HW265366   8.083   5.936   2.938 -0.0493 -0.3371  0.0242
21384SOL     OW65367   8.726   7.029   2.954  0.3818 -0.1223  0.2782
21384SOL    HW165368   8.711   6.972   2.879 -1.3494  1.1667 -0.4117
21384SOL    HW265369   8.797   6.986   3.003 -0.3214 -2.4379 -0.6058
21385SOL     OW65370   0.063   7.827   3.158 -0.4640  0.2240  0.1266
21385SOL    HW165371   0.061   7.917   3.191 -0.4395  0.6105 -0.8722
21385SOL    HW265372   0.125   7.830   3.085  0.4949 -0.9008  0.8752
21386SOL     OW65373   7.167   7.505   2.889 -0.7166 -0.2889  0.2489
21386SOL    HW165374   7.169   7.467   2.977  1.6763  0.3775  0.5493
21386SOL    HW265375   7.243   7.563   2.886 -0.5277 -0.5504 -2.3832
21387SOL     OW65376   7.666   5.972   3.574 -0.2820 -0.1565  0.3858
21387SOL    HW165377   7.721   6.051   3.581  2.7313 -2.1246  0.8604
21387SOL    HW265378   7.655   5.958   3.480  0.3592  0.0812  0.2715
21388SOL     OW65379   8.253   5.249   3.955  0.7809 -0.5513 -0.7269
21388SOL    HW165380   8.235   5.192   3.880  1.5418 -0.6552 -0.8362
21388SOL    HW265381   8.221   5.201   4.031  0.2712 -0.5733 -0.9506
21389SOL     OW65382   7.687   5.719   3.654 -0.2956 -0.1939 -0.0045
21389SOL    HW165383   7.656   5.658   3.586  0.9041  0.0092 -0.7558
21389SOL    HW265384   7.642   5.801   3.634 -2.4757 -0.9419  1.4331
21390SOL     OW65385   7.861   6.359   2.864  0.1941  0.0432 -0.1718
21390SOL    HW165386   7.849   6.432   2.924 -1.3676 -0.1840 -0.1623
21390SOL    HW265387   7.885   6.399   2.781  0.4330  0.4946  0.1161
21391SOL     OW65388   8.474   6.315   2.979 -0.2752 -0.5236 -0.2546
21391SOL    HW165389   8.438   6.341   2.895  0.3119 -0.6685 -0.5535
21391SOL    HW265390   8.558   6.273   2.958 -0.0560 -0.4301  0.4084
21392SOL     OW65391   8.390   6.247   1.976  0.6327 -0.0691 -0.3632
21392SOL    HW165392   8.480   6.216   1.968  1.6346  2.2190  1.0046
21392SOL    HW265393   8.397   6.342   1.968 -1.7384  0.1438 -0.5950
21393SOL     OW65394   7.605   5.661   2.763 -0.2802  0.8913 -0.2540
21393SOL    HW165395   7.652   5.692   2.686  0.9915  0.2421  0.2241
21393SOL    HW265396   7.673   5.648   2.829 -1.4285  2.2020  1.2633
21394SOL     OW65397   7.778   6.557   2.664  0.3426  0.0186 -0.1619
21394SOL    HW165398   7.700   6.510   2.693  0.1510 -0.4879 -1.4634
21394SOL    HW265399   7.754   6.597   2.581  1.5132 -0.2801 -0.6739
21395SOL     OW65400   7.849   6.094   2.825  0.0510  0.2344  0.5157
21395SOL    HW165401   7.859   6.186   2.848 -1.8176  0.4597  0.6325
21395SOL    HW265402   7.839   6.093   2.730  0.4126  0.1174  0.4790
21396SOL     OW65403   7.776   5.718   2.276 -0.5469 -1.0007  0.1173
21396SOL    HW165404   7.734   5.636   2.303 -1.3919 -0.0972  1.7166
21396SOL    HW265405   7.840   5.691   2.210 -0.0979 -3.0793  1.2907
21397SOL     OW65406   8.724   6.033   2.109  0.2863 -0.4568  0.6725
21397SOL    HW165407   8.800   6.017   2.166  2.8132 -0.9071 -2.5595
21397SOL    HW265408   8.733   6.125   2.083  1.5132 -1.2483 -1.9803
21398SOL     OW65409   8.495   6.019   2.550 -0.0365  0.3523  0.3387
21398SOL    HW165410   8.443   6.026   2.630  0.4545  0.9089  0.6141
21398SOL    HW265411   8.571   6.075   2.565 -0.6169  1.5718 -1.0671
21399SOL     OW65412   8.723   6.842   3.379 -0.3182  0.3012 -0.5658
21399SOL    HW165413   8.659   6.914   3.368 -1.3892 -0.7709 -1.6964
21399SOL    HW265414   8.670   6.763   3.371  1.1366 -0.6213 -1.3235
21400SOL     OW65415   7.742   6.360   3.711  0.0362  0.0855 -0.4329
21400SOL    HW165416   7.829   6.373   3.673  0.0780  1.1797  0.0225
21400SOL    HW265417   7.759   6.325   3.798  0.0136  0.3271 -0.3331
21401SOL     OW65418   8.665   6.749   2.225  0.1298  0.5851 -0.4008
21401SOL    HW165419   8.655   6.696   2.305  1.1089  0.0325 -0.6323
21401SOL    HW265420   8.645   6.688   2.154  0.7921  0.6480 -0.6462
21402SOL     OW65421   8.052   7.143   3.118  0.6507 -1.0034 -0.3953
21402SOL    HW165422   8.090   7.140   3.031 -0.4003 -0.2215 -0.9037
21402SOL    HW265423   7.985   7.211   3.113 -0.9340 -2.4264  0.4153
21403SOL     OW65424   7.840   6.336   2.189  0.2648  0.1973 -0.5953
21403SOL    HW165425   7.773   6.404   2.196 -0.3023 -0.3015 -1.0802
21403SOL    HW265426   7.792   6.258   2.162  0.6497 -0.8108  1.4181
21404SOL     OW65427   7.765   6.078   2.567  0.0334  0.4284  0.0395
21404SOL    HW165428   7.675   6.055   2.593 -0.4133  0.5179 -1.3546
21404SOL    HW265429   7.782   6.026   2.489  1.5897 -0.3320  0.8303
21405SOL     OW65430   8.477   5.821   3.957  0.0310  0.2010 -0.3107
21405SOL    HW165431   8.437   5.879   3.892 -0.9683  0.1852  0.2820
21405SOL    HW265432   8.405   5.794   4.014  0.9910  0.6424  1.1525
21406SOL     OW65433   8.428   6.111   3.310 -0.0996  0.3195  0.6542
21406SOL    HW165434   8.495   6.062   3.358  0.2731  0.9997  0.8499
21406SOL    HW265435   8.473   6.138   3.229 -1.1852 -2.1640 -0.8628
21407SOL     OW65436   7.454   6.943   1.955  0.2599 -0.2923 -0.3352
21407SOL    HW165437   7.433   6.879   1.888  1.1622  2.3017 -3.3156
21407SOL    HW265438   7.549   6.945   1.959  0.2440  0.5424  0.0418
21408SOL     OW65439   7.007   7.510   2.530 -0.8795  0.1304 -0.0882
21408SOL    HW165440   7.057   7.590   2.550 -0.1931 -0.2355 -0.3143
21408SOL    HW265441   6.977   7.479   2.616 -0.5961  0.2795  0.0684
21409SOL     OW65442   8.144   6.764   2.051 -0.1911 -0.0342 -0.1572
21409SOL    HW165443   8.200   6.693   2.080  1.1638  0.9565 -0.2868
21409SOL    HW265444   8.056   6.725   2.047  0.6257 -1.8732 -0.9295
21410SOL     OW65445   8.234   6.046   2.975  0.4696 -0.6614 -0.2878
21410SOL    HW165446   8.190   6.130   2.990  1.0912 -0.3942  0.0865
21410SOL    HW265447   8.224   5.999   3.058  1.5529 -0.2853  0.0673
21411SOL     OW65448   7.427   6.592   3.604 -0.1112  0.6004 -0.3780
21411SOL    HW165449   7.487   6.600   3.678  1.0078 -0.2223 -1.1459
21411SOL    HW265450   7.454   6.662   3.544 -1.1873  1.4360  0.0777
21412SOL     OW65451   7.117   5.711   3.250  0.5033  0.1166  0.3198
21412SOL    HW165452   7.032   5.743   3.279  0.4901  1.0911 -0.7151
21412SOL    HW265453   7.107   5.701   3.155  1.7189  0.8148  0.1043
21413SOL     OW65454   8.319   6.568   2.119  0.4209 -0.0596  0.4421
21413SOL    HW165455   8.384   6.550   2.052 -1.2502 -1.1771 -0.9663
21413SOL    HW265456   8.361   6.542   2.201  2.0845  0.2243 -0.2974
21414SOL     OW65457   7.214   7.182   3.152  0.5901 -0.3113 -0.0840
21414SOL    HW165458   7.179   7.127   3.082  0.8560 -0.3014 -0.2277
21414SOL    HW265459   7.144   7.187   3.217  0.4863 -0.6412 -0.1700
21415SOL     OW65460   7.915   5.633   3.216 -0.5271 -0.6114 -0.2075
21415SOL    HW165461   7.919   5.579   3.138 -0.7702  0.5303 -1.0374
21415SOL    HW265462   7.959   5.582   3.284  2.3140 -0.4654 -1.7886
21416SOL     OW65463   8.729   7.317   3.412 -0.1291 -0.7811 -0.0684
21416SOL    HW165464   8.674   7.288   3.485  1.6565 -0.5123  1.4441
21416SOL    HW265465   8.670   7.368   3.356 -1.5094 -0.8652  1.2539
21417SOL     OW65466   8.023   6.162   1.758  0.2500 -0.2598  0.3423
21417SOL    HW165467   8.012   6.257   1.747 -0.1013 -0.1770  1.2878
21417SOL    HW265468   7.946   6.124   1.716  0.9541 -0.2031 -1.0388
21418SOL     OW65469   7.753   6.717   3.265  0.0300  0.1242  0.3678
21418SOL    HW165470   7.690   6.781   3.296  1.0862  1.0540  0.6407
21418SOL    HW265471   7.734   6.707   3.172 -1.4072 -0.6680  0.7141
21419SOL     OW65472   8.343   6.807   3.570  0.1994 -0.1338  0.9733
21419SOL    HW165473   8.389   6.728   3.596 -1.2286 -1.8677 -1.4014
21419SOL    HW265474   8.253   6.779   3.555 -0.2294  1.7867 -0.4665
21420SOL     OW65475   8.824   6.979   2.216  0.5938 -0.4279  0.3515
21420SOL    HW165476   8.780   6.894   2.217 -1.5436  0.6012  1.3644
21420SOL    HW265477   8.860   6.989   2.305 -0.6844  0.4008  0.8115
21421SOL     OW65478   0.217   7.463   2.712  0.8120  0.0799  0.0615
21421SOL    HW165479   0.307   7.488   2.731  0.9195  0.1026 -0.4660
21421SOL    HW265480   0.221   7.369   2.695  0.6048 -0.0739  0.8172
21422SOL     OW65481   7.562   6.911   2.750 -0.1460  0.5048  0.0512
21422SOL    HW165482   7.623   6.852   2.794 -1.2572  0.1450  1.1512
21422SOL    HW265483   7.480   6.899   2.796 -0.7440  1.9127 -0.6082
21423SOL     OW65484   8.025   6.905   3.554 -0.6783 -0.0865 -1.3280
21423SOL    HW165485   8.059   6.945   3.474  0.3219  0.1553 -0.7923
21423SOL    HW265486   7.930   6.908   3.543 -0.5775  0.8416 -2.0746
21424SOL     OW65487   0.233   7.173   2.679  0.0183  0.3545  0.2580
21424SOL    HW165488   0.327   7.161   2.664  0.1668  1.1902  0.4869
21424SOL    HW265489   0.208   7.098   2.733  0.4374 -0.1571 -0.2373
21425SOL     OW65490   7.008   7.134   4.008  0.4080 -0.2643  0.1033
21425SOL    HW165491   7.080   7.184   3.971 -0.7342  0.6339 -1.0043
21425SOL    HW265492   7.017   7.144   4.103 -0.1934  2.7516 -0.0461
21426SOL     OW65493   8.694   6.874   2.741 -0.2903  0.0239  0.0350
21426SOL    HW165494   8.708   6.781   2.725 -0.7167  0.2467 -1.9374
21426SOL    HW265495   8.645   6.904   2.664  0.6428  2.0649  0.1792
21427SOL     OW65496   8.102   7.262   3.503 -0.4520 -0.3957  0.3524
21427SOL    HW165497   8.032   7.225   3.556  0.8715 -0.7155  1.9665
21427SOL    HW265498   8.138   7.187   3.454  1.0627 -0.9926  2.2679
21428SOL     OW65499   8.052   7.039   1.549 -0.0647 -0.0554 -0.0023
21428SOL    HW165500   8.064   7.079   1.635  1.8067  0.6609 -0.5306
21428SOL    HW265501   8.020   7.110   1.493  1.6028  0.3195 -0.5435
21429SOL     OW65502   7.031   6.280   2.494 -0.4051 -0.3517  0.6396
21429SOL    HW165503   6.936   6.266   2.496 -0.2071 -2.2332 -0.4125
21429SOL    HW265504   7.053   6.308   2.583 -2.0507  1.1271  0.6315
21430SOL     OW65505   0.228   6.852   2.037  0.1452 -0.8744 -0.1418
21430SOL    HW165506   0.264   6.880   2.121  0.2275 -0.8738 -0.1773
21430SOL    HW265507   0.292   6.790   2.002 -0.7284 -2.2321  0.6016
21431SOL     OW65508   7.907   6.595   3.024  0.1369  0.1227 -0.5361
21431SOL    HW165509   7.938   6.675   2.981 -1.3943  2.0408  1.6517
21431SOL    HW265510   7.978   6.570   3.083  0.4829  0.0893 -0.9677
21432SOL     OW65511   8.318   6.478   1.797 -0.0436 -0.0013 -0.4442
21432SOL    HW165512   8.293   6.570   1.810  0.1248 -0.1748  1.4065
21432SOL    HW265513   8.393   6.482   1.737 -1.0654  0.9205 -1.7179
21433SOL     OW65514   7.759   6.892   3.523 -0.5537  0.1287  0.2859
21433SOL    HW165515   7.736   6.801   3.545  0.6727 -0.3949 -0.4864
21433SOL    HW265516   7.698   6.945   3.575 -0.8002 -1.1175  1.3355
21434SOL     OW65517   8.361   6.378   2.731 -0.2868  0.3968  0.4414
21434SOL    HW165518   8.267   6.363   2.722 -0.1909  0.3547 -0.5688
21434SOL    HW265519   8.399   6.337   2.654  0.5902  0.2103  0.9654
21435SOL     OW65520   8.357   5.943   2.760  0.4697 -0.3922  0.1649
21435SOL    HW165521   8.350   5.849   2.774  1.8656 -0.5167  0.1191
21435SOL    HW265522   8.296   5.981   2.823  1.0116 -1.2704  1.2447
21436SOL     OW65523   7.929   7.037   2.505  0.4689  0.1674  0.2395
21436SOL    HW165524   7.867   7.059   2.575 -1.9292 -0.5578 -1.5141
21436SOL    HW265525   7.965   6.952   2.531 -3.0716 -1.9078 -0.8667
21437SOL     OW65526   7.470   6.905   2.220 -0.1543 -0.2657  0.0965
21437SOL    HW165527   7.419   6.824   2.214 -1.8793  0.8338 -0.9255
21437SOL    HW265528   7.460   6.946   2.134  1.8145  0.4221  0.1444
21438SOL     OW65529   7.575   6.602   3.836  0.1410  0.1151  0.2246
21438SOL    HW165530   7.650   6.551   3.868 -0.9943 -2.0202 -0.2864
21438SOL    HW265531   7.504   6.579   3.896 -0.2566  1.7676  0.4386
21439SOL     OW65532   8.553   5.921   3.479 -0.0704  0.7728 -0.2872
21439SOL    HW165533   8.477   5.874   3.514  0.4758 -1.1333 -1.4864
21439SOL    HW265534   8.565   5.995   3.538 -0.6922 -0.8777  2.0328
21440SOL     OW65535   7.553   5.879   1.477  0.4618  0.2680  0.2773
21440SOL    HW165536   7.647   5.898   1.478 -0.2166  4.5554  0.1665
21440SOL    HW265537   7.547   5.791   1.440  4.4171 -0.5637  1.1028
21441SOL     OW65538   8.090   6.293   3.005  0.3403  0.3445  0.8047
21441SOL    HW165539   8.012   6.284   2.951 -1.2941 -0.1067  3.0973
21441SOL    HW265540   8.113   6.386   2.998  1.3873 -0.0380 -2.1122
21442SOL     OW65541   7.821   5.816   1.692 -0.0124  0.8926  0.1686
21442SOL    HW165542   7.864   5.800   1.777 -0.2919 -0.6141  0.0450
21442SOL    HW265543   7.873   5.765   1.629 -1.2969 -0.0583 -0.1576
21443SOL     OW65544   8.498   6.856   1.864 -0.3602  0.1194  0.6550
21443SOL    HW165545   8.427   6.792   1.852  1.8032 -2.1615 -1.0669
21443SOL    HW265546   8.575   6.813   1.827  1.6682  3.0381  1.1769
21444SOL     OW65547   8.128   6.280   3.304 -0.1154 -0.3224  0.1080
21444SOL    HW165548   8.145   6.269   3.211  1.7007 -1.1345  0.4897
21444SOL    HW265549   8.040   6.318   3.308 -0.1615 -0.0987 -1.9206
21445SOL     OW65550   7.964   5.710   3.677  0.1703  0.4203  0.2684
21445SOL    HW165551   7.871   5.709   3.654  0.5350 -0.2353 -1.3636
21445SOL    HW265552   7.972   5.644   3.746 -0.3176 -0.8791 -0.8621
21446SOL     OW65553   8.493   6.991   3.441 -0.1839 -0.1053  0.6040
21446SOL    HW165554   8.530   7.036   3.517  0.2851 -1.1449  1.0063
21446SOL    HW265555   8.432   6.927   3.477  0.5802 -1.1154  0.1652
21447SOL     OW65556   7.781   7.117   3.324  0.7413  0.1205 -0.5514
21447SOL    HW165557   7.812   7.171   3.397  1.5116 -1.0416  0.0190
21447SOL    HW265558   7.758   7.034   3.365  0.0160 -0.1441 -1.4768
21448SOL     OW65559   8.709   6.307   2.177  0.4361  0.2550 -0.2243
21448SOL    HW165560   8.664   6.294   2.260  0.2159  1.6053 -0.1108
21448SOL    HW265561   8.799   6.330   2.201  0.1441  1.5760 -0.2950
21449SOL     OW65562   8.021   6.474   2.062 -0.0269  0.5101  0.2760
21449SOL    HW165563   8.100   6.459   2.114  1.3730  0.5785 -1.6949
21449SOL    HW265564   7.967   6.397   2.079  2.2625 -1.6428 -1.3114
21450SOL     OW65565   8.228   6.769   1.793 -0.2300  0.4905  0.2400
21450SOL    HW165566   8.168   6.777   1.867 -0.3669  2.7667 -0.0632
21450SOL    HW265567   8.173   6.786   1.716  0.3632  0.3760 -0.2117
21451SOL     OW65568   7.929   6.798   2.671 -0.3811  0.2299 -0.0248
21451SOL    HW165569   7.883   6.715   2.682  1.1245 -0.6235  0.0543
21451SOL    HW265570   7.930   6.836   2.759 -1.0045  0.3009 -0.0445
21452SOL     OW65571   8.096   6.370   2.657 -0.4130  0.1474 -0.1443
21452SOL    HW165572   8.118   6.442   2.598  0.4115 -1.2606 -1.6518
21452SOL    HW265573   8.036   6.315   2.606 -2.4780  0.6314  1.6278
21453SOL     OW65574   8.661   6.646   1.762  0.4841 -0.3014 -1.1218
21453SOL    HW165575   8.729   6.691   1.710  1.0222 -1.2616 -1.2742
21453SOL    HW265576   8.643   6.566   1.713  0.6702 -1.0123 -0.0604
21454SOL     OW65577   7.362   6.504   4.001 -0.2996 -0.4059  0.3957
21454SOL    HW165578   7.287   6.536   3.949  1.0619 -1.0755 -2.1710
21454SOL    HW265579   7.347   6.540   4.088 -3.0570  0.3544 -0.2711
21455SOL     OW65580   7.666   6.797   2.396 -0.1901  0.1981 -0.3024
21455SOL    HW165581   7.754   6.827   2.415 -0.4233  0.6157  0.1259
21455SOL    HW265582   7.636   6.853   2.325  0.3523 -0.7843 -1.3462
21456SOL     OW65583   8.021   6.609   3.798  0.1309 -0.0767 -0.1770
21456SOL    HW165584   7.990   6.683   3.747  0.2285 -0.0165 -0.1484
21456SOL    HW265585   7.948   6.546   3.796 -0.8066  0.8810  1.5345
21457SOL     OW65586   7.459   6.046   2.306 -0.1693  0.3713  0.4322
21457SOL    HW165587   7.466   5.952   2.324 -0.4808  0.2932  0.1486
21457SOL    HW265588   7.371   6.057   2.270 -0.4283  0.9043  1.2297
21458SOL     OW65589   7.660   5.936   3.304  0.2891  0.3355 -0.1685
21458SOL    HW165590   7.577   5.961   3.263 -0.3664 -0.8717  0.3535
21458SOL    HW265591   7.718   5.916   3.231 -0.5040 -0.6781 -0.5437
21459SOL     OW65592   8.451   7.064   2.962  0.2111 -0.9501  0.3665
21459SOL    HW165593   8.424   7.092   3.050  0.9359 -1.2065  0.6767
21459SOL    HW265594   8.547   7.062   2.966  0.3099  0.3802 -0.8579
21460SOL     OW65595   8.575   5.312   3.133  0.0166 -0.7851 -0.0314
21460SOL    HW165596   8.557   5.222   3.105  0.0342 -0.8420  0.1436
21460SOL    HW265597   8.547   5.316   3.224 -0.2907 -0.5216 -0.1354
21461SOL     OW65598   8.298   5.698   2.855 -0.1327  0.3673  0.1686
21461SOL    HW165599   8.264   5.650   2.930  0.0932 -1.1704 -0.6646
21461SOL    HW265600   8.370   5.643   2.822 -0.5700  0.7096 -1.4735
21462SOL     OW65601   8.096   6.759   1.567  0.6260  0.2635 -0.8642
21462SOL    HW165602   8.076   6.852   1.560 -0.6439  0.0543 -0.3464
21462SOL    HW265603   8.033   6.717   1.509  0.0606 -0.3809  0.1846
21463SOL     OW65604   7.714   7.051   3.044  0.5024  0.0290 -0.2502
21463SOL    HW165605   7.747   7.094   3.123  1.2305 -0.7843 -0.0947
21463SOL    HW265606   7.736   7.112   2.973  0.3964  0.4796  0.0974
21464SOL     OW65607   8.669   5.674   2.600  0.2417 -0.3862 -0.1951
21464SOL    HW165608   8.608   5.746   2.617  1.5193  0.3302  1.6717
21464SOL    HW265609   8.675   5.669   2.504 -0.9541  1.0531 -0.3690
21465SOL     OW65610   7.641   6.524   2.213 -0.1421  0.0679  0.2392
21465SOL    HW165611   7.600   6.472   2.282 -1.7531 -0.4346 -1.0364
21465SOL    HW265612   7.603   6.612   2.224 -1.1047 -0.2402 -0.5538
21466SOL     OW65613   8.299   6.954   2.198 -0.8068  0.2483 -0.2499
21466SOL    HW165614   8.378   6.900   2.198 -0.3172  0.9140 -1.7598
21466SOL    HW265615   8.228   6.892   2.177 -0.6688 -0.3030  0.8638
21467SOL     OW65616   7.360   6.065   4.105 -0.0496  0.4907  0.1703
21467SOL    HW165617   7.338   5.974   4.086  0.9612  0.4803 -1.0923
21467SOL    HW265618   7.312   6.085   4.185 -0.2898 -1.1480  0.4696
21468SOL     OW65619   7.694   5.751   5.037 -0.2391  0.3620 -0.1043
21468SOL    HW165620   7.743   5.673   5.014  1.7713  1.6236 -0.3147
21468SOL    HW265621   7.678   5.796   4.954 -1.0229  0.4111  0.0569
21469SOL     OW65622   7.330   6.021   4.572 -0.4423 -0.0361 -0.1295
21469SOL    HW165623   7.304   5.930   4.577  2.9664 -1.1289  0.8829
21469SOL    HW265624   7.367   6.041   4.658  0.5211  1.7006 -0.8734
21470SOL     OW65625   8.283   7.074   4.950  0.1721  0.5510 -0.2720
21470SOL    HW165626   8.227   7.021   5.008  1.5253 -0.5302  0.0966
21470SOL    HW265627   8.302   7.152   5.002  0.4443  0.1118  0.3042
21471SOL     OW65628   0.017   7.377   3.936 -0.2676 -0.0898 -0.0975
21471SOL    HW165629   0.030   7.306   3.873 -0.7334  1.4044 -1.9623
21471SOL    HW265630   0.104   7.389   3.976  0.0283 -1.0950 -0.4039
21472SOL     OW65631   8.518   6.106   4.623  0.4807  0.1013 -0.7693
21472SOL    HW165632   8.603   6.146   4.602  0.6068 -0.5678 -1.5933
21472SOL    HW265633   8.540   6.016   4.647  0.0054 -0.0659 -0.9577
21473SOL     OW65634   8.264   6.695   4.614  0.0560  0.0417 -0.1163
21473SOL    HW165635   8.269   6.773   4.559  0.8844  0.3347  0.3642
21473SOL    HW265636   8.354   6.667   4.625 -0.1721 -0.5279  0.3677
21474SOL     OW65637   7.990   6.203   5.665  0.0834 -0.7823 -0.0267
21474SOL    HW165638   7.939   6.124   5.681  0.0869 -0.4260  2.1353
21474SOL    HW265639   7.924   6.272   5.653  0.0586 -0.7881  0.0713
21475SOL     OW65640   8.150   6.497   4.138  0.0863  0.2803  0.1843
21475SOL    HW165641   8.125   6.421   4.190  0.5049  0.3767  0.5384
21475SOL    HW265642   8.105   6.571   4.179 -0.9779  0.1114 -0.6622
21476SOL     OW65643   8.142   6.360   5.462 -0.2425  0.1624 -0.1525
21476SOL    HW165644   8.162   6.444   5.421  0.2424  0.3072  0.3569
21476SOL    HW265645   8.074   6.380   5.526 -0.7980 -0.0097 -0.6885
21477SOL     OW65646   7.593   7.247   4.437 -0.3637 -0.1772  0.2026
21477SOL    HW165647   7.589   7.201   4.353  1.8271  0.7764 -0.4971
21477SOL    HW265648   7.653   7.195   4.490 -0.0099  0.3981  0.3742
21478SOL     OW65649   8.149   5.664   5.037 -0.2553 -0.1514  0.2314
21478SOL    HW165650   8.202   5.611   5.097  0.0995  0.8435  0.8104
21478SOL    HW265651   8.199   5.745   5.026 -0.5005 -0.1703 -1.1251
21479SOL     OW65652   7.296   7.115   4.117 -0.4173 -0.1821  0.1301
21479SOL    HW165653   7.274   7.208   4.109 -1.0692 -0.4460 -1.6665
21479SOL    HW265654   7.251   7.087   4.197 -0.3813  0.9975  0.5861
21480SOL     OW65655   8.425   6.889   5.131 -0.1670 -0.4132  0.3700
21480SOL    HW165656   8.501   6.874   5.186  0.4706 -1.4227 -0.7510
21480SOL    HW265657   8.461   6.919   5.048 -1.0824  0.5701  0.3021
21481SOL     OW65658   7.449   6.727   4.519  0.1085  0.5341  0.0067
21481SOL    HW165659   7.478   6.790   4.584 -1.0288 -0.7014  1.7742
21481SOL    HW265660   7.521   6.664   4.513 -0.3575 -0.1283  1.1496
21482SOL     OW65661   7.944   6.912   4.256  0.6135 -0.2418  0.3769
21482SOL    HW165662   8.016   6.973   4.243 -0.2522  0.4253 -1.7211
21482SOL    HW265663   7.873   6.965   4.293 -0.0479  0.0188 -1.1869
21483SOL     OW65664   8.186   7.420   4.787 -0.0774  0.5595  0.1923
21483SOL    HW165665   8.110   7.363   4.773 -0.1452  0.5584  0.5467
21483SOL    HW265666   8.158   7.506   4.756  0.1167  0.3456 -0.5938
21484SOL     OW65667   7.946   6.434   3.561 -0.8190 -0.2044 -0.2570
21484SOL    HW165668   7.899   6.400   3.485 -0.4836  0.6585 -0.8809
21484SOL    HW265669   7.996   6.509   3.526 -1.5118  0.9097  1.0305
21485SOL     OW65670   7.692   6.150   4.138  0.4682  0.3377 -0.0649
21485SOL    HW165671   7.690   6.126   4.230  1.2788  1.4839  0.2861
21485SOL    HW265672   7.781   6.128   4.109  0.0942 -0.3913 -0.6916
21486SOL     OW65673   7.402   6.999   3.883  0.3077  0.9478  0.0870
21486SOL    HW165674   7.325   6.950   3.852  0.6632  0.4999 -0.0931
21486SOL    HW265675   7.372   7.040   3.965  0.0215  0.3630  0.2845
21487SOL     OW65676   0.254   6.258   4.169 -0.0993  0.2536  0.0569
21487SOL    HW165677   0.257   6.181   4.112  0.2327 -0.8646  1.5366
21487SOL    HW265678   0.303   6.325   4.121  0.7383 -0.8560 -0.6976
21488SOL     OW65679   7.877   6.177   5.112 -0.6304 -0.6573 -0.1570
21488SOL    HW165680   7.897   6.265   5.079 -3.1697 -0.1566 -0.5520
21488SOL    HW265681   7.946   6.160   5.176  0.5134  1.1884 -0.7922
21489SOL     OW65682   8.125   7.106   4.272 -0.1277  0.3754  0.0992
21489SOL    HW165683   8.214   7.112   4.237 -0.1697 -1.7347 -0.4786
21489SOL    HW265684   8.070   7.145   4.203  0.2821  1.4251  0.3371
21490SOL     OW65685   8.763   6.610   4.905 -0.4719  0.1838 -0.0016
21490SOL    HW165686   8.687   6.645   4.857 -0.2245 -1.0046 -1.3064
21490SOL    HW265687   8.830   6.677   4.895 -0.6627  0.2790 -0.6998
21491SOL     OW65688   8.083   5.851   4.005 -0.1501  0.4056  0.1777
21491SOL    HW165689   8.153   5.871   3.943  1.4699  0.3894  1.9212
21491SOL    HW265690   8.056   5.936   4.040  0.1054  0.3032  0.6390
21492SOL     OW65691   7.934   6.997   4.763  0.0775  0.1617 -0.2600
21492SOL    HW165692   7.918   6.932   4.832 -1.5874 -0.0850 -0.8321
21492SOL    HW265693   7.977   7.069   4.808  1.0466 -0.9033  0.5876
21493SOL     OW65694   8.380   7.443   4.982 -0.6653 -0.4421 -0.3599
21493SOL    HW165695   8.366   7.360   5.026 -2.1182  0.0358  0.1302
21493SOL    HW265696   8.299   7.459   4.933  0.2513 -0.1417 -1.8572
21494SOL     OW65697   7.607   5.893   5.983  0.0698 -0.4268  0.5853
21494SOL    HW165698   7.687   5.905   5.932 -0.5054 -0.0839 -0.2529
21494SOL    HW265699   7.622   5.813   6.034  1.3244  0.1587  1.1756
21495SOL     OW65700   7.950   6.197   3.837 -0.7536 -0.2586  0.1543
21495SOL    HW165701   7.958   6.135   3.765  0.0591 -0.8603  0.7418
21495SOL    HW265702   8.032   6.247   3.834 -0.6332 -0.4119  0.7661
21496SOL     OW65703   8.603   5.834   4.627 -0.3023 -0.3440 -0.2816
21496SOL    HW165704   8.593   5.833   4.722  2.9660 -1.8007  0.1954
21496SOL    HW265705   8.550   5.759   4.597 -2.4440  0.9218  0.1386
21497SOL     OW65706   7.944   6.384   4.951  0.3922 -0.5582  0.2119
21497SOL    HW165707   7.975   6.316   4.891  1.5335 -0.5320  0.7537
21497SOL    HW265708   7.932   6.461   4.895  1.1541 -0.6127 -0.0294
21498SOL     OW65709   8.474   6.000   5.523  0.3537  0.0790  0.6446
21498SOL    HW165710   8.449   5.913   5.491  2.5578 -0.3334 -0.1413
21498SOL    HW265711   8.392   6.049   5.525 -0.6544 -1.4212 -0.7671
21499SOL     OW65712   8.325   6.617   5.116  0.4021 -0.0310 -0.2265
21499SOL    HW165713   8.339   6.581   5.028  0.7670  0.4616 -0.3720
21499SOL    HW265714   8.358   6.707   5.111  0.4269  0.0005  0.4153
21500SOL     OW65715   8.026   6.215   4.716 -0.2511 -0.6420 -0.2657
21500SOL    HW165716   8.099   6.156   4.737 -0.2197 -0.3820  0.3797
21500SOL    HW265717   8.068   6.298   4.696 -0.3775 -0.4537  0.2457
21501SOL     OW65718   8.392   6.337   4.357  0.2861 -0.8554 -0.1817
21501SOL    HW165719   8.302   6.352   4.328  0.6488 -1.4450 -1.6469
21501SOL    HW265720   8.401   6.242   4.361  0.6932 -0.7958  0.4718
21502SOL     OW65721   7.661   6.108   4.395  0.2445 -0.0948 -0.4517
21502SOL    HW165722   7.750   6.128   4.424  0.3841  0.8521 -1.4727
21502SOL    HW265723   7.605   6.139   4.467  0.7047 -0.1541 -0.0611
21503SOL     OW65724   7.715   7.406   5.235 -0.9079 -0.0242 -0.1136
21503SOL    HW165725   7.779   7.344   5.200 -0.8480 -0.6146  1.0045
21503SOL    HW265726   7.698   7.376   5.324 -2.7986  0.0606 -0.3978
21504SOL     OW65727   8.281   5.944   3.822  0.4821 -0.3046  0.0515
21504SOL    HW165728   8.286   5.887   3.745 -0.4393 -0.5845  0.1931
21504SOL    HW265729   8.264   6.031   3.785  2.2404 -0.0300 -0.1859
21505SOL     OW65730   8.710   6.797   4.102 -0.1654 -0.4578 -0.3707
21505SOL    HW165731   8.792   6.772   4.059  0.7610  1.6221  0.0446
21505SOL    HW265732   8.648   6.807   4.030  0.8046  0.8953 -1.0838
21506SOL     OW65733   7.836   5.754   4.492  0.1513 -0.6708  0.1146
21506SOL    HW165734   7.869   5.770   4.581 -1.4463  1.4655  0.4020
21506SOL    HW265735   7.812   5.661   4.492 -0.3276 -0.5933  2.1047
21507SOL     OW65736   8.487   7.369   4.106 -0.3628  0.6602  0.4022
21507SOL    HW165737   8.418   7.314   4.143 -0.0660 -0.0931 -0.1256
21507SOL    HW265738   8.446   7.453   4.090 -0.7441  0.6917  1.5399
21508SOL     OW65739   7.959   7.453   4.574  0.4043 -0.3243  0.4915
21508SOL    HW165740   7.887   7.426   4.630 -0.1679 -0.4799 -0.3003
21508SOL    HW265741   7.947   7.547   4.563  1.2591 -0.0554  1.6486
21509SOL     OW65742   8.465   7.247   5.158 -0.3284  1.2541 -0.1027
21509SOL    HW165743   8.499   7.193   5.230  0.4824  0.0438 -1.3292
21509SOL    HW265744   8.538   7.303   5.134  0.5216 -0.4789 -1.9208
21510SOL     OW65745   7.524   6.306   3.918  0.2072 -0.2066 -0.0084
21510SOL    HW165746   7.466   6.367   3.964  0.5223 -0.0326  0.1610
21510SOL    HW265747   7.545   6.351   3.836 -0.7679 -0.7353 -0.5736
21511SOL     OW65748   8.205   6.594   5.374  0.2266  0.0781 -0.2849
21511SOL    HW165749   8.226   6.623   5.285 -0.9710  0.2312 -0.5354
21511SOL    HW265750   8.213   6.672   5.428 -1.3433  0.5572 -0.6780
21512SOL     OW65751   8.230   7.400   4.216 -1.0048 -0.3250 -0.8259
21512SOL    HW165752   8.150   7.431   4.259 -0.1610  0.8328 -0.0070
21512SOL    HW265753   8.281   7.480   4.201 -0.1798 -0.9953 -1.6930
21513SOL     OW65754   7.634   5.354   5.264  0.1495  0.0700  0.0244
21513SOL    HW165755   7.563   5.375   5.325  0.0079 -0.5018  0.0630
21513SOL    HW265756   7.714   5.366   5.315  0.0393 -0.1936  0.2613
21514SOL     OW65757   7.276   7.475   3.566 -0.4661  0.2409 -0.3329
21514SOL    HW165758   7.217   7.401   3.577 -0.2254  0.1809  0.6841
21514SOL    HW265759   7.275   7.493   3.472 -1.6019 -0.1627 -0.4151
21515SOL     OW65760   7.470   7.703   4.753 -0.6953  0.3481  0.2759
21515SOL    HW165761   7.410   7.740   4.688  0.0334  2.1500  0.5708
21515SOL    HW265762   7.425   7.715   4.837 -0.6426  0.1474  0.3333
21516SOL     OW65763   8.470   7.225   4.416 -0.4410 -0.1123 -0.4637
21516SOL    HW165764   8.479   7.135   4.445  0.6491 -0.8287 -2.7792
21516SOL    HW265765   8.411   7.221   4.341 -1.1631  1.2702 -0.0080
21517SOL     OW65766   7.659   5.620   3.919 -0.4833 -0.5105  0.6818
21517SOL    HW165767   7.666   5.643   3.826 -0.2802 -1.3462  0.4902
21517SOL    HW265768   7.749   5.619   3.950 -0.6256  1.5913  1.3594
21518SOL     OW65769   8.349   5.487   5.431 -0.3394  0.0427 -0.4045
21518SOL    HW165770   8.308   5.488   5.518  2.7161 -1.3305  1.1933
21518SOL    HW265771   8.399   5.406   5.429  0.2102  0.3680 -3.2536
21519SOL     OW65772   8.462   7.415   4.595 -0.1174  0.4947  0.3753
21519SOL    HW165773   8.468   7.346   4.529 -0.1293  0.1989  0.6858
21519SOL    HW265774   8.431   7.371   4.674  0.2185  0.7881  0.6726
21520SOL     OW65775   8.608   6.305   5.070 -0.4579  1.2626  0.2420
21520SOL    HW165776   8.548   6.304   5.144 -1.0464  0.0315 -0.2199
21520SOL    HW265777   8.557   6.269   4.997  0.9622 -0.2213 -0.0659
21521SOL     OW65778   8.366   7.100   4.175 -0.4761 -0.4094 -0.4424
21521SOL    HW165779   8.423   7.032   4.209 -1.7335 -2.2085 -1.7466
21521SOL    HW265780   8.356   7.078   4.082 -0.6118  1.8077 -1.0100
21522SOL     OW65781   8.262   6.046   4.652 -0.2339 -0.3319  0.7755
21522SOL    HW165782   8.352   6.075   4.636 -0.4391  0.6249  1.2584
21522SOL    HW265783   8.244   5.983   4.582 -0.0581  1.3908 -0.9002
21523SOL     OW65784   8.305   5.676   4.120  0.9535  0.0181  0.4584
21523SOL    HW165785   8.299   5.638   4.207  1.2839 -0.0308  0.4583
21523SOL    HW265786   8.215   5.703   4.100  0.8773  0.0372  0.8150
21524SOL     OW65787   8.782   6.739   3.684 -0.2835  0.0469 -0.1822
21524SOL    HW165788   8.844   6.786   3.741 -0.6388 -0.8212  0.9580
21524SOL    HW265789   8.816   6.753   3.596  1.1583  0.1673  0.3623
21525SOL     OW65790   7.563   5.236   4.093  0.1234  0.2693 -0.4132
21525SOL    HW165791   7.496   5.300   4.116 -2.5049 -1.4329 -2.6290
21525SOL    HW265792   7.558   5.170   4.162  0.1719  0.6002 -0.0913
21526SOL     OW65793   8.657   5.713   4.166  0.2490  0.5818 -0.1813
21526SOL    HW165794   8.580   5.738   4.115  0.1966 -0.6511 -0.7441
21526SOL    HW265795   8.717   5.676   4.101  0.8173  0.4256  0.4259
21527SOL     OW65796   7.937   6.691   5.221 -0.5210  0.0549 -0.0492
21527SOL    HW165797   7.876   6.641   5.276 -0.9427 -0.5912 -1.0792
21527SOL    HW265798   8.015   6.635   5.216 -0.0671  0.5849  0.7198
21528SOL     OW65799   8.636   7.240   3.908  0.0076  0.3865  0.2947
21528SOL    HW165800   8.563   7.270   3.962 -0.5707  0.6118 -0.5862
21528SOL    HW265801   8.711   7.291   3.938 -0.0684 -0.2360  1.5763
21529SOL     OW65802   7.991   6.638   4.303  0.1970  0.0167 -0.0836
21529SOL    HW165803   8.014   6.726   4.275  0.5617 -0.5268 -1.5964
21529SOL    HW265804   7.896   6.632   4.290  0.0355  0.4630  0.8619
21530SOL     OW65805   8.572   7.265   3.613 -0.4042 -0.5812 -0.1590
21530SOL    HW165806   8.481   7.275   3.642 -0.1242 -0.2322  0.6395
21530SOL    HW265807   8.623   7.317   3.675  0.3302 -0.6398 -0.6928
21531SOL     OW65808   0.126   5.574   4.267  0.3618 -0.5060 -0.0128
21531SOL    HW165809   0.093   5.627   4.339 -1.0870 -1.8451  0.3636
21531SOL    HW265810   0.056   5.512   4.249  2.0543 -2.4550 -0.2603
21532SOL     OW65811   7.705   5.720   5.303  0.2590 -0.0818  0.5444
21532SOL    HW165812   7.715   5.711   5.209  0.3018  0.6264  0.4805
21532SOL    HW265813   7.613   5.743   5.317 -0.1417 -1.6888  0.7952
21533SOL     OW65814   7.750   6.076   4.732 -0.4646  0.1370  0.3777
21533SOL    HW165815   7.711   6.161   4.753 -1.4793 -0.4514  0.9156
21533SOL    HW265816   7.842   6.097   4.711 -0.7225  1.3706  0.3939
21534SOL     OW65817   8.639   6.010   4.303 -0.1409  0.2268 -0.5626
21534SOL    HW165818   8.682   6.082   4.349  0.5067  1.5623 -3.1012
21534SOL    HW265819   8.710   5.962   4.261 -0.8347  0.3299 -1.8975
21535SOL     OW65820   8.231   5.575   4.355  0.6392 -0.7528  0.4502
21535SOL    HW165821   8.256   5.640   4.421 -0.3969 -1.7689  1.9347
21535SOL    HW265822   8.241   5.491   4.401 -4.0226 -1.3401  0.8089
21536SOL     OW65823   7.595   7.025   3.712 -0.2053 -0.3897  0.3057
21536SOL    HW165824   7.629   7.101   3.760  0.4485  0.1967 -1.0279
21536SOL    HW265825   7.515   7.001   3.758 -0.5041  1.1977  0.6756
21537SOL     OW65826   0.019   6.090   3.740  0.3669  0.0613 -0.0625
21537SOL    HW165827   0.037   5.996   3.733 -0.4119 -0.1329  0.4201
21537SOL    HW265828  -0.071   6.099   3.709  1.0685  0.9416 -1.9903
21538SOL     OW65829   7.881   5.425   4.195  0.6296 -0.1244 -0.2227
21538SOL    HW165830   7.881   5.506   4.143  0.0978  0.0141 -0.0210
21538SOL    HW265831   7.904   5.356   4.133 -1.6814 -0.2155 -1.1048
21539SOL     OW65832   8.382   7.165   4.730  0.0542  0.5753  0.0362
21539SOL    HW165833   8.298   7.197   4.695 -0.7688 -0.2993  1.1388
21539SOL    HW265834   8.358   7.120   4.811  1.6186  0.3859  0.4180
21540SOL     OW65835   8.507   6.946   4.589  0.2960  0.1652 -0.0044
21540SOL    HW165836   8.469   7.008   4.652  0.3464 -0.2292  0.4180
21540SOL    HW265837   8.434   6.924   4.531 -0.6448 -1.8937  1.8171
21541SOL     OW65838   8.188   5.581   4.742 -0.0679  0.1291  0.2380
21541SOL    HW165839   8.254   5.543   4.684 -1.9788 -1.1067 -1.2774
21541SOL    HW265840   8.232   5.591   4.826  1.6676 -1.8879 -0.3442
21542SOL     OW65841   8.487   6.503   5.389  0.0207 -0.4496  0.2713
21542SOL    HW165842   8.507   6.419   5.346 -0.7794 -1.8659  2.5036
21542SOL    HW265843   8.392   6.511   5.384  0.1887  1.3087 -1.5087
21543SOL     OW65844   8.162   6.361   3.877 -0.2565  0.1976 -0.0911
21543SOL    HW165845   8.147   6.388   3.968  1.9995  0.6766  0.1884
21543SOL    HW265846   8.146   6.440   3.826 -3.7403 -0.5840 -0.4655
21544SOL     OW65847   7.561   6.286   4.757  0.1791 -0.0770  0.2147
21544SOL    HW165848   7.511   6.335   4.692  1.6259 -0.2453 -1.0751
21544SOL    HW265849   7.508   6.209   4.776 -0.2710 -0.0191 -0.7695
21545SOL     OW65850   8.638   5.592   5.002 -0.3983  0.2189  0.4694
21545SOL    HW165851   8.712   5.650   5.022 -1.2912  1.4420  0.3375
21545SOL    HW265852   8.639   5.527   5.073  1.0951 -0.1196  0.1919
21546SOL     OW65853   7.298   7.607   4.964  0.4929 -0.1138  0.3055
21546SOL    HW165854   7.242   7.675   5.002  0.2304 -0.2791  0.2146
21546SOL    HW265855   7.336   7.562   5.040  0.2555 -0.2049  0.3723
21547SOL     OW65856   7.667   6.546   4.211  0.2555  0.0679 -0.2960
21547SOL    HW165857   7.671   6.579   4.301  0.3699 -1.3478  0.2319
21547SOL    HW265858   7.626   6.460   4.218 -0.4692  0.2611 -1.7042
21548SOL     OW65859   8.195   5.859   4.467  0.5210  1.0443 -0.5765
21548SOL    HW165860   8.120   5.882   4.412  0.0008 -0.9349 -0.7720
21548SOL    HW265861   8.155   5.824   4.547  1.2753  1.7249  0.1204
21549SOL     OW65862   8.566   6.877   3.892  0.5139  0.1315 -0.1164
21549SOL    HW165863   8.533   6.956   3.850 -1.0075 -1.9225 -3.1463
21549SOL    HW265864   8.621   6.835   3.826  0.7617 -1.6792  1.1408
21550SOL     OW65865   8.654   7.187   4.806  0.2298 -0.1107  0.3431
21550SOL    HW165866   8.585   7.223   4.752 -0.7738  1.2452  2.3854
21550SOL    HW265867   8.619   7.104   4.839  1.3863 -1.6466 -2.0450
21551SOL     OW65868   7.764   7.425   4.773  0.0179  0.2745 -0.3460
21551SOL    HW165869   7.681   7.378   4.776  1.1827 -1.8494  1.0985
21551SOL    HW265870   7.743   7.512   4.809 -1.1128 -1.1831  2.9836
21552SOL     OW65871   8.036   6.145   5.361  0.1983  0.3058  0.3415
21552SOL    HW165872   8.082   6.197   5.427  1.3927 -1.6710  1.1627
21552SOL    HW265873   7.971   6.096   5.410  1.4613 -1.6056  0.2416
21553SOL     OW65874   8.334   4.938   5.120  0.2658  0.0607  0.4960
21553SOL    HW165875   8.302   5.015   5.167 -0.5288  0.4933 -0.6980
21553SOL    HW265876   8.306   4.864   5.174  0.3071  0.5697  1.2356
21554SOL     OW65877   7.840   5.683   5.549  0.2126 -0.5259  0.0659
21554SOL    HW165878   7.862   5.591   5.540 -0.9386 -0.6391 -2.6127
21554SOL    HW265879   7.795   5.705   5.467 -0.7598  2.0694  1.1820
21555SOL     OW65880   8.081   6.730   4.848 -0.3274 -0.7287  0.0281
21555SOL    HW165881   8.124   6.769   4.772  1.3200 -2.0657  0.2224
21555SOL    HW265882   8.117   6.777   4.923  0.6785 -1.7237  0.1803
21556SOL     OW65883   0.097   6.443   4.537  0.5608  0.5771  0.1951
21556SOL    HW165884   0.061   6.471   4.621  3.7319 -0.1507  1.9640
21556SOL    HW265885   0.168   6.383   4.561  1.3910  0.1022 -3.0479
21557SOL     OW65886   8.526   6.138   3.643  0.1602  0.0060 -0.0765
21557SOL    HW165887   8.431   6.155   3.642  0.3286  1.4878  1.7916
21557SOL    HW265888   8.556   6.181   3.723  2.2045 -1.7034  0.1610
21558SOL     OW65889   7.877   5.548   5.047  0.3038  0.3940 -0.0504
21558SOL    HW165890   7.857   5.455   5.051 -1.2089  0.6443 -0.9247
21558SOL    HW265891   7.954   5.553   4.990  1.1976 -0.3925  1.0440
21559SOL     OW65892   7.320   7.219   5.067 -0.3030 -0.4983 -0.0317
21559SOL    HW165893   7.361   7.287   5.121 -0.2831 -1.0736  0.6958
21559SOL    HW265894   7.227   7.224   5.089 -0.4720  0.0417 -0.8298
21560SOL     OW65895   7.976   6.118   4.088  0.1644 -0.2497 -0.2084
21560SOL    HW165896   7.946   6.177   4.020 -1.8357 -0.4766  0.3944
21560SOL    HW265897   8.054   6.159   4.124 -0.9422  1.8515 -0.0692
21561SOL     OW65898   7.352   5.413   4.126  0.2732 -0.5074  0.4019
21561SOL    HW165899   7.323   5.472   4.056 -0.7478 -1.2394  0.1875
21561SOL    HW265900   7.357   5.469   4.204  4.3149  1.0486 -0.7184
21562SOL     OW65901   0.089   5.925   4.241 -0.1294  0.1648  0.0320
21562SOL    HW165902   0.105   5.868   4.315  1.5576  0.8309  0.2318
21562SOL    HW265903   0.106   5.871   4.164 -2.3819 -0.6731  0.0602
21563SOL     OW65904   8.733   6.199   4.504 -0.7008 -0.3331  0.2864
21563SOL    HW165905   8.790   6.209   4.428 -0.1357  1.6706  0.9026
21563SOL    HW265906   8.776   6.249   4.573 -1.9379 -0.8945  1.5110
21564SOL     OW65907   8.591   7.111   5.381  0.3661 -0.1976  0.1900
21564SOL    HW165908   8.677   7.100   5.341  0.1359 -1.1348 -0.0685
21564SOL    HW265909   8.602   7.080   5.470  0.5829  0.7991  0.5259
21565SOL     OW65910   7.779   6.515   5.346 -0.0814 -0.5855  0.0490
21565SOL    HW165911   7.839   6.452   5.385  2.4938  0.5033 -1.9010
21565SOL    HW265912   7.734   6.466   5.277 -0.0489 -0.9330  0.2746
21566SOL     OW65913   8.471   6.559   3.629  0.1371 -0.0128  0.9347
21566SOL    HW165914   8.448   6.466   3.621  0.3826 -0.0550  0.6851
21566SOL    HW265915   8.557   6.558   3.671  0.3254  0.0809  0.5594
21567SOL     OW65916   8.501   6.897   4.246  0.4042  0.0994  0.0232
21567SOL    HW165917   8.472   6.814   4.282  1.0142  0.2474  0.8801
21567SOL    HW265918   8.573   6.874   4.186 -0.3538 -0.1089 -0.8273
21568SOL     OW65919   7.905   6.486   4.544  0.4286  0.0994 -0.6662
21568SOL    HW165920   7.914   6.537   4.624  1.6778  0.8004 -1.2248
21568SOL    HW265921   7.967   6.526   4.482 -0.1817 -0.6984 -1.8385
21569SOL     OW65922   7.970   5.927   4.330 -0.2723  0.5433 -0.2772
21569SOL    HW165923   7.924   5.949   4.249  0.1407  1.8645 -0.1666
21569SOL    HW265924   7.917   5.857   4.369 -0.2658 -0.4105 -1.8650
21570SOL     OW65925   8.472   5.862   5.171  0.0787  0.1907  0.0356
21570SOL    HW165926   8.388   5.904   5.149  0.5192  0.7111 -0.7012
21570SOL    HW265927   8.448   5.787   5.226 -1.1427 -1.4187 -2.5040
21571SOL     OW65928   7.995   5.849   4.709 -0.4434  0.1848  0.3562
21571SOL    HW165929   8.073   5.798   4.733  0.2807  1.5282  0.9525
21571SOL    HW265930   7.970   5.893   4.790 -0.3723  1.6611 -0.4056
21572SOL     OW65931   7.293   6.900   4.359 -0.5162  0.4244  0.1639
21572SOL    HW165932   7.218   6.911   4.418 -0.5526  1.1893 -0.0175
21572SOL    HW265933   7.360   6.858   4.412 -1.5244 -1.6015 -0.0196
21573SOL     OW65934   7.164   7.519   4.566 -0.1254 -0.6349 -0.1259
21573SOL    HW165935   7.123   7.550   4.485  0.0253 -0.1741 -0.0325
21573SOL    HW265936   7.235   7.462   4.536  1.4256  1.3364 -0.4421
21574SOL     OW65937   8.258   6.934   4.483  0.7333  0.6156  0.4299
21574SOL    HW165938   8.201   7.001   4.521 -0.4861 -0.1201 -0.0620
21574SOL    HW265939   8.249   6.946   4.388 -1.5806 -1.8713  0.2423
21575SOL     OW65940   8.388   6.171   4.907 -0.2714  0.6845  0.1602
21575SOL    HW165941   8.328   6.136   4.842  0.1883 -1.2136  0.7128
21575SOL    HW265942   8.333   6.224   4.965 -0.9738  0.9416 -0.7265
21576SOL     OW65943   7.417   6.039   4.829  0.5426 -0.2185  0.8541
21576SOL    HW165944   7.360   6.017   4.903  1.8288 -0.8754  1.6819
21576SOL    HW265945   7.487   5.974   4.833  1.0388  0.2011 -0.5075
21577SOL     OW65946   8.262   5.997   5.119 -0.3345  0.6343  0.0720
21577SOL    HW165947   8.178   6.027   5.084  0.8301  1.6681 -2.0364
21577SOL    HW265948   8.317   6.076   5.121  1.5413 -0.5256 -1.6461
21578SOL     OW65949   8.351   6.059   4.327 -0.4064 -0.0965  0.0317
21578SOL    HW165950   8.445   6.042   4.315 -0.1677  0.9296  0.2996
21578SOL    HW265951   8.323   5.994   4.392 -0.4714 -2.0640 -1.8476
21579SOL     OW65952   7.789   7.179   5.065  0.2439  0.0390 -0.1996
21579SOL    HW165953   7.807   7.120   5.138 -1.0575  0.0608  0.1480
21579SOL    HW265954   7.704   7.150   5.031 -1.2339  2.7035  0.9967
21580SOL     OW65955   7.911   6.231   4.467  0.2731  0.3082  0.4960
21580SOL    HW165956   7.905   6.326   4.481  2.2648  0.4239  0.8544
21580SOL    HW265957   7.950   6.197   4.548  1.7843 -0.4770 -0.5147
21581SOL     OW65958   8.271   7.201   5.433  0.4764  0.1362  0.1557
21581SOL    HW165959   8.275   7.253   5.353 -0.3891 -0.0881 -0.0484
21581SOL    HW265960   8.293   7.263   5.503 -0.9165  0.8973 -0.0412
21582SOL     OW65961   7.702   6.063   3.811  0.0503  0.0138  0.2988
21582SOL    HW165962   7.713   5.991   3.748  0.5887 -0.0246  0.4269
21582SOL    HW265963   7.792   6.085   3.837 -0.0540  1.2014 -0.2705
21583SOL     OW65964   7.462   6.654   5.010  0.6375  0.1971  0.5522
21583SOL    HW165965   7.529   6.588   4.993  1.8099  1.5126 -0.1010
21583SOL    HW265966   7.510   6.737   5.015 -0.8857  1.1205  0.5397
21584SOL     OW65967   8.600   6.692   4.671 -0.1220  0.2566 -0.2800
21584SOL    HW165968   8.615   6.647   4.587 -0.9628 -0.0526 -0.2804
21584SOL    HW265969   8.572   6.780   4.646  0.6325  0.5038 -0.2939
21585SOL     OW65970   0.123   6.704   4.094 -0.1810  0.1845  0.1642
21585SOL    HW165971   0.123   6.665   4.181  0.9285  0.5582  0.3558
21585SOL    HW265972   0.152   6.633   4.036  2.1649  0.7298  0.5572
21586SOL     OW65973   8.778   7.259   4.388 -0.5185  0.3815 -0.5413
21586SOL    HW165974   8.808   7.168   4.381  1.0444  0.9299 -1.4522
21586SOL    HW265975   8.683   7.252   4.399 -0.3667 -1.3710  0.0169
21587SOL     OW65976   7.472   7.368   4.809 -0.3106 -0.4748  0.0796
21587SOL    HW165977   7.417   7.434   4.851 -0.4331 -0.3177 -0.3211
21587SOL    HW265978   7.412   7.319   4.754 -0.2145 -0.9060  0.3563
21588SOL     OW65979   8.129   7.318   5.119 -0.0370 -0.1940 -0.2646
21588SOL    HW165980   8.117   7.301   5.026  0.3963  0.7111 -0.4888
21588SOL    HW265981   8.124   7.413   5.128 -1.5066 -0.3432  0.8476
21589SOL     OW65982   0.294   7.377   3.967 -0.0575  0.4357 -0.6612
21589SOL    HW165983   0.338   7.374   3.882  2.3917 -0.2949  0.5232
21589SOL    HW265984   0.356   7.336   4.027 -1.4994  1.3408  1.5837
21590SOL     OW65985   8.099   7.385   5.854  0.0003  0.2551  0.0354
21590SOL    HW165986   8.143   7.358   5.935 -0.4806  0.8014  0.4945
21590SOL    HW265987   8.009   7.356   5.865 -0.0443  0.2480 -0.3486
21591SOL     OW65988   8.647   6.504   4.432 -0.3219 -0.1405  0.3541
21591SOL    HW165989   8.679   6.425   4.475  1.2635 -1.3284 -2.6824
21591SOL    HW265990   8.565   6.477   4.391 -1.2845  0.6824  1.6572
21592SOL     OW65991   8.407   6.489   4.895  0.2036  0.3206 -0.2051
21592SOL    HW165992   8.417   6.486   4.800 -0.3389 -0.6236 -0.2420
21592SOL    HW265993   8.496   6.503   4.928  0.1854  2.4350 -0.8925
21593SOL     OW65994   7.815   7.347   3.832  0.0599  0.1668  0.1727
21593SOL    HW165995   7.725   7.327   3.857  0.3936  0.1388  1.3989
21593SOL    HW265996   7.868   7.320   3.907  1.0464  0.6686 -0.3187
21594SOL     OW65997   7.591   5.816   4.300 -0.4134 -0.1536  0.5463
21594SOL    HW165998   7.659   5.750   4.312  0.7858  0.4569 -2.1498
21594SOL    HW265999   7.624   5.893   4.346 -0.1042 -0.3644  0.6819
21595SOL     OW66000   7.889   7.169   3.615 -0.1204  0.3175 -0.4336
21595SOL    HW166001   7.852   7.224   3.685  0.1912  2.1490 -1.6343
21595SOL    HW266002   7.899   7.083   3.655 -0.4926  1.1630  1.6070
21596SOL     OW66003   8.143   6.447   4.765 -0.3598 -0.0731 -0.1023
21596SOL    HW166004   8.137   6.541   4.780  0.5231  0.0665 -0.5296
21596SOL    HW266005   8.232   6.434   4.731 -0.7921 -0.9382 -0.9484
21597SOL     OW66006   8.244   6.181   3.707  0.0298  0.1528  0.3018
21597SOL    HW166007   8.238   6.253   3.770  0.5781  0.1890  0.3205
21597SOL    HW266008   8.247   6.224   3.621 -0.3016  0.1227  0.2759
21598SOL     OW66009   8.118   6.898   5.115  0.5459  0.5777 -0.2065
21598SOL    HW166010   8.172   6.892   5.193 -0.8376  1.5538  0.8760
21598SOL    HW266011   8.030   6.916   5.148 -0.1561  0.5667 -1.9701
21599SOL     OW66012   8.404   6.647   4.211  0.0241  0.3438  0.1815
21599SOL    HW166013   8.400   6.680   4.121  0.9003 -0.7447 -0.2841
21599SOL    HW266014   8.322   6.600   4.224 -1.2773  2.6804  0.8796
21600SOL     OW66015   7.837   6.611   4.808 -0.6246  0.2658  0.4296
21600SOL    HW166016   7.915   6.666   4.813 -0.8197  0.5222  0.6597
21600SOL    HW266017   7.779   6.645   4.875 -1.4965  0.9646 -0.6495
21601SOL     OW66018   7.883   7.071   3.910  0.1349  0.7231 -0.4945
21601SOL    HW166019   7.849   7.003   3.968 -0.5094 -0.2836 -2.0032
21601SOL    HW266020   7.937   7.126   3.967  0.2615 -0.7465  0.8672
21602SOL     OW66021   7.649   6.927   4.022 -0.3925 -0.1038 -0.5573
21602SOL    HW166022   7.592   6.941   3.946 -1.3561 -0.3988  0.0904
21602SOL    HW266023   7.648   6.833   4.036  3.3537 -0.6764 -2.8264
21603SOL     OW66024   7.588   6.883   5.246  0.6757 -0.4126  0.4099
21603SOL    HW166025   7.543   6.824   5.307  0.0465  1.1622  1.5289
21603SOL    HW266026   7.520   6.943   5.216  1.4041  0.0866 -0.2972
21604SOL     OW66027   8.100   5.868   5.293  0.0823 -0.7046  0.6502
21604SOL    HW166028   8.169   5.883   5.228 -0.8006 -1.4380 -0.4912
21604SOL    HW266029   8.097   5.949   5.344  0.4984  0.0701 -0.5101
21605SOL     OW66030   7.326   5.796   3.600  0.4280  0.1659  0.3541
21605SOL    HW166031   7.288   5.712   3.627 -0.5309  0.2761 -0.6226
21605SOL    HW266032   7.369   5.777   3.517 -0.3790  0.7909 -0.2117
21606SOL     OW66033   8.379   6.384   4.636 -0.1105  0.6775 -0.3175
21606SOL    HW166034   8.423   6.303   4.660 -0.2825  0.8335  0.5224
21606SOL    HW266035   8.373   6.380   4.540 -1.7286 -1.1180 -0.1939
21607SOL     OW66036   7.104   5.695   4.218 -0.2963  0.5164  0.4355
21607SOL    HW166037   7.061   5.730   4.296 -0.0271 -2.3392  1.9967
21607SOL    HW266038   7.188   5.662   4.250  1.2907  2.1523 -1.7437
21608SOL     OW66039   8.569   6.545   3.933  0.7472 -0.1008  0.2047
21608SOL    HW166040   8.574   6.574   4.025 -0.2543  1.6191 -0.2383
21608SOL    HW266041   8.499   6.598   3.896  2.4477  0.6978 -2.0822
21609SOL     OW66042   7.754   6.768   5.014 -0.4031 -0.2273 -0.3575
21609SOL    HW166043   7.826   6.754   5.075  1.4593  1.8274 -1.9435
21609SOL    HW266044   7.690   6.818   5.065 -0.7171 -1.8825  0.9995
21610SOL     OW66045   8.307   5.475   5.167  0.3617 -0.5646  0.1396
21610SOL    HW166046   8.309   5.486   5.262  1.7173  0.5659  0.0199
21610SOL    HW266047   8.399   5.470   5.142  0.0408 -0.2877 -1.1784
21611SOL     OW66048   8.794   7.042   5.217 -0.1382  0.8697 -0.0593
21611SOL    HW166049   8.855   6.988   5.268  0.0753  2.6781  1.7835
21611SOL    HW266050   8.846   7.118   5.192 -0.6490  0.6636 -1.8403
21612SOL     OW66051   7.946   7.258   4.873 -0.2474  0.1190 -0.3095
21612SOL    HW166052   7.874   7.301   4.826 -0.4107 -1.3727 -1.5192
21612SOL    HW266053   7.904   7.212   4.945 -0.5840 -0.9726 -1.1740
21613SOL     OW66054   8.738   5.445   4.154 -0.0330 -0.3774  0.0947
21613SOL    HW166055   8.692   5.363   4.136 -0.6374  0.1416 -0.8244
21613SOL    HW266056   8.669   5.508   4.172  0.3257  0.2713 -0.7052
21614SOL     OW66057   7.789   6.471   3.980  0.9171  0.5565 -0.4211
21614SOL    HW166058   7.779   6.380   4.008  0.9536  0.5461 -0.4420
21614SOL    HW266059   7.750   6.522   4.051  0.3220  0.4960 -0.6976
21615SOL     OW66060   8.327   7.115   3.905  0.6361 -0.5914 -0.3604
21615SOL    HW166061   8.290   7.202   3.918 -0.0044 -1.1600  2.0324
21615SOL    HW266062   8.264   7.069   3.849 -0.5854 -0.4546  0.8649
21616SOL     OW66063   8.681   7.489   4.272  0.1356  0.1860 -0.3881
21616SOL    HW166064   8.625   7.471   4.197  0.0995 -0.0611 -0.3041
21616SOL    HW266065   8.713   7.403   4.300  2.2513  0.4654 -1.7223
21617SOL     OW66066   8.119   6.263   4.291 -0.3543 -0.1732 -0.3748
21617SOL    HW166067   8.037   6.247   4.337 -0.3432 -0.7897 -0.5682
21617SOL    HW266068   8.175   6.190   4.315 -0.0670 -0.0650 -0.7140
21618SOL     OW66069   8.623   6.281   3.838  0.0112  0.7213 -0.0519
21618SOL    HW166070   8.593   6.369   3.864 -2.2859  0.2685 -0.9207
21618SOL    HW266071   8.636   6.235   3.921 -1.0097  1.2181  0.4068
21619SOL     OW66072   7.557   7.069   4.932  0.2311 -0.1716 -0.5882
21619SOL    HW166073   7.501   7.052   5.008 -0.4955 -1.3863 -1.3788
21619SOL    HW266074   7.509   7.133   4.880 -1.3271 -2.4406 -2.1253
21620SOL     OW66075   7.736   7.085   4.592  0.3492 -0.4458  0.2982
21620SOL    HW166076   7.813   7.061   4.645  0.0310  0.8694  1.4119
21620SOL    HW266077   7.669   7.022   4.619  0.9264 -1.4186 -0.4676
21621SOL     OW66078   7.945   7.216   5.309 -0.2228  0.2981 -0.7398
21621SOL    HW166079   7.965   7.123   5.299  0.6526  0.4776 -0.7290
21621SOL    HW266080   7.995   7.259   5.239  1.6711  1.0390  0.9579
21622SOL     OW66081   7.559   5.856   4.035 -0.0824 -0.6117 -0.0180
21622SOL    HW166082   7.556   5.840   4.129  1.8237  1.4945  0.4809
21622SOL    HW266083   7.599   5.777   3.999  1.4930 -0.4446  1.2650
21623SOL     OW66084   7.659   6.006   5.146 -0.0559 -0.2727  0.2632
21623SOL    HW166085   7.721   6.071   5.114  0.1278  0.0835  1.3038
21623SOL    HW266086   7.701   5.922   5.131  0.1724 -0.0915 -0.1054
21624SOL     OW66087   7.561   7.133   4.186 -0.2092  0.2146 -0.6067
21624SOL    HW166088   7.467   7.132   4.168 -0.3292 -0.8690 -0.0479
21624SOL    HW266089   7.595   7.058   4.137  0.2101  0.0399 -0.0508
21625SOL     OW66090   8.792   6.086   4.917 -0.1601 -0.2522  0.5847
21625SOL    HW166091   8.707   6.042   4.921  0.5842 -1.9217 -0.7528
21625SOL    HW266092   8.853   6.018   4.890  1.5079  1.0600  0.8825
21626SOL     OW66093   8.267   5.359   4.513  0.1765 -0.5136  0.2698
21626SOL    HW166094   8.213   5.309   4.575 -0.2704  1.6053  1.6946
21626SOL    HW266095   8.354   5.358   4.551  0.2413 -0.4898  0.1215
21627SOL     OW66096   8.334   6.706   3.922  0.2923  0.1059 -0.0610
21627SOL    HW166097   8.348   6.800   3.911  0.5367  0.1914  0.8915
21627SOL    HW266098   8.246   6.691   3.887 -0.4724  1.0148  1.3657
21628SOL     OW66099   8.161   7.234   4.539 -0.0221 -0.3676 -0.1431
21628SOL    HW166100   8.135   7.219   4.448 -0.5070 -1.9478  0.2244
21628SOL    HW266101   8.116   7.314   4.565  1.4916  1.0991 -1.8037
21629SOL     OW66102   0.078   5.386   3.906 -0.9888 -0.0973  0.3534
21629SOL    HW166103   0.105   5.306   3.951  0.0313  0.7416  1.2841
21629SOL    HW266104   0.018   5.428   3.967 -0.7832  0.3118  0.2739
21630SOL     OW66105   7.220   6.574   4.569 -0.0163  0.3786 -0.0942
21630SOL    HW166106   7.139   6.611   4.536  0.3036  2.8767  1.6109
21630SOL    HW266107   7.286   6.640   4.549  1.5699 -1.3777 -1.0138
21631SOL     OW66108   8.006   7.246   4.047  0.4381 -0.2154  0.3766
21631SOL    HW166109   7.997   7.312   4.116  0.1537  0.4810 -0.3136
21631SOL    HW266110   8.072   7.281   3.988 -1.3406  0.5757 -1.2307
21632SOL     OW66111   7.431   6.025   5.803  0.2128 -0.0527  0.2973
21632SOL    HW166112   7.477   6.021   5.886  0.2720  0.5155  0.2968
21632SOL    HW266113   7.339   6.034   5.827  0.2174 -0.0148  0.2999
21633SOL     OW66114   7.531   6.119   6.639  0.7033 -0.0343 -0.1640
21633SOL    HW166115   7.466   6.150   6.703 -1.1370 -0.0887 -1.8939
21633SOL    HW266116   7.536   6.025   6.654 -0.6839 -0.2495 -0.8595
21634SOL     OW66117   7.100   6.544   6.030 -0.2754 -0.0319 -0.0164
21634SOL    HW166118   7.042   6.469   6.044  0.5662 -0.8780 -0.8516
21634SOL    HW266119   7.187   6.504   6.017  0.6757  1.2227  1.9872
21635SOL     OW66120   8.366   7.218   6.806  0.0002  0.3024 -0.0884
21635SOL    HW166121   8.320   7.134   6.800  1.1335 -0.5866  2.2391
21635SOL    HW266122   8.306   7.281   6.767 -1.1811 -1.4660 -1.2996
21636SOL     OW66123   0.040   7.038   6.227 -0.1714  0.0267  0.1919
21636SOL    HW166124  -0.053   7.016   6.216  0.1475 -1.2698 -0.0345
21636SOL    HW266125   0.046   7.066   6.319 -0.6993 -0.3620  0.3534
21637SOL     OW66126   8.093   6.365   5.894  0.5983  0.1346 -0.0641
21637SOL    HW166127   8.061   6.286   5.851  0.9896  0.1035 -0.3020
21637SOL    HW266128   8.099   6.430   5.824  2.1025 -0.1751 -0.2524
21638SOL     OW66129   8.261   6.992   6.723  0.0281  0.2544 -0.2247
21638SOL    HW166130   8.217   7.007   6.639  0.4020 -0.3718 -0.5366
21638SOL    HW266131   8.310   6.910   6.711  1.6734  1.1635 -0.0530
21639SOL     OW66132   7.886   6.639   6.820 -0.2516  0.2248  0.3728
21639SOL    HW166133   7.951   6.647   6.750  0.3703  1.7777  1.0628
21639SOL    HW266134   7.814   6.590   6.782  0.7922 -0.4158 -0.8224
21640SOL     OW66135   8.065   6.701   5.963 -0.1043 -0.0445 -0.8038
21640SOL    HW166136   8.071   6.706   6.059 -1.4004 -1.5102 -0.6207
21640SOL    HW266137   8.082   6.791   5.934 -1.2598  0.7885  0.8944
21641SOL     OW66138   8.218   7.134   7.213 -0.1594  0.1488  0.7503
21641SOL    HW166139   8.290   7.183   7.175  0.2405  1.0527  2.6054
21641SOL    HW266140   8.184   7.082   7.139  2.2307 -0.1849 -0.2254
21642SOL     OW66141   7.876   6.876   6.410 -0.0156 -0.3329  0.0472
21642SOL    HW166142   7.847   6.848   6.497  0.8833  2.3059  1.3101
21642SOL    HW266143   7.804   6.852   6.352 -1.0595 -1.3176  1.6538
21643SOL     OW66144   8.078   6.305   6.888  0.3366 -0.1433 -0.1944
21643SOL    HW166145   8.096   6.391   6.853 -0.9815  0.6456  0.9601
21643SOL    HW266146   8.001   6.274   6.840  0.0281 -0.1180  0.2777
21644SOL     OW66147   7.847   7.322   5.859  0.2168  0.2354  0.4639
21644SOL    HW166148   7.788   7.251   5.834 -0.8374  0.0623  3.1262
21644SOL    HW266149   7.791   7.384   5.906  1.3785  2.1880 -0.6020
21645SOL     OW66150   8.839   7.088   6.894  0.7109 -0.1736  0.0384
21645SOL    HW166151   8.832   7.004   6.938  2.5994 -0.1377  0.4889
21645SOL    HW266152   8.883   7.145   6.957  1.0670  0.6495 -0.9205
21646SOL     OW66153   7.684   7.090   5.727 -0.4793  0.0266  0.7903
21646SOL    HW166154   7.723   7.003   5.726  0.9529  0.6154  2.3672
21646SOL    HW266155   7.615   7.085   5.794 -3.0777 -0.9073 -1.7337
21647SOL     OW66156   7.743   6.505   6.261 -0.4944 -0.1564 -0.7086
21647SOL    HW166157   7.799   6.435   6.295  0.0152  0.6814  0.1975
21647SOL    HW266158   7.659   6.490   6.305 -0.3974 -0.2131 -0.5407
21648SOL     OW66159   8.140   7.752   6.921 -0.0883  0.0318 -0.1192
21648SOL    HW166160   8.045   7.748   6.931 -0.2679 -0.2214 -1.7495
21648SOL    HW266161   8.163   7.841   6.946 -0.4130 -0.5557  2.6004
21649SOL     OW66162   7.814   6.864   5.733 -0.0452 -0.0184 -0.5290
21649SOL    HW166163   7.877   6.841   5.801  0.2119  1.2656 -0.2966
21649SOL    HW266164   7.793   6.781   5.690 -1.5164 -1.1727  2.1614
21650SOL     OW66165   7.293   6.813   5.895 -0.2454  0.9174  0.7921
21650SOL    HW166166   7.328   6.823   5.806 -1.2564  1.5124  0.4398
21650SOL    HW266167   7.367   6.781   5.946  0.9805  2.6416  0.2012
21651SOL     OW66168   7.699   7.204   5.463 -0.4913  0.1504  0.3688
21651SOL    HW166169   7.711   7.143   5.536 -0.1484 -2.7793 -1.9931
21651SOL    HW266170   7.782   7.204   5.417 -1.5686 -0.4057 -1.6738
21652SOL     OW66171   8.758   6.162   5.814 -0.0212  0.2905  0.0614
21652SOL    HW166172   8.686   6.176   5.752 -1.0371 -0.2747  1.0869
21652SOL    HW266173   8.782   6.250   5.843 -1.2518  0.4198  0.7574
21653SOL     OW66174   7.190   6.312   6.980 -0.1629  0.2899  0.3999
21653SOL    HW166175   7.214   6.299   7.072 -0.0127 -0.5710  0.2431
21653SOL    HW266176   7.113   6.368   6.983 -0.8221 -0.6310  1.1010
21654SOL     OW66177   8.074   6.928   5.792 -0.3142  0.1489 -0.5506
21654SOL    HW166178   8.018   6.993   5.751 -0.9431  1.1544  1.7419
21654SOL    HW266179   8.120   6.976   5.861  1.1060 -1.3152 -0.4210
21655SOL     OW66180   8.516   6.980   7.144  0.4096  0.2074 -0.0231
21655SOL    HW166181   8.429   6.941   7.148 -0.2245  1.6097  0.2589
21655SOL    HW266182   8.565   6.923   7.083 -0.6145 -0.7256 -0.0030
21656SOL     OW66183   8.050   5.618   5.842 -0.0696 -0.4736  0.1397
21656SOL    HW166184   8.110   5.684   5.878  0.8395 -0.4437 -1.3513
21656SOL    HW266185   8.067   5.539   5.893 -0.3919  0.1270  1.2170
21657SOL     OW66186   7.639   6.585   6.981 -0.3191  0.0542  0.0857
21657SOL    HW166187   7.631   6.490   6.969  0.0653  0.0177  0.1042
21657SOL    HW266188   7.550   6.618   6.970 -0.5149 -0.3461  0.4032
21658SOL     OW66189   8.765   7.496   7.153 -0.5909  0.1062  0.0219
21658SOL    HW166190   8.859   7.479   7.166 -0.2425 -0.2930 -2.5465
21658SOL    HW266191   8.726   7.409   7.147 -0.8693  0.2634 -0.4678
21659SOL     OW66192   7.981   5.721   7.527  0.1541  0.2205  0.4524
21659SOL    HW166193   8.012   5.793   7.472 -0.0646 -0.4742 -0.6186
21659SOL    HW266194   7.970   5.760   7.614 -0.2298  1.5480 -0.1616
21660SOL     OW66195   7.865   6.422   5.612  0.1825 -0.1171  0.2809
21660SOL    HW166196   7.774   6.405   5.589  1.1291 -1.6039 -3.1540
21660SOL    HW266197   7.861   6.485   5.684 -3.5063 -0.4705  0.5766
21661SOL     OW66198   8.498   6.087   6.327  0.0334 -0.4112 -0.4626
21661SOL    HW166199   8.567   6.068   6.390  0.3359  1.3364 -0.1966
21661SOL    HW266200   8.421   6.108   6.381  0.4629  1.7227 -0.5608
21662SOL     OW66201   8.254   6.381   6.588 -0.2773 -0.1743  0.1337
21662SOL    HW166202   8.292   6.297   6.614  1.3908  0.9474  1.6332
21662SOL    HW266203   8.163   6.361   6.565  0.1240 -2.3935  0.2892
21663SOL     OW66204   8.803   6.322   7.198  0.2643  0.1862  0.1846
21663SOL    HW166205   8.766   6.342   7.284  0.5260 -0.5492  0.4784
21663SOL    HW266206   8.809   6.226   7.196 -2.5140 -0.0605 -1.8257
21664SOL     OW66207   8.307   6.794   7.228 -0.2317  0.0876 -0.0794
21664SOL    HW166208   8.272   6.769   7.143 -0.0336 -0.0238 -0.1289
21664SOL    HW266209   8.346   6.714   7.263 -0.5099  0.0781  0.2134
21665SOL     OW66210   8.555   5.901   6.099  0.5014  0.3863 -0.2566
21665SOL    HW166211   8.520   5.902   6.010 -1.9804 -1.7995  0.5569
21665SOL    HW266212   8.508   5.971   6.145 -1.5998 -1.2805  0.3276
21666SOL     OW66213   7.897   6.167   6.034 -0.2185 -0.2906  0.1499
21666SOL    HW166214   7.975   6.175   6.088 -0.0204 -2.7300  0.3556
21666SOL    HW266215   7.927   6.119   5.956 -0.5963  2.6686 -1.9991
21667SOL     OW66216   7.476   6.595   6.340 -0.1403 -0.3592 -0.5218
21667SOL    HW166217   7.434   6.526   6.391 -1.6567  1.1577  0.3717
21667SOL    HW266218   7.405   6.634   6.289  0.2317  1.8095  0.4804
21668SOL     OW66219   7.393   7.526   7.490 -0.2075 -0.1011 -0.7745
21668SOL    HW166220   7.443   7.550   7.568 -0.9785  0.4448 -0.4399
21668SOL    HW266221   7.429   7.441   7.465 -0.7410 -0.8803  0.8900
21669SOL     OW66222   8.217   6.069   5.588  0.1116 -0.1827  0.4454
21669SOL    HW166223   8.210   5.974   5.600 -1.3902  0.0580  1.6792
21669SOL    HW266224   8.129   6.102   5.601  0.4173  1.3193 -0.9329
21670SOL     OW66225   0.011   6.718   5.895  0.6044 -0.1553  0.7564
21670SOL    HW166226   0.033   6.795   5.842 -1.7225 -0.3451 -0.6350
21670SOL    HW266227  -0.084   6.711   5.888  0.6011 -2.3103  2.0789
21671SOL     OW66228   7.736   6.062   6.222  0.0442  0.4315 -0.0622
21671SOL    HW166229   7.781   6.085   6.141  0.3738  0.6889  0.1927
21671SOL    HW266230   7.646   6.042   6.195  0.3411 -0.2361 -0.5958
21672SOL     OW66231   8.287   7.085   5.965  0.3794  0.7060  0.0116
21672SOL    HW166232   8.348   7.158   5.951  0.8475  0.2039 -0.6186
21672SOL    HW266233   8.331   7.009   5.927 -0.7432  0.3782 -0.6727
21673SOL     OW66234   7.406   7.327   6.572  0.2512 -0.2753  0.7995
21673SOL    HW166235   7.491   7.286   6.560  0.8439  1.1922 -0.2173
21673SOL    HW266236   7.356   7.304   6.493  0.4022  0.5073  0.4726
21674SOL     OW66237   0.068   7.590   6.801 -0.1074  0.6731  0.4132
21674SOL    HW166238   0.115   7.623   6.724  1.1938 -0.8941  0.5009
21674SOL    HW266239  -0.019   7.568   6.768  0.2327  0.6157 -0.4764
21675SOL     OW66240   7.611   6.325   5.576 -0.5694  0.0131  0.4690
21675SOL    HW166241   7.530   6.327   5.525 -0.2481 -1.0036 -0.1093
21675SOL    HW266242   7.628   6.232   5.591  1.4245  0.0906 -0.9613
21676SOL     OW66243   7.889   7.058   7.066 -0.2355 -0.2622 -0.0649
21676SOL    HW166244   7.867   7.151   7.076 -0.7633 -0.4911  1.0444
21676SOL    HW266245   7.960   7.057   7.002  0.9512  1.0563  1.1655
21677SOL     OW66246   8.756   7.373   5.632 -0.0175 -0.5846  0.0453
21677SOL    HW166247   8.746   7.429   5.556  1.9492 -0.7460 -0.3947
21677SOL    HW266248   8.707   7.293   5.611 -0.5886 -0.1044 -0.4619
21678SOL     OW66249   7.641   5.986   6.932 -0.1251 -0.1232  0.3331
21678SOL    HW166250   7.613   6.034   6.854  0.5310 -0.0017  0.1683
21678SOL    HW266251   7.562   5.942   6.963 -0.1676 -1.0569 -1.0224
21679SOL     OW66252   7.965   7.441   6.238  0.2128 -0.0893  0.7594
21679SOL    HW166253   8.019   7.390   6.178  0.8873  1.6911 -0.2086
21679SOL    HW266254   7.882   7.452   6.192  0.6110  0.9811  0.2576
21680SOL     OW66255   7.728   7.484   6.836  0.2300 -0.4542  0.2257
21680SOL    HW166256   7.633   7.493   6.831 -0.0494 -0.8816  3.1488
21680SOL    HW266257   7.753   7.454   6.749 -2.2764 -0.2289 -0.6738
21681SOL     OW66258   8.242   7.026   6.251 -0.0392 -0.0244 -0.6325
21681SOL    HW166259   8.337   7.040   6.257 -0.3037  1.3025  3.1224
21681SOL    HW266260   8.207   7.111   6.225 -0.2755 -0.0279 -0.3355
21682SOL     OW66261   7.566   6.510   5.782 -0.3053  0.2585 -0.3398
21682SOL    HW166262   7.592   6.468   5.864 -0.6292  0.1700 -0.2776
21682SOL    HW266263   7.589   6.446   5.714  2.9750  1.6138 -0.6743
21683SOL     OW66264   8.180   5.773   5.561  0.6307 -0.6054 -0.5327
21683SOL    HW166265   8.111   5.761   5.627  1.3923 -0.4900  0.3018
21683SOL    HW266266   8.146   5.730   5.482 -0.4156 -0.4974 -0.1502
21684SOL     OW66267   8.352   5.722   7.049  0.3120 -0.2125  0.0095
21684SOL    HW166268   8.290   5.662   7.091 -0.5573 -0.3440 -1.4055
21684SOL    HW266269   8.371   5.682   6.965 -0.5276  1.6283 -1.1141
21685SOL     OW66270   8.665   7.220   7.160 -0.6897  0.0607  0.1682
21685SOL    HW166271   8.668   7.129   7.129 -1.3609  0.4694 -1.1730
21685SOL    HW266272   8.577   7.250   7.136 -0.0714  1.4318 -0.5061
21686SOL     OW66273   8.713   6.503   7.014  0.2374  0.3643 -0.9574
21686SOL    HW166274   8.768   6.449   7.072 -0.9591 -0.3784 -0.4773
21686SOL    HW266275   8.765   6.582   6.999  0.5972  0.5943  1.1332
21687SOL     OW66276   8.091   7.012   6.520  0.1745  0.4279 -0.0818
21687SOL    HW166277   8.150   7.017   6.445 -0.2038  0.8758 -0.3578
21687SOL    HW266278   8.013   6.967   6.487 -0.1351  0.9337 -0.0602
21688SOL     OW66279   8.245   6.075   6.452  0.4808 -0.3707  0.0521
21688SOL    HW166280   8.161   6.075   6.497  1.1542 -1.2307  1.3669
21688SOL    HW266281   8.226   6.043   6.364 -0.3608 -1.9361  0.7766
21689SOL     OW66282   8.022   5.988   5.842 -0.4746 -0.0858 -0.8623
21689SOL    HW166283   7.942   5.935   5.840 -1.4320  1.1749  1.1172
21689SOL    HW266284   8.091   5.924   5.859 -1.5481 -0.8161  1.0735
21690SOL     OW66285   8.848   6.516   5.709 -0.1462  0.2203 -0.2525
21690SOL    HW166286   8.870   6.576   5.780 -0.9497  1.3960 -0.9609
21690SOL    HW266287   8.786   6.565   5.655 -0.4751 -1.0913 -1.1048
21691SOL     OW66288   7.059   5.649   5.804 -0.7140 -0.0059  0.4922
21691SOL    HW166289   7.025   5.597   5.731  0.3052  1.4995 -1.1576
21691SOL    HW266290   7.115   5.715   5.762 -0.6101  1.3509  2.6037
21692SOL     OW66291   8.227   5.830   5.896 -0.0834 -0.8980  0.2150
21692SOL    HW166292   8.276   5.750   5.918 -1.1431 -2.4195 -2.4498
21692SOL    HW266293   8.293   5.889   5.861  0.3559 -1.6069 -0.1773
21693SOL     OW66294   8.252   6.538   6.816 -0.1779 -1.0663 -0.0581
21693SOL    HW166295   8.268   6.486   6.737 -1.3263 -3.3321  1.0828
21693SOL    HW266296   8.318   6.508   6.878 -1.3032 -1.7450  0.8538
21694SOL     OW66297   8.595   7.394   6.364  0.5942 -0.1977 -0.0528
21694SOL    HW166298   8.562   7.446   6.291  0.3737  1.5202  1.1807
21694SOL    HW266299   8.681   7.431   6.383  1.1156 -1.3390 -0.1086
21695SOL     OW66300   7.731   6.799   6.203  0.2328 -0.2357  0.1379
21695SOL    HW166301   7.640   6.826   6.188  0.3508 -0.5582 -1.2347
21695SOL    HW266302   7.726   6.705   6.217  0.3427 -0.2233  0.2698
21696SOL     OW66303   8.802   7.329   6.159 -0.1383  0.0362  0.4654
21696SOL    HW166304   8.780   7.370   6.242  0.9979  0.9558  0.3416
21696SOL    HW266305   8.822   7.238   6.182  1.8948  0.6709  1.5431
21697SOL     OW66306   8.367   6.374   5.688  0.2107  1.2541 -0.2827
21697SOL    HW166307   8.312   6.452   5.699 -0.9746  0.3575  0.3646
21697SOL    HW266308   8.307   6.307   5.654  0.8231  0.1669  0.7153
21698SOL     OW66309   7.391   6.250   6.820 -0.6207 -0.4318  0.2811
21698SOL    HW166310   7.317   6.262   6.879 -0.0223  2.4371  0.6302
21698SOL    HW266311   7.469   6.262   6.875  0.0226 -0.3966 -0.5993
21699SOL     OW66312   7.950   6.133   6.463  0.2081  0.0579  0.3415
21699SOL    HW166313   7.926   6.074   6.392 -0.3682 -0.2139  0.7551
21699SOL    HW266314   7.946   6.079   6.542  3.7232 -0.4483  0.3299
21700SOL     OW66315   7.693   5.819   6.359  0.2358 -0.0367  0.1829
21700SOL    HW166316   7.664   5.762   6.288  1.3605  0.5912 -0.8268
21700SOL    HW266317   7.725   5.897   6.315  2.2160 -0.1643  1.2856
21701SOL     OW66318   8.571   5.546   6.124  0.0214  0.1793  0.0133
21701SOL    HW166319   8.638   5.485   6.095 -0.6965 -0.4110 -0.4435
21701SOL    HW266320   8.536   5.583   6.043 -1.8034 -1.2685  0.0820
21702SOL     OW66321   7.965   7.122   5.648  0.1117  0.0292  0.3574
21702SOL    HW166322   8.007   7.180   5.585  2.4746  0.7066  2.4100
21702SOL    HW266323   7.908   7.179   5.699  0.2552  0.0089  0.5423
21703SOL     OW66324   8.433   6.002   5.849 -0.1980  0.1385  0.0774
21703SOL    HW166325   8.443   6.047   5.766  1.2964  2.7357  1.5241
21703SOL    HW266326   8.410   6.071   5.912  1.3328 -1.2158  2.2855
21704SOL     OW66327   7.391   6.295   6.192 -0.3671  0.2530 -0.4897
21704SOL    HW166328   7.360   6.314   6.103 -0.3391  0.0602 -0.5425
21704SOL    HW266329   7.311   6.289   6.244 -0.5030 -1.2255 -0.8210
21705SOL     OW66330   8.465   6.918   6.496  0.3071  0.1570  0.3089
21705SOL    HW166331   8.407   6.869   6.438 -1.1317  0.9247  1.0625
21705SOL    HW266332   8.490   6.856   6.564  0.9688 -0.3744 -0.3945
21706SOL     OW66333   8.837   7.229   6.427  0.3983  0.4974 -0.5066
21706SOL    HW166334   8.856   7.321   6.443  0.8241  0.3373 -0.0759
21706SOL    HW266335   8.817   7.193   6.514  1.3318 -0.0658 -0.5104
21707SOL     OW66336   7.916   5.905   6.956 -0.2062  0.3031  0.1543
21707SOL    HW166337   7.936   5.964   7.028  0.9966  3.2076 -2.3600
21707SOL    HW266338   7.828   5.930   6.928  0.1070  0.5803 -0.6066
21708SOL     OW66339   8.536   6.767   7.687 -0.5345  0.5551 -0.8395
21708SOL    HW166340   8.476   6.826   7.640  1.1346  1.2277 -2.2269
21708SOL    HW266341   8.620   6.779   7.644  0.5505 -0.6210  0.8313
21709SOL     OW66342   8.179   6.583   5.728 -0.1812  0.2329  0.0628
21709SOL    HW166343   8.187   6.636   5.649  2.7081 -0.1339  0.0202
21709SOL    HW266344   8.170   6.647   5.799  1.1669  0.7392 -0.1975
21710SOL     OW66345   7.713   6.546   6.621  0.4362  0.1560 -0.7006
21710SOL    HW166346   7.713   6.453   6.599 -0.2540  0.1211 -0.5651
21710SOL    HW266347   7.623   6.575   6.605  0.6792  0.8410 -0.9047
21711SOL     OW66348   8.451   6.483   7.015 -0.3779  0.0425 -0.2140
21711SOL    HW166349   8.422   6.436   7.093  0.4928  1.8925  1.2994
21711SOL    HW266350   8.546   6.490   7.025 -0.4843  2.1862 -0.2696
21712SOL     OW66351   7.454   7.490   6.777 -0.2271  0.4449 -0.3127
21712SOL    HW166352   7.444   7.437   6.698 -0.0763  0.8801 -0.6232
21712SOL    HW266353   7.366   7.525   6.793 -0.2629  0.3380 -0.2726
21713SOL     OW66354   7.891   7.025   6.097 -0.2623  0.1984 -0.3184
21713SOL    HW166355   7.814   7.071   6.130  0.6478  1.6510 -0.1283
21713SOL    HW266356   7.867   6.932   6.100 -1.7010  0.5667  0.4848
21714SOL     OW66357   8.014   6.372   6.385  0.2041 -0.5801 -0.0734
21714SOL    HW166358   8.066   6.376   6.305 -0.2506 -0.5997 -0.3728
21714SOL    HW266359   7.992   6.279   6.395 -2.2195 -0.2653 -1.5571
21715SOL     OW66360   8.711   6.961   5.879 -0.0705  0.7106 -0.0607
21715SOL    HW166361   8.630   6.969   5.827 -0.1636 -3.7362 -0.9534
21715SOL    HW266362   8.681   6.968   5.970 -1.3492  0.1519 -0.4053
21716SOL     OW66363   0.407   7.311   6.437 -0.3630 -0.0487  0.7427
21716SOL    HW166364   0.322   7.270   6.427 -0.5434  0.8280 -2.3346
21716SOL    HW266365   0.391   7.404   6.422  1.1437  0.0988 -0.1606
21717SOL     OW66366   7.942   7.210   6.712  0.3301  0.4930 -0.0449
21717SOL    HW166367   7.860   7.164   6.732  1.6164 -1.5326  0.9286
21717SOL    HW266368   7.981   7.158   6.641  0.9641  1.2223 -0.2455
21718SOL     OW66369   7.973   6.884   7.281  0.2138 -0.0723 -0.0353
21718SOL    HW166370   8.049   6.833   7.253 -0.5061 -1.4150  0.3511
21718SOL    HW266371   7.963   6.952   7.214  0.7752 -0.8783 -0.9559
21719SOL     OW66372   8.586   5.794   6.826  0.3320 -0.1624  0.0456
21719SOL    HW166373   8.520   5.742   6.780 -0.9033  0.8543  0.6234
21719SOL    HW266374   8.618   5.735   6.894  0.8851 -1.0612 -0.9652
21720SOL     OW66375   7.756   5.592   7.403 -0.6404 -0.1154 -0.5128
21720SOL    HW166376   7.721   5.682   7.407 -0.1630  0.0377  1.6519
21720SOL    HW266377   7.838   5.597   7.452 -0.1766 -1.5723 -1.1148
21721SOL     OW66378   7.980   6.594   6.554  0.4327  0.2283 -0.0331
21721SOL    HW166379   7.886   6.584   6.562  0.2276  1.6512 -0.3146
21721SOL    HW266380   8.009   6.518   6.504 -0.4549 -0.5502  0.5989
21722SOL     OW66381   8.609   6.471   6.584 -0.4997 -0.4760  0.0958
21722SOL    HW166382   8.693   6.440   6.617 -0.8096 -1.2997  0.1300
21722SOL    HW266383   8.547   6.401   6.604 -1.4158  0.5234  0.9903
21723SOL     OW66384   8.424   5.739   5.459  0.1568  0.1357  0.2607
21723SOL    HW166385   8.343   5.765   5.503 -1.0266  0.9391 -2.2208
21723SOL    HW266386   8.417   5.644   5.452 -0.9550  0.2618 -0.5865
21724SOL     OW66387   7.753   5.425   6.965 -0.2858  0.3111 -0.0156
21724SOL    HW166388   7.747   5.336   7.001 -1.0873  0.5672  0.5072
21724SOL    HW266389   7.843   5.452   6.984  0.4989 -0.9851 -1.6340
21725SOL     OW66390   7.341   6.893   6.605  0.5042  0.0381  0.1817
21725SOL    HW166391   7.389   6.931   6.679 -0.5850 -2.1660  2.1705
21725SOL    HW266392   7.351   6.798   6.617  0.5254 -0.4064 -2.7283
21726SOL     OW66393   8.112   6.426   6.148  0.2300  0.1970  0.1560
21726SOL    HW166394   8.176   6.495   6.162  2.6464 -1.9386  0.4699
21726SOL    HW266395   8.092   6.429   6.054  0.3740  1.2149  0.1538
21727SOL     OW66396   7.622   5.634   6.087  0.1365 -0.1661 -0.2564
21727SOL    HW166397   7.617   5.559   6.147 -0.6058  1.0727  1.3134
21727SOL    HW266398   7.593   5.599   6.003 -0.1459 -1.6492  0.4153
21728SOL     OW66399   0.118   6.285   5.595 -0.4588  0.0284  0.0442
21728SOL    HW166400   0.106   6.360   5.654  0.9444 -0.7494  1.4131
21728SOL    HW266401   0.042   6.229   5.612 -0.5643  0.2730  0.3908
21729SOL     OW66402   8.471   6.689   6.667  1.1899  0.5809  0.0457
21729SOL    HW166403   8.528   6.620   6.633  1.1832  0.7624 -0.3479
21729SOL    HW266404   8.387   6.673   6.624  0.8499  0.1223  0.8682
21730SOL     OW66405   8.636   7.529   7.528 -0.1564  0.3107  0.4954
21730SOL    HW166406   8.587   7.587   7.587 -0.3089  3.4239 -2.3891
21730SOL    HW266407   8.573   7.462   7.502 -1.0746  0.8397  1.2841
21731SOL     OW66408   7.712   6.527   7.261  0.2852 -0.3396  0.1035
21731SOL    HW166409   7.676   6.522   7.173  0.2468  0.2744  0.0796
21731SOL    HW266410   7.642   6.565   7.315  0.9692  1.1703 -0.0134
21732SOL     OW66411   8.208   6.263   5.083  0.0448 -0.4766  0.0162
21732SOL    HW166412   8.179   6.345   5.044 -1.1208 -0.6478  0.4664
21732SOL    HW266413   8.172   6.264   5.171  1.4340 -0.7392  0.6130
21733SOL     OW66414   8.449   7.471   6.582 -0.5735 -0.3694 -0.3933
21733SOL    HW166415   8.499   7.505   6.656  0.3323  1.7099 -1.8487
21733SOL    HW266416   8.516   7.437   6.521 -0.9563  1.2760 -1.8082
21734SOL     OW66417   7.400   6.395   6.552 -1.0884 -0.3277 -0.0675
21734SOL    HW166418   7.363   6.326   6.496 -0.1529 -0.2181 -0.8447
21734SOL    HW266419   7.386   6.363   6.641  0.7558 -2.3535 -0.4058
21735SOL     OW66420   7.727   6.278   6.542  0.4011 -0.3139 -0.0991
21735SOL    HW166421   7.798   6.236   6.492 -0.5629 -1.5061 -0.5121
21735SOL    HW266422   7.664   6.208   6.558  0.3478  0.1993  2.2416
21736SOL     OW66423   8.097   5.925   7.214 -0.1924  0.2475 -0.1275
21736SOL    HW166424   8.149   5.857   7.171  1.4041  1.8015 -0.8213
21736SOL    HW266425   8.159   5.997   7.227 -1.3919  0.9636  2.1030
21737SOL     OW66426   8.262   6.105   6.938 -0.4509 -0.3649 -0.1932
21737SOL    HW166427   8.194   6.164   6.905  0.8436  0.7684 -0.9533
21737SOL    HW266428   8.244   6.022   6.894 -1.1013  0.0297 -0.7005
21738SOL     OW66429   7.864   6.972   5.259 -0.7425  0.8605 -0.3316
21738SOL    HW166430   7.912   6.927   5.329  0.4599  0.3109 -1.4590
21738SOL    HW266431   7.772   6.950   5.275 -0.3264 -0.7349  0.0740
21739SOL     OW66432   7.225   7.517   6.372  0.0878 -0.2447  0.0145
21739SOL    HW166433   7.195   7.437   6.328  1.9274 -0.6081 -0.6780
21739SOL    HW266434   7.201   7.504   6.464 -1.7035 -0.5329 -0.4589
21740SOL     OW66435   8.106   6.791   6.262  0.1040  0.1447 -0.5097
21740SOL    HW166436   8.149   6.876   6.255 -0.4096  0.4503 -0.0520
21740SOL    HW266437   8.013   6.811   6.269 -0.1231 -0.5145 -1.4799
21741SOL     OW66438   8.453   6.227   6.688  0.1787  0.1469  0.2633
21741SOL    HW166439   8.396   6.200   6.761 -0.7929  2.0736  0.2946
21741SOL    HW266440   8.532   6.175   6.699 -1.4095 -2.4101  0.4200
21742SOL     OW66441   7.443   6.632   6.636 -0.1071  0.1291  0.1360
21742SOL    HW166442   7.438   6.570   6.562 -0.3215 -0.0182  0.2733
21742SOL    HW266443   7.361   6.618   6.684 -0.7480  1.4118 -0.5309
21743SOL     OW66444   7.797   6.200   7.211 -0.0864  0.1486  0.4033
21743SOL    HW166445   7.718   6.247   7.238  0.6400  2.6968 -1.4933
21743SOL    HW266446   7.863   6.268   7.199  1.5261 -1.5504 -1.0343
21744SOL     OW66447   7.743   6.397   6.009  0.9970 -0.4673 -0.1092
21744SOL    HW166448   7.735   6.424   6.100  0.6741 -0.7966 -0.0362
21744SOL    HW266449   7.794   6.316   6.012 -1.4020 -2.0760  0.0830
21745SOL     OW66450   7.506   7.215   7.196 -0.4749 -0.0419 -0.0796
21745SOL    HW166451   7.571   7.197   7.264 -0.8280 -0.0846  0.2558
21745SOL    HW266452   7.471   7.129   7.173 -0.2268 -0.0438 -0.4463
21746SOL     OW66453   7.837   6.244   6.784  0.5619  0.8211 -0.4047
21746SOL    HW166454   7.841   6.148   6.776  1.6883  0.7775  0.4743
21746SOL    HW266455   7.791   6.272   6.705 -1.4446 -0.5657  0.1771
21747SOL     OW66456   8.487   7.375   7.385  0.5186  0.0391 -0.3711
21747SOL    HW166457   8.496   7.352   7.293  0.9738  0.7263 -0.5047
21747SOL    HW266458   8.429   7.307   7.421  1.1981 -0.8478 -0.9145
21748SOL     OW66459   7.820   5.992   5.462  0.1804  0.4491  0.7063
21748SOL    HW166460   7.817   5.907   5.419 -0.5899  0.6278  0.3790
21748SOL    HW266461   7.735   5.999   5.506  0.6870  0.5658  1.6855
21749SOL     OW66462   7.611   6.827   6.778  0.2486  0.8312  0.0592
21749SOL    HW166463   7.566   6.752   6.739 -1.0167  0.5460  1.9529
21749SOL    HW266464   7.635   6.797   6.866  0.2742  2.4553  0.6268
21750SOL     OW66465   8.555   6.737   6.918  0.3163 -0.7535 -0.1642
21750SOL    HW166466   8.544   6.648   6.950  0.3092 -0.6389  0.1510
21750SOL    HW266467   8.539   6.731   6.823  3.0412 -1.6017 -0.6515
21751SOL     OW66468   8.463   6.227   5.297 -0.4997  0.1384  0.3314
21751SOL    HW166469   8.514   6.155   5.332 -1.4577  0.3720  2.3281
21751SOL    HW266470   8.379   6.222   5.342 -0.6447  2.4230  0.4593
21752SOL     OW66471   0.192   7.672   6.535 -0.0870  0.5001 -0.0203
21752SOL    HW166472   0.205   7.753   6.484  1.1776  0.1136 -0.3492
21752SOL    HW266473   0.260   7.613   6.502 -1.2168 -0.8210 -0.0182
21753SOL     OW66474   7.437   7.058   6.418  0.2020 -0.0501 -0.2917
21753SOL    HW166475   7.362   7.094   6.372 -0.3770  1.8159  1.9100
21753SOL    HW266476   7.399   6.999   6.484  0.5263  1.3632  1.2362
21754SOL     OW66477   8.256   7.503   7.310 -0.5649  0.0570  0.1539
21754SOL    HW166478   8.261   7.484   7.216  2.1586  0.6940  0.0868
21754SOL    HW266479   8.339   7.470   7.345 -1.1346  0.6622  2.1845
21755SOL     OW66480   0.183   7.573   6.235 -0.6777 -0.0174 -0.3100
21755SOL    HW166481   0.231   7.496   6.205 -2.3624 -1.1742 -0.1813
21755SOL    HW266482   0.242   7.616   6.296 -0.2661 -2.0750  0.8134
21756SOL     OW66483   7.121   7.089   7.384 -0.7226 -0.5066 -0.0434
21756SOL    HW166484   7.071   7.150   7.439 -1.8175 -1.2029 -0.2304
21756SOL    HW266485   7.120   7.128   7.297  0.1858  0.1189  0.2132
21757SOL     OW66486   8.337   6.619   6.203  0.0560  0.4233  0.7086
21757SOL    HW166487   8.390   6.574   6.268  1.2073  1.4889  0.5521
21757SOL    HW266488   8.274   6.670   6.254 -1.9744 -2.0664  0.8805
21758SOL     OW66489   8.421   7.306   7.082  0.1180  0.1189  0.6709
21758SOL    HW166490   8.354   7.372   7.067  0.4350  0.6782  1.6309
21758SOL    HW266491   8.433   7.264   6.997 -1.0994  0.3255  0.3720
21759SOL     OW66492   8.486   7.429   5.789 -0.2501 -0.7025  0.0521
21759SOL    HW166493   8.564   7.379   5.814  1.6121  2.5475  1.2507
21759SOL    HW266494   8.430   7.425   5.867 -0.3341 -1.2614 -0.0307
21760SOL     OW66495   7.378   5.943   6.435  0.1666  0.2200  0.2617
21760SOL    HW166496   7.411   5.961   6.347  0.2319  2.1529  0.6264
21760SOL    HW266497   7.456   5.946   6.490 -0.1366  1.3281  0.6622
21761SOL     OW66498   8.677   7.262   5.911 -0.3941 -0.1985  0.0124
21761SOL    HW166499   8.701   7.297   5.997 -1.1716 -0.6126  0.4147
21761SOL    HW266500   8.734   7.186   5.899 -0.2366 -0.1001  0.1289
21762SOL     OW66501   8.159   7.002   6.964  0.5583  0.4419 -0.1398
21762SOL    HW166502   8.188   7.009   6.874  0.9219 -2.3770 -0.3429
21762SOL    HW266503   8.162   6.908   6.983 -4.4075  0.2304  1.1275
21763SOL     OW66504   8.469   6.650   5.980  0.1090 -0.1625 -0.1608
21763SOL    HW166505   8.410   6.633   6.053 -1.8934 -0.9611 -1.8711
21763SOL    HW266506   8.516   6.568   5.966  1.6647  0.4518  1.1538
21764SOL     OW66507   7.661   7.101   6.768 -0.4944  0.2494  0.6327
21764SOL    HW166508   7.620   7.143   6.844 -0.0580  0.1435  0.9304
21764SOL    HW266509   7.638   7.009   6.776 -0.1848  0.1871  0.8088
21765SOL     OW66510   8.511   7.145   6.353  0.6022  0.4860 -0.5423
21765SOL    HW166511   8.546   7.098   6.428 -0.4842 -1.0577 -0.9576
21765SOL    HW266512   8.528   7.237   6.372  0.9020  0.0797  1.2978
21766SOL     OW66513   8.109   6.041   6.194 -0.0684  0.0262 -0.3978
21766SOL    HW166514   8.166   6.053   6.118 -0.5607 -1.0513 -0.9620
21766SOL    HW266515   8.115   5.947   6.214 -0.6921  0.1243  0.2868
21767SOL     OW66516   8.080   7.226   6.096  0.2315 -0.9674  0.0209
21767SOL    HW166517   8.002   7.175   6.074 -0.5169 -0.4161  1.2960
21767SOL    HW266518   8.149   7.190   6.041 -1.3518 -0.0981 -2.6997
21768SOL     OW66519   7.965   6.840   5.484 -0.5105  0.3096  0.2475
21768SOL    HW166520   7.898   6.772   5.494 -0.4986  0.1722 -0.5766
21768SOL    HW266521   7.954   6.896   5.561 -2.4169  1.0241 -0.4939
21769SOL     OW66522   7.364   6.962   6.992 -0.2971 -0.1500 -0.7830
21769SOL    HW166523   7.340   7.042   6.945 -0.6855  0.4426  0.3904
21769SOL    HW266524   7.450   6.980   7.029 -0.0666 -0.5504 -1.1192
21770SOL     OW66525   7.835   5.956   7.293  0.1199 -0.4550 -0.4429
21770SOL    HW166526   7.903   5.926   7.233 -0.6482 -0.1708 -1.4692
21770SOL    HW266527   7.824   6.049   7.273  1.7955  0.3838  2.0488
21771SOL     OW66528   7.224   5.818   5.641 -0.0008 -0.3499  0.3214
21771SOL    HW166529   7.227   5.902   5.595  0.8990  0.1904  1.3337
21771SOL    HW266530   7.284   5.828   5.714 -0.5635 -1.5803  0.9832
21772SOL     OW66531   8.798   6.817   6.973 -0.0121 -0.0401  0.1056
21772SOL    HW166532   8.704   6.810   6.959  0.1397 -0.0752 -0.9983
21772SOL    HW266533   8.837   6.771   6.899  0.8808  2.9078 -1.4465
21773SOL     OW66534   7.173   5.992   5.877  0.1765  0.2597  0.2206
21773SOL    HW166535   7.147   6.019   5.965  0.6572  2.2052 -0.1729
21773SOL    HW266536   7.105   6.027   5.820  0.6893  0.4066 -0.3110
21774SOL     OW66537   8.424   6.863   5.798  0.0728  0.6196 -0.0009
21774SOL    HW166538   8.365   6.826   5.733 -0.0261 -0.6660  0.7761
21774SOL    HW266539   8.445   6.789   5.856  1.6254  1.2856  0.3372
21775SOL     OW66540   8.004   6.353   7.163 -0.2437 -0.3045  0.5011
21775SOL    HW166541   7.959   6.426   7.121  1.0488 -0.3864 -1.1267
21775SOL    HW266542   8.060   6.316   7.094  1.6441 -0.7346  2.1634
21776SOL     OW66543   8.199   6.513   7.333 -0.3027  0.0692 -0.0896
21776SOL    HW166544   8.142   6.510   7.255  1.1781  1.5019 -1.3069
21776SOL    HW266545   8.270   6.453   7.313  0.9948  1.7128 -0.6861
21777SOL     OW66546   0.125   7.210   7.088  0.3255 -0.2805  0.3575
21777SOL    HW166547   0.146   7.300   7.112 -0.6303  0.0261  0.0866
21777SOL    HW266548   0.210   7.166   7.084  0.8304  0.6807  0.1829
21778SOL     OW66549   7.899   7.330   6.984  0.2341 -0.3046 -0.1056
21778SOL    HW166550   7.845   7.405   6.958  1.4288  0.5507 -0.2064
21778SOL    HW266551   7.921   7.286   6.903  1.4483  0.6011 -0.2882
21779SOL     OW66552   8.354   5.600   5.943  0.5910  0.6629  0.4494
21779SOL    HW166553   8.406   5.640   5.874 -1.6770 -0.0495 -1.8202
21779SOL    HW266554   8.353   5.507   5.922  0.5142  0.2984  1.9460
21780SOL     OW66555   7.849   6.579   5.822  0.0743  0.6177  0.2737
21780SOL    HW166556   7.913   6.617   5.883  1.4346 -1.4963  0.2718
21780SOL    HW266557   7.794   6.523   5.876  2.0952 -2.2973 -0.4514
21781SOL     OW66558   8.247   6.927   5.341  0.0414 -0.0554  0.0754
21781SOL    HW166559   8.248   7.018   5.372  0.4469 -0.0862  0.1630
21781SOL    HW266560   8.332   6.915   5.300 -0.3178 -0.1588 -0.6500
21782SOL     OW66561   8.147   7.403   6.758  0.2900 -0.5853  0.3112
21782SOL    HW166562   8.079   7.336   6.766 -1.0990  0.9718  2.6052
21782SOL    HW266563   8.135   7.437   6.669 -0.7166 -1.5552  0.0386
21783SOL     OW66564   8.228   6.689   6.488  0.1801  0.5693  0.1722
21783SOL    HW166565   8.167   6.633   6.536  0.9599  0.0498  0.5728
21783SOL    HW266566   8.172   6.746   6.437 -0.6841 -1.7404 -1.6494
21784SOL     OW66567   8.620   6.257   5.596  0.1890  0.2962  0.2384
21784SOL    HW166568   8.653   6.311   5.525  1.3525  0.0127  0.5345
21784SOL    HW266569   8.545   6.305   5.631 -0.3608  0.4578 -1.1328
21785SOL     OW66570   7.947   6.614   7.080  0.2948 -0.2482 -0.7436
21785SOL    HW166571   7.889   6.648   7.148 -0.6384 -2.8204 -0.1121
21785SOL    HW266572   7.903   6.634   6.997 -0.6263 -0.6185 -0.3520
21786SOL     OW66573   7.662   7.194   6.526  0.2511  0.0908 -0.0659
21786SOL    HW166574   7.682   7.155   6.611  3.0383 -0.9105 -1.0600
21786SOL    HW266575   7.611   7.128   6.480 -0.6379  0.3456  0.5200
21787SOL     OW66576   8.383   7.150   7.436  0.6093  0.4218  0.2067
21787SOL    HW166577   8.406   7.064   7.472  0.7829 -0.1548 -1.2359
21787SOL    HW266578   8.304   7.135   7.385 -0.3008  1.4683  1.2360
21788SOL     OW66579   7.460   6.049   6.201  0.4590 -0.0368  0.2723
21788SOL    HW166580   7.448   6.143   6.186  1.7511 -0.0198 -0.8219
21788SOL    HW266581   7.423   6.007   6.123  0.1531 -0.4230  0.6235
21789SOL     OW66582   7.632   6.315   6.954 -0.7005  0.7661  0.0482
21789SOL    HW166583   7.713   6.316   6.903 -1.7384 -1.2340 -1.7833
21789SOL    HW266584   7.644   6.243   7.016 -0.3599  1.7271  1.1448
21790SOL     OW66585   8.295   7.406   6.365 -0.3667  0.2820  0.5062
21790SOL    HW166586   8.358   7.428   6.434 -0.4009  1.5939  0.1435
21790SOL    HW266587   8.267   7.490   6.330  1.8298 -0.2806 -3.1436
21791SOL     OW66588   7.949   5.978   6.674  0.4647 -0.0073  0.0226
21791SOL    HW166589   7.895   5.900   6.668  1.0863 -0.3190 -2.5960
21791SOL    HW266590   8.022   5.953   6.730 -0.4812 -0.5377  1.0638
21792SOL     OW66591   8.487   5.707   6.576 -0.3511  0.0782 -0.1318
21792SOL    HW166592   8.576   5.706   6.542 -0.5225 -2.0076 -0.6442
21792SOL    HW266593   8.431   5.717   6.499 -0.6360 -1.8865 -0.2293
21793SOL     OW66594   8.244   6.803   5.589 -0.2965  0.0826  0.0458
21793SOL    HW166595   8.192   6.855   5.651  0.6837 -0.3616  1.2854
21793SOL    HW266596   8.220   6.837   5.503 -1.0612  1.3092  0.7135
21794SOL     OW66597   8.221   7.490   7.015  0.1740  0.2278 -0.3369
21794SOL    HW166598   8.218   7.585   7.015 -1.7700  0.2059  0.2169
21794SOL    HW266599   8.176   7.464   6.935 -2.3286 -0.1928  1.1022
21795SOL     OW66600   8.796   5.553   5.801  0.3290 -0.5942 -1.1936
21795SOL    HW166601   8.846   5.596   5.871 -1.0893  0.2226 -0.6299
21795SOL    HW266602   8.860   5.497   5.757  1.2111 -1.4449  0.9900
21796SOL     OW66603   7.714   6.713   5.523  0.4181 -0.2846 -0.5447
21796SOL    HW166604   7.717   6.641   5.460  1.6062 -0.3817 -0.3951
21796SOL    HW266605   7.636   6.763   5.499 -0.6000 -1.7635 -0.4791
21797SOL     OW66606   8.354   7.355   6.054 -0.1295 -0.1066 -0.6558
21797SOL    HW166607   8.304   7.338   6.134  0.9895 -0.4261 -0.0060
21797SOL    HW266608   8.394   7.441   6.068 -1.9969  1.0608 -1.9855
21798SOL     OW66609   7.493   6.744   7.296 -0.1432  1.4609 -0.3511
21798SOL    HW166610   7.452   6.797   7.365 -2.6004  0.4407 -0.9227
21798SOL    HW266611   7.420   6.717   7.241  1.1237 -1.6752 -0.6568
21799SOL     OW66612   7.185   6.166   7.881 -0.2418 -0.3260 -0.1373
21799SOL    HW166613   7.115   6.232   7.879 -0.5647 -0.6283  0.7841
21799SOL    HW266614   7.259   6.211   7.921  0.1924  0.0671 -1.3292
21800SOL     OW66615   7.648   6.146   7.827 -0.8595  0.0021  0.2098
21800SOL    HW166616   7.666   6.186   7.742  1.3341 -1.1800  0.0454
21800SOL    HW266617   7.711   6.186   7.887 -0.2384 -1.4167  0.5509
21801SOL     OW66618   7.598   7.430   8.111 -0.3415 -0.4758 -0.6215
21801SOL    HW166619   7.629   7.485   8.184 -1.7382  1.5370 -1.4543
21801SOL    HW266620   7.531   7.374   8.150 -0.1593 -0.3393 -0.0984
21802SOL     OW66621   8.506   7.205   8.302  0.3393 -0.0584  0.0300
21802SOL    HW166622   8.461   7.226   8.219  1.1070 -0.6144 -0.5436
21802SOL    HW266623   8.522   7.111   8.296 -0.0329 -0.1921  1.0400
21803SOL     OW66624   8.656   6.443   8.359 -0.2157  0.0812 -0.1303
21803SOL    HW166625   8.663   6.525   8.408  0.0289 -0.4617  0.7472
21803SOL    HW266626   8.746   6.414   8.347 -0.1212  1.0839 -2.4513
21804SOL     OW66627   8.096   7.263   8.360  0.5558  0.1881  0.3612
21804SOL    HW166628   8.054   7.295   8.440 -2.1817 -1.0334 -0.4776
21804SOL    HW266629   8.128   7.175   8.383 -0.0473 -0.0804  0.1860
21805SOL     OW66630   8.110   6.891   7.598 -0.5824 -0.0694  0.2056
21805SOL    HW166631   8.106   6.927   7.687  0.0957 -0.1228  0.2648
21805SOL    HW266632   8.071   6.958   7.543  0.1192  0.5026  0.3917
21806SOL     OW66633   7.787   7.072   8.182  0.5429 -0.0515 -0.1175
21806SOL    HW166634   7.698   7.054   8.154  0.4506 -0.9887  0.7321
21806SOL    HW266635   7.809   7.155   8.139 -0.6547  0.0946 -0.4889
21807SOL     OW66636   8.244   6.103   8.488 -0.0717  0.0278 -0.1465
21807SOL    HW166637   8.157   6.095   8.449 -0.7630 -0.3959  1.4356
21807SOL    HW266638   8.229   6.136   8.576  1.3197 -0.6122  0.3643
21808SOL     OW66639   7.350   7.655   7.731  0.1401 -0.3429  0.3731
21808SOL    HW166640   7.372   7.656   7.824 -0.5878 -1.1205  0.5683
21808SOL    HW266641   7.258   7.678   7.728  0.6603  1.8392 -0.3491
21809SOL     OW66642   7.652   7.476   7.848 -0.2140  0.3534 -0.5054
21809SOL    HW166643   7.647   7.456   7.942 -1.4063  0.0089 -0.6194
21809SOL    HW266644   7.720   7.543   7.841  2.2931 -1.9217  0.1925
21810SOL     OW66645   7.984   6.825   7.884  0.3197 -0.0484 -0.4175
21810SOL    HW166646   7.895   6.809   7.851  0.4828  1.1306 -1.5337
21810SOL    HW266647   7.972   6.885   7.957  0.2824  2.1475 -2.1039
21811SOL     OW66648   7.692   7.557   0.362  0.5351 -0.5148 -0.3038
21811SOL    HW166649   7.716   7.599   0.279 -0.6459  0.5257 -0.1544
21811SOL    HW266650   7.645   7.478   0.335  1.0957 -0.7516 -0.6090
21812SOL     OW66651   8.160   6.644   7.570  0.3699  0.5086  0.8646
21812SOL    HW166652   8.134   6.737   7.570  0.4454  0.7070 -2.7993
21812SOL    HW266653   8.157   6.619   7.477  0.8788 -3.0502  1.6656
21813SOL     OW66654   0.082   5.825   0.010  0.1924 -0.0353  0.2342
21813SOL    HW166655   0.105   5.762  -0.058  0.8696  1.4038 -0.9370
21813SOL    HW266656   0.017   5.780   0.064 -0.2933 -1.2626 -1.3039
21814SOL     OW66657   7.797   6.604   7.693 -0.1484  0.1166 -0.1186
21814SOL    HW166658   7.799   6.561   7.608  2.8132  1.0429 -0.6163
21814SOL    HW266659   7.860   6.555   7.746 -0.4986  0.7771  0.9406
21815SOL     OW66660   7.708   7.443   7.222  0.1555 -0.6294 -0.2686
21815SOL    HW166661   7.648   7.517   7.221  0.1977 -0.5345  1.3994
21815SOL    HW266662   7.652   7.366   7.234  0.2285 -0.7174 -0.4820
21816SOL     OW66663   0.182   6.119   8.164  0.1399  0.4731 -0.2990
21816SOL    HW166664   0.226   6.051   8.215 -0.4857 -0.4109 -0.9125
21816SOL    HW266665   0.230   6.121   8.081 -0.2679  0.3003 -0.5394
21817SOL     OW66666   7.751   7.466   7.492  0.0726 -0.0042 -0.4295
21817SOL    HW166667   7.684   7.410   7.530  1.2903 -0.7690  0.6728
21817SOL    HW266668   7.792   7.412   7.425 -0.9325  0.7550 -1.7035
21818SOL     OW66669   7.369   5.484   7.515  0.0418 -0.5428 -0.1549
21818SOL    HW166670   7.283   5.455   7.545  0.1644 -0.2555  0.4937
21818SOL    HW266671   7.359   5.495   7.420 -0.3314 -1.5387 -0.2358
21819SOL     OW66672   7.603   7.074   8.503  0.2446  0.1145 -0.1159
21819SOL    HW166673   7.640   7.133   8.569 -0.0349 -1.0677  1.1294
21819SOL    HW266674   7.675   7.014   8.483 -0.5004 -1.3115  1.2744
21820SOL     OW66675   8.182   6.331   7.574 -0.1299 -0.1577  0.0610
21820SOL    HW166676   8.269   6.330   7.613 -1.1727 -1.6536  2.6002
21820SOL    HW266677   8.190   6.390   7.499  3.3030 -1.0887 -0.4625
21821SOL     OW66678   8.414   6.160   8.287 -0.8140 -0.4345  0.2502
21821SOL    HW166679   8.391   6.096   8.221 -0.8216 -0.5180  0.3325
21821SOL    HW266680   8.354   6.143   8.360 -0.0484 -1.1016  0.7413
21822SOL     OW66681   7.766   6.023   8.738 -0.1920  0.2553 -0.6126
21822SOL    HW166682   7.721   6.015   8.654 -0.3766  0.1481 -0.5056
21822SOL    HW266683   7.752   5.938   8.781  1.8434 -0.5523 -1.4220
21823SOL     OW66684   8.165   5.726   8.349  0.6788  0.4952 -0.0468
21823SOL    HW166685   8.122   5.812   8.348 -1.5237 -0.5250  1.1080
21823SOL    HW266686   8.176   5.704   8.257 -0.2648  1.3054 -0.3730
21824SOL     OW66687   8.363   5.985   8.101  0.4796 -0.0681 -0.3274
21824SOL    HW166688   8.451   5.977   8.063  1.1433 -1.7236  1.3942
21824SOL    HW266689   8.326   5.897   8.092 -1.0997  0.6486 -1.1771
21825SOL     OW66690   7.602   6.751   8.039  0.3762  0.0385 -0.4507
21825SOL    HW166691   7.687   6.724   8.075  0.9158 -0.0168 -1.7331
21825SOL    HW266692   7.569   6.673   7.994  1.3156  1.0192 -3.0204
21826SOL     OW66693   7.326   8.075   8.724  0.3275  0.1387  0.0318
21826SOL    HW166694   7.339   8.156   8.772  0.9270  1.4868 -2.2512
21826SOL    HW266695   7.345   8.006   8.787  1.4154  1.8029  1.6062
21827SOL     OW66696   8.034   5.529   7.763 -0.6794 -0.7284  0.2261
21827SOL    HW166697   7.944   5.517   7.735 -1.2310  0.3232  1.4556
21827SOL    HW266698   8.039   5.487   7.849  0.4033 -2.0036 -0.4146
21828SOL     OW66699   8.427   6.949   7.932  0.6829 -0.3623 -0.7705
21828SOL    HW166700   8.441   6.956   8.026 -1.3005 -0.2197 -0.4383
21828SOL    HW266701   8.502   6.994   7.893  0.8004  0.8524  0.7685
21829SOL     OW66702   8.320   5.309   7.885  0.1702 -0.1903 -0.3324
21829SOL    HW166703   8.350   5.384   7.832 -0.4936  0.9345  0.8152
21829SOL    HW266704   8.399   5.273   7.924  0.5125 -0.1730 -1.0000
21830SOL     OW66705   8.107   7.343   8.113  0.3208 -0.0439  0.2171
21830SOL    HW166706   8.098   7.311   8.203 -1.0396 -0.6282 -0.1038
21830SOL    HW266707   8.039   7.297   8.064  1.2078  0.0684 -1.1775
21831SOL     OW66708   7.927   7.903   8.481  0.2845 -0.2180  0.6998
21831SOL    HW166709   7.987   7.901   8.407  0.4872  0.8040  0.8165
21831SOL    HW266710   7.887   7.816   8.482  0.9351 -0.5404 -0.0568
21832SOL     OW66711   7.732   6.905   7.414 -0.3564  0.5729 -0.3824
21832SOL    HW166712   7.807   6.882   7.360 -0.4522 -0.7925  0.0447
21832SOL    HW266713   7.660   6.850   7.382 -0.3068 -0.5902  1.3648
21833SOL     OW66714   8.723   7.325   7.999 -0.4202 -0.0048 -0.0431
21833SOL    HW166715   8.646   7.325   8.056 -0.8636 -0.7253 -0.6312
21833SOL    HW266716   8.786   7.267   8.043 -1.4071 -1.9751 -1.1021
21834SOL     OW66717   7.936   7.567   7.182  0.3058  0.1638 -0.2008
21834SOL    HW166718   7.854   7.519   7.198  1.4114 -1.5645  0.5327
21834SOL    HW266719   7.986   7.510   7.124  0.6259  1.6490 -1.4408
21835SOL     OW66720   7.511   7.669   8.406 -0.2075  0.1375  0.1917
21835SOL    HW166721   7.544   7.747   8.449  1.4270 -1.6295  2.4048
21835SOL    HW266722   7.589   7.627   8.369 -0.9529 -0.7407 -0.4529
21836SOL     OW66723   8.262   7.437   8.535 -0.0750  0.1229  0.5311
21836SOL    HW166724   8.298   7.349   8.529 -1.8300 -0.5170 -1.6910
21836SOL    HW266725   8.263   7.457   8.629 -1.2689 -2.9601  1.2931
21837SOL     OW66726   8.061   6.470   7.870 -0.0563 -0.4176 -0.1409
21837SOL    HW166727   8.086   6.481   7.778  0.5517 -1.7874 -0.1719
21837SOL    HW266728   8.108   6.539   7.916 -0.2398  0.1888 -0.8304
21838SOL     OW66729   8.391   6.122   7.185 -0.2399  0.3914 -0.2330
21838SOL    HW166730   8.472   6.091   7.143 -0.3550  1.6698 -1.4982
21838SOL    HW266731   8.328   6.126   7.113 -1.0047  0.8010  0.4528
21839SOL     OW66732   8.479   7.821   8.226  0.3236  0.2524  0.5831
21839SOL    HW166733   8.433   7.739   8.244  2.7311 -1.7373 -1.3950
21839SOL    HW266734   8.457   7.841   8.135 -1.4033  2.7472  1.4587
21840SOL     OW66735   8.018   6.957   8.153  1.0629 -0.7539 -0.3016
21840SOL    HW166736   7.939   7.012   8.160  1.7408  0.3551 -1.0361
21840SOL    HW266737   8.020   6.908   8.235  1.7832  2.1882  1.5858
21841SOL     OW66738   8.280   6.328   8.080 -0.4142 -0.6159 -0.6001
21841SOL    HW166739   8.241   6.398   8.026  0.3114 -0.1748 -0.5685
21841SOL    HW266740   8.312   6.264   8.016 -0.3615 -0.5320 -0.6586
21842SOL     OW66741   7.642   5.380   7.499  0.5329 -0.3701  0.2791
21842SOL    HW166742   7.548   5.392   7.511  0.3079  0.2095 -1.7682
21842SOL    HW266743   7.671   5.461   7.458  1.9190 -0.6109  0.7325
21843SOL     OW66744   8.800   6.871   7.624 -0.5012  0.3436 -0.2842
21843SOL    HW166745   8.790   6.949   7.679  0.7856  2.5427 -2.9439
21843SOL    HW266746   8.748   6.889   7.546  0.4600 -1.1139 -1.3225
21844SOL     OW66747   7.424   5.971   7.253  0.3418 -0.9167 -0.2493
21844SOL    HW166748   7.395   5.970   7.161  1.0819 -0.5086 -0.4889
21844SOL    HW266749   7.459   6.059   7.266 -0.5156 -0.6971  0.6714
21845SOL     OW66750   8.259   6.120   7.885  0.4599  0.0254 -0.1856
21845SOL    HW166751   8.240   6.053   7.951 -0.7869  1.8260  1.3653
21845SOL    HW266752   8.219   6.086   7.805  0.8407 -1.5874  0.2731
21846SOL     OW66753   8.409   7.299   8.066 -0.1119 -0.2219  0.1642
21846SOL    HW166754   8.315   7.301   8.084  0.0800 -0.5347  1.2574
21846SOL    HW266755   8.415   7.276   7.974 -1.0956 -1.2982  0.3484
21847SOL     OW66756   7.836   7.122   7.754 -0.1496 -0.1318 -0.1571
21847SOL    HW166757   7.879   7.133   7.670 -1.2234  1.1641 -0.5569
21847SOL    HW266758   7.800   7.033   7.751  2.1087 -1.1179  0.0539
21848SOL     OW66759   8.336   7.584   7.891  0.0874 -0.3487  0.3933
21848SOL    HW166760   8.265   7.535   7.850 -0.3605  2.5980 -2.8301
21848SOL    HW266761   8.416   7.545   7.854 -0.1401 -0.3274 -0.1325
21849SOL     OW66762   8.635   5.890   7.436  0.1745 -0.6497  0.1805
21849SOL    HW166763   8.727   5.872   7.453  0.8265  1.1885 -1.0605
21849SOL    HW266764   8.624   5.982   7.461 -0.9474 -0.4313 -1.0273
21850SOL     OW66765   7.734   5.878   8.194 -0.4018  0.1827 -0.7817
21850SOL    HW166766   7.705   5.801   8.144  0.7046 -1.8666  1.4649
21850SOL    HW266767   7.670   5.885   8.265 -0.3346  1.2215 -0.8116
21851SOL     OW66768   8.576   5.808   7.821 -0.1548 -0.0548 -0.3758
21851SOL    HW166769   8.569   5.731   7.877  0.2941 -1.0634 -1.6549
21851SOL    HW266770   8.487   5.823   7.789  0.1118 -1.4129 -1.8532
21852SOL     OW66771   8.272   4.823   7.994  0.3309 -0.5553 -0.0844
21852SOL    HW166772   8.194   4.773   8.016 -0.7506  0.7066 -0.8626
21852SOL    HW266773   8.343   4.782   8.044 -1.2971 -0.1160  2.7526
21853SOL     OW66774   8.048   7.407   7.480  0.3487  0.0634 -0.0014
21853SOL    HW166775   7.995   7.486   7.485  0.1425  0.0037 -0.9336
21853SOL    HW266776   8.109   7.424   7.407  0.9066 -0.2803  0.3750
21854SOL     OW66777   0.212   6.043   7.582 -0.4526  0.3923  0.1382
21854SOL    HW166778   0.150   6.116   7.580 -1.1339 -0.1290  1.3081
21854SOL    HW266779   0.193   5.998   7.664  3.3704  1.8565  2.0936
21855SOL     OW66780   8.272   5.102   7.620 -0.0878  0.5944  0.1078
21855SOL    HW166781   8.252   5.055   7.538  0.0337  2.2593 -0.9332
21855SOL    HW266782   8.240   5.191   7.604 -0.2981  0.8849  1.9992
21856SOL     OW66783   8.432   7.324   0.001  0.1800  0.3562  0.6973
21856SOL    HW166784   8.452   7.303  -0.091 -0.8005  1.6730  0.1424
21856SOL    HW266785   8.506   7.376   0.030  1.2608 -1.3999  1.1869
21857SOL     OW66786   8.376   6.894   7.514 -0.3311 -0.0328  0.1717
21857SOL    HW166787   8.293   6.887   7.561 -0.6640 -0.1992 -0.4441
21857SOL    HW266788   8.355   6.872   7.423  0.2851  0.4094 -0.0850
21858SOL     OW66789   8.057   6.821   8.385  0.5484  0.1686  0.2895
21858SOL    HW166790   8.127   6.821   8.451  1.3726 -1.5242 -0.5251
21858SOL    HW266791   8.074   6.743   8.332 -1.0845  0.5634 -0.8875
21859SOL     OW66792   8.626   5.884   8.609  0.2098  0.0227  0.3383
21859SOL    HW166793   8.535   5.865   8.585 -0.0886  1.1077  0.5426
21859SOL    HW266794   8.675   5.871   8.528  0.0238 -1.3911  0.4205
21860SOL     OW66795   7.807   7.676   0.120  0.3573  0.2298  0.2412
21860SOL    HW166796   7.854   7.758   0.101  0.0422  0.0557 -1.3785
21860SOL    HW266797   7.745   7.667   0.048 -0.0058 -1.1619  0.7109
21861SOL     OW66798   7.979   7.132   7.490  0.1211 -0.3706  0.5551
21861SOL    HW166799   7.990   7.226   7.481 -3.5195  0.0753 -1.1744
21861SOL    HW266800   7.988   7.098   7.400  1.4478 -1.7286  1.1558
21862SOL     OW66801   7.887   6.277   7.944  0.4937 -0.3684  0.1116
21862SOL    HW166802   7.946   6.235   8.007 -0.4726  1.1251  2.1699
21862SOL    HW266803   7.931   6.359   7.922 -0.0667  0.0323  0.4449
21863SOL     OW66804   8.180   6.664   8.006  0.1896 -0.2879 -0.2451
21863SOL    HW166805   8.262   6.673   7.959  0.0689 -0.1030 -0.4232
21863SOL    HW266806   8.120   6.722   7.960  0.2543  0.4239  0.5381
21864SOL     OW66807   8.820   7.388   8.610 -0.2802 -0.8214 -0.1982
21864SOL    HW166808   8.881   7.331   8.656 -0.4835 -0.2792  0.7895
21864SOL    HW266809   8.874   7.440   8.551  0.1830 -0.5870  0.4200
21865SOL     OW66810   8.077   7.018   8.697 -0.0526 -0.0481  0.2740
21865SOL    HW166811   8.119   6.935   8.673  0.8098  0.5008 -0.1191
21865SOL    HW266812   8.139   7.086   8.671 -0.4767  0.7061  1.1656
21866SOL     OW66813   8.603   6.276   8.046 -0.3000  0.5724 -0.2277
21866SOL    HW166814   8.628   6.339   7.980 -0.8208  2.4704  1.2907
21866SOL    HW266815   8.640   6.193   8.016  3.0061  2.1035 -0.8600
21867SOL     OW66816   0.207   6.334   8.520  0.1755 -0.2772  0.2877
21867SOL    HW166817   0.245   6.248   8.502 -2.3141 -1.1253 -1.2638
21867SOL    HW266818   0.183   6.330   8.613  0.6009 -1.0137  0.3753
21868SOL     OW66819   8.623   6.117   7.571  0.0705 -0.4804  0.2902
21868SOL    HW166820   8.541   6.162   7.593  0.0288 -1.1256  1.5662
21868SOL    HW266821   8.685   6.188   7.554  0.0469  0.1186  2.4143
21869SOL     OW66822   7.707   6.329   8.441  0.0547  0.1841  0.8661
21869SOL    HW166823   7.657   6.405   8.410  0.1382  0.1302  0.5961
21869SOL    HW266824   7.645   6.257   8.437 -0.0198  0.2334  1.1083
21870SOL     OW66825   7.722   7.234   8.677 -0.1940 -0.0404 -0.2177
21870SOL    HW166826   7.765   7.217   8.761 -0.1724  0.7692 -0.0624
21870SOL    HW266827   7.793   7.264   8.620  0.0294 -1.7462 -0.9046
21871SOL     OW66828   8.363   6.552   7.741 -0.0633 -0.1982  0.3152
21871SOL    HW166829   8.431   6.619   7.732  0.1372 -0.1703  1.8314
21871SOL    HW266830   8.301   6.571   7.670  1.3053 -0.0078 -0.8858
21872SOL     OW66831   7.874   5.953   7.672 -0.1732 -0.9434  0.4220
21872SOL    HW166832   7.806   5.921   7.612  0.7112 -1.7678 -0.1655
21872SOL    HW266833   7.845   5.923   7.758 -1.8875  0.9601  0.5920
21873SOL     OW66834   0.067   6.189   7.892  0.0984 -0.5100 -0.1117
21873SOL    HW166835   0.041   6.224   7.977  1.2006 -0.4853  0.2406
21873SOL    HW266836  -0.009   6.140   7.862 -0.4041 -0.2999  0.7744
21874SOL     OW66837   0.118   6.650   7.186 -0.7266 -0.6232 -0.1891
21874SOL    HW166838   0.131   6.558   7.164  0.1026 -0.5555 -0.0417
21874SOL    HW266839   0.093   6.691   7.103  3.2520 -0.2051 -1.4177
21875SOL     OW66840   8.373   7.242   7.780  0.4453  0.2954  0.0282
21875SOL    HW166841   8.446   7.192   7.743 -0.6561 -0.6515 -0.9266
21875SOL    HW266842   8.300   7.181   7.783 -0.8428  1.7261 -0.8058
21876SOL     OW66843   7.732   6.873   7.682  0.0171 -0.0294 -0.0130
21876SOL    HW166844   7.752   6.779   7.686 -1.7326 -0.5202 -1.3057
21876SOL    HW266845   7.727   6.892   7.588  0.9356  1.5217  0.2215
21877SOL     OW66846   7.614   6.343   8.158 -0.0159 -0.0014  0.0480
21877SOL    HW166847   7.690   6.284   8.164  0.2379  0.3876  0.8829
21877SOL    HW266848   7.651   6.429   8.141 -0.1449  0.4020  1.5910
21878SOL     OW66849   8.736   5.905   0.289 -0.5313 -0.2440 -0.4865
21878SOL    HW166850   8.647   5.940   0.298 -0.8532 -1.5853  2.5903
21878SOL    HW266851   8.727   5.833   0.227 -1.3749  0.2270 -0.9326
21879SOL     OW66852   7.645   6.958   7.097 -0.3125  0.1613  0.6063
21879SOL    HW166853   7.627   6.864   7.094 -0.3780  0.1756  0.5719
21879SOL    HW266854   7.740   6.963   7.110 -0.2388  0.0919  0.1388
21880SOL     OW66855   7.745   7.577   8.285  0.4540 -0.3880  0.3635
21880SOL    HW166856   7.836   7.580   8.254 -0.0092 -2.5029 -1.4731
21880SOL    HW266857   7.752   7.555   8.378  1.8122  1.9760  0.9112
21881SOL     OW66858   8.298   7.600   8.316  0.0633 -0.0709 -0.6327
21881SOL    HW166859   8.279   7.554   8.398 -0.6575  1.6545  0.2088
21881SOL    HW266860   8.228   7.574   8.257  1.2320 -2.2667 -1.1649
21882SOL     OW66861   8.320   6.532   8.444  0.1557 -0.1270 -0.5686
21882SOL    HW166862   8.276   6.527   8.359  0.8834  2.2418 -1.1620
21882SOL    HW266863   8.251   6.516   8.508 -1.0643  0.9951 -1.5541
21883SOL     OW66864   7.755   6.735   8.589 -0.4332 -0.4154  0.0420
21883SOL    HW166865   7.791   6.786   8.662  0.0532 -1.3924  0.5032
21883SOL    HW266866   7.757   6.795   8.515 -0.3611  0.4040  0.6832
21884SOL     OW66867   8.118   6.063   7.673 -0.4336 -0.6292  0.5331
21884SOL    HW166868   8.031   6.027   7.694 -1.1906 -0.2005 -1.6504
21884SOL    HW266869   8.100   6.148   7.633  1.1230  0.2229  1.5208
21885SOL     OW66870   8.021   5.965   8.312  0.0393  0.0605  0.2940
21885SOL    HW166871   7.942   5.920   8.284  0.4127 -0.5029  0.1399
21885SOL    HW266872   7.993   6.018   8.387 -0.8162  1.0931 -0.7379
21886SOL     OW66873   8.169   7.397   8.804  0.2835  0.4886  0.4505
21886SOL    HW166874   8.095   7.361   8.854  0.4558  0.1977  0.4934
21886SOL    HW266875   8.246   7.374   8.854  0.4576  0.2148  0.0634
21887SOL     OW66876   7.873   6.399   7.451 -0.3620  0.4757 -0.3074
21887SOL    HW166877   7.840   6.444   7.374 -0.5367 -0.3935 -0.7467
21887SOL    HW266878   7.955   6.358   7.422  0.3520  1.3544  0.3676
21888SOL     OW66879   7.290   7.094   0.148  0.6558  0.3385 -0.0541
21888SOL    HW166880   7.352   7.165   0.129  0.5088  0.2755 -0.8064
21888SOL    HW266881   7.223   7.102   0.080 -0.1284  0.3571  0.7095
21889SOL     OW66882   0.288   6.586   8.399 -0.8638 -0.1170 -0.0051
21889SOL    HW166883   0.248   6.500   8.416  1.2823 -1.4225 -1.1356
21889SOL    HW266884   0.380   6.574   8.421 -0.2076  1.4364 -1.6745
21890SOL     OW66885   8.707   6.380   7.471  0.6079 -0.4092 -0.0292
21890SOL    HW166886   8.781   6.373   7.531  0.9228  0.6850 -0.2693
21890SOL    HW266887   8.717   6.466   7.429 -0.7006 -0.3101 -0.1986
21891SOL     OW66888   8.618   7.554   8.560  0.7253  0.1976 -0.1186
21891SOL    HW166889   8.682   7.489   8.587  1.0970  0.0486 -1.3300
21891SOL    HW266890   8.611   7.544   8.465 -0.6312  0.6285 -0.0863
21892SOL     OW66891   7.821   6.950   8.428  0.3100  0.2138 -0.3029
21892SOL    HW166892   7.903   6.903   8.413 -0.5658 -1.3139 -0.5980
21892SOL    HW266893   7.792   6.976   8.341 -0.4366 -0.9576 -0.4380
21893SOL     OW66894   0.023   6.576   8.108  0.2398 -0.0262  0.1531
21893SOL    HW166895   0.087   6.541   8.170  1.2533 -2.7787 -2.1964
21893SOL    HW266896  -0.044   6.507   8.101  2.1715 -1.8856 -4.4745
21894SOL     OW66897   8.185   7.051   7.873  0.1280 -0.4664 -0.1029
21894SOL    HW166898   8.115   7.022   7.932  0.5966 -1.5825 -0.0745
21894SOL    HW266899   8.257   6.990   7.890  0.9412  0.3787 -0.4760
21895SOL     OW66900   0.009   7.110   7.391  0.3077 -0.3049 -0.4945
21895SOL    HW166901   0.056   7.171   7.448  0.3051  1.2390 -2.0848
21895SOL    HW266902   0.011   7.150   7.305  0.7009 -2.7918 -1.7441
21896SOL     OW66903   7.647   6.296   7.568 -0.0765  0.5180 -0.6940
21896SOL    HW166904   7.598   6.362   7.519 -1.5622 -1.5839 -2.1959
21896SOL    HW266905   7.736   6.301   7.532 -0.1640  1.6597 -0.7866
21897SOL     OW66906   8.714   6.515   7.897  0.4792 -0.0170 -0.3150
21897SOL    HW166907   8.748   6.583   7.956  2.6669 -0.7681 -0.6591
21897SOL    HW266908   8.718   6.555   7.810 -0.5354  0.2501 -0.2524
21898SOL     OW66909   8.109   6.587   8.260 -0.6377  0.1838 -0.0699
21898SOL    HW166910   8.036   6.525   8.253 -2.0922  1.8305 -0.2913
21898SOL    HW266911   8.136   6.602   8.170  1.8138 -2.3692  0.1086
21899SOL     OW66912   8.166   6.736   6.994 -0.1674 -0.3792  0.0099
21899SOL    HW166913   8.216   6.681   6.933 -0.7989  1.0417 -1.8564
21899SOL    HW266914   8.093   6.681   7.020  0.9338 -1.5588  0.7604
21900SOL     OW66915   8.313   7.116   8.536 -0.4907  0.2071  0.2956
21900SOL    HW166916   8.381   7.107   8.603  0.0009 -0.6616 -0.2996
21900SOL    HW266917   8.357   7.095   8.454 -0.7652  2.4565 -0.4945
21901SOL     OW66918   8.329   5.733   8.015  0.4137 -0.0567  0.0915
21901SOL    HW166919   8.294   5.761   7.930  0.9283  0.6989  0.1232
21901SOL    HW266920   8.383   5.656   7.994  0.9479  0.4294 -0.3450
21902SOL     OW66921   7.644   7.270   7.692  0.2220  0.2785  0.5257
21902SOL    HW166922   7.654   7.352   7.740  0.5267  1.5926 -1.6272
21902SOL    HW266923   7.718   7.217   7.719  1.3416  1.6581  0.2781
21903SOL     OW66924   7.228   6.766   7.713  0.8616 -0.0424  0.1712
21903SOL    HW166925   7.142   6.764   7.670  1.5056  0.4725 -1.1734
21903SOL    HW266926   7.247   6.674   7.732 -0.6407 -0.0708  1.8939
21904SOL     OW66927   8.169   6.139   8.752 -0.1853  0.0398 -0.3858
21904SOL    HW166928   8.248   6.153   8.804  1.2876  0.0954 -2.5191
21904SOL    HW266929   8.121   6.071   8.800  1.6801 -0.7778  0.4288
21905SOL     OW66930   7.222   5.998   7.040  0.0012 -0.1399 -0.1134
21905SOL    HW166931   7.195   6.089   7.028 -0.0704 -0.2935 -1.1808
21905SOL    HW266932   7.159   5.962   7.103 -0.6312  0.2467 -0.5262
21906SOL     OW66933   7.534   6.239   7.277  0.0141 -0.2179 -0.0476
21906SOL    HW166934   7.486   6.316   7.246  0.0491 -0.0987  0.1879
21906SOL    HW266935   7.521   6.240   7.372 -0.3066 -0.7244 -0.0863
21907SOL     OW66936   8.422   6.365   7.295  0.4826 -0.1920  0.1384
21907SOL    HW166937   8.496   6.360   7.356  0.0263  0.1046  0.7250
21907SOL    HW266938   8.406   6.274   7.269  0.0008 -0.4491  1.2975
21908SOL     OW66939   7.961   6.159   8.503  0.1627  0.3226  0.3181
21908SOL    HW166940   7.989   6.152   8.594 -2.1456 -2.0715  0.9698
21908SOL    HW266941   7.879   6.208   8.507  0.6679  1.2982 -0.6660
21909SOL     OW66942   7.657   7.497   8.803  0.2962  0.2120 -0.2257
21909SOL    HW166943   7.653   7.404   8.784 -2.1902 -0.1403  1.5130
21909SOL    HW266944   7.566   7.526   8.802  0.9993  2.7472 -1.0322
21910SOL     OW66945   8.317   5.821   7.732 -0.4961 -0.1843 -0.7898
21910SOL    HW166946   8.347   5.815   7.641  1.2805 -1.1086 -0.2071
21910SOL    HW266947   8.252   5.891   7.732  2.0958  2.4454 -2.1358
21911SOL     OW66948   8.440   6.302   7.756 -0.3898 -0.4640  0.1650
21911SOL    HW166949   8.411   6.392   7.767 -0.2086 -0.2068 -1.2614
21911SOL    HW266950   8.367   6.249   7.789 -2.2634  0.1697 -2.5852
21912SOL     OW66951   8.683   6.905   7.352 -0.3639 -0.1270 -0.3960
21912SOL    HW166952   8.719   6.993   7.357  0.3471 -0.3698 -0.9815
21912SOL    HW266953   8.600   6.915   7.306 -0.6314  0.3265  0.1743
21913SOL     OW66954   7.992   7.612   8.179 -0.0866 -0.2517  0.2341
21913SOL    HW166955   8.048   7.680   8.140  0.7254 -0.0102  1.7632
21913SOL    HW266956   8.023   7.531   8.139  0.4541  0.0301  0.0627
21914SOL     OW66957   7.827   6.617   8.129  0.0758 -0.5994  0.2060
21914SOL    HW166958   7.849   6.557   8.200  1.0336  1.1048  1.4348
21914SOL    HW266959   7.899   6.610   8.067  2.0195  1.6955  2.0354
21915SOL     OW66960   8.760   6.638   7.354  0.1289  0.5465  0.3457
21915SOL    HW166961   8.724   6.726   7.350 -0.6174  0.2798  0.9250
21915SOL    HW266962   8.850   6.647   7.323 -0.7698  1.0136 -2.3649
21916SOL     OW66963   7.674   7.189   7.411 -0.0297 -0.4669  0.0110
21916SOL    HW166964   7.650   7.200   7.503  1.1693 -0.9969  0.3956
21916SOL    HW266965   7.701   7.097   7.404  2.8222  0.2984 -0.1476
21917SOL     OW66966   7.888   6.393   8.251 -0.2231 -0.4346 -0.3991
21917SOL    HW166967   7.953   6.326   8.228  0.9873  0.2341  0.8900
21917SOL    HW266968   7.831   6.350   8.315  0.0962 -0.4726 -0.1362
21918SOL     OW66969   7.571   6.543   8.374 -0.0997 -0.0863  0.0298
21918SOL    HW166970   7.484   6.522   8.340 -1.1083  1.5348  1.4372
21918SOL    HW266971   7.558   6.625   8.423  2.4471  0.8271 -0.6738
21919SOL     OW66972   7.842   7.269   8.007  0.0237 -0.1867  0.0161
21919SOL    HW166973   7.857   7.237   7.918 -2.4464 -1.9313  0.1002
21919SOL    HW266974   7.771   7.332   7.998  0.0029 -0.1026  0.7104
21920SOL     OW66975   8.798   5.635   8.645  0.4863 -0.0794 -0.2775
21920SOL    HW166976   8.741   5.704   8.680  1.0022  0.1622  0.1000
21920SOL    HW266977   8.739   5.578   8.597 -0.3094 -0.6310  1.2835
21921SOL     OW66978   8.654   5.716   0.125  0.4456  0.4937  0.0295
21921SOL    HW166979   8.583   5.723   0.062  0.7067  0.8524 -0.2277
21921SOL    HW266980   8.678   5.623   0.125  0.7620  0.5724 -0.7461
21922SOL     OW66981   8.755   7.091   7.788  0.5109  0.4780  0.4707
21922SOL    HW166982   8.775   7.175   7.830  2.4841  1.2264 -1.7198
21922SOL    HW266983   8.713   7.116   7.705 -1.3253 -0.8541  0.9290
21923SOL     OW66984   7.964   7.338   8.573  1.2593 -0.0285 -0.0989
21923SOL    HW166985   8.038   7.361   8.629  0.5849  1.2890  0.2863
21923SOL    HW266986   7.924   7.421   8.549 -1.5747 -0.6895  1.7257
21924SOL     OW66987   8.378   5.488   7.394  0.3273 -0.1814 -0.5671
21924SOL    HW166988   8.322   5.517   7.322  1.9499  1.0276 -1.4249
21924SOL    HW266989   8.432   5.419   7.356  0.1593 -0.5975 -0.0592
21925SOL     OW66990   7.228   6.468   7.744  0.8723 -0.1914 -0.5967
21925SOL    HW166991   7.133   6.459   7.744  0.3187  3.4960  1.1716
21925SOL    HW266992   7.257   6.416   7.670 -2.6374 -0.4224 -2.0132
21926SOL     OW66993   8.217   7.462   7.694 -0.2835 -0.0787  0.8981
21926SOL    HW166994   8.257   7.375   7.697 -0.1598 -0.0978 -0.7207
21926SOL    HW266995   8.139   7.451   7.640  0.8165  1.1975 -1.0631
21927SOL     OW66996   7.593   8.368   8.605  0.3827 -0.3248  0.4215
21927SOL    HW166997   7.532   8.296   8.592 -0.3203  0.3916 -0.3203
21927SOL    HW266998   7.625   8.357   8.695 -1.6836 -0.0694  1.2294
21928SOL     OW66999   7.564   7.587   1.048  0.4886 -0.3097  0.0444
21928SOL    HW167000   7.519   7.630   1.120 -0.5624  0.8927 -1.2774
21928SOL    HW267001   7.513   7.509   1.030 -0.5507  0.5232 -0.7802
21929SOL     OW67002   6.861   7.481   0.266 -0.2343 -0.4341  0.2035
21929SOL    HW167003   6.847   7.461   0.359  0.0160  0.0554  0.3493
21929SOL    HW267004   6.956   7.490   0.258 -0.4270  2.9664  0.6430
21930SOL     OW67005   7.749   8.636   1.263  0.6044 -0.3488  0.3314
21930SOL    HW167006   7.777   8.727   1.269  1.4349 -0.2734 -2.7350
21930SOL    HW267007   7.658   8.641   1.233 -0.1132 -0.5843  2.3549
21931SOL     OW67008   8.809   0.007   0.332  0.5558  0.5247  0.5426
21931SOL    HW167009   8.899  -0.012   0.304 -0.2834 -1.1464 -1.2279
21931SOL    HW267010   8.817   0.085   0.387  3.1677 -0.0088  1.0383
21932SOL     OW67011   8.718   8.047   0.607 -0.2658 -0.3667  0.4145
21932SOL    HW167012   8.650   8.094   0.558  1.6303 -0.5117 -2.5721
21932SOL    HW267013   8.771   8.116   0.646 -1.2872 -0.2438  1.6833
21933SOL     OW67014   7.667   8.499   1.017  0.4779 -0.2084  0.1760
21933SOL    HW167015   7.725   8.569   0.987 -0.2042  0.4331  0.3304
21933SOL    HW267016   7.716   8.418   1.001  0.5133  0.1642 -1.7966
21934SOL     OW67017   8.166   8.028   1.534  0.2148 -0.5748  0.2209
21934SOL    HW167018   8.230   8.021   1.464 -1.1564  0.5314 -1.2316
21934SOL    HW267019   8.152   8.123   1.544 -0.8490 -0.7774  0.8033
21935SOL     OW67020   8.584   8.284   0.287 -0.1804 -0.0680 -0.2009
21935SOL    HW167021   8.596   8.366   0.335  0.4680 -0.6690  0.6894
21935SOL    HW267022   8.527   8.232   0.343 -0.2506 -0.3872 -0.5656
21936SOL     OW67023   8.111   8.592   1.589 -0.0861 -0.7968 -0.2230
21936SOL    HW167024   8.018   8.614   1.593 -0.2765 -1.6035 -0.0100
21936SOL    HW267025   8.117   8.505   1.629  0.9317 -0.2357  0.9332
21937SOL     OW67026   7.885   0.290   1.102  0.4180 -0.0250 -0.1430
21937SOL    HW167027   7.925   0.347   1.037  0.6927  1.0500  0.9197
21937SOL    HW267028   7.949   0.287   1.173  0.3707 -1.6138 -0.1340
21938SOL     OW67029   7.814   7.785   1.394  0.5205 -0.4998 -0.4763
21938SOL    HW167030   7.742   7.743   1.440 -0.8883 -0.4479 -2.5088
21938SOL    HW267031   7.826   7.869   1.439  0.1985 -1.0565  0.6821
21939SOL     OW67032   8.777   8.578   2.022 -0.3068 -0.4771 -0.6622
21939SOL    HW167033   8.741   8.490   2.024  0.3458 -0.7667 -1.1556
21939SOL    HW267034   8.872   8.565   2.026 -0.1565  0.1360 -1.7773
21940SOL     OW67035   7.674   0.062   0.934  0.5760  0.3018 -0.3634
21940SOL    HW167036   7.750   0.015   0.899  0.5033  0.7744 -1.1961
21940SOL    HW267037   7.699   0.154   0.929 -0.0511  0.4591 -0.6437
21941SOL     OW67038   8.781   8.406   0.044  0.2967  0.3136  0.5573
21941SOL    HW167039   8.781   8.462  -0.033  2.3119  0.2704  0.4787
21941SOL    HW267040   8.772   8.467   0.118  1.2948  0.6346  0.4182
21942SOL     OW67041   7.257   8.261   0.604 -0.1206  0.0002  0.0346
21942SOL    HW167042   7.186   8.211   0.645 -0.3966  0.5612  0.2453
21942SOL    HW267043   7.321   8.275   0.674 -1.0945  1.9079  0.5957
21943SOL     OW67044   0.320   8.071   0.370 -0.4896 -0.2756  0.4532
21943SOL    HW167045   0.260   7.997   0.368 -0.9458  0.0916  0.3585
21943SOL    HW267046   0.407   8.032   0.357 -0.8709 -0.6405 -1.3306
21944SOL     OW67047   7.387   8.468   1.087  0.4918  0.4686 -0.1726
21944SOL    HW167048   7.363   8.536   1.149  2.2178  0.5835  0.4194
21944SOL    HW267049   7.474   8.492   1.057  0.9137 -1.1842 -0.3766
21945SOL     OW67050   7.903   8.677   0.911 -0.1131 -0.3665 -0.2318
21945SOL    HW167051   7.955   8.610   0.866  0.2631 -0.3905  0.2279
21945SOL    HW267052   7.968   8.734   0.951 -0.4217  0.5716 -1.0347
21946SOL     OW67053   0.043   8.156   0.812 -0.6522 -0.2975  0.1662
21946SOL    HW167054   0.098   8.154   0.733  0.5378 -0.3646  0.9722
21946SOL    HW267055   0.057   8.071   0.854 -0.7145  0.0125  0.8255
21947SOL     OW67056   8.098   7.320   0.521 -0.6178 -0.3505 -0.3331
21947SOL    HW167057   8.022   7.263   0.511  0.1298 -1.2282 -1.2108
21947SOL    HW267058   8.168   7.261   0.550  0.1934  0.1023 -1.3336
21948SOL     OW67059   7.283   8.509   0.515 -0.0157  0.2143 -0.2657
21948SOL    HW167060   7.267   8.445   0.585  1.2951  0.3027  0.1478
21948SOL    HW267061   7.354   8.564   0.549  0.7230  0.2051 -1.7031
21949SOL     OW67062   7.999   7.544   2.045 -0.4236 -0.3314 -0.6237
21949SOL    HW167063   8.002   7.627   1.997  1.0774  1.5049  2.3362
21949SOL    HW267064   7.921   7.551   2.100 -1.9306 -2.2535 -2.3465
21950SOL     OW67065   7.839   7.994   0.109  0.4070  0.0181 -0.4928
21950SOL    HW167066   7.771   8.033   0.166  0.2105  1.6411 -1.7535
21950SOL    HW267067   7.901   7.955   0.170 -0.5694  0.3779  0.7912
21951SOL     OW67068   8.247   8.016   1.199  0.2238  0.0979 -0.2691
21951SOL    HW167069   8.290   7.980   1.276  1.2184  0.5872 -0.5755
21951SOL    HW267070   8.154   8.019   1.222  0.3690 -0.8156  0.4770
21952SOL     OW67071   7.959   8.013   1.218 -0.1113  0.1318  0.0162
21952SOL    HW167072   7.890   7.947   1.215 -1.1196  0.8555  3.0570
21952SOL    HW267073   7.943   8.060   1.300  1.6511  2.9611 -1.1091
21953SOL     OW67074   8.787   7.823   1.418 -0.6514  0.5059 -0.0041
21953SOL    HW167075   8.844   7.890   1.381 -0.9227  0.9778  0.4236
21953SOL    HW267076   8.816   7.816   1.510 -0.2306 -0.3802 -0.1873
21954SOL     OW67077   8.251   8.291   1.445  0.1968 -0.0888  0.0915
21954SOL    HW167078   8.287   8.298   1.534  1.1193  0.2901 -0.2934
21954SOL    HW267079   8.270   8.375   1.405  0.7692 -0.6270 -0.8112
21955SOL     OW67080   8.756   7.797   1.027 -0.0270  0.1694  0.2378
21955SOL    HW167081   8.790   7.709   1.045  0.4544  0.4016  0.4748
21955SOL    HW267082   8.663   7.783   1.012 -0.3050 -0.1645  2.0636
21956SOL     OW67083   8.426   7.891   0.051 -0.0884 -0.8007 -0.1436
21956SOL    HW167084   8.519   7.911   0.065 -0.2338  2.0703 -2.3613
21956SOL    HW267085   8.426   7.806   0.008  1.8107  0.2926 -2.5204
21957SOL     OW67086   7.414   8.197   0.378  0.4815  0.4614  0.2996
21957SOL    HW167087   7.324   8.207   0.345  1.1909  1.0073 -1.6082
21957SOL    HW267088   7.404   8.184   0.472 -1.6681 -0.5994 -0.0162
21958SOL     OW67089   8.583   7.232   8.593 -0.6001  0.4233  0.4013
21958SOL    HW167090   8.647   7.289   8.635 -0.5975  1.0936 -0.4721
21958SOL    HW267091   8.563   7.277   8.510 -2.7061  0.5810  0.9476
21959SOL     OW67092   0.394   8.233   0.107  0.4220  0.1915 -0.0535
21959SOL    HW167093   0.402   8.163   0.172 -0.1292 -1.5945 -1.7995
21959SOL    HW267094   0.310   8.275   0.127 -0.0452 -0.7501  0.0291
21960SOL     OW67095   7.721   7.690   0.840 -0.0026  0.3609  0.3319
21960SOL    HW167096   7.660   7.643   0.897  0.3234  0.0450  0.4231
21960SOL    HW267097   7.689   7.780   0.839  0.8938  0.7551  2.2958
21961SOL     OW67098   8.226   8.322   0.270 -0.0847  0.1775  0.2314
21961SOL    HW167099   8.268   8.274   0.199 -0.1699  0.9619 -0.3589
21961SOL    HW267100   8.135   8.291   0.269  0.1569 -0.6010  0.7098
21962SOL     OW67101   7.426   8.809   1.725  0.5612 -0.4000  0.1356
21962SOL    HW167102   7.400   8.753   1.651 -1.0323  1.7162 -1.0086
21962SOL    HW267103   7.377   8.774   1.800 -0.6358 -0.4011 -0.6213
21963SOL     OW67104   7.628   7.709   1.574 -0.2857  0.0781  0.4005
21963SOL    HW167105   7.672   7.693   1.658 -0.8620 -0.5557  0.5901
21963SOL    HW267106   7.573   7.786   1.590  2.6625  2.5616 -0.5768
21964SOL     OW67107   0.375   0.411   0.279  0.0206  0.2029  0.6971
21964SOL    HW167108   0.295   0.374   0.242  0.3190 -0.2238  0.4692
21964SOL    HW267109   0.433   0.336   0.291 -0.0798  0.3183  2.0827
21965SOL     OW67110   7.737   8.025   0.658  0.4125 -0.3343  0.6498
21965SOL    HW167111   7.682   8.013   0.735 -0.9449 -0.5949 -0.3112
21965SOL    HW267112   7.714   7.951   0.601 -0.7889  1.3766 -1.2231
21966SOL     OW67113   8.545   7.608   1.940  0.2262 -0.0682 -0.2916
21966SOL    HW167114   8.454   7.616   1.913  0.4103 -1.3209 -1.3795
21966SOL    HW267115   8.593   7.593   1.859  0.8733 -3.3451  0.5743
21967SOL     OW67116   8.397   7.936   1.394  0.0521 -0.3162  0.5714
21967SOL    HW167117   8.474   7.881   1.378 -0.8198 -1.9271  1.6191
21967SOL    HW267118   8.407   7.966   1.484  0.5492  1.3811 -0.0065
21968SOL     OW67119   8.457   7.709   1.024  0.3400 -0.3600 -0.5386
21968SOL    HW167120   8.462   7.614   1.036 -0.1534 -0.2989  0.2641
21968SOL    HW267121   8.379   7.735   1.074  1.1345  0.6176  0.2436
21969SOL     OW67122   7.836   7.461   0.573 -0.4384 -0.4416 -0.5687
21969SOL    HW167123   7.901   7.531   0.579 -1.8502  0.8368  1.5616
21969SOL    HW267124   7.778   7.488   0.501 -0.3167  0.0184 -0.5011
21970SOL     OW67125   8.492   8.717   8.618 -0.9178  0.2329 -0.6624
21970SOL    HW167126   8.514   8.799   8.662  1.8703  0.9257 -3.0276
21970SOL    HW267127   8.489   8.739   8.526 -1.8212 -2.0191 -1.2459
21971SOL     OW67128   8.052   7.585   0.414 -0.0762  0.4601 -0.5652
21971SOL    HW167129   8.017   7.498   0.434  1.7236 -0.5967 -1.7676
21971SOL    HW267130   8.080   7.619   0.499  0.2954 -0.6510 -0.2193
21972SOL     OW67131   8.519   8.211   1.341  0.0113  0.4688  0.2119
21972SOL    HW167132   8.498   8.121   1.366 -2.1089  1.4697  2.4643
21972SOL    HW267133   8.434   8.252   1.326  0.7671  2.5935  1.3114
21973SOL     OW67134   8.075   8.532   0.718  0.1565  0.4893 -0.1141
21973SOL    HW167135   8.113   8.515   0.632 -0.4895 -0.4460 -0.2327
21973SOL    HW267136   8.133   8.597   0.758  0.5769  0.7816 -1.1687
21974SOL     OW67137   7.794   8.631   0.542  0.6443  0.5492  0.0403
21974SOL    HW167138   7.727   8.574   0.582 -0.4283  2.1136  0.5847
21974SOL    HW267139   7.859   8.643   0.611  1.0535 -0.2722 -0.1930
21975SOL     OW67140   8.604   8.208   8.471  0.7288 -0.1032  0.8535
21975SOL    HW167141   8.661   8.168   8.405  0.9955  0.6522  0.6166
21975SOL    HW267142   8.526   8.153   8.473  0.2169  0.5098 -0.9193
21976SOL     OW67143   7.368   7.881   1.029 -0.1678 -0.0499 -0.2456
21976SOL    HW167144   7.309   7.948   1.063 -0.9575  0.4239 -2.3715
21976SOL    HW267145   7.319   7.799   1.038 -0.5926  0.1461 -0.6955
21977SOL     OW67146   7.736   7.889   1.139 -0.1480 -0.4936  0.4723
21977SOL    HW167147   7.703   7.829   1.205 -3.0524  0.1253 -0.2671
21977SOL    HW267148   7.682   7.872   1.062  1.3727  0.6122 -0.9255
21978SOL     OW67149   8.044   7.912   0.250 -0.0217  0.1381 -0.3577
21978SOL    HW167150   8.078   7.827   0.222  2.2206  0.9685 -0.3692
21978SOL    HW267151   8.087   7.929   0.334 -1.1395  0.8544  0.0919
21979SOL     OW67152   8.373   7.387   1.065 -0.5059 -0.3027  0.1516
21979SOL    HW167153   8.325   7.324   1.120 -1.5989  0.8184  0.5186
21979SOL    HW267154   8.306   7.424   1.007 -0.0028  0.9956  0.3852
21980SOL     OW67155   0.026   7.785   8.546 -0.0112  0.1756  0.3737
21980SOL    HW167156  -0.059   7.789   8.502 -0.0801 -0.7199  0.4123
21980SOL    HW267157   0.074   7.716   8.501  1.8457  2.5529 -1.5802
21981SOL     OW67158   7.591   7.966   8.490  0.3471  0.0774 -0.7970
21981SOL    HW167159   7.514   8.023   8.493 -0.2682 -0.7933  0.3477
21981SOL    HW267160   7.610   7.946   8.581  1.2679 -0.6287 -1.1287
21982SOL     OW67161   8.281   8.540   1.366  0.0613 -0.0300 -0.4296
21982SOL    HW167162   8.230   8.557   1.445 -1.8161 -3.2942 -0.8024
21982SOL    HW267163   8.243   8.598   1.300  0.9270  1.9179  0.6858
21983SOL     OW67164   8.480   8.418   1.109  0.1334  0.2723  1.1099
21983SOL    HW167165   8.430   8.383   1.035 -0.2173  1.4996  0.7479
21983SOL    HW267166   8.413   8.444   1.173  0.4009  0.0123  1.4965
21984SOL     OW67167   8.725   7.214   1.644  0.0034 -0.0068 -0.5432
21984SOL    HW167168   8.790   7.159   1.688 -0.4085 -0.3723 -0.3735
21984SOL    HW267169   8.642   7.189   1.685 -0.0216  1.9119  0.7117
21985SOL     OW67170   8.437   8.283   1.894 -0.7113  0.1024 -0.8829
21985SOL    HW167171   8.532   8.273   1.900 -0.6001  0.5172 -1.8988
21985SOL    HW267172   8.405   8.195   1.878 -0.5519 -0.1234 -0.0297
21986SOL     OW67173   8.456   8.145   0.459 -0.5953  0.2948  0.2792
21986SOL    HW167174   8.416   8.067   0.422 -0.9383  0.2167  0.8107
21986SOL    HW267175   8.387   8.186   0.511 -0.0915  0.3335  0.9382
21987SOL     OW67176   7.132   8.053   1.012 -0.3140 -0.3120  0.1984
21987SOL    HW167177   7.183   8.113   1.066  1.5751 -1.0583 -0.6823
21987SOL    HW267178   7.090   7.995   1.076  0.7380 -0.2887  0.9458
21988SOL     OW67179   0.066   7.607   1.304 -0.8090 -0.3703  0.0821
21988SOL    HW167180  -0.008   7.666   1.320 -1.0507 -0.5751 -0.2591
21988SOL    HW267181   0.076   7.606   1.209 -0.9333 -1.0202  0.0680
21989SOL     OW67182   7.880   8.493   8.840 -0.4070 -0.0953  0.4255
21989SOL    HW167183   7.849   8.403   8.827 -0.1282 -0.4978  2.2670
21989SOL    HW267184   7.833   8.523   8.918  0.1463  1.0663  0.3303
21990SOL     OW67185   7.937   7.689   0.673  0.6032 -0.7886  0.2204
21990SOL    HW167186   7.852   7.722   0.704 -0.1544 -0.6170 -1.8850
21990SOL    HW267187   7.984   7.665   0.753 -1.2491 -0.4608  1.4696
21991SOL     OW67188   0.311   8.530   0.248  0.6030 -0.0041  0.4301
21991SOL    HW167189   0.365   8.566   0.177 -0.5731 -2.4242 -1.8334
21991SOL    HW267190   0.254   8.466   0.206 -1.2496 -0.4909  3.3635
21992SOL     OW67191   7.527   8.205   1.467  0.2748  0.1288 -0.5086
21992SOL    HW167192   7.591   8.204   1.396  1.5014  2.7423  0.4192
21992SOL    HW267193   7.492   8.294   1.465 -2.1536 -0.7630  0.0788
21993SOL     OW67194   8.592   7.260   2.166 -0.5446 -0.1663  0.3694
21993SOL    HW167195   8.505   7.300   2.161 -0.1818  0.5879  0.1168
21993SOL    HW267196   8.641   7.299   2.094 -0.5325 -1.9216 -0.6289
21994SOL     OW67197   8.252   7.400   1.649  0.0439 -0.2526  1.4011
21994SOL    HW167198   8.238   7.428   1.740  0.9510  0.3794  1.3609
21994SOL    HW267199   8.260   7.482   1.600 -0.0424 -0.5907  0.8119
21995SOL     OW67200   7.379   8.291   0.878 -0.4764 -0.2429 -0.0164
21995SOL    HW167201   7.469   8.263   0.859  0.1316  0.8838  1.0012
21995SOL    HW267202   7.390   8.362   0.942 -2.1209 -0.3598  0.4353
21996SOL     OW67203   8.463   8.117   1.069  0.1930 -0.1010 -0.0366
21996SOL    HW167204   8.385   8.077   1.107 -0.6726  1.0133 -0.5867
21996SOL    HW267205   8.472   8.075   0.984 -0.0874  0.1062 -0.1698
21997SOL     OW67206   8.367   7.591   0.131 -0.3757 -0.3902  0.3157
21997SOL    HW167207   8.394   7.600   0.039 -1.7221 -0.2475 -0.0958
21997SOL    HW267208   8.443   7.618   0.182  1.3043 -2.8145 -0.7024
21998SOL     OW67209   7.196   7.671   1.046 -0.7755  0.1372  0.3621
21998SOL    HW167210   7.179   7.584   1.082  0.6541 -1.1877 -1.9420
21998SOL    HW267211   7.119   7.689   0.991 -0.3864 -0.3745 -0.3627
21999SOL     OW67212   7.478   0.043   1.147 -0.2915  0.4218 -0.2131
21999SOL    HW167213   7.523   0.059   1.064  0.0373  1.0406  0.0810
21999SOL    HW267214   7.426   0.122   1.161 -0.2197  0.3842  0.2565
22000SOL     OW67215   7.647   8.273   0.777  0.4951 -0.1999 -0.1539
22000SOL    HW167216   7.691   8.196   0.741  1.1518 -0.5616  1.3136
22000SOL    HW267217   7.715   8.318   0.828  0.0764  1.2559 -0.8046
22001SOL     OW67218   7.461   7.692   0.657  0.2563  0.2689  0.2912
22001SOL    HW167219   7.542   7.712   0.610 -0.3665  1.1578 -0.4367
22001SOL    HW267220   7.455   7.596   0.653  0.8969  0.2400 -0.2696
22002SOL     OW67221   0.164   8.311   0.161 -0.0937  0.3440  0.2343
22002SOL    HW167222   0.137   8.265   0.240 -0.9899 -0.6876 -0.6423
22002SOL    HW267223   0.083   8.346   0.125  0.2846  0.6645 -0.3118
22003SOL     OW67224   8.276   7.783   0.664  0.1196  0.4099 -0.4802
22003SOL    HW167225   8.212   7.794   0.734 -0.5939  0.3677 -1.1069
22003SOL    HW267226   8.288   7.688   0.657 -1.3678  0.2589 -1.7390
22004SOL     OW67227   7.775   8.309   1.651 -0.2335  0.1479 -0.2632
22004SOL    HW167228   7.724   8.286   1.574 -0.3287 -0.5464  0.0006
22004SOL    HW267229   7.753   8.400   1.668 -3.2006 -0.7319  1.2044
22005SOL     OW67230   8.744   8.550   8.677 -0.4165 -0.0959  0.6351
22005SOL    HW167231   8.759   8.609   8.603  1.6872 -0.6565  0.5509
22005SOL    HW267232   8.655   8.569   8.705  0.4203  3.8463  1.2267
22006SOL     OW67233   7.556   8.501   0.637  0.5422 -0.6146  0.3649
22006SOL    HW167234   7.575   8.419   0.683  0.1741 -1.7355 -1.3658
22006SOL    HW267235   7.498   8.548   0.696  0.0200 -2.0131  1.0274
22007SOL     OW67236   7.599   7.959   0.890 -0.8323  0.7412  0.4933
22007SOL    HW167237   7.612   8.036   0.945 -0.0340 -0.1203  1.5414
22007SOL    HW267238   7.512   7.926   0.915 -1.5707  1.7623 -0.5885
22008SOL     OW67239   8.595   7.316   1.432 -0.2655  0.1020  0.1499
22008SOL    HW167240   8.511   7.271   1.438 -1.2025  1.8053  0.0857
22008SOL    HW267241   8.648   7.276   1.502 -2.5579  1.8857  3.1746
22009SOL     OW67242   8.542   7.732   1.338  0.0832 -0.0973  0.4749
22009SOL    HW167243   8.624   7.741   1.386  0.1141 -0.9039  0.5826
22009SOL    HW267244   8.561   7.670   1.268 -0.6016 -0.8152  0.9018
22010SOL     OW67245   8.245   8.249   0.571 -0.1007 -0.2847 -0.5291
22010SOL    HW167246   8.156   8.217   0.555 -0.3511  0.4434 -0.6267
22010SOL    HW267247   8.261   8.230   0.663 -0.5380  0.0189 -0.3898
22011SOL     OW67248   7.270   7.876   0.732 -0.3507  0.6983  0.2099
22011SOL    HW167249   7.342   7.820   0.705 -0.4330  0.8158 -0.2571
22011SOL    HW267250   7.276   7.879   0.828 -1.4830 -1.6678  0.4355
22012SOL     OW67251   7.386   8.435   1.433 -0.2467  0.4430  0.4381
22012SOL    HW167252   7.300   8.428   1.391 -0.7393  1.7401  1.1961
22012SOL    HW267253   7.426   8.512   1.394 -0.2119  0.9504  1.4406
22013SOL     OW67254   8.052   7.929   8.812 -0.0049 -0.1318 -0.3494
22013SOL    HW167255   8.111   7.968   8.877 -1.3610 -0.1554  0.9543
22013SOL    HW267256   7.964   7.954   8.841 -0.6600  0.5677 -2.6575
22014SOL     OW67257   7.762   8.185   1.065  0.2437  0.4529 -0.2023
22014SOL    HW167258   7.791   8.108   1.115 -0.7616  0.7961  0.9674
22014SOL    HW267259   7.826   8.193   0.994  1.1081 -0.6949  0.4081
22015SOL     OW67260   7.637   7.943   8.761 -0.4810 -0.1904  0.2398
22015SOL    HW167261   7.694   7.989   8.823 -0.2491  0.8821 -0.7354
22015SOL    HW267262   7.564   7.912   8.815 -1.6059  2.9242  0.7193
22016SOL     OW67263   7.444   8.682   1.330 -0.4272  0.5944  0.3570
22016SOL    HW167264   7.474   8.732   1.405  0.6684  0.4558  0.0373
22016SOL    HW267265   7.435   8.746   1.259 -0.7786  0.6165  0.4196
22017SOL     OW67266   0.296   8.252   8.526  0.1312  0.3412 -0.1795
22017SOL    HW167267   0.250   8.180   8.569 -0.2122 -0.4372 -1.7839
22017SOL    HW267268   0.227   8.314   8.502  0.3276  0.7986  0.3956
22018SOL     OW67269   7.432   8.675   0.789 -0.4723 -0.7460 -0.2868
22018SOL    HW167270   7.346   8.690   0.829 -0.0267 -1.1605  0.8872
22018SOL    HW267271   7.485   8.747   0.821 -0.6629  0.2064 -1.9931
22019SOL     OW67272   0.260   7.354   8.748 -0.0978 -0.1534  0.3133
22019SOL    HW167273   0.289   7.440   8.718 -0.0276 -0.9568 -2.0970
22019SOL    HW267274   0.203   7.373   8.823  3.2072  1.6983  2.6469
22020SOL     OW67275   8.307   8.292   0.879  0.2904 -0.2430  0.1718
22020SOL    HW167276   8.364   8.218   0.900 -0.0181 -0.0250  1.9019
22020SOL    HW267277   8.240   8.291   0.947 -1.0462  0.2888 -1.0948
22021SOL     OW67278   8.079   8.261   1.069  0.0653  0.6020  0.1300
22021SOL    HW167279   8.055   8.188   1.125 -2.5068  1.5795  0.4414
22021SOL    HW267280   8.037   8.337   1.110  0.8691  1.8872 -1.3344
22022SOL     OW67281   6.920   7.772   0.695  0.3692 -0.2123  0.7813
22022SOL    HW167282   6.945   7.680   0.682  0.1345 -0.0337 -1.2402
22022SOL    HW267283   6.997   7.822   0.670 -0.6726  0.2116 -1.9528
22023SOL     OW67284   7.948   8.233   1.415 -0.2002 -0.6692 -0.2661
22023SOL    HW167285   8.027   8.286   1.405  0.4018 -1.0955  1.7822
22023SOL    HW267286   7.879   8.284   1.373  1.1104 -0.2114 -1.9568
22024SOL     OW67287   8.342   7.918   0.329 -0.0687  1.0953 -0.4807
22024SOL    HW167288   8.353   7.928   0.234 -1.3579 -0.3425 -0.8143
22024SOL    HW267289   8.421   7.872   0.357 -1.0114 -1.2510 -1.4073
22025SOL     OW67290   7.602   8.826   1.495 -0.6641  0.4804  0.7619
22025SOL    HW167291   7.620   8.841   1.588 -0.0145 -0.8692  0.8722
22025SOL    HW267292   7.684   8.849   1.451 -0.4313 -0.4321  0.7012
22026SOL     OW67293   8.476   8.467   0.716  0.8291 -0.0590 -0.2975
22026SOL    HW167294   8.417   8.505   0.651  0.3079  2.2814  1.3971
22026SOL    HW267295   8.420   8.413   0.772  0.3857  1.4512  0.7763
22027SOL     OW67296   8.078   7.746   1.477  0.4506 -0.1063  0.6756
22027SOL    HW167297   8.093   7.815   1.541  0.3226  0.0981  0.4836
22027SOL    HW267298   8.007   7.778   1.421  1.5505  0.3670 -0.4966
22028SOL     OW67299   7.727   8.721   1.876  0.3612 -0.1145 -0.3704
22028SOL    HW167300   7.687   8.786   1.933 -0.9919 -0.8437 -0.4425
22028SOL    HW267301   7.781   8.667   1.934 -0.5436 -0.4897  0.1348
22029SOL     OW67302   8.381   7.635   1.534  0.6729 -0.1220  0.2388
22029SOL    HW167303   8.388   7.657   1.441 -0.2937  0.3179  0.2509
22029SOL    HW267304   8.470   7.615   1.561  1.1485  0.9025 -0.5074
22030SOL     OW67305   7.409   8.188   8.511  0.0378 -0.3030  0.1511
22030SOL    HW167306   7.375   8.135   8.584  1.6575 -1.9091 -0.1741
22030SOL    HW267307   7.355   8.164   8.436  2.3155 -3.7165 -0.6371
22031SOL     OW67308   8.839   8.368   1.175  0.2356 -0.9679  0.5225
22031SOL    HW167309   8.892   8.423   1.233 -0.9738 -0.3163  1.0540
22031SOL    HW267310   8.901   8.334   1.111  1.0148  1.3076 -0.0496
22032SOL     OW67311   7.495   7.905   0.320 -0.1592  0.1188 -0.1493
22032SOL    HW167312   7.406   7.895   0.352 -0.0818  1.9720  0.8013
22032SOL    HW267313   7.486   7.962   0.243  0.1882  0.3861  0.0018
22033SOL     OW67314   8.605   8.538   0.417 -0.3380  0.0376 -0.6770
22033SOL    HW167315   8.564   8.620   0.445  1.5608  0.4022  1.3351
22033SOL    HW267316   8.693   8.563   0.389 -0.0743 -1.1825 -1.0093
22034SOL     OW67317   7.714   8.307   1.290  0.0325 -0.6002  0.0942
22034SOL    HW167318   7.716   8.403   1.284  1.0761 -0.6460 -0.6470
22034SOL    HW267319   7.723   8.277   1.200 -1.0797 -1.4101  0.2387
22035SOL     OW67320   8.251   7.796   1.704  0.1651 -0.1771  0.4058
22035SOL    HW167321   8.277   7.734   1.636  0.0069 -0.2520  0.4134
22035SOL    HW267322   8.270   7.882   1.667 -0.0116 -0.2135  0.2282
22036SOL     OW67323   8.348   0.074   0.996 -0.1243 -0.2169 -0.7245
22036SOL    HW167324   8.359   0.147   0.935 -0.9677 -0.6899 -1.4730
22036SOL    HW267325   8.253   0.071   1.011 -0.0437 -0.8732 -0.3316
22037SOL     OW67326   8.206   7.329   0.249 -0.4461  0.0121 -0.0985
22037SOL    HW167327   8.266   7.403   0.240  2.1797 -1.6196  2.1781
22037SOL    HW267328   8.179   7.332   0.341 -2.4020 -0.4342 -0.6135
22038SOL     OW67329   7.677   8.151   0.301  0.1468 -0.4011 -0.2984
22038SOL    HW167330   7.709   8.158   0.391  0.7589  1.1234 -0.5981
22038SOL    HW267331   7.585   8.177   0.306 -0.2369 -1.7374  0.0807
22039SOL     OW67332   7.968   8.134   0.575 -0.2452  0.0410 -0.1749
22039SOL    HW167333   7.891   8.082   0.598  0.4417 -0.5749  0.8521
22039SOL    HW267334   8.033   8.069   0.548  0.0628  0.5158 -0.5918
22040SOL     OW67335   8.813   8.590   0.250 -0.0077  0.3574  0.3036
22040SOL    HW167336   8.767   8.673   0.240 -0.0227  0.5823  1.9011
22040SOL    HW267337   8.904   8.615   0.265  0.3345 -0.0147 -0.9901
22041SOL     OW67338   7.585   0.095   2.053 -0.0240  0.5817 -0.6625
22041SOL    HW167339   7.624   0.034   2.116  0.0216  0.5843 -0.6881
22041SOL    HW267340   7.491   0.077   2.056  0.1192 -0.5103 -1.7316
22042SOL     OW67341   7.700   0.142   0.602 -0.6737 -0.0046  0.1241
22042SOL    HW167342   7.736   0.145   0.514 -2.7976 -0.2660 -0.8095
22042SOL    HW267343   7.772   0.109   0.656  0.9729  1.0989 -1.3030
22043SOL     OW67344   8.071   0.040   1.403  0.1589 -0.1967  0.0068
22043SOL    HW167345   8.113   0.122   1.376  1.5737 -0.5711  0.9747
22043SOL    HW267346   8.046   0.054   1.494 -0.9408 -0.3448 -0.2574
22044SOL     OW67347   7.683   7.822   0.503 -0.3125  0.0961 -0.1508
22044SOL    HW167348   7.631   7.869   0.437  0.2021 -0.3043 -0.8553
22044SOL    HW267349   7.718   7.746   0.457  1.5555  0.7724  0.0579
22045SOL     OW67350   7.877   7.997   1.552 -0.6064 -0.0271  0.5548
22045SOL    HW167351   7.934   7.990   1.628  0.3016  0.6033 -0.0364
22045SOL    HW267352   7.880   8.090   1.529 -1.7071 -0.0264  0.3785
22046SOL     OW67353   8.093   7.806   0.875 -0.2962  0.4592 -0.1273
22046SOL    HW167354   8.111   7.784   0.967  0.2522  0.3836 -0.2469
22046SOL    HW267355   8.005   7.843   0.876 -1.0371 -1.2526  0.1534
22047SOL     OW67356   7.933   7.533   0.943  0.5817  0.2169  0.1099
22047SOL    HW167357   7.865   7.535   0.875  0.6761 -0.0674  0.0063
22047SOL    HW267358   7.890   7.566   1.021  0.1741 -0.4664  0.1808
22048SOL     OW67359   8.672   8.061   0.153  0.3254 -0.6823  0.7086
22048SOL    HW167360   8.699   8.107   0.074 -2.0977 -0.6089 -0.1555
22048SOL    HW267361   8.634   8.129   0.209 -0.5951 -1.1671  0.6849
22049SOL     OW67362   7.418   8.721   0.002 -0.0454 -0.2999 -0.7181
22049SOL    HW167363   7.496   8.693   0.051 -0.3218  0.6455  0.2942
22049SOL    HW267364   7.345   8.683   0.050 -0.4945  2.6119  1.1657
22050SOL     OW67365   7.407   8.372   1.763 -0.3958  0.3257 -0.3459
22050SOL    HW167366   7.374   8.355   1.675  0.6470  1.2767 -0.9589
22050SOL    HW267367   7.469   8.301   1.780  0.9283  1.2209 -1.2423
22051SOL     OW67368   7.374   7.678   2.890 -0.4134  0.4351 -0.4623
22051SOL    HW167369   7.455   7.726   2.874 -1.0725  1.4031 -1.0150
22051SOL    HW267370   7.382   7.644   2.979  1.4214 -1.1647 -1.1681
22052SOL     OW67371   7.417   7.692   2.349  0.1076 -0.3407  0.5210
22052SOL    HW167372   7.368   7.612   2.366  1.2937 -1.4391 -0.9686
22052SOL    HW267373   7.368   7.737   2.281  0.5985 -0.9255 -0.2305
22053SOL     OW67374   8.171   8.454   2.529  0.2819  0.2613 -0.6592
22053SOL    HW167375   8.179   8.513   2.454  2.5250  0.7413 -0.1210
22053SOL    HW267376   8.196   8.508   2.604 -0.9302 -0.4838  0.3215
22054SOL     OW67377   8.604   0.156   1.762  0.1609  0.1285 -0.3585
22054SOL    HW167378   8.593   0.079   1.818  1.5019 -0.9957 -1.5767
22054SOL    HW267379   8.556   0.135   1.682  0.9135  0.3596 -0.8747
22055SOL     OW67380   8.415   8.015   1.887 -0.1476  0.2164 -0.0679
22055SOL    HW167381   8.352   7.946   1.868 -0.2666  0.0807  0.7801
22055SOL    HW267382   8.469   7.980   1.958 -1.8053  1.8910  2.2044
22056SOL     OW67383   7.894   8.420   2.630 -0.4109 -0.0675  0.2633
22056SOL    HW167384   7.989   8.420   2.642 -0.4089  0.2863  0.2557
22056SOL    HW267385   7.872   8.512   2.612 -0.5709 -0.3753 -1.1996
22057SOL     OW67386   7.788   7.994   3.599 -0.0220  0.4973  0.3961
22057SOL    HW167387   7.822   8.082   3.580  0.5368  0.3392  0.6552
22057SOL    HW267388   7.782   7.991   3.694  1.5110 -0.3004  0.5036
22058SOL     OW67389   7.972   8.207   2.041  0.6090  0.1983  0.5469
22058SOL    HW167390   8.026   8.176   2.113  2.2034 -0.8495 -0.9983
22058SOL    HW267391   8.020   8.282   2.005  1.1940 -0.8359 -0.9366
22059SOL     OW67392   8.218   8.579   3.633  0.3986  0.1260  0.6898
22059SOL    HW167393   8.209   8.496   3.680  2.1946 -0.6882 -0.2858
22059SOL    HW267394   8.303   8.613   3.660 -0.4198  1.8217  1.2652
22060SOL     OW67395   7.837   8.689   2.870  0.3460  0.0384  0.8996
22060SOL    HW167396   7.887   8.766   2.843  0.7263  0.1787  1.9820
22060SOL    HW267397   7.756   8.695   2.818  0.5278  0.9586  0.6907
22061SOL     OW67398   7.714   7.855   3.065  0.1723 -0.2177  0.4855
22061SOL    HW167399   7.766   7.786   3.024  0.3064 -0.0101  0.3044
22061SOL    HW267400   7.653   7.808   3.122 -0.7253 -0.5936 -0.7199
22062SOL     OW67401   8.594   0.259   3.250 -0.0124 -0.0710  0.8449
22062SOL    HW167402   8.587   0.322   3.322 -1.8104 -0.0759  0.7386
22062SOL    HW267403   8.569   0.308   3.172  2.3968  0.0651  0.0843
22063SOL     OW67404   7.518   8.421   2.920  0.1000  0.0658  0.2625
22063SOL    HW167405   7.504   8.345   2.977  0.1384 -1.0186 -1.1434
22063SOL    HW267406   7.613   8.426   2.909  0.0137 -0.6054 -0.8568
22064SOL     OW67407   7.967   8.477   1.186 -0.2973 -0.3408 -0.4460
22064SOL    HW167408   8.037   8.540   1.203  0.0362 -0.5524 -1.0162
22064SOL    HW267409   7.886   8.526   1.204  0.0000 -0.7958  2.5927
22065SOL     OW67410   7.698   7.827   2.078  0.1361 -0.1952 -0.0810
22065SOL    HW167411   7.723   7.748   2.125 -1.3552 -0.6619 -0.0288
22065SOL    HW267412   7.646   7.795   2.003 -0.3309  0.7116 -0.1593
22066SOL     OW67413   0.554   8.437   2.503  0.5746  0.1098 -0.5724
22066SOL    HW167414   0.546   8.527   2.473 -1.5171 -0.2596 -1.2938
22066SOL    HW267415   0.614   8.396   2.440 -1.0678  0.2076 -2.2904
22067SOL     OW67416   7.498   8.086   3.373  0.4419 -0.7514  0.0452
22067SOL    HW167417   7.464   8.160   3.322  2.3184 -0.2380 -0.5623
22067SOL    HW267418   7.593   8.092   3.362  0.8254 -1.5497  2.3505
22068SOL     OW67419   7.883   0.247   2.357  0.3810 -0.2035 -0.6799
22068SOL    HW167420   7.972   0.246   2.324  0.8579 -1.3251  0.5485
22068SOL    HW267421   7.856   0.155   2.358 -1.0958  0.1798 -1.7743
22069SOL     OW67422   8.497   8.778   2.889  0.2575  0.2144  0.0868
22069SOL    HW167423   8.579   8.806   2.847 -1.4020  1.8692 -2.3150
22069SOL    HW267424   8.470   8.854   2.941  0.3160 -0.3871  1.0012
22070SOL     OW67425   8.100   7.480   2.418 -0.2541  0.0737  0.4859
22070SOL    HW167426   8.075   7.393   2.389  1.1149 -0.6309  1.3119
22070SOL    HW267427   8.194   7.474   2.436  0.3036  2.2181 -1.2199
22071SOL     OW67428   7.718   8.288   3.323  0.2973 -0.1704 -0.4218
22071SOL    HW167429   7.714   8.216   3.260 -1.5700 -0.6536  0.1817
22071SOL    HW267430   7.793   8.340   3.295  0.7491 -1.4829 -1.8136
22072SOL     OW67431   7.558   7.583   3.445  0.6157  0.4600  0.0751
22072SOL    HW167432   7.558   7.665   3.494 -1.1740  0.3288  0.3517
22072SOL    HW267433   7.471   7.579   3.405  1.4493 -0.2543 -1.7354
22073SOL     OW67434   8.026   8.012   1.814  0.0729 -0.4298 -0.2522
22073SOL    HW167435   7.985   7.927   1.833 -2.4641  0.9034  0.7738
22073SOL    HW267436   8.020   8.061   1.896  1.9891  0.5923 -0.6681
22074SOL     OW67437   8.390   7.770   2.395 -0.2610  0.0349  0.6156
22074SOL    HW167438   8.483   7.752   2.382 -0.2525  0.8024 -0.6422
22074SOL    HW267439   8.351   7.754   2.309 -0.8734  1.9550  0.4760
22075SOL     OW67440   8.231   8.005   3.154  0.6585 -0.2167 -0.7717
22075SOL    HW167441   8.182   7.951   3.216  1.0802 -1.4444 -1.4869
22075SOL    HW267442   8.170   8.021   3.082  0.5848  0.1430 -0.6326
22076SOL     OW67443   0.058   7.995   3.525 -0.0400  0.0977 -0.0735
22076SOL    HW167444   0.039   8.063   3.591 -0.7024 -0.0488 -0.1061
22076SOL    HW267445   0.125   7.940   3.566  0.7638  0.9654 -0.1825
22077SOL     OW67446   8.632   8.386   3.240  0.7532  0.2652 -0.1241
22077SOL    HW167447   8.596   8.301   3.265  0.1488  0.6039  0.1578
22077SOL    HW267448   8.569   8.423   3.179 -1.0541  2.2041  2.6537
22078SOL     OW67449   8.311   7.875   2.677 -0.2204 -0.0235  0.8185
22078SOL    HW167450   8.344   7.964   2.667 -1.0681  0.1754 -0.3565
22078SOL    HW267451   8.309   7.840   2.588 -0.7528 -0.9046  1.1647
22079SOL     OW67452   8.243   7.859   2.081 -0.5137  0.1183  0.2629
22079SOL    HW167453   8.281   7.775   2.106 -0.8933 -0.4766 -1.0889
22079SOL    HW267454   8.153   7.856   2.115 -1.2036 -0.9110 -1.5055
22080SOL     OW67455   7.488   8.692   3.008 -0.4350  0.0498  0.0314
22080SOL    HW167456   7.550   8.695   3.080  1.9785  0.7266 -1.9169
22080SOL    HW267457   7.498   8.605   2.971 -1.5514 -0.2480  0.3942
22081SOL     OW67458   8.654   7.639   2.361  0.1313  0.3468  0.6474
22081SOL    HW167459   8.685   7.582   2.431  2.3777 -0.0105 -0.5564
22081SOL    HW267460   8.694   7.604   2.281 -1.4768  1.3817 -0.6959
22082SOL     OW67461   0.347   8.767   2.525 -0.0483  0.0396  0.0837
22082SOL    HW167462   0.348   8.761   2.620  1.2187 -0.5118  0.0511
22082SOL    HW267463   0.286   8.699   2.497  0.1349 -0.2849  0.4714
22083SOL     OW67464   7.834   7.342   3.111 -0.3356 -0.2887 -0.2103
22083SOL    HW167465   7.813   7.409   3.177  1.2335 -1.8717  2.0613
22083SOL    HW267466   7.883   7.390   3.044 -0.8115  1.1617  0.4387
22084SOL     OW67467   7.583   8.485   2.107 -0.1772  0.0771 -0.0583
22084SOL    HW167468   7.509   8.518   2.056  1.3146  2.1541 -1.0691
22084SOL    HW267469   7.639   8.440   2.043  1.1191  1.6461 -0.1029
22085SOL     OW67470   8.125   8.353   3.080  0.0051  0.1306  0.1077
22085SOL    HW167471   8.053   8.300   3.045 -0.4662  1.2011 -0.6078
22085SOL    HW267472   8.101   8.368   3.171 -0.3719 -0.0274  0.0382
22086SOL     OW67473   7.415   7.130   3.343 -0.0121  0.2601 -0.0879
22086SOL    HW167474   7.471   7.202   3.314 -0.8124  1.8781  2.1413
22086SOL    HW267475   7.330   7.147   3.302 -0.2631  0.7153  0.6199
22087SOL     OW67476   7.486   7.946   1.598  0.3632  0.1271  0.0519
22087SOL    HW167477   7.456   7.980   1.682 -0.7622  0.8496 -0.6193
22087SOL    HW267478   7.532   8.020   1.558  1.4273 -0.4001  0.2754
22088SOL     OW67479   8.311   7.331   2.201 -0.2174 -0.0199  0.4705
22088SOL    HW167480   8.243   7.271   2.171  0.3097  0.5880 -2.1795
22088SOL    HW267481   8.305   7.328   2.297 -1.4055 -2.8674  0.4066
22089SOL     OW67482   7.845   7.598   3.719 -0.8544  0.2325 -0.0356
22089SOL    HW167483   7.836   7.504   3.733 -0.4820  0.5468  2.6857
22089SOL    HW267484   7.761   7.635   3.746  0.1907  0.9548  2.4738
22090SOL     OW67485   8.766   8.219   3.054  0.3428 -0.1451  0.5950
22090SOL    HW167486   8.680   8.221   3.012  1.1944 -0.5535 -1.2804
22090SOL    HW267487   8.755   8.270   3.135 -1.6681 -0.3068  0.4640
22091SOL     OW67488   8.073   8.032   2.921  0.1026  0.0929 -0.1945
22091SOL    HW167489   8.066   7.991   2.835 -0.2328 -0.2067 -0.0280
22091SOL    HW267490   7.988   8.075   2.934  0.4380  0.8224 -0.3515
22092SOL     OW67491   8.334   7.085   1.963 -0.1824  0.3505 -0.3961
22092SOL    HW167492   8.385   7.017   1.919 -0.3097  0.7218 -1.1367
22092SOL    HW267493   8.322   7.052   2.052  1.7691  0.4822 -0.0395
22093SOL     OW67494   0.320   8.790   1.886 -0.1685  0.0294  0.1429
22093SOL    HW167495   0.247   8.743   1.927 -0.6798  1.2315  0.6655
22093SOL    HW267496   0.295   8.882   1.892  0.9547  0.3947 -0.5597
22094SOL     OW67497   8.037   7.266   2.062 -0.5543  0.0922  0.6820
22094SOL    HW167498   8.000   7.354   2.058  0.3484  0.5328  1.6369
22094SOL    HW267499   8.014   7.235   2.150  0.6619  0.0744  1.0027
22095SOL     OW67500   8.364   7.453   2.470 -0.1843  0.1635 -0.2359
22095SOL    HW167501   8.437   7.397   2.495 -0.8765 -0.6500  0.0320
22095SOL    HW267502   8.390   7.540   2.499  0.4644 -0.2016  0.3166
22096SOL     OW67503   8.474   8.293   3.534  0.1574 -0.2979 -0.1419
22096SOL    HW167504   8.500   8.204   3.558  3.1988  0.1822 -1.2428
22096SOL    HW267505   8.430   8.283   3.449  0.0903 -0.7659 -0.0588
22097SOL     OW67506   8.547   8.765   1.869  0.1922 -0.2028 -0.1884
22097SOL    HW167507   8.521   8.718   1.948 -1.0383  3.4505  1.8558
22097SOL    HW267508   8.479   8.744   1.805 -1.6933  0.5637  1.4546
22098SOL     OW67509   7.862   8.814   2.412 -0.4253  0.5409 -0.4017
22098SOL    HW167510   7.853   8.736   2.466 -2.8661  1.2421  0.3432
22098SOL    HW267511   7.830   8.788   2.326 -2.4234  0.9485  0.1589
22099SOL     OW67512   8.038   7.749   1.878  0.3329 -0.4823 -0.7029
22099SOL    HW167513   8.124   7.790   1.890 -0.6272  1.9075 -1.3293
22099SOL    HW267514   8.043   7.710   1.790  0.8688 -0.6300 -0.6147
22100SOL     OW67515   7.229   7.985   3.252  0.0504 -0.2682 -0.1594
22100SOL    HW167516   7.296   8.038   3.208  0.1277 -0.4078 -0.2113
22100SOL    HW267517   7.146   8.028   3.229  0.1794  0.4127  0.6177
22101SOL     OW67518   7.852   7.625   2.946  0.0154  0.2483  0.4680
22101SOL    HW167519   7.916   7.628   3.017 -1.5581  0.7296  1.9309
22101SOL    HW267520   7.905   7.622   2.866  1.8537  1.1478  1.5828
22102SOL     OW67521   7.992   7.741   2.425  0.1307 -0.1825  0.4869
22102SOL    HW167522   8.025   7.791   2.499 -2.8539 -0.7911  2.4025
22102SOL    HW267523   8.023   7.651   2.440 -0.2072 -0.2417  0.8497
22103SOL     OW67524   8.051   7.852   2.675  0.0963  0.3375  0.0479
22103SOL    HW167525   8.014   7.768   2.701  0.3934  0.2520  0.1915
22103SOL    HW267526   8.143   7.846   2.699  0.0499  0.8255  0.3428
22104SOL     OW67527   8.633   7.858   2.050 -0.4980 -0.2061  0.8055
22104SOL    HW167528   8.574   7.796   2.008  1.2970 -1.1863 -0.3672
22104SOL    HW267529   8.696   7.804   2.097  1.0746  0.6727 -0.1845
22105SOL     OW67530   7.651   7.338   2.385 -0.4541 -0.2992 -0.1262
22105SOL    HW167531   7.589   7.298   2.446 -0.0254  0.4334  0.8122
22105SOL    HW267532   7.686   7.414   2.432  1.6906 -1.0806 -0.3234
22106SOL     OW67533   8.554   8.522   2.630  0.1151 -0.6604  0.2579
22106SOL    HW167534   8.603   8.587   2.681 -1.7516  0.7498  0.3663
22106SOL    HW267535   8.586   8.438   2.661  0.8820  0.1825  1.8780
22107SOL     OW67536   8.476   8.665   2.415 -0.1547  0.5890  0.0737
22107SOL    HW167537   8.487   8.640   2.507 -1.8643 -1.7290 -0.2364
22107SOL    HW267538   8.382   8.678   2.405 -0.0571  0.3616 -1.4258
22108SOL     OW67539   8.065   7.662   3.104 -0.1205 -0.2509 -0.0220
22108SOL    HW167540   8.068   7.712   3.185  0.1933  0.5056 -0.4910
22108SOL    HW267541   8.154   7.668   3.069  0.0197 -1.4206  0.0749
22109SOL     OW67542   8.436   0.109   3.074  0.1320 -0.1334 -0.0595
22109SOL    HW167543   8.509   0.139   3.127 -0.3727  0.1587  0.4910
22109SOL    HW267544   8.386   0.053   3.133 -1.0421  1.0720  0.1375
22110SOL     OW67545   8.042   8.273   1.732  0.0173 -0.1593  0.6490
22110SOL    HW167546   8.044   8.178   1.736 -1.3842 -0.1836  1.3438
22110SOL    HW267547   7.951   8.295   1.712 -0.0131  1.0620  1.9050
22111SOL     OW67548   7.920   7.765   3.503  0.2175 -0.0468 -0.0381
22111SOL    HW167549   7.915   7.694   3.567 -0.8281  0.5743  0.5843
22111SOL    HW267550   7.876   7.839   3.544 -0.8556  0.2475 -1.6072
22112SOL     OW67551   8.696   8.252   2.725  0.5248 -0.0531 -0.0864
22112SOL    HW167552   8.736   8.224   2.807  1.6698  0.7358 -0.3530
22112SOL    HW267553   8.700   8.173   2.669  0.3736 -0.3915  0.3743
22113SOL     OW67554   7.677   8.315   1.913 -0.7077  0.1315 -0.1045
22113SOL    HW167555   7.704   8.235   1.958 -0.0164  0.7867  0.6847
22113SOL    HW267556   7.726   8.314   1.831  0.9834  0.7777  0.8452
22114SOL     OW67557   8.073   7.585   2.743 -0.1087  0.2423  1.0371
22114SOL    HW167558   8.134   7.554   2.809 -0.3532 -0.7283  0.8223
22114SOL    HW267559   8.047   7.506   2.694  0.0157  0.9190 -0.1767
22115SOL     OW67560   8.554   8.453   2.252 -0.3744 -0.2778  0.5576
22115SOL    HW167561   8.514   8.515   2.312  0.3676 -0.9673  1.8080
22115SOL    HW267562   8.647   8.453   2.277 -0.1320 -0.8882 -0.3202
22116SOL     OW67563   7.701   8.678   3.474  0.1975 -0.1388 -0.3877
22116SOL    HW167564   7.640   8.621   3.521 -1.1014  1.0423 -0.5537
22116SOL    HW267565   7.788   8.644   3.497 -0.5023 -2.6364 -1.1247
22117SOL     OW67566   8.353   7.732   3.789 -0.5204  0.2888  0.1409
22117SOL    HW167567   8.344   7.710   3.696  1.7582 -2.0994  0.3963
22117SOL    HW267568   8.283   7.683   3.832 -0.1964 -0.3664 -0.0820
22118SOL     OW67569   7.582   7.371   3.710 -0.0107 -0.4262 -0.1283
22118SOL    HW167570   7.500   7.419   3.702  0.4104  0.4819  0.8418
22118SOL    HW267571   7.645   7.421   3.659  0.1298 -0.6832 -0.2116
22119SOL     OW67572   8.238   8.195   2.619  0.4940  0.0038  0.3938
22119SOL    HW167573   8.238   8.276   2.568 -2.5146 -1.7036 -2.7276
22119SOL    HW267574   8.165   8.205   2.680 -0.1953 -0.4910 -0.3337
22120SOL     OW67575   8.592   8.541   2.970  0.3165 -0.4586 -0.0261
22120SOL    HW167576   8.522   8.476   2.968  0.6196 -0.7642 -1.6205
22120SOL    HW267577   8.550   8.624   2.948  0.5560 -0.7733 -1.7791
22121SOL     OW67578   8.480   8.102   1.638  0.0238  0.1574  0.0071
22121SOL    HW167579   8.452   8.070   1.723  2.5812 -1.1017  0.4864
22121SOL    HW267580   8.558   8.154   1.656 -0.2613  1.1724 -1.4505
22122SOL     OW67581   7.597   7.319   3.289  0.3769  0.1622  0.2697
22122SOL    HW167582   7.670   7.260   3.270  1.2752  0.4152  2.6373
22122SOL    HW267583   7.631   7.378   3.356 -1.8891  0.5089  1.1939
22123SOL     OW67584   7.667   8.683   3.208  0.4569 -0.5730  0.8144
22123SOL    HW167585   7.763   8.686   3.201  0.7076 -2.4615  2.3465
22123SOL    HW267586   7.651   8.656   3.299 -1.6026  1.2917  1.0890
22124SOL     OW67587   7.526   7.889   2.559 -0.2715  0.6035 -0.5676
22124SOL    HW167588   7.562   7.941   2.486 -0.9382  0.1740 -1.2185
22124SOL    HW267589   7.466   7.827   2.517  0.1209 -0.3559  0.2466
22125SOL     OW67590   7.735   7.558   2.519 -0.0868  0.4289  0.8869
22125SOL    HW167591   7.725   7.649   2.490  0.6044  0.7843  1.7141
22125SOL    HW267592   7.701   7.558   2.609 -0.2048 -0.1645  0.8452
22126SOL     OW67593   0.107   7.889   2.360 -0.3777  0.3288  0.5454
22126SOL    HW167594   0.174   7.822   2.374  0.2582  0.2833 -2.1829
22126SOL    HW267595   0.058   7.890   2.442 -0.7610 -3.8519  0.6019
22127SOL     OW67596   8.489   8.082   2.550  0.2259 -0.1723  0.3023
22127SOL    HW167597   8.458   8.109   2.464  0.8554 -0.0782  0.1073
22127SOL    HW267598   8.440   8.137   2.611 -1.2739 -1.2090  0.0925
22128SOL     OW67599   7.527   8.512   3.556 -0.6737  0.1878 -0.2866
22128SOL    HW167600   7.561   8.439   3.608  0.4437  2.5614  2.6222
22128SOL    HW267601   7.432   8.505   3.563 -0.6006 -1.1598 -0.3856
22129SOL     OW67602   8.749   8.270   1.487 -1.2749 -0.1729 -0.2641
22129SOL    HW167603   8.671   8.244   1.438 -1.4461  1.4069 -0.9001
22129SOL    HW267604   8.799   8.324   1.426  0.6701 -1.6548 -0.0795
22130SOL     OW67605   7.976   8.052   2.426 -0.1201  0.1698 -0.2589
22130SOL    HW167606   7.996   7.983   2.488 -1.0328  2.1571  2.4162
22130SOL    HW267607   8.050   8.053   2.366 -0.2349 -3.2832 -0.6674
22131SOL     OW67608   7.596   7.806   2.812  0.2961 -0.1430  0.0487
22131SOL    HW167609   7.650   7.855   2.874  0.5471 -0.1270 -0.1783
22131SOL    HW267610   7.566   7.872   2.749 -0.3201 -0.0832  0.4045
22132SOL     OW67611   8.711   8.467   3.503 -0.1149  0.0296 -0.6006
22132SOL    HW167612   8.725   8.470   3.408  0.6546 -1.9988 -0.5921
22132SOL    HW267613   8.632   8.414   3.514 -0.2800  0.3686 -0.1110
22133SOL     OW67614   8.393   7.843   3.393 -0.0553 -0.2024  0.6940
22133SOL    HW167615   8.425   7.864   3.305 -2.3388  3.7777  0.5493
22133SOL    HW267616   8.464   7.869   3.451  0.6530 -0.8211  0.1287
22134SOL     OW67617   7.168   8.524   2.123  0.6115 -0.0647  0.3111
22134SOL    HW167618   7.087   8.530   2.073  1.4277  0.0765 -1.0317
22134SOL    HW267619   7.145   8.471   2.200 -1.6479  2.8881  1.8655
22135SOL     OW67620   8.102   7.808   3.325  0.2028  0.4417  0.5967
22135SOL    HW167621   8.175   7.839   3.379  0.2119 -2.0062  2.1385
22135SOL    HW267622   8.034   7.785   3.388 -1.4610  1.4965 -0.7488
22136SOL     OW67623   7.398   8.090   3.074 -0.3094 -0.0364  0.1715
22136SOL    HW167624   7.404   8.036   2.995  1.1531 -1.9589  1.5164
22136SOL    HW267625   7.337   8.161   3.050  0.0365 -0.5821 -2.6210
22137SOL     OW67626   7.391   8.377   3.340 -0.2683  0.0309 -0.0489
22137SOL    HW167627   7.300   8.404   3.354  0.1598  1.1632  0.5993
22137SOL    HW267628   7.443   8.454   3.360  0.7963 -0.3024 -1.4079
22138SOL     OW67629   8.284   7.611   2.193 -0.1179 -0.1861 -0.3912
22138SOL    HW167630   8.326   7.525   2.184 -0.8763 -0.4323 -2.2928
22138SOL    HW267631   8.195   7.590   2.221 -0.2138 -0.0142 -0.5651
22139SOL     OW67632   7.897   8.216   3.015 -0.2901  0.2857  0.2795
22139SOL    HW167633   7.830   8.158   3.049 -0.5411  0.5676  0.2778
22139SOL    HW267634   7.849   8.296   2.991  0.3038  1.2409  2.0779
22140SOL     OW67635   8.241   7.463   1.912  0.5523  0.3588 -0.2131
22140SOL    HW167636   8.262   7.419   1.995  3.5820  1.0451 -0.4983
22140SOL    HW267637   8.171   7.524   1.934 -1.0117 -1.7865  1.0547
22141SOL     OW67638   7.787   8.425   2.905  0.3979 -0.3186  0.1624
22141SOL    HW167639   7.832   8.404   2.823 -1.0789 -0.9843 -0.5193
22141SOL    HW267640   7.804   8.518   2.919  1.2975 -0.3697 -0.4875
22142SOL     OW67641   0.127   8.702   2.818 -0.4090  0.1954 -0.3673
22142SOL    HW167642   0.091   8.674   2.902  0.6677  2.4061  0.8922
22142SOL    HW267643   0.184   8.629   2.791  0.0609 -0.1103  1.3503
22143SOL     OW67644   8.698   8.278   1.998  0.2720 -0.0615 -0.3382
22143SOL    HW167645   8.726   8.263   2.088  1.0160  1.5049 -0.2769
22143SOL    HW267646   8.756   8.222   1.945 -0.1764 -0.9954  0.1250
22144SOL     OW67647   7.591   8.749   2.769  0.0140 -0.2148  0.4619
22144SOL    HW167648   7.569   8.840   2.751 -1.1963 -0.5931 -0.0751
22144SOL    HW267649   7.543   8.727   2.849  1.2097 -0.0679  1.2411
22145SOL     OW67650   8.183   8.114   2.214 -0.4882  0.1325  0.3354
22145SOL    HW167651   8.259   8.171   2.210 -1.5463  1.5621 -2.2774
22145SOL    HW267652   8.208   8.036   2.165 -0.1109 -0.2631  1.1365
22146SOL     OW67653   8.483   8.136   3.247  0.0125  0.2246  0.6655
22146SOL    HW167654   8.396   8.099   3.232  0.7644 -1.0322 -0.8664
22146SOL    HW267655   8.542   8.062   3.239  1.4174  1.4143 -0.4680
22147SOL     OW67656   7.797   7.594   2.204  0.2640  0.2326 -0.5467
22147SOL    HW167657   7.833   7.621   2.288 -1.2343  0.1659  0.1479
22147SOL    HW267658   7.759   7.508   2.220  0.2776  0.0558 -1.3895
22148SOL     OW67659   8.382   8.358   2.984 -0.3503 -0.4494  0.2979
22148SOL    HW167660   8.412   8.273   2.952 -0.3129 -0.1456 -0.4719
22148SOL    HW267661   8.297   8.339   3.024 -0.0451 -0.9608  0.7292
22149SOL     OW67662   8.442   8.186   2.294  0.2058  0.1383  0.4299
22149SOL    HW167663   8.474   8.275   2.304 -0.7350  0.6894 -1.2184
22149SOL    HW267664   8.516   8.137   2.258  0.2000  0.6583 -0.2980
22150SOL     OW67665   7.951   8.736   3.107 -0.0063 -0.5350  0.4109
22150SOL    HW167666   7.890   8.731   3.034  0.6242 -0.0299 -0.1634
22150SOL    HW267667   8.026   8.684   3.079 -0.7384 -2.3911  1.7160
22151SOL     OW67668   8.194   8.690   2.384  0.5066  0.1299 -0.1434
22151SOL    HW167669   8.137   8.760   2.413  1.2568  0.5549  0.3464
22151SOL    HW267670   8.198   8.698   2.289  0.2946  0.5170 -0.1168
22152SOL     OW67671   8.596   7.372   2.640 -0.1861  0.3371  0.5211
22152SOL    HW167672   8.585   7.381   2.734 -1.6524  3.7650  0.1832
22152SOL    HW267673   8.688   7.394   2.624  0.7911 -2.7333  1.2202
22153SOL     OW67674   7.264   0.020   3.478 -0.2574  0.1730  0.7202
22153SOL    HW167675   7.291  -0.033   3.552 -0.6913 -0.6102  0.3291
22153SOL    HW267676   7.203   0.084   3.515 -1.3755 -0.9388  0.8797
22154SOL     OW67677   8.204   7.467   3.315 -0.4837 -0.0299  0.2873
22154SOL    HW167678   8.162   7.383   3.334  2.8172 -1.5941  1.5417
22154SOL    HW267679   8.193   7.478   3.220  0.2491 -2.7633 -0.2214
22155SOL     OW67680   7.298   7.830   1.424  0.1458  0.0911  0.0070
22155SOL    HW167681   7.250   7.788   1.496  1.8976 -1.0495  0.5864
22155SOL    HW267682   7.346   7.902   1.465 -2.4086  2.4884 -0.8934
22156SOL     OW67683   8.507   8.752   3.382 -0.6653  0.4492 -0.4623
22156SOL    HW167684   8.442   8.786   3.321  1.0060  2.9399 -1.0038
22156SOL    HW267685   8.581   8.724   3.327 -0.4252 -0.4071  0.2580
22157SOL     OW67686   7.631   7.497   1.772  0.0411 -0.8778 -0.5599
22157SOL    HW167687   7.558   7.438   1.793  1.2167 -1.7114  1.4415
22157SOL    HW267688   7.707   7.439   1.765  1.0982  0.2772  0.7633
22158SOL     OW67689   8.143   8.381   1.963 -0.0638 -0.4428  0.0070
22158SOL    HW167690   8.143   8.354   1.871 -1.6521  0.7041 -0.3748
22158SOL    HW267691   8.222   8.342   1.999  0.3893 -1.2597 -1.7437
22159SOL     OW67692   8.520   8.110   2.936  0.9494  0.3733 -0.0397
22159SOL    HW167693   8.500   8.030   2.887  1.8768  0.4087 -0.5025
22159SOL    HW267694   8.559   8.080   3.018 -0.6394  0.3134  0.7216
22160SOL     OW67695   7.536   7.855   3.495 -0.2701 -0.5535  0.3366
22160SOL    HW167696   7.504   7.938   3.461  1.8880 -1.2353 -4.0120
22160SOL    HW267697   7.621   7.875   3.534 -0.4785 -0.4954  0.7628
22161SOL     OW67698   8.457   8.648   3.641  1.0944  0.5697 -0.3836
22161SOL    HW167699   8.469   8.695   3.558 -0.9118 -0.3285 -1.2392
22161SOL    HW267700   8.509   8.568   3.631 -0.5491 -0.4016 -1.5580
22162SOL     OW67701   8.825   7.692   2.129 -0.3084  0.2435 -0.3024
22162SOL    HW167702   8.896   7.627   2.130 -1.7695 -1.4295  0.6262
22162SOL    HW267703   8.863   7.769   2.173  1.2371 -0.2074 -0.7648
22163SOL     OW67704   7.757   8.218   2.475 -0.0107 -0.2731 -0.3562
22163SOL    HW167705   7.777   8.265   2.556  1.5977  1.1255 -1.5065
22163SOL    HW267706   7.837   8.169   2.455 -0.5553 -0.9748 -0.8772
22164SOL     OW67707   7.999   8.591   2.077  0.5966  0.2064  0.0864
22164SOL    HW167708   8.073   8.650   2.090  0.8479 -0.1535  0.2975
22164SOL    HW267709   8.037   8.512   2.040  0.2089  0.3117 -0.5655
22165SOL     OW67710   8.415   8.544   2.029  0.4679  0.4517 -0.0814
22165SOL    HW167711   8.428   8.469   1.971  0.2632 -0.5368  1.1242
22165SOL    HW267712   8.462   8.521   2.109  1.1438  1.9993  0.0140
22166SOL     OW67713   0.036   8.454   1.747 -0.3110  0.1322 -0.2085
22166SOL    HW167714  -0.006   8.417   1.669 -0.3703  0.4025 -0.3024
22166SOL    HW267715   0.008   8.545   1.748  1.2044  0.6277 -0.9216
22167SOL     OW67716   7.950   8.615   3.553 -0.2120 -0.1340  0.5019
22167SOL    HW167717   7.907   8.593   3.635  0.2552 -0.9678  0.5318
22167SOL    HW267718   8.044   8.613   3.573 -0.0666 -0.9505 -0.1890
22168SOL     OW67719   7.750   8.636   2.556 -0.4068 -0.1709 -0.9902
22168SOL    HW167720   7.672   8.663   2.605  0.3377 -0.3206  0.3082
22168SOL    HW267721   7.729   8.548   2.524  0.2782 -1.4895  1.8588
22169SOL     OW67722   8.267   8.778   3.251 -0.3023  0.0873  0.1349
22169SOL    HW167723   8.220   8.717   3.195  1.9173 -1.0143 -0.6585
22169SOL    HW267724   8.210   8.790   3.327 -1.4062 -1.9334 -0.3162
22170SOL     OW67725   7.866   7.226   2.288 -0.1138 -0.3049  0.2456
22170SOL    HW167726   7.898   7.176   2.362  0.6170 -0.0815  0.0881
22170SOL    HW267727   7.776   7.250   2.312 -1.0049 -2.8495 -0.2570
22171SOL     OW67728   7.668   8.097   3.137 -0.3469 -0.4600 -0.0965
22171SOL    HW167729   7.574   8.107   3.121 -0.3277  0.8098  0.4609
22171SOL    HW267730   7.685   8.004   3.121 -1.4812 -0.5029 -1.2708
22172SOL     OW67731   8.323   7.554   2.968  0.3430 -0.0542  0.3383
22172SOL    HW167732   8.381   7.629   2.951 -0.7026  0.4086 -1.4938
22172SOL    HW267733   8.379   7.477   2.954  0.9237  0.3792  0.2174
22173SOL     OW67734   8.518   7.351   2.967  0.0577 -0.5998 -0.2449
22173SOL    HW167735   8.512   7.259   2.992 -0.9743 -0.3516  0.4877
22173SOL    HW267736   8.596   7.384   3.011  0.0428 -0.9628  0.0534
22174SOL     OW67737   7.740   8.712   2.174  0.1058 -0.0893 -0.4441
22174SOL    HW167738   7.702   8.624   2.165  1.5411 -0.6725 -1.1146
22174SOL    HW267739   7.833   8.699   2.158  0.7471  1.1798  1.8423
22175SOL     OW67740   0.264   7.410   2.406  0.4093  0.7435 -0.6436
22175SOL    HW167741   0.203   7.337   2.392  2.0563 -0.5998 -1.1928
22175SOL    HW267742   0.327   7.377   2.469  0.9405  1.8765 -0.5561
22176SOL     OW67743   7.718   8.101   2.064  0.1155  0.5278  0.1514
22176SOL    HW167744   7.704   8.006   2.055 -2.0153  0.9065 -1.0032
22176SOL    HW267745   7.811   8.109   2.085  0.6949 -1.7492 -1.1949
22177SOL     OW67746   7.585   8.085   3.808 -0.3386 -0.1198  0.0255
22177SOL    HW167747   7.501   8.040   3.811  0.1158 -1.0411 -0.4200
22177SOL    HW267748   7.581   8.138   3.728 -1.0213  0.9505  0.7529
22178SOL     OW67749   7.276   7.813   4.582 -0.0832  0.5052  0.3298
22178SOL    HW167750   7.272   7.865   4.502 -0.9449  0.9999  0.6761
22178SOL    HW267751   7.220   7.737   4.563  0.8465 -0.1067 -0.0293
22179SOL     OW67752   7.332   8.034   4.112  0.2436  0.2990  0.0953
22179SOL    HW167753   7.326   8.094   4.039 -1.7213  0.5663  0.4290
22179SOL    HW267754   7.247   7.991   4.115  1.0925 -1.4275  0.7855
22180SOL     OW67755   7.827   8.488   4.819 -0.3874  0.3883  0.4046
22180SOL    HW167756   7.775   8.408   4.817  0.6939 -0.3807  1.7617
22180SOL    HW267757   7.912   8.461   4.852  1.2275  1.4733 -2.5363
22181SOL     OW67758   0.139   0.450   4.467  0.0093 -0.0008  0.3799
22181SOL    HW167759   0.144   0.525   4.526  0.4462 -0.0479  0.3992
22181SOL    HW267760   0.064   0.469   4.411 -0.5035 -0.0284  1.0442
22182SOL     OW67761   7.954   8.334   3.807  0.0589  0.2722 -0.2886
22182SOL    HW167762   7.912   8.418   3.821 -3.2712 -1.4798  1.3923
22182SOL    HW267763   8.001   8.317   3.889 -1.3839 -0.5382  0.4034
22183SOL     OW67764   8.233   8.285   4.921  0.2706  0.2473  0.0469
22183SOL    HW167765   8.313   8.314   4.878 -1.5861  0.3682 -3.7419
22183SOL    HW267766   8.232   8.190   4.909 -1.2790  0.4955 -2.3299
22184SOL     OW67767   8.201   7.846   5.309 -0.1386 -0.2767  0.3761
22184SOL    HW167768   8.182   7.903   5.235 -0.6299 -2.7679 -1.5246
22184SOL    HW267769   8.120   7.796   5.323  1.0966 -2.4884  0.0855
22185SOL     OW67770   8.096   8.059   4.019  0.4595 -0.4686  0.1652
22185SOL    HW167771   8.001   8.064   4.021  0.3614 -1.3481 -1.1018
22185SOL    HW267772   8.121   8.022   4.104 -0.2745  0.3079  0.7275
22186SOL     OW67773   8.006   8.257   5.396  0.0120 -0.1451  0.3992
22186SOL    HW167774   8.092   8.226   5.367  0.4391  0.9857  0.4238
22186SOL    HW267775   7.944   8.193   5.360  0.6615  0.2591 -1.5512
22187SOL     OW67776   7.435   8.074   4.694 -0.4038  0.4145 -0.1208
22187SOL    HW167777   7.369   8.076   4.624  1.8989  0.6552 -2.4291
22187SOL    HW267778   7.450   7.981   4.711 -1.6478  0.3546  0.8102
22188SOL     OW67779   8.129   8.011   5.107  0.1614  0.6648  0.5312
22188SOL    HW167780   8.168   7.955   5.039  1.1423  1.1866  0.6395
22188SOL    HW267781   8.036   7.992   5.103  0.5666 -1.9955  1.4430
22189SOL     OW67782   8.512   8.630   5.138 -0.0793  0.5267 -0.0243
22189SOL    HW167783   8.511   8.696   5.069 -0.6524 -0.4601 -0.9968
22189SOL    HW267784   8.421   8.620   5.164  0.0382  0.3216  0.3209
22190SOL     OW67785   7.685   8.266   4.158  0.6770  0.1653  0.0957
22190SOL    HW167786   7.660   8.238   4.246 -0.3207 -0.4475 -0.3673
22190SOL    HW267787   7.744   8.340   4.172 -0.1533  0.6257  1.2518
22191SOL     OW67788   7.682   8.309   3.616  0.0055  0.5766 -0.1024
22191SOL    HW167789   7.718   8.316   3.528 -0.1302  1.8246 -0.0876
22191SOL    HW267790   7.757   8.287   3.671 -0.2420 -2.1201 -0.7448
22192SOL     OW67791   7.505   7.979   4.299  0.3972  0.0185  0.1359
22192SOL    HW167792   7.438   7.992   4.232  0.2936 -0.4747  0.1407
22192SOL    HW267793   7.512   8.063   4.343  1.1491  0.6524 -1.1173
22193SOL     OW67794   8.847   8.495   3.900 -0.1453 -0.4696 -0.0427
22193SOL    HW167795   8.940   8.499   3.878 -0.1374 -1.3191 -0.1755
22193SOL    HW267796   8.845   8.474   3.993 -0.2073  0.6597  0.2306
22194SOL     OW67797   7.516   8.221   5.278 -0.6355  0.0177 -0.7500
22194SOL    HW167798   7.485   8.195   5.364 -2.3044  3.4487 -0.1641
22194SOL    HW267799   7.443   8.204   5.219 -0.1142 -0.7275 -1.2009
22195SOL     OW67800   7.686   8.684   4.378  0.3195 -0.2663 -0.1009
22195SOL    HW167801   7.706   8.692   4.285 -1.2058 -3.2437 -0.7871
22195SOL    HW267802   7.609   8.740   4.391  1.1770  1.0164 -0.3183
22196SOL     OW67803   8.126   8.577   4.759  0.4881  0.3888 -0.3647
22196SOL    HW167804   8.149   8.516   4.689  0.3180 -0.5019  0.3277
22196SOL    HW267805   8.203   8.577   4.817 -0.5503 -1.4762  1.1811
22197SOL     OW67806   7.881   7.651   4.173  0.3008 -0.4139  0.9745
22197SOL    HW167807   7.793   7.680   4.196  0.5742  1.5943 -0.2608
22197SOL    HW267808   7.901   7.696   4.092  1.8771 -2.1006  0.3398
22198SOL     OW67809   7.061   8.186   5.146  1.1658 -0.3369  0.2574
22198SOL    HW167810   7.024   8.269   5.175  0.4808 -0.7602  0.6301
22198SOL    HW267811   7.150   8.207   5.119  0.5121  0.8278 -1.1654
22199SOL     OW67812   7.775   7.751   5.957 -0.1130  0.5993  0.3012
22199SOL    HW167813   7.792   7.773   6.048 -0.5446  1.4112  0.1997
22199SOL    HW267814   7.859   7.763   5.913  0.1724 -0.1108  0.6416
22200SOL     OW67815   7.973   8.197   3.578 -0.3055  0.0340  0.1133
22200SOL    HW167816   8.060   8.163   3.556 -0.5942 -0.0695 -0.8972
22200SOL    HW267817   7.985   8.239   3.663  0.9592  0.8703 -0.4450
22201SOL     OW67818   8.360   8.167   4.141  0.2490  0.1484  0.1179
22201SOL    HW167819   8.402   8.116   4.072 -1.2941  0.7548 -1.3709
22201SOL    HW267820   8.302   8.105   4.185  1.1649 -0.2172  0.8429
22202SOL     OW67821   8.290   7.969   4.814 -0.5436  0.3031  0.2263
22202SOL    HW167822   8.334   7.971   4.899  1.3884  2.7215 -0.7037
22202SOL    HW267823   8.338   7.903   4.763  0.0413  0.7423  0.1989
22203SOL     OW67824   8.633   8.052   5.530 -0.1635 -0.3442  0.5839
22203SOL    HW167825   8.621   8.060   5.625 -0.9065  1.1719  0.3898
22203SOL    HW267826   8.726   8.068   5.516 -0.0079 -0.7797  1.0617
22204SOL     OW67827   8.371   8.350   5.574  0.2447  0.5028 -0.4612
22204SOL    HW167828   8.332   8.267   5.548  1.6840 -0.1613 -0.5992
22204SOL    HW267829   8.336   8.367   5.661 -1.6315  0.8094 -1.2243
22205SOL     OW67830   8.449   7.783   4.733 -0.0857 -0.0207 -0.3098
22205SOL    HW167831   8.504   7.706   4.724 -0.4853 -0.1720 -1.7902
22205SOL    HW267832   8.508   7.857   4.720  0.4950  0.0099  2.1209
22206SOL     OW67833   8.015   8.774   4.014 -0.0950  0.2135 -0.0184
22206SOL    HW167834   8.029   8.728   4.097 -1.3394 -0.4782 -0.1735
22206SOL    HW267835   8.060   8.858   4.026 -1.7340  0.8842  2.0273
22207SOL     OW67836   7.380   8.237   4.381 -0.1774 -0.2311  0.4853
22207SOL    HW167837   7.418   8.296   4.446 -1.1388  2.5408 -1.2801
22207SOL    HW267838   7.365   8.292   4.304  0.4348 -3.2143 -1.9716
22208SOL     OW67839   8.275   7.634   3.516 -0.0241 -0.3612 -0.2533
22208SOL    HW167840   8.300   7.718   3.478 -2.0664  1.0691  1.3376
22208SOL    HW267841   8.231   7.588   3.444 -2.4655  1.6615 -0.2100
22209SOL     OW67842   8.460   8.825   4.436 -0.2746  0.2101  0.7985
22209SOL    HW167843   8.422   8.748   4.394 -0.1739  0.0088  1.0799
22209SOL    HW267844   8.387   8.887   4.443 -0.5831 -0.2173  1.4433
22210SOL     OW67845   8.184   7.688   4.732 -0.2828  0.5340  0.1448
22210SOL    HW167846   8.274   7.707   4.758  0.1179  0.1552 -0.9076
22210SOL    HW267847   8.130   7.723   4.803  0.6599  1.2842  0.5059
22211SOL     OW67848   7.337   8.223   3.587 -0.3419 -0.2168 -0.2060
22211SOL    HW167849   7.322   8.135   3.554  1.6048 -1.3364  1.6330
22211SOL    HW267850   7.394   8.265   3.522  0.5520 -1.1349 -0.0416
22212SOL     OW67851   7.682   8.606   5.369 -0.6339  0.3212  0.1504
22212SOL    HW167852   7.735   8.636   5.295 -0.0145 -1.0530  0.0052
22212SOL    HW267853   7.718   8.520   5.390 -2.2008 -0.2366  0.6698
22213SOL     OW67854   7.571   7.894   5.218 -0.1645 -0.0306 -0.1484
22213SOL    HW167855   7.483   7.913   5.186 -0.7018  1.0388  1.7640
22213SOL    HW267856   7.560   7.815   5.272 -0.2945  0.9056  1.2534
22214SOL     OW67857   7.787   8.060   3.993 -0.0607  0.3410  0.8091
22214SOL    HW167858   7.706   8.057   3.941 -0.6871 -2.1805  1.7838
22214SOL    HW267859   7.767   8.118   4.066 -0.4376  0.9469  0.2409
22215SOL     OW67860   7.597   7.738   3.768 -0.5268 -0.4518  0.6018
22215SOL    HW167861   7.526   7.775   3.715 -0.5708  1.3306  1.8497
22215SOL    HW267862   7.562   7.735   3.857 -0.0731 -2.4108  0.7680
22216SOL     OW67863   8.346   7.449   5.568  0.3913 -0.4872  0.1160
22216SOL    HW167864   8.413   7.465   5.501 -1.2335  0.7837 -1.3085
22216SOL    HW267865   8.395   7.446   5.651  2.2050  0.2715 -0.8682
22217SOL     OW67866   8.576   8.036   5.242 -0.0486 -0.0325  0.5754
22217SOL    HW167867   8.606   8.030   5.333  0.7438  0.8663  0.3822
22217SOL    HW267868   8.656   8.049   5.191 -0.5517  0.0834 -0.1957
22218SOL     OW67869   7.946   8.414   4.262 -0.2005  0.3476  0.1668
22218SOL    HW167870   7.997   8.332   4.262  2.0961  1.6953 -0.0968
22218SOL    HW267871   7.886   8.405   4.335  2.0574 -0.4123  2.0524
22219SOL     OW67872   7.971   7.414   4.284  0.1295 -0.3977  0.1208
22219SOL    HW167873   7.982   7.428   4.378  0.8376  1.7700 -0.2341
22219SOL    HW267874   7.918   7.488   4.255 -1.6965 -2.0087 -0.9345
22220SOL     OW67875   0.224   8.824   3.220  0.6576 -0.2465 -0.2127
22220SOL    HW167876   0.175   8.886   3.166  1.1582 -0.2950 -0.7337
22220SOL    HW267877   0.173   8.817   3.301  0.2099  0.2786 -0.4421
22221SOL     OW67878   7.173   7.736   3.624 -0.4041  0.5596 -0.0177
22221SOL    HW167879   7.175   7.722   3.719 -1.6785  1.0435  0.1042
22221SOL    HW267880   7.170   7.648   3.587 -1.5035  0.3756  0.4728
22222SOL     OW67881   8.178   7.352   3.886 -0.3515 -0.4416 -0.1643
22222SOL    HW167882   8.231   7.366   3.807 -0.2348  0.1887  0.0229
22222SOL    HW267883   8.168   7.439   3.924 -1.1843 -0.6156  0.0263
22223SOL     OW67884   8.642   7.979   4.738 -0.6904  0.0887 -0.0587
22223SOL    HW167885   8.646   7.931   4.821 -0.8740 -1.4664 -0.9077
22223SOL    HW267886   8.733   8.002   4.719 -0.6510  0.4801  0.5725
22224SOL     OW67887   8.224   0.294   3.994 -0.1979 -0.1398 -0.4891
22224SOL    HW167888   8.245   0.237   4.068 -2.1238  0.0272  0.2201
22224SOL    HW267889   8.309   0.310   3.952  1.4639  2.0270  3.2839
22225SOL     OW67890   7.761   8.689   4.121 -0.1575  0.4090 -0.0511
22225SOL    HW167891   7.837   8.730   4.082 -0.1335  0.8252  0.4220
22225SOL    HW267892   7.706   8.663   4.047  0.0379  0.8931 -0.3668
22226SOL     OW67893   8.550   8.054   3.586  0.1116 -0.4132  0.2630
22226SOL    HW167894   8.611   8.011   3.527  0.2466 -0.1998  0.2448
22226SOL    HW267895   8.547   7.997   3.663  0.1718 -0.5329  0.1767
22227SOL     OW67896   7.324   8.133   5.073 -0.0324 -0.1321 -0.9181
22227SOL    HW167897   7.301   8.064   5.135 -2.1080  1.0143 -0.3487
22227SOL    HW267898   7.270   8.114   4.996 -2.7329  2.2494  0.2123
22228SOL     OW67899   7.728   7.674   4.847 -0.0406  0.3835 -0.2395
22228SOL    HW167900   7.641   7.691   4.813 -0.5403 -0.6451  0.4615
22228SOL    HW267901   7.713   7.642   4.936  1.0542  0.2597 -0.0857
22229SOL     OW67902   8.181   7.931   4.245  0.2201  0.0918  0.2043
22229SOL    HW167903   8.263   7.925   4.293  0.1108  1.2282  0.5656
22229SOL    HW267904   8.115   7.898   4.307  0.1428  1.1035  0.6691
22230SOL     OW67905   8.396   7.622   4.173  0.2581 -0.5901  0.3354
22230SOL    HW167906   8.436   7.698   4.131 -1.3980  0.6818  0.9744
22230SOL    HW267907   8.366   7.654   4.258 -1.2753 -1.6882  0.2518
22231SOL     OW67908   8.669   8.086   3.989 -0.0919 -0.7603  0.0230
22231SOL    HW167909   8.660   8.056   3.898  0.8977 -0.9697 -0.0164
22231SOL    HW267910   8.727   8.023   4.030  0.4592  0.0199  0.4764
22232SOL     OW67911   7.490   7.631   4.016 -0.0419 -0.1306 -0.1940
22232SOL    HW167912   7.530   7.544   4.018  0.2444  0.0086  0.3363
22232SOL    HW267913   7.539   7.682   4.081 -1.6706 -0.2103  1.1560
22233SOL     OW67914   8.226   8.659   5.120  0.2926  0.1495 -0.6255
22233SOL    HW167915   8.144   8.608   5.125  1.3589 -1.8132 -1.9338
22233SOL    HW267916   8.200   8.747   5.146 -1.9475 -0.7161  0.4154
22234SOL     OW67917   8.806   8.536   4.582 -0.3461 -0.4997 -0.0054
22234SOL    HW167918   8.716   8.514   4.606 -0.4041  1.4303  1.7752
22234SOL    HW267919   8.802   8.625   4.549  0.8276 -0.6714 -0.7023
22235SOL     OW67920   8.540   7.654   5.093  0.5257  0.5472 -0.1332
22235SOL    HW167921   8.489   7.664   5.173  1.2468  0.3684  0.3593
22235SOL    HW267922   8.494   7.586   5.043  0.2363  0.4522  0.2559
22236SOL     OW67923   8.265   8.581   5.457  0.1613  0.0860  0.1998
22236SOL    HW167924   8.300   8.496   5.485  1.9183  0.1898 -1.4592
22236SOL    HW267925   8.183   8.560   5.413  0.0215 -0.6250  0.7900
22237SOL     OW67926   8.241   8.056   3.567 -0.2563  0.0110  0.4440
22237SOL    HW167927   8.335   8.051   3.547 -0.1727  1.8317  0.2374
22237SOL    HW267928   8.236   8.048   3.662 -0.1599 -2.7733  0.2923
22238SOL     OW67929   7.812   8.010   4.772  0.5270  0.5425 -0.3139
22238SOL    HW167930   7.907   8.010   4.756  0.4547 -1.1404 -0.9429
22238SOL    HW267931   7.775   7.969   4.694 -0.4289 -1.6716  1.2168
22239SOL     OW67932   8.672   7.816   4.441  0.4184  0.5833  0.0835
22239SOL    HW167933   8.743   7.824   4.505  0.5873  0.2665 -0.0652
22239SOL    HW267934   8.714   7.787   4.361 -0.0482 -1.1096  0.3891
22240SOL     OW67935   7.981   8.383   3.357 -0.4787  0.0283  0.0024
22240SOL    HW167936   7.984   8.460   3.414  0.7369 -0.7071  0.9983
22240SOL    HW267937   7.988   8.309   3.418  1.2219 -0.7872 -1.1097
22241SOL     OW67938   8.310   7.623   4.498 -0.3093  0.2256 -0.2113
22241SOL    HW167939   8.272   7.647   4.583  0.7935 -0.1592  0.4021
22241SOL    HW267940   8.358   7.542   4.514  0.5116  0.5280 -1.0370
22242SOL     OW67941   8.580   0.090   4.102  0.1258 -0.1670  0.1710
22242SOL    HW167942   8.660   0.096   4.049  0.1487 -0.9337  0.1000
22242SOL    HW267943   8.590   0.007   4.149 -1.2326 -0.9390 -0.8444
22243SOL     OW67944   7.802   8.092   5.275 -0.0867 -0.2522 -1.1498
22243SOL    HW167945   7.824   8.035   5.201 -2.3451  1.0272 -2.9411
22243SOL    HW267946   7.706   8.099   5.272 -0.0436  1.8815  0.3284
22244SOL     OW67947   8.744   7.514   5.403  0.6688  0.3060  0.3906
22244SOL    HW167948   8.733   7.607   5.381 -0.6954  0.1197  0.1885
22244SOL    HW267949   8.733   7.469   5.319  2.4652 -0.0025  0.2774
22245SOL     OW67950   8.006   7.670   5.383 -0.9812 -0.1823 -0.2003
22245SOL    HW167951   8.010   7.593   5.440  1.3395 -0.4119 -0.5629
22245SOL    HW267952   7.942   7.727   5.423 -2.8183 -2.2874  0.0802
22246SOL     OW67953   7.687   7.893   4.516  0.0982 -0.1584 -0.1237
22246SOL    HW167954   7.622   7.915   4.450 -0.0617 -3.4136 -1.2534
22246SOL    HW267955   7.771   7.903   4.470  0.0284 -1.5260 -0.6152
22247SOL     OW67956   8.449   8.434   4.132 -0.1678  0.1899  0.5893
22247SOL    HW167957   8.447   8.439   4.037 -0.6223 -1.5241  0.4811
22247SOL    HW267958   8.445   8.341   4.152 -2.3978  0.5531  2.3233
22248SOL     OW67959   8.270   8.317   3.757  0.1651  0.0550 -0.1309
22248SOL    HW167960   8.303   8.289   3.672 -2.5213  0.6100 -1.4471
22248SOL    HW267961   8.269   8.236   3.809 -2.2983 -1.3512 -2.1110
22249SOL     OW67962   7.829   7.657   5.129  0.2243 -0.2814 -0.1190
22249SOL    HW167963   7.781   7.576   5.146 -1.1693  0.2650 -1.2548
22249SOL    HW267964   7.869   7.679   5.213 -0.8862 -1.1844  0.6800
22250SOL     OW67965   7.618   8.716   4.715  0.2472 -0.2279 -0.5512
22250SOL    HW167966   7.663   8.728   4.631  0.7202 -0.1111 -0.2916
22250SOL    HW267967   7.669   8.649   4.760  2.0679  2.0070  0.9917
22251SOL     OW67968   8.026   7.876   4.455  1.1821  1.1158 -0.2112
22251SOL    HW167969   8.057   7.946   4.513  1.9006  0.3073  0.4194
22251SOL    HW267970   8.021   7.799   4.512 -0.8449  0.9152 -0.5869
22252SOL     OW67971   7.636   7.575   4.502  0.2112  0.2078  0.4411
22252SOL    HW167972   7.574   7.612   4.564 -1.3892 -0.6096 -0.6170
22252SOL    HW267973   7.629   7.480   4.515  3.1978  0.0957  2.1283
22253SOL     OW67974   0.312   7.783   3.556 -0.0749 -0.5111  0.3069
22253SOL    HW167975   0.354   7.837   3.623 -0.3411 -0.0892  0.1315
22253SOL    HW267976   0.317   7.835   3.476 -2.2973  0.2129  0.5913
22254SOL     OW67977   8.002   8.269   4.560  0.1812  0.3883 -0.4896
22254SOL    HW167978   8.090   8.306   4.548  0.4316  0.4813  1.2722
22254SOL    HW267979   7.943   8.342   4.545  0.5535  0.9456  0.6240
22255SOL     OW67980   7.725   8.351   5.433  0.5184 -0.4993 -0.1489
22255SOL    HW167981   7.811   8.312   5.446  0.5289 -0.7446 -0.9106
22255SOL    HW267982   7.682   8.294   5.370 -1.5508 -2.4394  2.7488
22256SOL     OW67983   8.611   8.671   3.911  0.0358 -0.3580  0.4003
22256SOL    HW167984   8.524   8.698   3.882 -0.1467  0.2203  1.4270
22256SOL    HW267985   8.621   8.582   3.879 -1.0102 -0.4952  0.4203
22257SOL     OW67986   7.643   8.207   4.814 -0.1875  0.4153  0.1622
22257SOL    HW167987   7.572   8.147   4.791  0.7715 -0.4594 -0.5545
22257SOL    HW267988   7.723   8.161   4.791  0.6717  1.1171  1.5606
22258SOL     OW67989   7.885   7.720   4.649  0.2698 -0.1398 -0.4593
22258SOL    HW167990   7.851   7.700   4.736 -0.2936 -1.4049 -0.9485
22258SOL    HW267991   7.809   7.756   4.602  0.3568 -0.2640 -0.6933
22259SOL     OW67992   8.438   7.956   5.027  0.0070  0.4962  0.0462
22259SOL    HW167993   8.472   7.867   5.024  0.0483  0.4727  0.9066
22259SOL    HW267994   8.479   7.995   5.105 -0.4094  1.0983 -0.0226
22260SOL     OW67995   8.684   7.790   5.413 -0.3738 -0.2993 -0.0408
22260SOL    HW167996   8.664   7.863   5.472 -0.8147 -1.5467  1.4248
22260SOL    HW267997   8.763   7.818   5.367 -0.6098  1.1545  0.3835
22261SOL     OW67998   7.556   0.111   3.977  0.6811  0.4484  0.7224
22261SOL    HW167999   7.537   0.045   4.044  0.3586  2.8257  3.1642
22261SOL    HW268000   7.474   0.118   3.928 -0.1450  0.7176  2.0605
22262SOL     OW68001   8.237   8.163   5.302  0.3027  0.0280 -0.8887
22262SOL    HW168002   8.239   8.120   5.216 -1.5542 -0.6643 -0.6378
22262SOL    HW268003   8.312   8.126   5.349 -0.1721 -1.5846 -1.3230
22263SOL     OW68004   7.112   8.106   4.879  0.0260  0.0868 -0.3396
22263SOL    HW168005   7.115   8.192   4.836  0.1129 -0.9853 -2.5902
22263SOL    HW268006   7.064   8.122   4.960 -1.3074  1.9699 -1.4163
22264SOL     OW68007   7.807   7.847   5.442  0.3628  0.2794 -0.3232
22264SOL    HW168008   7.750   7.860   5.519  0.0988  0.1434 -0.4964
22264SOL    HW268009   7.819   7.935   5.407 -2.5882  0.0041 -2.3284
22265SOL     OW68010   8.174   7.601   3.959 -0.5085 -0.3680 -0.1988
22265SOL    HW168011   8.216   7.611   4.045  1.0717 -1.4782 -0.7976
22265SOL    HW268012   8.121   7.679   3.949  0.8256  0.7360  0.9590
22266SOL     OW68013   8.052   7.697   4.977  0.5005  0.6005 -0.0146
22266SOL    HW168014   8.106   7.631   5.020  1.3076  0.7211 -0.7898
22266SOL    HW268015   7.962   7.672   4.995  0.8147  0.4597  1.4263
22267SOL     OW68016   7.356   7.910   3.819 -0.7114 -0.1100  0.0528
22267SOL    HW168017   7.303   7.837   3.851 -0.5520 -0.0827  0.3812
22267SOL    HW268018   7.337   7.914   3.725 -1.5613  0.1160  0.2205
22268SOL     OW68019   7.588   8.362   5.064  0.1872 -0.2074 -0.1064
22268SOL    HW168020   7.594   8.302   4.990  0.0770  0.3796 -0.5996
22268SOL    HW268021   7.560   8.307   5.138  2.5448 -1.2466  0.0816
22269SOL     OW68022   8.831   8.198   4.522  0.0159 -0.0418  0.2578
22269SOL    HW168023   8.896   8.269   4.521  0.7737 -0.7274 -0.2283
22269SOL    HW268024   8.800   8.192   4.432 -0.1045 -0.2736  0.3133
22270SOL     OW68025   8.557   8.379   3.891  0.1799  0.1487  0.0145
22270SOL    HW168026   8.503   8.325   3.834 -0.1019 -0.4826  0.8675
22270SOL    HW268027   8.646   8.368   3.857 -0.0039 -0.0891 -0.3957
22271SOL     OW68028   7.238   8.694   4.620  0.1221 -0.2206 -0.2075
22271SOL    HW168029   7.159   8.731   4.580  0.0618  0.1115  0.2165
22271SOL    HW268030   7.281   8.768   4.662  0.5488 -0.4422 -0.2487
22272SOL     OW68031   8.340   8.582   4.335  0.1350  0.0430  0.1562
22272SOL    HW168032   8.378   8.541   4.257  0.8501  0.3028  0.3648
22272SOL    HW268033   8.254   8.613   4.306 -0.6822 -2.0474  0.1060
22273SOL     OW68034   7.829   8.646   5.132  0.5089 -0.3027  0.0455
22273SOL    HW168035   7.768   8.696   5.079 -0.3129 -0.4067  0.8630
22273SOL    HW268036   7.834   8.560   5.090 -0.9540 -0.7356  0.6990
22274SOL     OW68037   7.613   7.716   4.250  0.0333 -0.9084  0.9562
22274SOL    HW168038   7.600   7.670   4.333 -0.7693  0.0332  1.3648
22274SOL    HW268039   7.589   7.807   4.268 -0.5038 -0.7553 -0.4003
22275SOL     OW68040   8.045   8.427   5.036 -0.3243 -0.5757 -0.8026
22275SOL    HW168041   8.049   8.379   5.119  0.8105  0.0279 -0.4840
22275SOL    HW268042   8.114   8.387   4.983 -0.6556 -0.5642 -1.2473
22276SOL     OW68043   8.300   0.091   4.167 -0.1601  0.0792  0.3162
22276SOL    HW168044   8.290   0.112   4.259  0.1343  1.1358  0.1204
22276SOL    HW268045   8.394   0.101   4.150 -0.0133 -1.3224  0.1792
22277SOL     OW68046   7.461   8.603   5.036 -0.7166 -0.1010 -0.5465
22277SOL    HW168047   7.474   8.625   5.128  0.6089  0.0106 -0.7406
22277SOL    HW268048   7.503   8.518   5.025 -0.6490 -0.0041 -1.0883
22278SOL     OW68049   8.220   8.443   4.547  0.8141  0.0306  0.2215
22278SOL    HW168050   8.267   8.494   4.480  0.6423  2.4586  1.8050
22278SOL    HW268051   8.287   8.387   4.586  0.9223 -1.4198 -1.8825
22279SOL     OW68052   8.709   7.819   4.973 -0.0248 -0.5638  0.2742
22279SOL    HW168053   8.762   7.764   4.916  0.8995 -0.9012  1.4143
22279SOL    HW268054   8.666   7.757   5.033  0.5029 -0.1179  1.1433
22280SOL     OW68055   7.417   8.625   5.372 -0.1766  0.1632  0.2974
22280SOL    HW168056   7.512   8.632   5.375 -0.1465  0.2878 -0.5602
22280SOL    HW268057   7.390   8.616   5.463  0.7220 -0.6906  0.4939
22281SOL     OW68058   8.175   7.566   5.184  0.3940  0.5383  0.2185
22281SOL    HW168059   8.267   7.573   5.208  0.3328  1.2944  0.2652
22281SOL    HW268060   8.128   7.607   5.257  0.1370  1.7776 -0.6133
22282SOL     OW68061   7.265   7.963   3.505  0.4281 -0.2024  0.1031
22282SOL    HW168062   7.209   7.886   3.507  1.5156 -1.0464 -0.7797
22282SOL    HW268063   7.276   7.982   3.411  1.1744  0.2842  0.2788
22283SOL     OW68064   8.371   8.221   4.623 -0.1664 -0.0925 -0.0903
22283SOL    HW168065   8.454   8.228   4.671  0.2852  0.9238 -0.9806
22283SOL    HW268066   8.367   8.130   4.595  0.0037 -0.4839  1.0663
22284SOL     OW68067   7.170   7.741   3.926  0.1140 -0.1294  0.0556
22284SOL    HW168068   7.116   7.662   3.932 -0.7729  0.4144 -0.4872
22284SOL    HW268069   7.154   7.786   4.009 -1.0663  0.5015 -0.4806
22285SOL     OW68070   8.566   0.130   3.609 -0.2111  0.1581  0.6667
22285SOL    HW168071   8.499   0.168   3.553 -0.5478  0.9376  1.5739
22285SOL    HW268072   8.582   0.043   3.572  1.5587  1.5957 -2.2684
22286SOL     OW68073   8.097   8.033   4.636 -0.2947  0.5429  0.1451
22286SOL    HW168074   8.162   8.027   4.705  1.1355 -0.4039 -1.2204
22286SOL    HW268075   8.086   8.127   4.621  1.4277  0.7271 -0.1699
22287SOL     OW68076   8.456   7.664   5.346  0.0054  0.0523 -0.0492
22287SOL    HW168077   8.526   7.700   5.400 -0.3205 -0.3690  0.6740
22287SOL    HW268078   8.389   7.733   5.344  0.7496  0.7837 -1.4128
22288SOL     OW68079   8.567   8.236   4.832 -0.0947  0.5822  0.0953
22288SOL    HW168080   8.577   8.142   4.817  0.3514  0.6334  0.0391
22288SOL    HW268081   8.577   8.247   4.926 -0.1421  0.5706  0.1008
22289SOL     OW68082   8.279   8.045   3.842 -0.2050 -0.1499  0.3091
22289SOL    HW168083   8.207   8.056   3.905  0.5008  0.8527  0.9694
22289SOL    HW268084   8.308   7.955   3.854 -0.8686 -0.3364  0.5590
22290SOL     OW68085   7.929   7.810   3.933  0.8942 -0.0399  0.1186
22290SOL    HW168086   7.885   7.759   3.865  0.7771 -1.1543  1.0032
22290SOL    HW268087   7.884   7.895   3.932 -2.1627 -1.4648  1.7411
22291SOL     OW68088   7.454   8.296   4.012  0.5632 -0.0242 -0.2522
22291SOL    HW168089   7.536   8.292   4.062  0.8858  0.5258 -0.7110
22291SOL    HW268090   7.466   8.231   3.943  0.9197  0.5476 -0.7419
22292SOL     OW68091   7.855   8.116   4.345 -0.0979  0.2911 -0.7764
22292SOL    HW168092   7.918   8.044   4.351 -0.5331 -0.0567 -0.1759
22292SOL    HW268093   7.836   8.138   4.436 -2.1804 -0.8245 -0.8789
22293SOL     OW68094   7.861   8.604   3.836 -0.6583  0.0484  0.5950
22293SOL    HW168095   7.801   8.671   3.805  1.0026  0.4226 -2.1385
22293SOL    HW268096   7.922   8.650   3.895 -1.6524  0.1234  1.5928
22294SOL     OW68097   7.848   8.700   5.593  0.3591  0.2712 -0.1587
22294SOL    HW168098   7.755   8.702   5.618  0.2222 -2.3687 -0.2136
22294SOL    HW268099   7.847   8.671   5.502  1.2479  0.5088 -0.2498
22295SOL     OW68100   7.514   8.620   3.957  0.1195  0.1026  0.1949
22295SOL    HW168101   7.425   8.619   3.992 -0.0954  0.3692 -0.3294
22295SOL    HW268102   7.536   8.528   3.944 -0.9878  0.0514 -1.8865
22296SOL     OW68103   8.031   0.083   5.032 -0.1841 -0.1912  0.2673
22296SOL    HW168104   7.963   0.097   5.098 -1.5639 -1.1934 -0.8646
22296SOL    HW268105   7.999   0.009   4.980  1.2008  0.0941 -1.0725
22297SOL     OW68106   7.625   7.419   4.173 -0.3884  0.0607  0.1987
22297SOL    HW168107   7.697   7.461   4.220  1.3855  0.0349 -2.2683
22297SOL    HW268108   7.638   7.325   4.190  0.7314 -0.0095 -0.8827
22298SOL     OW68109   7.865   7.923   5.069  0.2971 -0.0388 -0.7806
22298SOL    HW168110   7.835   7.948   4.981  0.9886 -1.1996 -1.3732
22298SOL    HW268111   7.829   7.836   5.083  2.4916 -1.0531 -1.1129
22299SOL     OW68112   8.384   7.916   4.426  0.4120  0.4850 -0.1725
22299SOL    HW168113   8.467   7.875   4.449  0.7851  0.0964 -2.0347
22299SOL    HW268114   8.320   7.874   4.484  1.3053 -0.1994  0.3520
22300SOL     OW68115   0.020   7.523   4.697  0.6518  0.3445 -0.2031
22300SOL    HW168116  -0.073   7.516   4.680  0.5397 -0.2955  0.6059
22300SOL    HW268117   0.062   7.516   4.611 -0.0220  0.2769 -0.5259
22301SOL     OW68118   7.634   0.481   3.754 -0.3787  0.5340  0.1011
22301SOL    HW168119   7.618   0.388   3.737  0.7110  0.0880  1.3764
22301SOL    HW268120   7.709   0.503   3.699  0.7907  0.0561  1.4720
22302SOL     OW68121   8.317   7.402   3.632 -0.0921  0.0011 -0.1573
22302SOL    HW168122   8.246   7.347   3.599 -1.3763  1.5163 -0.0298
22302SOL    HW268123   8.289   7.491   3.613  0.0335  0.8650  3.1391
22303SOL     OW68124   6.933   0.319   4.008 -0.1219 -0.3145  0.3265
22303SOL    HW168125   6.911   0.352   3.920  2.2760  1.6373  0.3287
22303SOL    HW268126   6.912   0.226   4.005 -0.6537 -0.1869 -2.1280
22304SOL     OW68127   7.688   7.968   5.670 -0.6048  0.3430 -0.0308
22304SOL    HW168128   7.627   7.945   5.741  2.6084 -1.7485  2.3032
22304SOL    HW268129   7.764   8.005   5.714  0.6489  1.0794 -2.6318
22305SOL     OW68130   7.673   8.061   6.516  0.1568 -0.5469 -0.1555
22305SOL    HW168131   7.624   8.000   6.571  2.3472 -1.4305  0.9323
22305SOL    HW268132   7.751   8.013   6.490  1.4095  1.3903 -0.2087
22306SOL     OW68133   7.475   7.801   6.288 -0.3401  0.1625 -0.6513
22306SOL    HW168134   7.390   7.807   6.332  0.8086 -0.7574  1.8926
22306SOL    HW268135   7.470   7.721   6.237 -1.3589  0.7147 -1.4692
22307SOL     OW68136   7.953   8.799   6.647 -0.5904  0.0096  0.1200
22307SOL    HW168137   8.039   8.816   6.685 -0.3450  0.8026 -0.7394
22307SOL    HW268138   7.894   8.794   6.723  0.0204  0.6740  0.6553
22308SOL     OW68139   0.548   0.338   6.315 -0.1509 -0.5554 -0.9115
22308SOL    HW168140   0.502   0.372   6.391 -1.2310 -0.8469 -1.4158
22308SOL    HW268141   0.482   0.290   6.265 -0.0609  1.4903 -3.1967
22309SOL     OW68142   8.404   8.143   5.999  0.1921 -0.2983  0.3170
22309SOL    HW168143   8.314   8.141   6.029  0.4325 -0.3261  1.0517
22309SOL    HW268144   8.445   8.066   6.039  0.2813 -0.8951 -0.8595
22310SOL     OW68145   8.520   8.779   6.399 -0.4412  0.0295 -0.2934
22310SOL    HW168146   8.542   8.843   6.465 -0.4087  0.1472 -0.4174
22310SOL    HW268147   8.424   8.774   6.401 -0.4090 -0.5733  0.3327
22311SOL     OW68148   7.978   8.577   7.296  0.1290 -0.0264 -0.4749
22311SOL    HW168149   7.993   8.505   7.356 -0.6106 -0.2934 -0.5973
22311SOL    HW268150   8.027   8.651   7.334 -0.0678 -0.2756  0.2772
22312SOL     OW68151   8.239   8.305   5.805  0.4667 -0.2405  0.4770
22312SOL    HW168152   8.270   8.226   5.849  2.3215  1.2431  1.9792
22312SOL    HW268153   8.190   8.352   5.873 -1.1845 -0.3425 -0.5813
22313SOL     OW68154   8.428   0.038   7.118 -0.5966 -0.5144  0.1953
22313SOL    HW168155   8.459   0.066   7.032 -1.7118 -2.0023 -0.7448
22313SOL    HW268156   8.498  -0.017   7.152  0.4194  1.1402  0.8542
22314SOL     OW68157   7.713   0.045   6.150  0.7241  0.3334  0.3074
22314SOL    HW168158   7.721  -0.014   6.225 -1.8783  1.1861  1.3649
22314SOL    HW268159   7.794   0.095   6.151  1.6872 -1.1357  1.2042
22315SOL     OW68160   8.033   8.191   6.637 -0.1799 -0.1757  0.3964
22315SOL    HW168161   8.005   8.273   6.596  0.5959  1.6939  3.2993
22315SOL    HW268162   7.964   8.170   6.699 -0.2002 -1.5779 -0.0625
22316SOL     OW68163   8.781   8.511   6.805 -0.2618 -0.6777 -0.8614
22316SOL    HW168164   8.692   8.478   6.793 -1.0748  1.9165 -2.6135
22316SOL    HW268165   8.819   8.510   6.717  0.4807  0.7281 -0.5818
22317SOL     OW68166   8.015   8.849   6.355  0.0748  0.1190 -0.6716
22317SOL    HW168167   7.965   8.782   6.308  0.4178  0.6817 -1.8814
22317SOL    HW268168   7.988   8.840   6.446  0.3872 -1.9232 -0.7319
22318SOL     OW68169   7.986   8.272   5.672 -0.2468  0.6463 -0.4367
22318SOL    HW168170   8.014   8.238   5.587 -0.6342  0.5277 -0.5164
22318SOL    HW268171   8.068   8.298   5.715 -0.1112  1.5589 -1.1982
22319SOL     OW68172   8.364   7.942   6.564  0.3383 -0.0199  0.5600
22319SOL    HW168173   8.435   7.909   6.509 -0.9934 -0.9034 -0.6932
22319SOL    HW268174   8.339   7.868   6.618 -0.5359 -0.1543 -0.0026
22320SOL     OW68175   0.353   8.340   6.170 -0.0495 -0.1744  0.3914
22320SOL    HW168176   0.378   8.255   6.135 -1.3022 -1.0377  1.5234
22320SOL    HW268177   0.431   8.371   6.215 -0.5112 -2.3050  2.8829
22321SOL     OW68178   7.593   8.373   6.847  0.7870  0.3134  0.1966
22321SOL    HW168179   7.570   8.362   6.939  2.5116  2.7753  1.0117
22321SOL    HW268180   7.511   8.357   6.800 -0.9985  2.1828  2.4039
22322SOL     OW68181   8.334   0.216   6.314 -0.5489 -0.1354  0.7348
22322SOL    HW168182   8.384   0.170   6.246  0.5934  2.2916 -0.1684
22322SOL    HW268183   8.250   0.169   6.318 -0.2616 -0.9640 -1.6259
22323SOL     OW68184   8.792   8.208   7.168 -0.4624 -0.2663 -0.5189
22323SOL    HW168185   8.785   8.114   7.152 -3.4440  0.1236 -2.2744
22323SOL    HW268186   8.753   8.249   7.091 -0.5764  2.3627  0.8156
22324SOL     OW68187   8.715   7.563   5.972 -0.1704 -0.0418  0.0123
22324SOL    HW168188   8.628   7.545   6.009  0.1439 -1.4069  0.1311
22324SOL    HW268189   8.761   7.610   6.042 -0.2903 -0.7204  0.5545
22325SOL     OW68190   7.697   8.588   6.418 -0.9247  0.5703 -0.4046
22325SOL    HW168191   7.691   8.584   6.322 -2.2708  0.8623 -0.3443
22325SOL    HW268192   7.714   8.498   6.444  1.1647  0.7352 -0.9934
22326SOL     OW68193   8.013   8.123   7.335 -0.5522 -0.1906  0.0760
22326SOL    HW168194   7.956   8.073   7.394 -1.6056  0.7183 -0.1497
22326SOL    HW268195   7.956   8.148   7.262  0.4036 -0.1451 -0.6836
22327SOL     OW68196   7.981   8.084   6.068 -0.2771 -0.2640 -0.1154
22327SOL    HW168197   8.051   8.081   6.134 -0.7369  0.3357  0.4142
22327SOL    HW268198   7.927   8.158   6.094 -0.9063 -0.4971 -0.7329
22328SOL     OW68199   0.272   7.885   6.410  0.0719  0.2565 -0.1782
22328SOL    HW168200   0.198   7.940   6.387  0.0974  0.3591 -0.0191
22328SOL    HW268201   0.338   7.904   6.343 -0.0969  0.0603 -0.4000
22329SOL     OW68202   8.305   8.412   6.853  0.1925 -0.5235  0.2375
22329SOL    HW168203   8.267   8.326   6.834 -0.3048 -0.4385  0.8093
22329SOL    HW268204   8.235   8.459   6.900  0.3767  0.2699 -0.2540
22330SOL     OW68205   0.099   8.171   7.563  0.3619  0.0400 -0.6082
22330SOL    HW168206   0.070   8.228   7.634 -0.5661 -1.2579  0.1100
22330SOL    HW268207   0.136   8.095   7.607  0.9997 -0.1971 -1.5322
22331SOL     OW68208   8.495   8.565   6.987  0.0195 -0.1576  0.0231
22331SOL    HW168209   8.443   8.495   6.948 -1.3758  1.2378 -0.7379
22331SOL    HW268210   8.487   8.638   6.926  2.2415  0.3842  0.3086
22332SOL     OW68211   8.467   7.993   6.888  0.0116  0.6395 -0.2710
22332SOL    HW168212   8.382   8.037   6.887 -1.4745 -2.0774 -1.0766
22332SOL    HW268213   8.516   8.041   6.955 -1.6112  3.1390 -0.6924
22333SOL     OW68214   8.532   8.404   5.912  0.1345 -0.3223 -0.2653
22333SOL    HW168215   8.516   8.334   5.848  1.0427 -0.2699 -0.5547
22333SOL    HW268216   8.507   8.365   5.996  2.0901 -1.5727 -0.1978
22334SOL     OW68217   7.382   8.093   6.385 -0.0944 -0.6560  0.3562
22334SOL    HW168218   7.408   8.178   6.422  1.1338 -0.0978 -1.6592
22334SOL    HW268219   7.445   8.031   6.421  0.1998 -0.3677  0.3456
22335SOL     OW68220   8.035   7.804   5.818  0.0983 -0.6525 -0.1517
22335SOL    HW168221   8.008   7.888   5.781 -0.9469 -1.0881 -0.4100
22335SOL    HW268222   8.124   7.791   5.786  0.9832  1.1949  1.3659
22336SOL     OW68223   0.186   8.694   5.846 -0.6059  0.2391  0.0477
22336SOL    HW168224   0.199   8.668   5.755  0.4811  0.4261  0.1312
22336SOL    HW268225   0.254   8.759   5.863 -0.0888 -0.5568  1.2813
22337SOL     OW68226   7.778   7.423   6.577 -0.8491 -0.1355  0.2897
22337SOL    HW168227   7.746   7.337   6.548  0.0685 -0.1116 -0.9124
22337SOL    HW268228   7.874   7.414   6.574 -0.7050  1.3893 -1.4368
22338SOL     OW68229   7.895   8.503   5.774  0.2456  0.1773  0.3810
22338SOL    HW168230   7.900   8.570   5.706  0.6473  1.7962  1.9253
22338SOL    HW268231   7.900   8.420   5.727 -1.9168  1.1480 -1.7617
22339SOL     OW68232   8.049   8.380   7.493 -0.2216 -0.1110 -0.0737
22339SOL    HW168233   7.997   8.301   7.504 -1.1548  0.3885 -0.7701
22339SOL    HW268234   8.138   8.354   7.518 -1.0505 -0.5651  2.8122
22340SOL     OW68235   7.822   8.163   6.784  0.5270  0.6992 -0.5701
22340SOL    HW168236   7.754   8.115   6.737  1.1614  1.1272 -1.9496
22340SOL    HW268237   7.775   8.202   6.859 -0.4633 -0.1055 -0.7459
22341SOL     OW68238   8.204   8.072   6.237  0.0247  0.0862  0.2123
22341SOL    HW168239   8.161   8.037   6.315 -0.0835  3.2485  1.7004
22341SOL    HW268240   8.276   8.125   6.270  1.7536 -0.7218 -2.0226
22342SOL     OW68241   8.061   7.498   5.602  0.1931  0.0280  0.5320
22342SOL    HW168242   8.154   7.481   5.583  0.6842  0.7293  2.1149
22342SOL    HW268243   8.051   7.473   5.694 -1.3427 -0.5487  0.2424
22343SOL     OW68244   8.513   7.716   6.914  0.1804 -0.1015  0.2245
22343SOL    HW168245   8.491   7.809   6.927  0.3595 -0.2334  1.6196
22343SOL    HW268246   8.499   7.676   6.999 -0.2590 -1.4579 -0.4561
22344SOL     OW68247   0.654   8.537   7.217 -0.8326 -0.2057 -0.1917
22344SOL    HW168248   0.730   8.479   7.220  0.1737  1.0236 -0.6957
22344SOL    HW268249   0.579   8.479   7.230  0.1948 -1.4216  0.6011
22345SOL     OW68250   8.400   7.682   6.426  0.4351  0.3833 -0.1341
22345SOL    HW168251   8.307   7.679   6.401 -0.1007  1.0066  1.6546
22345SOL    HW268252   8.407   7.622   6.500  1.4930  0.2769 -0.3077
22346SOL     OW68253   8.161   7.614   6.295  0.0620 -0.7037 -0.4474
22346SOL    HW168254   8.130   7.694   6.252  0.9794 -0.0341  0.1078
22346SOL    HW268255   8.087   7.554   6.288 -0.7615  0.2923 -0.6088
22347SOL     OW68256   0.082   8.692   5.274  0.2237  0.0824 -0.4147
22347SOL    HW168257   0.105   8.724   5.187  1.5598 -1.7017 -0.7787
22347SOL    HW268258  -0.014   8.687   5.274  0.2101  0.0454 -1.8249
22348SOL     OW68259   7.699   7.468   6.112 -0.5382 -0.2295  0.4382
22348SOL    HW168260   7.701   7.522   6.033 -0.9754 -1.3786 -0.3703
22348SOL    HW268261   7.624   7.501   6.162  1.0670  2.0540  1.5523
22349SOL     OW68262   8.479   7.598   6.180  0.4494 -0.2413  0.0793
22349SOL    HW168263   8.464   7.627   6.271 -0.5985 -0.5227  0.0088
22349SOL    HW268264   8.450   7.672   6.127  1.2831  0.0115 -0.0222
22350SOL     OW68265   8.547   8.412   6.715  0.0086 -0.3446  0.3072
22350SOL    HW168266   8.457   8.424   6.745 -0.5493 -2.3831 -0.3705
22350SOL    HW268267   8.543   8.334   6.660  1.8634  0.5924 -1.2556
22351SOL     OW68268   8.739   0.085   6.136 -0.1090  0.3348 -0.0231
22351SOL    HW168269   8.780   0.035   6.065  1.5418  0.0269  1.0888
22351SOL    HW268270   8.646   0.067   6.127  0.3453 -2.3703 -0.1099
22352SOL     OW68271   8.079   0.020   5.855 -0.3187  0.3381  0.4507
22352SOL    HW168272   8.126   0.101   5.872  2.1543 -1.0356  0.5267
22352SOL    HW268273   8.070   0.017   5.760  1.9334 -0.4696  0.2094
22353SOL     OW68274   8.290   7.976   5.569 -0.4059  0.0958  0.2091
22353SOL    HW168275   8.266   7.925   5.491 -0.4965  1.2326 -0.5232
22353SOL    HW268276   8.301   7.910   5.638 -0.8447 -0.8832 -0.6309
22354SOL     OW68277   7.716   8.326   6.394  0.1594  0.1653 -0.0144
22354SOL    HW168278   7.738   8.252   6.451  1.8991 -2.1691 -3.3250
22354SOL    HW268279   7.621   8.328   6.393  0.0740 -1.4544  0.9398
22355SOL     OW68280   8.238   8.131   6.818 -0.1964 -0.1401  0.3296
22355SOL    HW168281   8.170   8.148   6.752  0.4450  1.2295 -0.0128
22355SOL    HW268282   8.190   8.098   6.894 -0.8115 -3.4968 -1.3277
22356SOL     OW68283   8.601   7.992   6.112 -0.6546 -0.0633 -0.4036
22356SOL    HW168284   8.689   7.959   6.096  0.4806  1.6339  1.6966
22356SOL    HW268285   8.614   8.081   6.146 -3.1987  0.4020 -0.3923
22357SOL     OW68286   8.052   7.393   6.488  0.4609  0.4515 -0.1152
22357SOL    HW168287   8.134   7.351   6.460 -0.2856 -1.9588  1.0306
22357SOL    HW268288   8.005   7.409   6.406  0.3460 -2.0723 -0.6338
22358SOL     OW68289   0.033   8.340   5.528  0.1887  0.3040  0.5853
22358SOL    HW168290   0.098   8.273   5.550 -1.0907 -1.0472  0.3470
22358SOL    HW268291  -0.041   8.292   5.493 -0.7473  1.8647  0.3169
22359SOL     OW68292   7.741   7.670   6.616  0.4009 -0.6035  0.2580
22359SOL    HW168293   7.725   7.664   6.710 -1.6697  0.0582 -0.0079
22359SOL    HW268294   7.741   7.580   6.586 -0.5699 -0.7527  0.6694
22360SOL     OW68295   0.093   8.786   6.835 -0.0988 -0.3566 -0.2305
22360SOL    HW168296   0.094   8.808   6.928 -0.8728 -1.3990  0.0318
22360SOL    HW268297   0.102   8.691   6.833  2.0316 -0.1941 -1.3042
22361SOL     OW68298   8.468   0.093   6.106  0.6622 -0.3277  0.1874
22361SOL    HW168299   8.459   0.001   6.084 -0.0434  0.0784 -1.3818
22361SOL    HW268300   8.481   0.137   6.021 -1.7562  1.3043  0.5504
22362SOL     OW68301   8.660   7.577   6.705 -0.1519 -0.3465 -0.1888
22362SOL    HW168302   8.665   7.658   6.654  1.7578  0.7387  1.5698
22362SOL    HW268303   8.607   7.600   6.781  0.9541 -0.4998  0.6569
22363SOL     OW68304   8.282   8.477   7.238  0.1379  0.2127 -0.2249
22363SOL    HW168305   8.252   8.543   7.174 -0.6451 -0.2114 -0.3123
22363SOL    HW268306   8.305   8.528   7.316 -1.5080  0.5163  0.0952
22364SOL     OW68307   8.378   8.709   5.683  0.0158  0.1304 -0.3742
22364SOL    HW168308   8.309   8.674   5.626  0.0995 -1.0221  0.2150
22364SOL    HW268309   8.454   8.654   5.665  0.5336  0.8320 -0.3659
22365SOL     OW68310   7.638   8.546   6.160  0.4391  0.3599 -0.4010
22365SOL    HW168311   7.570   8.602   6.123 -0.2528  0.6396  1.1696
22365SOL    HW268312   7.605   8.456   6.148  0.3495  0.4344 -0.6996
22366SOL     OW68313   8.665   8.244   6.924 -0.1858 -0.6684 -0.2710
22366SOL    HW168314   8.636   8.317   6.869  0.6232 -0.0668  0.0729
22366SOL    HW268315   8.596   8.235   6.991  0.2937  0.6236  0.4324
22367SOL     OW68316   8.062   8.621   5.968  0.4281  0.7007  0.3462
22367SOL    HW168317   7.986   8.594   5.916  1.1374 -0.7198  0.0088
22367SOL    HW268318   8.090   8.703   5.928  0.3820  0.1182 -0.9209
22368SOL     OW68319   8.106   7.983   6.495  0.2358 -0.2837  0.2397
22368SOL    HW168320   8.073   8.066   6.530  0.8610 -0.5149  1.4475
22368SOL    HW268321   8.192   7.972   6.536 -0.9968 -2.9077  2.4660
22369SOL     OW68322   0.288   0.236   6.488 -0.1951  0.5466 -0.0227
22369SOL    HW168323   0.338   0.161   6.520 -0.4153  0.8130  0.9800
22369SOL    HW268324   0.215   0.198   6.439 -0.5418  0.0813  0.8341
22370SOL     OW68325   7.790   8.546   6.803  0.0546  0.4608  0.3542
22370SOL    HW168326   7.712   8.493   6.817 -0.9601  2.0017  0.7432
22370SOL    HW268327   7.791   8.607   6.876  0.3396  1.9554 -0.8476
22371SOL     OW68328   8.384   7.660   7.628 -0.3742 -0.2601  0.0782
22371SOL    HW168329   8.353   7.570   7.632  0.2944 -0.4793  0.5172
22371SOL    HW268330   8.315   7.711   7.671 -1.1090 -0.4506 -0.8359
22372SOL     OW68331   8.089   8.089   7.041  0.6526  0.0580 -0.1122
22372SOL    HW168332   7.996   8.110   7.049  0.7746  0.3916  0.5533
22372SOL    HW268333   8.125   8.107   7.128  1.4779  0.6451 -0.5508
22373SOL     OW68334   7.947   8.489   6.557  0.4785  0.3120  0.2434
22373SOL    HW168335   7.883   8.492   6.627 -2.1361 -0.1937 -1.9475
22373SOL    HW268336   7.935   8.572   6.509  2.1815  0.6455  0.3138
22374SOL     OW68337   0.109   8.659   6.294  0.4701 -0.3062 -0.1721
22374SOL    HW168338   0.121   8.628   6.204 -2.3964  0.0796 -0.8082
22374SOL    HW268339   0.026   8.619   6.322  1.5874 -0.8910  2.5608
22375SOL     OW68340   8.646   8.090   5.789 -0.2074  0.0667 -0.1296
22375SOL    HW168341   8.560   8.090   5.830 -0.8124 -2.2523 -1.1898
22375SOL    HW268342   8.697   8.028   5.841  1.6044  2.9160  1.7580
22376SOL     OW68343   7.872   7.774   6.998 -0.3359  0.2077  0.1604
22376SOL    HW168344   7.782   7.802   6.987 -0.7110  0.1871  2.5717
22376SOL    HW268345   7.866   7.692   7.047  0.9656 -0.2549 -0.4051
22377SOL     OW68346   7.448   8.357   6.434  0.2478 -0.0493 -0.4629
22377SOL    HW168347   7.393   8.375   6.358 -0.8467 -0.1911  0.2713
22377SOL    HW268348   7.445   8.438   6.486  1.5574  0.2996 -0.8855
22378SOL     OW68349   8.370   8.274   6.337  0.0661 -0.6785  0.5894
22378SOL    HW168350   8.391   8.336   6.267 -0.0918 -1.9985 -0.6680
22378SOL    HW268351   8.296   8.315   6.383 -0.4551 -0.2224 -0.6168
22379SOL     OW68352   7.592   7.212   6.144  0.0135  0.3054 -0.2621
22379SOL    HW168353   7.575   7.202   6.237  2.5517 -0.7503  0.1636
22379SOL    HW268354   7.645   7.292   6.137  1.9176 -0.9023 -0.4208
22380SOL     OW68355   8.837   7.960   5.942 -0.0485  0.1136  0.2182
22380SOL    HW168356   8.860   7.887   6.000 -0.2110  0.2253  0.4245
22380SOL    HW268357   8.905   8.025   5.959  2.2726 -1.3345 -2.5581
22381SOL     OW68358   8.687   8.555   6.349  0.0056 -0.4781 -0.3032
22381SOL    HW168359   8.621   8.620   6.374  0.5079  0.8005 -2.0972
22381SOL    HW268360   8.659   8.523   6.264  0.6716 -1.3841 -0.1992
22382SOL     OW68361   7.771   8.424   7.207  0.0599  0.0026 -0.3025
22382SOL    HW168362   7.743   8.497   7.151 -0.4427  0.7406  0.8777
22382SOL    HW268363   7.825   8.465   7.274 -1.1858 -0.5239  1.0649
22383SOL     OW68364   0.055   8.772   5.008  0.1590  0.2738 -0.1116
22383SOL    HW168365   0.034   8.726   4.926 -0.7735  1.1116 -0.3704
22383SOL    HW268366   0.135   8.820   4.989  0.2419  0.0423 -0.3598
22384SOL     OW68367   7.923   8.052   5.804 -0.2450  0.4269 -0.3192
22384SOL    HW168368   7.929   8.143   5.776 -1.0170  0.1990 -1.3019
22384SOL    HW268369   7.944   8.053   5.897 -1.8524  1.8419  0.0728
22385SOL     OW68370   7.532   7.844   6.637 -0.0083  0.0852  0.6205
22385SOL    HW168371   7.440   7.819   6.637 -0.2728  0.9421 -0.5646
22385SOL    HW268372   7.577   7.769   6.600 -0.1201 -0.6241  1.8791
22386SOL     OW68373   8.750   7.932   7.165 -0.4747 -0.4934  0.4293
22386SOL    HW168374   8.726   7.870   7.096 -0.4264  0.5024 -0.5105
22386SOL    HW268375   8.788   7.878   7.234  0.5957 -1.4048 -0.8322
22387SOL     OW68376   8.811   7.771   6.978 -0.2578  0.2705 -0.2207
22387SOL    HW168377   8.777   7.692   7.021  0.3053  0.7168  1.0902
22387SOL    HW268378   8.862   7.738   6.904 -2.6421 -0.4595 -1.6691
22388SOL     OW68379   7.395   8.568   5.661  0.0654  0.1105 -0.4434
22388SOL    HW168380   7.324   8.627   5.686  0.1258  0.6299 -1.4319
22388SOL    HW268381   7.471   8.600   5.709 -0.5459 -1.0562  1.4054
22389SOL     OW68382   8.206   8.418   6.510 -0.3012  0.2619  0.5206
22389SOL    HW168383   8.261   8.427   6.589  0.0337 -0.1144  0.3376
22389SOL    HW268384   8.123   8.457   6.534 -0.6531 -1.0301  1.5260
22390SOL     OW68385   7.861   7.877   6.465  0.3178 -0.0425  0.4816
22390SOL    HW168386   7.861   7.800   6.521 -1.0877  1.1227  2.1986
22390SOL    HW268387   7.952   7.905   6.462  0.4703 -0.3133  1.9463
22391SOL     OW68388   7.736   7.932   7.285 -0.4307  0.3215  0.0036
22391SOL    HW168389   7.697   7.860   7.236  0.2662  0.8071 -1.3045
22391SOL    HW268390   7.664   7.993   7.300 -0.4143  0.7570 -1.5496
22392SOL     OW68391   8.701   7.809   6.408  0.4508  0.2644 -0.0906
22392SOL    HW168392   8.685   7.829   6.500  0.6877  1.4854 -0.2883
22392SOL    HW268393   8.620   7.767   6.378 -0.1561  1.0735  0.3559
22393SOL     OW68394   8.478   8.193   6.583  0.2615  0.6843 -0.1250
22393SOL    HW168395   8.428   8.121   6.621  0.0876  1.5273  1.3019
22393SOL    HW268396   8.443   8.201   6.494  0.0200 -0.7290 -0.1777
22394SOL     OW68397   8.055   7.820   6.098  0.1205  0.3970  0.1573
22394SOL    HW168398   8.029   7.911   6.085  2.7872  0.9701 -2.2143
22394SOL    HW268399   8.072   7.787   6.010  3.0170 -1.1010  1.1354
22395SOL     OW68400   7.596   8.788   6.597  0.3315 -0.8215  0.3812
22395SOL    HW168401   7.642   8.868   6.569  0.0236 -0.6735  0.2974
22395SOL    HW268402   7.631   8.720   6.540 -0.6352 -0.4398 -0.7033
22396SOL     OW68403   0.036   8.486   6.544  0.2324  0.6155  0.1355
22396SOL    HW168404   0.088   8.417   6.502 -0.9042  0.6957 -1.5161
22396SOL    HW268405  -0.050   8.479   6.502 -0.4211  1.9121  1.1988
22397SOL     OW68406   0.146   8.261   5.822 -0.8610 -0.3187  0.0955
22397SOL    HW168407   0.141   8.221   5.909 -0.8063 -1.1625 -0.2850
22397SOL    HW268408   0.057   8.291   5.805 -0.4723  1.7153  1.2912
22398SOL     OW68409   7.918   8.643   6.214 -0.2624  0.2765 -0.1025
22398SOL    HW168410   7.973   8.633   6.136  1.1644 -0.1854  0.9007
22398SOL    HW268411   7.836   8.599   6.192 -0.4593  1.4317 -1.8429
22399SOL     OW68412   8.793   8.352   5.985  0.4653 -0.1661 -0.2000
22399SOL    HW168413   8.844   8.433   5.986 -0.5367  0.4771 -0.0257
22399SOL    HW268414   8.713   8.374   5.938  0.3002 -1.1414 -0.4073
22400SOL     OW68415   8.188   8.806   6.843 -0.2582 -0.1076  0.6128
22400SOL    HW168416   8.274   8.803   6.801 -0.1984  0.2640  0.7070
22400SOL    HW268417   8.192   8.739   6.912 -0.5631 -1.1618 -0.3495
22401SOL     OW68418   7.450   7.561   6.168  0.1065  0.9912 -0.6158
22401SOL    HW168419   7.402   7.568   6.085 -1.0843  0.5523  0.0025
22401SOL    HW268420   7.381   7.550   6.234  1.0465  1.0339  0.3980
22402SOL     OW68421   7.850   8.662   7.052 -0.2882  0.2158 -0.0679
22402SOL    HW168422   7.912   8.660   7.124  0.1234  0.1221 -0.4192
22402SOL    HW268423   7.858   8.750   7.015  0.9982 -0.3644 -1.2680
22403SOL     OW68424   8.680   8.661   5.723  0.2429  0.0056  0.1856
22403SOL    HW168425   8.754   8.618   5.681  1.2296  1.7000  0.0836
22403SOL    HW268426   8.669   8.743   5.675 -1.6375 -0.1243  0.2968
22404SOL     OW68427   7.777   0.185   6.588  0.2164 -0.0760  0.0662
22404SOL    HW168428   7.724   0.254   6.548  1.5809  0.5141 -0.7886
22404SOL    HW268429   7.861   0.226   6.607  0.9684 -1.4168 -0.1956
22405SOL     OW68430   8.433   8.512   6.199  0.6297 -0.5519  0.4507
22405SOL    HW168431   8.387   8.580   6.249  2.3896  0.4651  0.7553
22405SOL    HW268432   8.446   8.551   6.113 -1.0056 -1.7120 -0.3929
22406SOL     OW68433   8.330   7.717   6.717 -0.2430  0.4174 -0.1230
22406SOL    HW168434   8.245   7.726   6.760 -0.1151  0.3975  0.1309
22406SOL    HW268435   8.394   7.740   6.784 -0.0123 -0.1969 -0.1238
22407SOL     OW68436   7.341   8.313   6.730 -0.4967 -0.3386 -0.0794
22407SOL    HW168437   7.384   8.293   6.647  0.8904 -1.3447  0.8261
22407SOL    HW268438   7.291   8.393   6.714  1.0663  0.4127 -1.4292
22408SOL     OW68439   8.469   8.175   7.111 -0.1268  0.0460 -0.3099
22408SOL    HW168440   8.382   8.193   7.147 -0.7591 -1.3029 -1.0797
22408SOL    HW268441   8.513   8.124   7.180  0.1662  0.9261  0.1755
22409SOL     OW68442   7.433   7.693   5.633  0.0495  0.0423  0.2387
22409SOL    HW168443   7.499   7.675   5.566 -0.3680 -0.8859  0.0586
22409SOL    HW268444   7.350   7.670   5.591 -0.5662  2.4050  0.0078
22410SOL     OW68445   8.471   8.793   6.799  0.3807 -0.6833 -0.1966
22410SOL    HW168446   8.546   8.756   6.753 -0.2992 -0.2372 -1.7353
22410SOL    HW268447   8.490   8.887   6.803 -0.3026 -0.4984 -1.0368
22411SOL     OW68448   7.615   7.668   5.362 -0.4277 -0.0700 -0.6707
22411SOL    HW168449   7.684   7.734   5.368 -1.4857  0.9864  0.4640
22411SOL    HW268450   7.643   7.599   5.423 -0.8452  0.8491  0.6147
22412SOL     OW68451   8.611   8.362   5.092  0.0842 -0.1018  0.3453
22412SOL    HW168452   8.603   8.457   5.081  0.4457 -0.0009  0.9213
22412SOL    HW268453   8.586   8.346   5.183 -0.6693 -0.6524  0.0563
22413SOL     OW68454   8.094   8.509   6.971 -0.3298 -0.1446 -0.1865
22413SOL    HW168455   8.073   8.457   7.049 -0.5537  0.4623  0.1702
22413SOL    HW268456   8.009   8.524   6.929  0.0159 -2.5034 -1.9021
22414SOL     OW68457   8.263   8.203   7.264  0.1468  0.4827 -0.2441
22414SOL    HW168458   8.271   8.297   7.279  2.3122  0.3987 -0.4465
22414SOL    HW268459   8.180   8.179   7.305 -0.4943  2.4690 -0.2514
22415SOL     OW68460   0.253   8.493   6.742 -0.0525 -0.1010  0.7398
22415SOL    HW168461   0.210   8.428   6.798 -0.1688 -1.5777 -1.0068
22415SOL    HW268462   0.193   8.505   6.668  1.2908 -0.1598 -0.3945
22416SOL     OW68463   8.325   7.807   5.784  0.4559 -0.4063  0.1854
22416SOL    HW168464   8.338   7.805   5.879  1.9656  1.6738  0.0764
22416SOL    HW268465   8.398   7.757   5.749 -0.7622 -2.2361  0.0868
22417SOL     OW68466   8.149   8.385   6.060 -0.4724  0.0816  0.2480
22417SOL    HW168467   8.089   8.362   6.131  1.5760  1.8560  2.7564
22417SOL    HW268468   8.137   8.479   6.048  0.3930  0.1020 -0.5917
22418SOL     OW68469   8.795   8.817   5.907 -0.0525  0.5822 -0.0593
22418SOL    HW168470   8.868   8.755   5.903  0.2704  0.9296  0.2391
22418SOL    HW268471   8.731   8.785   5.844  0.6534  0.6463 -0.8240
22419SOL     OW68472   8.252   8.688   6.415  0.2677  0.2744 -0.3062
22419SOL    HW168473   8.238   8.594   6.406 -1.4065  0.4296  0.3415
22419SOL    HW268474   8.171   8.728   6.383  0.6564  1.4738  0.1304
22420SOL     OW68475   8.587   8.314   5.367  0.5020 -0.8565 -0.1505
22420SOL    HW168476   8.511   8.346   5.416  1.3823 -0.3595  0.9643
22420SOL    HW268477   8.607   8.229   5.406  0.5242 -0.9718 -0.4156
22421SOL     OW68478   7.961   0.075   7.247  0.4948 -0.1164 -0.0594
22421SOL    HW168479   7.938   0.098   7.337 -1.1795  1.5166 -0.8251
22421SOL    HW268480   8.031   0.136   7.223 -0.5129  0.9114 -0.4933
22422SOL     OW68481   7.705   0.348   5.995 -0.4386  0.2171 -0.1124
22422SOL    HW168482   7.647   0.320   5.925 -0.0719 -1.2304  0.1430
22422SOL    HW268483   7.655   0.333   6.076 -0.9432  2.0694 -0.0178
22423SOL     OW68484   7.938   8.845   7.876  0.2985 -0.0407  0.1212
22423SOL    HW168485   7.859   8.826   7.927  0.2988 -0.7949 -0.1440
22423SOL    HW268486   7.905   8.873   7.791  0.3114 -0.2039  0.0617
22424SOL     OW68487   7.741   7.922   6.243 -0.0717  0.0589  0.1336
22424SOL    HW168488   7.802   7.902   6.314  0.9564 -1.0129 -1.0020
22424SOL    HW268489   7.655   7.919   6.283  0.5708  1.5292  1.7655
22425SOL     OW68490   7.966   8.325   6.265  0.0229  0.3524  0.0891
22425SOL    HW168491   8.011   8.389   6.321 -1.3859  0.8910  0.6413
22425SOL    HW268492   7.882   8.311   6.307  0.1189 -1.5493 -0.2884
22426SOL     OW68493   8.726   8.177   6.515  0.7535  0.2604 -0.5329
22426SOL    HW168494   8.765   8.144   6.596  1.3421  0.3399 -0.7782
22426SOL    HW268495   8.633   8.189   6.536  1.2428  2.2621  0.7779
22427SOL     OW68496   8.652   7.879   6.689  0.5462  0.2979  0.1545
22427SOL    HW168497   8.569   7.898   6.732 -0.0959  0.6513 -1.2174
22427SOL    HW268498   8.710   7.950   6.718  0.0128  0.7446  0.1502
22428SOL     OW68499   8.442   8.684   5.952 -0.1098  0.6141 -0.3743
22428SOL    HW168500   8.402   8.737   5.883  0.0591  1.1100 -0.1019
22428SOL    HW268501   8.472   8.605   5.907 -1.8383 -0.0008 -0.4822
22429SOL     OW68502   8.578   7.695   5.709  0.3999  0.1938  0.3843
22429SOL    HW168503   8.606   7.656   5.792 -0.1883 -0.1019  0.4498
22429SOL    HW268504   8.551   7.620   5.655  0.3062  0.4275  0.1047
22430SOL     OW68505   7.548   8.346   5.774 -0.0439 -0.4830  0.5498
22430SOL    HW168506   7.484   8.409   5.739  0.2231 -1.1816 -1.3307
22430SOL    HW268507   7.633   8.388   5.762 -0.0107 -0.3043  1.3587
22431SOL     OW68508   8.257   8.290   7.707  0.1047  0.7803  0.0429
22431SOL    HW168509   8.243   8.196   7.716 -2.8550  1.0427 -0.7095
22431SOL    HW268510   8.232   8.327   7.791 -1.3926  1.0559 -0.4884
22432SOL     OW68511   7.665   7.764   8.092 -1.0788 -0.3969  0.1931
22432SOL    HW168512   7.674   7.854   8.124 -2.1497 -0.1539 -0.1455
22432SOL    HW268513   7.707   7.710   8.159  1.7530  0.4857 -0.7285
22433SOL     OW68514   7.554   8.052   7.916  0.7405 -0.1674 -0.6280
22433SOL    HW168515   7.643   8.084   7.902  0.4557  0.0501 -2.1159
22433SOL    HW268516   7.539   7.991   7.844 -0.8770  1.0871 -1.4319
22434SOL     OW68517   8.011   0.359   8.817 -0.0283  0.6188  0.0814
22434SOL    HW168518   7.996   0.453   8.807  1.3306  0.6120 -2.6424
22434SOL    HW268519   7.926   0.320   8.797 -0.9895  1.2238  2.5732
22435SOL     OW68520   8.838   8.846   8.167  0.4856 -0.6195 -0.6874
22435SOL    HW168521   8.798   8.896   8.239  1.7793 -0.1475 -0.2666
22435SOL    HW268522   8.927   8.827   8.197  1.1402 -0.2030 -2.2467
22436SOL     OW68523   8.584   8.617   7.802  0.3845  0.1504 -0.3664
22436SOL    HW168524   8.490   8.637   7.800  0.1753 -0.6729  0.5908
22436SOL    HW268525   8.607   8.617   7.895  0.7402 -2.2324 -0.3893
22437SOL     OW68526   8.014   8.611   8.191 -0.5862 -0.2423  0.1626
22437SOL    HW168527   7.998   8.570   8.277  0.0126 -0.1604  0.3177
22437SOL    HW268528   8.108   8.599   8.176 -0.2625  1.6229  0.4992
22438SOL     OW68529   8.153   8.379   7.960 -0.5078  0.2246  0.5962
22438SOL    HW168530   8.212   8.437   8.009  1.5577 -0.0315 -1.4707
22438SOL    HW268531   8.071   8.428   7.956 -0.0093  1.2862  2.2010
22439SOL     OW68532   7.888   0.016   8.207  0.0157  0.1810 -0.2147
22439SOL    HW168533   7.939   0.063   8.274  0.1049 -0.1231 -0.0702
22439SOL    HW268534   7.933  -0.067   8.196 -0.9767 -0.4936  0.6192
22440SOL     OW68535   7.825   8.131   8.615  0.3642 -0.2527  0.0094
22440SOL    HW168536   7.867   8.051   8.585  0.5884 -0.5738  1.1242
22440SOL    HW268537   7.759   8.102   8.677 -1.0288  0.3002 -1.1520
22441SOL     OW68538   7.901   8.503   7.951  0.5943  0.2149  0.3932
22441SOL    HW168539   7.920   8.573   8.014  2.6554 -0.9533  1.1581
22441SOL    HW268540   7.850   8.439   8.001  1.3170 -0.2213  0.5765
22442SOL     OW68541   8.643   8.513   7.454 -0.4333  0.0948  0.3189
22442SOL    HW168542   8.643   8.418   7.454 -0.2197  0.0843  1.2614
22442SOL    HW268543   8.631   8.537   7.362 -0.7739 -0.8342  0.1094
22443SOL     OW68544   0.345   7.934   8.560  0.0731 -1.0836  0.0441
22443SOL    HW168545   0.252   7.948   8.576  0.5106  1.0318  1.0049
22443SOL    HW268546   0.385   7.933   8.647  0.9641 -2.1009 -0.3508
22444SOL     OW68547   7.027   8.138   8.006 -0.1640 -0.0432 -0.2292
22444SOL    HW168548   7.040   8.223   8.049  0.0523 -0.2849  0.1952
22444SOL    HW268549   7.116   8.102   7.998 -0.2687 -0.2933 -0.2653
22445SOL     OW68550   0.267   8.595   7.370 -0.2594 -0.5463 -0.4366
22445SOL    HW168551   0.277   8.683   7.334 -1.1958 -0.3244 -0.1895
22445SOL    HW268552   0.278   8.607   7.465 -0.0997 -0.7508 -0.4279
22446SOL     OW68553   8.191   0.066   7.835 -0.0504  0.1031  0.0922
22446SOL    HW168554   8.131  -0.001   7.867  0.6404 -0.5052  0.1447
22446SOL    HW268555   8.151   0.149   7.861 -0.7905 -0.2948  0.2451
22447SOL     OW68556   8.160   7.776   8.054  0.0481  0.4471 -0.2433
22447SOL    HW168557   8.108   7.763   7.975  1.5277 -0.4626 -1.1197
22447SOL    HW268558   8.249   7.791   8.023  0.8726 -0.9394  1.2417
22448SOL     OW68559   8.139   8.388   8.416 -0.5741 -0.3865  0.1937
22448SOL    HW168560   8.052   8.377   8.455 -1.3053 -1.1558 -1.5647
22448SOL    HW268561   8.140   8.328   8.341  0.9342  0.6853 -0.7058
22449SOL     OW68562   7.838   8.187   7.142 -0.0607 -0.3291 -0.4854
22449SOL    HW168563   7.783   8.125   7.189 -0.7433 -0.8087 -1.8498
22449SOL    HW268564   7.804   8.273   7.167 -2.0570 -0.6249 -1.9505
22450SOL     OW68565   0.138   7.789   8.147  0.1538 -0.0470 -0.1904
22450SOL    HW168566   0.055   7.791   8.196  0.6988 -0.5573  0.7723
22450SOL    HW268567   0.124   7.852   8.076 -1.3117 -0.6295 -0.4650
22451SOL     OW68568   8.156   7.946   0.500  0.2547 -0.1358 -1.0532
22451SOL    HW168569   8.172   7.885   0.572 -0.1520  1.0580  0.0866
22451SOL    HW268570   8.239   7.946   0.451  0.6434 -0.7496 -0.4351
22452SOL     OW68571   8.267   7.798   8.531  0.0670  0.7926  0.7190
22452SOL    HW168572   8.188   7.761   8.570  0.0027  1.7103  1.4948
22452SOL    HW268573   8.280   7.748   8.451 -0.7670  0.0044  1.0581
22453SOL     OW68574   0.112   8.032   7.964  0.2873  0.0336  0.3972
22453SOL    HW168575   0.100   7.989   7.879  0.3119 -0.0391  0.4312
22453SOL    HW268576   0.057   8.111   7.958  1.0982  0.5769 -0.0786
22454SOL     OW68577   7.709   8.616   7.800 -0.2477  0.0910 -0.6094
22454SOL    HW168578   7.784   8.576   7.844  0.4930  0.6910 -1.2959
22454SOL    HW268579   7.638   8.611   7.865  0.1960 -1.0692 -0.1941
22455SOL     OW68580   8.553   7.641   7.240 -0.1779  0.7770  0.2389
22455SOL    HW168581   8.625   7.597   7.195 -1.5379 -2.5396  1.0171
22455SOL    HW268582   8.568   7.620   7.333  0.2196  3.8518  0.9717
22456SOL     OW68583   8.678   8.714   7.144  0.2827 -0.3924  0.3554
22456SOL    HW168584   8.620   8.662   7.087  0.5627  0.7458 -1.0252
22456SOL    HW268585   8.760   8.666   7.144  0.3986 -0.2180 -0.5435
22457SOL     OW68586   8.375   8.040   8.412  0.6794  0.3499  0.0906
22457SOL    HW168587   8.424   7.959   8.398  2.1300  0.9101  1.6137
22457SOL    HW268588   8.292   8.012   8.449  1.8164 -0.4273  2.2102
22458SOL     OW68589   7.586   8.421   7.638 -0.0159 -0.0251  0.0433
22458SOL    HW168590   7.629   8.479   7.701  0.6732 -0.0787 -0.3691
22458SOL    HW268591   7.657   8.371   7.599 -0.5207 -0.5584 -0.2095
22459SOL     OW68592   7.862   8.018   7.626 -0.2612  0.2850  0.0475
22459SOL    HW168593   7.877   8.004   7.719 -0.1925 -1.6973 -0.2152
22459SOL    HW268594   7.803   7.947   7.600  1.7420 -0.7859 -1.9210
22460SOL     OW68595   8.624   7.172   7.570  0.2136  0.4685  0.1030
22460SOL    HW168596   8.546   7.187   7.517  1.0168 -1.5258 -1.8301
22460SOL    HW268597   8.697   7.193   7.511  1.1637  0.9407  1.3915
22461SOL     OW68598   8.684   8.086   8.227  0.8608  0.5997 -0.0303
22461SOL    HW168599   8.694   7.991   8.233 -0.6319  0.5056  1.4493
22461SOL    HW268600   8.618   8.099   8.159 -1.6378  0.3159  2.1694
22462SOL     OW68601   8.046   7.853   7.827  0.0187  0.0075 -0.7150
22462SOL    HW168602   8.041   7.941   7.864 -1.5483 -0.3783  0.0589
22462SOL    HW268603   8.072   7.867   7.736  0.4887  1.2081 -0.4197
22463SOL     OW68604   0.877   8.377   7.231  1.0646 -0.5467  0.2137
22463SOL    HW168605   0.892   8.414   7.318 -0.9969  2.9327 -0.6967
22463SOL    HW268606   0.960   8.385   7.186  1.0007  2.1834  0.4479
22464SOL     OW68607   7.530   7.926   6.912 -0.3853  0.4777  0.4055
22464SOL    HW168608   7.572   7.922   6.826 -0.4811  0.1353  0.3744
22464SOL    HW268609   7.457   7.987   6.899 -0.9080 -0.2248  0.0239
22465SOL     OW68610   8.832   7.884   7.754 -0.4106 -0.0309  0.1244
22465SOL    HW168611   8.766   7.840   7.700 -1.7881 -1.0416  2.4754
22465SOL    HW268612   8.915   7.850   7.722 -1.1594 -0.5375 -1.3873
22466SOL     OW68613   8.532   8.782   8.323  0.1771 -0.0262 -0.2750
22466SOL    HW168614   8.519   8.690   8.301  0.0272  0.0602 -0.5648
22466SOL    HW268615   8.489   8.829   8.251  1.4241  0.2764 -0.8512
22467SOL     OW68616   7.975   8.819   7.540  0.0333 -0.2379 -0.1735
22467SOL    HW168617   8.038   8.758   7.580  2.0148  0.7933 -1.5372
22467SOL    HW268618   7.895   8.767   7.529  1.3723 -2.3613 -0.5477
22468SOL     OW68619   8.326   7.774   7.246  0.3031 -0.1993 -0.7193
22468SOL    HW168620   8.411   7.730   7.252  1.3381  1.8131  0.0225
22468SOL    HW268621   8.267   7.718   7.297  1.4374 -1.0111 -0.2634
22469SOL     OW68622   7.839   7.592   8.554 -0.0869  0.3732  0.4923
22469SOL    HW168623   7.771   7.570   8.618 -1.8273  0.9542 -1.0435
22469SOL    HW268624   7.906   7.637   8.604 -0.9319 -0.0161  2.0464
22470SOL     OW68625   8.343   7.975   7.700 -0.3683 -0.3255 -0.2873
22470SOL    HW168626   8.382   8.003   7.618  0.5972 -1.6267 -0.3055
22470SOL    HW268627   8.262   7.930   7.675 -0.4695 -0.0405 -0.4660
22471SOL     OW68628   8.425   7.822   7.962  0.4088 -0.2220 -0.0698
22471SOL    HW168629   8.411   7.870   7.881 -0.5907 -0.8142 -0.2667
22471SOL    HW268630   8.416   7.730   7.937  0.1555 -0.4116  0.6957
22472SOL     OW68631   8.636   7.915   7.536 -0.5423  0.5247 -0.5079
22472SOL    HW168632   8.674   7.876   7.457 -1.8045 -1.0919 -0.3721
22472SOL    HW268633   8.567   7.973   7.502 -1.0610 -0.1426 -0.6255
22473SOL     OW68634   8.033   7.793   7.322 -0.3129 -0.2673  0.5394
22473SOL    HW168635   8.044   7.844   7.242 -0.6473  0.3237  0.8635
22473SOL    HW268636   8.008   7.706   7.292 -0.2966 -0.0894 -0.0042
22474SOL     OW68637   8.678   0.149   8.383  0.5540 -0.3374  0.4202
22474SOL    HW168638   8.632   0.218   8.337 -0.2535 -0.8957  0.3717
22474SOL    HW268639   8.617   0.075   8.384  0.8030 -0.5546  1.8179
22475SOL     OW68640   8.463   8.802   8.015  0.6318  0.0398  0.1400
22475SOL    HW168641   8.483   8.856   7.938  0.6720 -1.5334 -1.0091
22475SOL    HW268642   8.538   8.742   8.022  0.3504 -0.2264  1.0555
22476SOL     OW68643   8.552   8.097   7.831  0.1812  0.6273  0.3189
22476SOL    HW168644   8.626   8.040   7.811  0.9217  1.1458  1.4566
22476SOL    HW268645   8.476   8.052   7.794  0.7785 -0.9605  0.9580
22477SOL     OW68646   7.997   8.201   0.240 -0.5360 -0.1466  0.5050
22477SOL    HW168647   7.997   8.120   0.291  0.4161 -0.2614  0.3381
22477SOL    HW268648   7.947   8.180   0.161 -2.2593  0.1136  1.4898
22478SOL     OW68649   8.418   7.666   8.732 -0.1544 -0.0208 -0.6963
22478SOL    HW168650   8.360   7.708   8.668  0.8583  0.6260 -1.2238
22478SOL    HW268651   8.494   7.638   8.681  0.9091  0.9606  0.2810
22479SOL     OW68652   8.091   8.578   7.671  0.6010 -0.0867 -0.1385
22479SOL    HW168653   8.052   8.544   7.751  0.1685 -0.7070 -0.6015
22479SOL    HW268654   8.073   8.511   7.605  1.9486 -0.1242 -0.5059
22480SOL     OW68655   8.130   7.943   8.266  0.5101 -0.0556 -0.6567
22480SOL    HW168656   8.132   7.872   8.201 -0.6359  0.9918 -1.8929
22480SOL    HW268657   8.199   8.003   8.238  0.1859  0.2701 -0.7616
22481SOL     OW68658   8.692   8.786   7.520 -0.1180  0.0741 -0.4677
22481SOL    HW168659   8.686   8.690   7.516  2.3483 -0.0972 -1.2191
22481SOL    HW268660   8.601   8.815   7.511 -0.9513 -2.1852 -0.0908
22482SOL     OW68661   8.315   8.595   8.408 -0.0615 -0.1925  0.0638
22482SOL    HW168662   8.239   8.537   8.422 -1.4504  1.0774 -1.7773
22482SOL    HW268663   8.382   8.561   8.467 -2.4608 -0.6082  2.7616
22483SOL     OW68664   0.154   8.450   8.397 -0.4340 -0.7586 -0.0814
22483SOL    HW168665   0.104   8.526   8.427 -0.9723 -1.2922  0.4079
22483SOL    HW268666   0.098   8.409   8.331 -0.2664 -0.8717 -0.1523
22484SOL     OW68667   0.365   8.081   8.101  0.0864 -0.2630 -0.2045
22484SOL    HW168668   0.380   8.018   8.172  2.2407  1.2701  0.8243
22484SOL    HW268669   0.280   8.057   8.065 -0.0906 -2.4653  1.4673
22485SOL     OW68670   7.926   8.200   8.336  0.4648  0.4460 -0.3782
22485SOL    HW168671   7.905   8.170   8.425 -2.3307 -0.9360 -1.3781
22485SOL    HW268672   7.995   8.141   8.307  0.4740  0.0418  0.4275
22486SOL     OW68673   7.710   8.754   8.738  0.3507  0.2535  0.2852
22486SOL    HW168674   7.769   8.769   8.664  0.5199 -0.7665  0.1929
22486SOL    HW268675   7.755   8.688   8.791  0.2848  1.0621  1.3664
22487SOL     OW68676   8.305   8.152   0.025 -0.4490  0.5079 -0.2280
22487SOL    HW168677   8.347   8.066   0.030  0.3126  0.7484 -1.6454
22487SOL    HW268678   8.373   8.208  -0.014 -1.4210  1.3834 -0.6936
22488SOL     OW68679   7.826   7.676   7.768  0.2312  0.3517  0.6262
22488SOL    HW168680   7.909   7.719   7.789  0.7099 -0.3977  0.3052
22488SOL    HW268681   7.819   7.681   7.673  1.7935 -2.8430  0.2038
22489SOL     OW68682   0.496   8.083   7.846 -0.0471  0.1829 -0.0185
22489SOL    HW168683   0.442   8.082   7.925  0.4293  1.1357  0.3499
22489SOL    HW268684   0.469   8.163   7.800  2.7053  2.1584  1.4545
22490SOL     OW68685   8.453   8.263   8.035  0.0294 -0.3222  0.3646
22490SOL    HW168686   8.452   8.349   7.994 -0.3801 -0.2219  0.5725
22490SOL    HW268687   8.511   8.210   7.981 -2.1779 -0.8374 -1.6930
22491SOL     OW68688   0.189   8.172   7.320  0.3938 -0.5342  0.5587
22491SOL    HW168689   0.162   8.185   7.410  0.3304 -0.3895  0.5181
22491SOL    HW268690   0.110   8.187   7.268  0.4549 -0.5079  0.4712
22492SOL     OW68691   7.779   8.255   7.529  0.0271  0.5281  0.1115
22492SOL    HW168692   7.811   8.188   7.589 -2.2407  0.1360  1.0050
22492SOL    HW268693   7.737   8.205   7.459 -0.3770  1.0036  0.0151
22493SOL     OW68694   8.260   8.174   8.206  0.8666  0.0381 -0.0262
22493SOL    HW168695   8.325   8.200   8.141  1.1544 -1.0346 -0.1948
22493SOL    HW268696   8.312   8.152   8.284  0.5634  0.8106  0.4071
22494SOL     OW68697   8.678   7.450   0.025 -0.5701  0.1019  0.0424
22494SOL    HW168698   8.708   7.520  -0.033  0.5472 -0.9429 -0.6829
22494SOL    HW268699   8.737   7.454   0.101 -0.8935  0.3237  0.2861
22495SOL     OW68700   7.743   8.664   7.492  0.1219  0.4051 -1.1035
22495SOL    HW168701   7.721   8.672   7.399 -0.3455  2.0328 -0.8879
22495SOL    HW268702   7.686   8.727   7.535  1.5126  0.8931  0.0839
22496SOL     OW68703   8.424   0.181   8.113  0.0036 -0.4009  0.0004
22496SOL    HW168704   8.392   0.228   8.036  0.0637 -1.7852 -0.8992
22496SOL    HW268705   8.420   0.088   8.088  0.2726 -0.8573  1.5729
22497SOL     OW68706   7.784   8.351   8.125 -0.2342 -0.1441  0.2087
22497SOL    HW168707   7.696   8.363   8.161  0.1013  1.6359  0.5307
22497SOL    HW268708   7.835   8.316   8.198 -0.4004 -0.0407  0.3761
22498SOL     OW68709   8.075   8.112   7.967  0.4708 -0.3250 -0.0719
22498SOL    HW168710   8.089   8.205   7.949  3.0265 -0.6171  0.0546
22498SOL    HW268711   8.120   8.096   8.050  0.0641 -1.6881 -0.0754
22499SOL     OW68712   8.063   7.688   8.702  0.1269 -0.1354  0.3806
22499SOL    HW168713   8.059   7.780   8.728 -0.6437  0.0625 -0.4112
22499SOL    HW268714   8.109   7.645   8.774  0.6529  0.8948  0.6749
22500SOL     OW68715   8.097   7.889   7.567 -0.5593 -0.5791  0.0789
22500SOL    HW168716   8.007   7.921   7.581 -0.2775 -0.7220  2.8142
22500SOL    HW268717   8.097   7.857   7.477 -3.1053 -0.1071 -0.1809
22501SOL     OW68718   8.039   8.245   8.740  0.4948 -0.1890 -0.9358
22501SOL    HW168719   8.004   8.164   8.702  1.1069 -0.7262 -0.3679
22501SOL    HW268720   8.108   8.216   8.799  1.2611  0.8054 -1.3233
22502SOL     OW68721   0.368   8.656   8.419 -0.1822  0.2959 -0.0905
22502SOL    HW168722   0.322   8.735   8.388  0.3911  1.1025  1.0579
22502SOL    HW268723   0.355   8.592   8.349 -2.9031  0.5383  0.0962
22503SOL     OW68724   0.411   8.319   7.716 -0.4923 -0.5246 -0.4627
22503SOL    HW168725   0.335   8.353   7.668  0.6007  1.6402 -0.7881
22503SOL    HW268726   0.462   8.397   7.738  0.5750 -1.7267  1.6226
22504SOL     OW68727   7.693   0.024   8.410 -0.3353 -0.5192  0.6183
22504SOL    HW168728   7.743  -0.053   8.440 -0.2886 -0.4294  0.7747
22504SOL    HW268729   7.740   0.054   8.332  0.9909  0.6892  1.8081
22505SOL     OW68730   8.777   8.383   8.191 -0.0388  0.0743  0.3014
22505SOL    HW168731   8.737   8.298   8.207  1.0278 -0.6280 -0.5596
22505SOL    HW268732   8.842   8.366   8.122  0.9261  1.3766  0.8443
22506SOL     OW68733   8.303   8.700   8.796 -0.6711  0.2946 -0.2112
22506SOL    HW168734   8.247   8.630   8.763 -1.6625  1.6013 -1.4201
22506SOL    HW268735   8.379   8.700   8.738 -1.0412  0.7025 -0.7071
22507SOL     OW68736   7.431   7.682   7.988  0.0545 -0.0936 -0.1168
22507SOL    HW168737   7.410   7.737   8.063 -0.7875  1.4939 -1.4513
22507SOL    HW268738   7.527   7.683   7.983  0.0744  2.6378 -1.0046
22508SOL     OW68739   8.578   8.493   8.354  0.3657 -0.6389 -0.2406
22508SOL    HW168740   8.574   8.410   8.402  2.4274 -0.1604  0.9156
22508SOL    HW268741   8.645   8.479   8.287  0.0282 -0.2124 -0.6676
22509SOL     OW68742   8.443   8.104   7.470 -0.5166  0.2034  0.6228
22509SOL    HW168743   8.373   8.104   7.406 -2.0085 -1.4160  2.1647
22509SOL    HW268744   8.460   8.197   7.486 -2.2556  0.6401  0.1660
22510SOL     OW68745   7.868   8.681   8.533  0.3167 -0.1619 -0.0815
22510SOL    HW168746   7.957   8.716   8.531  0.7973 -1.3594 -2.2986
22510SOL    HW268747   7.879   8.586   8.543 -0.7403 -0.2778  0.1323
22511SOL     OW68748   8.544   0.152   7.817  0.3708 -0.1959 -0.5087
22511SOL    HW168749   8.619   0.208   7.838  0.6421 -0.6358 -0.2840
22511SOL    HW268750   8.518   0.180   7.729 -0.8828  1.7795  0.4136
22512SOL     OW68751   8.716   7.737   8.282 -0.6008  0.2400  0.1045
22512SOL    HW168752   8.699   7.643   8.271 -0.4058  0.4165 -2.2065
22512SOL    HW268753   8.631   7.778   8.270 -0.4012  0.4477 -0.6551
22513SOL     OW68754   7.939   7.454   0.114 -0.2817  0.0920 -0.5020
22513SOL    HW168755   7.877   7.523   0.095 -1.2182 -0.3850  0.6746
22513SOL    HW268756   8.013   7.498   0.156 -1.0313  0.3635  0.5750
22514SOL     OW68757   7.363   7.742   7.029 -0.3605  0.1476 -0.3067
22514SOL    HW168758   7.318   7.690   6.963  0.4926  0.1906 -0.9488
22514SOL    HW268759   7.429   7.791   6.979  0.2775  0.2063  0.5713
22515SOL     OW68760   7.537   7.678   7.246  0.1183 -0.5832  0.3259
22515SOL    HW168761   7.509   7.718   7.329 -0.5551  0.4280 -0.3619
22515SOL    HW268762   7.464   7.694   7.187  0.1420 -2.2291 -0.1908
22516SOL     OW68763   0.038   8.586   7.072 -0.7820  0.2275 -0.6320
22516SOL    HW168764   0.133   8.576   7.077  0.1148  5.1831 -2.2393
22516SOL    HW268765   0.013   8.537   6.994  1.1367  1.4300 -2.1132
22517SOL     OW68766   8.122   7.646   0.149  0.5046  0.6873  0.2009
22517SOL    HW168767   8.211   7.635   0.116  0.1528 -1.5699 -0.1603
22517SOL    HW268768   8.130   7.639   0.244  0.7978  1.2325  0.2180
22518SOL     OW68769   0.289   7.951   7.687  0.2120  0.2886  0.0012
22518SOL    HW168770   0.341   7.900   7.625  1.7046  0.0370  1.3955
22518SOL    HW268771   0.354   7.992   7.745 -1.0951  1.2132  0.8674
22519SOL     OW68772   7.798   8.131   7.919 -0.1963  0.5231 -0.0210
22519SOL    HW168773   7.786   8.218   7.958  0.4394  0.4476  0.3481
22519SOL    HW268774   7.889   8.108   7.938 -0.0936  0.1657 -0.9214
22520SOL     OW68775   8.445   0.009   7.404  0.9484 -0.1810  0.1870
22520SOL    HW168776   8.378  -0.058   7.423  1.7867 -0.5634  2.0894
22520SOL    HW268777   8.420   0.045   7.319  0.9203 -3.4651 -1.3596
22521SOL     OW68778   8.329   8.696   7.729 -0.0245 -1.0300  0.2527
22521SOL    HW168779   8.241   8.664   7.710 -0.0119 -1.6370  1.1619
22521SOL    HW268780   8.316   8.787   7.757 -0.3255 -1.0181  0.0753
22522SOL     OW68781   8.692   8.267   7.413  0.0878  0.3275 -0.2840
22522SOL    HW168782   8.722   8.242   7.326 -0.7838 -3.5061  0.3248
22522SOL    HW268783   8.763   8.242   7.471  0.3571  2.1508  0.2115
22523SOL     OW68784   7.537   8.600   8.011 -0.0037  0.5871 -0.2290
22523SOL    HW168785   7.566   8.637   8.095  0.2407  0.4023 -0.2301
22523SOL    HW268786   7.482   8.526   8.035  0.9083 -0.1062 -0.2286
22524SOL     OW68787   7.587   7.847   7.724 -0.1526 -0.1880 -0.2849
22524SOL    HW168788   7.503   7.807   7.701 -2.2861  2.1860  2.5835
22524SOL    HW268789   7.635   7.777   7.768 -1.1714 -1.2318 -0.7729
22525SOL     OW68790   8.542   8.287   8.811  0.1986  0.3038 -0.4428
22525SOL    HW168791   8.560   8.311   8.721 -1.0199  0.4130 -0.6709
22525SOL    HW268792   8.619   8.315   8.860  0.6748  0.6427 -1.3775
22526SOL     OW68793   8.772   7.821   0.018 -0.2142 -0.0955 -0.0332
22526SOL    HW168794   8.790   7.892   0.080  0.9742 -0.4073  0.0083
22526SOL    HW268795   8.833   7.836  -0.054 -0.1933 -0.8821 -0.1834
22527SOL     OW68796   8.546   7.484   8.288  0.5225 -0.1108  0.2325
22527SOL    HW168797   8.555   7.397   8.249  0.3506 -0.5950  1.2383
22527SOL    HW268798   8.452   7.503   8.282  0.4568 -0.2971  0.6220
22528SOL     OW68799   8.368   8.587   7.475  0.4537  0.3806  0.0198
22528SOL    HW168800   8.454   8.543   7.476 -0.0494 -0.6366 -0.0735
22528SOL    HW268801   8.347   8.600   7.567 -0.6310 -2.1314  0.2001
22529SOL     OW68802   0.165   7.561   7.683 -0.1707 -0.2329  0.1722
22529SOL    HW168803   0.256   7.556   7.653  0.0165 -0.0817  0.6988
22529SOL    HW268804   0.172   7.589   7.774 -0.8127  1.4868 -0.2686
22530SOL     OW68805   7.240   8.150   7.465  0.1840  0.1048 -0.0138
22530SOL    HW168806   7.250   8.209   7.540  0.6626  1.2769 -0.9751
22530SOL    HW268807   7.223   8.208   7.391  0.4553 -0.9816 -0.9518
22531NA      NA68808   1.855   0.296   4.211  0.3859  0.3434  0.0909
22532NA      NA68809   0.850   1.017   6.375 -0.6932  0.4686  0.5740
22533NA      NA68810   0.738   1.800   7.570  0.2367 -0.3541  0.3915
22534NA      NA68811   1.232   2.002   6.142  0.2786  0.8189  0.1412
22535NA      NA68812   1.838   2.382   0.094 -0.0998 -0.4483 -0.0631
22536NA      NA68813   1.072   4.130   2.511  0.4819 -0.1173 -0.2229
22537NA      NA68814   1.870   4.000   0.399  0.1906  0.0206  0.3288
22538NA      NA68815   0.175   7.159   1.273 -0.5831 -0.1618 -0.3245
22539NA      NA68816   0.005   6.240   5.117 -0.1714 -0.4174  0.0966
22540NA      NA68817   2.512   0.526   0.403  0.1471  0.2145  0.1922
22541NA      NA68818   2.766   0.691   5.376  0.6170 -0.1927 -0.2043
22542NA      NA68819   3.092   2.817   3.525  0.2515  0.2908  0.1570
22543NA      NA68820   2.430   4.631   2.632 -0.0518  0.0295  0.2320
22544NA      NA68821   2.445   7.489   1.063 -0.2518 -0.2606  0.0875
22545NA      NA68822   3.173   7.853   4.108  0.1206  0.2301  0.1215
22546NA      NA68823   1.899   8.277   4.808 -0.6703 -0.0293  0.4160
22547NA      NA68824   2.329   8.694   6.183  0.1301  0.0218 -0.3295
22548NA      NA68825   3.975   1.410   3.069  0.0780 -0.2538 -0.3769
22549NA      NA68826   4.272   0.017   6.983 -0.2689  0.2286  0.1706
22550NA      NA68827   5.526   0.170   7.845  0.3374  0.4288 -0.3659
22551NA      NA68828   4.762   0.412   7.681 -0.0902 -0.7056 -0.3903
22552NA      NA68829   5.156   2.685   2.982 -0.6397 -0.2207  0.9634
22553NA      NA68830   5.135   3.208   5.637 -0.2898 -0.1840  0.3524
22554NA      NA68831   4.950   5.189   0.026  0.0472 -0.0985  0.1627
22555NA      NA68832   3.968   6.273   2.119 -0.4376  0.1616 -0.3297
22556NA      NA68833   6.402   1.641   0.603 -0.5318  0.5030  0.0028
22557NA      NA68834   6.120   0.685   1.649  0.0797  0.2892 -0.1073
22558NA      NA68835   7.346   0.672   3.126 -0.1466 -0.7279  0.0034
22559NA      NA68836   7.092   2.767   8.519  0.0561  0.2626 -0.7387
22560NA      NA68837   6.559   2.503   4.448  0.3358  0.1510  0.4309
22561NA      NA68838   6.215   4.216   5.153  0.5048 -0.0367 -0.6220
22562NA      NA68839   5.783   6.366   6.401  0.3433 -0.0567  0.0708
22563NA      NA68840   6.308   7.669   2.989  0.0970 -0.5112 -0.0202
22564NA      NA68841   6.098   8.479   7.395 -0.0864 -0.3298 -0.1159
22565NA      NA68842   8.291   2.373   2.585  0.1067 -0.7135 -0.2389
22566NA      NA68843   8.541   4.136   5.011 -0.0306  0.6262 -0.0222
22567NA      NA68844   0.209   4.740   5.679 -0.4354 -0.2855  0.0632
22568NA      NA68845   7.537   6.072   3.964  0.3017  0.1740 -0.7089
22569NA      NA68846   8.487   6.379   8.220  0.2929 -0.1430  0.4289
22570NA      NA68847   8.649   8.241   1.126 -0.0870 -0.2436  0.5014
   8.84896   8.84896   8.84896
