./temp.pdb in water
68847
    1G5     H5T    1   3.981   5.016   2.273 -0.4797  1.1683  0.9224
    1G5     O5'    2   3.991   5.055   2.186  0.0169 -0.2351  0.3315
    1G5     C5'    3   3.897   5.153   2.164 -0.6472 -0.3301  0.0437
    1G5    H5'1    4   3.923   5.206   2.072 -0.2905 -0.3695  0.1214
    1G5    H5'2    5   3.906   5.231   2.240 -1.0408 -0.9312  0.7091
    1G5     C4'    6   3.750   5.112   2.135  0.0877 -0.0905 -0.6125
    1G5     H4'    7   3.689   5.200   2.156  2.2331  1.1501  0.9581
    1G5     O4'    8   3.730   5.089   1.995 -0.5683  0.0703 -0.0487
    1G5     C1'    9   3.710   4.948   1.977  0.0693 -0.2627 -1.6067
    1G5     H1'   10   3.637   4.933   1.898  0.7281 -0.3908 -2.2066
    1G5      N9   11   3.836   4.866   1.949  0.1729 -0.1568 -0.1951
    1G5      C8   12   3.969   4.898   1.938  0.0430 -0.5789  0.2065
    1G5      H8   13   4.007   4.996   1.966  2.6932 -1.6465  0.6153
    1G5      N7   14   4.048   4.809   1.893  0.3319  0.3012 -0.0778
    1G5      C5   15   3.964   4.697   1.883  0.1044 -0.1757  0.1131
    1G5      C6   16   3.993   4.563   1.843  0.2109  0.2774 -0.4624
    1G5      O6   17   4.099   4.507   1.826 -0.1753 -0.0713 -0.1170
    1G5      N1   18   3.875   4.487   1.832 -0.7019  0.3507  0.8424
    1G5      H1   19   3.892   4.389   1.812  0.1289  0.5877  0.2960
    1G5      C2   20   3.750   4.522   1.870 -0.8302  0.2795  0.0538
    1G5      N2   21   3.649   4.439   1.849 -0.3087 -0.1459  0.0901
    1G5     H21   22   3.666   4.346   1.815  1.4702  0.1308  0.1662
    1G5     H22   23   3.555   4.458   1.882 -0.7498 -1.0486 -0.5956
    1G5      N3   24   3.724   4.648   1.909  0.3250  0.7325  0.1845
    1G5      C4   25   3.836   4.730   1.917 -0.0068  0.6259 -0.6109
    1G5     C3'   26   3.690   5.000   2.213 -0.0232  0.1555 -0.2135
    1G5     H3'   27   3.767   4.953   2.274  2.4632  0.4736 -2.8868
    1G5     C2'   28   3.642   4.906   2.103  0.0895  0.3971 -0.5582
    1G5     H2'   29   3.681   4.812   2.140 -0.8981  0.9976  2.2962
    1G5     O2'   30   3.502   4.913   2.073  0.4035  0.0808 -0.1559
    1G5    HO2'   31   3.451   4.932   2.152 -0.3228 -1.0111 -0.3331
    1G5     O3'   32   3.574   5.046   2.285  0.0174  0.0684 -0.3963
    2C        P   33   3.558   5.008   2.438 -0.0710  0.0753  0.0710
    2C      O1P   34   3.432   5.075   2.487 -0.4254 -0.5430  0.6172
    2C      O2P   35   3.688   5.028   2.506 -0.0771  0.5973  0.4855
    2C      O5'   36   3.539   4.848   2.432  0.2012 -0.3186 -0.4264
    2C      C5'   37   3.410   4.792   2.430  0.4408  0.7668  0.8499
    2C     H5'1   38   3.337   4.854   2.377  0.4067  1.1295  1.3133
    2C     H5'2   39   3.367   4.782   2.529 -2.3832 -2.0951 -0.5017
    2C      C4'   40   3.418   4.646   2.369 -0.2221  0.0563  0.2528
    2C      H4'   41   3.316   4.616   2.344  0.3323 -0.8514 -0.9944
    2C      O4'   42   3.491   4.634   2.242 -0.4144  0.0436 -0.6795
    2C      C1'   43   3.549   4.503   2.231 -0.2542 -0.3188  0.6396
    2C      H1'   44   3.513   4.448   2.144 -0.6383  0.4962  0.2643
    2C       N1   45   3.701   4.513   2.221 -0.1357  0.0601  0.0488
    2C       C6   46   3.762   4.622   2.273 -0.5219 -0.7294 -0.0250
    2C       H6   47   3.711   4.693   2.337 -1.0413 -0.5920 -0.5883
    2C       C5   48   3.897   4.628   2.256  0.1867 -0.2410 -0.5662
    2C       H5   49   3.948   4.717   2.289 -1.7670 -0.1722  2.6251
    2C       C4   50   3.966   4.520   2.189 -0.1486 -0.5971 -0.3241
    2C       N4   51   4.094   4.528   2.161 -0.4815 -0.4836  0.4644
    2C      H41   52   4.125   4.459   2.094  0.0336  1.2446 -1.1682
    2C      H42   53   4.142   4.610   2.193  0.5756 -1.0102  0.2881
    2C       N3   54   3.909   4.406   2.155  0.1362  0.5697  0.6650
    2C       C2   55   3.776   4.407   2.163 -0.8134  0.1208 -0.0130
    2C       O2   56   3.723   4.308   2.114 -0.0921  0.2301  0.1048
    2C      C3'   57   3.491   4.546   2.455  1.0257 -0.5193  0.7525
    2C      H3'   58   3.588   4.587   2.482  1.0091 -0.9377  1.4630
    2C      C2'   59   3.502   4.425   2.351  0.0937 -0.8251  0.6504
    2C      H2'   60   3.577   4.350   2.379 -1.3518 -1.7628  2.1976
    2C      O2'   61   3.378   4.371   2.321  0.1258 -0.1921 -0.3317
    2C     HO2'   62   3.314   4.409   2.381  0.4677 -0.1264 -0.0082
    2C      O3'   63   3.419   4.511   2.569 -0.0501 -0.1662 -0.0960
    3C        P   64   3.489   4.444   2.698  0.3573  0.0758 -0.0192
    3C      O1P   65   3.385   4.433   2.805  0.5130 -0.5314 -0.2935
    3C      O2P   66   3.612   4.519   2.732 -0.2403  0.2874  0.3388
    3C      O5'   67   3.531   4.290   2.665  0.2524  0.5868  0.3199
    3C      C5'   68   3.432   4.197   2.629  0.3427  0.6849  0.2334
    3C     H5'1   69   3.371   4.248   2.554 -1.3022 -0.7259  0.5521
    3C     H5'2   70   3.362   4.174   2.709 -0.5232  2.8102  0.1494
    3C      C4'   71   3.498   4.075   2.565  0.4511  0.2048  0.1998
    3C      H4'   72   3.427   3.998   2.536  1.1425 -0.0689 -0.8429
    3C      O4'   73   3.585   4.097   2.452  0.1190 -0.4067  0.0589
    3C      C1'   74   3.703   4.016   2.462  1.1833  0.1758 -0.3138
    3C      H1'   75   3.701   3.951   2.375 -0.1237 -0.5498  0.2258
    3C       N1   76   3.826   4.092   2.465  0.5206  0.0241  0.0794
    3C       C6   77   3.829   4.227   2.497 -0.2054  0.9121 -0.7249
    3C       H6   78   3.739   4.269   2.540  0.3397  1.6304 -0.2653
    3C       C5   79   3.943   4.298   2.476  1.0181  0.4964 -0.1964
    3C       H5   80   3.950   4.404   2.495  2.8072  1.1545 -3.7360
    3C       C4   81   4.052   4.230   2.423 -0.6215 -0.8772 -0.7902
    3C       N4   82   4.161   4.289   2.389 -0.0450 -0.0646  0.2615
    3C      H41   83   4.234   4.241   2.338  1.5839  1.8035  0.7211
    3C      H42   84   4.162   4.390   2.392  0.6484  0.0016 -1.1936
    3C       N3   85   4.055   4.102   2.404 -0.0898  0.4047  0.3755
    3C       C2   86   3.941   4.030   2.420  0.6283 -0.5436  0.1467
    3C       O2   87   3.945   3.906   2.390 -0.4857  0.0542 -0.1240
    3C      C3'   88   3.586   4.013   2.674 -0.5803  0.0554  0.0147
    3C      H3'   89   3.638   4.093   2.726  1.3477 -0.2695 -1.3333
    3C      C2'   90   3.676   3.934   2.582 -0.1803  0.4708 -0.4450
    3C      H2'   91   3.769   3.907   2.633 -0.5564 -0.4051 -0.1999
    3C      O2'   92   3.617   3.815   2.529 -0.5873 -0.7173 -0.2073
    3C     HO2'   93   3.522   3.810   2.535 -0.5660 -0.1372  0.8038
    3C      O3'   94   3.505   3.927   2.755  0.2717 -0.0753 -0.0251
    4U        P   95   3.544   3.884   2.903  0.3199  0.0991  0.1678
    4U      O1P   96   3.453   3.776   2.930  0.2576  0.2682 -0.0254
    4U      O2P   97   3.545   3.994   2.998 -0.1562  0.4456 -0.1263
    4U      O5'   98   3.692   3.825   2.894 -0.3709 -0.2115  0.2453
    4U      C5'   99   3.724   3.704   2.834  0.5512  0.6556  0.0671
    4U     H5'1  100   3.678   3.711   2.736  1.1891  0.6581 -0.2332
    4U     H5'2  101   3.675   3.624   2.890 -0.7829  1.3102 -0.1148
    4U      C4'  102   3.876   3.680   2.825  0.3671 -0.3915 -0.2408
    4U      H4'  103   3.899   3.584   2.779 -0.0428 -0.9475  0.6696
    4U      O4'  104   3.915   3.782   2.740  0.4731 -0.0846 -0.5092
    4U      C1'  105   4.059   3.801   2.755 -0.3473 -0.7709  0.3705
    4U      H1'  106   4.102   3.744   2.673 -2.3784  1.8951 -2.7809
    4U       N1  107   4.109   3.945   2.731 -0.7042  0.2335 -0.2680
    4U       C6  108   4.026   4.049   2.756  0.5190 -0.0852 -0.5513
    4U       H6  109   3.925   4.036   2.792 -0.8166  3.5713 -2.4557
    4U       C5  110   4.076   4.174   2.754 -0.7005 -0.0098  0.2562
    4U       H5  111   4.014   4.255   2.790 -1.3661 -1.2106  1.9038
    4U       C4  112   4.211   4.195   2.735  0.4555  0.1922  0.1925
    4U       O4  113   4.265   4.303   2.760 -0.0242  0.1597 -0.4191
    4U       N3  114   4.286   4.086   2.699 -0.0065 -0.4885 -0.7712
    4U       H3  115   4.381   4.103   2.669 -0.3009 -0.7320 -1.8916
    4U       C2  116   4.240   3.962   2.697  0.0959  0.8591  0.0673
    4U       O2  117   4.312   3.864   2.665 -0.4321  0.1766 -0.0857
    4U      C3'  118   3.973   3.688   2.945  0.0834 -0.0899 -0.5230
    4U      H3'  119   3.937   3.770   3.007  1.0992  0.5114 -0.7110
    4U      C2'  120   4.104   3.732   2.884  0.6101  0.0385  0.1037
    4U      H2'  121   4.152   3.794   2.960  0.7547  0.6787 -0.4995
    4U      O2'  122   4.189   3.620   2.849 -0.0940 -0.0968  0.0650
    4U     HO2'  123   4.228   3.584   2.929  1.2677  1.6030  0.2410
    4U      O3'  124   3.980   3.565   3.007  0.7488  0.1758 -0.2657
    5A        P  125   4.019   3.554   3.161  0.3606  0.3285 -0.0934
    5A      O1P  126   3.964   3.427   3.215  0.7208  1.0097  0.0028
    5A      O2P  127   3.987   3.678   3.234 -0.5690 -0.4639  0.1742
    5A      O5'  128   4.183   3.543   3.140  0.2741 -0.1698  0.7338
    5A      C5'  129   4.240   3.417   3.116 -0.9567 -0.0647  0.0629
    5A     H5'1  130   4.198   3.371   3.027 -0.9721  1.1289 -0.5531
    5A     H5'2  131   4.229   3.344   3.197 -0.1190 -0.3438 -0.0612
    5A      C4'  132   4.389   3.435   3.089  0.7107  0.0761 -0.2793
    5A      H4'  133   4.433   3.337   3.071  0.8384  0.3178 -1.3230
    5A      O4'  134   4.410   3.511   2.969  0.0184 -0.1875 -0.1630
    5A      C1'  135   4.536   3.579   2.986 -1.1840 -0.1059 -0.0606
    5A      H1'  136   4.610   3.565   2.907 -0.7081  0.2053  0.3262
    5A       N9  137   4.525   3.724   2.989  0.4275 -0.1739 -0.2689
    5A       C8  138   4.418   3.795   3.039 -0.1560 -0.2214  1.0735
    5A       H8  139   4.328   3.756   3.085 -0.7767  0.3335  0.3661
    5A       N7  140   4.420   3.918   3.009  0.4637  0.3763 -0.1649
    5A       C5  141   4.538   3.940   2.944 -0.1634  0.0606 -0.8974
    5A       C6  142   4.603   4.050   2.892  0.3497 -0.6231 -0.3856
    5A       N6  143   4.551   4.174   2.892 -0.1447  0.6635  0.1190
    5A      H61  144   4.596   4.243   2.834  1.2585  0.0198  0.4047
    5A      H62  145   4.456   4.186   2.925 -0.3418 -2.5364  1.1148
    5A       N1  146   4.724   4.032   2.835 -0.1143 -0.3572 -0.4194
    5A       C2  147   4.779   3.913   2.844 -0.2400 -0.0861 -0.4579
    5A       H2  148   4.880   3.897   2.809  0.0978  0.1216  0.3952
    5A       N3  149   4.733   3.806   2.903  0.5382 -0.0286  0.6410
    5A       C4  150   4.610   3.821   2.945  0.3491  0.0199  0.0991
    5A      C3'  151   4.478   3.500   3.201  0.2503 -0.0057 -0.5356
    5A      H3'  152   4.427   3.585   3.245 -0.8620 -1.1812  0.5309
    5A      C2'  153   4.604   3.533   3.120 -0.4214 -0.5505  0.5580
    5A      H2'  154   4.665   3.613   3.161  1.2423  0.5100 -3.4385
    5A      O2'  155   4.681   3.424   3.079  0.0050 -0.0724 -0.2455
    5A     HO2'  156   4.653   3.350   3.133  0.6396 -0.2590 -0.1634
    5A      O3'  157   4.510   3.405   3.306  0.0254  0.1850 -0.2796
    6U        P  158   4.559   3.454   3.451 -0.4704 -0.2233 -0.2879
    6U      O1P  159   4.597   3.328   3.519  0.8050 -0.4113 -0.1372
    6U      O2P  160   4.454   3.542   3.505 -0.1507  0.4043  0.1560
    6U      O5'  161   4.684   3.544   3.423  0.1058  0.5614  0.4314
    6U      C5'  162   4.806   3.478   3.401  0.5784  0.3853  0.3499
    6U     H5'1  163   4.785   3.397   3.332  1.4294  0.2093  0.2881
    6U     H5'2  164   4.836   3.425   3.491 -0.2086 -0.5906  0.0518
    6U      C4'  165   4.920   3.572   3.353 -0.2465 -0.4377  0.0744
    6U      H4'  166   5.009   3.512   3.333 -0.8580 -0.7375 -1.9290
    6U      O4'  167   4.904   3.653   3.232 -0.2491  0.4174  0.6765
    6U      C1'  168   4.952   3.787   3.255  0.1719 -0.3185  0.5742
    6U      H1'  169   5.029   3.799   3.179 -0.5070 -0.4213 -0.1520
    6U       N1  170   4.853   3.897   3.251 -0.0986 -0.4634  0.0829
    6U       C6  171   4.727   3.880   3.299  0.7668 -0.7793  0.5396
    6U       H6  172   4.697   3.782   3.333  0.6945 -0.6602  0.8259
    6U       C5  173   4.635   3.980   3.304  0.3878 -0.5187  1.0693
    6U       H5  174   4.535   3.973   3.344 -1.4517  0.1470 -2.9581
    6U       C4  175   4.671   4.109   3.259 -0.0629 -0.8993 -0.2778
    6U       O4  176   4.588   4.201   3.260 -0.1693 -0.0276  0.2044
    6U       N3  177   4.801   4.124   3.215  0.1292  0.2749 -0.0510
    6U       H3  178   4.824   4.217   3.183 -0.9699  1.0520  1.3130
    6U       C2  179   4.897   4.026   3.216  0.3221 -0.0267 -0.6043
    6U       O2  180   5.016   4.057   3.208 -0.0331 -0.1531  0.1971
    6U      C3'  181   4.941   3.678   3.456  0.3908 -0.1699 -0.6141
    6U      H3'  182   4.849   3.722   3.492  0.8073  0.0583  0.2015
    6U      C2'  183   5.022   3.783   3.387 -0.3596  0.0896 -0.4879
    6U      H2'  184   4.998   3.878   3.434 -1.5619  0.2103 -1.3138
    6U      O2'  185   5.161   3.758   3.369 -0.6711 -0.5725  0.2995
    6U     HO2'  186   5.212   3.817   3.425 -1.1068  0.0973  0.0139
    6U      O3'  187   5.000   3.613   3.571  0.0905  0.0433 -0.5951
    7G        P  188   5.018   3.692   3.711 -0.0706 -0.1301 -0.2705
    7G      O1P  189   5.087   3.603   3.799  0.0600  0.4317 -0.5736
    7G      O2P  190   4.884   3.747   3.752 -0.4040  0.2454  0.0061
    7G      O5'  191   5.108   3.816   3.676 -0.0522 -0.7116 -0.9760
    7G      C5'  192   5.248   3.811   3.703 -0.7170 -0.0246 -0.0825
    7G     H5'1  193   5.299   3.728   3.655 -1.1852  0.6549 -1.8632
    7G     H5'2  194   5.263   3.808   3.811  0.1788 -0.4102 -0.2083
    7G      C4'  195   5.317   3.939   3.649 -0.1272  0.0972  0.4866
    7G      H4'  196   5.424   3.919   3.635 -0.2173  0.2044 -0.4184
    7G      O4'  197   5.269   3.983   3.523  0.1321 -0.0026 -0.1154
    7G      C1'  198   5.272   4.124   3.516  0.3733 -0.8137 -0.2605
    7G      H1'  199   5.314   4.169   3.425  0.0505  4.4604  1.8387
    7G       N9  200   5.130   4.177   3.523 -0.0149  0.4564 -1.3950
    7G       C8  201   5.017   4.110   3.556 -0.2157 -0.1021  0.0816
    7G       H8  202   5.023   4.015   3.608  1.0923  0.3996  0.8970
    7G       N7  203   4.911   4.179   3.533 -0.0500 -0.7006  0.3129
    7G       C5  204   4.952   4.303   3.474 -0.0066  0.5125  0.4879
    7G       C6  205   4.879   4.418   3.421  0.3558  1.2418  0.0750
    7G       O6  206   4.759   4.444   3.428  0.0102  0.0929 -0.5992
    7G       N1  207   4.963   4.513   3.374  0.0264 -0.2840 -0.3563
    7G       H1  208   4.925   4.601   3.341  1.6799  0.5782 -0.0571
    7G       C2  209   5.100   4.510   3.390  0.4390  0.0395  0.5697
    7G       N2  210   5.163   4.614   3.341 -0.8924 -0.6751 -0.6442
    7G      H21  211   5.115   4.701   3.326 -2.5111 -1.3773  0.2149
    7G      H22  212   5.264   4.609   3.341 -0.6268  1.5477  2.3156
    7G       N3  213   5.170   4.406   3.430 -0.3370  0.5597  0.0936
    7G       C4  214   5.089   4.302   3.472 -0.4339 -0.6769 -0.0010
    7G      C3'  215   5.299   4.062   3.738 -0.2626  0.2289  0.3063
    7G      H3'  216   5.196   4.080   3.769  0.6280  2.7972  2.2045
    7G      C2'  217   5.346   4.177   3.643 -0.0608  0.0021  0.3805
    7G      H2'  218   5.312   4.276   3.672 -1.5982  0.0496 -1.4078
    7G      O2'  219   5.486   4.163   3.618  0.1012  0.5477 -0.1925
    7G     HO2'  220   5.530   4.145   3.702  1.8257 -0.8588 -1.3058
    7G      O3'  221   5.391   4.068   3.844 -0.0928  0.2657 -0.2318
    8U        P  222   5.351   4.142   3.984 -0.2815  0.2477 -0.1564
    8U      O1P  223   5.477   4.135   4.065 -0.3909  0.0767  0.2538
    8U      O2P  224   5.222   4.090   4.034 -0.4404  0.5337  0.9544
    8U      O5'  225   5.337   4.291   3.952  0.4100  0.3304 -0.3434
    8U      C5'  226   5.445   4.376   3.914 -0.0653  0.2225  0.5157
    8U     H5'1  227   5.480   4.330   3.821 -0.1402 -1.1827  1.1593
    8U     H5'2  228   5.518   4.384   3.994 -1.4029 -0.4076  1.8555
    8U      C4'  229   5.374   4.512   3.870 -0.1535  0.5078 -0.3920
    8U      H4'  230   5.453   4.581   3.841 -0.2080 -0.1570 -2.3113
    8U      O4'  231   5.286   4.494   3.761  0.6867  0.0064  0.5654
    8U      C1'  232   5.189   4.591   3.768 -0.3675 -0.1843  0.1590
    8U      H1'  233   5.198   4.651   3.678 -0.3809  2.1104  1.5985
    8U       N1  234   5.055   4.541   3.770  0.1984 -0.2369  0.1357
    8U       C6  235   5.014   4.429   3.850 -0.0696 -0.1899  0.0004
    8U       H6  236   5.091   4.378   3.907  1.3895  0.9455 -0.8640
    8U       C5  237   4.879   4.399   3.857  0.0502  0.1084  0.2969
    8U       H5  238   4.841   4.316   3.915  1.5414  1.3128  3.2100
    8U       C4  239   4.780   4.474   3.780  0.3914  0.6482 -0.3445
    8U       O4  240   4.660   4.454   3.778  0.3544 -0.8760 -0.2349
    8U       N3  241   4.837   4.570   3.695  0.2373  0.2965  0.4997
    8U       H3  242   4.772   4.610   3.630 -0.7812 -1.6055  0.2744
    8U       C2  243   4.964   4.613   3.693  0.1211  0.1817  0.0451
    8U       O2  244   4.997   4.713   3.620  0.0951  0.4737 -0.0549
    8U      C3'  245   5.294   4.588   3.975 -0.1401  0.0859  0.0444
    8U      H3'  246   5.226   4.519   4.025 -1.1365  0.3106 -0.9611
    8U      C2'  247   5.208   4.681   3.887  0.5669  0.3320  0.3211
    8U      H2'  248   5.115   4.696   3.942 -0.1112  0.8844 -0.9342
    8U      O2'  249   5.269   4.805   3.856 -0.0333 -0.2223 -0.2627
    8U     HO2'  250   5.269   4.846   3.943 -0.1909 -3.0773  1.1989
    8U      O3'  251   5.368   4.669   4.064 -0.2057  0.2329 -0.1466
    9G        P  252   5.311   4.751   4.200 -0.3778 -0.0475  0.4371
    9G      O1P  253   5.437   4.807   4.262 -0.2287  0.7502  0.1546
    9G      O2P  254   5.217   4.672   4.273 -0.5140 -0.3889 -0.0966
    9G      O5'  255   5.226   4.864   4.127 -0.4508 -0.0391 -0.4743
    9G      C5'  256   5.274   5.000   4.117 -0.5331  0.2630  0.2414
    9G     H5'1  257   5.362   5.007   4.054 -1.0577  0.6110 -0.4729
    9G     H5'2  258   5.304   5.037   4.215  0.7021  1.0473 -0.4050
    9G      C4'  259   5.164   5.096   4.061 -0.0693  0.3114  0.1843
    9G      H4'  260   5.216   5.187   4.032  2.0103 -0.2012  2.0344
    9G      O4'  261   5.089   5.038   3.956  0.0878 -0.5421 -0.4290
    9G      C1'  262   4.949   5.066   3.975 -0.5246  0.6641 -0.2860
    9G      H1'  263   4.906   5.118   3.890 -1.3375  0.5641  0.0512
    9G       N9  264   4.861   4.949   4.010 -0.2168 -0.2958  0.4255
    9G       C8  265   4.876   4.823   4.058 -1.0413 -1.0784 -0.3194
    9G       H8  266   4.971   4.792   4.100 -1.5080 -1.4087  0.5174
    9G       N7  267   4.771   4.749   4.054  0.4783  0.3015  0.0395
    9G       C5  268   4.670   4.832   4.004 -0.9515 -0.0679 -0.3957
    9G       C6  269   4.533   4.818   3.964 -0.1315  0.8791  0.0431
    9G       O6  270   4.463   4.717   3.957 -0.4142  0.6407  0.2651
    9G       N1  271   4.461   4.931   3.938  0.0498  0.2483 -0.3423
    9G       H1  272   4.366   4.922   3.904 -0.3696 -2.8987  1.2658
    9G       C2  273   4.531   5.049   3.931  0.1127  0.4212 -0.1131
    9G       N2  274   4.461   5.161   3.904 -0.2699 -0.1023  0.3673
    9G      H21  275   4.363   5.153   3.883 -0.3673  1.8595 -0.0837
    9G      H22  276   4.506   5.251   3.897 -0.7281  0.2124  1.3296
    9G       N3  277   4.660   5.064   3.943 -0.6965  0.3423  0.1488
    9G       C4  278   4.726   4.957   3.985 -0.0691  0.0177  0.2301
    9G      C3'  279   5.063   5.132   4.175  0.6979  0.1855 -0.1509
    9G      H3'  280   5.053   5.045   4.240 -1.1627  0.2021 -0.3498
    9G      C2'  281   4.937   5.158   4.091 -0.6080 -0.0701 -0.9186
    9G      H2'  282   4.849   5.145   4.154  0.1666  1.3900  0.5452
    9G      O2'  283   4.943   5.296   4.052 -0.3880  0.3081 -0.5097
    9G     HO2'  284   4.872   5.342   4.098  0.5471  0.4828  0.8084
    9G      O3'  285   5.086   5.249   4.257  0.0747  0.1294 -0.2540
   10G        P  286   5.018   5.267   4.393 -0.0322  0.1007 -0.3357
   10G      O1P  287   5.080   5.382   4.462 -0.3138  0.2176  0.2534
   10G      O2P  288   5.001   5.136   4.461  0.1102  0.1683  0.0054
   10G      O5'  289   4.865   5.305   4.352 -0.5045  0.0553 -0.2623
   10G      C5'  290   4.826   5.440   4.321 -0.2477  0.2397  0.4852
   10G     H5'1  291   4.878   5.471   4.230 -0.0231  0.0502  0.5467
   10G     H5'2  292   4.846   5.499   4.410 -4.9420 -0.6356  2.3530
   10G      C4'  293   4.679   5.456   4.283 -0.0214 -0.2494 -0.3515
   10G      H4'  294   4.678   5.552   4.231  1.9243  0.2280  0.4025
   10G      O4'  295   4.645   5.350   4.197  0.4337  0.0583 -0.0083
   10G      C1'  296   4.506   5.328   4.223 -0.3832  0.2994  0.4694
   10G      H1'  297   4.451   5.343   4.130  1.1910 -0.5410 -0.6425
   10G       N9  298   4.486   5.184   4.263  0.5173  0.5409 -0.0501
   10G       C8  299   4.571   5.088   4.319 -0.8787  0.1760 -0.9865
   10G       H8  300   4.675   5.108   4.340 -0.7957 -1.0079 -0.1866
   10G       N7  301   4.524   4.967   4.324 -0.1152 -0.1773  0.6040
   10G       C5  302   4.393   4.982   4.285  0.1405  0.8059  0.2729
   10G       C6  303   4.289   4.888   4.265 -0.0191 -0.7332  0.3922
   10G       O6  304   4.293   4.766   4.282  0.5094  0.4117  0.0924
   10G       N1  305   4.168   4.943   4.222 -0.0742  0.3654 -0.3182
   10G       H1  306   4.096   4.882   4.188  1.1581 -0.8067 -0.9318
   10G       C2  307   4.153   5.075   4.189  0.5778 -0.3270 -0.2575
   10G       N2  308   4.034   5.102   4.146  0.3308 -0.6597 -0.2134
   10G      H21  309   3.961   5.033   4.137 -0.4675  0.3963 -2.9830
   10G      H22  310   4.023   5.202   4.136 -0.1023 -0.6742  0.0549
   10G       N3  311   4.242   5.169   4.211 -0.4139  0.2663  0.2907
   10G       C4  312   4.364   5.116   4.250  0.0732 -1.4381 -0.7501
   10G      C3'  313   4.583   5.459   4.401  0.0389 -0.1470 -0.5503
   10G      H3'  314   4.604   5.379   4.472 -0.0113 -0.9741 -1.4574
   10G      C2'  315   4.456   5.433   4.328 -0.2437  0.1744 -0.1681
   10G      H2'  316   4.385   5.386   4.396 -0.6876 -2.3881 -2.2697
   10G      O2'  317   4.399   5.547   4.261  0.2137  0.4092  0.0362
   10G     HO2'  318   4.422   5.614   4.325 -1.5956 -0.2225  1.4419
   10G      O3'  319   4.579   5.583   4.462 -0.1586 -0.6847 -0.3361
   11U        P  320   4.542   5.581   4.614  0.2128  0.2477  0.4314
   11U      O1P  321   4.530   5.723   4.666 -0.2494 -0.0796 -0.0919
   11U      O2P  322   4.645   5.500   4.685  0.0001  0.1647  0.3106
   11U      O5'  323   4.408   5.508   4.638  0.4141  0.5263  0.1010
   11U      C5'  324   4.281   5.567   4.615  0.9999 -0.1472  0.1705
   11U     H5'1  325   4.284   5.596   4.510  3.0174 -0.0085  0.2186
   11U     H5'2  326   4.259   5.655   4.675  0.3811 -0.5120  0.4899
   11U      C4'  327   4.166   5.468   4.625  0.0806  0.0649 -0.2148
   11U      H4'  328   4.072   5.520   4.604 -0.4737 -0.8715 -0.1267
   11U      O4'  329   4.188   5.351   4.540  0.4242 -1.1237  0.0823
   11U      C1'  330   4.088   5.250   4.579 -0.4890 -0.3904 -0.1619
   11U      H1'  331   4.005   5.255   4.508  1.0433  3.2666 -1.9662
   11U       N1  332   4.159   5.115   4.598 -0.0266 -0.1674 -0.3630
   11U       C6  333   4.286   5.095   4.642  0.1379 -0.0954 -0.9032
   11U       H6  334   4.346   5.182   4.665  2.4574 -1.0277 -2.9482
   11U       C5  335   4.346   4.978   4.632  0.3620  0.0659 -0.3176
   11U       H5  336   4.450   4.960   4.656  0.3754 -1.3185 -1.2999
   11U       C4  337   4.275   4.863   4.585 -0.1916 -0.0732 -0.1978
   11U       O4  338   4.323   4.750   4.574  0.0864 -0.2230 -0.0827
   11U       N3  339   4.147   4.886   4.547 -0.0824  0.4471 -0.1868
   11U       H3  340   4.107   4.800   4.511  0.5771 -1.4018  3.1151
   11U       C2  341   4.083   5.008   4.558  0.7356  0.4041 -0.0011
   11U       O2  342   3.963   5.020   4.533  0.2909  0.1900  0.2056
   11U      C3'  343   4.144   5.407   4.764 -0.1731  0.7876  0.4087
   11U      H3'  344   4.240   5.376   4.806 -0.1504 -0.9450 -0.8167
   11U      C2'  345   4.053   5.298   4.718 -0.0909  0.4392 -0.1648
   11U      H2'  346   4.073   5.213   4.784 -1.8655 -0.9202 -1.2745
   11U      O2'  347   3.915   5.329   4.719  0.4512  0.3919  0.2042
   11U     HO2'  348   3.882   5.288   4.799  1.0945 -0.8825 -0.1501
   11U      O3'  349   4.072   5.500   4.852  0.0576  0.4068  0.3242
   12G        P  350   4.036   5.463   5.004 -0.4063  0.0171  0.1424
   12G      O1P  351   3.959   5.579   5.052  0.1960 -0.2289  0.2559
   12G      O2P  352   4.158   5.422   5.074  0.2980  0.0949  0.3223
   12G      O5'  353   3.930   5.342   4.999 -0.0366  0.7377 -0.1751
   12G      C5'  354   3.786   5.359   5.002  1.2398  0.5777  0.1009
   12G     H5'1  355   3.755   5.418   4.915 -2.8921  0.8106  1.5100
   12G     H5'2  356   3.747   5.414   5.088  0.8921 -3.0329  2.4608
   12G      C4'  357   3.719   5.219   4.987  0.2780  0.6902  0.2048
   12G      H4'  358   3.614   5.241   4.965  0.1299  1.1716  1.3205
   12G      O4'  359   3.776   5.150   4.877  0.1643 -0.0404  0.3046
   12G      C1'  360   3.747   5.014   4.894 -0.1686  0.3135 -0.7822
   12G      H1'  361   3.673   4.979   4.822  0.2775 -0.8630 -0.6844
   12G       N9  362   3.865   4.932   4.869 -0.1884  0.0388 -0.8395
   12G       C8  363   3.999   4.960   4.897  0.1509  0.4497 -0.1939
   12G       H8  364   4.028   5.058   4.930 -1.7896  1.2095 -0.6284
   12G       N7  365   4.079   4.855   4.876 -0.3189  0.2241 -0.3206
   12G       C5  366   3.992   4.753   4.834 -0.5206 -0.0053  0.2471
   12G       C6  367   4.010   4.619   4.780  0.7667  0.3125 -0.5426
   12G       O6  368   4.108   4.558   4.744 -0.0992  0.4523 -0.4395
   12G       N1  369   3.891   4.555   4.748  0.0144 -0.1004 -0.7725
   12G       H1  370   3.904   4.462   4.711 -2.0759 -0.6886 -0.1746
   12G       C2  371   3.763   4.603   4.770  0.8699 -0.7857 -0.2124
   12G       N2  372   3.659   4.533   4.737  0.6765  0.0808  0.4856
   12G      H21  373   3.665   4.436   4.707  0.2103 -0.0963  0.9445
   12G      H22  374   3.570   4.565   4.772  0.1714 -1.6769  0.9542
   12G       N3  375   3.744   4.731   4.807  0.0724  0.6905  0.0589
   12G       C4  376   3.862   4.800   4.836  0.0233  0.0035  0.3105
   12G      C3'  377   3.717   5.126   5.105  0.1038 -0.3307  0.4263
   12G      H3'  378   3.813   5.124   5.157 -0.0783  1.7460  0.9329
   12G      C2'  379   3.692   4.990   5.039 -0.0068  0.0635  0.4986
   12G      H2'  380   3.744   4.913   5.097  0.1748 -0.0038  0.2446
   12G      O2'  381   3.558   4.961   5.024  0.1943 -0.5979 -0.0034
   12G     HO2'  382   3.512   4.961   5.108  0.4226  0.1704  0.1315
   12G      O3'  383   3.622   5.156   5.210  0.0784 -0.4911  0.9883
   13C        P  384   3.649   5.109   5.361 -0.4585 -0.4980 -0.0750
   13C      O1P  385   3.529   5.167   5.434 -0.2740 -0.2977 -0.0094
   13C      O2P  386   3.790   5.140   5.399 -0.5034  1.0197  0.0140
   13C      O5'  387   3.631   4.951   5.350 -0.3013 -0.0148  0.3129
   13C      C5'  388   3.501   4.898   5.350  0.2775 -0.4085 -0.6507
   13C     H5'1  389   3.436   4.953   5.282  0.0104 -1.9553 -1.7115
   13C     H5'2  390   3.453   4.914   5.447  1.4670  0.1938 -0.1362
   13C      C4'  391   3.495   4.747   5.317 -0.5392 -0.4222  0.6849
   13C      H4'  392   3.392   4.725   5.288 -0.7490  0.0711  1.0322
   13C      O4'  393   3.577   4.717   5.206 -0.1314 -0.0876 -0.1732
   13C      C1'  394   3.626   4.574   5.203 -0.6919 -0.0724 -0.5226
   13C      H1'  395   3.559   4.513   5.141 -2.1484  2.8390 -2.0463
   13C       N1  396   3.774   4.559   5.163 -0.1995 -0.0250  0.0583
   13C       C6  397   3.865   4.656   5.209  0.0526  0.1116  0.2271
   13C       H6  398   3.834   4.742   5.266 -1.6581 -0.1632 -0.2237
   13C       C5  399   3.992   4.636   5.170 -0.2585  0.2064  0.1185
   13C       H5  400   4.067   4.710   5.191 -2.6362  3.1276 -0.9134
   13C       C4  401   4.034   4.518   5.103  0.4061 -0.1049 -0.3196
   13C       N4  402   4.158   4.493   5.072 -0.2470 -0.4423 -0.2994
   13C      H41  403   4.185   4.411   5.020  2.8099 -0.4948  1.1918
   13C      H42  404   4.225   4.568   5.080  0.3768 -1.1876  2.4067
   13C       N3  405   3.944   4.422   5.078  0.6903 -0.5206 -0.1107
   13C       C2  406   3.813   4.436   5.117  0.0321  0.0031  0.0704
   13C       O2  407   3.729   4.346   5.099 -0.0531  0.6879 -0.9569
   13C      C3'  408   3.542   4.654   5.424 -0.6423  0.0119 -0.2634
   13C      H3'  409   3.627   4.697   5.477 -1.7342 -0.5670  2.0897
   13C      C2'  410   3.603   4.530   5.348 -0.2748 -0.2764 -0.3606
   13C      H2'  411   3.700   4.495   5.383  0.2403  1.2149 -0.2178
   13C      O2'  412   3.509   4.428   5.340 -0.4054  0.4249  0.1589
   13C     HO2'  413   3.493   4.388   5.426 -1.2749  1.2448  0.4023
   13C      O3'  414   3.433   4.622   5.512 -0.5279 -0.0909  0.5470
   14U        P  415   3.468   4.578   5.664 -0.0133 -0.2456 -0.2217
   14U      O1P  416   3.341   4.572   5.736  1.2510  0.1303 -0.2684
   14U      O2P  417   3.577   4.663   5.709  0.3565 -0.1994  0.5569
   14U      O5'  418   3.525   4.431   5.649  0.1063  0.1287  0.7475
   14U      C5'  419   3.439   4.316   5.653  0.1714  0.4809  0.6477
   14U     H5'1  420   3.356   4.332   5.584  0.6463 -1.8704 -0.5668
   14U     H5'2  421   3.396   4.294   5.751 -3.8802  1.6559 -0.6846
   14U      C4'  422   3.514   4.195   5.606 -0.1060 -0.0854  0.6388
   14U      H4'  423   3.438   4.118   5.590 -2.0380  1.8189  0.1882
   14U      O4'  424   3.584   4.211   5.480  0.2411  0.1133 -0.4103
   14U      C1'  425   3.706   4.141   5.490  0.2155  0.1501  0.0580
   14U      H1'  426   3.705   4.057   5.421 -1.6756 -1.6523  2.1177
   14U       N1  427   3.828   4.220   5.471 -0.2556 -0.5033 -0.4042
   14U       C6  428   3.845   4.342   5.535 -0.1279 -0.1000 -0.9656
   14U       H6  429   3.764   4.386   5.591  0.7264 -0.4384  0.5916
   14U       C5  430   3.956   4.418   5.508 -0.2198 -0.1546  0.1401
   14U       H5  431   3.966   4.520   5.542 -1.1101 -0.0584  0.1289
   14U       C4  432   4.057   4.372   5.418  0.3934  0.4001 -0.1034
   14U       O4  433   4.170   4.420   5.399  0.2461  0.0225  0.0768
   14U       N3  434   4.027   4.254   5.349 -0.5646 -0.0008 -0.6565
   14U       H3  435   4.095   4.221   5.282  0.4508  0.9053 -0.1121
   14U       C2  436   3.926   4.172   5.387  0.3342  0.3027  0.0800
   14U       O2  437   3.923   4.060   5.337  0.1735  0.7810  0.7945
   14U      C3'  438   3.605   4.144   5.712 -0.6323 -0.0246  0.1482
   14U      H3'  439   3.648   4.229   5.765 -2.0810  0.0396  1.3004
   14U      C2'  440   3.705   4.070   5.626  0.4444 -0.2054  0.3555
   14U      H2'  441   3.802   4.073   5.676  2.3429  0.7892 -3.0493
   14U      O2'  442   3.661   3.936   5.595 -0.2911 -0.3242  0.1617
   14U     HO2'  443   3.711   3.880   5.654  0.2908  0.3001  0.2683
   14U      O3'  444   3.546   4.063   5.811 -0.1797  0.4191 -0.1196
   15G        P  445   3.617   4.023   5.950 -0.3651 -0.0550  0.0108
   15G      O1P  446   3.529   3.946   6.034 -0.0042 -0.2180  0.0871
   15G      O2P  447   3.690   4.140   6.003  0.1669  0.0047  0.0785
   15G      O5'  448   3.745   3.927   5.896  1.0330  0.2433 -0.1555
   15G      C5'  449   3.721   3.788   5.868 -0.0800  0.0689  0.1624
   15G     H5'1  450   3.625   3.771   5.820  0.3780 -0.3393 -0.6382
   15G     H5'2  451   3.720   3.736   5.964  0.7689 -2.1001 -0.9298
   15G      C4'  452   3.835   3.722   5.786 -0.1015 -0.5336 -0.1058
   15G      H4'  453   3.788   3.633   5.743 -1.2112 -0.4496  0.8503
   15G      O4'  454   3.884   3.803   5.679  0.1939  0.3461  0.0214
   15G      C1'  455   4.009   3.758   5.642  0.1344  0.8974 -0.0457
   15G      H1'  456   4.010   3.716   5.541 -0.9062 -0.2244  0.3800
   15G       N9  457   4.100   3.878   5.643  0.5707 -0.2596 -0.4605
   15G       C8  458   4.066   4.004   5.699 -0.4633 -0.4922  0.1625
   15G       H8  459   3.982   4.035   5.759 -0.2001  1.3154 -0.3459
   15G       N7  460   4.154   4.098   5.664  0.1270  0.3188  0.6088
   15G       C5  461   4.251   4.031   5.589 -0.2061  0.4897 -0.1847
   15G       C6  462   4.370   4.078   5.526 -0.8147 -0.0282  0.0373
   15G       O6  463   4.419   4.190   5.508  0.7439  0.2258 -0.1798
   15G       N1  464   4.447   3.974   5.472 -0.1705 -0.3834 -0.0001
   15G       H1  465   4.540   4.000   5.443 -0.6652 -0.6985 -2.0063
   15G       C2  466   4.405   3.844   5.466  0.0730  0.1724  0.3703
   15G       N2  467   4.488   3.761   5.403  0.1229  0.4299 -0.0256
   15G      H21  468   4.576   3.801   5.374  0.0129  2.4564  2.1890
   15G      H22  469   4.449   3.670   5.383 -0.4503  1.1821 -2.7253
   15G       N3  470   4.288   3.800   5.505 -0.3339  0.4134 -0.4648
   15G       C4  471   4.222   3.896   5.579  0.0652  0.2995 -0.5250
   15G      C3'  472   3.958   3.689   5.867  0.1844  0.0471  0.3105
   15G      H3'  473   3.987   3.783   5.914  2.7271 -1.0690  1.1737
   15G      C2'  474   4.060   3.658   5.747  0.5177  0.8187  0.1629
   15G      H2'  475   4.161   3.676   5.785  0.4875 -1.0143  1.2471
   15G      O2'  476   4.037   3.524   5.697 -0.1544 -0.3536 -0.0224
   15G     HO2'  477   4.029   3.467   5.775  1.5468  0.5355  0.8546
   15G      O3'  478   3.943   3.579   5.955 -0.8060 -0.2440  0.1872
   16G        P  479   3.993   3.600   6.106  0.1965  0.1573 -0.0707
   16G      O1P  480   3.939   3.476   6.170 -0.2719 -0.4765  0.7399
   16G      O2P  481   3.946   3.732   6.152 -0.3306 -0.3278  0.1846
   16G      O5'  482   4.152   3.593   6.098 -0.0325  0.1220 -0.0124
   16G      C5'  483   4.207   3.464   6.071  0.7032  0.1488  0.2145
   16G     H5'1  484   4.161   3.418   5.984  2.1484  0.4398 -0.7416
   16G     H5'2  485   4.200   3.404   6.162  0.7206 -1.0253 -0.5435
   16G      C4'  486   4.356   3.484   6.033 -0.4056 -0.1644 -0.2167
   16G      H4'  487   4.399   3.385   6.019 -0.7797 -0.3020 -0.3946
   16G      O4'  488   4.364   3.565   5.918  0.9793 -0.0371 -0.1409
   16G      C1'  489   4.493   3.621   5.919 -0.1110  0.8348 -0.3087
   16G      H1'  490   4.552   3.571   5.843  0.4802 -1.3254  1.4862
   16G       N9  491   4.477   3.766   5.897 -0.5134  0.1701 -0.1117
   16G       C8  492   4.367   3.841   5.919 -0.3372  0.3835 -0.7642
   16G       H8  493   4.276   3.799   5.960  1.6776 -0.1903  3.6709
   16G       N7  494   4.386   3.969   5.902 -0.1132 -0.3045 -0.2409
   16G       C5  495   4.519   3.971   5.849  0.4303  0.1430 -0.0788
   16G       C6  496   4.602   4.074   5.794  0.1092  0.6991 -0.0640
   16G       O6  497   4.580   4.197   5.783  0.3076  0.0635  0.2825
   16G       N1  498   4.724   4.032   5.752  0.0116  0.7057  0.7629
   16G       H1  499   4.788   4.097   5.709 -0.0113  0.4034  0.2735
   16G       C2  500   4.769   3.906   5.761  0.5703  0.5258  0.2528
   16G       N2  501   4.896   3.891   5.733 -1.0040 -0.3117  0.4264
   16G      H21  502   4.940   3.968   5.685 -2.8809  0.2508 -0.5075
   16G      H22  503   4.944   3.804   5.747  0.8528  0.3995 -1.1127
   16G       N3  504   4.696   3.805   5.805 -0.5695 -0.3886 -0.3089
   16G       C4  505   4.573   3.847   5.843  0.1813  0.0896 -0.6209
   16G      C3'  506   4.442   3.539   6.147 -0.1060  0.1382  0.4577
   16G      H3'  507   4.391   3.626   6.187  0.9759  1.1292 -0.2289
   16G      C2'  508   4.555   3.594   6.055 -0.6732 -0.0742  0.5976
   16G      H2'  509   4.602   3.682   6.098  1.2558 -1.4265  1.4193
   16G      O2'  510   4.658   3.495   6.021  0.6306 -0.2982 -0.3174
   16G     HO2'  511   4.724   3.499   6.091  1.5314 -3.8224 -0.7668
   16G      O3'  512   4.501   3.448   6.241 -1.0009  0.4810  0.0601
   17A        P  513   4.601   3.500   6.355 -0.5476  0.1868  0.3305
   17A      O1P  514   4.624   3.389   6.450 -0.2258  0.7510  0.0927
   17A      O2P  515   4.533   3.616   6.410  0.1797 -0.1737 -0.1261
   17A      O5'  516   4.738   3.543   6.293  0.0336  0.1864 -0.0955
   17A      C5'  517   4.847   3.462   6.271  0.3706  0.4803  0.5735
   17A     H5'1  518   4.817   3.392   6.193  0.4465  0.2031  0.7935
   17A     H5'2  519   4.866   3.414   6.367  2.0913  0.6890  0.3662
   17A      C4'  520   4.969   3.545   6.230 -0.4982  0.0610  0.5292
   17A      H4'  521   5.039   3.468   6.198 -1.1789  0.6928 -2.8441
   17A      O4'  522   4.937   3.629   6.118  0.3226  0.2110 -0.3119
   17A      C1'  523   5.006   3.750   6.126 -0.4258  0.4507  0.2228
   17A      H1'  524   5.062   3.759   6.032  1.0383 -3.3917  0.5176
   17A       N9  525   4.918   3.866   6.128  0.2996  0.5968 -0.2693
   17A       C8  526   4.792   3.874   6.181  0.3344 -0.3152 -0.3451
   17A       H8  527   4.741   3.795   6.235  0.1364 -0.6626 -1.0228
   17A       N7  528   4.733   3.989   6.151  1.2032  0.4221 -0.3575
   17A       C5  529   4.828   4.057   6.075 -0.1889 -0.2648 -0.8759
   17A       C6  530   4.833   4.189   6.025 -0.2754 -0.2303 -0.6394
   17A       N6  531   4.737   4.273   6.048  0.6474  0.2126  0.3240
   17A      H61  532   4.739   4.369   6.015 -0.6823  0.6455  1.4223
   17A      H62  533   4.660   4.234   6.098 -0.8250  0.6637 -1.4781
   17A       N1  534   4.944   4.236   5.972  0.4891 -0.1910  0.6397
   17A       C2  535   5.052   4.157   5.969  0.6541  0.3671  0.5445
   17A       H2  536   5.133   4.198   5.910  0.1738 -0.6730 -0.8933
   17A       N3  537   5.060   4.033   6.015 -0.5881  0.0011 -0.5140
   17A       C4  538   4.943   3.988   6.070 -0.1663  0.1633  0.3269
   17A      C3'  539   5.026   3.643   6.334 -0.2225  0.3255 -0.2192
   17A      H3'  540   4.936   3.684   6.379  0.5349  1.6047  0.1727
   17A      C2'  541   5.097   3.742   6.244 -0.1544 -1.0073 -0.4066
   17A      H2'  542   5.101   3.843   6.285 -0.5911 -1.4176  0.6838
   17A      O2'  543   5.228   3.698   6.207 -0.0341 -0.1610 -0.4117
   17A     HO2'  544   5.260   3.643   6.278 -1.3149 -1.8586 -1.0750
   17A      O3'  545   5.108   3.576   6.422  0.5762 -0.0232 -0.6236
   18C        P  546   5.117   3.629   6.574  0.2909 -0.8039 -0.2759
   18C      O1P  547   5.234   3.569   6.643 -0.3550 -0.8739 -0.6191
   18C      O2P  548   4.977   3.623   6.630 -0.7518  0.7028  0.2650
   18C      O5'  549   5.155   3.787   6.558  0.0691 -0.1883 -0.6488
   18C      C5'  550   5.295   3.817   6.528  0.7697 -0.2590  0.0373
   18C     H5'1  551   5.312   3.755   6.440 -1.0313  0.2198 -0.6881
   18C     H5'2  552   5.357   3.788   6.613 -0.7560 -1.1384  0.9044
   18C      C4'  553   5.314   3.962   6.496 -0.3462  0.0884  0.4273
   18C      H4'  554   5.422   3.961   6.477 -0.2865 -0.3096  0.7676
   18C      O4'  555   5.252   3.996   6.374  0.3858  0.0765  0.0481
   18C      C1'  556   5.217   4.134   6.381  0.4720  0.3191 -0.1030
   18C      H1'  557   5.267   4.187   6.300  0.9718 -1.3874 -0.9613
   18C       N1  558   5.068   4.162   6.378 -0.7989 -0.0567 -0.7418
   18C       C6  559   4.972   4.080   6.431  0.0697 -0.0381 -0.2166
   18C       H6  560   4.994   3.980   6.465  1.3597 -0.1092 -1.2011
   18C       C5  561   4.846   4.129   6.434  0.6720 -0.2794 -0.0667
   18C       H5  562   4.763   4.067   6.466 -0.4865  1.1756 -0.1610
   18C       C4  563   4.814   4.259   6.381  0.2175  0.1366  0.0850
   18C       N4  564   4.693   4.308   6.379  0.0695  0.5753 -0.4351
   18C      H41  565   4.669   4.381   6.313 -0.3937  1.2859  0.4946
   18C      H42  566   4.623   4.243   6.409 -0.3202  1.7904  1.4034
   18C       N3  567   4.910   4.339   6.341 -0.0141  0.5244  0.5688
   18C       C2  568   5.036   4.288   6.333  0.3336 -0.0040 -0.5225
   18C       O2  569   5.124   4.362   6.284 -1.1228  0.2002 -0.5343
   18C      C3'  570   5.291   4.064   6.601 -0.5254  0.0937 -0.1747
   18C      H3'  571   5.196   4.046   6.652 -0.5480  1.7348  0.4373
   18C      C2'  572   5.273   4.191   6.512  0.4220  0.5548  0.1562
   18C      H2'  573   5.211   4.266   6.563  0.7674  0.9648 -0.0200
   18C      O2'  574   5.404   4.245   6.485 -0.1490  0.2846  0.8200
   18C     HO2'  575   5.471   4.182   6.512  0.2132 -0.4026 -1.4647
   18C      O3'  576   5.398   4.069   6.700 -0.3168 -0.7531 -0.5697
   19A        P  577   5.394   4.178   6.819  0.2508  0.0296  0.0060
   19A      O1P  578   5.516   4.154   6.899  0.3950 -0.0542 -0.2746
   19A      O2P  579   5.264   4.170   6.886  0.5261  0.2343 -0.3800
   19A      O5'  580   5.403   4.321   6.763  0.4611 -0.4763 -0.8225
   19A      C5'  581   5.498   4.417   6.820  0.3515  0.5800 -0.0152
   19A     H5'1  582   5.590   4.390   6.767 -0.2011  1.6166 -1.5800
   19A     H5'2  583   5.514   4.398   6.926 -0.0867 -1.2529 -0.2367
   19A      C4'  584   5.461   4.557   6.787  0.3837  0.2589  0.4097
   19A      H4'  585   5.551   4.619   6.789 -0.9755  2.4053 -0.5829
   19A      O4'  586   5.400   4.564   6.659 -0.1376  0.1964  0.1630
   19A      C1'  587   5.307   4.667   6.657 -0.0062  0.2532 -0.3130
   19A      H1'  588   5.327   4.743   6.581 -1.5484 -1.5578 -2.6672
   19A       N9  589   5.174   4.619   6.627 -0.4538 -0.3706 -0.2770
   19A       C8  590   5.122   4.496   6.662  0.4068 -0.2575  0.7932
   19A       H8  591   5.178   4.412   6.702  0.6986 -1.6223 -2.1862
   19A       N7  592   5.006   4.474   6.614  0.2995  0.2632  0.0578
   19A       C5  593   4.968   4.602   6.565 -0.4874 -0.3374 -0.3424
   19A       C6  594   4.856   4.647   6.497 -0.0622 -0.5703  0.3246
   19A       N6  595   4.752   4.576   6.469 -0.4541 -0.0377 -0.9180
   19A      H61  596   4.671   4.615   6.422  0.4148  1.1004 -1.5063
   19A      H62  597   4.761   4.475   6.476  0.3935  0.1470  2.3124
   19A       N1  598   4.842   4.776   6.451 -0.1695 -0.1882 -0.9360
   19A       C2  599   4.946   4.857   6.484 -0.2939 -0.1597 -0.0691
   19A       H2  600   4.926   4.959   6.453 -0.6632 -0.1208  0.2762
   19A       N3  601   5.062   4.824   6.539 -0.5331  0.1289 -0.2454
   19A       C4  602   5.071   4.692   6.569  0.5505 -0.3068 -0.4145
   19A      C3'  603   5.363   4.627   6.887 -0.5816  0.3634  0.1674
   19A      H3'  604   5.290   4.549   6.908 -0.5042  0.5448  1.1569
   19A      C2'  605   5.320   4.739   6.794  0.6442  0.7210  0.3233
   19A      H2'  606   5.225   4.771   6.836 -0.2214  0.5596 -1.4083
   19A      O2'  607   5.409   4.845   6.795  0.2603 -0.6779 -0.4437
   19A     HO2'  608   5.432   4.866   6.885  2.8416  0.9551 -1.3548
   19A      O3'  609   5.415   4.670   7.008 -0.8235  0.6480  0.6067
   20U        P  610   5.320   4.681   7.132 -0.3793  0.2940  0.6240
   20U      O1P  611   5.401   4.707   7.252 -0.2325  0.3320  0.1329
   20U      O2P  612   5.225   4.569   7.135  0.5104  0.2362 -0.2403
   20U      O5'  613   5.229   4.812   7.102  0.2590 -0.0805  0.4300
   20U      C5'  614   5.287   4.942   7.111  0.3002 -0.2071 -0.5013
   20U     H5'1  615   5.384   4.945   7.062  0.2603 -1.1069 -0.6441
   20U     H5'2  616   5.307   4.981   7.210  0.8380 -0.3590 -0.5473
   20U      C4'  617   5.198   5.047   7.049  0.6822 -0.6283 -0.3711
   20U      H4'  618   5.247   5.144   7.053  1.0110 -0.7665 -0.9081
   20U      O4'  619   5.144   5.010   6.924 -0.2936  0.5697  0.2460
   20U      C1'  620   5.007   5.035   6.902  0.4010  0.1717 -0.3690
   20U      H1'  621   4.993   5.107   6.821 -0.6369 -0.0624 -0.4105
   20U       N1  622   4.927   4.917   6.876  0.2919 -0.2642  0.6059
   20U       C6  623   4.958   4.792   6.923 -0.1253  0.2634 -0.1890
   20U       H6  624   5.051   4.766   6.971 -0.5987 -0.8650  0.1495
   20U       C5  625   4.870   4.691   6.906  0.0223  0.7363  0.3172
   20U       H5  626   4.908   4.590   6.918  2.2865  1.4714 -0.3087
   20U       C4  627   4.745   4.700   6.841  0.1253 -0.6524  0.1719
   20U       O4  628   4.676   4.605   6.815 -0.0481  0.3466 -0.2115
   20U       N3  629   4.724   4.831   6.796  0.3154  0.0003  0.4387
   20U       H3  630   4.628   4.842   6.766  0.1933 -1.2377  0.3486
   20U       C2  631   4.803   4.948   6.822  0.2220 -0.2759 -0.0463
   20U       O2  632   4.751   5.057   6.813 -0.5136 -0.4819 -0.4487
   20U      C3'  633   5.071   5.056   7.136 -0.3885 -0.3248  0.4196
   20U      H3'  634   5.048   4.962   7.185 -0.1165 -0.9321 -0.5881
   20U      C2'  635   4.968   5.105   7.039 -0.0637 -0.6117 -0.2166
   20U      H2'  636   4.877   5.059   7.078 -0.1534  0.9922  1.6110
   20U      O2'  637   4.980   5.249   7.032 -0.1068  0.0670  0.3739
   20U     HO2'  638   4.908   5.291   7.081 -0.0019  0.3110  0.3227
   20U      O3'  639   5.102   5.148   7.238  0.2757  0.3939 -0.5321
   21U3       P  640   5.021   5.164   7.373 -0.0057 -0.3980 -0.3616
   21U3     O1P  641   5.115   5.227   7.474  0.5037  0.0723 -0.4694
   21U3     O2P  642   4.956   5.033   7.412  0.1979  0.3989  0.1094
   21U3     O5'  643   4.896   5.254   7.325 -0.0330  0.5721  0.2583
   21U3     C5'  644   4.896   5.391   7.313  0.5143  0.0776 -0.3473
   21U3    H5'1  645   4.963   5.426   7.235  1.5586  1.6822  1.1854
   21U3    H5'2  646   4.935   5.440   7.402 -0.2149  0.2364 -0.1054
   21U3     C4'  647   4.751   5.436   7.294  1.0077 -0.2896  0.5816
   21U3     H4'  648   4.743   5.544   7.304  0.6276 -0.3023  0.4306
   21U3     O4'  649   4.703   5.407   7.163 -0.5447  0.4827  0.4007
   21U3     C1'  650   4.571   5.359   7.159 -0.1890 -0.4808  0.5818
   21U3     H1'  651   4.527   5.423   7.082  1.5604  1.1005  0.8211
   21U3      N1  652   4.543   5.217   7.118 -0.0286 -0.0598 -0.4978
   21U3      C6  653   4.623   5.117   7.174  0.0525  0.5403  0.3615
   21U3      H6  654   4.699   5.136   7.249  0.0219 -2.0594  1.1615
   21U3      C5  655   4.615   4.988   7.133  0.1011 -0.4778 -0.4494
   21U3      H5  656   4.678   4.911   7.174 -1.5149 -0.3855  2.4229
   21U3      C4  657   4.509   4.949   7.041 -0.1112  0.6674 -0.4583
   21U3      O4  658   4.493   4.833   6.998 -0.0324  0.1383 -0.3749
   21U3      N3  659   4.424   5.051   7.000 -0.5933 -0.0951 -0.4192
   21U3      H3  660   4.359   5.030   6.925 -1.1943 -0.7201  0.2617
   21U3      C2  661   4.443   5.186   7.027  0.5688  0.2329 -0.7036
   21U3      O2  662   4.364   5.269   6.987  0.5115  0.1186  0.5335
   21U3     C3'  663   4.641   5.394   7.387  0.2478 -0.2843  0.5836
   21U3     H3'  664   4.661   5.292   7.422  1.0252 -1.0342 -1.8273
   21U3     C2'  665   4.516   5.396   7.297 -0.3451 -0.8119  0.2652
   21U3     H2'  666   4.436   5.329   7.330  0.4186 -1.4706  0.7967
   21U3     O2'  667   4.466   5.528   7.286 -0.0660 -0.1238  0.5179
   21U3    HO2'  668   4.375   5.521   7.255  0.4821  1.7573 -1.8733
   21U3     O3'  669   4.626   5.481   7.502 -0.1583 -0.0288 -0.3063
   21U3     H3T  670   4.559   5.436   7.555  0.6121 -2.1010 -0.9788
   22A5     H5T  671   3.664   4.597   6.580  0.4038 -1.2266 -0.7512
   22A5     O5'  672   3.612   4.564   6.654  0.0204  0.2890 -0.3124
   22A5     C5'  673   3.489   4.637   6.654 -0.0559 -0.3092  0.5141
   22A5    H5'1  674   3.413   4.590   6.716 -0.9786 -2.3348 -1.9687
   22A5    H5'2  675   3.442   4.624   6.556 -0.4097 -0.5018  0.7065
   22A5     C4'  676   3.508   4.782   6.700  0.0803 -0.1344 -0.1936
   22A5     H4'  677   3.411   4.828   6.715 -0.4707 -0.9236 -1.2391
   22A5     O4'  678   3.567   4.771   6.834 -0.1137  0.3409  0.1607
   22A5     C1'  679   3.674   4.873   6.845  1.0545  0.2607  0.0933
   22A5     H1'  680   3.649   4.932   6.933  0.8381 -0.4124  0.4878
   22A5      N9  681   3.791   4.789   6.878 -0.0245  0.2576 -0.4062
   22A5      C8  682   3.816   4.651   6.871 -0.2635 -0.2352  0.3177
   22A5      H8  683   3.743   4.574   6.853 -0.3568  0.2994 -1.8421
   22A5      N7  684   3.942   4.621   6.885  1.0457  0.4031 -0.5268
   22A5      C5  685   4.002   4.740   6.897  0.4521 -0.2861  0.5295
   22A5      C6  686   4.132   4.788   6.930 -0.5275 -0.1865 -0.3539
   22A5      N6  687   4.236   4.716   6.942  0.1412 -0.2678 -0.2338
   22A5     H61  688   4.323   4.763   6.962  0.2749 -0.1278 -1.1171
   22A5     H62  689   4.221   4.616   6.938 -0.2391 -0.3842  2.3883
   22A5      N1  690   4.161   4.913   6.927  0.3978  0.1670 -0.3862
   22A5      C2  691   4.062   5.005   6.928 -0.0915 -0.1954  0.4496
   22A5      H2  692   4.093   5.108   6.942 -0.6702  0.3579 -1.9150
   22A5      N3  693   3.934   4.977   6.908  0.0614 -0.2273  0.1321
   22A5      C4  694   3.913   4.842   6.894  0.0776 -0.3574  0.4754
   22A5     C3'  695   3.601   4.867   6.613 -0.0840  0.1317 -0.1653
   22A5     H3'  696   3.675   4.798   6.571  0.0279  0.1883 -0.0638
   22A5     C2'  697   3.677   4.950   6.708  0.8444 -0.4099  0.0408
   22A5     H2'  698   3.779   4.972   6.676  1.2539 -1.2521  0.7428
   22A5     O2'  699   3.603   5.074   6.719 -0.3387  0.1002 -0.4866
   22A5    HO2'  700   3.515   5.065   6.682 -1.9993  3.5024  2.0419
   22A5     O3'  701   3.524   4.929   6.517 -0.0316 -0.4159  0.4380
   23A        P  702   3.582   4.969   6.377 -0.0601  0.6682  0.4458
   23A      O1P  703   3.482   5.053   6.310  0.1182  0.2727 -0.2246
   23A      O2P  704   3.622   4.843   6.311  0.3848 -0.3069 -0.0741
   23A      O5'  705   3.716   5.051   6.416  0.7268  0.0307 -0.1546
   23A      C5'  706   3.712   5.196   6.443 -0.3386 -0.2115 -0.4228
   23A     H5'1  707   3.674   5.226   6.541 -0.3339  0.7294 -0.6961
   23A     H5'2  708   3.673   5.257   6.362  1.1891  0.0422 -1.0087
   23A      C4'  709   3.861   5.244   6.449 -0.0804  0.4558  0.2977
   23A      H4'  710   3.857   5.353   6.447  0.0099  0.4487 -1.1388
   23A      O4'  711   3.930   5.199   6.568 -0.1006  0.1582 -0.1484
   23A      C1'  712   4.070   5.194   6.552 -0.1775  0.0818 -0.4641
   23A      H1'  713   4.123   5.253   6.627 -1.3070  1.0914 -0.4301
   23A       N9  714   4.118   5.057   6.558  0.4669  0.1839 -0.5318
   23A       C8  715   4.055   4.939   6.532 -0.1571 -0.3292  0.3806
   23A       H8  716   3.957   4.936   6.487  0.3767 -0.3678 -0.8320
   23A       N7  717   4.118   4.830   6.570 -0.4442 -0.3090  0.4126
   23A       C5  718   4.244   4.884   6.608  0.0651  0.5439  0.2227
   23A       C6  719   4.369   4.823   6.644  0.3119 -0.2816 -0.2368
   23A       N6  720   4.403   4.698   6.657 -0.2237  0.1756  0.0092
   23A      H61  721   4.497   4.688   6.693 -0.4776 -0.0899  0.6168
   23A      H62  722   4.351   4.631   6.602 -0.2683  1.0322 -1.0316
   23A       N1  723   4.467   4.905   6.670 -0.4824  0.1436  0.1493
   23A       C2  724   4.458   5.036   6.658 -0.3710 -0.3002  0.4347
   23A       H2  725   4.541   5.095   6.693 -1.2923  0.6345  1.1068
   23A       N3  726   4.346   5.111   6.625  0.0801  0.4117 -0.6385
   23A       C4  727   4.240   5.025   6.604  0.5089 -0.4364 -0.0670
   23A      C3'  728   3.953   5.215   6.328  0.2082  0.3320 -0.0914
   23A      H3'  729   3.949   5.111   6.295  2.5548  0.3417 -0.5860
   23A      C2'  730   4.084   5.243   6.410  0.4354 -0.4192 -0.3598
   23A      H2'  731   4.174   5.204   6.361  0.3039  1.1568 -1.9492
   23A      O2'  732   4.104   5.385   6.417  0.0882  0.4820  0.5662
   23A     HO2'  733   4.052   5.430   6.350  1.0685  0.0083 -0.5512
   23A      O3'  734   3.938   5.312   6.222 -0.4900 -0.0053  0.1678
   24U        P  735   3.996   5.293   6.071  0.5542 -0.4002 -0.1161
   24U      O1P  736   3.956   5.409   5.985 -0.2072  0.3330 -0.6205
   24U      O2P  737   3.956   5.161   6.024  0.0704 -0.5045 -0.0488
   24U      O5'  738   4.150   5.298   6.076 -0.4037 -0.0556 -0.4359
   24U      C5'  739   4.221   5.416   6.109 -0.3111 -0.2909  0.0461
   24U     H5'1  740   4.160   5.472   6.181  0.8480 -0.3145  1.0714
   24U     H5'2  741   4.226   5.479   6.020 -0.3833  0.8791  0.8465
   24U      C4'  742   4.363   5.411   6.166  0.0233  1.0351 -0.4101
   24U      H4'  743   4.401   5.508   6.197  0.3145  1.0021 -0.6490
   24U      O4'  744   4.372   5.320   6.276 -0.9426  0.2669  0.2830
   24U      C1'  745   4.503   5.252   6.274 -0.8930 -0.1720 -0.0098
   24U      H1'  746   4.547   5.288   6.368 -0.0886 -3.0168  0.7966
   24U       N1  747   4.500   5.107   6.275 -0.3772 -0.2422 -0.5947
   24U       C6  748   4.392   5.026   6.237 -0.4335 -0.4226  0.4577
   24U       H6  749   4.303   5.074   6.199 -0.1934  0.5946  1.1192
   24U       C5  750   4.393   4.897   6.263  0.0904 -0.5017 -0.0190
   24U       H5  751   4.301   4.845   6.238 -0.2592 -0.0875  0.3930
   24U       C4  752   4.500   4.829   6.329 -0.1110  0.2865  0.2350
   24U       O4  753   4.499   4.709   6.350  0.1569 -0.6253  0.1248
   24U       N3  754   4.611   4.905   6.351 -0.2098 -0.0962 -0.2138
   24U       H3  755   4.686   4.859   6.400  0.0834  1.0628  0.4587
   24U       C2  756   4.609   5.046   6.338  0.0120 -0.8316 -0.4771
   24U       O2  757   4.710   5.101   6.384  0.1133 -0.6843  0.1572
   24U      C3'  758   4.473   5.368   6.059  0.1085  0.5528 -0.6404
   24U      H3'  759   4.443   5.284   5.996 -0.4566 -1.0825  1.6629
   24U      C2'  760   4.581   5.310   6.153 -0.2974 -0.7503 -0.5954
   24U      H2'  761   4.637   5.237   6.094  2.6015  0.1846  0.7773
   24U      O2'  762   4.664   5.416   6.200 -0.6043  0.2069 -0.0268
   24U     HO2'  763   4.660   5.487   6.136 -0.6786  0.7741  0.5958
   24U      O3'  764   4.518   5.471   5.981  0.0575 -0.0276 -0.3175
   25G        P  765   4.578   5.453   5.838 -0.1162 -0.4190  0.0831
   25G      O1P  766   4.639   5.585   5.801  0.0158  0.1202 -0.6632
   25G      O2P  767   4.473   5.397   5.755 -0.1293 -0.0051 -0.4870
   25G      O5'  768   4.690   5.347   5.863  0.3768 -0.0503 -0.3688
   25G      C5'  769   4.818   5.394   5.898  0.0717  0.0726 -0.2975
   25G     H5'1  770   4.818   5.470   5.977  1.6269 -2.0612  1.9096
   25G     H5'2  771   4.847   5.439   5.803 -0.8314  0.3745 -0.4310
   25G      C4'  772   4.920   5.286   5.925  0.3907 -0.1666 -0.5667
   25G      H4'  773   5.013   5.337   5.948 -0.2319  0.3542  0.9418
   25G      O4'  774   4.875   5.195   6.027  0.0623 -0.1224 -0.2882
   25G      C1'  775   4.937   5.069   6.011  0.5758  0.5465  0.1683
   25G      H1'  776   5.023   5.054   6.076  0.8164 -1.0899 -0.4795
   25G       N9  777   4.840   4.957   6.032 -0.2205  0.1253  0.4444
   25G       C8  778   4.700   4.949   5.996  0.0121  0.0531 -0.2979
   25G       H8  779   4.650   5.020   5.931  0.4462 -0.7737 -1.5794
   25G       N7  780   4.641   4.835   6.027 -0.3709 -0.5581  0.3279
   25G       C5  781   4.743   4.765   6.088 -0.1363 -0.1656  0.0467
   25G       C6  782   4.740   4.630   6.142 -0.3347 -0.3348 -0.2922
   25G       O6  783   4.651   4.542   6.153 -0.1785 -0.1133 -0.2055
   25G       N1  784   4.869   4.593   6.185  0.2312  0.0788 -0.1113
   25G       H1  785   4.869   4.510   6.242 -2.6747  0.1135  0.1013
   25G       C2  786   4.977   4.676   6.190  0.6228 -0.4493 -1.3386
   25G       N2  787   5.093   4.628   6.222  0.7661  0.1634  0.2186
   25G      H21  788   5.101   4.529   6.239 -0.8808 -0.2882 -1.2703
   25G      H22  789   5.171   4.692   6.223  0.2481  0.8309  2.2384
   25G       N3  790   4.980   4.800   6.147  0.1199 -0.2350 -0.2109
   25G       C4  791   4.863   4.837   6.094  0.6842 -0.0151 -0.2018
   25G      C3'  792   4.932   5.188   5.806  0.8515 -1.0545  0.3235
   25G      H3'  793   4.838   5.167   5.755 -0.5106  1.1492  1.7589
   25G      C2'  794   4.983   5.056   5.866 -0.6616  0.2220  0.7835
   25G      H2'  795   4.942   4.962   5.829  1.7864 -0.6178 -0.0054
   25G      O2'  796   5.124   5.040   5.873  0.5036  0.1112  0.1603
   25G     HO2'  797   5.148   5.032   5.781  0.1107 -0.6858  0.1182
   25G      O3'  798   5.034   5.249   5.725 -0.0428 -0.1501  0.1810
   26U        P  799   5.086   5.191   5.576 -0.0824  0.0135 -0.2196
   26U      O1P  800   5.182   5.296   5.530  0.1270  0.4552 -0.0281
   26U      O2P  801   4.968   5.173   5.496  0.1417 -0.0877  0.5685
   26U      O5'  802   5.154   5.049   5.588 -0.2526 -0.4863  0.5413
   26U      C5'  803   5.293   5.034   5.613  0.0785 -0.0787  0.4099
   26U     H5'1  804   5.316   5.091   5.703  2.8340 -0.9554  0.3445
   26U     H5'2  805   5.356   5.076   5.535 -1.2833  0.5216 -0.4024
   26U      C4'  806   5.318   4.881   5.638  0.2120  0.1995  0.2364
   26U      H4'  807   5.424   4.872   5.660  0.4392 -1.1527 -1.2286
   26U      O4'  808   5.245   4.835   5.744 -0.3973  0.6071 -0.6205
   26U      C1'  809   5.223   4.688   5.733 -0.4176 -0.7052 -0.4195
   26U      H1'  810   5.279   4.645   5.816  0.9318  1.6119 -0.0305
   26U       N1  811   5.086   4.652   5.762  0.9230 -1.0208 -0.1628
   26U       C6  812   4.978   4.735   5.740 -0.4407  0.0230  0.3267
   26U       H6  813   4.995   4.833   5.699 -0.2799  1.5461  3.7293
   26U       C5  814   4.851   4.690   5.763  0.3043 -0.3977 -0.1071
   26U       H5  815   4.763   4.746   5.736 -0.9501 -2.1449  0.1608
   26U       C4  816   4.827   4.549   5.804 -0.0783  0.2960 -0.4470
   26U       O4  817   4.717   4.504   5.838  0.1850  0.4868 -0.1672
   26U       N3  818   4.941   4.474   5.819 -0.0107 -0.0509  0.1431
   26U       H3  819   4.944   4.379   5.853  0.3798 -1.2243 -2.8316
   26U       C2  820   5.072   4.519   5.805  0.5170  0.1085  0.3222
   26U       O2  821   5.160   4.440   5.848  0.3694 -0.0089  0.2261
   26U      C3'  822   5.289   4.787   5.524 -0.2645 -0.3343 -0.1124
   26U      H3'  823   5.187   4.808   5.493 -0.8957 -0.9648  1.3949
   26U      C2'  824   5.285   4.650   5.597 -0.7795  0.2312  0.1065
   26U      H2'  825   5.222   4.582   5.539  0.0839  0.9819 -1.7857
   26U      O2'  826   5.416   4.592   5.632  0.5238  0.1376  0.3700
   26U     HO2'  827   5.413   4.497   5.623 -0.4179 -0.1226  2.6926
   26U      O3'  828   5.387   4.800   5.427  0.6107 -0.2055  0.0965
   27C        P  829   5.376   4.719   5.289 -0.5135  0.2158  0.5687
   27C      O1P  830   5.497   4.751   5.210 -0.5533 -0.2302 -0.1928
   27C      O2P  831   5.248   4.760   5.232 -0.2172 -0.0785 -0.4847
   27C      O5'  832   5.369   4.563   5.303 -0.7308  0.2686 -0.7563
   27C      C5'  833   5.480   4.485   5.344  0.3204  0.2293 -0.3337
   27C     H5'1  834   5.547   4.538   5.411  2.0730 -1.1868 -0.8720
   27C     H5'2  835   5.537   4.457   5.256  1.1209 -0.2634  0.3306
   27C      C4'  836   5.435   4.346   5.398 -0.2453  0.4191  1.0157
   27C      H4'  837   5.521   4.287   5.429 -0.2959 -0.1705  0.0570
   27C      O4'  838   5.349   4.358   5.510  0.6918  0.5546  0.4781
   27C      C1'  839   5.278   4.230   5.528  0.1111 -0.5502 -0.6450
   27C      H1'  840   5.317   4.186   5.619  1.1613  1.4340 -0.0851
   27C       N1  841   5.128   4.262   5.533 -0.0484  0.5895 -0.4755
   27C       C6  842   5.080   4.377   5.485  0.1579  0.0164 -0.5485
   27C       H6  843   5.134   4.440   5.417  1.0721 -0.2123 -0.0473
   27C       C5  844   4.947   4.400   5.492  0.0701 -0.1859 -0.9999
   27C       H5  845   4.895   4.485   5.449 -2.0332  0.2478  2.0554
   27C       C4  846   4.868   4.306   5.563  0.0592  0.0338 -0.3873
   27C       N4  847   4.748   4.332   5.585  0.7155  0.2333 -0.0567
   27C      H41  848   4.704   4.286   5.664 -0.4815  0.1806 -0.7291
   27C      H42  849   4.718   4.414   5.535  3.2877  0.4322 -1.4642
   27C       N3  850   4.918   4.196   5.620  0.0527 -0.1228  0.0516
   27C       C2  851   5.045   4.174   5.604 -0.4357 -0.0647  0.2195
   27C       O2  852   5.088   4.068   5.653 -0.1013 -0.0627 -0.6139
   27C      C3'  853   5.355   4.259   5.299 -0.2946 -0.5432  0.3003
   27C      H3'  854   5.270   4.312   5.256  0.6773  1.0471  0.2901
   27C      C2'  855   5.314   4.150   5.400  0.0040 -0.0862 -0.0726
   27C      H2'  856   5.228   4.094   5.366  0.1951  0.1119 -0.8988
   27C      O2'  857   5.427   4.064   5.431 -0.2289 -0.3490  0.0579
   27C     HO2'  858   5.479   4.051   5.351  1.9914 -1.8730  1.6293
   27C      O3'  859   5.448   4.214   5.199  0.7972  0.0116 -0.1257
   28C        P  860   5.390   4.163   5.056  0.3245 -0.0614 -0.0100
   28C      O1P  861   5.506   4.095   4.990  0.2622  0.1703  0.3786
   28C      O2P  862   5.329   4.279   4.989  0.8620  0.1433 -0.0650
   28C      O5'  863   5.279   4.051   5.084  0.3781  0.3053 -0.3308
   28C      C5'  864   5.319   3.917   5.102  0.7557 -0.3113 -0.1073
   28C     H5'1  865   5.418   3.911   5.148  0.0935 -0.0993  1.4085
   28C     H5'2  866   5.333   3.883   5.000 -0.3418 -0.0662 -0.3590
   28C      C4'  867   5.213   3.826   5.174  0.2665  0.3133 -0.8450
   28C      H4'  868   5.260   3.731   5.199 -2.3195 -0.6451  0.7186
   28C      O4'  869   5.161   3.884   5.295  0.1430 -0.0983 -0.0935
   28C      C1'  870   5.022   3.848   5.312  0.7334 -0.3365 -0.1323
   28C      H1'  871   5.009   3.794   5.405  2.2356  0.9117  0.8540
   28C       N1  872   4.925   3.962   5.306  0.0376  0.0828  0.0385
   28C       C6  873   4.943   4.070   5.228  0.2893 -0.5227 -0.6168
   28C       H6  874   5.038   4.083   5.179 -0.0720 -0.6326 -1.3619
   28C       C5  875   4.851   4.166   5.234  0.0380 -0.5674 -0.4983
   28C       H5  876   4.868   4.262   5.188 -1.1452 -0.4015 -0.6071
   28C       C4  877   4.732   4.143   5.310  0.0293  0.6238 -0.2464
   28C       N4  878   4.645   4.231   5.326  0.5571 -0.1553 -0.4002
   28C      H41  879   4.562   4.218   5.382 -0.9288  1.4503 -2.0792
   28C      H42  880   4.666   4.325   5.297 -1.1757  0.0027 -1.2484
   28C       N3  881   4.700   4.034   5.377  0.2611 -0.0885  0.0364
   28C       C2  882   4.800   3.940   5.369  0.5851 -0.5573 -0.2702
   28C       O2  883   4.776   3.828   5.407  0.1903 -0.1784  0.2341
   28C      C3'  884   5.090   3.788   5.095 -0.3334 -0.5798  0.5664
   28C      H3'  885   5.054   3.872   5.036 -3.3559 -0.9626  1.7286
   28C      C2'  886   4.990   3.744   5.208 -0.0827  0.0429 -0.3788
   28C      H2'  887   4.885   3.748   5.179 -0.8148 -2.3224  1.5282
   28C      O2'  888   5.022   3.608   5.257 -0.4457 -0.5261  0.4440
   28C     HO2'  889   5.067   3.577   5.178  0.8003  0.6262  0.6558
   28C      O3'  890   5.116   3.684   5.005 -0.2823 -0.2447  0.0933
   29A        P  891   5.054   3.674   4.853 -0.0050  0.2366 -0.1616
   29A      O1P  892   5.095   3.538   4.804 -0.1653 -0.1723  0.4140
   29A      O2P  893   5.096   3.801   4.779  0.1797  0.8752 -0.4274
   29A      O5'  894   4.895   3.686   4.881  0.2536 -0.0977 -0.2602
   29A      C5'  895   4.832   3.570   4.915  0.1785  0.8668 -0.5055
   29A     H5'1  896   4.874   3.525   5.005 -0.7929  0.7254 -0.1026
   29A     H5'2  897   4.840   3.492   4.839 -1.1941 -2.5627  2.5686
   29A      C4'  898   4.684   3.596   4.939 -0.0816  0.3180  0.0774
   29A      H4'  899   4.639   3.499   4.958 -0.6048  0.6860  0.7905
   29A      O4'  900   4.663   3.683   5.051  0.1955 -0.0036  0.0230
   29A      C1'  901   4.528   3.729   5.047  0.0312 -0.6458 -0.2991
   29A      H1'  902   4.472   3.683   5.128  1.0785 -0.8886  0.3164
   29A       N9  903   4.520   3.880   5.041 -0.2874  0.2128  0.0010
   29A       C8  904   4.596   3.979   4.983 -0.2031  0.7254 -0.4178
   29A       H8  905   4.678   3.957   4.916 -0.3227  0.8052 -0.5935
   29A       N7  906   4.562   4.100   5.016  0.3127  0.1217  0.4417
   29A       C5  907   4.443   4.078   5.092  0.4546 -0.1935  0.5080
   29A       C6  908   4.353   4.158   5.165 -0.5568  0.3659 -0.5268
   29A       N6  909   4.366   4.286   5.192 -0.1438  0.0514  0.1479
   29A      H61  910   4.298   4.337   5.246  0.5601  0.7705  0.3881
   29A      H62  911   4.436   4.337   5.139 -0.2560  0.5762  0.4917
   29A       N1  912   4.242   4.104   5.209 -0.4866 -0.0025 -0.4804
   29A       C2  913   4.217   3.976   5.196 -0.4910 -0.0712  0.4514
   29A       H2  914   4.125   3.932   5.232 -1.1114 -0.4437 -1.4871
   29A       N3  915   4.295   3.887   5.128  0.0384 -0.8386  0.5034
   29A       C4  916   4.405   3.946   5.077 -0.3328 -0.8465  0.4093
   29A      C3'  917   4.596   3.648   4.826  0.0129 -0.7690 -0.1526
   29A      H3'  918   4.648   3.739   4.798  0.1914 -0.2612  1.6739
   29A      C2'  919   4.467   3.677   4.916 -0.2950  0.1985  0.0615
   29A      H2'  920   4.393   3.744   4.872  0.6594  1.9400  1.0346
   29A      O2'  921   4.403   3.556   4.943  0.1409  0.1482 -0.0113
   29A     HO2'  922   4.318   3.562   4.898  1.0025 -0.0644 -1.7705
   29A      O3'  923   4.590   3.563   4.711  0.2447 -0.5338 -0.6130
   30G        P  924   4.552   3.620   4.570 -0.3489 -0.4464  0.2002
   30G      O1P  925   4.595   3.515   4.476 -0.2193 -0.3906 -0.8481
   30G      O2P  926   4.594   3.758   4.549 -0.5961 -0.1354  0.2559
   30G      O5'  927   4.390   3.613   4.581  0.5890 -0.5596 -0.0117
   30G      C5'  928   4.322   3.490   4.603 -0.0362 -0.9417  0.1406
   30G     H5'1  929   4.372   3.424   4.673 -2.5129 -1.6762  1.3343
   30G     H5'2  930   4.318   3.422   4.517  0.2815  1.2746 -1.7453
   30G      C4'  931   4.182   3.508   4.656  0.3934 -0.5936  0.3235
   30G      H4'  932   4.128   3.415   4.673  0.7585 -1.2613 -1.8255
   30G      O4'  933   4.184   3.587   4.775 -0.3059  0.3947 -0.0532
   30G      C1'  934   4.087   3.699   4.769  0.5530  0.5779  0.1761
   30G      H1'  935   4.031   3.700   4.862 -0.3903 -1.6460 -0.3106
   30G       N9  936   4.151   3.837   4.753  0.1174  0.0161 -0.5822
   30G       C8  937   4.273   3.878   4.708  0.2392  0.5227  0.3587
   30G       H8  938   4.342   3.816   4.652 -1.3722 -1.1595  0.1650
   30G       N7  939   4.314   3.990   4.749  0.6841  0.1795  0.4817
   30G       C5  940   4.202   4.043   4.814  0.3964  0.2026 -0.8155
   30G       C6  941   4.176   4.162   4.884  0.0440 -0.9487  0.0623
   30G       O6  942   4.241   4.268   4.898 -0.4331 -0.0442 -0.3135
   30G       N1  943   4.064   4.174   4.951 -0.1914  0.3011  0.0514
   30G       H1  944   4.046   4.257   5.005 -1.4866  0.8883 -1.2346
   30G       C2  945   3.979   4.071   4.961  0.6729 -0.3730 -0.1517
   30G       N2  946   3.871   4.095   5.028 -0.6434  0.7203 -0.1325
   30G      H21  947   3.861   4.190   5.060  1.1460  0.7097  0.5665
   30G      H22  948   3.796   4.028   5.035 -0.4231  0.3955 -0.7723
   30G       N3  949   3.989   3.953   4.894 -0.1008 -0.2176  0.0166
   30G       C4  950   4.105   3.947   4.819  0.8325  0.1496  0.3981
   30G      C3'  951   4.086   3.585   4.554 -0.4057  0.2876  0.4263
   30G      H3'  952   4.143   3.662   4.502  0.7699 -0.6354  0.3167
   30G      C2'  953   3.993   3.650   4.652 -0.1277  0.7180 -0.7387
   30G      H2'  954   3.957   3.744   4.611  0.2963  1.9719  1.5880
   30G      O2'  955   3.896   3.552   4.702 -0.0124  0.0816  0.4354
   30G     HO2'  956   3.867   3.508   4.622  0.4161  0.8672 -0.1655
   30G      O3'  957   4.002   3.509   4.464  0.1202  0.0968  0.1922
   31C        P  958   3.939   3.575   4.335  0.3876  0.0253  0.1689
   31C      O1P  959   3.857   3.470   4.271 -0.1417 -0.3705 -0.5153
   31C      O2P  960   4.053   3.631   4.261  0.3159 -0.2281  0.0879
   31C      O5'  961   3.846   3.690   4.385 -0.1891 -0.7475 -0.2332
   31C      C5'  962   3.714   3.669   4.431 -0.3308 -0.1984  0.2043
   31C     H5'1  963   3.720   3.586   4.502  0.1958 -0.4481 -0.1286
   31C     H5'2  964   3.650   3.635   4.350  0.3923 -0.7971 -0.1288
   31C      C4'  965   3.654   3.788   4.508 -0.1664  0.5612  0.8632
   31C      H4'  966   3.562   3.752   4.552  0.5906 -1.9297  0.5533
   31C      O4'  967   3.736   3.843   4.601 -0.0528 -0.6455 -0.3384
   31C      C1'  968   3.712   3.989   4.602 -0.0633  1.0859  0.1519
   31C      H1'  969   3.673   4.017   4.700 -1.5661  0.3341 -0.1978
   31C       N1  970   3.836   4.072   4.582  0.0180  0.5595  0.6109
   31C       C6  971   3.945   4.018   4.518 -0.6173  0.1307 -0.3407
   31C       H6  972   3.950   3.912   4.497 -1.0088 -0.2417  1.2575
   31C       C5  973   4.055   4.099   4.506  0.7976  0.6290  0.2070
   31C       H5  974   4.142   4.063   4.453 -1.0992 -3.2869 -0.5819
   31C       C4  975   4.046   4.235   4.555 -0.3548  0.1182  0.1552
   31C       N4  976   4.153   4.303   4.572 -0.2292 -0.0905 -0.8459
   31C      H41  977   4.151   4.395   4.614  0.6743 -0.9714  1.2562
   31C      H42  978   4.246   4.269   4.550  0.9572  0.6382  2.5120
   31C       N3  979   3.945   4.275   4.630 -0.0154  0.3967 -0.0569
   31C       C2  980   3.836   4.201   4.637 -0.1519 -0.5764  0.1331
   31C       O2  981   3.745   4.238   4.713  0.0010  0.3925  0.0498
   31C      C3'  982   3.628   3.907   4.407  0.6696  0.1114  0.5254
   31C      H3'  983   3.721   3.914   4.351  0.2379 -2.2082 -0.6108
   31C      C2'  984   3.607   4.025   4.500 -0.1562  0.2894  0.2019
   31C      H2'  985   3.620   4.121   4.448  1.1059 -0.5041 -1.0251
   31C      O2'  986   3.479   4.000   4.558 -0.2324  0.3358 -0.7484
   31C     HO2'  987   3.410   4.012   4.492  1.1477  0.7875 -2.1569
   31C      O3'  988   3.520   3.868   4.322 -0.1127 -0.0119 -0.6137
   32A        P  989   3.516   3.929   4.170  0.0680  0.2294  0.2680
   32A      O1P  990   3.394   3.867   4.115  0.0545  0.1744  0.7948
   32A      O2P  991   3.649   3.890   4.115 -0.6355 -0.1288  0.5445
   32A      O5'  992   3.503   4.087   4.186 -0.1071  0.5947 -0.4037
   32A      C5'  993   3.383   4.152   4.239  0.7550  0.2779  0.4467
   32A     H5'1  994   3.367   4.134   4.345 -0.0951 -0.9904  0.1204
   32A     H5'2  995   3.293   4.120   4.187 -0.1456  0.9547  1.5408
   32A      C4'  996   3.388   4.300   4.216 -0.0178 -0.0891 -0.4781
   32A      H4'  997   3.290   4.340   4.240  0.2794  0.5470 -0.3180
   32A      O4'  998   3.481   4.334   4.320 -0.0328  0.1449 -0.0833
   32A      C1'  999   3.544   4.451   4.272 -0.2272 -0.7611  0.0742
   32A      H1' 1000   3.503   4.530   4.336 -2.3525 -0.9864 -0.9410
   32A       N9 1001   3.690   4.439   4.278 -0.6077 -0.1117  0.2946
   32A       C8 1002   3.762   4.335   4.222 -0.5945  0.6243 -0.2691
   32A       H8 1003   3.723   4.250   4.169 -1.4481  0.6889  0.2490
   32A       N7 1004   3.890   4.352   4.237  0.8442  0.1490  0.1199
   32A       C5 1005   3.901   4.473   4.317 -0.2653 -0.4771 -0.4211
   32A       C6 1006   4.000   4.548   4.377 -0.2315  0.0361  0.0283
   32A       N6 1007   4.132   4.531   4.374  0.1584  0.3143  0.5677
   32A      H61 1008   4.182   4.617   4.394  0.7608  0.5017 -1.4997
   32A      H62 1009   4.165   4.457   4.313 -2.8289 -1.8907  1.3971
   32A       N1 1010   3.979   4.659   4.445  0.0230  0.4720 -0.2866
   32A       C2 1011   3.851   4.698   4.457  0.8690  0.2129  0.0160
   32A       H2 1012   3.837   4.789   4.514  1.4379  0.1981  0.1816
   32A       N3 1013   3.741   4.638   4.411 -0.5946  0.1680 -0.1124
   32A       C4 1014   3.779   4.525   4.338  0.6976 -0.2512 -0.1521
   32A      C3' 1015   3.444   4.351   4.081  0.2571  0.0918 -0.4466
   32A      H3' 1016   3.517   4.278   4.046 -2.1447 -2.4645 -0.4322
   32A      C2' 1017   3.515   4.478   4.121  0.4683 -0.2488 -0.0971
   32A      H2' 1018   3.602   4.506   4.061 -1.3426  3.6829 -1.2223
   32A      O2' 1019   3.417   4.584   4.116  0.0934 -0.5602 -0.3192
   32A     HO2' 1020   3.436   4.631   4.034 -1.0982  0.2484 -0.1418
   32A      O3' 1021   3.349   4.370   3.977  0.3634 -0.3347  0.2512
   33C        P 1022   3.396   4.380   3.832 -0.5056 -0.2649  0.2198
   33C      O1P 1023   3.275   4.364   3.750  0.0828 -0.8336  0.4863
   33C      O2P 1024   3.510   4.285   3.805  0.1173  0.2731  0.3768
   33C      O5' 1025   3.450   4.531   3.809  0.0343 -0.8481 -0.2888
   33C      C5' 1026   3.369   4.644   3.770 -0.4533  0.8595 -0.6074
   33C     H5'1 1027   3.271   4.634   3.817  0.8125  1.2235  2.3462
   33C     H5'2 1028   3.352   4.632   3.663 -2.2130  0.0159 -0.2709
   33C      C4' 1029   3.433   4.779   3.816  0.0887  0.1120 -0.6351
   33C      H4' 1030   3.359   4.858   3.830  0.8633  0.5572  1.2868
   33C      O4' 1031   3.503   4.759   3.942  0.3254  0.1501 -0.0063
   33C      C1' 1032   3.605   4.855   3.956  0.4034 -0.0737  0.1356
   33C      H1' 1033   3.578   4.933   4.027 -0.7063  0.7192 -1.1224
   33C       N1 1034   3.725   4.777   3.997  0.8063  0.3700 -0.3027
   33C       C6 1035   3.757   4.650   3.948 -0.0137  0.4222  0.3500
   33C       H6 1036   3.677   4.603   3.892 -0.2181  1.8416 -0.5901
   33C       C5 1037   3.879   4.597   3.964 -0.1679  0.5892 -0.0461
   33C       H5 1038   3.909   4.507   3.912  2.5150  1.5664 -0.3693
   33C       C4 1039   3.973   4.669   4.042  0.7038  0.5758  0.7755
   33C       N4 1040   4.090   4.611   4.059 -0.1807 -0.3328  0.5191
   33C      H41 1041   4.162   4.661   4.108  0.4857 -0.8137  0.0516
   33C      H42 1042   4.100   4.515   4.030 -0.7008  0.2216 -1.7650
   33C       N3 1043   3.945   4.786   4.090  0.4263 -1.0217  0.6409
   33C       C2 1044   3.820   4.843   4.077  0.0084 -0.0006 -0.3726
   33C       O2 1045   3.795   4.948   4.142  0.2788 -0.5941  0.0156
   33C      C3' 1046   3.541   4.840   3.720 -0.0709 -0.0206  0.5655
   33C      H3' 1047   3.600   4.755   3.688 -0.0292  0.5809 -1.0128
   33C      C2' 1048   3.615   4.932   3.821 -0.1636 -0.0246 -0.4753
   33C      H2' 1049   3.719   4.958   3.804  0.2056 -0.2561  1.2432
   33C      O2' 1050   3.544   5.055   3.843  0.2593  0.0408  0.1417
   33C     HO2' 1051   3.587   5.123   3.792  1.1151  0.2297  1.0859
   33C      O3' 1052   3.482   4.907   3.607 -0.1553  0.2745  0.3747
   34C        P 1053   3.556   4.940   3.474 -0.2473 -0.0998 -0.1514
   34C      O1P 1054   3.461   5.010   3.388 -0.0361 -0.1812 -0.2424
   34C      O2P 1055   3.620   4.814   3.431 -0.1492  0.8798 -0.4256
   34C      O5' 1056   3.667   5.046   3.512  0.7410  0.3819 -0.2267
   34C      C5' 1057   3.640   5.189   3.526  0.5244 -0.4631 -1.0258
   34C     H5'1 1058   3.548   5.201   3.582  1.7715 -0.0395  1.0244
   34C     H5'2 1059   3.639   5.231   3.425  4.9151  0.7455 -0.7603
   34C      C4' 1060   3.752   5.262   3.602  0.0963 -0.4736  0.5394
   34C      H4' 1061   3.729   5.366   3.628  0.5355  0.0714 -1.1439
   34C      O4' 1062   3.787   5.191   3.717  0.6073 -0.3918 -0.4102
   34C      C1' 1063   3.920   5.209   3.746 -1.0684 -0.0540 -0.8486
   34C      H1' 1064   3.920   5.258   3.844 -1.5616 -1.3355 -0.1824
   34C       N1 1065   3.992   5.077   3.756 -0.2440 -0.2056 -0.7903
   34C       C6 1066   3.947   4.956   3.706  0.3307 -0.4109  0.8872
   34C       H6 1067   3.857   4.960   3.645  0.6782 -0.6720  0.3552
   34C       C5 1068   4.016   4.842   3.721  0.6175 -0.2104  0.2327
   34C       H5 1069   3.976   4.751   3.678  0.8100 -0.1201 -0.1392
   34C       C4 1070   4.136   4.846   3.786 -0.6806  0.2163  0.1515
   34C       N4 1071   4.207   4.741   3.809  0.0517  0.7262 -0.6024
   34C      H41 1072   4.303   4.749   3.839  0.3060  0.5237 -1.3322
   34C      H42 1073   4.174   4.652   3.774 -0.0641  0.8661 -0.8450
   34C       N3 1074   4.190   4.958   3.826 -0.4792  0.8553 -0.3654
   34C       C2 1075   4.115   5.073   3.820 -0.6097 -0.3031  0.1880
   34C       O2 1076   4.173   5.170   3.865 -0.1679 -0.5523  0.4024
   34C      C3' 1077   3.881   5.273   3.517  0.1423  0.6793  0.4700
   34C      H3' 1078   3.902   5.181   3.463  0.6699  0.5128  0.9501
   34C      C2' 1079   3.982   5.295   3.635 -0.6929 -0.3551 -0.7151
   34C      H2' 1080   4.078   5.265   3.594 -0.7594  0.7379 -1.7070
   34C      O2' 1081   3.988   5.433   3.677  0.7906  0.8527  0.3193
   34C     HO2' 1082   4.069   5.448   3.728  0.5448  3.4278  0.0929
   34C      O3' 1083   3.888   5.380   3.427 -0.0425 -0.3898 -0.1456
   35A        P 1084   3.994   5.377   3.315 -0.1112 -0.2453  0.0444
   35A      O1P 1085   4.000   5.505   3.248  0.3900 -0.8885  0.5413
   35A      O2P 1086   3.969   5.265   3.233 -0.3063  0.4314  0.6119
   35A      O5' 1087   4.137   5.368   3.388  0.0506 -0.0560 -0.1676
   35A      C5' 1088   4.217   5.480   3.426  0.7575  0.1762  0.5079
   35A     H5'1 1089   4.161   5.532   3.503 -0.0794 -0.7316  0.5303
   35A     H5'2 1090   4.226   5.540   3.336  1.2513 -0.4252  0.1472
   35A      C4' 1091   4.357   5.435   3.464  0.2037  0.9365 -0.1818
   35A      H4' 1092   4.416   5.520   3.500  1.2272  0.1642 -0.0169
   35A      O4' 1093   4.353   5.336   3.572  0.0221  0.4885 -0.2856
   35A      C1' 1094   4.465   5.249   3.555  0.2739  0.7075 -0.3573
   35A      H1' 1095   4.531   5.263   3.640 -0.3153 -0.0394  0.2382
   35A       N9 1096   4.433   5.104   3.556  0.1487 -0.6611  0.4240
   35A       C8 1097   4.314   5.034   3.529 -0.6291 -0.4236  1.0498
   35A       H8 1098   4.220   5.086   3.515 -0.2978 -0.0275  0.2423
   35A       N7 1099   4.328   4.903   3.541  0.3861 -0.3456  0.3167
   35A       C5 1100   4.464   4.892   3.590 -0.1305 -0.2730  0.5731
   35A       C6 1101   4.537   4.782   3.639 -0.0919  0.3122 -0.0940
   35A       N6 1102   4.481   4.665   3.669  0.0445  0.1961 -0.5344
   35A      H61 1103   4.543   4.595   3.708 -0.3506  0.5356  0.7719
   35A      H62 1104   4.386   4.650   3.640 -0.1718  1.0546 -0.2982
   35A       N1 1105   4.668   4.797   3.665  0.0423 -0.0825 -0.6348
   35A       C2 1106   4.719   4.917   3.654 -0.3356 -0.3925  0.2107
   35A       H2 1107   4.824   4.927   3.675 -0.2120 -2.2253  0.7112
   35A       N3 1108   4.657   5.029   3.613  0.2055 -0.3931 -0.1060
   35A       C4 1109   4.528   5.012   3.583 -0.2034  0.2547  1.0369
   35A      C3' 1110   4.436   5.369   3.356  0.1070  0.3724  0.0650
   35A      H3' 1111   4.370   5.306   3.297  0.0036  0.7123 -0.1822
   35A      C2' 1112   4.535   5.288   3.427 -0.1656  0.1104  0.0425
   35A      H2' 1113   4.544   5.197   3.367  0.8845 -0.8749  1.6226
   35A      O2' 1114   4.660   5.342   3.460 -0.0499  0.9593 -0.3193
   35A     HO2' 1115   4.721   5.296   3.401 -0.9664 -0.1229 -0.4503
   35A      O3' 1116   4.485   5.471   3.268  0.2700  0.6675 -0.2334
   36C        P 1117   4.528   5.438   3.120 -0.0130 -0.2369  0.1371
   36C      O1P 1118   4.553   5.568   3.058  0.1729  0.5328  0.2536
   36C      O2P 1119   4.427   5.356   3.059  0.0150 -0.5466 -0.0558
   36C      O5' 1120   4.664   5.357   3.136  0.0736 -0.1449 -0.3682
   36C      C5' 1121   4.791   5.419   3.149 -0.4138  0.0966 -0.0660
   36C     H5'1 1122   4.792   5.486   3.235  0.7277  1.4277 -1.0617
   36C     H5'2 1123   4.814   5.476   3.058  2.3598  0.6123  0.8811
   36C      C4' 1124   4.907   5.322   3.160  0.5948  0.7687 -0.8097
   36C      H4' 1125   5.000   5.372   3.185  0.3252  0.4253  1.0824
   36C      O4' 1126   4.880   5.231   3.271  0.2902  0.0566  0.3747
   36C      C1' 1127   4.939   5.107   3.250  0.3977 -0.0737  0.3893
   36C      H1' 1128   5.017   5.090   3.324  0.5762 -0.7631  0.0499
   36C       N1 1129   4.847   4.992   3.257 -0.1808 -0.1568  0.3327
   36C       C6 1130   4.714   4.997   3.236 -0.6347 -0.7644  0.0508
   36C       H6 1131   4.671   5.090   3.201 -1.8018 -0.1439  2.8778
   36C       C5 1132   4.631   4.894   3.257 -0.9379 -0.1876  0.7604
   36C       H5 1133   4.525   4.912   3.245 -0.7157  1.4332  0.9889
   36C       C4 1134   4.690   4.774   3.289  0.0051  0.3602 -0.0552
   36C       N4 1135   4.616   4.669   3.308  0.8292 -0.5680  0.5326
   36C      H41 1136   4.655   4.585   3.349 -1.1456 -0.8190  2.0075
   36C      H42 1137   4.516   4.662   3.297  0.8808 -0.4644 -0.0781
   36C       N3 1138   4.817   4.754   3.298 -0.7758 -0.1775 -0.0544
   36C       C2 1139   4.899   4.861   3.281  0.5451  0.3630 -0.1355
   36C       O2 1140   5.024   4.854   3.280  0.1530  0.4229  0.3345
   36C      C3' 1141   4.924   5.222   3.040  0.7199 -0.2345  0.4837
   36C      H3' 1142   4.827   5.181   3.013  0.4643  0.2075  0.7167
   36C      C2' 1143   5.002   5.112   3.108  0.2711 -0.1735 -0.2066
   36C      H2' 1144   4.989   5.017   3.056  0.4601 -0.3847  0.1243
   36C      O2' 1145   5.143   5.133   3.123 -0.3254  0.2401 -0.2424
   36C     HO2' 1146   5.182   5.085   3.050 -0.9554 -0.8620  0.1347
   36C      O3' 1147   4.997   5.272   2.922  0.7286 -0.2022  0.7233
   37A        P 1148   4.992   5.185   2.787 -0.2721 -0.1310  0.3102
   37A      O1P 1149   5.058   5.254   2.676  0.5707  0.0951 -0.6727
   37A      O2P 1150   4.851   5.138   2.780 -0.2077  0.1414 -0.2123
   37A      O5' 1151   5.079   5.056   2.819  0.5463  0.3095  0.3637
   37A      C5' 1152   5.217   5.059   2.833  0.8801  0.4003  0.9667
   37A     H5'1 1153   5.240   5.144   2.897  0.9410 -0.4591  2.1149
   37A     H5'2 1154   5.269   5.079   2.739  0.5201  0.3001  0.7471
   37A      C4' 1155   5.285   4.924   2.873 -0.1247 -0.7636 -0.7679
   37A      H4' 1156   5.391   4.945   2.888 -0.3580  0.5001 -0.7322
   37A      O4' 1157   5.231   4.877   2.993 -0.1446 -0.6794 -0.4023
   37A      C1' 1158   5.199   4.740   2.981 -0.0429  0.5291  0.2929
   37A      H1' 1159   5.230   4.683   3.068 -0.0451 -0.5153 -0.3748
   37A       N9 1160   5.057   4.705   2.961  0.1737  0.3401  0.5643
   37A       C8 1161   4.948   4.781   2.923  0.4845 -0.6677  0.5600
   37A       H8 1162   4.958   4.886   2.898  1.2514 -0.8174  0.2201
   37A       N7 1163   4.833   4.718   2.933 -0.2949 -0.7335  0.5631
   37A       C5 1164   4.872   4.592   2.980  0.1255 -0.4045  0.3864
   37A       C6 1165   4.802   4.478   3.023 -0.1192  0.1555  0.3583
   37A       N6 1166   4.670   4.463   3.022 -0.4093 -0.3817 -0.4900
   37A      H61 1167   4.628   4.382   3.066  0.1530  0.7432  2.2849
   37A      H62 1168   4.611   4.540   2.996 -1.8534 -0.8717  1.1671
   37A       N1 1169   4.868   4.376   3.076  0.3764 -0.0633 -0.4612
   37A       C2 1170   4.998   4.383   3.078 -0.4942  0.1522 -0.1046
   37A       H2 1171   5.058   4.301   3.115 -0.8874 -0.6983 -1.2754
   37A       N3 1172   5.072   4.480   3.035 -0.0359  0.0263 -0.3513
   37A       C4 1173   5.006   4.584   2.995  0.6306 -0.1324 -0.3483
   37A      C3' 1174   5.262   4.815   2.774 -0.0448  0.5635 -0.2847
   37A      H3' 1175   5.164   4.828   2.728 -0.1060  1.0243 -0.0282
   37A      C2' 1176   5.272   4.689   2.855  0.6305  0.3425  0.1484
   37A      H2' 1177   5.229   4.606   2.798  2.0743 -0.3664  0.0535
   37A      O2' 1178   5.405   4.666   2.900  0.5748  0.4262 -0.4410
   37A     HO2' 1179   5.455   4.726   2.844  0.1950  0.8465 -0.3331
   37A      O3' 1180   5.359   4.826   2.672 -0.4434 -0.2630  0.2428
   38U        P 1181   5.349   4.763   2.528  0.2321  0.2497 -0.4489
   38U      O1P 1182   5.464   4.797   2.445  0.2567 -0.4169  0.1950
   38U      O2P 1183   5.216   4.793   2.479  0.2839  0.5239  0.7718
   38U      O5' 1184   5.347   4.602   2.542  0.5141 -0.0553 -0.5681
   38U      C5' 1185   5.461   4.524   2.590  0.9402  0.5264  0.5740
   38U     H5'1 1186   5.512   4.572   2.673  1.8764 -1.1190  1.0058
   38U     H5'2 1187   5.532   4.520   2.508  2.2554  3.0164  1.4909
   38U      C4' 1188   5.416   4.385   2.629  0.1032  0.0979 -0.2620
   38U      H4' 1189   5.512   4.339   2.654 -0.0753 -0.2921 -0.2893
   38U      O4' 1190   5.329   4.383   2.735 -0.0705 -0.5716 -0.0981
   38U      C1' 1191   5.240   4.274   2.722  0.1953 -0.2836  0.0318
   38U      H1' 1192   5.265   4.209   2.805 -1.0538 -0.5043  0.2596
   38U       N1 1193   5.100   4.315   2.723 -0.1141 -0.5863 -0.4273
   38U       C6 1194   5.058   4.430   2.660 -0.2670  1.0429  0.1779
   38U       H6 1195   5.130   4.498   2.618 -1.0245  2.2953  0.8294
   38U       C5 1196   4.927   4.461   2.651 -0.8365  0.0075 -0.2305
   38U       H5 1197   4.893   4.552   2.605  1.3898  0.0013 -2.0785
   38U       C4 1198   4.829   4.371   2.703  0.2824 -0.1801  0.3187
   38U       O4 1199   4.708   4.377   2.688 -0.5272 -0.1985 -0.1787
   38U       N3 1200   4.880   4.272   2.777  0.2196  0.2184 -0.4859
   38U       H3 1201   4.815   4.200   2.806  0.3589  0.0245 -0.6599
   38U       C2 1202   5.009   4.239   2.793 -0.0913 -0.7978 -0.8674
   38U       O2 1203   5.039   4.142   2.868  0.3552 -0.3346  0.2117
   38U      C3' 1204   5.357   4.300   2.522 -0.0276  0.2577 -0.4077
   38U      H3' 1205   5.285   4.362   2.470 -0.9832  0.4631  1.0879
   38U      C2' 1206   5.281   4.194   2.597  0.5987  0.2121 -0.2713
   38U      H2' 1207   5.202   4.162   2.529  0.5410 -0.4334  0.0892
   38U      O2' 1208   5.353   4.083   2.651 -0.3789  0.4926  0.0190
   38U     HO2' 1209   5.288   4.017   2.676  0.1301  0.6938  2.0837
   38U      O3' 1210   5.459   4.249   2.435  0.1536  0.1584 -0.7918
   39A        P 1211   5.414   4.252   2.283 -0.2765 -0.0104 -0.0964
   39A      O1P 1212   5.530   4.202   2.213 -0.5742 -0.4157  0.6117
   39A      O2P 1213   5.363   4.386   2.240  0.4547  0.3116 -0.0063
   39A      O5' 1214   5.301   4.144   2.268  0.0091 -0.3418 -0.3528
   39A      C5' 1215   5.338   4.010   2.278 -0.1422 -0.5860 -0.4290
   39A     H5'1 1216   5.409   4.005   2.360 -0.0025  1.7993 -0.3385
   39A     H5'2 1217   5.396   3.980   2.190  1.3808 -1.6797  0.8986
   39A      C4' 1218   5.224   3.909   2.299 -0.2554 -0.3918 -0.3770
   39A      H4' 1219   5.260   3.808   2.319  1.2679 -0.5614 -3.4077
   39A      O4' 1220   5.163   3.951   2.413  0.0681  0.1454 -0.4174
   39A      C1' 1221   5.022   3.933   2.400 -0.0617  0.6918  0.9024
   39A      H1' 1222   4.987   3.862   2.475 -0.2859 -1.3970 -1.0781
   39A       N9 1223   4.935   4.057   2.390  0.4228 -0.2706  0.0533
   39A       C8 1224   4.965   4.194   2.373 -0.2272  0.3218  0.4088
   39A       H8 1225   5.059   4.229   2.333 -0.2131 -0.6606 -0.4640
   39A       N7 1226   4.866   4.277   2.393 -0.7965 -0.7997 -0.2397
   39A       C5 1227   4.761   4.192   2.423 -0.4355 -0.0682  0.3709
   39A       C6 1228   4.627   4.211   2.449  0.1834  0.4364 -0.2294
   39A       N6 1229   4.558   4.323   2.438 -0.1759  0.3840  0.4150
   39A      H61 1230   4.462   4.328   2.470 -0.4734 -1.1210 -0.1280
   39A      H62 1231   4.611   4.406   2.421  1.4024  0.1997  3.6541
   39A       N1 1232   4.553   4.112   2.499 -0.3378  0.5318 -0.7720
   39A       C2 1233   4.607   3.990   2.513 -0.6487  0.1788  0.0361
   39A       H2 1234   4.537   3.914   2.543  1.1935 -2.0968 -1.0947
   39A       N3 1235   4.736   3.959   2.480  0.2363  1.0177 -0.0650
   39A       C4 1236   4.806   4.062   2.433  0.2908 -0.2289  0.0139
   39A      C3' 1237   5.115   3.920   2.193 -0.3108  0.2482 -0.0732
   39A      H3' 1238   5.094   4.025   2.173  1.4005  1.0121  1.8509
   39A      C2' 1239   4.998   3.855   2.266  0.2453 -0.1177  0.6632
   39A      H2' 1240   4.905   3.883   2.217  1.9446 -1.1559 -3.5835
   39A      O2' 1241   5.009   3.712   2.286  0.3719 -0.1922  0.0946
   39A     HO2' 1242   4.998   3.678   2.197 -0.3790 -1.9396  0.8053
   39A      O3' 1243   5.149   3.843   2.079 -0.3407  0.3514  0.2661
   40G        P 1244   5.067   3.861   1.947 -0.1568  0.0104 -0.1753
   40G      O1P 1245   5.150   3.825   1.832  0.1887  0.1873 -0.2027
   40G      O2P 1246   5.012   3.997   1.948  0.2068 -0.4753  0.5157
   40G      O5' 1247   4.941   3.763   1.947  0.5485 -0.1728 -0.0418
   40G      C5' 1248   4.956   3.622   1.938 -0.1056  0.6096 -0.1115
   40G     H5'1 1249   5.026   3.584   2.012 -1.4439  0.6658  1.2384
   40G     H5'2 1250   4.977   3.577   1.841  0.2339 -1.3509  0.8253
   40G      C4' 1251   4.825   3.559   1.991  1.0169  0.0844  0.3095
   40G      H4' 1252   4.853   3.454   1.996 -0.2403 -0.2719  0.2217
   40G      O4' 1253   4.780   3.614   2.116  0.2119 -0.6210  0.3223
   40G      C1' 1254   4.640   3.623   2.118  0.3026 -0.7482  0.3522
   40G      H1' 1255   4.595   3.568   2.200 -0.0862 -1.3977 -0.2809
   40G       N9 1256   4.595   3.771   2.127  0.1245  0.1560  0.5419
   40G       C8 1257   4.662   3.883   2.082 -0.0959  0.2619 -1.3688
   40G       H8 1258   4.755   3.871   2.029  0.5830 -0.0394 -0.1263
   40G       N7 1259   4.591   3.994   2.101 -0.2232  0.0611  1.3468
   40G       C5 1260   4.478   3.949   2.175 -0.4513 -0.5956 -0.3484
   40G       C6 1261   4.373   4.030   2.236 -0.2432 -0.4794 -0.2938
   40G       O6 1262   4.360   4.152   2.243 -0.0476  0.3041  0.1134
   40G       N1 1263   4.280   3.953   2.299  0.7548  0.3293  0.4525
   40G       H1 1264   4.206   4.003   2.345  0.4847  1.6850 -1.3285
   40G       C2 1265   4.284   3.815   2.301  0.0522  0.4851 -0.2531
   40G       N2 1266   4.187   3.757   2.366  0.2205  0.6283 -0.5935
   40G      H21 1267   4.105   3.804   2.400 -0.2531 -1.7971  1.9930
   40G      H22 1268   4.192   3.656   2.376  1.0308  0.9049  3.1541
   40G       N3 1269   4.382   3.738   2.250 -0.5730  0.5722 -0.1243
   40G       C4 1270   4.479   3.815   2.186 -0.1313  0.7498 -0.0217
   40G      C3' 1271   4.709   3.573   1.894  0.3971  0.3465 -0.1334
   40G      H3' 1272   4.708   3.678   1.864 -2.6665  0.1452 -1.0840
   40G      C2' 1273   4.588   3.560   1.990  0.2616  0.6818 -0.2730
   40G      H2' 1274   4.496   3.607   1.955 -0.0235 -0.8033 -1.6796
   40G      O2' 1275   4.548   3.415   2.013  0.3821 -0.1376 -0.4526
   40G     HO2' 1276   4.534   3.398   2.106 -3.0745 -2.7606 -1.2621
   40G      O3' 1277   4.707   3.482   1.785  0.0607 -0.2228  0.1728
   41G        P 1278   4.611   3.513   1.661  0.0812  0.3028  0.3227
   41G      O1P 1279   4.620   3.386   1.579  0.1616 -0.0998  0.3270
   41G      O2P 1280   4.646   3.641   1.590 -0.0075  0.3146  0.1543
   41G      O5' 1281   4.456   3.532   1.707 -0.0510  0.3822 -0.4827
   41G      C5' 1282   4.359   3.426   1.733  0.2990 -0.0542  0.0863
   41G     H5'1 1283   4.398   3.364   1.814  0.1329 -0.0799  0.1484
   41G     H5'2 1284   4.340   3.368   1.643  0.1675  1.3747 -0.8324
   41G      C4' 1285   4.226   3.487   1.782  0.5731  0.4337 -0.7799
   41G      H4' 1286   4.165   3.399   1.803  0.1842  0.2774 -2.4150
   41G      O4' 1287   4.234   3.573   1.897  0.5843 -0.8553 -0.6576
   41G      C1' 1288   4.135   3.673   1.884 -1.0791  0.3530 -0.0848
   41G      H1' 1289   4.067   3.658   1.968 -1.8273  1.7150 -0.4184
   41G       N9 1290   4.190   3.813   1.900 -0.4221  0.3255 -0.2500
   41G       C8 1291   4.316   3.863   1.862  0.5716 -0.1262  0.6098
   41G       H8 1292   4.401   3.801   1.836  1.8104  1.3171  1.0624
   41G       N7 1293   4.327   3.992   1.876  0.3955  0.4315  0.3037
   41G       C5 1294   4.203   4.029   1.935  0.4369 -0.3748  0.8959
   41G       C6 1295   4.169   4.159   1.978  0.4397  0.2717 -0.0698
   41G       O6 1296   4.225   4.270   1.976 -0.4145  0.0679 -0.2662
   41G       N1 1297   4.046   4.154   2.035  0.0818  0.2539 -0.2278
   41G       H1 1298   4.015   4.241   2.077 -2.5250 -0.6180 -0.1218
   41G       C2 1299   3.970   4.044   2.054  0.1043 -0.4975 -0.3674
   41G       N2 1300   3.841   4.060   2.083 -0.4784 -0.5581  0.2941
   41G      H21 1301   3.805   4.154   2.076  1.1992 -0.0100 -2.3335
   41G      H22 1302   3.781   3.979   2.079 -0.1883 -0.7738  0.2722
   41G       N3 1303   3.998   3.924   2.007 -0.1277  0.2574  0.2692
   41G       C4 1304   4.124   3.917   1.959  0.6863  0.1449  0.1306
   41G      C3' 1305   4.155   3.571   1.676  0.0699  0.6117 -0.1455
   41G      H3' 1306   4.233   3.635   1.634  1.1608  1.4004  2.8772
   41G      C2' 1307   4.053   3.654   1.753 -0.0792  0.4058 -0.3367
   41G      H2' 1308   4.029   3.750   1.707 -2.1840  0.7232  1.2535
   41G      O2' 1309   3.938   3.581   1.788  0.4710 -0.2719  0.3549
   41G     HO2' 1310   3.862   3.636   1.768  0.2119 -0.1482  1.5917
   41G      O3' 1311   4.094   3.485   1.581  0.3196 -0.1173 -0.8450
   42C3       P 1312   4.039   3.537   1.446  0.2744 -0.2176  0.0789
   42C3     O1P 1313   3.974   3.420   1.374 -0.2880  0.4979 -0.0110
   42C3     O2P 1314   4.150   3.615   1.384  0.2684 -0.7471 -0.2239
   42C3     O5' 1315   3.916   3.638   1.475  0.5133  0.0460  0.3726
   42C3     C5' 1316   3.787   3.583   1.518  0.3724 -0.1515  0.1294
   42C3    H5'1 1317   3.801   3.508   1.596  1.6931  1.3166  1.3861
   42C3    H5'2 1318   3.732   3.541   1.434  0.1103 -0.8661  0.6496
   42C3     C4' 1319   3.686   3.684   1.573 -0.1869 -0.5319  0.1914
   42C3     H4' 1320   3.601   3.631   1.615  1.4719 -2.3716  1.4131
   42C3     O4' 1321   3.751   3.759   1.677  0.2125 -0.4941  0.1824
   42C3     C1' 1322   3.705   3.894   1.673 -0.0836  0.5597 -0.4079
   42C3     H1' 1323   3.648   3.910   1.765  0.7127  2.1440 -0.1702
   42C3      N1 1324   3.807   3.997   1.667  0.1174  0.0952  0.2535
   42C3      C6 1325   3.915   3.977   1.586 -0.2623 -0.3457 -0.0133
   42C3      H6 1326   3.919   3.892   1.518  0.7755 -0.1660 -0.2032
   42C3      C5 1327   4.023   4.059   1.598  0.0919 -1.1728  0.2312
   42C3      H5 1328   4.119   4.035   1.557  0.7136  1.6026 -0.1580
   42C3      C4 1329   4.008   4.179   1.673 -0.1618 -0.9991 -0.1093
   42C3      N4 1330   4.103   4.278   1.671  0.5967 -0.3328 -0.2710
   42C3     H41 1331   4.103   4.346   1.745  0.2640  0.1413 -0.7079
   42C3     H42 1332   4.189   4.245   1.629  1.1318  0.1394  0.4285
   42C3      N3 1333   3.901   4.204   1.746 -0.1726  0.6123  0.5674
   42C3      C2 1334   3.793   4.114   1.742  0.5150 -0.0096  0.1280
   42C3      O2 1335   3.697   4.145   1.814 -0.2444 -0.3531 -0.4087
   42C3     C3' 1336   3.634   3.788   1.470  0.8122 -0.0555  0.2069
   42C3     H3' 1337   3.721   3.829   1.419  1.4430 -0.0285  1.2778
   42C3     C2' 1338   3.596   3.896   1.569 -0.4309 -0.7910 -0.0339
   42C3     H2' 1339   3.596   3.997   1.527  0.0444 -0.1113  1.5406
   42C3     O2' 1340   3.466   3.873   1.622 -0.2996 -0.6172  0.0040
   42C3    HO2' 1341   3.404   3.857   1.551  0.0060 -0.0358 -0.3970
   42C3     O3' 1342   3.529   3.755   1.389  0.0348  0.1579 -0.1248
   42C3     H3T 1343   3.560   3.704   1.314  1.4517 -0.0234  0.5667
   43SOL     OW 1344   8.610   1.309   8.840  0.7062  0.4732 -0.0173
   43SOL    HW1 1345   8.651   1.391   8.870  2.2121 -0.0010 -0.6839
   43SOL    HW2 1346   8.617   1.311   8.745 -0.1840  0.0203 -0.1071
   44SOL     OW 1347   0.265   0.353   0.796 -0.9447  0.5090  0.0429
   44SOL    HW1 1348   0.252   0.347   0.890 -0.4811  0.4765  0.1056
   44SOL    HW2 1349   0.360   0.358   0.785 -0.8993 -0.9942 -0.5061
   45SOL     OW 1350   8.735   0.742   0.524  0.0017 -0.2194  0.3763
   45SOL    HW1 1351   8.795   0.766   0.453  0.7396 -1.4369  0.5561
   45SOL    HW2 1352   8.776   0.777   0.603 -1.9630  3.2145  0.0738
   46SOL     OW 1353   0.488   1.215   1.493  0.3424  0.2058 -0.8395
   46SOL    HW1 1354   0.444   1.286   1.540  0.0478 -0.6325  0.1917
   46SOL    HW2 1355   0.517   1.255   1.411 -0.0529  1.4427 -0.4021
   47SOL     OW 1356   1.612   1.314   1.005 -0.2207  0.5214  0.7034
   47SOL    HW1 1357   1.691   1.291   0.956  0.5211  0.6751  1.8057
   47SOL    HW2 1358   1.634   1.396   1.049 -0.3719 -0.2855  2.3602
   48SOL     OW 1359   0.920   0.616   0.400 -0.4137 -0.3076  0.7207
   48SOL    HW1 1360   0.893   0.615   0.492  0.3533  1.6295  1.0274
   48SOL    HW2 1361   0.953   0.705   0.387 -1.2353 -0.2881 -1.6520
   49SOL     OW 1362   1.774   0.390   8.835 -0.1053  0.1182  0.2758
   49SOL    HW1 1363   1.796   0.377   8.927  1.0024  1.5192  0.2534
   49SOL    HW2 1364   1.682   0.364   8.828  0.2748 -1.6576  1.3774
   50SOL     OW 1365   0.359   0.948   1.226  0.3366  0.1235 -0.3796
   50SOL    HW1 1366   0.282   0.977   1.276  0.8265  0.7554  0.0206
   50SOL    HW2 1367   0.426   0.932   1.292  0.2750 -1.4032 -0.6351
   51SOL     OW 1368   1.043   1.055   1.607 -0.6535 -0.5575 -0.2181
   51SOL    HW1 1369   1.092   1.135   1.591 -0.5846 -1.0262 -2.6646
   51SOL    HW2 1370   1.110   0.987   1.618 -0.7274 -0.4441  1.1386
   52SOL     OW 1371   0.918   1.312   0.312 -0.4000 -0.2315  0.7915
   52SOL    HW1 1372   0.823   1.319   0.301 -0.3721 -0.0305  0.6728
   52SOL    HW2 1373   0.930   1.299   0.406 -0.5169  0.2607  0.8770
   53SOL     OW 1374   0.833   1.323   1.595  0.0821 -0.4854 -0.1347
   53SOL    HW1 1375   0.821   1.252   1.533 -1.3049 -0.1116 -0.3282
   53SOL    HW2 1376   0.844   1.280   1.680  0.0495 -0.9477 -0.3659
   54SOL     OW 1377   8.808   1.210   1.091  0.4542 -0.0899 -0.5310
   54SOL    HW1 1378   8.900   1.212   1.118  0.5491 -0.3086 -0.8291
   54SOL    HW2 1379   8.762   1.175   1.167  0.5868  0.2445 -0.2971
   55SOL     OW 1380   1.104   1.399   1.037 -0.2558  0.1593 -0.2279
   55SOL    HW1 1381   1.013   1.388   1.062  0.3645 -0.8448  1.8645
   55SOL    HW2 1382   1.110   1.363   0.948 -2.0595  1.2511 -0.8425
   56SOL     OW 1383   0.517   0.467   1.199  0.4252  0.0274 -0.4920
   56SOL    HW1 1384   0.579   0.394   1.195 -0.2450 -0.9848  3.4622
   56SOL    HW2 1385   0.435   0.428   1.229  0.1414  2.3274  2.1530
   57SOL     OW 1386   1.646   0.432   0.476  0.0659  0.6458  0.0081
   57SOL    HW1 1387   1.577   0.486   0.515 -0.3649  0.4044 -0.4168
   57SOL    HW2 1388   1.727   0.472   0.507 -0.2506  1.3136 -0.0035
   58SOL     OW 1389   0.820   1.656   0.909 -0.2900 -0.0297 -0.1423
   58SOL    HW1 1390   0.764   1.599   0.857 -0.2625 -0.0060 -0.1980
   58SOL    HW2 1391   0.893   1.677   0.851  0.8217 -1.6680  0.5642
   59SOL     OW 1392   0.769   1.174   1.368 -0.4014  0.1818 -0.4050
   59SOL    HW1 1393   0.692   1.175   1.311  1.1039 -1.9199 -2.6870
   59SOL    HW2 1394   0.809   1.089   1.352  2.1918  1.0310  0.9989
   60SOL     OW 1395   0.255   1.480   0.854 -0.5332  0.0054 -0.0039
   60SOL    HW1 1396   0.163   1.453   0.852 -1.3349  2.4701  0.1929
   60SOL    HW2 1397   0.259   1.557   0.798  0.6970  1.8421  2.3958
   61SOL     OW 1398   8.845   1.401   0.798 -0.1781 -0.3337  0.2455
   61SOL    HW1 1399   8.804   1.315   0.792  0.2810 -0.5400 -0.0139
   61SOL    HW2 1400   8.799   1.445   0.870  0.0410 -1.0553  0.8438
   62SOL     OW 1401   0.696   1.571   1.317  0.2461  0.7076  0.0867
   62SOL    HW1 1402   0.738   1.656   1.305  4.3012 -1.2909 -1.9810
   62SOL    HW2 1403   0.753   1.525   1.379 -0.9194 -1.0133 -0.0589
   63SOL     OW 1404   0.592   1.131   0.400 -0.1091 -0.1061  0.7271
   63SOL    HW1 1405   0.607   1.139   0.306 -2.9983  0.9591  0.2591
   63SOL    HW2 1406   0.616   1.041   0.420  0.3204 -0.4398 -1.0958
   64SOL     OW 1407   1.389   0.426   1.717  0.3232  0.1247 -0.3292
   64SOL    HW1 1408   1.314   0.479   1.688  0.7328  0.0596 -1.5966
   64SOL    HW2 1409   1.453   0.435   1.646  1.0070 -0.8496  0.1402
   65SOL     OW 1410   0.135   0.781   0.366 -0.2989  0.2213 -0.3837
   65SOL    HW1 1411   0.072   0.829   0.312 -2.2808 -1.2488  0.4902
   65SOL    HW2 1412   0.193   0.848   0.401 -2.7366  2.0007  0.5329
   66SOL     OW 1413   1.972   1.917   0.606 -0.1357 -0.3028 -0.3945
   66SOL    HW1 1414   1.927   1.942   0.687 -0.5069 -2.0225 -0.0307
   66SOL    HW2 1415   1.902   1.901   0.543 -0.0564 -2.1802 -0.0653
   67SOL     OW 1416   0.023   1.572   8.604  0.1066  0.2078 -0.0690
   67SOL    HW1 1417   0.102   1.535   8.644 -0.9834 -1.8559  0.3392
   67SOL    HW2 1418   0.044   1.574   8.510  0.7517 -0.0604  0.0602
   68SOL     OW 1419   1.298   1.115   0.545  0.0500 -1.1177  0.3976
   68SOL    HW1 1420   1.287   1.104   0.451  1.0381 -0.4753  0.1864
   68SOL    HW2 1421   1.272   1.206   0.561 -1.2984 -1.5681  0.9663
   69SOL     OW 1422   1.823   1.261   0.098  0.2667 -0.1254  0.3043
   69SOL    HW1 1423   1.776   1.344   0.104  1.9079  0.7787  1.3888
   69SOL    HW2 1424   1.839   1.236   0.189  0.4257 -1.2673 -0.0181
   70SOL     OW 1425   0.238   0.828   1.617  0.3070 -0.5574  0.1151
   70SOL    HW1 1426   0.258   0.735   1.616 -2.3692 -1.2816 -3.1088
   70SOL    HW2 1427   0.148   0.833   1.649  0.3389  0.9021  0.0564
   71SOL     OW 1428   1.121   1.591   0.436 -0.0285 -0.0770  0.6041
   71SOL    HW1 1429   1.190   1.618   0.376 -0.8292  0.2064 -0.2161
   71SOL    HW2 1430   1.063   1.536   0.383 -1.9692  1.9587  0.4122
   72SOL     OW 1431   1.262   1.029   1.338  0.0672  0.0425  0.1825
   72SOL    HW1 1432   1.292   1.112   1.300  0.3003  0.7954  1.9216
   72SOL    HW2 1433   1.327   1.007   1.404  0.1800 -1.7365 -0.4585
   73SOL     OW 1434   0.688   0.247   0.482 -0.3665  0.7208 -0.2164
   73SOL    HW1 1435   0.622   0.198   0.433 -1.5414 -0.5548  2.4292
   73SOL    HW2 1436   0.744   0.180   0.520  0.4258  1.6457  0.2693
   74SOL     OW 1437   0.132   0.995   1.400  0.1582 -0.2465 -0.5575
   74SOL    HW1 1438   0.166   0.936   1.468 -2.0018 -2.6480 -1.3901
   74SOL    HW2 1439   0.142   1.082   1.437  1.9481 -1.2194  1.4930
   75SOL     OW 1440   1.205   0.654   0.054 -0.3453  0.0109 -0.3008
   75SOL    HW1 1441   1.234   0.664   0.145 -0.3588  0.0513 -0.3006
   75SOL    HW2 1442   1.222   0.563   0.033 -1.4753 -0.3090  0.1283
   76SOL     OW 1443   1.092   1.574   1.877 -0.2594 -0.0057 -0.0685
   76SOL    HW1 1444   1.184   1.596   1.863 -0.7110  2.1464 -0.0585
   76SOL    HW2 1445   1.065   1.529   1.797  0.4323  0.7009 -0.7086
   77SOL     OW 1446   0.322   0.276   1.575  0.3295 -0.4046 -0.0711
   77SOL    HW1 1447   0.344   0.206   1.514  0.9406  0.7453 -1.2295
   77SOL    HW2 1448   0.259   0.236   1.636  1.0872 -2.0856 -0.3422
   78SOL     OW 1449   1.357   1.236   1.216  0.5121  0.7370 -0.2641
   78SOL    HW1 1450   1.377   1.174   1.146  0.6621 -0.6041  0.9298
   78SOL    HW2 1451   1.310   1.307   1.172  2.3758  0.9586 -2.0696
   79SOL     OW 1452   2.138   1.702   0.020 -0.0182  0.1374 -0.1686
   79SOL    HW1 1453   2.218   1.695   0.072 -0.7050  0.0069  0.9041
   79SOL    HW2 1454   2.117   1.795   0.020 -0.2745  0.0783  0.1786
   80SOL     OW 1455   1.115   1.133   0.319  0.0969  0.3798 -0.0819
   80SOL    HW1 1456   1.045   1.186   0.281 -1.1363 -1.0148  0.1572
   80SOL    HW2 1457   1.086   1.043   0.308  0.3444 -0.1587  2.8804
   81SOL     OW 1458   1.779   0.176   0.784  0.5990  0.4434  0.2978
   81SOL    HW1 1459   1.724   0.253   0.798  0.8979  0.6229  0.4949
   81SOL    HW2 1460   1.831   0.169   0.864 -1.3021 -1.5227  1.4799
   82SOL     OW 1461   1.543   1.359   0.450  0.5589 -0.6201 -0.0164
   82SOL    HW1 1462   1.567   1.378   0.541  0.8642  1.1837 -0.4369
   82SOL    HW2 1463   1.621   1.383   0.399 -0.0651 -0.3814 -0.8756
   83SOL     OW 1464   0.945   0.685   1.249  0.0912 -0.9814  0.4582
   83SOL    HW1 1465   0.969   0.775   1.272  0.3639 -0.0630 -2.8343
   83SOL    HW2 1466   0.855   0.675   1.280 -1.8642  2.3462 -3.2687
   84SOL     OW 1467   1.489   0.225   2.077 -0.2756 -0.4867 -0.2338
   84SOL    HW1 1468   1.449   0.147   2.113 -0.3504 -1.1694 -1.7075
   84SOL    HW2 1469   1.476   0.217   1.982  1.9225  0.0492 -0.6338
   85SOL     OW 1470   0.966   0.613   1.570 -0.7096  0.1119  0.3909
   85SOL    HW1 1471   1.047   0.575   1.535 -0.6183 -0.6250  1.3426
   85SOL    HW2 1472   0.978   0.707   1.562 -0.1681 -0.0186 -0.3818
   86SOL     OW 1473   1.208   0.576   0.571  0.0504  0.3927 -0.2362
   86SOL    HW1 1474   1.197   0.664   0.609  0.1145 -0.4634  1.8968
   86SOL    HW2 1475   1.124   0.557   0.531 -0.2104  1.1352 -0.0612
   87SOL     OW 1476   1.444   1.305   0.139  0.2559  0.5547 -0.0891
   87SOL    HW1 1477   1.487   1.232   0.095  2.1890  1.4480  0.1989
   87SOL    HW2 1478   1.419   1.271   0.224 -0.4577 -0.2375 -0.5990
   88SOL     OW 1479   8.757   1.139   0.707  0.4609  0.0063 -0.0940
   88SOL    HW1 1480   8.683   1.143   0.646 -0.4137  0.6060  0.9619
   88SOL    HW2 1481   8.722   1.093   0.784  1.2787  0.0138  0.2964
   89SOL     OW 1482   0.003   1.928   1.666 -0.3985  0.2045  0.0199
   89SOL    HW1 1483   0.093   1.958   1.673  0.1959 -1.0128 -1.6596
   89SOL    HW2 1484   0.000   1.847   1.717 -0.4867  0.1458 -0.0767
   90SOL     OW 1485   0.588   0.511   0.448  0.1337 -0.4739 -1.0423
   90SOL    HW1 1486   0.617   0.421   0.457 -1.4846 -0.9376 -0.1775
   90SOL    HW2 1487   0.607   0.533   0.357  1.6541 -1.2495 -0.9520
   91SOL     OW 1488   2.042   0.787   1.853  0.4409 -0.0284  0.0545
   91SOL    HW1 1489   1.948   0.802   1.860  0.3668 -0.3840 -0.1037
   91SOL    HW2 1490   2.076   0.865   1.809  0.0437 -0.3913 -0.9255
   92SOL     OW 1491   1.276   1.377   0.545  0.0843 -0.0651  0.5994
   92SOL    HW1 1492   1.366   1.398   0.520 -0.4336  0.1168 -1.2613
   92SOL    HW2 1493   1.225   1.455   0.523 -0.5754 -0.2550  1.3964
   93SOL     OW 1494   0.989   0.132   0.855  0.2961 -0.4592  0.2375
   93SOL    HW1 1495   1.074   0.166   0.828  0.6608 -0.5300  1.2552
   93SOL    HW2 1496   1.005   0.088   0.938 -0.4083 -2.0544 -0.4315
   94SOL     OW 1497   1.340   1.676   0.273  0.1993 -0.3295  0.4328
   94SOL    HW1 1498   1.278   1.678   0.200  2.3324 -0.5440 -1.4675
   94SOL    HW2 1499   1.425   1.659   0.233  1.5523  0.0249  2.9329
   95SOL     OW 1500   0.021   1.928   0.366  0.2444  0.4359 -0.4991
   95SOL    HW1 1501   0.099   1.973   0.399  0.4874  0.8281 -1.5633
   95SOL    HW2 1502  -0.052   1.987   0.386 -0.3378 -1.3043  3.4219
   96SOL     OW 1503   1.603   1.062   1.080 -0.8095 -0.2480 -0.0733
   96SOL    HW1 1504   1.512   1.031   1.079 -0.8746 -0.0670  0.3420
   96SOL    HW2 1505   1.601   1.142   1.027 -0.5670 -1.1341 -1.4785
   97SOL     OW 1506   1.194   1.797   1.396  0.3426 -0.1439  0.1510
   97SOL    HW1 1507   1.227   1.855   1.327 -0.0044 -1.7387 -1.4094
   97SOL    HW2 1508   1.273   1.764   1.439  0.6515 -0.6878 -0.8104
   98SOL     OW 1509   0.440   0.975   8.792 -0.2919 -0.6573 -0.5495
   98SOL    HW1 1510   0.438   0.891   8.747  0.1627  0.5090 -2.9199
   98SOL    HW2 1511   0.533   0.995   8.802 -0.3795  0.2027 -1.3386
   99SOL     OW 1512   1.897   1.089   0.599  0.3046 -0.6302 -0.3305
   99SOL    HW1 1513   1.873   1.002   0.565  2.0040 -0.8490 -1.0905
   99SOL    HW2 1514   1.988   1.101   0.570  0.3204  1.1186  0.3603
  100SOL     OW 1515   0.884   1.108   1.842  0.1435 -0.4137 -0.3694
  100SOL    HW1 1516   0.944   1.084   1.771 -1.2146  0.1834 -1.7963
  100SOL    HW2 1517   0.812   1.045   1.835  0.1467 -0.5442  0.6964
  101SOL     OW 1518   1.888   1.973   8.566 -0.9325 -0.1852 -0.2177
  101SOL    HW1 1519   1.913   1.967   8.474 -0.3518  1.2754 -0.1948
  101SOL    HW2 1520   1.896   2.067   8.587  1.0695 -0.7052  1.8627
  102SOL     OW 1521   0.248   0.487   1.096  0.0466  0.3521  0.1793
  102SOL    HW1 1522   0.229   0.580   1.080 -1.7959 -0.2528 -1.5042
  102SOL    HW2 1523   0.168   0.453   1.136  1.1842 -0.2934  2.0653
  103SOL     OW 1524   1.754   0.878   8.726 -0.0209 -0.2016  0.2609
  103SOL    HW1 1525   1.784   0.831   8.804  1.5402 -0.9039 -0.7231
  103SOL    HW2 1526   1.730   0.809   8.664 -1.0567  0.3520  0.0122
  104SOL     OW 1527   0.436   2.238   0.009 -0.0827 -0.0039 -0.1384
  104SOL    HW1 1528   0.368   2.248   0.076 -0.1747  0.3254 -0.2789
  104SOL    HW2 1529   0.515   2.217   0.058  0.0805  1.2480  0.1626
  105SOL     OW 1530   1.023   0.036   8.848  0.2463 -0.2839  0.6359
  105SOL    HW1 1531   0.968   0.114   8.859  0.8587  0.1452  0.7257
  105SOL    HW2 1532   0.995  -0.023   8.918  1.1742  0.6933  1.8850
  106SOL     OW 1533   0.158   1.787   0.900  0.2503  0.1538  0.0745
  106SOL    HW1 1534   0.116   1.710   0.938  0.3593  0.1999  0.2915
  106SOL    HW2 1535   0.166   1.766   0.807  1.6599 -0.7499  0.3583
  107SOL     OW 1536   1.040   2.103   0.669  0.4519 -0.4360  0.5156
  107SOL    HW1 1537   1.039   2.198   0.682 -0.6464  0.4820 -4.3822
  107SOL    HW2 1538   1.133   2.081   0.660  0.6473  0.4148  0.3733
  108SOL     OW 1539   0.853   1.063   0.521 -0.0553 -0.1177 -0.1853
  108SOL    HW1 1540   0.898   1.141   0.550 -0.4001  0.1219 -0.2802
  108SOL    HW2 1541   0.766   1.069   0.561  0.1092 -0.7461  0.2786
  109SOL     OW 1542   1.152   0.259   1.981 -0.4900  0.2294  0.4201
  109SOL    HW1 1543   1.176   0.333   2.037  0.8134 -0.9564  1.5248
  109SOL    HW2 1544   1.202   0.272   1.901 -0.5718  0.7380  0.4482
  110SOL     OW 1545   0.585   0.804   0.454  0.2818 -0.0987 -0.1188
  110SOL    HW1 1546   0.617   0.817   0.365 -2.1908 -1.6222 -1.3407
  110SOL    HW2 1547   0.597   0.710   0.470 -0.8383 -0.1569  0.4728
  111SOL     OW 1548   0.555   0.543   1.591  0.2271 -0.2341 -0.2178
  111SOL    HW1 1549   0.557   0.463   1.644 -2.2420  1.2706  2.4630
  111SOL    HW2 1550   0.462   0.559   1.575  0.4467  2.8929  0.8179
  112SOL     OW 1551   0.831   1.462   1.083 -0.1037  0.1834  0.6184
  112SOL    HW1 1552   0.801   1.489   1.170 -2.3302  0.5531 -0.1875
  112SOL    HW2 1553   0.827   1.542   1.030  1.6557  0.0655  0.2489
  113SOL     OW 1554   1.649   0.628   1.584  0.9273 -0.3888 -0.0565
  113SOL    HW1 1555   1.610   0.660   1.666 -1.8560 -1.0369 -1.0392
  113SOL    HW2 1556   1.684   0.706   1.542  0.9588  0.1941  1.0230
  114SOL     OW 1557   1.124   1.247   0.809  0.1324 -0.0674  0.8394
  114SOL    HW1 1558   1.121   1.161   0.850 -1.0957  0.2992  1.5884
  114SOL    HW2 1559   1.210   1.252   0.768  0.7508 -1.1009  1.9722
  115SOL     OW 1560   1.007   0.508   0.882  0.0396 -0.5702 -0.3493
  115SOL    HW1 1561   1.057   0.442   0.929  0.8385  1.0534  1.1602
  115SOL    HW2 1562   1.056   0.589   0.893 -2.1763  0.8204  0.0362
  116SOL     OW 1563   0.334   0.231   0.506  0.0677 -0.2179 -0.4904
  116SOL    HW1 1564   0.392   0.242   0.582 -1.9675  1.7457  0.9029
  116SOL    HW2 1565   0.296   0.144   0.517  0.8428 -0.5131 -0.0415
  117SOL     OW 1566   1.619   1.126   8.795 -0.4169  0.1353  0.0539
  117SOL    HW1 1567   1.643   1.070   8.721 -0.3834  1.5529 -1.0499
  117SOL    HW2 1568   1.699   1.176   8.814 -0.6185  0.2392  0.6474
  118SOL     OW 1569   0.310   0.394   0.303 -0.0191  0.8342  0.3206
  118SOL    HW1 1570   0.392   0.364   0.264  0.7180  1.8520  1.0242
  118SOL    HW2 1571   0.312   0.361   0.393 -1.2733 -0.7154 -0.1795
  119SOL     OW 1572   1.318   0.302   0.653  0.4540  0.1323  0.4451
  119SOL    HW1 1573   1.225   0.325   0.660  0.3084 -0.2518 -0.1725
  119SOL    HW2 1574   1.343   0.329   0.565  0.5239 -1.1561  0.0464
  120SOL     OW 1575   1.069   0.445   1.245 -0.4901 -0.1061  0.1077
  120SOL    HW1 1576   1.021   0.524   1.222 -1.6770 -0.9525 -0.4082
  120SOL    HW2 1577   1.110   0.417   1.163  1.3761  0.8886  0.6425
  121SOL     OW 1578   1.875   1.937   0.870 -0.1929 -0.1945  0.1254
  121SOL    HW1 1579   1.823   1.978   0.938 -0.8109 -0.6428 -0.0661
  121SOL    HW2 1580   1.811   1.891   0.815 -0.1090  2.4468 -2.4627
  122SOL     OW 1581   0.368   1.199   0.770 -0.6288  0.0265  0.4406
  122SOL    HW1 1582   0.299   1.136   0.788 -0.9874  0.7854  1.8688
  122SOL    HW2 1583   0.323   1.284   0.768 -0.1798  0.2693 -1.5784
  123SOL     OW 1584   1.541   1.948   0.768  0.4735  0.9084 -0.1743
  123SOL    HW1 1585   1.454   1.967   0.734  0.7839  2.8419 -0.0097
  123SOL    HW2 1586   1.575   2.033   0.795  1.4055 -0.1247  2.2035
  124SOL     OW 1587   0.993   0.843   8.850 -0.4784 -0.3898  0.5727
  124SOL    HW1 1588   0.994   0.872   8.759  0.4849  1.9391  1.2538
  124SOL    HW2 1589   1.054   0.769   8.852  0.7180  0.5199 -0.4211
  125SOL     OW 1590   0.550   0.306   0.709 -0.5366  0.3696  0.1282
  125SOL    HW1 1591   0.585   0.282   0.623 -0.5005 -1.5854  0.6462
  125SOL    HW2 1592   0.610   0.373   0.741 -0.1071  0.5704 -1.0426
  126SOL     OW 1593   0.551   0.290   1.732  0.1158 -0.0671  0.0986
  126SOL    HW1 1594   0.498   0.291   1.812  0.2444  1.3992  0.1996
  126SOL    HW2 1595   0.488   0.277   1.661 -0.1388 -0.2739  0.3627
  127SOL     OW 1596   1.033   0.315   0.622 -0.2734  0.0976  0.1171
  127SOL    HW1 1597   0.976   0.289   0.550  0.9441 -0.3317 -0.7425
  127SOL    HW2 1598   0.990   0.390   0.662 -1.3952 -0.1816 -0.5206
  128SOL     OW 1599   1.205   0.354   0.989  0.1380 -0.4077 -0.6000
  128SOL    HW1 1600   1.277   0.412   0.966  2.1443 -0.1608  4.8842
  128SOL    HW2 1601   1.245   0.267   0.994 -0.6135 -0.7305 -0.0660
  129SOL     OW 1602   1.266   0.843   0.645  0.0671 -0.1126  0.2806
  129SOL    HW1 1603   1.226   0.866   0.729  1.1947 -0.2854  0.8694
  129SOL    HW2 1604   1.286   0.928   0.605  0.6383 -0.0311  0.7273
  130SOL     OW 1605   1.615   0.389   0.881 -0.0878 -0.3975  0.4768
  130SOL    HW1 1606   1.570   0.428   0.806  1.2098 -0.7458 -0.5208
  130SOL    HW2 1607   1.603   0.453   0.952 -1.4043 -0.1025  0.0151
  131SOL     OW 1608   1.738   0.782   0.267 -0.6561  0.2440  0.0039
  131SOL    HW1 1609   1.811   0.798   0.207 -1.0261 -0.1162 -0.5535
  131SOL    HW2 1610   1.677   0.854   0.250 -0.4672  0.5096  0.4242
  132SOL     OW 1611   0.514   1.337   0.560  0.1267 -0.1622 -0.0916
  132SOL    HW1 1612   0.490   1.328   0.652 -1.1703 -0.0752 -0.4121
  132SOL    HW2 1613   0.522   1.247   0.528 -1.9072 -0.2503 -0.4984
  133SOL     OW 1614   1.827   0.841   0.523 -0.4517 -0.3210  0.4010
  133SOL    HW1 1615   1.774   0.821   0.445  0.2349  0.1338 -0.1870
  133SOL    HW2 1616   1.879   0.762   0.536  1.3860  0.5425 -1.2158
  134SOL     OW 1617   0.870   0.678   8.624  0.2706  0.3337 -0.1609
  134SOL    HW1 1618   0.930   0.746   8.595  0.3688  0.2639 -0.1227
  134SOL    HW2 1619   0.891   0.602   8.570  0.2966  0.2735 -0.0669
  135SOL     OW 1620   0.443   0.665   0.720 -0.5289  0.3987  0.6615
  135SOL    HW1 1621   0.530   0.667   0.758 -0.3057  1.9425  0.1490
  135SOL    HW2 1622   0.458   0.638   0.629 -0.6993 -0.1530  0.7905
  136SOL     OW 1623   1.445   1.418   1.649  0.3852  0.0097 -0.0863
  136SOL    HW1 1624   1.450   1.420   1.744 -0.6577  0.5985 -0.0236
  136SOL    HW2 1625   1.457   1.325   1.626 -0.9078 -0.3959  0.7493
  137SOL     OW 1626   0.855   0.877   0.794  0.1035  0.2874 -0.0844
  137SOL    HW1 1627   0.802   0.920   0.727  0.5659 -2.0352 -2.0850
  137SOL    HW2 1628   0.820   0.909   0.877 -1.3933  2.2503 -1.3722
  138SOL     OW 1629   1.395   1.886   1.834 -0.6389 -0.6371 -0.3104
  138SOL    HW1 1630   1.477   1.862   1.791 -0.9055 -1.1847 -0.5257
  138SOL    HW2 1631   1.389   1.981   1.823  0.0212 -0.5735 -0.1899
  139SOL     OW 1632   0.925   1.114   1.141  0.4175  0.2764 -0.7536
  139SOL    HW1 1633   0.847   1.066   1.114 -0.3030  0.5854  0.6974
  139SOL    HW2 1634   0.967   1.058   1.207  0.6024  0.7784 -0.4321
  140SOL     OW 1635   1.122   0.931   0.863 -0.3820  0.2037  0.3375
  140SOL    HW1 1636   1.130   0.860   0.926  0.7469 -0.6776 -0.7528
  140SOL    HW2 1637   1.030   0.931   0.838 -0.4198 -0.7914  0.4479
  141SOL     OW 1638   1.314   8.845   1.146 -0.2676  0.1156 -0.0571
  141SOL    HW1 1639   1.361   8.769   1.179 -0.2800 -0.1346 -0.5998
  141SOL    HW2 1640   1.363   8.920   1.180  0.4335 -0.1408 -0.4707
  142SOL     OW 1641   1.374   0.913   1.583  0.2850 -0.1008  0.0006
  142SOL    HW1 1642   1.458   0.949   1.612 -0.9033  1.9830  1.0704
  142SOL    HW2 1643   1.323   0.901   1.663 -0.7862 -0.3901 -0.7012
  143SOL     OW 1644   0.642   1.116   0.735  0.1578  0.0108  0.0112
  143SOL    HW1 1645   0.553   1.140   0.757 -0.1466 -2.3134  1.6482
  143SOL    HW2 1646   0.697   1.159   0.801  0.2893  1.3409 -0.9241
  144SOL     OW 1647   0.635   0.843   1.350 -0.2267  0.7660  0.9091
  144SOL    HW1 1648   0.637   0.749   1.367 -2.7245  0.8203  1.8155
  144SOL    HW2 1649   0.558   0.875   1.396 -2.4276  2.4333 -3.3399
  145SOL     OW 1650   1.368   0.595   0.977 -0.3794 -0.0864 -0.4945
  145SOL    HW1 1651   1.417   0.671   0.947  0.4011 -0.8868 -1.3252
  145SOL    HW2 1652   1.335   0.619   1.063  1.2958  0.5542 -0.0127
  146SOL     OW 1653   0.117   1.271   1.507  0.3245 -0.5123  0.1792
  146SOL    HW1 1654   0.115   1.364   1.530 -0.1563  0.0996 -2.0855
  146SOL    HW2 1655   0.108   1.225   1.591  1.8329  1.4400  1.5113
  147SOL     OW 1656   0.332   0.921   0.501 -0.0515  0.2215 -0.3407
  147SOL    HW1 1657   0.423   0.901   0.522 -0.6188 -0.4043  1.8279
  147SOL    HW2 1658   0.282   0.879   0.571 -1.8498  2.3593 -0.2379
  148SOL     OW 1659   0.711   0.505   0.864  0.2541  0.5504 -0.1353
  148SOL    HW1 1660   0.794   0.494   0.909 -0.3803 -0.3477  0.8618
  148SOL    HW2 1661   0.664   0.571   0.915 -0.2950 -0.1614  0.3136
  149SOL     OW 1662   1.525   1.575   0.101  0.3065  0.1919 -0.7342
  149SOL    HW1 1663   1.554   1.585   0.011  2.8867 -2.5167 -0.3515
  149SOL    HW2 1664   1.496   1.484   0.107  2.3535 -0.4115  1.6221
  150SOL     OW 1665   1.568   1.641   1.088  0.0873  0.0336 -0.2662
  150SOL    HW1 1666   1.568   1.613   1.180 -0.2369 -0.0009 -0.2734
  150SOL    HW2 1667   1.482   1.614   1.056  0.6152 -0.9586 -0.8852
  151SOL     OW 1668   1.431   0.573   0.299 -0.4080  0.0277  0.3187
  151SOL    HW1 1669   1.376   0.638   0.342  0.7652 -0.8494  3.4397
  151SOL    HW2 1670   1.520   0.609   0.303 -0.0977 -0.6470 -0.2514
  152SOL     OW 1671   0.349   1.382   1.088 -0.5662 -0.2908 -0.3719
  152SOL    HW1 1672   0.288   1.309   1.104 -2.0070  0.2252 -3.0389
  152SOL    HW2 1673   0.328   1.412   1.000  2.5015  1.0005 -0.7780
  153SOL     OW 1674   0.295   1.227   1.810  0.1680  0.8189  0.8725
  153SOL    HW1 1675   0.324   1.287   1.741 -1.0403  1.1372  0.6165
  153SOL    HW2 1676   0.228   1.173   1.768  2.2584 -1.8060  0.6450
  154SOL     OW 1677   1.771   0.966   1.854  0.2677 -0.0591  0.2775
  154SOL    HW1 1678   1.789   1.014   1.935  0.3962 -1.8463  1.3858
  154SOL    HW2 1679   1.696   0.910   1.877 -0.1404 -0.0983 -1.0777
  155SOL     OW 1680   0.799   0.376   1.744 -0.0684  0.0194  0.1789
  155SOL    HW1 1681   0.813   0.404   1.835  0.6894  0.8610 -0.1908
  155SOL    HW2 1682   0.711   0.337   1.745 -0.3590  0.6580  1.1176
  156SOL     OW 1683   0.375   0.088   1.387  0.4790 -0.4740 -0.3661
  156SOL    HW1 1684   0.339  -0.000   1.381 -2.2001  0.4590  0.5326
  156SOL    HW2 1685   0.356   0.128   1.303 -1.3165  0.2075  0.3051
  157SOL     OW 1686   0.207   0.807   0.713 -0.2528  0.6632  0.5919
  157SOL    HW1 1687   0.131   0.757   0.739  0.0188 -0.5681 -0.8504
  157SOL    HW2 1688   0.282   0.754   0.740  0.0341 -0.3730 -2.0070
  158SOL     OW 1689   1.544   0.814   0.827  0.1633 -0.4947 -0.3416
  158SOL    HW1 1690   1.507   0.891   0.869  0.4367 -1.5138  1.8961
  158SOL    HW2 1691   1.608   0.849   0.765 -0.6253  1.0986 -0.3035
  159SOL     OW 1692   1.066   0.363   0.135 -0.0090  0.6473  0.3322
  159SOL    HW1 1693   1.018   0.442   0.108 -1.2700 -0.9535 -2.5196
  159SOL    HW2 1694   1.000   0.309   0.179  0.9036  1.1443  2.4853
  160SOL     OW 1695   0.541   8.777   1.672  0.4122  0.0322  0.3858
  160SOL    HW1 1696   0.449   8.748   1.669  0.2056  0.7527 -1.6033
  160SOL    HW2 1697   0.539   8.865   1.635  2.1626 -0.7205 -1.6668
  161SOL     OW 1698   8.572   1.227   0.958 -0.5536 -0.5129  0.3501
  161SOL    HW1 1699   8.667   1.226   0.968 -0.5464 -0.5015  0.2858
  161SOL    HW2 1700   8.545   1.137   0.977 -0.4367 -0.7444 -0.5158
  162SOL     OW 1701   0.857   0.628   0.661 -0.0622  0.0764 -0.2860
  162SOL    HW1 1702   0.836   0.580   0.740  1.3152  0.0102  0.0554
  162SOL    HW2 1703   0.868   0.719   0.690  0.9404 -0.0293 -0.2908
  163SOL     OW 1704   1.927   1.283   1.792  0.2343 -0.3132 -0.2573
  163SOL    HW1 1705   1.853   1.311   1.846  0.7772 -0.2588  0.4661
  163SOL    HW2 1706   1.901   1.305   1.703 -0.2447  0.5534  0.0823
  164SOL     OW 1707   8.729   0.070   0.514  0.1543  0.2828  0.5934
  164SOL    HW1 1708   8.788  -0.001   0.541  1.0301  1.0526  0.7632
  164SOL    HW2 1709   8.682   0.035   0.438  2.4728  0.4219 -1.0048
  165SOL     OW 1710   1.426   0.310   0.231  0.2672  0.5939  0.2994
  165SOL    HW1 1711   1.423   0.405   0.239 -1.7813  0.5463  0.5094
  165SOL    HW2 1712   1.473   0.280   0.309  2.2376  1.4690 -0.4863
  166SOL     OW 1713   0.996   0.894   0.370 -0.3277  0.0619 -0.1733
  166SOL    HW1 1714   0.928   0.884   0.304 -0.2793 -0.0171 -0.2113
  166SOL    HW2 1715   0.960   0.958   0.431 -1.9262 -2.4202  1.7104
  167SOL     OW 1716   1.008   1.543   1.556 -0.1717  0.6346 -0.3539
  167SOL    HW1 1717   0.947   1.474   1.582 -0.6577  1.3695  0.5294
  167SOL    HW2 1718   1.084   1.496   1.521 -0.3043 -0.3682  0.6262
  168SOL     OW 1719   1.642   1.817   1.733  0.4645 -0.3507 -0.3821
  168SOL    HW1 1720   1.703   1.747   1.757 -0.0701 -0.1345  1.7613
  168SOL    HW2 1721   1.678   1.896   1.774  0.3672  0.4253 -1.7019
  169SOL     OW 1722   8.839   0.851   1.755 -0.1120 -0.2570  0.8458
  169SOL    HW1 1723   8.846   0.777   1.815 -0.4783 -1.1386 -0.1693
  169SOL    HW2 1724   8.769   0.826   1.695 -1.0206  1.4159  1.1574
  170SOL     OW 1725   1.367   0.394   8.236 -0.0308  0.0787 -0.4162
  170SOL    HW1 1726   1.401   0.306   8.219 -0.1736  0.4716 -3.2052
  170SOL    HW2 1727   1.440   0.452   8.219 -0.3731  0.5862 -0.1853
  171SOL     OW 1728   1.152   1.461   8.650  0.1456 -0.1411 -0.0806
  171SOL    HW1 1729   1.179   1.403   8.579  1.0882  0.1208  0.0598
  171SOL    HW2 1730   1.210   1.438   8.723 -0.3037  0.1219  0.3656
  172SOL     OW 1731   1.091   1.822   0.837 -0.0860  0.3747 -0.1034
  172SOL    HW1 1732   1.127   1.897   0.790  0.4333  0.0811 -0.1819
  172SOL    HW2 1733   1.142   1.817   0.917  1.1419 -0.9859 -0.9222
  173SOL     OW 1734   0.156   1.027   0.845 -0.5256  0.3482  0.2434
  173SOL    HW1 1735   0.199   0.944   0.823 -0.6219  0.7789 -1.7861
  173SOL    HW2 1736   0.063   1.010   0.830 -0.7055  0.4327  1.2124
  174SOL     OW 1737   0.539   0.677   1.018 -0.1413 -0.0525 -0.0344
  174SOL    HW1 1738   0.509   0.615   1.085 -0.4171 -1.5504 -1.4753
  174SOL    HW2 1739   0.483   0.754   1.029  0.7464  0.3485  2.3339
  175SOL     OW 1740   1.199   0.516   1.461 -0.0981 -0.4114  0.0816
  175SOL    HW1 1741   1.158   0.481   1.381  1.5547  1.7317 -1.8425
  175SOL    HW2 1742   1.292   0.524   1.438  0.0368  2.5993  1.3065
  176SOL     OW 1743   1.080   0.151   1.535 -0.1384 -0.2246 -0.2593
  176SOL    HW1 1744   1.154   0.194   1.579  0.0557 -0.6757 -0.1458
  176SOL    HW2 1745   1.022   0.224   1.511  0.4410  0.1533 -0.5443
  177SOL     OW 1746   0.224   1.535   0.143  0.0123 -0.0315  0.0297
  177SOL    HW1 1747   0.301   1.569   0.188  0.9946 -3.5501  1.3353
  177SOL    HW2 1748   0.247   1.542   0.050  0.2871  2.2458  0.1887
  178SOL     OW 1749   8.639   1.488   1.011 -0.4070  0.2440  0.1174
  178SOL    HW1 1750   8.622   1.395   1.020  2.2691 -0.2409  0.8790
  178SOL    HW2 1751   8.610   1.527   1.093 -1.0766  0.0175 -0.0111
  179SOL     OW 1752   0.233   1.153   1.087 -0.0127 -0.2036 -0.5215
  179SOL    HW1 1753   0.259   1.129   0.998  0.9945  2.0592 -0.9011
  179SOL    HW2 1754   0.272   1.085   1.142  2.0740  0.0721 -1.5598
  180SOL     OW 1755   1.114   0.756   1.062  0.5652  0.0916  0.2762
  180SOL    HW1 1756   1.047   0.713   1.115  1.9521 -1.8283  0.6209
  180SOL    HW2 1757   1.194   0.750   1.115  1.5767 -0.1272 -1.1858
  181SOL     OW 1758   0.237   0.766   1.041  0.0455  0.2617 -0.1558
  181SOL    HW1 1759   0.164   0.826   1.026 -0.7991 -0.4567  0.9156
  181SOL    HW2 1760   0.276   0.797   1.123  2.4995  2.1057 -1.8624
  182SOL     OW 1761   8.773   0.271   1.547  0.0428  1.1130 -0.0852
  182SOL    HW1 1762   8.794   0.359   1.517  2.3398  0.1350 -1.7926
  182SOL    HW2 1763   8.809   0.214   1.478  0.0566 -1.1883  1.6970
  183SOL     OW 1764   1.505   0.590   1.366  0.0485 -0.6689  0.4398
  183SOL    HW1 1765   1.549   0.610   1.448 -1.6190  0.2276  1.1800
  183SOL    HW2 1766   1.572   0.550   1.311  1.8123  0.8749  1.3783
  184SOL     OW 1767   1.567   0.958   0.170  0.3616  0.1420 -0.3258
  184SOL    HW1 1768   1.611   1.004   0.098 -0.5087  2.0666  0.3242
  184SOL    HW2 1769   1.484   0.929   0.133  0.1767  0.6006 -0.2763
  185SOL     OW 1770   1.870   0.852   1.079 -0.4260  0.2437  0.2053
  185SOL    HW1 1771   1.793   0.906   1.061 -0.0961  0.7514  0.2829
  185SOL    HW2 1772   1.880   0.799   1.000  0.0618  1.3041 -0.4715
  186SOL     OW 1773   8.662   1.436   1.746 -0.4744 -0.0831  0.4570
  186SOL    HW1 1774   8.739   1.404   1.792  0.6613  0.8286 -0.7243
  186SOL    HW2 1775   8.644   1.521   1.786  0.1954  0.4714 -0.3722
  187SOL     OW 1776   0.672   0.252   1.226  0.5668 -0.2165  0.0597
  187SOL    HW1 1777   0.699   0.260   1.134  1.0800  0.0403  0.2274
  187SOL    HW2 1778   0.749   0.216   1.270  0.0705 -1.0512  0.2607
  188SOL     OW 1779   1.015   1.314   1.338  0.7160 -0.1611 -0.2450
  188SOL    HW1 1780   0.924   1.294   1.359  0.3101  1.8955  0.1493
  188SOL    HW2 1781   1.025   1.288   1.247 -0.0922 -0.8951 -0.1410
  189SOL     OW 1782   0.683   1.025   8.665 -0.4076 -0.5190  0.4694
  189SOL    HW1 1783   0.761   0.985   8.704  0.4197 -1.1468 -1.6463
  189SOL    HW2 1784   0.688   1.117   8.689  1.6317 -0.3194 -0.4709
  190SOL     OW 1785   8.587   0.724   1.623  0.0927 -0.0825  0.1333
  190SOL    HW1 1786   8.578   0.814   1.594  0.3123 -0.4443 -1.1104
  190SOL    HW2 1787   8.520   0.713   1.691 -0.6685  0.6905 -0.4828
  191SOL     OW 1788   1.320   0.718   1.221  0.6042  0.1764 -0.2147
  191SOL    HW1 1789   1.324   0.808   1.252 -2.7333  0.3078  0.1918
  191SOL    HW2 1790   1.366   0.668   1.288 -0.8991  1.1868  1.6549
  192SOL     OW 1791   1.227   0.404   8.790 -0.1329  0.0089  0.1304
  192SOL    HW1 1792   1.178   0.393   8.872 -0.9040  0.4681 -0.2594
  192SOL    HW2 1793   1.188   0.340   8.730  1.5174 -1.5020  0.5640
  193SOL     OW 1794   1.469   1.920   1.344 -0.1727  0.1388 -0.2045
  193SOL    HW1 1795   1.454   1.834   1.384 -0.6449 -0.2743 -1.2160
  193SOL    HW2 1796   1.508   1.973   1.413 -1.4012 -0.3966  0.9315
  194SOL     OW 1797   1.426   1.933   1.067 -0.0017 -0.3903  0.1872
  194SOL    HW1 1798   1.470   1.912   1.149 -0.2852  1.0157  0.7252
  194SOL    HW2 1799   1.496   1.930   1.001  0.8070  1.1600  0.9230
  195SOL     OW 1800   8.281   1.312   1.063 -0.9656 -0.2073 -0.4093
  195SOL    HW1 1801   8.304   1.305   0.970 -0.9397  3.3471 -0.8100
  195SOL    HW2 1802   8.234   1.231   1.082 -1.1134 -0.9968 -3.5447
  196SOL     OW 1803   1.229   1.503   1.366 -0.4336 -0.0035  0.1792
  196SOL    HW1 1804   1.227   1.596   1.343  1.2556 -0.0324 -0.2171
  196SOL    HW2 1805   1.142   1.470   1.342 -0.2400  0.9281 -2.0390
  197SOL     OW 1806   0.272   8.823   0.546 -0.3773 -0.2125 -0.0903
  197SOL    HW1 1807   0.345   8.795   0.601 -0.8069  0.0792  0.6450
  197SOL    HW2 1808   0.202   8.843   0.607 -1.6275 -1.9745 -0.8396
  198SOL     OW 1809   1.521   0.193   0.449 -1.4012 -0.1524  0.3450
  198SOL    HW1 1810   1.572   0.271   0.472 -0.5328  0.0986 -2.2029
  198SOL    HW2 1811   1.566   0.121   0.494 -0.0891  0.3689 -0.0741
  199SOL     OW 1812   1.414   1.225   0.757  0.0505  0.4052  0.2096
  199SOL    HW1 1813   1.489   1.283   0.747 -0.3600  1.0801  0.9382
  199SOL    HW2 1814   1.402   1.185   0.671  0.0668  1.7432 -0.4324
  200SOL     OW 1815   8.394   1.358   1.311 -0.8904 -0.2186  0.0173
  200SOL    HW1 1816   8.463   1.291   1.314 -1.2070 -0.6123 -0.9604
  200SOL    HW2 1817   8.355   1.347   1.224 -0.8063  1.3941 -0.2454
  201SOL     OW 1818   1.256   0.793   0.359  0.3972 -0.1913 -0.5000
  201SOL    HW1 1819   1.168   0.825   0.341 -0.0755 -1.7607 -1.1568
  201SOL    HW2 1820   1.274   0.819   0.449 -0.8173 -0.0350 -0.2929
  202SOL     OW 1821   0.750   0.888   1.071 -0.1478 -0.2562  0.2374
  202SOL    HW1 1822   0.691   0.826   1.029  0.5538 -1.8363  1.4672
  202SOL    HW2 1823   0.720   0.892   1.162  0.4665  0.4073  0.4220
  203SOL     OW 1824   0.475   1.526   0.348 -0.5271  0.0230  0.3806
  203SOL    HW1 1825   0.563   1.556   0.325 -1.0466  1.1598 -0.2304
  203SOL    HW2 1826   0.486   1.475   0.428  0.6604  0.3258  0.4189
  204SOL     OW 1827   1.337   2.173   1.245 -0.3002 -0.2816 -0.6650
  204SOL    HW1 1828   1.350   2.082   1.215  0.6922 -0.4656  0.2714
  204SOL    HW2 1829   1.408   2.222   1.203  0.3176 -0.3078  0.3015
  205SOL     OW 1830   1.835   8.722   0.797 -0.3216 -0.2277  0.0265
  205SOL    HW1 1831   1.829   8.746   0.705  2.1551  1.0222  0.1003
  205SOL    HW2 1832   1.901   8.652   0.799  1.0812  1.0523  0.9741
  206SOL     OW 1833   0.082   8.840   0.813 -0.1213  0.0056  0.0609
  206SOL    HW1 1834   0.137   8.825   0.890 -0.1329  2.0617  0.5002
  206SOL    HW2 1835   0.022   8.910   0.838 -1.7348 -0.9092 -1.0481
  207SOL     OW 1836   1.960   1.717   8.670 -0.0799 -0.4414 -0.1287
  207SOL    HW1 1837   2.036   1.707   8.727 -1.1039  0.1027  1.3876
  207SOL    HW2 1838   1.964   1.808   8.641 -0.4650 -0.2401  0.4357
  208SOL     OW 1839   0.998   0.943   1.350  0.7112 -0.6834  0.1447
  208SOL    HW1 1840   0.996   0.963   1.443  4.0808 -0.5839  0.3353
  208SOL    HW2 1841   1.090   0.955   1.325 -0.1993  0.1112 -3.3904
  209SOL     OW 1842   1.173   1.195   8.845  0.3906 -0.0877  0.2339
  209SOL    HW1 1843   1.234   1.202   8.772  0.3398 -1.4566  0.0372
  209SOL    HW2 1844   1.207   1.123   8.898  0.1212  0.5329  1.2726
  210SOL     OW 1845   1.735   1.570   8.748 -0.0406 -0.1820 -0.3303
  210SOL    HW1 1846   1.806   1.618   8.706 -0.6965  0.6195 -0.5407
  210SOL    HW2 1847   1.668   1.562   8.680  0.6872 -2.8757 -0.8505
  211SOL     OW 1848   0.070   1.115   1.722 -0.9547  0.0165 -0.1263
  211SOL    HW1 1849   0.044   1.023   1.733 -0.2963 -0.2321 -0.5532
  211SOL    HW2 1850   0.052   1.155   1.806  2.5747 -1.4862  1.5931
  212SOL     OW 1851   1.428   1.693   1.544 -0.5501 -0.8513 -0.3138
  212SOL    HW1 1852   1.460   1.734   1.625 -0.8190 -0.6884 -0.2885
  212SOL    HW2 1853   1.463   1.604   1.548  0.2385 -0.5628 -0.4847
  213SOL     OW 1854   0.920   1.310   0.615 -0.4856  0.0964  0.2009
  213SOL    HW1 1855   0.975   1.324   0.692 -0.0246 -0.0732 -0.0951
  213SOL    HW2 1856   0.852   1.378   0.622 -0.4274  0.1077  0.7320
  214SOL     OW 1857   1.467   0.563   0.635  0.2393 -0.1131 -0.3458
  214SOL    HW1 1858   1.463   0.626   0.707  0.3034  1.4695 -1.6698
  214SOL    HW2 1859   1.375   0.546   0.614  0.1955  1.0563 -1.2162
  215SOL     OW 1860   0.739   1.514   0.600 -0.2819  0.2638  1.1583
  215SOL    HW1 1861   0.668   1.463   0.561  0.0533  0.1355  0.7104
  215SOL    HW2 1862   0.728   1.602   0.564 -0.2680  0.2652  1.1572
  216SOL     OW 1863   1.628   0.382   1.183  0.1845 -0.3788  0.3509
  216SOL    HW1 1864   1.685   0.455   1.160  1.1503 -1.0490  0.5505
  216SOL    HW2 1865   1.667   0.306   1.139 -1.6654 -0.5451 -1.1417
  217SOL     OW 1866   0.361   1.786   0.445  0.0683  0.8406 -0.2855
  217SOL    HW1 1867   0.434   1.847   0.435  0.5463  0.2875 -0.1689
  217SOL    HW2 1868   0.387   1.709   0.395 -0.2435  0.4706  0.1182
  218SOL     OW 1869   8.754   0.809   2.134 -0.3150  0.1348  0.3961
  218SOL    HW1 1870   8.819   0.753   2.176 -0.8072 -1.1649 -0.5275
  218SOL    HW2 1871   8.681   0.811   2.197  0.0864  0.5362  0.8555
  219SOL     OW 1872   0.918   0.347   1.472 -0.4595  0.6378 -0.4909
  219SOL    HW1 1873   0.892   0.401   1.547  2.2087  0.3707  0.7543
  219SOL    HW2 1874   0.938   0.410   1.403  1.0976  1.2554  0.4478
  220SOL     OW 1875   8.607   0.213   0.228 -0.0110 -0.3471 -0.8261
  220SOL    HW1 1876   8.597   0.293   0.281  0.2743 -1.3920  0.8581
  220SOL    HW2 1877   8.672   0.237   0.161  0.3683  0.7132 -0.1073
  221SOL     OW 1878   1.792   0.592   1.152  0.3723 -0.2328 -0.3517
  221SOL    HW1 1879   1.835   0.655   1.209 -1.3950  1.2495 -0.6020
  221SOL    HW2 1880   1.840   0.599   1.069 -0.0847  1.1224 -0.5152
  222SOL     OW 1881   0.106   0.173   0.275  0.1160 -0.4052 -0.1363
  222SOL    HW1 1882   0.179   0.234   0.285  0.8683 -0.8708 -2.3735
  222SOL    HW2 1883   0.034   0.215   0.322  1.2806  0.9853  0.4959
  223SOL     OW 1884   1.438   1.676   8.581  0.3277 -0.0463 -0.5419
  223SOL    HW1 1885   1.519   1.726   8.584  0.1777  0.1672  0.6080
  223SOL    HW2 1886   1.426   1.655   8.489  0.7735  1.4247 -0.9653
  224SOL     OW 1887   0.457   0.942   1.521  0.3317 -1.2320 -0.1029
  224SOL    HW1 1888   0.390   0.891   1.567  0.7728 -0.4384  1.4975
  224SOL    HW2 1889   0.432   1.033   1.537  0.4792 -0.9299 -1.5238
  225SOL     OW 1890   1.920   2.238   1.085 -0.1693 -0.0855 -0.5056
  225SOL    HW1 1891   1.948   2.185   1.159  1.3852 -0.1948 -1.1432
  225SOL    HW2 1892   1.965   2.322   1.097 -0.1631  0.0068 -1.1569
  226SOL     OW 1893   0.273   0.551   1.574 -0.2048  0.7361  0.6990
  226SOL    HW1 1894   0.212   0.543   1.647 -2.6181  2.3894 -0.9943
  226SOL    HW2 1895   0.274   0.464   1.534  0.1889  0.1485  1.9412
  227SOL     OW 1896   1.551   1.406   1.323  0.3102 -0.5002 -0.2107
  227SOL    HW1 1897   1.519   1.411   1.413 -0.4892 -1.1302 -0.4450
  227SOL    HW2 1898   1.492   1.343   1.281  1.1460 -0.7871 -0.9696
  228SOL     OW 1899   0.077   1.544   1.585 -0.1630 -0.0340 -0.3066
  228SOL    HW1 1900   0.033   1.592   1.655 -0.5843  0.5812 -0.9733
  228SOL    HW2 1901   0.163   1.585   1.578 -0.1334 -0.0725 -0.1759
  229SOL     OW 1902   1.896   0.655   0.875 -0.4381 -0.7639  0.4691
  229SOL    HW1 1903   1.884   0.614   0.789  0.7175 -0.4672  0.1512
  229SOL    HW2 1904   1.970   0.608   0.914  0.1418  0.2202  0.5860
  230SOL     OW 1905   1.122   0.118   0.372 -0.4953 -0.2867  0.6680
  230SOL    HW1 1906   1.053   0.164   0.420  1.8658  1.7433  2.4062
  230SOL    HW2 1907   1.147   0.178   0.302  0.3900 -0.4190  0.8657
  231SOL     OW 1908   0.078   0.514   0.261  0.2088 -0.3816  0.0159
  231SOL    HW1 1909   0.114   0.592   0.303 -0.0546 -0.2207 -0.0490
  231SOL    HW2 1910   0.151   0.454   0.254  0.3490 -0.2527  0.3362
  232SOL     OW 1911   1.758   0.170   1.508  0.2437 -0.2089  0.4516
  232SOL    HW1 1912   1.774   0.257   1.470 -0.3698  1.0716  2.8978
  232SOL    HW2 1913   1.664   0.170   1.528 -0.0373 -1.9951 -0.7077
  233SOL     OW 1914   1.728   0.836   1.448  0.0757  0.2832  0.3209
  233SOL    HW1 1915   1.808   0.883   1.473 -1.6727  2.2367  2.7260
  233SOL    HW2 1916   1.683   0.895   1.389  0.8793 -1.3619 -2.0897
  234SOL     OW 1917   1.100   1.695   0.107  0.0490  0.1338  0.3967
  234SOL    HW1 1918   1.008   1.721   0.100 -0.3921 -1.4811 -0.3411
  234SOL    HW2 1919   1.098   1.600   0.112  1.6991  0.0538  0.2289
  235SOL     OW 1920   0.731   1.220   0.969  0.1129  0.0174  0.3318
  235SOL    HW1 1921   0.743   1.314   0.981  0.3375  0.1554 -0.8474
  235SOL    HW2 1922   0.820   1.185   0.965  0.0287 -0.2549  0.7986
  236SOL     OW 1923   0.810   0.867   0.172  0.0532  0.1868  0.0923
  236SOL    HW1 1924   0.738   0.823   0.127  0.3883 -0.1428 -0.1169
  236SOL    HW2 1925   0.884   0.860   0.112 -0.0461  1.5865 -0.2368
  237SOL     OW 1926   1.352   0.908   8.836  0.4475  0.0341 -0.1264
  237SOL    HW1 1927   1.309   0.823   8.851  0.1715  0.3119  0.7083
  237SOL    HW2 1928   1.378   0.905   8.744  1.3832 -1.3880  0.1547
  238SOL     OW 1929   2.054   1.135   0.981  0.1549  0.1087 -0.2186
  238SOL    HW1 1930   2.049   1.076   1.056  4.5060 -0.8784 -0.4515
  238SOL    HW2 1931   2.121   1.097   0.924 -0.1409  2.8912 -2.6688
  239SOL     OW 1932   8.659   1.027   2.012 -0.7344  0.5021 -0.3426
  239SOL    HW1 1933   8.578   0.997   1.972 -0.9844  0.3069  0.2942
  239SOL    HW2 1934   8.691   0.951   2.061  0.5415  0.1327 -1.6554
  240SOL     OW 1935   0.090   1.258   0.544  0.1455 -0.5171 -0.2189
  240SOL    HW1 1936   0.100   1.316   0.619 -1.8426  2.4662 -2.0780
  240SOL    HW2 1937   0.032   1.188   0.576 -1.4997  1.2176  0.8250
  241SOL     OW 1938   8.810   1.248   1.922 -0.8419 -0.2402 -0.2277
  241SOL    HW1 1939   8.782   1.162   1.954 -0.0402 -0.4711 -0.1167
  241SOL    HW2 1940   8.780   1.310   1.989 -0.4202 -0.5645  0.2675
  242SOL     OW 1941   1.951   0.653   1.368 -0.0358 -0.0401 -0.5579
  242SOL    HW1 1942   1.886   0.715   1.402  0.2619 -0.5925  1.1298
  242SOL    HW2 1943   2.034   0.701   1.370 -0.0819  0.0546 -0.8925
  243SOL     OW 1944   8.696   0.307   0.616  0.2613  0.1898  0.2964
  243SOL    HW1 1945   8.778   0.352   0.596 -0.2542  0.9945 -0.0297
  243SOL    HW2 1946   8.711   0.216   0.588  0.3836  0.7377 -1.5394
  244SOL     OW 1947   1.375   1.007   0.930  0.1232  0.3207 -0.0813
  244SOL    HW1 1948   1.290   0.975   0.898 -0.1808  1.2132 -0.2042
  244SOL    HW2 1949   1.389   1.089   0.882  0.8613  0.3843  0.2396
  245SOL     OW 1950   0.709   0.592   1.371  0.2690  0.9484  0.0455
  245SOL    HW1 1951   0.724   0.551   1.456 -1.8693  0.6107  0.3221
  245SOL    HW2 1952   0.651   0.530   1.325  0.3146  1.7575 -1.1296
  246SOL     OW 1953   1.419   1.806   0.502 -0.2445  0.3005 -0.0576
  246SOL    HW1 1954   1.502   1.763   0.524 -0.2953  0.3210  0.1712
  246SOL    HW2 1955   1.397   1.772   0.415  0.2622  0.6774 -0.3431
  247SOL     OW 1956   2.107   0.253   0.782  1.0142  0.2980  0.5420
  247SOL    HW1 1957   2.067   0.282   0.864  1.6133  0.5354  0.7555
  247SOL    HW2 1958   2.190   0.300   0.779  1.6987 -0.9002  0.5614
  248SOL     OW 1959   1.325   8.527   1.322  0.0098 -0.3351 -0.2101
  248SOL    HW1 1960   1.327   8.432   1.337 -1.0401 -0.3795 -0.3101
  248SOL    HW2 1961   1.402   8.544   1.268  0.8927 -0.9450  0.8120
  249SOL     OW 1962   0.706   1.642   0.287 -0.1549 -0.4008 -0.1452
  249SOL    HW1 1963   0.712   1.661   0.194 -0.4118  0.8130  0.0687
  249SOL    HW2 1964   0.711   1.728   0.330 -0.4684 -0.8962  0.9333
  250SOL     OW 1965   0.553   1.254   1.208  0.5953 -0.5053  0.1749
  250SOL    HW1 1966   0.466   1.292   1.198  0.0199 -1.3317  1.8612
  250SOL    HW2 1967   0.585   1.245   1.118 -1.3394 -0.8553 -0.5133
  251SOL     OW 1968   0.900   0.354   0.355  0.2335  0.2862  0.3692
  251SOL    HW1 1969   0.821   0.340   0.408 -0.4550  1.4626 -0.3116
  251SOL    HW2 1970   0.902   0.448   0.339  1.5616  0.2165  0.0224
  252SOL     OW 1971   1.289   0.021   0.570  0.3672 -0.3383  0.3005
  252SOL    HW1 1972   1.318   0.104   0.610 -0.2532 -0.7442  1.6602
  252SOL    HW2 1973   1.227   0.048   0.503  0.0778  0.3083  0.8105
  253SOL     OW 1974   2.070   0.215   1.076 -0.3227  0.4417 -0.4900
  253SOL    HW1 1975   2.106   0.219   1.164 -0.8511  1.0109 -0.2959
  253SOL    HW2 1976   2.012   0.139   1.077  0.9626 -0.5774 -0.8502
  254SOL     OW 1977   0.072   1.326   8.802 -0.3533 -0.6574  0.3278
  254SOL    HW1 1978   0.114   1.247   8.837  1.1959 -0.5513 -1.1584
  254SOL    HW2 1979   0.052   1.304   8.711 -1.1342  0.2371  0.2720
  255SOL     OW 1980   0.656   1.947   0.110 -0.5103  0.2262  0.1859
  255SOL    HW1 1981   0.687   2.035   0.089 -0.3635  0.2820  0.6282
  255SOL    HW2 1982   0.713   1.889   0.060  0.1777  0.3369  0.8094
  256SOL     OW 1983   0.126   0.655   2.231  0.4721 -0.1500  0.2425
  256SOL    HW1 1984   0.205   0.629   2.278 -0.0113 -0.1621  1.0912
  256SOL    HW2 1985   0.065   0.582   2.245 -0.3735  0.7179  1.3582
  257SOL     OW 1986   8.743   0.036   2.936 -0.1231 -0.3291 -0.0862
  257SOL    HW1 1987   8.826   0.073   2.904  0.4068  0.5599  2.1218
  257SOL    HW2 1988   8.682   0.110   2.935 -0.3637 -0.5243  0.0374
  258SOL     OW 1989   8.732   0.247   2.552 -0.1084 -0.4777 -0.0656
  258SOL    HW1 1990   8.667   0.309   2.588 -0.2851 -0.6921 -0.0126
  258SOL    HW2 1991   8.785   0.222   2.628 -0.1199 -0.4928 -0.0626
  259SOL     OW 1992   0.607   1.414   3.627 -0.1417 -0.3054 -0.0675
  259SOL    HW1 1993   0.581   1.470   3.554  1.5397  2.2337  1.1402
  259SOL    HW2 1994   0.537   1.425   3.692  1.0209  1.9632  0.8896
  260SOL     OW 1995   1.295   1.533   2.758  0.1029 -0.5558 -0.2786
  260SOL    HW1 1996   1.214   1.482   2.760 -0.3796  0.1499 -1.2096
  260SOL    HW2 1997   1.341   1.508   2.839 -1.4946 -0.2248  0.7767
  261SOL     OW 1998   0.638   0.885   2.288 -0.7234  0.4697 -0.1275
  261SOL    HW1 1999   0.610   0.909   2.200 -0.4783  1.3567  0.0252
  261SOL    HW2 2000   0.643   0.968   2.335  0.4789  0.1701  0.3328
  262SOL     OW 2001   1.872   0.492   1.978  0.2990 -0.1904  0.1071
  262SOL    HW1 2002   1.891   0.561   2.041  0.8374  0.9910 -1.2979
  262SOL    HW2 2003   1.864   0.413   2.031 -0.4614  0.9465  1.7758
  263SOL     OW 2004   1.068   1.297   3.060  0.0160 -0.5186 -0.2946
  263SOL    HW1 2005   1.119   1.332   2.987  0.3559 -0.3067  0.0399
  263SOL    HW2 2006   1.134   1.276   3.127 -0.2931 -0.6975 -0.0435
  264SOL     OW 2007   1.293   0.522   3.473  0.0315 -0.2549  0.8483
  264SOL    HW1 2008   1.210   0.506   3.428 -0.2889  1.4188  0.7576
  264SOL    HW2 2009   1.293   0.461   3.547 -1.5141  0.0517  1.1289
  265SOL     OW 2010   0.585   1.244   2.726  0.0889  0.0107 -0.2283
  265SOL    HW1 2011   0.651   1.176   2.711 -1.1503 -1.5303  0.8423
  265SOL    HW2 2012   0.575   1.287   2.642  1.6116 -0.4929 -0.7033
  266SOL     OW 2013   1.123   0.971   3.832 -0.0589 -0.3397  0.3920
  266SOL    HW1 2014   1.059   0.972   3.904  0.4829 -1.7575  0.9269
  266SOL    HW2 2015   1.164   0.885   3.838  1.2042  0.1718 -0.5743
  267SOL     OW 2016   0.351   1.561   2.802 -0.3631  0.0667 -0.0837
  267SOL    HW1 2017   0.330   1.571   2.709 -0.1606 -1.1713 -0.2753
  267SOL    HW2 2018   0.437   1.602   2.811 -0.2945  0.0150 -0.4771
  268SOL     OW 2019   1.409   0.854   2.696 -0.0220 -0.3287 -0.0484
  268SOL    HW1 2020   1.494   0.810   2.691 -0.6477 -1.6918  0.8689
  268SOL    HW2 2021   1.419   0.918   2.766  0.7483  0.7141 -1.0727
  269SOL     OW 2022   0.306   0.016   3.070 -0.1660  0.2433  0.1976
  269SOL    HW1 2023   0.250   0.051   3.001 -1.2778  1.4257  1.6196
  269SOL    HW2 2024   0.351  -0.058   3.030 -2.6804 -0.6966 -1.0648
  270SOL     OW 2025   1.275   0.373   2.432  0.0333 -0.0785  0.5726
  270SOL    HW1 2026   1.319   0.398   2.350  1.2820  0.3353  1.3392
  270SOL    HW2 2027   1.211   0.443   2.447  0.6182  0.4653  0.5548
  271SOL     OW 2028   8.648   1.895   2.379 -0.5703 -0.2891 -0.1018
  271SOL    HW1 2029   8.701   1.948   2.320 -1.7268  2.5569  1.2381
  271SOL    HW2 2030   8.641   1.948   2.459 -2.4449 -2.1591  1.0716
  272SOL     OW 2031   1.377   1.171   3.636  0.2064 -0.5201 -0.3345
  272SOL    HW1 2032   1.450   1.228   3.612  0.9106 -0.7786  1.0549
  272SOL    HW2 2033   1.367   1.184   3.730 -0.3756 -1.8255 -0.1939
  273SOL     OW 2034   0.251   1.703   2.296  0.0531  0.2165 -0.8841
  273SOL    HW1 2035   0.323   1.644   2.272  0.0328 -0.3105  0.2929
  273SOL    HW2 2036   0.172   1.661   2.262 -0.0579 -0.8794  0.6656
  274SOL     OW 2037   0.295   1.611   2.538 -0.3439 -0.3408 -0.1508
  274SOL    HW1 2038   0.273   1.669   2.465 -0.0046  1.7276  1.3013
  274SOL    HW2 2039   0.248   1.530   2.520  0.4534 -0.2561 -3.1025
  275SOL     OW 2040   0.603   2.116   2.978 -0.0855  0.3052  0.1941
  275SOL    HW1 2041   0.568   2.066   3.052  0.3754  0.8581  0.7946
  275SOL    HW2 2042   0.686   2.073   2.959  0.0398  0.4846  0.3359
  276SOL     OW 2043   0.820   0.762   1.987  0.0685  1.0250 -0.2054
  276SOL    HW1 2044   0.796   0.726   1.902 -0.6108  0.6690  0.1233
  276SOL    HW2 2045   0.819   0.856   1.975 -0.8022  1.0015 -0.4069
  277SOL     OW 2046   1.612   8.670   3.315 -0.1949 -0.0541  0.2712
  277SOL    HW1 2047   1.641   8.727   3.386 -1.1310 -0.8032  1.2940
  277SOL    HW2 2048   1.539   8.717   3.274  1.1791  0.9777 -1.0875
  278SOL     OW 2049   8.644   0.074   2.151 -0.8624 -0.1155  0.2397
  278SOL    HW1 2050   8.718   0.075   2.090 -1.7176  0.1972 -0.8204
  278SOL    HW2 2051   8.674   0.021   2.224  0.1000 -0.7114 -0.5635
  279SOL     OW 2052   1.979   1.765   2.355 -0.3936  0.3377 -0.4485
  279SOL    HW1 2053   1.891   1.798   2.374 -0.1844  0.6356  0.0285
  279SOL    HW2 2054   2.031   1.844   2.339  0.2539  0.3223  1.3198
  280SOL     OW 2055   8.780   1.677   1.792 -0.8139  0.1120  0.2597
  280SOL    HW1 2056   8.702   1.715   1.752 -1.3256  1.7543  2.6055
  280SOL    HW2 2057   8.788   1.722   1.876  1.8124 -1.1036  0.7571
  281SOL     OW 2058   1.791   0.758   2.142 -0.6094  0.2093  0.8083
  281SOL    HW1 2059   1.843   0.726   2.215 -2.1528  1.6576  2.6449
  281SOL    HW2 2060   1.812   0.851   2.137 -0.8601  0.2182 -0.3152
  282SOL     OW 2061   1.493   0.843   2.393  0.4138 -0.8195 -0.3384
  282SOL    HW1 2062   1.558   0.890   2.446  0.5319 -0.8982 -0.4127
  282SOL    HW2 2063   1.421   0.905   2.381  0.6159 -0.6227 -0.5261
  283SOL     OW 2064   0.356   0.425   3.403  0.6179 -0.3326 -0.2308
  283SOL    HW1 2065   0.299   0.502   3.414  1.4141  0.2147  0.1075
  283SOL    HW2 2066   0.424   0.435   3.470  0.6344 -1.4311 -0.0557
  284SOL     OW 2067   0.768   1.528   2.375 -0.0151  0.3241 -0.3002
  284SOL    HW1 2068   0.763   1.588   2.300  0.6646  0.1039 -0.5294
  284SOL    HW2 2069   0.678   1.498   2.388 -0.0890  0.1061 -1.2467
  285SOL     OW 2070   1.595   1.178   3.433  0.3089  0.0976  0.4106
  285SOL    HW1 2071   1.608   1.100   3.488  0.5620  1.7977  2.9532
  285SOL    HW2 2072   1.671   1.234   3.453  0.6332  0.6365 -2.0755
  286SOL     OW 2073   0.836   0.452   2.001  0.3326  0.1096 -0.1224
  286SOL    HW1 2074   0.875   0.493   2.078 -0.9570  0.5494  0.3215
  286SOL    HW2 2075   0.749   0.490   1.995  0.0629 -0.6314 -1.2493
  287SOL     OW 2076   8.708   0.931   3.250 -0.2151 -0.0475 -0.0590
  287SOL    HW1 2077   8.653   0.931   3.172  0.8754 -0.8443 -0.8553
  287SOL    HW2 2078   8.759   1.012   3.244  0.7118 -0.6666 -0.8144
  288SOL     OW 2079   1.545   0.691   2.166  1.0837  0.2715  0.0890
  288SOL    HW1 2080   1.497   0.742   2.232  0.6735 -0.5826  0.4585
  288SOL    HW2 2081   1.636   0.719   2.176  1.0427  0.0964  1.0774
  289SOL     OW 2082   0.715   1.566   3.142 -0.6227  0.2203 -0.0814
  289SOL    HW1 2083   0.794   1.600   3.100 -0.4361  0.1662  0.2205
  289SOL    HW2 2084   0.669   1.520   3.073  0.8676 -1.9792  0.2818
  290SOL     OW 2085   0.314   0.135   3.502 -0.2883  0.2927  0.0700
  290SOL    HW1 2086   0.360   0.219   3.510  0.0903  0.1353 -0.3725
  290SOL    HW2 2087   0.271   0.140   3.416  1.0927 -0.6042 -0.7168
  291SOL     OW 2088   1.269   0.714   2.511 -0.7930  0.8265  0.1130
  291SOL    HW1 2089   1.351   0.719   2.462  0.0610 -2.6699  0.9626
  291SOL    HW2 2090   1.274   0.785   2.575  0.4761  2.0971 -1.3391
  292SOL     OW 2091   1.189   1.436   2.439  0.0848 -0.2481  0.3856
  292SOL    HW1 2092   1.127   1.364   2.455  0.6298 -1.0862 -1.0742
  292SOL    HW2 2093   1.136   1.506   2.402  0.0145 -1.0771 -1.1612
  293SOL     OW 2094   0.643   0.954   1.741 -0.2930  0.8700  0.3651
  293SOL    HW1 2095   0.637   0.998   1.657 -0.6100  1.1152  0.5167
  293SOL    HW2 2096   0.688   0.871   1.722  0.7796  1.4795  0.1638
  294SOL     OW 2097   1.017   0.418   2.277 -0.2018 -0.0727 -0.4863
  294SOL    HW1 2098   0.953   0.487   2.260  0.5815  0.2917 -2.1893
  294SOL    HW2 2099   0.965   0.338   2.286 -0.9268  0.2209 -1.7776
  295SOL     OW 2100   1.548   1.652   2.095  0.5140  0.5862  0.2982
  295SOL    HW1 2101   1.592   1.737   2.097 -0.7139  1.2691 -0.4597
  295SOL    HW2 2102   1.474   1.661   2.154 -0.1554  0.3688 -0.4809
  296SOL     OW 2103   1.059   0.462   3.369 -0.0739  0.3192 -0.0615
  296SOL    HW1 2104   0.993   0.481   3.436  0.3994 -1.7921  1.0807
  296SOL    HW2 2105   1.047   0.370   3.348  1.7425  0.1741 -0.6861
  297SOL     OW 2106   1.694   0.549   3.558  0.5867  0.2895  0.0159
  297SOL    HW1 2107   1.628   0.568   3.492  0.7726  2.3537  0.3528
  297SOL    HW2 2108   1.645   0.518   3.634 -0.1145  2.1665  0.4008
  298SOL     OW 2109   1.184   0.530   3.117 -0.0895 -0.2057  0.1740
  298SOL    HW1 2110   1.139   0.522   3.201 -0.7683 -1.6836 -0.2903
  298SOL    HW2 2111   1.174   0.622   3.093  1.7121  0.7280  2.5439
  299SOL     OW 2112   0.866   0.564   2.827  0.1144 -0.5216 -0.4624
  299SOL    HW1 2113   0.842   0.500   2.760  1.4630 -0.3742 -1.1099
  299SOL    HW2 2114   0.913   0.513   2.894  0.6901 -0.3094 -0.7014
  300SOL     OW 2115   0.680   0.656   2.415  0.1156 -0.3230 -0.1125
  300SOL    HW1 2116   0.651   0.741   2.381 -0.7884  0.3820  2.2296
  300SOL    HW2 2117   0.745   0.626   2.352  1.3883  2.7007 -0.4129
  301SOL     OW 2118   8.641   0.585   2.539  0.3615 -0.6745 -0.2905
  301SOL    HW1 2119   8.700   0.627   2.477  0.6741 -0.6772 -0.0013
  301SOL    HW2 2120   8.693   0.577   2.619 -0.7294  1.5044  0.7527
  302SOL     OW 2121   8.663   1.676   3.530  0.2582 -0.1179  0.8780
  302SOL    HW1 2122   8.642   1.643   3.443 -0.2178  0.2992  0.8314
  302SOL    HW2 2123   8.583   1.661   3.581 -0.2204  1.5357  0.6854
  303SOL     OW 2124   0.940   0.138   1.812 -0.2418 -0.3658  0.0433
  303SOL    HW1 2125   0.994   0.164   1.886  1.5458 -0.2712 -1.2458
  303SOL    HW2 2126   0.906   0.220   1.776  2.1194 -0.0143 -1.5802
  304SOL     OW 2127   1.822   0.794   3.473  0.1049  0.3959  0.2855
  304SOL    HW1 2128   1.912   0.799   3.504 -0.2265 -0.2855  1.4391
  304SOL    HW2 2129   1.806   0.700   3.460 -0.9466  0.3386  1.7719
  305SOL     OW 2130   1.628   0.695   2.668  0.3333 -0.2489 -0.0704
  305SOL    HW1 2131   1.722   0.712   2.675 -0.1263  2.3663  1.0487
  305SOL    HW2 2132   1.621   0.600   2.656  3.1539 -0.3169 -2.0664
  306SOL     OW 2133   0.512   0.274   2.734 -0.3220 -0.0097  0.0916
  306SOL    HW1 2134   0.574   0.219   2.784  0.2264  0.5933  0.0827
  306SOL    HW2 2135   0.490   0.345   2.794 -0.4712  0.1540 -0.1584
  307SOL     OW 2136   1.052   1.037   2.396  0.2715  0.2365  0.4347
  307SOL    HW1 2137   1.010   1.120   2.376  0.2027 -0.2607 -1.7698
  307SOL    HW2 2138   1.140   1.046   2.361 -0.0678 -0.9476 -0.8137
  308SOL     OW 2139   0.395   2.001   2.476  0.3192  0.4329 -0.2965
  308SOL    HW1 2140   0.366   1.939   2.410 -0.8957 -0.2724  0.8555
  308SOL    HW2 2141   0.473   1.960   2.515  0.8865  0.7331 -1.0995
  309SOL     OW 2142   1.618   0.474   2.514  0.1512 -0.4545 -0.2447
  309SOL    HW1 2143   1.712   0.485   2.526  0.1725 -0.2737 -0.5523
  309SOL    HW2 2144   1.593   0.544   2.453  0.0238 -1.2102 -1.0794
  310SOL     OW 2145   0.968   1.561   3.013 -0.1854 -0.2290  0.0484
  310SOL    HW1 2146   0.958   1.468   3.029  0.7026 -0.4566 -0.6175
  310SOL    HW2 2147   1.056   1.582   3.046 -0.1853  0.2555 -0.2442
  311SOL     OW 2148   0.287   1.248   2.089 -0.3624  0.3333 -0.3876
  311SOL    HW1 2149   0.306   1.232   1.997 -0.2170 -0.0429 -0.2899
  311SOL    HW2 2150   0.223   1.181   2.112  0.0095  0.0876 -0.0686
  312SOL     OW 2151   1.441   0.452   2.238 -0.4164 -0.3592 -0.0097
  312SOL    HW1 2152   1.485   0.524   2.194 -0.7480 -0.7842 -1.0536
  312SOL    HW2 2153   1.473   0.373   2.194 -1.2848 -0.7446  0.0214
  313SOL     OW 2154   0.513   1.073   3.877  0.1481 -0.5330  0.1723
  313SOL    HW1 2155   0.595   1.112   3.845 -0.0742 -0.5400 -0.4055
  313SOL    HW2 2156   0.475   1.140   3.934 -0.9842  0.7582 -1.9666
  314SOL     OW 2157   1.062   2.041   2.271 -0.3500 -0.2693 -0.3793
  314SOL    HW1 2158   1.123   1.986   2.223 -0.2499 -0.9522  0.4998
  314SOL    HW2 2159   0.993   2.063   2.209  0.6915  0.3643 -1.3406
  315SOL     OW 2160   0.101   0.579   3.308 -0.2968 -0.5587  0.1298
  315SOL    HW1 2161   0.017   0.600   3.268  0.3171  1.8296 -0.0629
  315SOL    HW2 2162   0.121   0.654   3.364  2.8048  0.1980 -1.6988
  316SOL     OW 2163   1.366   1.608   1.861 -0.4839  0.3561 -0.0316
  316SOL    HW1 2164   1.378   1.703   1.858 -1.6139  0.5996  1.5970
  316SOL    HW2 2165   1.403   1.582   1.946 -0.1476 -0.6764 -0.4783
  317SOL     OW 2166   0.454   1.811   1.822  0.4531  0.0466 -0.5051
  317SOL    HW1 2167   0.364   1.787   1.843 -0.9346  3.5338 -1.6945
  317SOL    HW2 2168   0.470   1.769   1.737 -0.4130  0.1906 -0.7486
  318SOL     OW 2169   1.991   8.583   2.263 -0.2013  0.4503  0.3107
  318SOL    HW1 2170   2.074   8.536   2.275 -1.2284 -1.6928 -0.5186
  318SOL    HW2 2171   1.929   8.536   2.319 -0.9725  1.7663  0.5914
  319SOL     OW 2172   0.253   1.987   3.454 -0.2326  0.5519 -0.1866
  319SOL    HW1 2173   0.279   1.904   3.494 -0.3139 -0.8919 -2.8719
  319SOL    HW2 2174   0.335   2.034   3.440 -0.1282  0.6855  0.7992
  320SOL     OW 2175   0.656   1.428   2.909  0.1624 -0.5380 -0.3944
  320SOL    HW1 2176   0.718   1.356   2.921  1.3260 -0.0303 -2.7631
  320SOL    HW2 2177   0.616   1.411   2.823  1.1474  2.0773 -1.4539
  321SOL     OW 2178   8.541   0.867   2.318 -0.3676  0.1724 -0.6558
  321SOL    HW1 2179   8.605   0.820   2.372 -1.6628 -1.3456 -0.3866
  321SOL    HW2 2180   8.460   0.863   2.368 -1.7508 -1.7011 -2.8713
  322SOL     OW 2181   1.399   0.238   3.564  0.8485 -0.5333 -0.3764
  322SOL    HW1 2182   1.494   0.247   3.557  0.7952 -0.8672 -1.7722
  322SOL    HW2 2183   1.370   0.215   3.476 -0.5572 -0.2399 -0.0204
  323SOL     OW 2184   0.375   0.207   1.939  0.0522 -0.1119  0.5648
  323SOL    HW1 2185   0.354   0.267   2.011 -0.1036 -1.2000  1.4582
  323SOL    HW2 2186   0.431   0.141   1.979 -0.6843 -1.1806 -0.1219
  324SOL     OW 2187   0.851   0.203   3.340  0.5218  0.5731  0.3775
  324SOL    HW1 2188   0.898   0.152   3.406 -1.0794 -0.4612  0.7787
  324SOL    HW2 2189   0.769   0.228   3.382 -0.1048  0.7624 -0.8850
  325SOL     OW 2190   0.652   1.190   3.439  0.2758  0.3813 -0.1105
  325SOL    HW1 2191   0.620   1.227   3.356 -0.6133 -0.4176 -0.1481
  325SOL    HW2 2192   0.613   1.246   3.506  0.1446  0.4113 -0.2098
  326SOL     OW 2193   1.522   0.488   3.328 -0.3184  0.2729 -0.2511
  326SOL    HW1 2194   1.505   0.404   3.285  0.1728 -0.5655  1.1257
  326SOL    HW2 2195   1.438   0.514   3.365 -0.2654 -0.0908  0.1273
  327SOL     OW 2196   0.914   1.241   3.460  0.1488  0.1248 -0.2069
  327SOL    HW1 2197   0.945   1.152   3.475 -2.9146 -0.8597  1.1244
  327SOL    HW2 2198   0.825   1.230   3.426  0.7405  2.6974 -3.0459
  328SOL     OW 2199   0.668   0.756   2.758  0.1366  0.8163  0.1286
  328SOL    HW1 2200   0.720   0.692   2.807 -0.6748  0.6456  0.7896
  328SOL    HW2 2201   0.657   0.716   2.671 -0.9629 -0.3148  0.7426
  329SOL     OW 2202   0.605   0.231   2.476  0.3668 -1.0937  0.4218
  329SOL    HW1 2203   0.539   0.170   2.443  0.2091  0.0118 -1.4814
  329SOL    HW2 2204   0.591   0.234   2.570 -1.1554 -2.1884  0.2657
  330SOL     OW 2205   1.483   1.176   1.537  0.7407 -0.1497  0.4393
  330SOL    HW1 2206   1.510   1.134   1.618  0.2232 -1.0486  0.1565
  330SOL    HW2 2207   1.552   1.153   1.474  0.3436 -0.7695  0.2273
  331SOL     OW 2208   0.494   8.637   2.188  0.2255  0.3209 -0.2510
  331SOL    HW1 2209   0.405   8.661   2.214  0.0741 -0.8214  0.3582
  331SOL    HW2 2210   0.520   8.569   2.250  0.8054 -0.7082 -1.5565
  332SOL     OW 2211   0.869   0.655   2.215  0.7428 -0.4719 -0.7693
  332SOL    HW1 2212   0.860   0.715   2.140 -0.6979 -0.3542 -0.5397
  332SOL    HW2 2213   0.925   0.702   2.276  0.4422  0.2280 -1.0142
  333SOL     OW 2214   0.884   0.319   3.056  1.0316 -0.4795  0.0877
  333SOL    HW1 2215   0.957   0.319   3.118  0.6057 -0.7498  0.5989
  333SOL    HW2 2216   0.820   0.380   3.094  0.2599 -1.5277  0.5506
  334SOL     OW 2217   1.109   1.337   2.762 -0.7674 -0.0595 -0.2927
  334SOL    HW1 2218   1.036   1.363   2.705 -1.8760 -0.5068  0.8715
  334SOL    HW2 2219   1.148   1.262   2.717  0.2260  1.3493 -1.8889
  335SOL     OW 2220   0.541   1.363   2.479  0.0357  0.3448 -0.0111
  335SOL    HW1 2221   0.507   1.287   2.431  1.2361 -0.6322  0.6372
  335SOL    HW2 2222   0.470   1.427   2.474 -0.2753 -0.0761 -2.2186
  336SOL     OW 2223   1.144   1.891   2.481 -0.0549 -0.1247 -0.6995
  336SOL    HW1 2224   1.115   1.938   2.403  1.7124  3.1337  0.4123
  336SOL    HW2 2225   1.063   1.868   2.527 -1.1580 -2.4644 -3.5069
  337SOL     OW 2226   1.130   0.528   1.852 -0.4475  0.1641  0.1015
  337SOL    HW1 2227   1.175   0.529   1.937  0.6760  0.9986 -0.4789
  337SOL    HW2 2228   1.038   0.516   1.875  0.0006 -1.3502  1.3443
  338SOL     OW 2229   0.139   1.246   2.832 -0.0573  0.0318 -0.6620
  338SOL    HW1 2230   0.223   1.209   2.856 -0.6543 -0.5819  0.5546
  338SOL    HW2 2231   0.099   1.273   2.915 -1.1172  0.1907 -1.1974
  339SOL     OW 2232   0.687   0.205   2.911  0.1629  0.8792 -0.0486
  339SOL    HW1 2233   0.624   0.207   2.984  0.1289 -2.4243  0.1526
  339SOL    HW2 2234   0.768   0.241   2.948  0.0191 -0.3217  1.5357
  340SOL     OW 2235   0.494   0.472   2.354  0.2673  0.1274 -0.0796
  340SOL    HW1 2236   0.531   0.398   2.403  1.5629  0.7938 -0.0044
  340SOL    HW2 2237   0.560   0.541   2.361  0.0515  0.5832 -1.9211
  341SOL     OW 2238   0.790   0.164   2.052 -0.8382  0.1347  0.5019
  341SOL    HW1 2239   0.803   0.254   2.021 -2.3844  0.4587  0.7081
  341SOL    HW2 2240   0.802   0.110   1.975  1.4704  0.3521  0.6341
  342SOL     OW 2241   1.804   0.354   2.801 -0.9209 -0.0318 -0.3685
  342SOL    HW1 2242   1.711   0.376   2.804 -0.5173  2.4031 -2.2621
  342SOL    HW2 2243   1.844   0.415   2.864 -0.3921  0.5509 -1.2538
  343SOL     OW 2244   1.348   0.507   2.701 -0.0841  0.0858 -0.3409
  343SOL    HW1 2245   1.297   0.586   2.712 -2.7606 -1.4283 -1.0831
  343SOL    HW2 2246   1.384   0.512   2.612  1.2484  1.2002  0.2227
  344SOL     OW 2247   1.800   0.272   2.099  0.4423 -0.5899 -0.1385
  344SOL    HW1 2248   1.820   0.204   2.164 -2.3516 -0.3144  1.1519
  344SOL    HW2 2249   1.723   0.239   2.052  1.5491 -0.1375 -2.4239
  345SOL     OW 2250   0.591   1.693   2.034  0.1417  0.1847 -0.4225
  345SOL    HW1 2251   0.516   1.735   1.992 -0.4206  1.0259  1.3036
  345SOL    HW2 2252   0.658   1.690   1.966 -1.1511  0.1923 -1.7662
  346SOL     OW 2253   1.678   1.012   2.509 -0.1304 -0.4224 -0.0073
  346SOL    HW1 2254   1.691   1.093   2.458  0.0985  0.7907  1.8569
  346SOL    HW2 2255   1.765   0.972   2.511  0.2492  0.3771  0.7213
  347SOL     OW 2256   1.619   0.622   1.869  0.1722 -0.1620 -0.7768
  347SOL    HW1 2257   1.696   0.579   1.907  0.0986 -0.6090 -1.1199
  347SOL    HW2 2258   1.547   0.597   1.928 -0.0504 -1.3608 -1.5284
  348SOL     OW 2259   0.357   0.333   2.165 -0.1383 -0.0350  0.0413
  348SOL    HW1 2260   0.318   0.303   2.247  0.8923 -0.3435  0.4293
  348SOL    HW2 2261   0.439   0.375   2.192  1.2200 -1.9029 -0.9810
  349SOL     OW 2262   1.650   0.969   3.577 -0.0180 -0.0910  0.1023
  349SOL    HW1 2263   1.695   0.888   3.555  0.2297  0.2063 -0.4992
  349SOL    HW2 2264   1.702   1.007   3.648 -0.9008 -1.1204  1.3445
  350SOL     OW 2265   0.854   1.644   2.768 -0.2444  0.3765  0.5217
  350SOL    HW1 2266   0.892   1.585   2.833  1.0046 -1.6207 -1.8672
  350SOL    HW2 2267   0.904   1.725   2.777  0.6651 -0.2545  1.2772
  351SOL     OW 2268   1.909   2.015   3.463 -0.1738 -0.2209  0.2971
  351SOL    HW1 2269   1.821   2.049   3.453  0.4511  2.3226  2.3628
  351SOL    HW2 2270   1.910   1.976   3.550  0.2651 -2.0139 -0.4622
  352SOL     OW 2271   0.943   1.065   2.974 -0.1066 -0.1042  0.4810
  352SOL    HW1 2272   1.028   1.046   2.934 -0.1814 -0.1986  0.3663
  352SOL    HW2 2273   0.953   1.152   3.012 -1.3589  2.0646 -3.5112
  353SOL     OW 2274   1.896   1.032   2.746  0.2276 -0.3482  0.2603
  353SOL    HW1 2275   1.949   0.973   2.800  1.2520 -0.2129 -0.5491
  353SOL    HW2 2276   1.933   1.023   2.658 -1.3354 -0.4968 -0.4181
  354SOL     OW 2277   1.208   0.057   3.027 -0.0555  0.2909 -0.1771
  354SOL    HW1 2278   1.213   0.149   3.000  0.8396 -0.6292 -3.5588
  354SOL    HW2 2279   1.179   0.010   2.949 -1.4124 -2.2647  1.7084
  355SOL     OW 2280   1.244   0.697   3.670 -0.1260  0.6071  0.3746
  355SOL    HW1 2281   1.256   0.665   3.581 -1.1878  0.9011  0.1178
  355SOL    HW2 2282   1.320   0.754   3.685  0.7592 -0.4778  0.1502
  356SOL     OW 2283   1.061   1.090   2.050  0.2857  0.0695 -0.4490
  356SOL    HW1 2284   1.011   1.109   1.970 -0.9445 -0.4369  0.1837
  356SOL    HW2 2285   1.026   1.149   2.116 -0.2833 -1.0525  0.2918
  357SOL     OW 2286   0.768   0.959   3.572  0.4607 -0.7274  0.4841
  357SOL    HW1 2287   0.713   0.883   3.552  0.2432 -0.5244  0.3003
  357SOL    HW2 2288   0.734   1.028   3.515  0.8767 -0.5877  0.4027
  358SOL     OW 2289   1.554   0.436   2.872 -0.0046 -0.5236 -0.0331
  358SOL    HW1 2290   1.523   0.483   2.949  0.0651 -0.8676  0.2043
  358SOL    HW2 2291   1.485   0.450   2.806 -0.8143 -1.5260  0.5786
  359SOL     OW 2292   8.592   1.578   3.278 -0.0057 -0.4094  0.1354
  359SOL    HW1 2293   8.668   1.594   3.222  1.1798  1.2066  2.0352
  359SOL    HW2 2294   8.526   1.541   3.220  1.7536 -0.5546 -1.8891
  360SOL     OW 2295   0.422   1.163   2.345 -0.8036 -0.0536 -0.3553
  360SOL    HW1 2296   0.398   1.166   2.252  0.8403 -0.4831 -0.8206
  360SOL    HW2 2297   0.415   1.070   2.368 -0.3190 -0.0789 -0.3065
  361SOL     OW 2298   0.313   0.430   2.899  0.1229 -0.2296 -0.7834
  361SOL    HW1 2299   0.376   0.426   2.970  0.5995 -1.2779 -1.2485
  361SOL    HW2 2300   0.230   0.403   2.938  0.1365  0.2855 -0.3808
  362SOL     OW 2301   1.328   1.049   2.363  0.2320 -0.7737  0.2594
  362SOL    HW1 2302   1.364   1.125   2.410  0.5203  0.1355 -1.3332
  362SOL    HW2 2303   1.335   1.074   2.271  2.7861 -3.7850 -0.5251
  363SOL     OW 2304   1.264   1.056   3.025  0.1467  0.1302 -0.6469
  363SOL    HW1 2305   1.234   0.967   3.005 -2.7939  1.1554 -1.2475
  363SOL    HW2 2306   1.282   1.054   3.119 -1.2821 -0.7574 -0.3584
  364SOL     OW 2307   1.267   8.761   2.309 -0.1108 -0.1726 -0.1319
  364SOL    HW1 2308   1.271   8.797   2.221 -2.4068 -0.1684 -0.2819
  364SOL    HW2 2309   1.268   8.838   2.366  0.1031 -0.1118 -0.2187
  365SOL     OW 2310   0.197   1.760   3.173 -0.0121  0.3417  0.0957
  365SOL    HW1 2311   0.284   1.798   3.163  1.1761 -2.3644 -0.7806
  365SOL    HW2 2312   0.181   1.715   3.090 -2.0375  0.3415  0.4408
  366SOL     OW 2313   0.664   0.464   3.359  0.0172 -0.5374  0.0747
  366SOL    HW1 2314   0.709   0.501   3.283 -1.1972  1.6178  0.3161
  366SOL    HW2 2315   0.731   0.462   3.428  0.9699 -1.9613 -0.8453
  367SOL     OW 2316   1.925   0.782   3.108  0.1896 -0.1026 -0.1619
  367SOL    HW1 2317   1.872   0.734   3.171 -0.6991  0.9824 -0.0550
  367SOL    HW2 2318   1.900   0.874   3.120  1.9203  0.4248 -0.2729
  368SOL     OW 2319   0.893   8.613   3.301  0.0024  0.1732  0.3068
  368SOL    HW1 2320   0.910   8.703   3.271 -1.5490 -0.0826 -1.5373
  368SOL    HW2 2321   0.965   8.562   3.266 -0.3058  0.3564 -0.6387
  369SOL     OW 2322   0.430   8.782   3.668 -0.5527  1.0770  0.0656
  369SOL    HW1 2323   0.406   8.857   3.613 -0.4900  1.3096  0.3564
  369SOL    HW2 2324   0.426   8.816   3.758  0.0803  0.8992  0.1628
  370SOL     OW 2325   0.630   0.873   3.275 -0.4660 -0.7967  0.2235
  370SOL    HW1 2326   0.616   0.793   3.325 -0.0473 -1.2701 -0.3897
  370SOL    HW2 2327   0.723   0.873   3.256 -0.3663  0.1152  0.6563
  371SOL     OW 2328   1.253   0.775   2.999  0.8174  0.0554 -0.4287
  371SOL    HW1 2329   1.349   0.770   2.995  0.7310 -2.1442 -2.4073
  371SOL    HW2 2330   1.225   0.744   2.913 -1.7045  0.0839  0.3158
  372SOL     OW 2331   1.156   0.790   1.782  0.0391 -0.5463  0.2553
  372SOL    HW1 2332   1.166   0.807   1.876  0.5493 -0.5018  0.1918
  372SOL    HW2 2333   1.153   0.695   1.775 -0.8503 -0.5394  0.4015
  373SOL     OW 2334   0.048   8.610   2.973 -0.2672  0.1008 -0.2537
  373SOL    HW1 2335   0.025   8.702   2.961 -0.0954 -0.0113 -1.6758
  373SOL    HW2 2336   0.113   8.610   3.042 -1.0867  0.9212  0.5426
  374SOL     OW 2337   0.391   1.001   3.192  0.2008  0.1862 -0.3949
  374SOL    HW1 2338   0.464   0.955   3.234 -0.1460 -0.1721 -0.1725
  374SOL    HW2 2339   0.379   0.957   3.108  1.0959  1.1027 -1.0267
  375SOL     OW 2340   0.393   1.147   2.908 -0.4240  0.2349  0.2384
  375SOL    HW1 2341   0.449   1.074   2.936 -2.4696 -1.6550 -0.3543
  375SOL    HW2 2342   0.448   1.196   2.846  1.0399 -0.7351  0.7077
  376SOL     OW 2343   1.776   0.723   3.822 -0.1881 -0.2734 -0.0596
  376SOL    HW1 2344   1.733   0.708   3.738  0.1948 -0.9339 -0.1513
  376SOL    HW2 2345   1.836   0.649   3.831 -0.3171 -0.2784  0.8548
  377SOL     OW 2346   0.265   0.282   2.622  0.1676 -0.2727  0.1240
  377SOL    HW1 2347   0.243   0.367   2.661  0.5312 -0.3704  0.5498
  377SOL    HW2 2348   0.353   0.262   2.656  0.1969 -0.6872 -0.1932
  378SOL     OW 2349   1.496   8.634   2.387 -0.3044 -0.1833 -1.0550
  378SOL    HW1 2350   1.548   8.714   2.395  0.6890 -0.7935 -1.1971
  378SOL    HW2 2351   1.406   8.664   2.377  0.1726  0.9459 -2.1460
  379SOL     OW 2352   0.784   0.427   2.583 -0.3041  0.3140  0.1710
  379SOL    HW1 2353   0.788   0.490   2.511 -0.3497  0.4586  0.2922
  379SOL    HW2 2354   0.745   0.349   2.545 -1.8109  0.9095  0.4028
  380SOL     OW 2355   1.317   1.479   3.562  0.0214 -0.2750  0.4657
  380SOL    HW1 2356   1.404   1.444   3.581 -0.5352 -1.5161  0.8336
  380SOL    HW2 2357   1.276   1.490   3.647  0.1064  1.1377  0.3444
  381SOL     OW 2358   1.149   1.352   3.394 -0.3022  0.6670 -0.1733
  381SOL    HW1 2359   1.062   1.331   3.427  0.4864 -1.7041  0.6072
  381SOL    HW2 2360   1.201   1.370   3.473  0.4047 -0.0239 -0.4764
  382SOL     OW 2361   0.603   0.656   3.780 -0.1271 -0.9364  0.5328
  382SOL    HW1 2362   0.526   0.712   3.773  0.0940 -0.7205 -0.2610
  382SOL    HW2 2363   0.670   0.713   3.818 -0.1345 -0.9038  0.4966
  383SOL     OW 2364   1.392   0.179   1.820  0.2034 -0.5091  0.2577
  383SOL    HW1 2365   1.371   0.266   1.786 -0.1452 -0.6158  0.2005
  383SOL    HW2 2366   1.399   0.124   1.742  3.3919  0.0529 -0.0153
  384SOL     OW 2367   1.483   0.914   1.998 -0.5426 -0.3658 -0.0814
  384SOL    HW1 2368   1.534   0.834   2.011  1.0591  0.3534 -1.6149
  384SOL    HW2 2369   1.392   0.886   2.009  0.0954 -1.7577  2.4123
  385SOL     OW 2370   1.274   1.114   2.674 -0.3754  0.1900  0.3316
  385SOL    HW1 2371   1.318   1.036   2.639  1.0301  0.4060  1.5382
  385SOL    HW2 2372   1.335   1.150   2.738 -0.5497  2.8704 -0.8640
  386SOL     OW 2373   0.543   1.272   3.199  0.0040  0.1112  0.3339
  386SOL    HW1 2374   0.512   1.183   3.181  0.3543  0.3830 -1.9146
  386SOL    HW2 2375   0.530   1.319   3.116  0.2420  2.0386  1.3398
  387SOL     OW 2376   8.510   0.373   2.664  0.3354 -0.0539 -0.4555
  387SOL    HW1 2377   8.441   0.325   2.617  0.7304  0.0432 -1.1527
  387SOL    HW2 2378   8.515   0.457   2.619 -0.0422  0.4736  0.4768
  388SOL     OW 2379   1.221   0.215   3.322 -0.1988  0.1943 -0.2355
  388SOL    HW1 2380   1.225   0.225   3.227  0.5500  0.1492 -0.2164
  388SOL    HW2 2381   1.180   0.130   3.336 -2.1238  1.0213 -0.4730
  389SOL     OW 2382   1.202   0.316   2.930  0.1727 -0.6497 -0.3710
  389SOL    HW1 2383   1.202   0.390   2.991 -0.8096 -1.8386  1.1236
  389SOL    HW2 2384   1.246   0.350   2.852 -0.4015  1.5641  0.1996
  390SOL     OW 2385   0.190   1.479   1.892 -0.2554  0.4919 -0.2180
  390SOL    HW1 2386   0.200   1.414   1.962 -1.3671  0.1936 -0.3114
  390SOL    HW2 2387   0.169   1.427   1.814 -1.9964  0.9782 -0.1185
  391SOL     OW 2388   8.616   1.660   2.605 -0.0095  0.4177 -0.2096
  391SOL    HW1 2389   8.696   1.622   2.643 -0.7624  0.2766  1.3403
  391SOL    HW2 2390   8.634   1.666   2.512  1.4299 -0.5711 -0.0319
  392SOL     OW 2391   0.599   1.904   2.619 -0.5352  0.1105 -0.1787
  392SOL    HW1 2392   0.660   1.973   2.647 -0.3535 -0.3430  0.5828
  392SOL    HW2 2393   0.583   1.853   2.699 -0.9783 -0.4933 -0.6454
  393SOL     OW 2394   0.868   0.849   3.130  0.7283 -0.1700 -0.1373
  393SOL    HW1 2395   0.929   0.873   3.200 -0.5147  0.5647  0.7266
  393SOL    HW2 2396   0.868   0.925   3.071 -2.3344  1.7169  1.9964
  394SOL     OW 2397   0.344   0.866   2.720  0.0217 -0.3768 -0.1929
  394SOL    HW1 2398   0.379   0.880   2.808 -1.1105 -0.2004  0.2434
  394SOL    HW2 2399   0.314   0.775   2.720  1.0387 -0.7251 -0.7713
  395SOL     OW 2400   0.631   8.803   3.363  1.0296  0.1643  0.2356
  395SOL    HW1 2401   0.616   8.865   3.434  1.5744  1.3665 -0.6562
  395SOL    HW2 2402   0.701   8.746   3.394  1.1344  0.5618  0.7299
  396SOL     OW 2403   1.705   0.614   3.178  0.0464  0.2203 -0.0540
  396SOL    HW1 2404   1.639   0.559   3.220  0.2191  1.7219  2.3213
  396SOL    HW2 2405   1.762   0.551   3.132 -1.6750 -1.2693 -0.2645
  397SOL     OW 2406   0.588   0.574   2.047 -0.4438 -0.6913  0.4382
  397SOL    HW1 2407   0.500   0.593   2.014  0.5356 -0.9004 -2.6665
  397SOL    HW2 2408   0.630   0.660   2.054 -0.1492 -0.7464 -0.5326
  398SOL     OW 2409   1.961   0.124   2.848  0.5519  0.1798 -0.5703
  398SOL    HW1 2410   1.908   0.192   2.808  1.4768  1.2486 -0.0162
  398SOL    HW2 2411   1.928   0.042   2.809 -2.1679  0.6660  0.4926
  399SOL     OW 2412   0.324   1.688   3.408  0.0107 -0.2073 -0.0077
  399SOL    HW1 2413   0.288   1.602   3.429 -3.4817  1.4044  1.3924
  399SOL    HW2 2414   0.264   1.725   3.343  0.3187  1.8930  0.8131
  400SOL     OW 2415   0.461   0.439   3.145 -0.4319  0.5063 -0.1617
  400SOL    HW1 2416   0.492   0.349   3.155 -1.5751 -0.2336 -2.6255
  400SOL    HW2 2417   0.404   0.453   3.221 -0.1996 -0.8152  0.2871
  401SOL     OW 2418   0.652   1.855   3.292 -0.0366  0.7316 -0.2288
  401SOL    HW1 2419   0.564   1.862   3.254  0.8835  1.0896 -2.4279
  401SOL    HW2 2420   0.705   1.818   3.222  1.4445 -0.2082  1.3141
  402SOL     OW 2421   0.120   0.500   1.806 -0.4380 -0.4641 -0.8844
  402SOL    HW1 2422   0.143   0.429   1.866  0.8535 -0.8140 -1.7533
  402SOL    HW2 2423   0.024   0.506   1.812 -0.5682 -2.1970 -0.6926
  403SOL     OW 2424   0.607   0.704   3.498 -0.0291 -0.7158  0.0676
  403SOL    HW1 2425   0.594   0.690   3.591  0.0541 -0.6278  0.0931
  403SOL    HW2 2426   0.626   0.618   3.462  0.1559 -0.7177  0.1682
  404SOL     OW 2427   0.762   0.594   3.125  0.3604 -0.1053 -0.4204
  404SOL    HW1 2428   0.802   0.681   3.116 -0.1547 -0.0248 -2.5899
  404SOL    HW2 2429   0.674   0.604   3.087  0.9873 -1.9876 -2.6277
  405SOL     OW 2430   1.073   0.790   2.317 -0.6624  0.5753  0.1876
  405SOL    HW1 2431   1.125   0.753   2.388 -0.6733 -1.7089 -0.8988
  405SOL    HW2 2432   1.053   0.879   2.346 -2.1962 -0.7586  3.8940
  406SOL     OW 2433   1.964   1.918   2.925  0.1817  0.5011  0.2275
  406SOL    HW1 2434   1.908   1.892   2.853 -0.3533 -1.2150  1.2086
  406SOL    HW2 2435   1.966   2.014   2.921 -1.0912  0.4979 -1.1047
  407SOL     OW 2436   1.296   1.498   3.233  0.0269  0.1664  0.2180
  407SOL    HW1 2437   1.227   1.452   3.280  1.0250 -2.2495 -0.5613
  407SOL    HW2 2438   1.365   1.511   3.298 -0.1076  0.2460  0.3462
  408SOL     OW 2439   8.836   1.496   2.719  0.2822 -0.3846  0.6733
  408SOL    HW1 2440   8.853   1.583   2.755  0.0867  0.1908 -0.5529
  408SOL    HW2 2441   8.841   1.437   2.794  3.5826  0.2219  1.1106
  409SOL     OW 2442   0.877   1.509   3.566  0.7645 -0.2953  0.0300
  409SOL    HW1 2443   0.784   1.487   3.564  0.4800  0.8387 -0.0554
  409SOL    HW2 2444   0.920   1.437   3.521 -0.0321 -1.0221  0.4199
  410SOL     OW 2445   1.869   0.017   2.234 -0.1867 -0.2577 -0.1700
  410SOL    HW1 2446   1.795   0.026   2.294  0.4209 -1.1255  0.7392
  410SOL    HW2 2447   1.908  -0.067   2.257  1.8936  0.7705  0.2973
  411SOL     OW 2448   1.423   1.289   2.481  0.0622 -0.7064  0.2887
  411SOL    HW1 2449   1.404   1.250   2.567 -0.9441 -0.6969  0.0866
  411SOL    HW2 2450   1.351   1.350   2.466  0.2715 -0.6440 -0.5294
  412SOL     OW 2451   0.181   1.626   4.167  0.1424  0.0060  0.1372
  412SOL    HW1 2452   0.274   1.634   4.185 -0.0447  2.7122  0.3603
  412SOL    HW2 2453   0.141   1.615   4.253  0.1396  0.5219  0.2026
  413SOL     OW 2454   1.129   0.664   2.775  0.5441 -0.2654 -0.0790
  413SOL    HW1 2455   1.044   0.622   2.792  1.1975 -0.9455  1.7612
  413SOL    HW2 2456   1.108   0.737   2.717 -1.5044  0.2977  1.2739
  414SOL     OW 2457   1.189   0.976   3.552 -0.2366  0.1874  0.0805
  414SOL    HW1 2458   1.245   1.052   3.567  2.0817 -1.3566 -0.2091
  414SOL    HW2 2459   1.155   0.954   3.639  0.9301  0.2158  0.5617
  415SOL     OW 2460   0.835   1.695   1.875 -0.9858  0.4665 -0.8292
  415SOL    HW1 2461   0.927   1.669   1.876 -1.0826  0.1261 -0.6588
  415SOL    HW2 2462   0.837   1.790   1.861 -0.6658  0.2510 -2.3157
  416SOL     OW 2463   1.639   2.139   3.418  0.1873  0.0274 -0.0864
  416SOL    HW1 2464   1.619   2.210   3.357 -2.3135 -1.5647 -1.3000
  416SOL    HW2 2465   1.640   2.181   3.504  0.5552  1.7926 -0.8919
  417SOL     OW 2466   2.082   8.570   2.615 -0.8559 -0.0287 -0.0772
  417SOL    HW1 2467   2.069   8.499   2.678 -1.2882  0.9208  0.9414
  417SOL    HW2 2468   2.055   8.533   2.531  0.3794 -1.5428  0.1415
  418SOL     OW 2469   0.231   0.606   2.719  0.2218  0.3119 -0.4802
  418SOL    HW1 2470   0.137   0.599   2.736  0.1021  2.2030 -0.1877
  418SOL    HW2 2471   0.273   0.576   2.799 -0.1982  1.6748  0.2745
  419SOL     OW 2472   1.156   1.842   2.103  0.7328  0.2290  0.4956
  419SOL    HW1 2473   1.226   1.905   2.084  0.8977 -0.1537 -0.2087
  419SOL    HW2 2474   1.159   1.781   2.029  0.4025 -0.4490  1.0384
  420SOL     OW 2475   1.066   0.910   3.306  0.1130  0.3713  0.2400
  420SOL    HW1 2476   1.147   0.883   3.263 -0.0536 -0.1518  0.2469
  420SOL    HW2 2477   1.091   0.921   3.398  0.0919 -0.1854  0.3176
  421SOL     OW 2478   1.108   1.404   2.115  0.6969 -0.4395  0.0243
  421SOL    HW1 2479   1.083   1.495   2.133 -0.0659 -0.9727  1.9369
  421SOL    HW2 2480   1.101   1.396   2.020 -1.2969  0.9334 -0.0182
  422SOL     OW 2481   1.320   1.251   2.168 -0.4300  0.4278  0.4146
  422SOL    HW1 2482   1.361   1.326   2.211 -0.8562  1.1501 -0.3929
  422SOL    HW2 2483   1.232   1.280   2.148 -0.4335 -0.0938 -0.3977
  423SOL     OW 2484   0.319   1.212   3.376  0.0886 -0.5222  0.6282
  423SOL    HW1 2485   0.305   1.137   3.318 -0.1871 -1.2582  1.6108
  423SOL    HW2 2486   0.389   1.261   3.335 -0.2888 -0.8714 -0.4702
  424SOL     OW 2487   1.337   1.171   3.262 -0.5019 -0.4099  0.2400
  424SOL    HW1 2488   1.427   1.180   3.293 -0.0390 -0.9019 -0.9142
  424SOL    HW2 2489   1.284   1.211   3.331  0.6234  0.2921  0.7275
  425SOL     OW 2490   1.587   0.861   3.115  0.1439  0.4388  0.2096
  425SOL    HW1 2491   1.638   0.785   3.142 -0.5061 -0.4247 -0.8805
  425SOL    HW2 2492   1.591   0.921   3.189  2.1531  0.1119  0.4110
  426SOL     OW 2493   1.141   0.121   2.479  0.9209 -0.4544  0.2726
  426SOL    HW1 2494   1.082   0.142   2.406 -0.8859 -2.3270  1.1073
  426SOL    HW2 2495   1.166   0.206   2.514 -1.8089  0.4705  0.2420
  427SOL     OW 2496   0.219   1.750   1.917 -0.1693  0.3265 -0.1898
  427SOL    HW1 2497   0.203   1.657   1.897  2.4444 -0.2820  0.1936
  427SOL    HW2 2498   0.228   1.752   2.012  1.8671  0.5339 -0.3454
  428SOL     OW 2499   1.897   0.004   3.193  0.4510  0.1212 -0.1800
  428SOL    HW1 2500   1.813   0.006   3.148 -0.7679  0.3250  1.9532
  428SOL    HW2 2501   1.902  -0.084   3.231  1.1521  0.1432 -0.2132
  429SOL     OW 2502   0.540   0.939   2.033  0.4720 -0.1413  0.0443
  429SOL    HW1 2503   0.453   0.909   2.006  1.2138 -1.2318 -1.2887
  429SOL    HW2 2504   0.580   0.972   1.953  1.0615  0.9579  0.7725
  430SOL     OW 2505   0.391   0.843   3.771 -0.5322  0.4754 -0.6179
  430SOL    HW1 2506   0.306   0.886   3.776 -0.2267  1.5363 -3.2981
  430SOL    HW2 2507   0.454   0.910   3.798 -0.3975  0.1904 -0.2011
  431SOL     OW 2508   0.914   0.003   3.131 -0.3233 -0.5744  0.1082
  431SOL    HW1 2509   0.991   0.041   3.090  0.1542  0.7073  2.0393
  431SOL    HW2 2510   0.873   0.075   3.178 -1.8751 -1.5509  0.3537
  432SOL     OW 2511   0.171   0.108   1.758 -0.5529  0.6237 -0.4519
  432SOL    HW1 2512   0.085   0.145   1.778 -1.0904 -0.9242  0.2702
  432SOL    HW2 2513   0.230   0.148   1.821 -1.3560 -0.6337  1.1609
  433SOL     OW 2514   1.904   0.485   3.015 -0.1562 -0.5210 -0.1456
  433SOL    HW1 2515   1.958   0.549   2.967  0.1123 -1.5097 -1.2038
  433SOL    HW2 2516   1.962   0.411   3.029 -0.4995 -0.5921  0.9939
  434SOL     OW 2517   8.827   0.240   1.880 -0.2763 -0.3859 -0.0190
  434SOL    HW1 2518   8.784   0.279   1.955 -0.9049 -0.2305 -0.4510
  434SOL    HW2 2519   8.783   0.280   1.804  1.0715  0.2974 -0.4828
  435SOL     OW 2520   0.673   1.530   1.669  0.4918 -0.1503  0.5163
  435SOL    HW1 2521   0.707   1.537   1.759  1.3897  1.4887  0.0855
  435SOL    HW2 2522   0.728   1.463   1.628  0.0571 -0.9330  1.1625
  436SOL     OW 2523   0.951   0.707   3.635 -0.4013 -0.2883  0.1497
  436SOL    HW1 2524   0.925   0.793   3.602 -0.6599 -0.2770  0.3850
  436SOL    HW2 2525   1.041   0.719   3.665 -0.2210 -0.2539 -0.3894
  437SOL     OW 2526   1.821   1.576   3.329 -0.3795 -0.0373 -0.5747
  437SOL    HW1 2527   1.807   1.633   3.253 -1.5873 -1.6407 -1.6291
  437SOL    HW2 2528   1.910   1.596   3.359  0.1730  0.5795 -2.4895
  438SOL     OW 2529   1.194   0.604   3.926 -0.2878 -0.2541 -0.2112
  438SOL    HW1 2530   1.220   0.643   3.842 -0.9298 -0.2905 -0.4323
  438SOL    HW2 2531   1.208   0.675   3.989  0.1410 -0.2060 -0.3509
  439SOL     OW 2532   1.409   0.875   3.778 -0.1327  0.2665  0.8006
  439SOL    HW1 2533   1.479   0.856   3.841  0.3111 -1.2081 -0.0682
  439SOL    HW2 2534   1.449   0.933   3.714  0.3799 -0.6679  0.2413
  440SOL     OW 2535   0.401   1.874   3.926 -0.2411 -0.5899  0.2451
  440SOL    HW1 2536   0.382   1.847   3.837  1.9938 -1.7675  0.0541
  440SOL    HW2 2537   0.456   1.804   3.961  0.4763  0.7397  1.9172
  441SOL     OW 2538   2.115   0.286   3.047  0.3045  0.6026 -0.1038
  441SOL    HW1 2539   2.210   0.291   3.041  0.3933 -0.9952 -0.3383
  441SOL    HW2 2540   2.092   0.205   3.002 -1.0565  0.3757  0.9334
  442SOL     OW 2541   1.213   0.870   2.069 -0.5624 -0.0460  0.5242
  442SOL    HW1 2542   1.165   0.951   2.051  0.6637  0.9000  1.3447
  442SOL    HW2 2543   1.183   0.843   2.156 -1.3983 -0.8244  0.0147
  443SOL     OW 2544   0.547   0.913   2.974  0.7990  0.4118  0.7599
  443SOL    HW1 2545   0.595   0.887   3.052  1.5795 -1.5712 -0.3281
  443SOL    HW2 2546   0.601   0.884   2.901 -0.5797  0.9521 -0.5397
  444SOL     OW 2547   1.642   0.282   3.458 -0.0515 -0.2052  0.7839
  444SOL    HW1 2548   1.619   0.248   3.371  1.2028  0.1892  0.2860
  444SOL    HW2 2549   1.645   0.377   3.447  3.0966 -0.2387  0.4376
  445SOL     OW 2550   1.900   0.441   2.573  0.0976  0.1021 -0.3107
  445SOL    HW1 2551   1.962   0.388   2.522  0.6404  0.4508 -0.0234
  445SOL    HW2 2552   1.871   0.383   2.644 -1.0169 -0.5395 -1.2668
  446SOL     OW 2553   1.179   1.299   1.573 -0.0963  0.3206 -0.2581
  446SOL    HW1 2554   1.134   1.281   1.491  0.5556 -0.8114 -0.4005
  446SOL    HW2 2555   1.255   1.352   1.548 -0.8581  1.5001 -0.1310
  447SOL     OW 2556   0.764   1.797   2.249  0.2719 -0.3712  0.6879
  447SOL    HW1 2557   0.716   1.879   2.263 -0.0752 -0.6932  1.4614
  447SOL    HW2 2558   0.721   1.757   2.173  0.4675  0.1714  0.2804
  448SOL     OW 2559   0.747   1.010   2.722  0.1303  0.1534 -0.6222
  448SOL    HW1 2560   0.826   1.006   2.774 -0.3700 -0.7600  0.0939
  448SOL    HW2 2561   0.706   0.925   2.734 -0.7800  0.4852 -1.2636
  449SOL     OW 2562   1.225   1.281   1.853  0.6482 -0.2738  0.1223
  449SOL    HW1 2563   1.315   1.250   1.868  0.6082 -0.8046 -0.7213
  449SOL    HW2 2564   1.213   1.275   1.759  0.9168  3.0600 -0.2756
  450SOL     OW 2565   1.496   1.218   2.792 -0.2022  0.0208  0.2000
  450SOL    HW1 2566   1.577   1.244   2.748  0.3700 -0.2744  1.0486
  450SOL    HW2 2567   1.524   1.188   2.878 -1.0656 -1.4906 -0.0080
  451SOL     OW 2568   0.657   1.084   4.134  0.2465 -0.2810 -0.2045
  451SOL    HW1 2569   0.639   0.990   4.135  1.3882 -0.5126  0.4212
  451SOL    HW2 2570   0.727   1.095   4.198  0.9431  0.8266 -1.1268
  452SOL     OW 2571   0.392   1.485   2.194  0.8528 -0.4600 -0.3517
  452SOL    HW1 2572   0.356   1.397   2.184  0.2449 -0.4367  1.3195
  452SOL    HW2 2573   0.453   1.494   2.121  0.8165 -2.2118 -0.6467
  453SOL     OW 2574   0.781   1.182   3.792  0.0815 -0.6346 -0.2233
  453SOL    HW1 2575   0.749   1.211   3.707  3.6451  2.8587 -0.6668
  453SOL    HW2 2576   0.829   1.101   3.774  0.2808 -0.2661 -1.4227
  454SOL     OW 2577   1.680   0.109   2.997  0.5181 -0.2811  0.2135
  454SOL    HW1 2578   1.629   0.077   2.923 -0.3364 -0.1808  0.7455
  454SOL    HW2 2579   1.706   0.198   2.972  0.2034 -0.2340  0.0479
  455SOL     OW 2580   0.286   0.632   2.438  0.4319 -0.0050 -0.0593
  455SOL    HW1 2581   0.354   0.566   2.420  2.2816  1.7560  0.1583
  455SOL    HW2 2582   0.272   0.626   2.532 -0.3500 -0.9210 -0.2158
  456SOL     OW 2583   1.417   1.444   2.991  0.0870 -0.2565  0.3897
  456SOL    HW1 2584   1.375   1.463   3.075 -0.4658 -0.2029  0.1041
  456SOL    HW2 2585   1.429   1.349   2.991 -2.7529 -0.6855 -0.7671
  457SOL     OW 2586   0.529   0.151   3.130 -0.2053  0.2604  0.1215
  457SOL    HW1 2587   0.566   0.112   3.209  0.4280 -0.0111 -0.2969
  457SOL    HW2 2588   0.458   0.092   3.105  2.1891 -2.0389 -1.8097
  458SOL     OW 2589   0.655   2.055   2.323 -0.1386 -0.2343 -0.2524
  458SOL    HW1 2590   0.639   2.129   2.265 -1.1385 -0.8529 -0.8140
  458SOL    HW2 2591   0.595   2.068   2.396  0.4075  0.0276  0.1527
  459SOL     OW 2592   1.252   0.009   2.751 -0.0852 -0.2770 -0.4365
  459SOL    HW1 2593   1.235  -0.077   2.714 -2.1834  0.0179 -0.2817
  459SOL    HW2 2594   1.207   0.069   2.692 -1.5036  0.4073  1.2553
  460SOL     OW 2595   1.017   8.356   2.755  0.0650 -0.7071 -0.5455
  460SOL    HW1 2596   0.948   8.329   2.694 -1.3797 -0.2926  0.8042
  460SOL    HW2 2597   0.986   8.440   2.789  0.5575 -1.1544  1.1013
  461SOL     OW 2598   1.090   0.913   2.660  0.0888  0.1736  0.7701
  461SOL    HW1 2599   1.140   0.995   2.657 -0.5016  0.5496  1.0418
  461SOL    HW2 2600   1.018   0.928   2.598  0.8670 -0.7425 -0.3920
  462SOL     OW 2601   0.609   1.762   2.877 -0.1190 -0.2007  0.4806
  462SOL    HW1 2602   0.663   1.827   2.921 -0.3421 -0.8866  1.8140
  462SOL    HW2 2603   0.672   1.701   2.838  0.0883  0.7848 -0.7662
  463SOL     OW 2604   1.581   8.382   2.319  0.1890 -0.2322  0.5784
  463SOL    HW1 2605   1.527   8.461   2.324  0.6531  0.2081 -0.9379
  463SOL    HW2 2606   1.669   8.411   2.343  0.5507 -0.0553 -0.8589
  464SOL     OW 2607   1.205   0.505   2.116  0.5598 -0.0192  0.2457
  464SOL    HW1 2608   1.288   0.488   2.160  0.3684  1.0693  1.0692
  464SOL    HW2 2609   1.138   0.484   2.181  0.2559  0.9601  0.2665
  465SOL     OW 2610   1.680   0.012   2.443 -0.0318 -0.1565 -0.5742
  465SOL    HW1 2611   1.744  -0.019   2.507 -0.5156  0.0010 -0.0086
  465SOL    HW2 2612   1.645   0.093   2.481  0.6353  0.6792 -1.6465
  466SOL     OW 2613   0.138   1.050   2.213  0.2767  0.2545  0.4543
  466SOL    HW1 2614   0.171   1.020   2.298 -1.5164 -1.4801  0.6065
  466SOL    HW2 2615   0.043   1.055   2.225 -0.1068 -0.8993 -1.6952
  467SOL     OW 2616   0.958   1.284   2.321  0.1311  0.0565  0.3924
  467SOL    HW1 2617   0.989   1.329   2.242  0.0313 -0.8833 -0.1968
  467SOL    HW2 2618   0.896   1.346   2.360  0.6353  0.7873  0.0774
  468SOL     OW 2619   0.255   0.504   4.088 -0.4464 -0.2284 -0.2039
  468SOL    HW1 2620   0.269   0.464   4.002  0.2611 -1.4470  0.4586
  468SOL    HW2 2621   0.310   0.582   4.087 -1.1047  0.2502 -1.1594
  469SOL     OW 2622   8.717   8.838   4.626  0.0662  1.0154 -0.5255
  469SOL    HW1 2623   8.629   8.808   4.648  0.4519  0.4551  0.3214
  469SOL    HW2 2624   8.707   8.886   4.543 -1.1578  1.6730 -0.0166
  470SOL     OW 2625   8.804   0.407   4.488  0.0882  0.7800 -0.2412
  470SOL    HW1 2626   8.747   0.331   4.475 -0.0230  0.5674  1.3154
  470SOL    HW2 2627   8.852   0.415   4.405  0.5943 -1.3960 -0.2164
  471SOL     OW 2628   0.342   0.882   5.269  0.4528 -0.2582 -0.3831
  471SOL    HW1 2629   0.266   0.863   5.324  0.2426 -2.8872 -1.3962
  471SOL    HW2 2630   0.416   0.850   5.320  0.6387  0.2917 -0.3037
  472SOL     OW 2631   1.722   1.602   4.149  0.3852 -0.0608 -0.1960
  472SOL    HW1 2632   1.757   1.587   4.237 -0.9809 -3.7539 -0.1376
  472SOL    HW2 2633   1.646   1.658   4.162 -0.5457 -1.5928  1.1872
  473SOL     OW 2634   1.086   0.780   4.833  0.1835 -0.7147 -0.2824
  473SOL    HW1 2635   1.004   0.770   4.882  0.1247 -0.8103 -0.3980
  473SOL    HW2 2636   1.066   0.746   4.746  0.0099  0.3442 -0.6667
  474SOL     OW 2637   1.879   0.481   3.814  0.0589 -0.3242  0.2341
  474SOL    HW1 2638   1.874   0.401   3.866 -1.4405 -1.4144 -1.4789
  474SOL    HW2 2639   1.888   0.451   3.724  2.3496  1.5106 -0.2405
  475SOL     OW 2640   0.555   1.291   4.746 -0.1469  0.3388 -0.1704
  475SOL    HW1 2641   0.474   1.338   4.726  0.1037  0.5087 -0.8164
  475SOL    HW2 2642   0.570   1.235   4.669  0.1910  0.0868  0.0735
  476SOL     OW 2643   1.065   0.424   5.572 -0.8345  0.2135  0.1079
  476SOL    HW1 2644   1.133   0.427   5.505 -0.5182  0.1155  0.4240
  476SOL    HW2 2645   0.990   0.382   5.529 -0.3919 -0.5040  0.0364
  477SOL     OW 2646   0.917   0.984   4.317 -0.3798 -0.5722 -0.3041
  477SOL    HW1 2647   0.858   0.942   4.379  0.1470 -0.0339  0.5839
  477SOL    HW2 2648   0.933   1.071   4.354  0.6534 -0.5633 -0.7344
  478SOL     OW 2649   0.742   1.855   5.786 -0.1210  0.4071  0.1048
  478SOL    HW1 2650   0.660   1.811   5.808  0.5924 -1.5215 -0.9073
  478SOL    HW2 2651   0.776   1.886   5.870 -1.7778  1.0812  0.5546
  479SOL     OW 2652   0.270   1.117   4.977 -0.3282  0.4062 -0.0707
  479SOL    HW1 2653   0.260   1.138   5.070 -0.9253 -0.2591  0.0286
  479SOL    HW2 2654   0.357   1.148   4.955  0.2803 -0.4284  1.0080
  480SOL     OW 2655   1.851   1.380   5.022 -0.1319 -0.1154  0.4171
  480SOL    HW1 2656   1.816   1.325   4.952 -1.0062  0.5411  0.3145
  480SOL    HW2 2657   1.861   1.466   4.981  0.1442  0.0741  0.8749
  481SOL     OW 2658   0.332   0.155   5.624  0.2852 -0.7519  0.7125
  481SOL    HW1 2659   0.319   0.141   5.530  1.0293 -0.5316  0.5646
  481SOL    HW2 2660   0.424   0.132   5.638 -0.0787 -1.7260  1.5704
  482SOL     OW 2661   1.910   0.065   4.503  0.1887  0.1250  0.1253
  482SOL    HW1 2662   1.890  -0.026   4.524  1.1524 -0.5066 -1.5331
  482SOL    HW2 2663   1.945   0.101   4.585  0.7341 -1.2792  0.5361
  483SOL     OW 2664   0.565   1.412   4.321 -0.2699  0.0505 -0.3663
  483SOL    HW1 2665   0.646   1.461   4.308  0.1894 -0.6642 -0.2642
  483SOL    HW2 2666   0.593   1.322   4.335 -0.8112  0.2773  3.1780
  484SOL     OW 2667   1.168   1.503   5.231 -0.2096 -0.2689 -0.9452
  484SOL    HW1 2668   1.146   1.580   5.178 -3.5978  0.1874  0.8691
  484SOL    HW2 2669   1.107   1.436   5.203 -1.7735 -0.1704  1.8262
  485SOL     OW 2670   0.144   1.338   4.608 -0.8794 -0.5822  0.2304
  485SOL    HW1 2671   0.236   1.356   4.591 -0.5489 -0.1548  2.1768
  485SOL    HW2 2672   0.139   1.243   4.616 -0.2373 -0.5286  1.7047
  486SOL     OW 2673   0.037   0.431   4.754 -0.1284 -0.1604 -0.3409
  486SOL    HW1 2674   0.029   0.445   4.660  0.3490 -1.5681 -0.6155
  486SOL    HW2 2675   0.007   0.341   4.768 -0.6404  0.1744  0.9269
  487SOL     OW 2676   0.781   1.779   5.160 -0.1946  0.0289 -0.7170
  487SOL    HW1 2677   0.714   1.723   5.201 -0.1453  0.6813  0.2948
  487SOL    HW2 2678   0.790   1.852   5.221 -0.1188  1.0479 -1.9294
  488SOL     OW 2679   0.790   0.810   3.942  0.3205 -0.2338 -0.0630
  488SOL    HW1 2680   0.854   0.871   3.977  0.0219 -0.1106  0.2700
  488SOL    HW2 2681   0.828   0.723   3.957  1.0749 -0.1189 -1.1785
  489SOL     OW 2682   1.715   0.413   5.313 -0.1113 -0.0917 -0.1780
  489SOL    HW1 2683   1.805   0.391   5.288 -0.7786 -0.9285 -2.0156
  489SOL    HW2 2684   1.681   0.334   5.355 -0.3978 -0.2748 -0.7353
  490SOL     OW 2685   8.598   0.563   4.612 -0.4773  0.0488 -0.6436
  490SOL    HW1 2686   8.667   0.509   4.573 -0.2784 -1.0011  1.0732
  490SOL    HW2 2687   8.517   0.524   4.579 -0.3092 -0.7382 -0.1717
  491SOL     OW 2688   1.971   1.682   3.703 -0.3485 -0.0204 -0.6020
  491SOL    HW1 2689   1.936   1.612   3.759 -0.0962 -0.1481 -0.6031
  491SOL    HW2 2690   1.907   1.753   3.711 -0.3064 -0.0311 -0.1372
  492SOL     OW 2691   0.219   1.455   3.482 -0.9457  0.1740  0.1915
  492SOL    HW1 2692   0.180   1.432   3.567 -1.1966 -1.5164 -0.3410
  492SOL    HW2 2693   0.222   1.372   3.434 -0.0972  0.9599 -1.1753
  493SOL     OW 2694   1.963   0.877   4.627  0.4057  0.4899  0.2710
  493SOL    HW1 2695   1.961   0.834   4.541 -0.7287 -0.1558  0.5997
  493SOL    HW2 2696   2.056   0.877   4.650  0.5735 -0.7666 -0.2627
  494SOL     OW 2697   1.908   1.300   4.022  0.2222  0.0834  0.2596
  494SOL    HW1 2698   1.816   1.292   4.047  0.3984 -0.0177  0.8751
  494SOL    HW2 2699   1.957   1.279   4.101  0.7702  3.0214  0.8234
  495SOL     OW 2700   0.059   0.562   5.693  0.3222 -0.1484  0.2710
  495SOL    HW1 2701   0.109   0.482   5.711  0.4178  0.1101  1.1823
  495SOL    HW2 2702  -0.031   0.530   5.680  0.6297 -0.5655 -0.9486
  496SOL     OW 2703   0.902   1.089   4.815  0.2103  0.5925  0.0185
  496SOL    HW1 2704   0.990   1.052   4.809 -0.0647 -0.1521  0.5327
  496SOL    HW2 2705   0.870   1.062   4.901 -0.5689  0.7617 -0.2100
  497SOL     OW 2706   1.594   1.129   5.009  0.1963 -0.0638 -0.3564
  497SOL    HW1 2707   1.649   1.157   4.936  0.6726 -1.4531 -0.5539
  497SOL    HW2 2708   1.599   1.202   5.071  1.1318  0.4346 -0.9885
  498SOL     OW 2709   0.812   8.836   3.772 -0.4729  0.7502 -0.2308
  498SOL    HW1 2710   0.819   8.751   3.727  1.7319  0.1298  1.1215
  498SOL    HW2 2711   0.793   8.813   3.863 -0.4538  1.7652  0.0353
  499SOL     OW 2712   0.291   0.512   5.219 -0.4179 -0.5884  0.3877
  499SOL    HW1 2713   0.258   0.567   5.290 -1.1765 -0.8279  0.2288
  499SOL    HW2 2714   0.364   0.463   5.258  0.7156  1.0064  0.3488
  500SOL     OW 2715   1.675   1.271   4.203 -0.0773  0.0609  0.2902
  500SOL    HW1 2716   1.654   1.180   4.223 -1.9492  0.2578 -0.6030
  500SOL    HW2 2717   1.685   1.313   4.288  0.1350 -0.8268  0.7128
  501SOL     OW 2718   1.439   1.447   5.017  0.5194  0.2515 -0.5226
  501SOL    HW1 2719   1.442   1.532   5.062  2.7123 -0.2459  0.4331
  501SOL    HW2 2720   1.511   1.451   4.954  0.0928 -0.6003 -1.0842
  502SOL     OW 2721   0.461   0.372   5.843  0.1790 -0.2047  0.5437
  502SOL    HW1 2722   0.485   0.462   5.863 -2.0825  0.7228 -0.5231
  502SOL    HW2 2723   0.522   0.345   5.774  0.3388  0.8071  0.2769
  503SOL     OW 2724   0.993   1.239   4.401 -0.4392  0.0454  0.3089
  503SOL    HW1 2725   0.935   1.285   4.342  0.4588 -0.4529 -0.9999
  503SOL    HW2 2726   1.032   1.307   4.456 -3.5124  0.2706  2.4859
  504SOL     OW 2727   2.078   1.999   4.166 -0.2010  0.1560 -0.4059
  504SOL    HW1 2728   2.099   1.912   4.131  0.4943  0.4246 -0.6782
  504SOL    HW2 2729   2.132   2.059   4.115 -1.0957  0.8130 -0.6018
  505SOL     OW 2730   0.458   0.288   3.843  0.0140  0.5894  0.1930
  505SOL    HW1 2731   0.487   0.306   3.933  0.8547  1.0061 -0.1549
  505SOL    HW2 2732   0.427   0.198   3.846  2.9524 -0.5290  0.2377
  506SOL     OW 2733   1.021   0.913   4.076 -0.4031 -0.6640 -0.1405
  506SOL    HW1 2734   0.987   0.935   4.163 -0.2325  2.0355 -0.6829
  506SOL    HW2 2735   1.113   0.893   4.091 -0.2901  0.1277  0.2775
  507SOL     OW 2736   1.835   2.049   4.304  0.0404 -0.0539  0.0952
  507SOL    HW1 2737   1.893   2.001   4.245 -1.0572  0.6768 -1.6518
  507SOL    HW2 2738   1.779   2.101   4.246 -1.6111  0.1201  1.7571
  508SOL     OW 2739   0.504   0.341   5.264  0.5831  0.3223  0.4420
  508SOL    HW1 2740   0.578   0.303   5.218  1.0343 -0.4444  1.7572
  508SOL    HW2 2741   0.433   0.278   5.251  0.3217  0.7642 -0.3152
  509SOL     OW 2742   1.109   0.601   5.091  0.2520 -0.3274 -0.1051
  509SOL    HW1 2743   1.154   0.685   5.094 -1.0233  0.4239 -0.8997
  509SOL    HW2 2744   1.151   0.554   5.018 -0.4787  0.5309 -1.1096
  510SOL     OW 2745   0.911   0.287   5.390  0.7940 -0.4387  0.3017
  510SOL    HW1 2746   0.854   0.289   5.314  2.2958 -0.0593 -0.8687
  510SOL    HW2 2747   0.901   0.198   5.424  1.3958 -1.2112 -1.4130
  511SOL     OW 2748   1.235   0.895   5.141  0.7200  0.2399 -0.6228
  511SOL    HW1 2749   1.328   0.881   5.159  0.5926  0.6570  0.4015
  511SOL    HW2 2750   1.232   0.975   5.089  0.8583  0.8932  0.3520
  512SOL     OW 2751   0.844   0.538   4.286 -0.4014  0.3090 -0.1484
  512SOL    HW1 2752   0.876   0.452   4.311 -1.6554 -0.5023 -1.2269
  512SOL    HW2 2753   0.913   0.574   4.230  0.0210 -0.0841  0.1148
  513SOL     OW 2754   0.203   1.053   4.584 -0.2978 -0.2626  0.0604
  513SOL    HW1 2755   0.235   1.030   4.671 -0.4296  0.8783  0.4279
  513SOL    HW2 2756   0.228   0.979   4.528  0.2842 -0.7476  0.9495
  514SOL     OW 2757   0.203   1.592   5.371 -0.8658 -0.6092  0.5813
  514SOL    HW1 2758   0.245   1.522   5.422  0.4870  0.0373  0.4181
  514SOL    HW2 2759   0.168   1.652   5.437  0.8592  0.2153  0.7973
  515SOL     OW 2760   0.857   0.468   3.549 -0.3009  0.0076  0.1656
  515SOL    HW1 2761   0.916   0.530   3.590  1.9203 -1.2050 -1.0151
  515SOL    HW2 2762   0.833   0.407   3.618  1.1135 -0.3849  0.3309
  516SOL     OW 2763   1.643   0.689   5.368 -0.1424 -0.1363  0.3519
  516SOL    HW1 2764   1.664   0.596   5.363 -0.2777 -0.1256 -0.4915
  516SOL    HW2 2765   1.656   0.711   5.461 -0.6644 -1.1197  0.6790
  517SOL     OW 2766   1.318   1.317   4.168 -0.4342  0.2148 -0.1899
  517SOL    HW1 2767   1.301   1.407   4.194 -1.5777  0.0681 -0.3788
  517SOL    HW2 2768   1.287   1.312   4.077 -0.1717 -0.3107 -0.2552
  518SOL     OW 2769   0.724   0.231   5.169  0.2703  0.1594 -0.2554
  518SOL    HW1 2770   0.694   0.141   5.182  1.2831 -0.2868 -0.8856
  518SOL    HW2 2771   0.760   0.232   5.081  1.3378  0.8767  0.1714
  519SOL     OW 2772   1.303   1.577   4.250  0.7415 -0.1882  0.1256
  519SOL    HW1 2773   1.216   1.602   4.282  0.5521  0.2937 -0.7337
  519SOL    HW2 2774   1.325   1.643   4.185  1.0074 -1.2592 -0.9203
  520SOL     OW 2775   0.397   1.443   4.538 -0.5759  0.2644 -0.4160
  520SOL    HW1 2776   0.455   1.421   4.465 -0.3149 -0.4872  0.0027
  520SOL    HW2 2777   0.400   1.539   4.543  1.8604  0.2296  0.5220
  521SOL     OW 2778   2.005   0.483   4.624 -0.0479  0.0578  0.3126
  521SOL    HW1 2779   2.097   0.501   4.604 -0.1617  0.8236  0.4594
  521SOL    HW2 2780   1.990   0.522   4.710 -0.6518  0.4141  0.0529
  522SOL     OW 2781   1.457   1.678   5.107  0.4957  0.5309  0.0198
  522SOL    HW1 2782   1.539   1.671   5.156  0.7771 -0.2688 -0.5432
  522SOL    HW2 2783   1.400   1.730   5.163  0.3444 -1.4505  1.8363
  523SOL     OW 2784   0.530   0.446   3.652  0.7340  0.3394  0.1025
  523SOL    HW1 2785   0.556   0.531   3.687 -0.1341  0.5045  0.3711
  523SOL    HW2 2786   0.509   0.393   3.729  0.7542  0.0511 -0.0865
  524SOL     OW 2787   1.755   0.797   4.802  0.0751  0.3362 -0.5083
  524SOL    HW1 2788   1.706   0.877   4.785  0.9820  1.3989  1.5807
  524SOL    HW2 2789   1.823   0.796   4.735 -0.4157  0.8791 -1.0293
  525SOL     OW 2790   0.541   1.043   5.536 -0.0334 -0.3196 -0.0987
  525SOL    HW1 2791   0.535   0.968   5.477  0.4675 -0.4500  0.0162
  525SOL    HW2 2792   0.634   1.048   5.560 -0.2698 -0.4110  0.8651
  526SOL     OW 2793   1.370   1.656   3.805  0.0802 -0.5497  0.2883
  526SOL    HW1 2794   1.419   1.656   3.887  1.8041 -0.4308 -0.7067
  526SOL    HW2 2795   1.296   1.597   3.821  0.2937 -0.3852  1.9742
  527SOL     OW 2796   8.662   0.217   5.508  0.2814 -0.6675 -0.2587
  527SOL    HW1 2797   8.740   0.171   5.540 -0.7542 -2.5178 -0.2538
  527SOL    HW2 2798   8.683   0.309   5.518  1.1540 -1.1028  3.0469
  528SOL     OW 2799   1.777   1.020   3.822 -0.6401 -0.2935  0.3235
  528SOL    HW1 2800   1.860   1.067   3.816 -1.1024  0.3650 -1.4718
  528SOL    HW2 2801   1.802   0.928   3.833  0.3441 -0.1854 -0.8235
  529SOL     OW 2802   0.633   1.936   4.109 -0.5792  0.1596 -0.0458
  529SOL    HW1 2803   0.627   1.841   4.120 -1.5104  0.1779 -0.3454
  529SOL    HW2 2804   0.665   1.948   4.020 -1.4069  0.1377 -0.3494
  530SOL     OW 2805   1.332   0.020   4.107  0.5110 -0.1400  0.0798
  530SOL    HW1 2806   1.332   0.066   4.023  0.3068  1.5829  0.9574
  530SOL    HW2 2807   1.298  -0.067   4.087 -1.0503  0.7393 -1.3701
  531SOL     OW 2808   0.443   1.532   5.024  0.1748 -0.2719 -0.9492
  531SOL    HW1 2809   0.461   1.446   5.061  0.0013  0.2825  0.5173
  531SOL    HW2 2810   0.351   1.549   5.045  0.5006  0.7067 -0.2084
  532SOL     OW 2811   1.104   1.395   4.599  0.5966  0.3710 -0.7695
  532SOL    HW1 2812   1.044   1.400   4.674  1.2403 -1.4028 -0.0873
  532SOL    HW2 2813   1.169   1.463   4.616  0.8283 -0.1166  0.3805
  533SOL     OW 2814   0.306   0.556   4.582 -0.0441 -0.3681 -0.2791
  533SOL    HW1 2815   0.246   0.538   4.654 -0.8399 -1.1351 -1.1105
  533SOL    HW2 2816   0.264   0.519   4.504  0.3423  1.2457 -1.3255
  534SOL     OW 2817   1.426   8.826   5.364 -0.3744 -0.1681  0.5317
  534SOL    HW1 2818   1.516   8.849   5.339 -0.3518  1.5594  2.0020
  534SOL    HW2 2819   1.389   8.787   5.285  1.5313 -0.5469 -0.2378
  535SOL     OW 2820   0.402   8.404   3.508  0.6284 -0.3871  0.2980
  535SOL    HW1 2821   0.424   8.465   3.437 -1.0916 -2.8971 -2.5984
  535SOL    HW2 2822   0.486   8.369   3.537  1.3527  0.5744 -0.5836
  536SOL     OW 2823   1.066   0.251   5.149 -0.1818 -0.7916  0.4685
  536SOL    HW1 2824   1.152   0.234   5.189  0.1719  0.0821  0.0954
  536SOL    HW2 2825   1.011   0.277   5.223  0.1351 -0.4065  0.5732
  537SOL     OW 2826   0.871   1.366   4.731 -0.2298 -0.3795  0.4061
  537SOL    HW1 2827   0.879   1.289   4.787  0.9797 -0.4533  0.1724
  537SOL    HW2 2828   0.820   1.336   4.656  0.0607 -0.9010  0.4137
  538SOL     OW 2829   1.694   0.566   4.944  0.2373 -0.4160  0.0362
  538SOL    HW1 2830   1.621   0.516   4.907 -0.4700  0.1368  0.6562
  538SOL    HW2 2831   1.700   0.644   4.889 -0.8992  0.4707  1.0913
  539SOL     OW 2832   0.730   1.075   4.607  0.2834  0.0399 -0.8631
  539SOL    HW1 2833   0.671   1.005   4.636 -2.1200  2.0827 -0.4109
  539SOL    HW2 2834   0.787   1.090   4.682 -1.3274  0.6566  0.3067
  540SOL     OW 2835   0.826   0.753   4.972  0.6474 -0.2860  0.1174
  540SOL    HW1 2836   0.839   0.680   5.032  0.1949  0.9656  1.8069
  540SOL    HW2 2837   0.783   0.714   4.896 -1.1837 -1.5282  1.7017
  541SOL     OW 2838   0.631   0.184   3.517 -0.1175  0.4676  0.1749
  541SOL    HW1 2839   0.589   0.267   3.493 -0.4463  0.4739  0.7562
  541SOL    HW2 2840   0.665   0.199   3.605 -2.3657 -0.7955  1.3475
  542SOL     OW 2841   1.592   1.163   3.959 -0.5623  0.0479 -0.1109
  542SOL    HW1 2842   1.630   1.148   4.045 -1.2641  1.2017  0.4181
  542SOL    HW2 2843   1.648   1.114   3.899  0.1731 -0.4344  0.9506
  543SOL     OW 2844   0.309   0.047   3.911  0.2586 -0.2147 -0.6761
  543SOL    HW1 2845   0.295   0.025   4.003 -0.8539  1.5041 -0.3962
  543SOL    HW2 2846   0.221   0.045   3.873  0.6334 -0.2218 -1.5477
  544SOL     OW 2847   0.980   0.036   3.538 -0.3496 -0.2754 -0.0743
  544SOL    HW1 2848   1.039   0.037   3.614  0.1287 -0.7647 -0.4254
  544SOL    HW2 2849   0.894   0.055   3.575 -0.0383  0.0475  0.5117
  545SOL     OW 2850   0.769   1.013   5.056  0.2263 -0.4967  0.0436
  545SOL    HW1 2851   0.678   1.040   5.051 -0.0101 -1.3204 -0.2283
  545SOL    HW2 2852   0.769   0.922   5.025  1.6015  0.5050 -3.3246
  546SOL     OW 2853   1.448   1.541   4.488 -0.3091  0.1597 -0.5439
  546SOL    HW1 2854   1.432   1.554   4.394 -0.8815 -1.6853 -0.7483
  546SOL    HW2 2855   1.369   1.572   4.531 -0.1447  0.7793 -0.6759
  547SOL     OW 2856   0.832   1.451   4.293 -0.2770  0.0285  0.4573
  547SOL    HW1 2857   0.915   1.497   4.304  1.0171 -1.8792 -0.7958
  547SOL    HW2 2858   0.817   1.449   4.199 -1.8405  0.4444  0.6673
  548SOL     OW 2859   1.555   1.817   4.188  0.1804  0.3377 -0.2475
  548SOL    HW1 2860   1.557   1.867   4.269 -0.8536  0.0621 -0.0446
  548SOL    HW2 2861   1.465   1.823   4.157 -0.1360 -1.8355  0.0745
  549SOL     OW 2862   0.824   0.257   3.739 -0.5405  0.2857  0.6280
  549SOL    HW1 2863   0.910   0.279   3.774 -0.3078  1.1452 -0.4069
  549SOL    HW2 2864   0.813   0.164   3.757  0.5683  0.1870  0.8627
  550SOL     OW 2865   0.033   0.121   5.714  0.5100  0.1589 -0.4600
  550SOL    HW1 2866  -0.010   0.085   5.792 -0.7576  0.8661 -0.8038
  550SOL    HW2 2867   0.098   0.182   5.748  0.5291 -0.1570  0.0691
  551SOL     OW 2868   0.801   0.030   4.637  0.1981  0.3031  0.3767
  551SOL    HW1 2869   0.766   0.118   4.650  0.3559  0.2375  1.3216
  551SOL    HW2 2870   0.761  -0.023   4.706  0.3269 -0.3028 -0.0026
  552SOL     OW 2871   0.562   0.524   4.201  0.1277  0.2523  0.3122
  552SOL    HW1 2872   0.657   0.515   4.207  0.0109 -0.7374  0.9530
  552SOL    HW2 2873   0.530   0.435   4.188 -0.7789  0.4495  1.0961
  553SOL     OW 2874   1.327   0.217   4.655 -0.8489  0.0763  0.0382
  553SOL    HW1 2875   1.402   0.177   4.699 -1.5824  0.9905  2.2353
  553SOL    HW2 2876   1.251   0.178   4.697 -1.6007  0.6435 -0.7670
  554SOL     OW 2877   1.466   1.274   4.622 -0.5175 -0.1198  0.4759
  554SOL    HW1 2878   1.398   1.208   4.617 -0.1077 -0.5890  0.9648
  554SOL    HW2 2879   1.419   1.357   4.623 -1.0112 -0.3711 -0.6834
  555SOL     OW 2880   1.457   0.832   4.619 -0.1855  0.0101 -0.1319
  555SOL    HW1 2881   1.400   0.827   4.696  1.2761 -0.1119  0.9905
  555SOL    HW2 2882   1.475   0.741   4.596 -1.5351  0.0252 -1.3635
  556SOL     OW 2883   1.983   0.919   4.052 -0.8899 -0.1061  0.4035
  556SOL    HW1 2884   1.916   0.854   4.075 -0.1839 -0.4730  1.4776
  556SOL    HW2 2885   2.044   0.870   3.997 -1.1315  0.0536 -0.0157
  557SOL     OW 2886   0.414   1.452   3.827  0.5287  0.3197 -0.0057
  557SOL    HW1 2887   0.331   1.434   3.785  1.8888 -1.8075 -1.9969
  557SOL    HW2 2888   0.419   1.389   3.899  0.6598  0.0503 -0.2497
  558SOL     OW 2889   2.201   1.208   4.624 -0.0178 -0.2024 -0.6329
  558SOL    HW1 2890   2.272   1.143   4.626 -0.4479 -0.7171  2.2632
  558SOL    HW2 2891   2.244   1.289   4.595  1.2833 -0.9902 -1.0100
  559SOL     OW 2892   1.394   0.371   4.233  0.4725  0.3629 -0.2667
  559SOL    HW1 2893   1.445   0.451   4.245  0.9390  0.1659 -0.8752
  559SOL    HW2 2894   1.450   0.315   4.180  0.5100 -0.7122  0.8651
  560SOL     OW 2895   0.883   0.553   3.979  0.4483 -0.2760  0.1280
  560SOL    HW1 2896   0.949   0.484   3.985  1.6517  0.8946  0.9693
  560SOL    HW2 2897   0.824   0.524   3.909  1.3233 -1.7942 -0.0227
  561SOL     OW 2898   1.597   1.180   5.596 -0.0135  0.1746  0.3017
  561SOL    HW1 2899   1.630   1.269   5.599  1.0853 -0.2236  0.6631
  561SOL    HW2 2900   1.539   1.178   5.521  0.4593  1.0256 -0.1005
  562SOL     OW 2901   1.019   1.706   5.072  0.2136 -0.5185  0.1888
  562SOL    HW1 2902   1.024   1.724   4.978  0.8167  0.1912  0.3442
  562SOL    HW2 2903   0.931   1.735   5.097  0.4534  0.3612  0.0455
  563SOL     OW 2904   1.713   1.639   5.211  0.0849 -0.1854 -0.2053
  563SOL    HW1 2905   1.799   1.654   5.172  0.5272  0.5177  0.9911
  563SOL    HW2 2906   1.728   1.573   5.278 -0.5466 -0.9038 -0.7547
  564SOL     OW 2907   1.226   1.126   4.632 -0.7056 -0.7137  0.5715
  564SOL    HW1 2908   1.160   1.191   4.608  0.5591  1.1515  1.8715
  564SOL    HW2 2909   1.217   1.117   4.727  0.2656 -1.1377  0.6272
  565SOL     OW 2910   1.633   1.051   4.569 -0.4417 -0.7931  0.3965
  565SOL    HW1 2911   1.576   0.979   4.597  1.0963 -1.5614  1.6911
  565SOL    HW2 2912   1.595   1.129   4.610  0.6748 -1.6224  3.2300
  566SOL     OW 2913   0.840   0.273   4.907 -0.3518  0.0484 -0.0986
  566SOL    HW1 2914   0.896   0.315   4.842 -0.4536  0.4762  0.0865
  566SOL    HW2 2915   0.768   0.235   4.855  1.7476 -3.4726 -0.7708
  567SOL     OW 2916   1.023   0.889   5.309  0.5773 -0.0478 -0.2974
  567SOL    HW1 2917   1.087   0.879   5.379  2.2645  3.5845 -1.0462
  567SOL    HW2 2918   1.076   0.895   5.229 -0.7901  1.5291 -1.1455
  568SOL     OW 2919   1.304   1.166   3.918  0.6301 -0.3154 -0.0062
  568SOL    HW1 2920   1.256   1.094   3.877  0.1646  0.0618 -0.1357
  568SOL    HW2 2921   1.380   1.124   3.958  0.3923 -0.8730 -0.1236
  569SOL     OW 2922   0.502   0.485   4.751 -0.4160  0.7039  0.7051
  569SOL    HW1 2923   0.570   0.551   4.767 -0.1219  0.4811  0.4078
  569SOL    HW2 2924   0.453   0.519   4.677  1.2790 -0.5300 -1.1130
  570SOL     OW 2925   1.151   0.380   4.915 -0.3594  0.5618 -0.1814
  570SOL    HW1 2926   1.092   0.374   4.841 -0.5656  1.3850 -0.0952
  570SOL    HW2 2927   1.104   0.337   4.987 -0.8605  1.2170 -0.1116
  571SOL     OW 2928   0.161   1.517   5.077  0.3969  0.2940 -0.2501
  571SOL    HW1 2929   0.154   1.509   5.172  0.9073  0.8114 -0.1628
  571SOL    HW2 2930   0.081   1.476   5.044  0.1462  0.2352  0.4058
  572SOL     OW 2931   0.761   0.772   4.459 -0.4658 -0.0517 -0.2341
  572SOL    HW1 2932   0.783   0.698   4.403 -0.4070  0.8036 -1.3813
  572SOL    HW2 2933   0.666   0.777   4.458 -0.4543  0.1453 -0.5155
  573SOL     OW 2934   0.306   0.317   4.878 -0.3143  0.1192 -0.2547
  573SOL    HW1 2935   0.271   0.278   4.799  1.3934 -2.2996  0.0753
  573SOL    HW2 2936   0.358   0.391   4.848  1.1074 -1.3476 -1.5342
  574SOL     OW 2937   1.552   1.444   3.960 -0.1130 -0.1147 -0.1525
  574SOL    HW1 2938   1.540   1.350   3.949  0.8716 -0.3061  0.2521
  574SOL    HW2 2939   1.593   1.453   4.046  1.4533  0.5270 -0.9299
  575SOL     OW 2940   1.222   1.343   4.885 -0.8947 -0.2339  1.0012
  575SOL    HW1 2941   1.143   1.372   4.930 -1.1465  0.1410  0.3262
  575SOL    HW2 2942   1.294   1.378   4.938 -1.1903  1.4704  0.3332
  576SOL     OW 2943   1.537   0.602   4.323  0.1624 -0.4451 -0.4550
  576SOL    HW1 2944   1.531   0.693   4.354  0.0865  0.4277 -2.8019
  576SOL    HW2 2945   1.602   0.562   4.380 -0.0300  0.9956  0.8492
  577SOL     OW 2946   0.504   0.978   5.076  0.8425  0.1316 -0.4925
  577SOL    HW1 2947   0.524   0.922   5.001  0.1016  0.0623 -0.6490
  577SOL    HW2 2948   0.466   0.917   5.140  0.9270  0.2936 -0.2892
  578SOL     OW 2949   0.571   0.427   5.527 -0.3811 -0.0704 -0.0491
  578SOL    HW1 2950   0.522   0.405   5.448  1.4832  0.2386 -1.3636
  578SOL    HW2 2951   0.662   0.433   5.498  0.2707  0.8367  1.9773
  579SOL     OW 2952   1.439   0.451   5.216  0.1910 -0.4322  0.2134
  579SOL    HW1 2953   1.435   0.509   5.141  0.0082 -1.7572 -0.8462
  579SOL    HW2 2954   1.532   0.441   5.234  0.3295 -1.3685 -0.8947
  580SOL     OW 2955   0.605   0.133   5.678  0.5183  0.1961  0.0715
  580SOL    HW1 2956   0.676   0.169   5.730  1.3666 -0.3090 -0.6974
  580SOL    HW2 2957   0.641   0.126   5.590 -0.9366  1.1956 -0.6439
  581SOL     OW 2958   0.787   0.377   5.764 -0.0120  0.3287 -0.2763
  581SOL    HW1 2959   0.803   0.462   5.723  0.0381  1.1391  1.3647
  581SOL    HW2 2960   0.874   0.348   5.793 -0.2945  0.7053  0.9962
  582SOL     OW 2961   8.424   0.885   4.459  0.3182  0.2849 -0.0932
  582SOL    HW1 2962   8.461   0.875   4.546 -1.2320 -0.2687  0.5469
  582SOL    HW2 2963   8.352   0.948   4.470 -0.4501 -0.4409 -0.7638
  583SOL     OW 2964   1.312   1.102   5.011  0.0594 -0.3139 -0.0199
  583SOL    HW1 2965   1.405   1.117   4.994  0.2183 -0.1843  0.9196
  583SOL    HW2 2966   1.275   1.189   5.023  0.1916 -0.4274  1.4201
  584SOL     OW 2967   1.076   0.346   3.866 -0.0848  0.0754 -0.1461
  584SOL    HW1 2968   1.146   0.292   3.829  0.4346  0.2802  0.4953
  584SOL    HW2 2969   1.120   0.429   3.888 -1.0468  1.0990 -1.9121
  585SOL     OW 2970   0.266   8.785   5.308  0.0692 -0.6499  0.1800
  585SOL    HW1 2971   0.215   8.738   5.242  1.0264 -1.4193 -0.0251
  585SOL    HW2 2972   0.334   8.723   5.336  0.2466 -0.0176  1.2218
  586SOL     OW 2973   8.729   1.401   5.278 -0.2080  0.0751  0.1870
  586SOL    HW1 2974   8.665   1.467   5.250  0.1397 -0.0864 -1.0377
  586SOL    HW2 2975   8.762   1.364   5.197  1.7021  0.3835  0.7702
  587SOL     OW 2976   0.499   0.675   4.449 -0.4589 -0.0766  0.2116
  587SOL    HW1 2977   0.423   0.633   4.489 -1.5943  2.2680  0.6723
  587SOL    HW2 2978   0.514   0.626   4.369 -1.6917 -1.3420  0.7179
  588SOL     OW 2979   1.540   1.460   5.653  0.6659  0.0739  0.1830
  588SOL    HW1 2980   1.514   1.548   5.626  0.7868 -1.0625 -4.3500
  588SOL    HW2 2981   1.458   1.412   5.663  0.6589 -0.2324 -1.2121
  589SOL     OW 2982   0.418   8.684   4.227  0.8031  0.1882  0.5766
  589SOL    HW1 2983   0.466   8.738   4.290  1.5375 -0.4114  0.5375
  589SOL    HW2 2984   0.345   8.648   4.277  0.6898  0.6730  0.7708
  590SOL     OW 2985   1.642   0.523   4.035 -0.0129  0.4386 -0.1819
  590SOL    HW1 2986   1.613   0.433   4.053 -2.4174  0.8844 -1.3882
  590SOL    HW2 2987   1.582   0.577   4.086  1.1469  1.3896  0.2014
  591SOL     OW 2988   0.549   0.863   4.665 -0.2066  0.7817  0.2418
  591SOL    HW1 2989   0.510   0.853   4.752  0.1065  1.8792  0.5241
  591SOL    HW2 2990   0.513   0.791   4.614 -1.0711  0.6312  1.0443
  592SOL     OW 2991   1.274   1.866   5.462 -0.1854 -0.3481 -0.0004
  592SOL    HW1 2992   1.263   1.855   5.368 -0.1648  0.1648 -0.0653
  592SOL    HW2 2993   1.184   1.875   5.495 -0.2053 -0.7734  0.0595
  593SOL     OW 2994   1.804   1.436   5.382 -0.3236 -0.8504  0.5869
  593SOL    HW1 2995   1.850   1.353   5.390  0.9438 -0.2350 -0.1270
  593SOL    HW2 2996   1.803   1.471   5.471 -1.6355 -1.9888  1.0656
  594SOL     OW 2997   0.549   0.784   5.423  0.4107 -0.2161  0.5599
  594SOL    HW1 2998   0.632   0.757   5.383  1.3562  1.8458  0.9946
  594SOL    HW2 2999   0.546   0.737   5.506 -0.2289 -2.4118 -0.6428
  595SOL     OW 3000   1.570   0.253   4.067  0.2340  0.1382 -0.3341
  595SOL    HW1 3001   1.628   0.180   4.089  0.8184  0.9670  0.9734
  595SOL    HW2 3002   1.566   0.253   3.971  2.6396  0.2359 -0.4972
  596SOL     OW 3003   1.585   0.846   3.987  0.0465 -0.1514  0.2952
  596SOL    HW1 3004   1.654   0.811   3.931  1.3462 -0.3961  1.9575
  596SOL    HW2 3005   1.631   0.871   4.068 -1.8213 -0.3690  1.4733
  597SOL     OW 3006   1.150   0.890   4.512 -0.0758  0.2033 -0.0426
  597SOL    HW1 3007   1.131   0.932   4.428 -0.2796 -0.3075 -0.2550
  597SOL    HW2 3008   1.211   0.950   4.556 -0.2529  0.6477 -0.4002
  598SOL     OW 3009   8.779   0.729   4.486  0.1783  0.1548 -0.7878
  598SOL    HW1 3010   8.701   0.688   4.524  0.2595 -0.5854 -1.3946
  598SOL    HW2 3011   8.813   0.663   4.425  2.2088 -0.2024  0.6338
  599SOL     OW 3012   0.177   0.818   4.431 -0.2201 -0.3196  0.1778
  599SOL    HW1 3013   0.081   0.813   4.433 -0.1605 -1.5577  0.6846
  599SOL    HW2 3014   0.205   0.730   4.407  0.8231 -0.3366  1.3592
  600SOL     OW 3015   1.081   0.651   4.594  0.2419 -0.4503 -0.0086
  600SOL    HW1 3016   1.151   0.597   4.558  0.7302  0.6089 -0.6885
  600SOL    HW2 3017   1.096   0.738   4.557 -0.3248  0.2405  1.3187
  601SOL     OW 3018   0.982   0.394   4.692  0.3449  0.0715  0.2057
  601SOL    HW1 3019   1.016   0.479   4.662  1.9873 -0.4141  0.5792
  601SOL    HW2 3020   1.003   0.334   4.621  1.1829 -0.4281  0.8609
  602SOL     OW 3021   0.066   1.226   3.979 -0.1894  0.0216  0.2540
  602SOL    HW1 3022   0.120   1.197   4.052  1.8528 -1.1901 -1.6266
  602SOL    HW2 3023   0.054   1.148   3.926 -2.9014  0.5223 -0.0266
  603SOL     OW 3024   8.773   1.368   5.007  0.3395  0.1673 -0.4393
  603SOL    HW1 3025   8.692   1.369   4.956 -0.1499 -1.8218  0.1946
  603SOL    HW2 3026   8.824   1.295   4.971 -0.6644 -2.3271  2.6725
  604SOL     OW 3027   0.388   1.704   4.485  0.8913 -0.2544  0.0582
  604SOL    HW1 3028   0.427   1.777   4.533  1.9792 -0.4467 -0.5003
  604SOL    HW2 3029   0.416   1.718   4.394 -1.5042  0.3595 -0.6509
  605SOL     OW 3030   0.450   0.750   4.869  0.0632  0.7661  0.0946
  605SOL    HW1 3031   0.357   0.759   4.888 -0.2328  1.7868 -1.5801
  605SOL    HW2 3032   0.484   0.693   4.938 -2.0815 -0.8991 -0.1441
  606SOL     OW 3033   8.765   0.158   4.837 -0.0289  0.1472 -0.3807
  606SOL    HW1 3034   8.743   0.091   4.772 -2.0880 -0.8386  1.2385
  606SOL    HW2 3035   8.842   0.123   4.883  1.4527  0.8541 -2.1686
  607SOL     OW 3036   0.044   8.821   5.458  0.3894  0.0800 -0.5361
  607SOL    HW1 3037   0.048   8.880   5.533 -0.4790 -0.3427 -0.1473
  607SOL    HW2 3038   0.126   8.837   5.411  0.6602  0.8008  0.1560
  608SOL     OW 3039   1.519   0.858   5.206  0.5398 -0.0787  0.0847
  608SOL    HW1 3040   1.575   0.867   5.129 -0.3693  0.0517 -0.5739
  608SOL    HW2 3041   1.560   0.788   5.257  1.4309  0.1764 -0.2583
  609SOL     OW 3042   0.512   0.273   4.114 -0.3257  0.6479  0.5881
  609SOL    HW1 3043   0.440   0.234   4.163 -0.9785  0.2786 -0.6060
  609SOL    HW2 3044   0.586   0.215   4.129 -0.4493  0.6839  1.3362
  610SOL     OW 3045   1.405   0.464   4.909 -0.2415 -0.1094  0.4839
  610SOL    HW1 3046   1.320   0.420   4.918  0.3410 -0.9228  2.4428
  610SOL    HW2 3047   1.382   0.556   4.891 -1.5373 -0.3107  0.9771
  611SOL     OW 3048   0.361   1.511   5.606  0.1387 -0.2534  0.4148
  611SOL    HW1 3049   0.350   1.494   5.700 -1.9858 -1.5452  0.0017
  611SOL    HW2 3050   0.410   1.435   5.574  0.0813 -0.2514  0.3226
  612SOL     OW 3051   0.067   0.517   5.073  0.1611 -0.4461 -0.5652
  612SOL    HW1 3052   0.142   0.513   5.133 -0.2507 -1.1157 -0.0802
  612SOL    HW2 3053   0.096   0.472   4.994  1.0423  1.2733 -1.2776
  613SOL     OW 3054   0.880   1.961   5.351  0.3611 -0.1030 -0.1141
  613SOL    HW1 3055   0.820   1.909   5.403 -1.2338  1.3090 -0.4498
  613SOL    HW2 3056   0.954   1.980   5.409 -1.4922  1.6740  1.8199
  614SOL     OW 3057   0.043   0.010   3.938  0.7369 -0.6382  0.3081
  614SOL    HW1 3058   0.037   0.099   3.974  0.3424 -0.9831  1.1111
  614SOL    HW2 3059  -0.047  -0.012   3.913  0.6231 -1.2493  1.2052
  615SOL     OW 3060   0.504   1.335   5.190  0.3105 -0.3349  0.0482
  615SOL    HW1 3061   0.516   1.403   5.257 -1.5849  0.1937 -0.0924
  615SOL    HW2 3062   0.422   1.292   5.214 -0.6583  0.1514 -2.1316
  616SOL     OW 3063   1.729   1.251   4.818  0.4439 -0.3030  0.2974
  616SOL    HW1 3064   1.775   1.211   4.744  0.4910  0.4624 -0.0924
  616SOL    HW2 3065   1.660   1.304   4.778 -0.4112 -0.9714  0.8574
  617SOL     OW 3066   1.617   1.004   4.254  0.3219 -0.0348 -0.4099
  617SOL    HW1 3067   1.527   0.972   4.257  0.2920  0.0205 -0.7209
  617SOL    HW2 3068   1.651   0.990   4.343 -0.3257  0.8818  0.0009
  618SOL     OW 3069   2.272   1.728   4.859  0.3495  0.6308  0.2332
  618SOL    HW1 3070   2.217   1.706   4.784 -0.7159  1.1310  0.8316
  618SOL    HW2 3071   2.338   1.787   4.824 -1.2643  2.4009 -0.0239
  619SOL     OW 3072   1.558   1.758   4.619 -0.0472 -0.7686 -0.0734
  619SOL    HW1 3073   1.512   1.761   4.703  1.1219  1.1060  0.5649
  619SOL    HW2 3074   1.542   1.669   4.586 -1.6819 -1.0987  1.4507
  620SOL     OW 3075   0.286   1.177   5.247  0.4885  0.2274  0.6785
  620SOL    HW1 3076   0.323   1.092   5.270  0.5625 -0.1127 -0.5932
  620SOL    HW2 3077   0.192   1.168   5.264  0.2791 -0.6100 -0.7516
  621SOL     OW 3078   1.037   2.259   5.629  0.1922  0.8774  0.8792
  621SOL    HW1 3079   1.030   2.176   5.675 -2.0873  0.5786  0.1273
  621SOL    HW2 3080   1.082   2.238   5.548  2.6075  1.0688  2.0921
  622SOL     OW 3081   1.714   0.092   3.862 -0.3254  0.2368 -0.3455
  622SOL    HW1 3082   1.748   0.004   3.879  0.8834  0.8109  0.3851
  622SOL    HW2 3083   1.790   0.142   3.832 -1.4267  0.5164 -2.9616
  623SOL     OW 3084   1.784   1.903   4.026 -0.1106  0.0184  0.1563
  623SOL    HW1 3085   1.726   1.859   4.089  0.9601 -1.4689  0.1584
  623SOL    HW2 3086   1.865   1.852   4.029  0.9302  1.5835 -0.4226
  624SOL     OW 3087   8.835   1.613   5.678  0.1018  0.3616 -0.8510
  624SOL    HW1 3088   8.761   1.646   5.728 -0.1563 -1.6365  0.2223
  624SOL    HW2 3089   8.910   1.623   5.737  0.3688  0.8022 -1.2628
  625SOL     OW 3090   1.404   0.894   4.356 -0.4577 -0.2701 -0.2502
  625SOL    HW1 3091   1.351   0.974   4.357  0.2307  0.2157  1.8391
  625SOL    HW2 3092   1.398   0.860   4.445  2.7849 -0.1426  0.1121
  626SOL     OW 3093   0.965   1.422   5.017  0.5257 -0.2022 -0.2869
  626SOL    HW1 3094   0.921   1.337   5.019  0.3865 -0.1278 -0.2287
  626SOL    HW2 3095   0.895   1.485   4.999  0.4192  0.0438  0.9041
  627SOL     OW 3096   1.003   1.964   3.796  0.2861  0.3294  0.3998
  627SOL    HW1 3097   1.068   1.952   3.726 -1.3490 -0.6712 -1.0324
  627SOL    HW2 3098   1.009   2.057   3.819  1.8399  0.3731 -0.0644
  628SOL     OW 3099   1.636   1.549   4.865 -0.3298 -0.2193  0.2810
  628SOL    HW1 3100   1.661   1.636   4.899  1.2568 -0.9365  1.0798
  628SOL    HW2 3101   1.697   1.534   4.793 -1.7041  0.0084 -0.9574
  629SOL     OW 3102   1.895   8.509   4.891 -0.1802  0.6621  0.4970
  629SOL    HW1 3103   1.823   8.481   4.835  0.1022  0.4878  0.2198
  629SOL    HW2 3104   1.852   8.549   4.967 -0.5679  1.2892 -0.0370
  630SOL     OW 3105   0.326   0.203   4.318  0.1561  0.6127  0.3748
  630SOL    HW1 3106   0.362   0.147   4.387 -0.6351  0.7270  0.9045
  630SOL    HW2 3107   0.240   0.165   4.300  0.0607  1.0161 -0.0391
  631SOL     OW 3108   1.564   1.638   3.474 -0.5657  0.3030  0.0201
  631SOL    HW1 3109   1.545   1.584   3.551 -4.3283 -0.3990 -1.1983
  631SOL    HW2 3110   1.633   1.590   3.429 -1.8694 -2.1269  0.3939
  632SOL     OW 3111   0.885   1.138   5.266 -0.7015 -0.0442  0.2187
  632SOL    HW1 3112   0.838   1.134   5.183  0.1478 -0.7195 -0.2489
  632SOL    HW2 3113   0.934   1.056   5.270  0.3497  0.5808  0.7272
  633SOL     OW 3114   1.311   0.821   4.089  0.0402 -0.3080 -0.5656
  633SOL    HW1 3115   1.336   0.842   4.179 -0.3224 -0.7209 -0.3658
  633SOL    HW2 3116   1.388   0.843   4.037  0.6052 -0.9915 -0.0338
  634SOL     OW 3117   1.478   1.901   3.689 -0.1373  0.1854 -0.0755
  634SOL    HW1 3118   1.460   1.818   3.732  3.0069  0.0727  1.3490
  634SOL    HW2 3119   1.399   1.921   3.640 -2.0590 -2.2037  1.8086
  635SOL     OW 3120   0.536   1.337   5.482 -0.1515 -0.2994  0.3649
  635SOL    HW1 3121   0.538   1.242   5.479  1.0125 -0.3138 -3.0437
  635SOL    HW2 3122   0.627   1.364   5.473 -0.5751  1.1011 -0.0670
  636SOL     OW 3123   1.686   1.345   4.488 -0.0026  0.0928 -0.5388
  636SOL    HW1 3124   1.603   1.356   4.534  1.1194 -0.8091  1.8793
  636SOL    HW2 3125   1.707   1.252   4.498  1.5349  0.3909 -0.6372
  637SOL     OW 3126   1.263   1.123   4.343 -0.4395 -0.4773 -0.7433
  637SOL    HW1 3127   1.291   1.192   4.283 -0.2233  0.1523  0.0609
  637SOL    HW2 3128   1.184   1.158   4.386  1.7574  1.0103  2.5053
  638SOL     OW 3129   0.733   0.651   4.731  0.0540 -0.0188 -0.3083
  638SOL    HW1 3130   0.756   0.740   4.707 -2.2256  0.4558 -0.9051
  638SOL    HW2 3131   0.733   0.603   4.649 -0.6165 -0.0981 -0.2695
  639SOL     OW 3132   0.752   1.414   4.022  0.7126 -0.0816  0.5021
  639SOL    HW1 3133   0.672   1.443   3.977  2.1117  1.9508 -0.8520
  639SOL    HW2 3134   0.770   1.328   3.986 -0.3368 -0.1462  0.0839
  640SOL     OW 3135   1.648   0.012   5.206  0.1932 -0.1972 -0.1363
  640SOL    HW1 3136   1.695  -0.062   5.168  2.6274  0.0042  2.2003
  640SOL    HW2 3137   1.623   0.065   5.130  0.4772 -2.1938 -1.7169
  641SOL     OW 3138   0.525   1.164   4.454  0.6799  0.3636  0.3275
  641SOL    HW1 3139   0.465   1.090   4.441  2.1342 -0.6002 -1.4016
  641SOL    HW2 3140   0.600   1.125   4.499  0.4752  1.3464  1.5700
  642SOL     OW 3141   0.018   1.104   5.243  0.0983  0.4283  0.0673
  642SOL    HW1 3142   0.027   1.009   5.253 -0.3574  0.4205  0.4542
  642SOL    HW2 3143  -0.013   1.133   5.329 -0.2624  0.8617 -0.2127
  643SOL     OW 3144   0.851   0.515   5.080  0.4134  0.0657 -0.0532
  643SOL    HW1 3145   0.851   0.431   5.035  0.7619 -0.3036  0.6238
  643SOL    HW2 3146   0.939   0.551   5.065  0.3579  0.1806 -0.1058
  644SOL     OW 3147   8.809   0.158   3.637  0.1303 -0.0148  0.0477
  644SOL    HW1 3148   8.807   0.070   3.597  0.0031  0.5626 -1.2656
  644SOL    HW2 3149   8.840   0.215   3.567 -2.5274  1.4557 -0.0447
  645SOL     OW 3150   1.360   0.840   4.870 -1.0519 -0.7439 -0.1198
  645SOL    HW1 3151   1.265   0.832   4.874 -1.2244  1.1880  0.6725
  645SOL    HW2 3152   1.379   0.928   4.904  1.1513 -1.7941  1.6414
  646SOL     OW 3153   8.633   0.272   3.823 -0.4649 -0.1285  0.3164
  646SOL    HW1 3154   8.542   0.246   3.812 -0.4740 -0.9520  1.9935
  646SOL    HW2 3155   8.679   0.232   3.749 -1.4025  0.0248 -0.3599
  647SOL     OW 3156   1.201   1.424   3.801 -0.5394 -0.0961 -0.0281
  647SOL    HW1 3157   1.107   1.435   3.816 -0.1780  1.7286  1.3525
  647SOL    HW2 3158   1.228   1.359   3.865 -1.1954 -2.5873 -2.1064
  648SOL     OW 3159   0.573   0.602   5.098  0.1057 -0.4258  0.1512
  648SOL    HW1 3160   0.532   0.541   5.159 -0.9345  1.8300  1.8597
  648SOL    HW2 3161   0.667   0.596   5.116 -0.0615 -0.9198  0.8770
  649SOL     OW 3162   2.130   1.704   4.621  0.6329 -0.3287 -0.4627
  649SOL    HW1 3163   2.172   1.706   4.535 -1.3019  0.0750 -1.4582
  649SOL    HW2 3164   2.056   1.764   4.613 -0.5421 -1.5015  0.9623
  650SOL     OW 3165   1.126   0.661   5.707  0.1237 -0.6814 -0.0895
  650SOL    HW1 3166   1.190   0.711   5.656  0.3154 -2.1879 -1.4141
  650SOL    HW2 3167   1.095   0.593   5.647 -1.4311 -1.0671  1.0846
  651SOL     OW 3168   1.397   1.059   5.397  0.3142 -0.7883 -0.0269
  651SOL    HW1 3169   1.433   1.004   5.328  1.6316 -0.8965  0.7054
  651SOL    HW2 3170   1.385   1.145   5.356  2.1109 -0.5543 -0.1478
  652SOL     OW 3171   0.118   1.788   5.091 -0.2556  0.3483 -0.0416
  652SOL    HW1 3172   0.146   1.697   5.084 -0.9255  0.0474  0.9385
  652SOL    HW2 3173   0.039   1.785   5.146 -0.1662  1.5344  0.1831
  653SOL     OW 3174   1.652   1.326   5.203 -0.4065  0.0519 -0.4699
  653SOL    HW1 3175   1.691   1.386   5.266  0.0891 -1.0560  0.3081
  653SOL    HW2 3176   1.703   1.339   5.123 -0.4724  0.8414 -0.3885
  654SOL     OW 3177   1.172   0.255   4.199  0.1914 -0.4260 -0.4646
  654SOL    HW1 3178   1.201   0.169   4.168  1.5623 -0.3900  0.6331
  654SOL    HW2 3179   1.252   0.307   4.203 -0.8972  1.9369 -3.9962
  655SOL     OW 3180   8.681   0.494   4.020 -0.0475 -0.6943  0.3875
  655SOL    HW1 3181   8.699   0.416   3.966 -0.0153  0.2185 -0.9581
  655SOL    HW2 3182   8.586   0.492   4.034 -0.3591  0.1270 -1.4259
  656SOL     OW 3183   1.606   0.245   5.725 -0.4299 -0.4957  0.3148
  656SOL    HW1 3184   1.609   0.212   5.635  0.9073 -1.3257  0.6272
  656SOL    HW2 3185   1.695   0.232   5.758 -0.2117  2.0814  0.9821
  657SOL     OW 3186   1.854   1.095   5.234 -0.1577  0.3140  0.2490
  657SOL    HW1 3187   1.865   1.051   5.150 -1.5360 -0.6155  0.5113
  657SOL    HW2 3188   1.772   1.143   5.226  0.1852  1.0024  0.7443
  658SOL     OW 3189   0.957   1.549   3.822  0.5947  0.1499 -0.0817
  658SOL    HW1 3190   0.968   1.544   3.727  1.7421  0.1432  0.0291
  658SOL    HW2 3191   0.880   1.496   3.841 -1.0170  1.9947 -1.2156
  659SOL     OW 3192   0.611   1.708   4.896  0.1886  0.6116 -0.1451
  659SOL    HW1 3193   0.548   1.645   4.933  0.2955  0.0723 -0.8622
  659SOL    HW2 3194   0.629   1.768   4.968  1.2171 -1.0365  1.0606
  660SOL     OW 3195   0.577   0.797   4.151 -0.4064  0.3401 -0.1903
  660SOL    HW1 3196   0.564   0.703   4.162 -0.7290  0.4914  0.7279
  660SOL    HW2 3197   0.647   0.803   4.085  0.5348 -0.5552  0.6788
  661SOL     OW 3198   1.532   0.486   3.766 -0.3380 -0.3324  0.4171
  661SOL    HW1 3199   1.579   0.525   3.839 -0.5817  0.6870  0.0534
  661SOL    HW2 3200   1.443   0.470   3.799 -0.5081  0.3252  0.2927
  662SOL     OW 3201   1.779   1.572   4.417 -0.1835  0.3223  0.8746
  662SOL    HW1 3202   1.710   1.638   4.429 -0.1935  0.1990  1.5418
  662SOL    HW2 3203   1.737   1.489   4.439 -0.1392  0.1016  0.1438
  663SOL     OW 3204   0.738   1.734   5.465 -0.2040  0.0358  0.3259
  663SOL    HW1 3205   0.687   1.674   5.411 -1.9304  0.3899  1.4697
  663SOL    HW2 3206   0.777   1.679   5.533 -1.1442  0.0743  0.9131
  664SOL     OW 3207   0.010   1.156   4.423  0.0687 -0.0573  0.2821
  664SOL    HW1 3208   0.063   1.123   4.496 -0.5521 -1.0794  0.2839
  664SOL    HW2 3209  -0.060   1.092   4.414 -0.9113  1.0389 -0.0196
  665SOL     OW 3210   0.805   1.303   5.460 -0.2827  0.4423  0.4234
  665SOL    HW1 3211   0.832   1.251   5.385 -0.1313  1.0754  0.0353
  665SOL    HW2 3212   0.873   1.288   5.526  0.1153  0.6821  0.0667
  666SOL     OW 3213   1.935   0.228   5.013  0.3070 -0.3201 -0.2163
  666SOL    HW1 3214   1.904   0.249   5.101 -2.3091  1.1553 -1.3609
  666SOL    HW2 3215   1.909   0.137   4.999 -1.0529  0.0189 -0.0894
  667SOL     OW 3216   0.196   0.167   4.578  0.5171  0.6393  0.1329
  667SOL    HW1 3217   0.246   0.093   4.612  0.4651  0.4110 -0.2832
  667SOL    HW2 3218   0.146   0.130   4.505 -1.0697  0.5962  1.1770
  668SOL     OW 3219   1.862   1.567   4.701  0.2816  0.1910 -0.1058
  668SOL    HW1 3220   1.875   1.538   4.611  0.9719 -0.3368  0.1522
  668SOL    HW2 3221   1.942   1.539   4.747 -0.3575 -0.1680  0.8269
  669SOL     OW 3222   0.237   0.209   5.348 -0.0912  0.4537 -0.3551
  669SOL    HW1 3223   0.164   0.252   5.304 -0.5839 -0.7644 -0.7584
  669SOL    HW2 3224   0.261   0.136   5.291  0.0397 -0.4389  0.8148
  670SOL     OW 3225   0.855   1.755   4.105 -0.1735  0.1817  0.2208
  670SOL    HW1 3226   0.930   1.760   4.047  0.6605  0.6431  1.3065
  670SOL    HW2 3227   0.806   1.678   4.075  1.5574 -1.0687  0.4537
  671SOL     OW 3228   1.253   0.447   4.489 -0.4070  0.0401 -0.1056
  671SOL    HW1 3229   1.267   0.357   4.518 -0.3381  0.0882  0.0113
  671SOL    HW2 3230   1.269   0.445   4.395  0.3488  0.0846  0.0181
  672SOL     OW 3231   1.071   0.069   4.738 -0.1633 -0.1278  0.6118
  672SOL    HW1 3232   1.072   0.052   4.832 -1.0643 -1.6823  0.3763
  672SOL    HW2 3233   0.999   0.016   4.705 -0.0204  0.5799 -0.9365
  673SOL     OW 3234   1.099   1.747   3.933  0.0572 -0.2419 -0.1785
  673SOL    HW1 3235   1.087   1.815   3.867  1.5878 -1.4270 -1.7729
  673SOL    HW2 3236   1.067   1.667   3.891  1.1769 -1.0485  0.4506
  674SOL     OW 3237   0.699   1.321   4.990 -0.1508 -0.5867  0.5403
  674SOL    HW1 3238   0.644   1.325   4.912  0.7474  0.3875 -0.0656
  674SOL    HW2 3239   0.638   1.305   5.061 -1.1816  0.1565 -0.1484
  675SOL     OW 3240   1.299   0.191   3.807 -0.2290 -0.3150 -0.0278
  675SOL    HW1 3241   1.262   0.104   3.797 -1.8903  0.3195  0.1700
  675SOL    HW2 3242   1.336   0.212   3.722 -0.5473 -0.9096 -0.3167
  676SOL     OW 3243   0.937   0.213   4.072  0.2250  0.1592  0.7077
  676SOL    HW1 3244   0.996   0.248   4.139  1.5279  0.5964 -0.6173
  676SOL    HW2 3245   0.985   0.225   3.990 -1.3265 -0.3680 -0.3054
  677SOL     OW 3246   1.492   0.577   4.601  0.0417  0.2388 -0.6382
  677SOL    HW1 3247   1.417   0.517   4.597  0.5358 -0.3089 -2.1200
  677SOL    HW2 3248   1.566   0.526   4.568  0.8354  1.1442 -0.3047
  678SOL     OW 3249   0.195   1.188   4.199 -0.3321  0.5530  0.0552
  678SOL    HW1 3250   0.272   1.140   4.228  0.4621  1.4127 -0.5903
  678SOL    HW2 3251   0.134   1.180   4.273  0.7655  0.7339  1.0207
  679SOL     OW 3252   1.316   1.839   4.084  0.0099 -0.5321 -0.4672
  679SOL    HW1 3253   1.349   1.904   4.021 -2.9268  0.2741 -1.3320
  679SOL    HW2 3254   1.248   1.792   4.036 -2.5379  0.2531  2.0897
  680SOL     OW 3255   0.215   0.143   6.091 -0.6956 -0.4690  0.2854
  680SOL    HW1 3256   0.234   0.051   6.111 -0.3942 -0.0994  1.8731
  680SOL    HW2 3257   0.148   0.140   6.023  1.2440 -1.8287 -1.6812
  681SOL     OW 3258   0.390   0.008   6.709  0.3247  0.0440  0.8513
  681SOL    HW1 3259   0.351  -0.019   6.792 -1.0856  0.1229  0.2500
  681SOL    HW2 3260   0.423  -0.073   6.671 -2.3493 -0.6746 -0.1573
  682SOL     OW 3261   0.085   8.670   6.462 -0.0275 -0.1286  0.0533
  682SOL    HW1 3262   0.067   8.730   6.389  0.2673  0.0702  0.1448
  682SOL    HW2 3263  -0.002   8.649   6.497 -0.2254 -0.7991 -0.8105
  683SOL     OW 3264   0.448   1.188   6.853 -0.5256 -0.6610  0.3094
  683SOL    HW1 3265   0.485   1.256   6.909  0.6385  0.2473 -1.4639
  683SOL    HW2 3266   0.508   1.114   6.860  1.5466  0.6323 -2.1773
  684SOL     OW 3267   1.819   1.541   6.100 -0.1733  0.0096 -0.0762
  684SOL    HW1 3268   1.831   1.457   6.144  0.8586  0.5441  0.6980
  684SOL    HW2 3269   1.786   1.518   6.013 -0.7052 -1.1408  0.4092
  685SOL     OW 3270   1.102   0.807   6.146 -0.4921 -0.1923  0.3062
  685SOL    HW1 3271   1.158   0.841   6.217 -1.9403  2.7569  0.1806
  685SOL    HW2 3272   1.160   0.749   6.096  0.9227 -1.4626  3.1346
  686SOL     OW 3273   1.528   0.519   5.792  0.1545 -0.0697  0.0943
  686SOL    HW1 3274   1.516   0.514   5.887 -0.2200 -0.0761  0.0502
  686SOL    HW2 3275   1.534   0.427   5.764  0.1325 -0.0717  0.0962
  687SOL     OW 3276   0.831   0.785   6.168 -0.2643 -0.6860 -0.3721
  687SOL    HW1 3277   0.926   0.794   6.173 -0.1380 -2.1524  0.1502
  687SOL    HW2 3278   0.812   0.701   6.210 -1.5516 -1.5713 -2.5526
  688SOL     OW 3279   0.795   0.900   7.355 -0.4252  0.0409  0.3438
  688SOL    HW1 3280   0.785   0.995   7.366 -0.4178  0.2747 -1.4437
  688SOL    HW2 3281   0.830   0.889   7.267 -1.3372 -1.6824  0.1538
  689SOL     OW 3282   0.667   1.264   6.110  0.1143  0.0042 -0.6471
  689SOL    HW1 3283   0.642   1.175   6.132  2.5508 -0.7702 -0.6617
  689SOL    HW2 3284   0.757   1.271   6.141 -0.9631  3.5420  2.3739
  690SOL     OW 3285   0.578   1.316   7.614  0.1583 -0.1203  0.0084
  690SOL    HW1 3286   0.522   1.250   7.575  3.2736 -2.3590 -1.0732
  690SOL    HW2 3287   0.519   1.370   7.667 -2.6225 -3.6939  0.9111
  691SOL     OW 3288   0.194   1.139   6.827  0.0825  0.1397 -0.2795
  691SOL    HW1 3289   0.171   1.135   6.734  1.3307  0.5397 -0.6293
  691SOL    HW2 3290   0.279   1.182   6.829 -0.6319  1.5839  1.1934
  692SOL     OW 3291   1.426   1.548   6.593  0.0021  0.2554  0.4797
  692SOL    HW1 3292   1.333   1.536   6.612 -0.1133 -1.3471 -0.8080
  692SOL    HW2 3293   1.472   1.510   6.668 -0.3902  0.5329  0.8578
  693SOL     OW 3294   0.657   0.262   6.842  0.3231  0.5613  0.0337
  693SOL    HW1 3295   0.614   0.225   6.919 -0.0218 -0.5972 -0.6919
  693SOL    HW2 3296   0.588   0.309   6.796  0.2445  0.2290 -0.1915
  694SOL     OW 3297   1.551   0.672   6.162 -0.0720 -0.3167 -0.4064
  694SOL    HW1 3298   1.526   0.587   6.126 -1.0117 -0.1039 -0.2909
  694SOL    HW2 3299   1.494   0.735   6.118 -1.5142 -0.0817  1.6359
  695SOL     OW 3300   0.625   1.655   6.039 -0.0259 -0.0513 -0.1551
  695SOL    HW1 3301   0.718   1.671   6.052  0.0919  0.4517 -1.5053
  695SOL    HW2 3302   0.586   1.673   6.125  1.0311  0.3335  0.2642
  696SOL     OW 3303   1.261   1.398   7.311 -0.5537 -0.5466  0.3101
  696SOL    HW1 3304   1.317   1.470   7.337 -0.5672 -0.0978 -0.8699
  696SOL    HW2 3305   1.249   1.347   7.391  0.9502 -0.2662  0.7335
  697SOL     OW 3306   0.885   1.769   6.159  0.0816  0.2005 -0.2023
  697SOL    HW1 3307   0.898   1.776   6.253 -2.1349  0.3234  0.1301
  697SOL    HW2 3308   0.856   1.856   6.131 -0.7733 -0.2478 -0.7397
  698SOL     OW 3309   0.294   0.945   6.624 -0.7891 -0.0742 -0.1801
  698SOL    HW1 3310   0.375   0.943   6.675  0.7871  1.5597 -2.4297
  698SOL    HW2 3311   0.283   0.854   6.594  0.9085 -0.1328 -0.7587
  699SOL     OW 3312   0.504   1.510   6.825 -0.2290 -0.5278 -0.4460
  699SOL    HW1 3313   0.413   1.536   6.840 -0.2880 -0.3332 -1.1282
  699SOL    HW2 3314   0.553   1.558   6.891 -0.7218 -1.3910  0.5764
  700SOL     OW 3315   0.798   0.757   5.304 -0.2762 -0.1695 -0.7277
  700SOL    HW1 3316   0.837   0.670   5.307  2.3627  0.8641 -1.5772
  700SOL    HW2 3317   0.874   0.817   5.302 -1.9758  2.1466 -0.1799
  701SOL     OW 3318   1.227   0.020   6.902  0.4898  0.1471 -0.4964
  701SOL    HW1 3319   1.253  -0.048   6.841 -2.4191  0.4574 -2.2449
  701SOL    HW2 3320   1.301   0.028   6.962  1.1455 -4.2153 -0.4166
  702SOL     OW 3321   0.206   0.387   6.402 -0.2942 -0.0460 -0.2315
  702SOL    HW1 3322   0.136   0.351   6.346 -0.4006  0.2386 -0.2839
  702SOL    HW2 3323   0.220   0.320   6.469 -0.0607 -0.4579 -0.6885
  703SOL     OW 3324   2.213   1.532   5.590  0.4455 -0.5255 -0.1307
  703SOL    HW1 3325   2.249   1.444   5.574 -0.8947 -1.1832  0.3492
  703SOL    HW2 3326   2.168   1.524   5.674  1.1463  0.9080  0.4107
  704SOL     OW 3327   0.446   1.464   5.874  0.7991 -0.1541 -0.0649
  704SOL    HW1 3328   0.529   1.455   5.828  0.9740 -0.9738  0.3773
  704SOL    HW2 3329   0.468   1.515   5.952  0.7577  0.1733 -0.2677
  705SOL     OW 3330   1.872   1.048   6.395 -0.2345  0.2761 -0.0977
  705SOL    HW1 3331   1.965   1.039   6.374 -0.2980 -0.2052 -0.1883
  705SOL    HW2 3332   1.827   1.026   6.314 -0.4055  2.1163 -0.5489
  706SOL     OW 3333   1.524   1.299   6.345  0.1367  0.1617  0.3756
  706SOL    HW1 3334   1.551   1.275   6.257 -0.5730  0.4224  0.0776
  706SOL    HW2 3335   1.478   1.382   6.335  0.9739  0.7440  1.1456
  707SOL     OW 3336   0.093   0.622   7.332 -0.2423 -0.3098  0.3261
  707SOL    HW1 3337   0.092   0.640   7.426  0.4122 -2.1243  0.7181
  707SOL    HW2 3338   0.171   0.667   7.299 -0.8476  0.9140  0.4827
  708SOL     OW 3339   0.569   1.034   6.581 -0.3719 -0.7377  0.8869
  708SOL    HW1 3340   0.571   1.121   6.620  0.8261 -0.5997  0.5572
  708SOL    HW2 3341   0.602   1.046   6.492  0.7564 -1.6492  1.1415
  709SOL     OW 3342   1.348   1.276   6.829 -0.1811 -0.2485  0.4235
  709SOL    HW1 3343   1.312   1.203   6.880 -0.6911 -1.2430 -1.2924
  709SOL    HW2 3344   1.361   1.240   6.741  0.6460  1.4169 -0.1698
  710SOL     OW 3345   1.344   8.746   6.030 -0.1242  0.3406 -0.2265
  710SOL    HW1 3346   1.365   8.654   6.013 -0.0739  0.5368 -1.3159
  710SOL    HW2 3347   1.383   8.793   5.956  1.0501  1.4038  1.0149
  711SOL     OW 3348   0.536   1.028   7.197 -0.3137  0.2013  0.0072
  711SOL    HW1 3349   0.452   0.981   7.194 -0.8226  1.1398 -0.5779
  711SOL    HW2 3350   0.561   1.025   7.290 -0.7851 -0.4283  0.1239
  712SOL     OW 3351   1.308   1.309   5.645  0.2274 -0.0831 -0.3195
  712SOL    HW1 3352   1.317   1.227   5.597 -1.3354 -0.6484  0.2724
  712SOL    HW2 3353   1.247   1.361   5.592  0.3862  0.2729 -0.1600
  713SOL     OW 3354   1.593   1.801   7.155 -0.0749 -0.1583  0.5395
  713SOL    HW1 3355   1.604   1.889   7.119  0.2219 -0.4730 -0.1617
  713SOL    HW2 3356   1.526   1.811   7.223 -0.8766  0.4130 -0.3033
  714SOL     OW 3357   0.387   8.738   7.470 -0.1991 -0.1231 -0.5989
  714SOL    HW1 3358   0.347   8.764   7.553 -0.1308 -1.4486 -0.1274
  714SOL    HW2 3359   0.348   8.653   7.450  0.9981 -0.5806 -1.0836
  715SOL     OW 3360   1.726   1.792   6.498 -0.6294 -0.0936  0.4015
  715SOL    HW1 3361   1.815   1.767   6.472 -1.4924 -1.7681 -1.0958
  715SOL    HW2 3362   1.669   1.734   6.449 -2.6172  1.5381  0.6525
  716SOL     OW 3363   1.715   1.804   6.170 -0.3901 -0.4776 -0.1398
  716SOL    HW1 3364   1.674   1.719   6.188 -1.9893 -0.4553 -3.0681
  716SOL    HW2 3365   1.752   1.794   6.082  3.0793  0.6259  1.0431
  717SOL     OW 3366   0.457   0.679   5.968 -0.0365 -0.5523 -0.2131
  717SOL    HW1 3367   0.500   0.648   6.047 -0.0089  0.6771  0.2837
  717SOL    HW2 3368   0.364   0.685   5.991  0.2196  1.8852  0.5045
  718SOL     OW 3369   1.249   0.314   6.026 -0.6899 -0.1496  0.1962
  718SOL    HW1 3370   1.234   0.270   5.943 -1.1925 -0.9927  0.7108
  718SOL    HW2 3371   1.253   0.243   6.090 -0.2900  0.4824  0.8885
  719SOL     OW 3372   1.716   1.387   5.860  0.4491  0.1392 -0.8594
  719SOL    HW1 3373   1.680   1.422   5.778  2.6727  0.5769 -1.7017
  719SOL    HW2 3374   1.804   1.358   5.837  1.4608  1.0565  1.5725
  720SOL     OW 3375   0.676   0.690   7.026  0.7093 -0.1132 -0.2866
  720SOL    HW1 3376   0.658   0.769   6.976  2.1216  0.6904  0.4319
  720SOL    HW2 3377   0.595   0.638   7.018  0.2891  0.7158 -1.9712
  721SOL     OW 3378   1.698   0.504   7.278  0.3654 -0.8237  0.2014
  721SOL    HW1 3379   1.685   0.509   7.183 -0.0906  0.4108  0.3056
  721SOL    HW2 3380   1.612   0.483   7.313 -0.5668  2.8377  0.5724
  722SOL     OW 3381   0.918   0.797   7.109  0.0905  0.3499 -0.2264
  722SOL    HW1 3382   0.957   0.810   7.023  0.8679 -1.5347 -0.2016
  722SOL    HW2 3383   0.841   0.742   7.093  0.1313  0.1450  0.2476
  723SOL     OW 3384   1.337   0.648   6.602  0.0096 -0.0318  0.2790
  723SOL    HW1 3385   1.304   0.562   6.578  1.1781 -0.1687 -0.9220
  723SOL    HW2 3386   1.296   0.666   6.687 -0.7855 -1.4573  0.2303
  724SOL     OW 3387   0.970   0.998   5.921  0.5662  0.2436  0.2895
  724SOL    HW1 3388   1.011   0.950   5.993 -0.0553  1.9123  1.8357
  724SOL    HW2 3389   0.877   0.975   5.928  0.5817 -0.0477 -0.3824
  725SOL     OW 3390   8.848   0.953   6.626 -0.3109  0.0868  0.1874
  725SOL    HW1 3391   8.908   0.913   6.689  0.6937  2.2172  0.6608
  725SOL    HW2 3392   8.849   0.893   6.551  0.6174 -1.0838  1.0929
  726SOL     OW 3393   8.127   1.744   7.348 -0.4466  0.7250  0.0273
  726SOL    HW1 3394   8.096   1.834   7.339  0.0289  1.0366  1.3033
  726SOL    HW2 3395   8.205   1.750   7.403 -0.0119 -0.4050 -0.4170
  727SOL     OW 3396   1.068   0.216   5.756 -0.0678  0.2817  0.5339
  727SOL    HW1 3397   1.068   0.305   5.722 -0.4549 -0.5515 -1.8604
  727SOL    HW2 3398   1.140   0.172   5.711 -0.0667 -0.6947  1.4347
  728SOL     OW 3399   2.139   0.517   7.277 -0.1720  0.6218 -0.6337
  728SOL    HW1 3400   2.181   0.593   7.238  1.6515  0.4110  0.8052
  728SOL    HW2 3401   2.184   0.442   7.238  0.0816  0.3701  0.1188
  729SOL     OW 3402   0.948   1.270   6.176  0.1107  0.2024 -0.8097
  729SOL    HW1 3403   1.043   1.260   6.171  0.2630  0.9972  0.2006
  729SOL    HW2 3404   0.928   1.261   6.269 -0.7612  0.4435 -0.9658
  730SOL     OW 3405   0.715   8.846   6.687  0.4016 -0.3028 -0.3910
  730SOL    HW1 3406   0.776   8.790   6.735  0.9461  0.9485  0.4543
  730SOL    HW2 3407   0.686   8.910   6.753 -0.7963 -0.0740 -1.1223
  731SOL     OW 3408   0.876   1.576   5.680 -0.4753 -0.3954 -0.9114
  731SOL    HW1 3409   0.916   1.615   5.758 -1.7025  1.0861 -0.9792
  731SOL    HW2 3410   0.797   1.533   5.713 -1.4550  0.9686 -1.4300
  732SOL     OW 3411   0.264   1.731   6.436 -0.1856  0.2534  0.1113
  732SOL    HW1 3412   0.290   1.647   6.400 -0.4580  0.3151 -0.2330
  732SOL    HW2 3413   0.337   1.757   6.493  0.5933  0.5139 -0.9762
  733SOL     OW 3414   1.891   0.832   6.156  0.0402  0.0369  0.1756
  733SOL    HW1 3415   1.816   0.891   6.160  1.4755  1.9472  0.8455
  733SOL    HW2 3416   1.915   0.830   6.063 -1.1678 -1.1116 -0.1466
  734SOL     OW 3417   1.077   1.778   7.153 -0.5254 -0.4459 -0.6177
  734SOL    HW1 3418   1.094   1.765   7.060 -1.4770  0.6062 -0.9619
  734SOL    HW2 3419   1.034   1.696   7.181  0.6356 -1.1544 -0.8478
  735SOL     OW 3420   0.432   0.619   5.666  0.2460 -0.1630  0.2739
  735SOL    HW1 3421   0.493   0.564   5.615  0.5762 -0.3970  0.9073
  735SOL    HW2 3422   0.381   0.556   5.718 -0.8622 -0.0014 -0.5836
  736SOL     OW 3423   1.748   1.100   6.620  0.1357 -0.6795 -0.1172
  736SOL    HW1 3424   1.784   1.063   6.540  0.1665  1.4445 -1.1580
  736SOL    HW2 3425   1.692   1.172   6.590  2.6642  2.3544  1.7955
  737SOL     OW 3426   0.245   1.566   7.430 -0.1259  0.7162 -0.3986
  737SOL    HW1 3427   0.203   1.483   7.410 -0.0490  0.4153  0.6053
  737SOL    HW2 3428   0.178   1.616   7.478 -0.0229  1.0546 -0.5998
  738SOL     OW 3429   1.344   1.989   5.690  0.0802  0.0198 -0.0935
  738SOL    HW1 3430   1.305   1.954   5.610 -1.7479  1.2619  0.1828
  738SOL    HW2 3431   1.347   2.084   5.676  1.9961  0.0666  0.3877
  739SOL     OW 3432   8.763   0.068   6.631 -0.0204 -0.3756  0.1235
  739SOL    HW1 3433   8.687   0.126   6.627 -1.2785 -1.9626  0.3619
  739SOL    HW2 3434   8.835   0.120   6.594 -0.7117  1.8931  1.7591
  740SOL     OW 3435   1.485   1.715   5.602  0.2967 -0.2023 -0.2890
  740SOL    HW1 3436   1.453   1.776   5.535  0.9127 -0.3254 -0.6996
  740SOL    HW2 3437   1.416   1.715   5.668 -0.4859 -0.3468 -1.0887
  741SOL     OW 3438   0.956   1.936   5.622  0.3307  0.1005 -0.1347
  741SOL    HW1 3439   1.008   1.967   5.696  0.7946  0.0371 -0.4323
  741SOL    HW2 3440   0.887   1.882   5.662  0.7235 -0.1342  0.2335
  742SOL     OW 3441   1.276   0.074   5.607 -0.1861 -0.3908  0.1408
  742SOL    HW1 3442   1.314   0.033   5.529  0.3856 -0.8889  0.6694
  742SOL    HW2 3443   1.220   0.005   5.645  0.4639 -0.5683  0.8116
  743SOL     OW 3444   8.667   1.540   6.839 -0.1112  0.5990 -0.3275
  743SOL    HW1 3445   8.599   1.474   6.828  0.5355 -0.0646 -0.4028
  743SOL    HW2 3446   8.742   1.492   6.874  0.2453  1.3636 -0.0136
  744SOL     OW 3447   1.139   1.912   6.257 -0.0262 -0.5700  0.2586
  744SOL    HW1 3448   1.139   1.861   6.176 -0.0305 -0.0262 -0.0925
  744SOL    HW2 3449   1.179   1.996   6.232 -1.1906  0.0800  0.5078
  745SOL     OW 3450   0.228   0.364   5.729 -0.1230 -0.1280 -0.2986
  745SOL    HW1 3451   0.255   0.284   5.683 -0.7991 -0.0235 -0.8824
  745SOL    HW2 3452   0.288   0.369   5.804  2.1717  0.6011 -2.0472
  746SOL     OW 3453   1.113   8.755   7.297  0.6329 -0.6622 -0.4179
  746SOL    HW1 3454   1.173   8.820   7.333 -0.7856  1.6462 -1.9872
  746SOL    HW2 3455   1.157   8.725   7.217  0.2335  0.1704 -0.9575
  747SOL     OW 3456   0.835   0.060   5.526 -0.3586 -0.0526  0.5344
  747SOL    HW1 3457   0.850  -0.020   5.476  0.2383  0.3521  0.0418
  747SOL    HW2 3458   0.828   0.031   5.617  1.1278 -0.5415  0.5278
  748SOL     OW 3459   0.698   0.233   7.369 -0.5610 -0.4837  0.3980
  748SOL    HW1 3460   0.741   0.234   7.284 -0.2163 -1.1850  0.5597
  748SOL    HW2 3461   0.608   0.204   7.349 -1.0024  1.0066  0.0597
  749SOL     OW 3462   0.697   1.459   6.409 -0.2616  0.2137  0.1728
  749SOL    HW1 3463   0.673   1.504   6.328  0.1613 -0.5508 -0.3872
  749SOL    HW2 3464   0.789   1.480   6.422 -0.0318 -0.5527 -0.1498
  750SOL     OW 3465   0.846   0.611   6.801 -0.5358  0.3999  0.0644
  750SOL    HW1 3466   0.802   0.654   6.728 -1.0759  1.4115  0.9616
  750SOL    HW2 3467   0.909   0.675   6.833  1.4608 -0.9210 -1.0066
  751SOL     OW 3468   0.949   1.531   6.363  0.2249 -0.0389  0.4399
  751SOL    HW1 3469   1.028   1.487   6.395  1.2649  1.7132  0.4004
  751SOL    HW2 3470   0.962   1.540   6.269  0.0202  0.3197  0.4421
  752SOL     OW 3471   1.053   0.407   6.294  0.5327 -0.1715  0.3353
  752SOL    HW1 3472   1.100   0.382   6.215 -0.0094 -1.8891  0.5272
  752SOL    HW2 3473   1.076   0.341   6.358 -0.2967  0.3011  1.1427
  753SOL     OW 3474   0.694   8.625   6.501 -0.2099  0.8031  0.2899
  753SOL    HW1 3475   0.708   8.682   6.576  0.3674 -0.8059  1.4609
  753SOL    HW2 3476   0.599   8.617   6.494 -0.2805  1.3955  0.4795
  754SOL     OW 3477   1.356   1.310   5.311  0.4186 -0.4933  0.3845
  754SOL    HW1 3478   1.432   1.350   5.270 -0.5297  0.6563 -0.2890
  754SOL    HW2 3479   1.289   1.378   5.312 -0.0446 -0.9112  2.6141
  755SOL     OW 3480   0.234   8.547   6.257 -0.5927 -0.1001 -0.8485
  755SOL    HW1 3481   0.221   8.604   6.181 -1.8772  1.7909  0.6833
  755SOL    HW2 3482   0.213   8.603   6.332 -1.1929 -2.4098  0.7993
  756SOL     OW 3483   0.865   0.658   5.771 -0.1067  0.0591 -0.0501
  756SOL    HW1 3484   0.956   0.684   5.755 -0.8702  1.9101 -1.8531
  756SOL    HW2 3485   0.831   0.725   5.830 -0.5041 -0.2519  0.0793
  757SOL     OW 3486   1.012   0.851   6.856 -0.1255  0.0787 -0.0004
  757SOL    HW1 3487   1.003   0.946   6.869  0.1977  0.1235 -0.0975
  757SOL    HW2 3488   1.105   0.838   6.840 -0.4267 -0.0361 -1.7710
  758SOL     OW 3489   1.488   1.970   6.275  0.6003  0.5198 -0.3855
  758SOL    HW1 3490   1.439   1.996   6.197 -0.2889  0.5305  0.1723
  758SOL    HW2 3491   1.541   1.896   6.246 -0.8122 -0.4129 -0.6490
  759SOL     OW 3492   0.273   1.180   6.522  0.4226  0.2045  0.1187
  759SOL    HW1 3493   0.285   1.103   6.577 -1.0287 -1.0845 -1.3168
  759SOL    HW2 3494   0.243   1.147   6.438  0.7927  2.2636 -0.9033
  760SOL     OW 3495   1.220   1.336   6.438 -0.1406 -0.2751 -0.1571
  760SOL    HW1 3496   1.269   1.331   6.520 -0.8096 -2.1709  0.1670
  760SOL    HW2 3497   1.181   1.249   6.428 -1.4943  0.4603 -1.6106
  761SOL     OW 3498   1.319   0.195   5.226  0.3580  0.0334  0.3230
  761SOL    HW1 3499   1.363   0.280   5.227  1.2096 -0.3822 -0.6125
  761SOL    HW2 3500   1.363   0.144   5.294  1.9980 -0.6913 -1.2298
  762SOL     OW 3501   0.442   0.428   6.733  0.2756  0.0647 -0.5649
  762SOL    HW1 3502   0.457   0.430   6.639 -0.9059 -0.2810 -0.7781
  762SOL    HW2 3503   0.347   0.418   6.742  0.4577 -0.8194  0.6407
  763SOL     OW 3504   0.906   0.237   6.564 -0.3558  0.3591 -0.0367
  763SOL    HW1 3505   1.000   0.236   6.544 -0.5186 -0.7314 -0.8379
  763SOL    HW2 3506   0.891   0.159   6.617 -1.0445 -0.3569 -1.2177
  764SOL     OW 3507   0.477   0.169   6.043  0.1292 -0.7393 -0.3583
  764SOL    HW1 3508   0.384   0.168   6.069  0.2824 -1.0263  0.2101
  764SOL    HW2 3509   0.481   0.232   5.971 -0.8856 -2.2427 -1.8167
  765SOL     OW 3510   1.325   0.104   6.209 -0.5813  0.1623  0.0430
  765SOL    HW1 3511   1.419   0.115   6.226 -0.2281  1.2459 -2.2894
  765SOL    HW2 3512   1.319   0.022   6.160 -0.8914  0.0080  0.3329
  766SOL     OW 3513   1.417   1.217   6.583  0.4094  0.2546  0.0628
  766SOL    HW1 3514   1.378   1.134   6.556  1.0653 -0.0501  0.0270
  766SOL    HW2 3515   1.465   1.247   6.506 -0.4409  1.0522 -0.1746
  767SOL     OW 3516   1.498   0.811   6.440 -0.2569 -0.1930 -0.3374
  767SOL    HW1 3517   1.524   0.740   6.381  0.1341 -0.4102  0.0891
  767SOL    HW2 3518   1.444   0.768   6.506 -1.7632  0.2589 -1.2297
  768SOL     OW 3519   1.585   0.939   5.752 -0.6221  0.4921 -0.0343
  768SOL    HW1 3520   1.637   0.863   5.728  0.3938  0.7160  1.3371
  768SOL    HW2 3521   1.560   0.979   5.669 -0.0606 -0.5996 -0.7419
  769SOL     OW 3522   0.669   1.352   5.777 -0.2996 -0.0605 -0.4901
  769SOL    HW1 3523   0.648   1.280   5.717 -0.5534 -0.9613  0.6527
  769SOL    HW2 3524   0.759   1.334   5.805  0.1579  0.8732 -1.2901
  770SOL     OW 3525   2.328   1.480   6.228 -0.0960  0.3952 -0.0010
  770SOL    HW1 3526   2.241   1.446   6.210  0.4503 -0.0945 -1.8944
  770SOL    HW2 3527   2.362   1.509   6.143  1.7320  0.1947  0.5992
  771SOL     OW 3528   1.706   0.722   5.662  0.1311  0.8219  0.2259
  771SOL    HW1 3529   1.634   0.659   5.664  0.1835  0.7787  1.2398
  771SOL    HW2 3530   1.784   0.668   5.673  0.4488  0.7425 -1.8644
  772SOL     OW 3531   0.879   0.272   6.014  0.0602 -0.4777 -0.2664
  772SOL    HW1 3532   0.865   0.352   5.963  1.8777  0.6526  0.8984
  772SOL    HW2 3533   0.824   0.283   6.091  0.7550 -0.0543  0.1773
  773SOL     OW 3534   2.004   1.361   6.688  0.3816  0.1099  0.3986
  773SOL    HW1 3535   2.063   1.372   6.762 -0.8784 -0.5670  1.5631
  773SOL    HW2 3536   1.938   1.430   6.700 -0.2461 -0.4712  0.3439
  774SOL     OW 3537   1.087   1.199   6.942 -0.1441 -0.5668 -0.4237
  774SOL    HW1 3538   0.996   1.213   6.915  0.1532 -0.2149 -1.2969
  774SOL    HW2 3539   1.102   1.264   7.011 -0.5678 -0.6456 -0.2569
  775SOL     OW 3540   1.801   1.659   7.228 -0.3453 -0.5806 -0.4545
  775SOL    HW1 3541   1.861   1.718   7.181  0.5205 -1.9456 -1.1203
  775SOL    HW2 3542   1.716   1.703   7.223  0.5766  1.4369  0.5742
  776SOL     OW 3543   0.941   0.968   6.586  0.4435 -0.0013  0.2462
  776SOL    HW1 3544   0.874   1.035   6.571  0.0051 -0.8998 -2.2773
  776SOL    HW2 3545   0.899   0.906   6.646 -0.3348  0.3481  0.0782
  777SOL     OW 3546   1.696   1.020   6.145 -0.3545 -0.0760  0.1867
  777SOL    HW1 3547   1.673   1.040   6.054 -0.1437 -0.4196  0.0586
  777SOL    HW2 3548   1.692   1.105   6.189  1.6241  0.4589 -0.5892
  778SOL     OW 3549   0.906   8.737   6.871  0.2385 -0.1259 -0.1569
  778SOL    HW1 3550   0.873   8.773   6.953 -2.4462 -1.9010 -0.2940
  778SOL    HW2 3551   1.000   8.753   6.873 -0.1773  2.9204  1.6425
  779SOL     OW 3552   0.704   1.173   7.408  0.3898  0.7119  0.6861
  779SOL    HW1 3553   0.765   1.222   7.353 -0.4770  0.4113 -0.5710
  779SOL    HW2 3554   0.669   1.238   7.469  0.5217  1.2950  0.1500
  780SOL     OW 3555   0.933   1.263   5.883  0.2282  0.5735 -0.2048
  780SOL    HW1 3556   0.917   1.274   5.977 -1.2919 -1.3425 -0.1753
  780SOL    HW2 3557   0.945   1.168   5.872  0.2069  0.7415 -1.9801
  781SOL     OW 3558   0.192   0.177   6.584 -0.1060  0.2288 -0.8591
  781SOL    HW1 3559   0.269   0.121   6.598 -0.1531  0.4726  0.5657
  781SOL    HW2 3560   0.174   0.213   6.671 -1.4514  0.6694 -1.3100
  782SOL     OW 3561   1.317   0.424   6.926 -0.3308 -0.2428 -0.1002
  782SOL    HW1 3562   1.237   0.391   6.885 -0.8979  1.4886 -0.4337
  782SOL    HW2 3563   1.387   0.378   6.880 -1.0740 -0.9973 -0.5242
  783SOL     OW 3564   8.743   1.174   6.952  0.0340 -0.7865  0.3487
  783SOL    HW1 3565   8.825   1.222   6.942 -0.6278  0.1860 -0.6951
  783SOL    HW2 3566   8.754   1.094   6.901 -1.0031  1.1606 -3.2359
  784SOL     OW 3567   0.486   0.973   6.043  0.0203 -0.0732  0.3124
  784SOL    HW1 3568   0.467   0.943   5.955 -1.5006  1.4936  0.0476
  784SOL    HW2 3569   0.416   0.936   6.097 -0.5242  1.0193  0.3825
  785SOL     OW 3570   0.654   0.143   6.450  0.5652 -0.4664 -0.0637
  785SOL    HW1 3571   0.626   0.064   6.497 -0.2584 -0.3034 -0.2795
  785SOL    HW2 3572   0.726   0.177   6.502  1.6443 -1.9351 -0.5105
  786SOL     OW 3573   1.195   1.438   6.005  0.0159 -0.5061 -0.4757
  786SOL    HW1 3574   1.107   1.451   5.970  0.1369  0.8126 -0.3277
  786SOL    HW2 3575   1.187   1.362   6.063 -0.9926 -0.4645 -0.5462
  787SOL     OW 3576   1.072   1.503   7.156 -0.1572  0.0489  0.1985
  787SOL    HW1 3577   1.121   1.526   7.077 -1.0084 -1.6671 -0.8703
  787SOL    HW2 3578   1.126   1.439   7.200  0.3959  1.1274  1.1475
  788SOL     OW 3579   1.380   0.823   6.005  0.0374 -0.6222 -0.3701
  788SOL    HW1 3580   1.415   0.859   5.923  2.2426 -0.2090  0.6530
  788SOL    HW2 3581   1.322   0.753   5.978 -0.6568  0.6062 -2.3185
  789SOL     OW 3582   0.101   1.552   6.665 -0.0845  0.2703  0.0072
  789SOL    HW1 3583   0.185   1.588   6.636  0.0329  0.0775  0.1102
  789SOL    HW2 3584   0.071   1.498   6.591 -0.6847  1.2805 -0.5060
  790SOL     OW 3585   0.347   0.656   7.223 -0.1742  0.0948  0.5031
  790SOL    HW1 3586   0.388   0.742   7.228 -0.0418  0.0393  0.4099
  790SOL    HW2 3587   0.389   0.614   7.147  0.2717 -0.3134  0.9671
  791SOL     OW 3588   1.306   0.941   7.402 -0.3460  0.0520 -0.2747
  791SOL    HW1 3589   1.375   0.905   7.346 -0.0315  0.0017  0.1289
  791SOL    HW2 3590   1.353   1.001   7.460 -0.6802  0.1863 -0.1438
  792SOL     OW 3591   0.895   0.496   7.478 -0.1108 -0.1965 -0.2370
  792SOL    HW1 3592   0.825   0.498   7.412 -0.9467 -0.4246  0.6257
  792SOL    HW2 3593   0.864   0.555   7.547  0.1554 -0.9428  0.5317
  793SOL     OW 3594   0.448   0.129   7.341  0.7307  0.1580  0.4213
  793SOL    HW1 3595   0.428   0.044   7.379 -0.7162  0.1254 -0.3802
  793SOL    HW2 3596   0.370   0.182   7.358  1.2742  1.0675  0.1467
  794SOL     OW 3597   0.650   0.947   6.303  0.2345  0.5379  0.4096
  794SOL    HW1 3598   0.692   0.872   6.260  1.4834  0.3139  1.9220
  794SOL    HW2 3599   0.557   0.938   6.281  0.2305 -1.8521  1.0637
  795SOL     OW 3600   1.335   0.953   6.259 -0.0661  0.2276  0.0727
  795SOL    HW1 3601   1.355   0.910   6.175  1.8248 -1.5543  1.3116
  795SOL    HW2 3602   1.411   0.933   6.314 -0.7490  2.2664  1.8945
  796SOL     OW 3603   1.052   0.972   5.658 -0.3369  0.2867  0.1762
  796SOL    HW1 3604   1.137   0.941   5.625 -0.4273 -0.2487  0.4435
  796SOL    HW2 3605   1.064   0.979   5.753 -0.6878 -0.1113  0.2539
  797SOL     OW 3606   0.307   8.723   6.971 -0.0951 -0.3377  0.2483
  797SOL    HW1 3607   0.219   8.713   6.935  0.0913 -0.4874 -0.1775
  797SOL    HW2 3608   0.333   8.634   6.997  0.6479 -0.6296 -1.3607
  798SOL     OW 3609   8.810   0.572   7.116  1.0462 -0.0779 -0.0297
  798SOL    HW1 3610   8.862   0.596   7.193 -0.3332  1.3309  0.5255
  798SOL    HW2 3611   8.803   0.477   7.120  1.5311 -0.0786  1.2348
  799SOL     OW 3612   0.529   0.416   6.471  0.3780  0.1017  0.1491
  799SOL    HW1 3613   0.522   0.322   6.450  0.8056  0.0195  0.3655
  799SOL    HW2 3614   0.619   0.426   6.503  0.4603  0.6585 -0.2425
  800SOL     OW 3615   1.899   0.396   7.437 -0.6082  0.3266 -0.1017
  800SOL    HW1 3616   1.823   0.434   7.392 -0.2481  0.3580 -0.6871
  800SOL    HW2 3617   1.974   0.443   7.402 -0.2302 -0.3313 -0.1952
  801SOL     OW 3618   0.213   8.693   6.052 -0.3223  0.0411  0.2854
  801SOL    HW1 3619   0.126   8.693   6.011 -0.6053  1.1698  0.8610
  801SOL    HW2 3620   0.274   8.703   5.979 -0.5352 -2.2716 -0.3157
  802SOL     OW 3621   1.779   0.580   6.284 -0.6400  0.1739  0.5519
  802SOL    HW1 3622   1.847   0.645   6.269 -0.5460 -0.1175 -0.3367
  802SOL    HW2 3623   1.705   0.609   6.232 -1.1647  0.4321  1.4361
  803SOL     OW 3624   0.776   0.464   6.568  0.4414  0.4484  0.3976
  803SOL    HW1 3625   0.782   0.488   6.661 -0.8348  1.0029  0.3514
  803SOL    HW2 3626   0.816   0.377   6.564 -0.5726 -0.1157  1.7007
  804SOL     OW 3627   0.919   1.590   7.476  0.3573  1.2563  0.1121
  804SOL    HW1 3628   0.905   1.546   7.392 -0.5266  2.2015 -0.2468
  804SOL    HW2 3629   0.891   1.525   7.541  0.1465  0.8629 -0.3595
  805SOL     OW 3630   2.128   1.560   7.006 -0.6465  0.1983  0.4193
  805SOL    HW1 3631   2.071   1.635   6.988  1.6958  2.1716  0.5133
  805SOL    HW2 3632   2.170   1.541   6.922 -2.1106 -1.9005  0.1068
  806SOL     OW 3633   0.691   0.627   7.303 -0.1977 -0.7702 -0.8136
  806SOL    HW1 3634   0.719   0.715   7.329 -0.1831 -0.7931 -0.7524
  806SOL    HW2 3635   0.703   0.626   7.208 -0.9822 -0.4246 -0.9197
  807SOL     OW 3636   1.419   0.055   5.830 -0.0233  0.1435 -0.5030
  807SOL    HW1 3637   1.506   0.094   5.836 -1.0216  2.3107  1.1008
  807SOL    HW2 3638   1.393   0.067   5.739  1.7356 -1.5881 -1.3219
  808SOL     OW 3639   1.199   0.487   5.327 -0.5375 -0.3082 -0.2891
  808SOL    HW1 3640   1.287   0.488   5.289 -0.8726 -2.6957 -1.3084
  808SOL    HW2 3641   1.146   0.540   5.266 -0.1011 -0.1100 -0.4979
  809SOL     OW 3642   1.378   1.865   6.569 -0.3233 -0.2545  0.0443
  809SOL    HW1 3643   1.347   1.774   6.574 -2.2302  0.2422 -1.4456
  809SOL    HW2 3644   1.463   1.859   6.526 -0.0082 -1.3823  0.7577
  810SOL     OW 3645   0.271   0.651   6.482  0.2288 -0.0856  0.0196
  810SOL    HW1 3646   0.287   0.563   6.448  0.1343  0.0643 -0.4204
  810SOL    HW2 3647   0.233   0.637   6.569 -0.0553 -0.4814 -0.1677
  811SOL     OW 3648   8.806   0.336   6.272  0.2312  0.2832 -0.2366
  811SOL    HW1 3649   8.759   0.419   6.263 -0.1363  0.2949  1.4998
  811SOL    HW2 3650   8.739   0.273   6.297  0.4690 -0.6359 -1.7463
  812SOL     OW 3651   1.448   0.067   7.072  0.3160  0.2615  0.4948
  812SOL    HW1 3652   1.471   0.088   7.162 -0.5093  0.3355  0.6927
  812SOL    HW2 3653   1.501   0.126   7.019 -0.4829  1.4444  0.9830
  813SOL     OW 3654   1.107   0.282   6.832 -0.0504  0.0110 -0.8271
  813SOL    HW1 3655   1.022   0.315   6.861  0.6440  1.6328 -0.5250
  813SOL    HW2 3656   1.119   0.200   6.880  0.7767  2.2215  3.2109
  814SOL     OW 3657   0.091   0.721   5.927  0.4276 -0.1222 -0.2377
  814SOL    HW1 3658   0.110   0.680   5.843  2.0827  0.6939 -0.3036
  814SOL    HW2 3659   0.099   0.815   5.911 -4.8285  0.5620 -0.4897
  815SOL     OW 3660   0.072   1.912   6.513  0.1298  0.3123  0.0058
  815SOL    HW1 3661   0.137   1.845   6.490 -1.4483 -1.1556 -0.3695
  815SOL    HW2 3662   0.077   1.975   6.441  0.4386 -0.3174 -0.5449
  816SOL     OW 3663   0.398   1.423   6.510 -0.0296 -0.2252 -0.2552
  816SOL    HW1 3664   0.372   1.333   6.532 -0.1983 -0.3087 -0.7790
  816SOL    HW2 3665   0.422   1.419   6.417 -0.6243  0.3908 -0.4466
  817SOL     OW 3666   0.693   0.757   6.615 -0.1387  0.3027  0.1607
  817SOL    HW1 3667   0.697   0.837   6.563  4.1404 -1.4078 -2.7527
  817SOL    HW2 3668   0.641   0.696   6.563 -1.0365  0.3509  0.9824
  818SOL     OW 3669   8.845   0.742   6.403 -0.1281  0.5230 -0.3538
  818SOL    HW1 3670   8.842   0.704   6.316  0.1612  0.0548 -0.1621
  818SOL    HW2 3671   8.937   0.737   6.428 -0.3560 -0.2703  0.3817
  819SOL     OW 3672   8.837   8.704   7.216  0.5229 -0.3409 -0.1832
  819SOL    HW1 3673   8.852   8.671   7.305 -0.4482  0.6726  0.3813
  819SOL    HW2 3674   8.816   8.797   7.228  1.9504  0.2179 -1.6241
  820SOL     OW 3675   1.073   1.044   7.353 -0.0236  0.1470  0.2602
  820SOL    HW1 3676   1.156   1.016   7.393  1.2952  2.9019 -0.2950
  820SOL    HW2 3677   1.047   1.121   7.403 -1.3833  0.2948 -0.6398
  821SOL     OW 3678   0.736   0.845   5.937  1.0385  0.4746  0.3586
  821SOL    HW1 3679   0.763   0.832   6.028  0.1118 -1.6592  0.3831
  821SOL    HW2 3680   0.647   0.880   5.943  1.8893  2.8228  0.2383
  822SOL     OW 3681   1.436   0.662   7.052 -0.2753  0.4308  0.1193
  822SOL    HW1 3682   1.389   0.727   7.001 -1.6934  0.6707  1.6675
  822SOL    HW2 3683   1.396   0.578   7.028  0.9403  0.1891 -1.1931
  823SOL     OW 3684   0.121   1.292   7.095 -0.1995 -0.2980  0.1931
  823SOL    HW1 3685   0.068   1.339   7.159  0.0693  0.5167 -0.1672
  823SOL    HW2 3686   0.089   1.202   7.098 -1.4761  0.1377  0.1185
  824SOL     OW 3687   0.870   0.376   6.925 -0.2477 -0.1923 -0.0467
  824SOL    HW1 3688   0.853   0.462   6.887  0.8143  0.0370 -0.0508
  824SOL    HW2 3689   0.801   0.320   6.891 -0.8542  0.6255 -0.1748
  825SOL     OW 3690   0.843   1.378   7.284 -0.3228 -0.0105  0.2305
  825SOL    HW1 3691   0.765   1.363   7.231  0.0595 -2.0343  0.1708
  825SOL    HW2 3692   0.899   1.432   7.229 -0.6120 -0.7206 -0.7925
  826SOL     OW 3693   0.024   0.022   6.278  0.1750  0.1838 -0.2013
  826SOL    HW1 3694   0.030   0.107   6.321  0.6731  0.2615 -0.4072
  826SOL    HW2 3695   0.003   0.043   6.187 -1.6816 -0.0153  0.1474
  827SOL     OW 3696   0.303   0.943   7.015 -0.5132 -0.1842  0.4309
  827SOL    HW1 3697   0.340   0.872   6.963 -2.1200 -1.3702  0.7849
  827SOL    HW2 3698   0.256   0.998   6.952 -0.2004 -0.0752  0.2931
  828SOL     OW 3699   1.206   1.041   6.503 -0.5874  0.5274 -0.6545
  828SOL    HW1 3700   1.201   0.978   6.431 -0.6277 -0.2278 -0.0042
  828SOL    HW2 3701   1.131   1.019   6.559 -0.9988  1.5982 -0.7617
  829SOL     OW 3702   1.289   0.904   5.582 -0.2309 -0.6554 -0.7300
  829SOL    HW1 3703   1.361   0.844   5.604  0.0205  0.2388  1.0956
  829SOL    HW2 3704   1.328   0.966   5.521  1.2450  1.0206  1.7309
  830SOL     OW 3705   1.422   1.718   6.936  0.1012  0.2587 -0.0450
  830SOL    HW1 3706   1.482   1.747   6.868 -1.2070  3.6451  0.0224
  830SOL    HW2 3707   1.463   1.747   7.018 -0.0533 -0.4245  0.2757
  831SOL     OW 3708   1.876   2.022   6.211  0.1771 -0.0627  0.0976
  831SOL    HW1 3709   1.815   1.948   6.216 -1.0893  0.9822  0.9267
  831SOL    HW2 3710   1.931   2.013   6.289  0.2953 -0.3441 -0.0168
  832SOL     OW 3711   8.463   0.654   6.723  0.2465 -0.1200 -0.2763
  832SOL    HW1 3712   8.389   0.603   6.754 -0.0130 -1.1153 -2.3906
  832SOL    HW2 3713   8.459   0.735   6.774 -2.1801 -0.2201 -0.1800
  833SOL     OW 3714   0.914   1.820   7.642 -0.1710  0.0010  0.2479
  833SOL    HW1 3715   0.983   1.881   7.615 -0.1489 -0.2345 -0.2268
  833SOL    HW2 3716   0.893   1.771   7.563 -1.7471  0.8962  0.0699
  834SOL     OW 3717   1.484   0.429   6.050 -0.5167  0.2023  0.8208
  834SOL    HW1 3718   1.530   0.355   6.090  0.9961 -0.2376 -1.5148
  834SOL    HW2 3719   1.399   0.393   6.024 -0.4748 -0.2252  1.2611
  835SOL     OW 3720   1.532   1.632   6.368 -0.9103 -0.8798 -0.2050
  835SOL    HW1 3721   1.482   1.584   6.301 -1.1989 -1.1449  0.1989
  835SOL    HW2 3722   1.497   1.601   6.451 -2.3432  1.2604  0.0866
  836SOL     OW 3723   8.601   1.444   7.372  0.3262 -0.3059  0.3877
  836SOL    HW1 3724   8.686   1.405   7.352 -0.2827 -1.7264  0.4292
  836SOL    HW2 3725   8.543   1.411   7.303 -0.1414  0.9070  0.1683
  837SOL     OW 3726   1.208   1.210   6.180  0.1092 -0.0293 -0.0883
  837SOL    HW1 3727   1.270   1.156   6.229  0.9341  0.5256 -0.4974
  837SOL    HW2 3728   1.212   1.176   6.091  0.0224  0.1813 -0.1711
  838SOL     OW 3729   0.828   1.271   6.889 -0.0195  0.4365  0.0838
  838SOL    HW1 3730   0.761   1.298   6.951 -1.1127 -0.6011 -0.6087
  838SOL    HW2 3731   0.799   1.307   6.805 -1.3728 -2.4589 -0.8137
  839SOL     OW 3732   1.266   1.638   5.776 -0.6432 -0.5770 -0.3421
  839SOL    HW1 3733   1.259   1.567   5.841  1.3412 -0.2666  0.2787
  839SOL    HW2 3734   1.224   1.603   5.698 -1.2270 -1.7763  0.4747
  840SOL     OW 3735   1.786   1.526   6.752 -0.1465 -0.2516 -0.6151
  840SOL    HW1 3736   1.701   1.519   6.796  0.2978 -0.5822  0.2092
  840SOL    HW2 3737   1.797   1.620   6.738 -1.1030 -0.2720 -1.6580
  841SOL     OW 3738   1.718   0.203   6.446 -0.9863 -0.1985 -0.1561
  841SOL    HW1 3739   1.804   0.160   6.452 -0.3482  0.8010 -1.5110
  841SOL    HW2 3740   1.660   0.149   6.499  0.7377 -0.2196  1.8524
  842SOL     OW 3741   0.415   8.631   6.543 -0.1955 -0.3098 -0.5186
  842SOL    HW1 3742   0.319   8.636   6.542 -0.1231  1.7766 -1.3808
  842SOL    HW2 3743   0.434   8.537   6.538 -2.1771 -0.7504 -0.6625
  843SOL     OW 3744   1.706   1.763   5.742 -0.0133 -0.4082  0.2864
  843SOL    HW1 3745   1.621   1.747   5.701 -0.6174 -0.4428  1.5215
  843SOL    HW2 3746   1.713   1.859   5.744 -0.8588 -0.3500  1.8025
  844SOL     OW 3747   0.655   1.009   6.939  0.2794  0.1043  0.6038
  844SOL    HW1 3748   0.724   1.076   6.940  0.1053  0.2818  0.6791
  844SOL    HW2 3749   0.625   1.005   7.030  0.6859 -0.4854  0.7226
  845SOL     OW 3750   1.289   1.129   5.938 -0.1553  0.2547  0.3646
  845SOL    HW1 3751   1.315   1.197   5.876 -0.4311 -0.1273 -0.1812
  845SOL    HW2 3752   1.254   1.059   5.883  2.7152 -1.5726  0.6528
  846SOL     OW 3753   1.571   1.657   5.961 -0.4723  0.2842  0.0709
  846SOL    HW1 3754   1.530   1.575   5.933 -0.9006  0.3513  0.4815
  846SOL    HW2 3755   1.628   1.681   5.888 -0.5015 -0.2683 -0.1435
  847SOL     OW 3756   0.166   1.048   7.242  0.1427  0.0675  0.0876
  847SOL    HW1 3757   0.207   1.028   7.158 -0.6121  2.2425 -0.8581
  847SOL    HW2 3758   0.218   1.000   7.306  1.8082 -0.2586 -1.4317
  848SOL     OW 3759   1.909   1.563   6.503  0.0914  0.4155  0.5983
  848SOL    HW1 3760   1.847   1.532   6.569  1.4410 -0.3054  1.5881
  848SOL    HW2 3761   1.899   1.501   6.430 -2.1704  1.8399 -0.3925
  849SOL     OW 3762   0.790   1.198   6.422  0.3219 -0.1943  0.3375
  849SOL    HW1 3763   0.714   1.164   6.375  1.2080  0.7196 -1.8808
  849SOL    HW2 3764   0.762   1.284   6.453 -0.4702 -1.0469  2.1473
  850SOL     OW 3765   1.195   0.191   6.427 -0.4854  0.7290 -0.1602
  850SOL    HW1 3766   1.251   0.184   6.350 -0.7835 -0.0231 -0.3223
  850SOL    HW2 3767   1.198   0.104   6.466  0.7574  1.4597  1.4664
  851SOL     OW 3768   0.460   1.407   6.241  0.2300  0.2348 -0.1542
  851SOL    HW1 3769   0.531   1.387   6.181 -0.1831 -2.2586  0.1120
  851SOL    HW2 3770   0.380   1.387   6.192 -0.2120  0.5218  0.4261
  852SOL     OW 3771   1.620   0.293   6.991  0.1248 -0.6809  0.3317
  852SOL    HW1 3772   1.698   0.313   7.043 -0.5149  1.2662  0.6268
  852SOL    HW2 3773   1.631   0.342   6.910 -0.3811 -1.1035 -0.0021
  853SOL     OW 3774   0.407   1.203   5.867  0.3688  0.0628 -0.2103
  853SOL    HW1 3775   0.421   1.297   5.862  0.4794  0.0048 -1.1741
  853SOL    HW2 3776   0.485   1.169   5.910 -0.2792  0.5317  1.4453
  854SOL     OW 3777   0.324   0.887   7.432  0.2443 -0.0221 -0.0482
  854SOL    HW1 3778   0.357   0.941   7.504  0.7516  0.3485 -0.5484
  854SOL    HW2 3779   0.272   0.819   7.475 -0.5270  0.9481  0.5769
  855SOL     OW 3780   0.925   0.277   7.189 -0.0555 -0.2184  0.3192
  855SOL    HW1 3781   0.895   0.304   7.102 -2.7346  0.7456  1.4412
  855SOL    HW2 3782   1.020   0.288   7.186 -0.2319  1.3137 -1.9721
  856SOL     OW 3783   8.654   8.569   6.213 -0.4032 -0.0224 -0.1243
  856SOL    HW1 3784   8.708   8.562   6.134 -2.1652 -1.7362 -1.2730
  856SOL    HW2 3785   8.585   8.631   6.190 -0.4865  0.0678  0.3590
  857SOL     OW 3786   1.314   0.834   6.873  0.0469 -0.3736 -0.0800
  857SOL    HW1 3787   1.397   0.844   6.826 -0.5093  0.0621 -1.0124
  857SOL    HW2 3788   1.308   0.912   6.928  0.3676 -0.5314  0.1846
  858SOL     OW 3789   8.687   8.563   6.476 -0.0893 -0.7254 -0.3508
  858SOL    HW1 3790   8.624   8.493   6.493 -1.6506  0.6992 -0.0307
  858SOL    HW2 3791   8.679   8.580   6.382 -0.7171 -0.0595 -0.1806
  859SOL     OW 3792   1.327   1.503   6.257 -0.0308  0.1083  0.2023
  859SOL    HW1 3793   1.266   1.464   6.319  0.9036 -3.4935 -0.8597
  859SOL    HW2 3794   1.279   1.503   6.174 -0.4576  2.6675  0.3873
  860SOL     OW 3795   0.483   0.848   6.808  0.1504 -0.0885  0.1986
  860SOL    HW1 3796   0.538   0.921   6.835  0.1035  0.0573 -0.0913
  860SOL    HW2 3797   0.541   0.795   6.753  0.8386 -1.4122  2.0959
  861SOL     OW 3798   1.467   2.087   6.749  0.1851 -0.1114  0.1710
  861SOL    HW1 3799   1.466   2.035   6.669  3.2284 -2.3990  1.4040
  861SOL    HW2 3800   1.536   2.152   6.735 -0.1602  0.3171  0.4523
  862SOL     OW 3801   0.463   0.520   6.995 -0.1972  0.4125 -0.3647
  862SOL    HW1 3802   0.458   0.481   6.907 -2.2518  0.6337 -0.4016
  862SOL    HW2 3803   0.405   0.465   7.048  2.5521 -0.9865  1.4439
  863SOL     OW 3804   1.567   1.234   7.322  0.1737 -0.0818  0.3725
  863SOL    HW1 3805   1.494   1.293   7.303 -1.3443 -1.8290  0.4497
  863SOL    HW2 3806   1.580   1.186   7.240 -0.3431 -1.3691  1.0145
  864SOL     OW 3807   0.229   1.496   6.914  0.5460 -0.1157 -0.2442
  864SOL    HW1 3808   0.165   1.505   6.843  0.3377  0.7879  0.0473
  864SOL    HW2 3809   0.214   1.407   6.948  0.4648 -0.4609 -1.1428
  865SOL     OW 3810   1.755   1.235   6.888  0.1886 -0.8255  0.2274
  865SOL    HW1 3811   1.737   1.160   6.832  1.2756 -0.4999 -0.5998
  865SOL    HW2 3812   1.754   1.310   6.829  1.4684 -0.4868  0.5923
  866SOL     OW 3813   1.419   0.660   5.591  0.0653  0.3893 -0.0405
  866SOL    HW1 3814   1.460   0.627   5.671  0.3829 -1.6667 -0.9836
  866SOL    HW2 3815   1.370   0.585   5.557 -0.8731  1.5153 -1.2741
  867SOL     OW 3816   0.507   0.531   6.210 -0.0064 -0.4885 -0.0511
  867SOL    HW1 3817   0.602   0.521   6.206  0.0097 -0.9297  1.0571
  867SOL    HW2 3818   0.485   0.516   6.302 -0.9496  1.5489  0.1130
  868SOL     OW 3819   1.255   0.320   7.165  0.3612 -0.2035 -0.8920
  868SOL    HW1 3820   1.282   0.349   7.078  2.0371 -0.4559 -0.4920
  868SOL    HW2 3821   1.225   0.400   7.209 -1.2186 -0.1966 -1.9250
  869SOL     OW 3822   1.322   1.042   7.029  0.2782 -0.3028 -0.7100
  869SOL    HW1 3823   1.406   1.069   7.064  0.4846 -1.0066 -0.6465
  869SOL    HW2 3824   1.257   1.076   7.091  0.5286  0.0099 -0.6180
  870SOL     OW 3825   1.170   1.538   5.518 -0.0463 -0.3487  0.2858
  870SOL    HW1 3826   1.078   1.546   5.542 -0.3460  4.0072 -1.3846
  870SOL    HW2 3827   1.169   1.535   5.422  1.5492 -1.9266  0.2680
  871SOL     OW 3828   1.198   1.828   5.964 -0.2814  0.2108 -0.0113
  871SOL    HW1 3829   1.219   1.786   5.881 -1.9385 -0.3061 -0.2089
  871SOL    HW2 3830   1.280   1.869   5.992  1.0235 -1.8729 -0.5496
  872SOL     OW 3831   0.816   0.544   6.298  0.3257  0.0803  0.0789
  872SOL    HW1 3832   0.797   0.521   6.389  1.3365  0.2612  0.3571
  872SOL    HW2 3833   0.898   0.497   6.279 -0.3949 -0.7584 -1.0640
  873SOL     OW 3834   0.795   1.014   5.542 -0.2006 -0.1326 -0.1436
  873SOL    HW1 3835   0.820   1.028   5.451 -0.1222 -0.8925 -0.2504
  873SOL    HW2 3836   0.873   0.977   5.583 -0.5444 -0.7231 -0.0117
  874SOL     OW 3837   2.058   1.665   6.192 -0.7734  0.3958  0.4984
  874SOL    HW1 3838   2.091   1.740   6.142 -1.5508  1.8587  2.0443
  874SOL    HW2 3839   1.971   1.648   6.155  0.5508 -1.8063 -1.8777
  875SOL     OW 3840   0.101   1.766   7.540  0.5094  0.8775  0.3528
  875SOL    HW1 3841   0.030   1.826   7.564  1.1788  1.6026  0.5499
  875SOL    HW2 3842   0.136   1.735   7.623 -0.6363 -0.7952  0.2656
  876SOL     OW 3843   8.796   1.239   6.564 -0.3358  0.0720 -0.3860
  876SOL    HW1 3844   8.735   1.261   6.494 -0.6147  1.3082  0.2183
  876SOL    HW2 3845   8.786   1.145   6.576 -2.8735  0.3525  0.3586
  877SOL     OW 3846   0.642   1.268   7.117 -0.5726  0.1066 -0.1181
  877SOL    HW1 3847   0.582   1.204   7.155 -1.1322  0.1587 -0.8912
  877SOL    HW2 3848   0.611   1.353   7.150 -2.2597  0.3541 -2.1422
  878SOL     OW 3849   1.839   0.048   6.868  0.4001 -0.2046  0.1412
  878SOL    HW1 3850   1.848   0.137   6.834  1.8920 -0.3379  0.1315
  878SOL    HW2 3851   1.750   0.022   6.843  0.0812  1.1180 -0.2088
  879SOL     OW 3852   0.700   0.241   6.209  0.2633 -0.2554 -0.1155
  879SOL    HW1 3853   0.622   0.231   6.155 -0.7215  0.1342  1.1835
  879SOL    HW2 3854   0.673   0.213   6.296  1.3784  0.5182  0.5164
  880SOL     OW 3855   1.903   1.307   6.236  0.2388  0.2429  0.2067
  880SOL    HW1 3856   1.995   1.329   6.254  0.6279 -1.1261 -0.0126
  880SOL    HW2 3857   1.888   1.225   6.284 -0.4420 -0.3126 -0.9212
  881SOL     OW 3858   0.213   0.093   7.165 -0.1302 -0.2469  0.0829
  881SOL    HW1 3859   0.232   0.014   7.114 -0.2882 -0.2377  0.0087
  881SOL    HW2 3860   0.122   0.083   7.192  0.2528 -0.7278  1.2318
  882SOL     OW 3861   0.978   1.609   5.958  0.0047  0.1595 -0.1162
  882SOL    HW1 3862   0.922   1.643   6.028  1.2604 -0.2885  1.1410
  882SOL    HW2 3863   1.058   1.661   5.962 -0.3686  0.9892 -2.0908
  883SOL     OW 3864   1.175   0.432   6.587  0.3519 -0.2758  0.2459
  883SOL    HW1 3865   1.194   0.353   6.536 -1.0543 -0.4151 -0.1242
  883SOL    HW2 3866   1.126   0.400   6.663  0.0624  0.1982  0.2621
  884SOL     OW 3867   1.260   8.761   6.522 -0.3215 -0.1892  0.7299
  884SOL    HW1 3868   1.289   8.699   6.455 -1.9692  0.0845 -0.3060
  884SOL    HW2 3869   1.209   8.709   6.583 -0.7362 -0.0782  0.4892
  885SOL     OW 3870   1.002   1.245   5.619 -0.0415  0.3045 -0.2000
  885SOL    HW1 3871   1.014   1.150   5.614 -0.8585  0.2484 -1.5625
  885SOL    HW2 3872   1.000   1.264   5.713 -0.1530 -1.0652  0.0980
  886SOL     OW 3873   0.694   1.399   6.691  0.0885  0.0818 -0.2241
  886SOL    HW1 3874   0.618   1.422   6.745 -0.2097 -1.6181  0.1294
  886SOL    HW2 3875   0.676   1.440   6.606 -1.1023 -0.0604 -0.0588
  887SOL     OW 3876   1.391   8.495   5.928 -0.5709 -0.7006  0.1218
  887SOL    HW1 3877   1.439   8.418   5.959  0.5153 -0.8353 -1.7384
  887SOL    HW2 3878   1.301   8.465   5.916 -0.3850 -1.3775  0.4125
  888SOL     OW 3879   1.212   0.623   5.953 -0.5991 -0.9867  0.1839
  888SOL    HW1 3880   1.185   0.645   5.864 -0.8135 -1.5518  0.1058
  888SOL    HW2 3881   1.168   0.541   5.972 -1.1134 -0.5190  1.0775
  889SOL     OW 3882   1.511   0.401   6.691  0.1480  0.0095  0.3412
  889SOL    HW1 3883   1.568   0.403   6.615  0.1054  0.3222  0.3142
  889SOL    HW2 3884   1.468   0.487   6.690  1.1158  0.5376  1.4502
  890SOL     OW 3885   8.653   0.509   5.707  0.1509 -0.1430 -0.7500
  890SOL    HW1 3886   8.564   0.501   5.674  0.5098  1.8923 -2.4499
  890SOL    HW2 3887   8.643   0.528   5.800 -1.1055 -1.3104 -0.6197
  891SOL     OW 3888   1.014   1.831   6.475 -0.5459 -0.4813  0.3946
  891SOL    HW1 3889   0.979   1.904   6.527 -1.6172 -0.7183  0.0301
  891SOL    HW2 3890   1.059   1.874   6.403  0.3856 -0.1618  1.1388
  892SOL     OW 3891   0.457   0.546   7.430  0.4279 -0.4448 -0.6041
  892SOL    HW1 3892   0.402   0.576   7.359  0.1452 -1.4664 -0.8280
  892SOL    HW2 3893   0.547   0.555   7.397  0.4564  1.4682 -0.1411
  893SOL     OW 3894   0.705   0.061   8.553  0.6484  0.1733 -0.6205
  893SOL    HW1 3895   0.724   0.148   8.517  1.7937 -0.3285 -1.2943
  893SOL    HW2 3896   0.734   0.000   8.485 -1.3129 -0.7382 -0.7095
  894SOL     OW 3897   0.015   0.283   8.345 -0.1208  0.2868  0.4913
  894SOL    HW1 3898   0.108   0.297   8.324 -0.6489  0.3562 -2.1908
  894SOL    HW2 3899   0.014   0.264   8.439  3.0159 -3.2448  0.0377
  895SOL     OW 3900   0.678   1.568   8.330  0.2134  0.0915 -0.0130
  895SOL    HW1 3901   0.602   1.520   8.362  0.0553 -0.1419 -0.7180
  895SOL    HW2 3902   0.653   1.660   8.338 -0.8150  0.0083 -1.7555
  896SOL     OW 3903   1.466   1.712   8.055  0.4824  0.3095 -0.2801
  896SOL    HW1 3904   1.375   1.728   8.082  0.4440  0.9437 -0.7752
  896SOL    HW2 3905   1.483   1.777   7.987  1.4555  0.4767  0.1137
  897SOL     OW 3906   1.115   1.111   7.859 -0.1263  0.0496 -0.2748
  897SOL    HW1 3907   1.207   1.098   7.834 -0.1514  0.3366 -0.5279
  897SOL    HW2 3908   1.088   1.188   7.809  0.0482  1.1166  1.2119
  898SOL     OW 3909   2.017   0.255   7.992 -0.1231  0.1197  0.2665
  898SOL    HW1 3910   1.934   0.274   7.948 -0.0233 -0.7470 -0.3135
  898SOL    HW2 3911   2.003   0.170   8.034  0.2946  0.2202  0.6111
  899SOL     OW 3912   0.849   1.429   8.526 -0.0933 -0.1908  0.2172
  899SOL    HW1 3913   0.786   1.477   8.473  0.4948  0.1839 -0.1483
  899SOL    HW2 3914   0.869   1.487   8.599 -1.5212 -1.0279  1.3322
  900SOL     OW 3915   0.503   0.981   8.092  0.1926 -0.3867  0.0270
  900SOL    HW1 3916   0.555   1.049   8.048  2.0162 -0.9292  1.2106
  900SOL    HW2 3917   0.481   1.020   8.177  2.3738 -1.6459  1.2611
  901SOL     OW 3918   0.492   1.421   8.444 -0.6448  0.9560 -0.5012
  901SOL    HW1 3919   0.516   1.384   8.529  0.2679  0.2130 -1.0699
  901SOL    HW2 3920   0.398   1.441   8.452 -0.7233  0.2608  0.4429
  902SOL     OW 3921   0.154   0.574   8.505  0.3538  0.4251 -0.0767
  902SOL    HW1 3922   0.154   0.479   8.513 -0.0782  0.3746 -0.6396
  902SOL    HW2 3923   0.071   0.602   8.544 -0.1507  0.4521 -1.1269
  903SOL     OW 3924   1.104   0.809   7.832 -0.7439  0.2600  0.6951
  903SOL    HW1 3925   1.055   0.891   7.822  0.5054  0.8801 -0.7912
  903SOL    HW2 3926   1.185   0.834   7.877  0.4611  0.2469 -1.3238
  904SOL     OW 3927   0.144   2.035   7.728  0.4058 -0.1333  0.2701
  904SOL    HW1 3928   0.158   1.946   7.760  0.6497  0.0946  0.8162
  904SOL    HW2 3929   0.068   2.029   7.670 -0.0500 -0.5577  0.9038
  905SOL     OW 3930   0.446   1.773   8.035 -0.1272 -0.1314 -0.6194
  905SOL    HW1 3931   0.366   1.827   8.043  0.0522  0.5800 -2.8564
  905SOL    HW2 3932   0.516   1.830   8.065 -0.2214  0.0062 -0.6585
  906SOL     OW 3933   0.339   1.523   8.109  0.6410  0.0357 -0.2598
  906SOL    HW1 3934   0.247   1.549   8.107  0.1453 -1.6048 -2.1382
  906SOL    HW2 3935   0.385   1.593   8.062  0.1458  0.1694 -0.5491
  907SOL     OW 3936   1.232   2.030   8.712 -0.1669 -0.4159 -0.3549
  907SOL    HW1 3937   1.141   2.052   8.735 -0.2028 -1.1302  0.2274
  907SOL    HW2 3938   1.241   1.938   8.736  0.0753 -0.9716 -2.4066
  908SOL     OW 3939   0.447   1.062   7.632 -0.3343 -0.3435 -0.3509
  908SOL    HW1 3940   0.509   0.992   7.651 -1.5788 -1.1334  0.8702
  908SOL    HW2 3941   0.445   1.115   7.711  0.4159  0.9913 -1.1750
  909SOL     OW 3942   0.281   0.125   8.055  0.0739  0.2156  0.2009
  909SOL    HW1 3943   0.288   0.165   8.142  0.2579 -0.2293  0.3925
  909SOL    HW2 3944   0.310   0.194   7.995 -0.7836  0.7964  0.4180
  910SOL     OW 3945   1.716   1.816   7.889 -0.0366 -0.1107 -0.6212
  910SOL    HW1 3946   1.725   1.879   7.960 -1.3394 -0.6256  0.0369
  910SOL    HW2 3947   1.635   1.842   7.844 -0.4653 -1.1595 -0.4837
  911SOL     OW 3948   0.051   1.295   7.391  0.1249  0.1461 -0.3570
  911SOL    HW1 3949   0.080   1.210   7.358  1.9379  0.1745  0.9719
  911SOL    HW2 3950   0.037   1.281   7.484 -1.2558  0.9191 -0.4278
  912SOL     OW 3951   2.282   0.873   7.911 -0.0250  0.6790  0.7518
  912SOL    HW1 3952   2.243   0.960   7.913 -0.0192  0.6742  2.8709
  912SOL    HW2 3953   2.209   0.814   7.931 -0.1838  0.0716 -1.3161
  913SOL     OW 3954   1.635   1.234   7.766 -0.1534  0.8282  0.1130
  913SOL    HW1 3955   1.665   1.290   7.694  2.5300 -1.2384 -0.5256
  913SOL    HW2 3956   1.699   1.248   7.836  0.3587 -1.0984  0.0711
  914SOL     OW 3957   0.547   1.804   8.342 -0.3012  0.4755 -0.0151
  914SOL    HW1 3958   0.486   1.788   8.414  0.2345 -1.4648  0.0634
  914SOL    HW2 3959   0.598   1.880   8.369 -0.0970 -0.2360  1.6901
  915SOL     OW 3960   0.632   0.456   7.735  0.3838 -0.2625  0.4528
  915SOL    HW1 3961   0.603   0.542   7.767  0.2673 -0.8827  2.1002
  915SOL    HW2 3962   0.716   0.441   7.779  2.3446  0.5790 -2.6682
  916SOL     OW 3963   0.405   0.584   8.425 -0.0078 -0.0954 -0.0888
  916SOL    HW1 3964   0.466   0.658   8.439 -0.2327 -0.0418  0.6489
  916SOL    HW2 3965   0.324   0.612   8.467 -0.3581 -0.4235 -0.5411
  917SOL     OW 3966   1.537   0.784   7.554 -0.2019  0.4729  0.4578
  917SOL    HW1 3967   1.513   0.873   7.578 -1.6797  0.1872  0.1527
  917SOL    HW2 3968   1.522   0.779   7.460  2.6114  0.6957 -0.0781
  918SOL     OW 3969   1.436   1.911   7.862  0.2449  0.0610 -0.1229
  918SOL    HW1 3970   1.397   1.913   7.774 -1.8004 -0.2490  0.7197
  918SOL    HW2 3971   1.399   1.987   7.907  0.7282 -0.1704  0.6877
  919SOL     OW 3972   2.069   2.496   7.855 -0.1525  0.4578 -0.2624
  919SOL    HW1 3973   1.973   2.491   7.858 -0.1043  0.0528  1.2288
  919SOL    HW2 3974   2.095   2.517   7.944  1.3128 -2.7899  0.2123
  920SOL     OW 3975   0.426   1.208   7.858 -0.1534  0.0091 -0.1902
  920SOL    HW1 3976   0.363   1.169   7.918 -1.1835  0.5594 -0.8846
  920SOL    HW2 3977   0.391   1.295   7.838  2.1090  1.3859  1.3614
  921SOL     OW 3978   1.248   1.158   8.225 -0.2535  0.1280  0.5233
  921SOL    HW1 3979   1.333   1.170   8.183  0.5998 -0.4135  1.9909
  921SOL    HW2 3980   1.185   1.166   8.154  0.9177  1.7909 -0.4191
  922SOL     OW 3981   1.592   2.141   7.458  0.6388  0.1361  0.4715
  922SOL    HW1 3982   1.632   2.215   7.504  0.8796 -0.5840  1.4577
  922SOL    HW2 3983   1.642   2.065   7.488 -0.0019 -0.4993 -0.0563
  923SOL     OW 3984   0.700   1.103   0.138 -0.3550  0.2048 -0.5307
  923SOL    HW1 3985   0.743   1.119   0.053 -0.1380 -1.6403 -0.8053
  923SOL    HW2 3986   0.753   1.034   0.179 -0.0111  1.5724  1.4671
  924SOL     OW 3987   0.938   0.468   8.420 -0.3091 -0.2066 -0.4475
  924SOL    HW1 3988   0.928   0.471   8.325  0.3453  0.5319 -0.4964
  924SOL    HW2 3989   0.990   0.390   8.437  0.4399  0.2118 -0.7794
  925SOL     OW 3990   0.914   0.436   7.770 -0.3184  0.1060 -0.2919
  925SOL    HW1 3991   0.960   0.369   7.821  1.3486  1.1422 -0.3421
  925SOL    HW2 3992   0.971   0.452   7.695 -1.0145  1.0794 -0.6386
  926SOL     OW 3993   0.120   0.829   8.084  0.2482  0.2766  0.8754
  926SOL    HW1 3994   0.132   0.745   8.128 -0.0009 -0.8605 -1.0899
  926SOL    HW2 3995   0.026   0.845   8.086  0.1361 -0.2091  0.0735
  927SOL     OW 3996   0.529   1.991   0.400 -0.4055  0.3948  0.2255
  927SOL    HW1 3997   0.493   2.078   0.385 -2.1650 -0.4879 -1.0036
  927SOL    HW2 3998   0.614   1.993   0.356 -0.4498  1.4652  0.1678
  928SOL     OW 3999   0.944   0.216   7.503 -0.7127 -0.0318  0.1459
  928SOL    HW1 4000   0.908   0.304   7.513 -0.9924 -0.2065  0.6598
  928SOL    HW2 4001   0.891   0.177   7.432 -0.8101  0.0938  0.1487
  929SOL     OW 4002   1.297   1.563   7.819 -0.2502 -0.0914 -0.0580
  929SOL    HW1 4003   1.321   1.603   7.903 -1.8335 -1.0332  0.8828
  929SOL    HW2 4004   1.207   1.532   7.832 -0.8115  0.4378 -2.3700
  930SOL     OW 4005   0.670   0.300   8.050 -0.3124 -0.1288  0.0001
  930SOL    HW1 4006   0.615   0.256   7.985  0.1111 -1.3093  0.4159
  930SOL    HW2 4007   0.608   0.348   8.106 -0.5627  3.1021 -2.7377
  931SOL     OW 4008   0.983   1.918   8.124 -0.3520 -0.2075  0.4506
  931SOL    HW1 4009   0.936   1.977   8.065  0.7140 -0.8521 -1.1207
  931SOL    HW2 4010   1.038   1.975   8.177 -1.0475  0.3571  0.5750
  932SOL     OW 4011   0.251   1.958   8.075 -0.5522 -0.2801  0.1433
  932SOL    HW1 4012   0.240   2.037   8.021 -1.3151 -0.7306 -0.3868
  932SOL    HW2 4013   0.163   1.922   8.082 -0.4725 -0.2260  1.7324
  933SOL     OW 4014   1.666   1.485   8.295  0.5562  0.6191 -0.2753
  933SOL    HW1 4015   1.661   1.580   8.297  0.5166  0.6063  0.4292
  933SOL    HW2 4016   1.760   1.465   8.299  0.6304  0.6319 -1.3966
  934SOL     OW 4017   0.107   1.283   8.002 -0.1222 -0.2552  0.2894
  934SOL    HW1 4018   0.092   1.205   7.949 -0.2987 -0.7424  1.0459
  934SOL    HW2 4019   0.112   1.354   7.938 -1.1008 -0.7203 -0.3243
  935SOL     OW 4020   1.644   1.048   8.038  0.4018  0.0732 -0.1876
  935SOL    HW1 4021   1.710   0.981   8.057  0.8524  0.0329 -1.7229
  935SOL    HW2 4022   1.634   1.045   7.943 -1.8620  0.0589 -0.0047
  936SOL     OW 4023   1.296   1.863   7.283  0.3567 -0.6936 -0.5290
  936SOL    HW1 4024   1.304   1.806   7.360 -0.5967 -0.2567 -0.1035
  936SOL    HW2 4025   1.218   1.832   7.237  1.3125 -1.4287 -1.7501
  937SOL     OW 4026   1.567   1.097   7.089 -0.0291  0.5788 -0.1498
  937SOL    HW1 4027   1.607   1.011   7.077  0.4143  0.9804 -1.8670
  937SOL    HW2 4028   1.620   1.156   7.035  0.4912  2.2167  2.0314
  938SOL     OW 4029   0.429   1.875   7.728 -0.2913 -0.4828 -0.2639
  938SOL    HW1 4030   0.452   1.863   7.820 -0.2587 -0.2815 -0.2446
  938SOL    HW2 4031   0.428   1.787   7.691 -0.5458 -0.5851 -0.0133
  939SOL     OW 4032   1.811   8.775   7.742 -0.6054  0.5147 -0.0919
  939SOL    HW1 4033   1.817   8.785   7.647  1.3685  4.3790  0.2414
  939SOL    HW2 4034   1.718   8.756   7.758 -0.6355 -2.4514 -2.7808
  940SOL     OW 4035   0.296   1.776   8.590  0.4222  0.3961 -0.0252
  940SOL    HW1 4036   0.226   1.825   8.634  0.8034  0.0895  0.9389
  940SOL    HW2 4037   0.376   1.827   8.608  0.7264 -0.2442  0.4576
  941SOL     OW 4038   1.261   1.916   8.437 -0.1573 -0.3694 -0.3436
  941SOL    HW1 4039   1.289   1.942   8.525 -0.3569  1.5925 -0.8147
  941SOL    HW2 4040   1.202   1.842   8.452  0.2574 -0.4405  1.1272
  942SOL     OW 4041   0.369   0.722   7.643  0.2476 -0.4922 -0.3775
  942SOL    HW1 4042   0.440   0.696   7.584 -0.5763  0.5709 -1.8888
  942SOL    HW2 4043   0.412   0.737   7.727  1.7256 -0.4370 -1.1140
  943SOL     OW 4044   0.335   8.719   7.998  0.1533  0.3991  0.2662
  943SOL    HW1 4045   0.318   8.808   8.029 -0.0185  0.5269 -0.1881
  943SOL    HW2 4046   0.425   8.702   8.025  0.0961  0.6071  0.5978
  944SOL     OW 4047   0.807   1.803   8.797 -0.2237 -0.0716  0.1676
  944SOL    HW1 4048   0.793   1.845   8.712 -1.2606 -0.9483 -0.1088
  944SOL    HW2 4049   0.846   1.718   8.776 -0.7822 -0.4285  0.5411
  945SOL     OW 4050   1.061   1.709   8.485 -0.0530 -0.2163 -0.3240
  945SOL    HW1 4051   1.089   1.653   8.412  2.1884  0.7594 -0.2768
  945SOL    HW2 4052   1.105   1.672   8.561 -0.5502  0.1515  0.1457
  946SOL     OW 4053   1.311   0.949   8.541  0.4494  0.4623  0.0518
  946SOL    HW1 4054   1.216   0.951   8.542  0.3433 -1.6739 -1.2415
  946SOL    HW2 4055   1.334   0.894   8.466  2.7284  1.5747 -0.1555
  947SOL     OW 4056   8.787   8.767   8.213 -0.4380 -0.5153 -0.1696
  947SOL    HW1 4057   8.812   8.831   8.145 -2.1023 -2.1647 -2.5016
  947SOL    HW2 4058   8.831   8.686   8.186  1.6757 -0.4877  2.7563
  948SOL     OW 4059   1.521   1.080   7.556  0.5168  0.0646 -0.2395
  948SOL    HW1 4060   1.515   1.145   7.486  0.3609  0.1818 -0.1174
  948SOL    HW2 4061   1.574   1.122   7.623  1.4280 -0.3795 -0.6538
  949SOL     OW 4062   0.284   8.487   7.825  0.0257  0.2673 -0.2323
  949SOL    HW1 4063   0.278   8.560   7.887 -1.4963 -1.7312  2.1507
  949SOL    HW2 4064   0.219   8.424   7.856  2.4257 -2.8940 -1.0897
  950SOL     OW 4065   0.869   0.681   7.821 -0.7041 -0.1359 -0.1297
  950SOL    HW1 4066   0.892   0.588   7.818 -1.2976 -0.3104  0.5298
  950SOL    HW2 4067   0.950   0.726   7.796 -0.3777 -0.8234 -0.3378
  951SOL     OW 4068   1.500   2.010   8.275  0.2131 -0.0573  0.5442
  951SOL    HW1 4069   1.454   2.091   8.297  0.9289  0.6523 -0.4541
  951SOL    HW2 4070   1.464   1.944   8.334 -1.7881  0.5538  0.0635
  952SOL     OW 4071   0.359   1.246   8.161 -0.7404  0.4790  0.2319
  952SOL    HW1 4072   0.273   1.219   8.128 -0.3726  0.5082 -0.7781
  952SOL    HW2 4073   0.362   1.340   8.144 -0.5832  0.5097  0.4356
  953SOL     OW 4074   1.284   2.127   7.931 -0.5193  0.2969 -0.1799
  953SOL    HW1 4075   1.324   2.149   7.846  1.3048  1.0489  0.8103
  953SOL    HW2 4076   1.191   2.145   7.919 -0.2765  0.5443 -1.9703
  954SOL     OW 4077   1.154   0.479   7.350  0.0904  0.0019  0.3561
  954SOL    HW1 4078   1.074   0.440   7.386  1.2480  0.0834  3.2836
  954SOL    HW2 4079   1.144   0.572   7.367  0.1371  0.2258 -0.7772
  955SOL     OW 4080   0.396   0.778   0.188 -0.5712 -0.1944  0.2178
  955SOL    HW1 4081   0.357   0.861   0.216  1.9831  1.0269  0.3997
  955SOL    HW2 4082   0.370   0.716   0.257 -2.2397  0.4883  0.2565
  956SOL     OW 4083   0.831   0.953   8.058 -0.3559  0.6021 -0.3565
  956SOL    HW1 4084   0.800   1.036   8.022  1.8979  1.5144 -0.3265
  956SOL    HW2 4085   0.910   0.932   8.008 -1.5202 -2.2131 -1.2291
  957SOL     OW 4086   0.982   8.715   7.688 -0.1846 -0.1105  0.0233
  957SOL    HW1 4087   1.034   8.776   7.740  0.2215  0.4396 -0.9892
  957SOL    HW2 4088   0.964   8.642   7.746 -0.6672  0.9670  1.2755
  958SOL     OW 4089   1.513   1.198   8.213 -0.4097  0.0846 -0.2936
  958SOL    HW1 4090   1.576   1.261   8.248  0.3430 -0.3745 -0.7987
  958SOL    HW2 4091   1.567   1.130   8.172 -1.2247 -0.5136 -0.4034
  959SOL     OW 4092   1.728   0.800   8.386  0.8146 -0.1910 -0.1754
  959SOL    HW1 4093   1.720   0.891   8.415 -1.3794 -0.0237 -1.1099
  959SOL    HW2 4094   1.691   0.749   8.459 -0.9828 -0.0434 -0.9144
  960SOL     OW 4095   1.859   0.895   7.896  0.6377 -0.5232 -0.0603
  960SOL    HW1 4096   1.861   0.934   7.808 -0.9784  1.0200  0.5506
  960SOL    HW2 4097   1.926   0.826   7.892  1.7849  0.5981 -1.9782
  961SOL     OW 4098   0.693   1.176   7.990  0.2809  0.1630  0.2909
  961SOL    HW1 4099   0.631   1.180   7.918  0.3082 -0.9207  0.1883
  961SOL    HW2 4100   0.672   1.252   8.045 -1.2316 -0.2708  0.3468
  962SOL     OW 4101   1.633   1.495   7.972  0.0114  0.5900 -0.3658
  962SOL    HW1 4102   1.641   1.448   8.055 -1.2965 -0.3994 -0.7557
  962SOL    HW2 4103   1.578   1.570   7.991 -1.0067 -0.1098 -0.4955
  963SOL     OW 4104   1.572   0.177   7.312  0.3235 -0.1842 -0.1910
  963SOL    HW1 4105   1.562   0.269   7.290  1.0263  0.3955  1.6815
  963SOL    HW2 4106   1.519   0.165   7.391  0.7435 -1.2211 -0.0425
  964SOL     OW 4107   0.286   0.377   7.550  0.4769 -0.2525  0.4060
  964SOL    HW1 4108   0.335   0.443   7.502 -0.0506  0.1670  0.4369
  964SOL    HW2 4109   0.346   0.303   7.557  1.3635  0.5065  1.0573
  965SOL     OW 4110   2.071   0.594   8.591  0.1340  0.4679 -0.1481
  965SOL    HW1 4111   2.102   0.632   8.673  0.4913  0.5770 -0.3315
  965SOL    HW2 4112   2.139   0.616   8.527  0.0650  0.0152 -0.3812
  966SOL     OW 4113   1.356   1.532   8.323 -0.3839 -0.0601 -0.2087
  966SOL    HW1 4114   1.445   1.499   8.306 -0.7841 -0.9505 -0.6680
  966SOL    HW2 4115   1.335   1.584   8.246  0.4324  1.7337  0.7295
  967SOL     OW 4116   1.822   1.202   8.403  0.0301 -0.6581  0.7151
  967SOL    HW1 4117   1.788   1.258   8.472 -1.1600  0.3622 -0.6277
  967SOL    HW2 4118   1.784   1.116   8.421 -0.2629 -0.4086  1.3295
  968SOL     OW 4119   1.014   1.223   8.092  0.3207 -0.7674 -0.2512
  968SOL    HW1 4120   1.009   1.159   8.021  0.5334  0.2440 -1.2059
  968SOL    HW2 4121   0.940   1.202   8.149 -1.3687 -0.0892 -2.0979
  969SOL     OW 4122   0.737   1.380   0.028  0.6835  0.3054  0.0898
  969SOL    HW1 4123   0.703   1.461  -0.009  0.2462  0.7277  1.3663
  969SOL    HW2 4124   0.668   1.350   0.087  1.7339  0.1721  1.2857
  970SOL     OW 4125   1.145   0.009   8.603  0.0570 -0.6188 -0.3832
  970SOL    HW1 4126   1.102   0.020   8.687 -2.1054  0.5815 -1.5715
  970SOL    HW2 4127   1.101   0.071   8.545  0.8500 -2.0580 -2.6383
  971SOL     OW 4128   0.149   1.948   8.748  0.3672  0.5535  0.3584
  971SOL    HW1 4129   0.133   2.031   8.791  0.6876 -0.1474  1.8912
  971SOL    HW2 4130   0.161   1.885   8.819 -1.6258 -1.1828 -0.7149
  972SOL     OW 4131   0.354   1.455   7.772  0.2840 -0.0212  0.4255
  972SOL    HW1 4132   0.262   1.479   7.766  0.7023  1.4675 -0.7258
  972SOL    HW2 4133   0.401   1.538   7.765  1.7832 -0.9437 -1.9109
  973SOL     OW 4134   0.899   0.817   8.305 -0.2712 -0.5616  0.3858
  973SOL    HW1 4135   0.868   0.882   8.241  0.9740 -0.5720 -0.2678
  973SOL    HW2 4136   0.840   0.742   8.294 -0.5391 -0.2707 -0.2133
  974SOL     OW 4137   1.208   1.689   8.122 -0.5289 -0.4044  0.3253
  974SOL    HW1 4138   1.131   1.635   8.140 -0.4207 -0.3986  0.8111
  974SOL    HW2 4139   1.172   1.770   8.087 -0.7465 -0.4131  0.5222
  975SOL     OW 4140   1.385   1.174   8.676  0.1483 -0.5195  0.0969
  975SOL    HW1 4141   1.475   1.152   8.698 -0.0128 -1.1599  0.1241
  975SOL    HW2 4142   1.353   1.099   8.626 -0.2518 -0.1311 -0.2420
  976SOL     OW 4143   1.300   0.817   8.027 -0.1228  0.0629  0.0945
  976SOL    HW1 4144   1.378   0.762   8.035 -0.7119 -0.8604 -0.3086
  976SOL    HW2 4145   1.305   0.877   8.102  0.8516 -0.1286  0.1967
  977SOL     OW 4146   0.285   1.534   8.732  0.3076 -0.2721 -0.9735
  977SOL    HW1 4147   0.298   1.587   8.653  1.5926  0.4503 -0.3005
  977SOL    HW2 4148   0.340   1.457   8.718  0.9729  0.1225 -0.5442
  978SOL     OW 4149   0.986   1.481   8.229 -0.3298 -0.0704  0.0201
  978SOL    HW1 4150   0.947   1.464   8.315 -0.1805 -0.8018 -0.0520
  978SOL    HW2 4151   1.018   1.396   8.199  0.3790  0.3224 -0.3898
  979SOL     OW 4152   1.073   1.453   7.900  0.2953 -0.1042 -0.3447
  979SOL    HW1 4153   1.077   1.399   7.980  1.6345  0.7265  0.1824
  979SOL    HW2 4154   1.006   1.518   7.919  0.0689 -0.3766 -0.1965
  980SOL     OW 4155   1.333   0.422   7.711  0.5136  0.0025 -0.1435
  980SOL    HW1 4156   1.265   0.365   7.675 -0.2177 -0.5080  1.8983
  980SOL    HW2 4157   1.290   0.507   7.721  0.6774  0.1075 -0.3169
  981SOL     OW 4158   0.461   0.457   8.695  0.2917  0.3582 -0.5238
  981SOL    HW1 4159   0.410   0.536   8.713 -0.3659  0.1042 -1.2353
  981SOL    HW2 4160   0.472   0.456   8.600 -1.3640 -1.3769 -0.7712
  982SOL     OW 4161   0.456   1.277   8.700  0.0919  0.1977  0.1836
  982SOL    HW1 4162   0.455   1.189   8.738  2.4527  0.0421  0.0465
  982SOL    HW2 4163   0.476   1.335   8.774  1.2520  0.2794 -0.1690
  983SOL     OW 4164   0.887   1.160   8.800 -0.0562  0.0700  0.5882
  983SOL    HW1 4165   0.869   1.252   8.823  0.1327  0.2474  0.0424
  983SOL    HW2 4166   0.974   1.162   8.760 -0.6487 -0.1174 -0.7720
  984SOL     OW 4167   0.371   0.065   8.349  0.1456 -0.5731  0.1314
  984SOL    HW1 4168   0.330  -0.020   8.338  0.0435 -0.7079  1.3783
  984SOL    HW2 4169   0.404   0.065   8.439  1.1287  0.2857 -0.2024
  985SOL     OW 4170   1.426   0.442   7.395  0.0623 -0.0442 -0.2517
  985SOL    HW1 4171   1.404   0.477   7.481  0.3502  0.2577 -0.2992
  985SOL    HW2 4172   1.342   0.436   7.350 -0.3015 -1.6772  0.5768
  986SOL     OW 4173   0.988   0.926   8.557 -1.0766  0.3832 -0.1505
  986SOL    HW1 4174   0.967   0.897   8.468 -0.5312 -0.4346 -0.0338
  986SOL    HW2 4175   0.973   1.020   8.556 -1.4109  0.3324 -1.0122
  987SOL     OW 4176   1.537   0.239   7.802 -0.2101 -0.0058 -0.1203
  987SOL    HW1 4177   1.511   0.147   7.789  0.4176 -0.1281 -0.5592
  987SOL    HW2 4178   1.472   0.289   7.751 -0.0991 -0.2576 -0.5177
  988SOL     OW 4179   1.119   0.741   7.422  0.6216 -0.6399  0.0378
  988SOL    HW1 4180   1.047   0.796   7.391  0.0413 -0.9863  0.7434
  988SOL    HW2 4181   1.195   0.799   7.420  0.1158  0.0491  0.2938
  989SOL     OW 4182   0.915   1.685   8.025  0.0046  0.2240 -0.0246
  989SOL    HW1 4183   0.900   1.651   8.113 -2.1979 -1.4150 -0.9260
  989SOL    HW2 4184   0.929   1.779   8.037  2.3096 -0.3093  2.2302
  990SOL     OW 4185   0.480   0.651   7.930  0.4135 -0.0150 -0.6581
  990SOL    HW1 4186   0.539   0.665   8.004  0.0261  0.7250 -0.4760
  990SOL    HW2 4187   0.397   0.626   7.970  0.8495 -2.1026 -0.9508
  991SOL     OW 4188   0.254   0.534   8.079  0.7047 -0.5899 -0.0246
  991SOL    HW1 4189   0.255   0.440   8.095 -1.3414 -0.4629  1.0723
  991SOL    HW2 4190   0.196   0.570   8.145  1.1731  1.4286 -0.6329
  992SOL     OW 4191   1.032   0.195   8.377 -0.0679 -0.0716 -0.1368
  992SOL    HW1 4192   1.113   0.161   8.339  0.0433 -0.3081  0.2984
  992SOL    HW2 4193   0.967   0.187   8.308  0.5520  1.2835 -0.9129
  993SOL     OW 4194   0.044   1.461   7.781 -0.2217  0.3430 -0.2457
  993SOL    HW1 4195  -0.008   1.397   7.731 -1.3829  1.6374 -0.7637
  993SOL    HW2 4196  -0.002   1.544   7.769  0.6507  1.0955  1.2946
  994SOL     OW 4197   0.081   1.624   8.112  0.3680  0.3917  1.1963
  994SOL    HW1 4198   0.023   1.551   8.135 -0.6111  1.3447  1.8721
  994SOL    HW2 4199   0.073   1.685   8.185  0.8889  1.3412  0.4894
  995SOL     OW 4200   0.530   1.898   8.676 -0.1455  0.5951  0.2505
  995SOL    HW1 4201   0.567   1.942   8.752 -0.5553 -2.0284  2.0805
  995SOL    HW2 4202   0.599   1.903   8.610  1.1499  0.9267  1.5706
  996SOL     OW 4203   0.976   1.192   8.518 -0.4177  0.2681 -0.2094
  996SOL    HW1 4204   0.924   1.271   8.513  0.1532  0.5859 -1.6312
  996SOL    HW2 4205   1.067   1.222   8.512 -0.2025 -0.4993 -0.9723
  997SOL     OW 4206   0.258   0.322   8.306  0.3134  0.3824  0.1139
  997SOL    HW1 4207   0.316   0.250   8.334  0.3651 -0.4311 -1.8899
  997SOL    HW2 4208   0.317   0.396   8.294  1.0822 -0.5200 -2.1969
  998SOL     OW 4209   0.859   0.978   7.609 -0.1878  0.0593 -0.3579
  998SOL    HW1 4210   0.787   0.951   7.667  1.4957 -2.4126  0.7504
  998SOL    HW2 4211   0.835   0.943   7.524 -1.3788  1.3505 -0.5942
  999SOL     OW 4212   1.645   0.636   8.617 -0.2794 -0.4854 -0.4099
  999SOL    HW1 4213   1.552   0.620   8.634  0.0848 -1.1650  1.0902
  999SOL    HW2 4214   1.684   0.548   8.614  0.7734 -0.1812  1.9172
 1000SOL     OW 4215   1.139   0.633   8.321  0.4179 -0.4597  0.2282
 1000SOL    HW1 4216   1.106   0.563   8.378  0.2228 -0.8856 -0.3899
 1000SOL    HW2 4217   1.060   0.667   8.278  0.5839 -0.2683  0.0753
 1001SOL     OW 4218   1.650   1.805   0.214  0.1328 -0.6773 -0.2812
 1001SOL    HW1 4219   1.688   1.848   0.138  0.7407 -0.7336 -0.0160
 1001SOL    HW2 4220   1.626   1.717   0.183 -0.8239 -0.2652 -0.7407
 1002SOL     OW 4221   0.278   8.815   7.705 -0.1802 -0.5713  0.1408
 1002SOL    HW1 4222   0.296   8.766   7.785 -0.6410 -0.7236  0.1544
 1002SOL    HW2 4223   0.185   8.836   7.710  0.0058  0.2823  0.1190
 1003SOL     OW 4224   0.127   0.832   8.792  0.3142  0.0893 -0.0724
 1003SOL    HW1 4225   0.109   0.885   8.869 -0.8369 -0.1138 -0.1897
 1003SOL    HW2 4226   0.057   0.853   8.730 -1.2272 -2.7917  0.5299
 1004SOL     OW 4227   1.583   1.033   8.461  0.1938  0.2530 -0.1627
 1004SOL    HW1 4228   1.527   0.962   8.493 -0.2299  0.9598  0.7022
 1004SOL    HW2 4229   1.534   1.070   8.388  0.4536 -0.3857 -0.6732
 1005SOL     OW 4230   1.114   0.608   7.664  0.0094 -0.2880 -0.2488
 1005SOL    HW1 4231   1.114   0.678   7.729 -4.1188  0.1641 -0.4615
 1005SOL    HW2 4232   1.117   0.654   7.580 -0.5117 -0.5124 -0.3908
 1006SOL     OW 4233   2.316   2.020   8.682 -0.3971 -0.4705 -0.1763
 1006SOL    HW1 4234   2.380   2.086   8.709  0.0323 -0.8028 -0.3701
 1006SOL    HW2 4235   2.347   1.989   8.597 -1.7477  0.5650 -1.0776
 1007SOL     OW 4236   1.685   1.788   8.538 -0.1242 -0.0466  0.0856
 1007SOL    HW1 4237   1.762   1.845   8.542  2.2690 -2.9087 -1.3707
 1007SOL    HW2 4238   1.674   1.769   8.445 -1.8307 -0.7137  0.3915
 1008SOL     OW 4239   0.528   1.129   8.357 -0.0165  0.7149 -0.5152
 1008SOL    HW1 4240   0.499   1.151   8.446 -1.4473 -0.0027 -0.7718
 1008SOL    HW2 4241   0.491   1.198   8.302  1.5409  1.6101 -0.4888
 1009SOL     OW 4242   1.613   0.701   7.797  0.7626 -0.0548  0.4614
 1009SOL    HW1 4243   1.604   0.711   7.702  0.6505 -1.3320  0.3199
 1009SOL    HW2 4244   1.672   0.772   7.823 -0.5483  1.3494 -0.2972
 1010SOL     OW 4245   1.342   1.933   7.601  0.1927  0.2688 -0.8593
 1010SOL    HW1 4246   1.400   1.888   7.539  1.4163  2.1068 -1.1523
 1010SOL    HW2 4247   1.256   1.893   7.587  1.3156 -2.5484 -0.4243
 1011SOL     OW 4248   1.365   1.239   7.792 -0.5134  0.8566 -0.4116
 1011SOL    HW1 4249   1.328   1.327   7.792  1.7853  1.9325  1.1057
 1011SOL    HW2 4250   1.458   1.252   7.814 -0.4448 -2.0484  1.6570
 1012SOL     OW 4251   0.509   1.689   7.433 -0.5517  0.5533 -0.1365
 1012SOL    HW1 4252   0.527   1.764   7.377 -1.4697  0.1622 -0.9768
 1012SOL    HW2 4253   0.418   1.666   7.415 -0.2141 -0.9236 -0.0864
 1013SOL     OW 4254   1.678   0.087   8.227 -0.0946 -0.3055  0.1025
 1013SOL    HW1 4255   1.695   0.160   8.287 -1.5249  0.2286 -0.1107
 1013SOL    HW2 4256   1.762   0.073   8.183 -0.2896  2.6845 -1.4361
 1014SOL     OW 4257   0.070   0.635   8.243 -0.4624 -0.4334 -0.3766
 1014SOL    HW1 4258  -0.020   0.613   8.219 -0.5722  0.1152 -0.4907
 1014SOL    HW2 4259   0.075   0.617   8.337 -1.4563  1.9139  0.2008
 1015SOL     OW 4260   1.206   1.671   7.442  0.3390 -0.5293  0.2444
 1015SOL    HW1 4261   1.256   1.613   7.499 -0.9124 -1.1200  0.7839
 1015SOL    HW2 4262   1.114   1.652   7.463 -0.1246  0.3219 -0.8952
 1016SOL     OW 4263   0.909   1.582   8.730  0.2842 -0.0946  0.3079
 1016SOL    HW1 4264   0.997   1.555   8.704 -0.3492 -0.3669 -1.7287
 1016SOL    HW2 4265   0.882   1.517   8.795  0.7786 -1.3288 -0.6866
 1017SOL     OW 4266   1.007   1.214   7.558  0.2519 -0.0841  0.5129
 1017SOL    HW1 4267   0.965   1.127   7.559  0.3868 -0.1694 -0.3802
 1017SOL    HW2 4268   0.939   1.273   7.589 -0.8513 -0.1066 -1.6278
 1018SOL     OW 4269   1.523   1.790   7.458  0.3531 -0.1043 -0.2064
 1018SOL    HW1 4270   1.486   1.708   7.493  0.5152  0.3646  1.1375
 1018SOL    HW2 4271   1.604   1.802   7.508 -0.1340  1.3479  0.2657
 1019SOL     OW 4272   1.830   1.320   8.648 -0.4752 -0.1101  0.0468
 1019SOL    HW1 4273   1.811   1.386   8.715  0.7730  0.4831 -0.1489
 1019SOL    HW2 4274   1.890   1.259   8.691 -0.4531 -0.2811 -0.2256
 1020SOL     OW 4275   0.818   1.621   7.779  0.1922  0.3546  0.5196
 1020SOL    HW1 4276   0.847   1.627   7.870 -0.4201 -1.5190  0.8733
 1020SOL    HW2 4277   0.848   1.703   7.740  3.0119 -0.0068  1.6553
 1021SOL     OW 4278   0.905   0.459   8.161  0.5560 -0.9934 -0.1155
 1021SOL    HW1 4279   0.842   0.420   8.101  0.2692 -1.4155  0.4488
 1021SOL    HW2 4280   0.985   0.469   8.110 -0.6528  2.0305 -1.7030
 1022SOL     OW 4281   0.613   1.412   8.100  0.1384 -0.1335 -0.1559
 1022SOL    HW1 4282   0.670   1.485   8.123  0.1184 -0.3502  0.6187
 1022SOL    HW2 4283   0.527   1.437   8.133  0.2126 -0.6720  0.4653
 1023SOL     OW 4284   1.369   0.784   8.349  0.0199  0.4535 -0.1384
 1023SOL    HW1 4285   1.444   0.727   8.333 -1.0657 -1.7870  2.0968
 1023SOL    HW2 4286   1.293   0.732   8.323 -0.9712  1.0538  1.4109
 1024SOL     OW 4287   0.060   1.762   7.823  0.7572 -0.1496  0.8596
 1024SOL    HW1 4288   0.058   1.702   7.898 -0.3933  0.1596  1.1069
 1024SOL    HW2 4289  -0.032   1.784   7.809  1.0907  0.8494  0.1960
 1025SOL     OW 4290   8.806   0.213   7.785  0.7095  0.1252 -0.2876
 1025SOL    HW1 4291   8.773   0.301   7.804 -0.4521 -0.3088 -0.2197
 1025SOL    HW2 4292   8.805   0.206   7.690  0.8199  0.1800 -0.2936
 1026SOL     OW 4293   0.013   0.047   7.982  0.0245  0.1594 -0.0430
 1026SOL    HW1 4294  -0.016   0.121   7.929 -0.2681 -1.0349 -1.6452
 1026SOL    HW2 4295   0.109   0.051   7.979  0.0123  0.0838 -0.7165
 1027SOL     OW 4296   1.414   1.524   7.565  0.0775  1.1426 -0.3422
 1027SOL    HW1 4297   1.491   1.468   7.574 -1.6172 -1.6007 -1.4819
 1027SOL    HW2 4298   1.376   1.527   7.653 -0.0995 -0.0443 -0.3626
 1028SOL     OW 4299   1.090   1.417   0.119 -0.0778  0.2686 -0.1828
 1028SOL    HW1 4300   1.121   1.338   0.075 -0.7825 -0.5931  0.8220
 1028SOL    HW2 4301   1.028   1.386   0.185  0.7447  1.5007  1.2705
 1029SOL     OW 4302   1.942   1.965   8.310  0.0380  0.4786 -0.7130
 1029SOL    HW1 4303   1.942   2.006   8.224  0.1943  1.4286 -0.2680
 1029SOL    HW2 4304   2.017   1.905   8.308  0.4634  1.0118 -0.9933
 1030SOL     OW 4305   0.433   1.753   0.102 -0.2158 -0.3032  0.2592
 1030SOL    HW1 4306   0.343   1.786   0.097 -0.2618 -0.4346  0.2196
 1030SOL    HW2 4307   0.487   1.832   0.108 -0.3827 -0.2416  1.0552
 1031SOL     OW 4308   2.166   0.959   8.591 -0.5015  0.3429  0.0370
 1031SOL    HW1 4309   2.200   0.917   8.512 -1.5871 -0.9124  0.1917
 1031SOL    HW2 4310   2.222   1.035   8.605  1.1062 -0.6713 -0.6651
 1032SOL     OW 4311   1.186   0.018   7.837  0.1372 -0.3958 -0.7628
 1032SOL    HW1 4312   1.276   0.004   7.865 -0.4336  0.1463  1.6340
 1032SOL    HW2 4313   1.134  -0.040   7.892 -0.9648 -1.4025 -2.7448
 1033SOL     OW 4314   0.585   0.846   8.487 -0.1441 -0.0688 -0.4161
 1033SOL    HW1 4315   0.626   0.888   8.563 -0.6168 -1.0211  0.3931
 1033SOL    HW2 4316   0.590   0.911   8.418 -0.5607  1.2049  0.7033
 1034SOL     OW 4317   1.394   0.539   8.599 -0.2027 -0.4465  0.2422
 1034SOL    HW1 4318   1.361   0.513   8.513 -0.3713  2.0051 -0.5227
 1034SOL    HW2 4319   1.317   0.537   8.655 -0.5558 -0.0239 -0.2090
 1035SOL     OW 4320   0.840   1.378   7.653 -0.2920  0.3919  1.1254
 1035SOL    HW1 4321   0.855   1.438   7.726 -1.1376  1.9749  0.0373
 1035SOL    HW2 4322   0.749   1.351   7.661 -1.2020  2.5921 -0.7072
 1036SOL     OW 4323   0.839   2.035   8.343  0.0457  0.2203 -0.2728
 1036SOL    HW1 4324   0.924   2.070   8.317  0.9437 -1.8720 -0.2676
 1036SOL    HW2 4325   0.803   1.995   8.264  0.5399 -1.7419  0.4564
 1037SOL     OW 4326   0.806   1.162   8.284  0.1062  0.0082 -0.0481
 1037SOL    HW1 4327   0.714   1.178   8.306  0.3697  1.2700  0.2116
 1037SOL    HW2 4328   0.848   1.146   8.369 -0.2628 -2.9787 -0.3339
 1038SOL     OW 4329   1.273   1.264   7.533  0.4414  0.4842  0.6576
 1038SOL    HW1 4330   1.310   1.237   7.617 -1.6718  1.5700  2.0593
 1038SOL    HW2 4331   1.180   1.240   7.539 -0.2005  2.4157 -0.4898
 1039SOL     OW 4332   1.670   1.754   8.265  0.0745 -0.2705 -0.0051
 1039SOL    HW1 4333   1.603   1.767   8.199  0.4426  0.0670 -0.3146
 1039SOL    HW2 4334   1.742   1.812   8.239  1.9109 -2.9910 -1.6216
 1040SOL     OW 4335   0.658   1.999   8.093  0.2139 -0.0345 -0.1191
 1040SOL    HW1 4336   0.722   2.042   8.037  0.4599 -0.1367  0.0771
 1040SOL    HW2 4337   0.592   2.065   8.111  1.0866  0.5775  0.9729
 1041SOL     OW 4338   1.638   0.184   8.624  0.6658 -0.0715  0.3573
 1041SOL    HW1 4339   1.583   0.230   8.688  2.4350 -0.8352  2.5693
 1041SOL    HW2 4340   1.577   0.134   8.571 -1.1960  3.2076 -0.9180
 1042SOL     OW 4341   0.689   0.882   7.775 -0.0065 -0.1727 -0.0684
 1042SOL    HW1 4342   0.631   0.848   7.843  0.2056 -1.1013 -0.3299
 1042SOL    HW2 4343   0.768   0.828   7.782  0.6189  0.7286 -0.0622
 1043SOL     OW 4344   1.180   1.336   8.412 -0.1760 -0.1407  0.5551
 1043SOL    HW1 4345   1.226   1.409   8.372  0.7837 -0.6184  0.7477
 1043SOL    HW2 4346   1.187   1.265   8.348 -4.1791  0.8282 -1.3069
 1044SOL     OW 4347   8.813   0.600   8.704 -0.8132 -0.4722  0.2982
 1044SOL    HW1 4348   8.793   0.553   8.785 -0.4195  2.8110  2.4857
 1044SOL    HW2 4349   8.742   0.664   8.695 -1.3207 -1.2848 -2.5226
 1045SOL     OW 4350   0.810   1.843   8.540  0.3462  0.1850  0.9637
 1045SOL    HW1 4351   0.882   1.780   8.537 -0.7960 -1.1728  0.8975
 1045SOL    HW2 4352   0.836   1.911   8.477  0.1157 -1.9539 -1.6376
 1046SOL     OW 4353   1.251   0.066   8.227  0.4023  0.2364  0.1492
 1046SOL    HW1 4354   1.330   0.016   8.249  0.6873  0.9556  0.7986
 1046SOL    HW2 4355   1.271   0.107   8.142  0.0146 -1.0391 -0.5885
 1047SOL     OW 4356   1.171   0.487   8.036 -0.0742  0.5010 -0.1813
 1047SOL    HW1 4357   1.254   0.470   8.081  0.1396  0.8530 -0.4336
 1047SOL    HW2 4358   1.180   0.576   8.003 -0.7287  0.6974  0.1644
 1048SOL     OW 4359   0.566   1.630   7.711  0.4889  0.0158  0.0944
 1048SOL    HW1 4360   0.658   1.634   7.736  0.9297 -4.4918 -0.0545
 1048SOL    HW2 4361   0.566   1.635   7.616  0.7221 -1.0933  0.0297
 1049SOL     OW 4362   0.593   1.580   8.793 -0.1980 -0.2444  0.2284
 1049SOL    HW1 4363   0.570   1.636   8.867 -1.8360  0.9560 -1.1087
 1049SOL    HW2 4364   0.543   1.616   8.719  2.6980 -0.2512 -1.9267
 1050SOL     OW 4365   1.218   8.548   8.160 -0.0946  0.0945 -0.2042
 1050SOL    HW1 4366   1.133   8.569   8.199  0.0868 -0.2864  0.4065
 1050SOL    HW2 4367   1.276   8.535   8.234  0.2090 -0.8427 -0.5868
 1051SOL     OW 4368   1.050   0.247   7.955  0.8218  0.2159  0.1155
 1051SOL    HW1 4369   1.108   0.317   7.987  1.2995 -0.5030  0.8532
 1051SOL    HW2 4370   1.109   0.177   7.928  0.3144 -0.5275  0.8697
 1052SOL     OW 4371   1.605   0.584   8.209 -0.1630  0.8383  0.2919
 1052SOL    HW1 4372   1.672   0.647   8.182  0.0063  0.6708  0.3202
 1052SOL    HW2 4373   1.581   0.538   8.128  0.3622  0.3194  0.4213
 1053SOL     OW 4374   8.721   1.129   7.961  0.1760  0.1995 -0.5453
 1053SOL    HW1 4375   8.764   1.167   8.038 -2.0783  1.5941  0.1148
 1053SOL    HW2 4376   8.700   1.040   7.987 -0.1213  0.5039  0.2825
 1054SOL     OW 4377   0.865   2.076   7.935 -0.2365  0.8322 -0.5402
 1054SOL    HW1 4378   0.825   2.051   7.852  0.5213  2.4326 -1.4550
 1054SOL    HW2 4379   0.918   2.154   7.913 -0.1167  1.3735  1.4643
 1055SOL     OW 4380   0.356   2.895   0.204  0.6198 -0.0163  0.4569
 1055SOL    HW1 4381   0.300   2.818   0.206  1.5237 -0.7827 -1.3295
 1055SOL    HW2 4382   0.344   2.932   0.116  1.3524  0.9798  0.7550
 1056SOL     OW 4383   8.737   2.043   0.642  0.4722  0.7072 -0.2783
 1056SOL    HW1 4384   8.692   1.985   0.581 -1.2863  1.6915  0.0021
 1056SOL    HW2 4385   8.825   2.007   0.650 -0.1105 -1.0249 -1.2587
 1057SOL     OW 4386   8.647   1.616   0.393  0.0863 -0.2839  0.0078
 1057SOL    HW1 4387   8.736   1.581   0.389  0.2241  0.0121  0.3650
 1057SOL    HW2 4388   8.625   1.636   0.302  0.9831  1.0964  0.0719
 1058SOL     OW 4389   0.164   2.888   1.119 -0.7271 -0.4822  0.0643
 1058SOL    HW1 4390   0.204   2.816   1.167 -1.0286 -1.0006 -0.4435
 1058SOL    HW2 4391   0.190   2.967   1.166 -1.7393 -1.0186  1.5963
 1059SOL     OW 4392   1.366   3.372   0.953  0.0150 -0.3739  0.1670
 1059SOL    HW1 4393   1.367   3.283   0.918 -1.7848 -0.9045  1.3324
 1059SOL    HW2 4394   1.404   3.363   1.041  1.6781  0.4051 -0.4285
 1060SOL     OW 4395   1.165   2.824   0.646 -0.0972  0.6148  0.3971
 1060SOL    HW1 4396   1.191   2.914   0.663  0.6231  0.6447 -0.7540
 1060SOL    HW2 4397   1.070   2.826   0.639 -0.2069  1.0229  1.8017
 1061SOL     OW 4398   2.089   2.230   0.406  0.5369  0.0714 -0.3848
 1061SOL    HW1 4399   2.049   2.238   0.319 -1.1554 -0.4319  0.3130
 1061SOL    HW2 4400   2.157   2.164   0.394 -1.2075 -1.7614 -0.8724
 1062SOL     OW 4401   0.313   2.910   0.903  0.1100  0.0411 -0.0274
 1062SOL    HW1 4402   0.239   2.910   0.963  0.3420 -1.3907  0.2990
 1062SOL    HW2 4403   0.275   2.924   0.817 -0.4683 -0.1115  0.2013
 1063SOL     OW 4404   0.630   2.926   1.847  0.1613 -0.3005  0.5506
 1063SOL    HW1 4405   0.649   2.981   1.923 -1.7258  0.5367  0.4816
 1063SOL    HW2 4406   0.658   2.839   1.872  0.0626  0.0676  2.0131
 1064SOL     OW 4407   0.287   2.557   0.754  0.2110 -0.3971 -0.2081
 1064SOL    HW1 4408   0.347   2.537   0.826 -1.2049 -0.6125  0.9495
 1064SOL    HW2 4409   0.201   2.564   0.795 -0.7038 -0.8884 -1.9477
 1065SOL     OW 4410   0.865   3.334   1.883  0.3581 -0.3008  0.2267
 1065SOL    HW1 4411   0.943   3.333   1.939  1.2474  0.3705 -0.9614
 1065SOL    HW2 4412   0.838   3.426   1.882 -0.7727 -0.5992  1.0239
 1066SOL     OW 4413   0.398   3.343   1.146  0.0969  0.3204 -0.0752
 1066SOL    HW1 4414   0.398   3.422   1.091  1.1237  0.1733 -0.3141
 1066SOL    HW2 4415   0.394   3.271   1.084  0.4381  0.1647  0.0815
 1067SOL     OW 4416   0.709   3.413   1.522 -0.4877  0.7731 -0.1582
 1067SOL    HW1 4417   0.672   3.405   1.434 -0.4509 -2.2568  0.0056
 1067SOL    HW2 4418   0.797   3.449   1.508 -0.3125 -0.0919 -1.4233
 1068SOL     OW 4419   0.267   1.859   1.195  0.3223 -0.6329 -0.4579
 1068SOL    HW1 4420   0.233   1.770   1.187 -0.1330 -0.3183 -2.7981
 1068SOL    HW2 4421   0.359   1.848   1.219 -0.5511 -1.5763  2.9452
 1069SOL     OW 4422   1.593   2.353   1.048  0.1605  0.2608  0.4758
 1069SOL    HW1 4423   1.594   2.345   1.144  1.6205  1.6387  0.6208
 1069SOL    HW2 4424   1.645   2.431   1.030 -0.4229  0.2595 -1.4434
 1070SOL     OW 4425   0.326   3.672   0.745 -0.6582  0.8481  0.2189
 1070SOL    HW1 4426   0.376   3.749   0.717  1.8723 -1.3680 -1.8266
 1070SOL    HW2 4427   0.263   3.658   0.674 -0.9675  0.8762  0.4839
 1071SOL     OW 4428   1.210   3.300   1.751  0.4805  0.6239 -0.4496
 1071SOL    HW1 4429   1.304   3.293   1.765  0.4741 -0.5067 -0.8519
 1071SOL    HW2 4430   1.171   3.280   1.836  0.5996  1.1075 -0.2792
 1072SOL     OW 4431   8.674   3.245   0.225 -0.0315  0.4047 -0.1197
 1072SOL    HW1 4432   8.639   3.320   0.177  0.1536  0.4968 -0.1106
 1072SOL    HW2 4433   8.615   3.234   0.299  0.3380  0.9708  0.2592
 1073SOL     OW 4434   8.782   3.125   1.052 -0.1574 -0.3235  0.1653
 1073SOL    HW1 4435   8.817   3.200   1.100 -0.4186 -0.1200  0.0412
 1073SOL    HW2 4436   8.820   3.134   0.964  0.2699 -0.6607  0.3108
 1074SOL     OW 4437   0.858   3.326   1.124 -0.3322 -0.3569 -0.2934
 1074SOL    HW1 4438   0.952   3.331   1.144 -0.5613  0.2456  0.7408
 1074SOL    HW2 4439   0.833   3.236   1.145  0.2390 -0.8757 -1.7222
 1075SOL     OW 4440   0.627   2.776   0.117 -0.1512  0.0006  0.6069
 1075SOL    HW1 4441   0.656   2.795   0.206  0.9482 -0.6647  0.4176
 1075SOL    HW2 4442   0.627   2.861   0.072 -0.2407  0.2679  1.1109
 1076SOL     OW 4443   1.917   2.042   1.287  0.4190  0.0650  0.7300
 1076SOL    HW1 4444   1.900   1.966   1.231  1.6576 -0.9832  1.7182
 1076SOL    HW2 4445   1.917   2.008   1.376 -1.0287  1.6246  1.3737
 1077SOL     OW 4446   0.005   2.420   0.722  0.2630 -0.1008  0.2007
 1077SOL    HW1 4447  -0.090   2.407   0.732  0.4854 -1.2124  0.9802
 1077SOL    HW2 4448   0.023   2.500   0.771 -0.2007 -0.1175  0.4099
 1078SOL     OW 4449   1.866   3.701   0.581 -0.2330 -0.0102 -0.1049
 1078SOL    HW1 4450   1.786   3.694   0.528  0.2170 -3.0000 -0.5945
 1078SOL    HW2 4451   1.883   3.611   0.609  1.2250  1.0125  2.6869
 1079SOL     OW 4452   0.114   3.864   8.652 -0.0462 -0.1966 -0.0067
 1079SOL    HW1 4453   0.063   3.847   8.731  0.9317 -2.6193  0.1605
 1079SOL    HW2 4454   0.056   3.836   8.580 -0.4667  0.8710 -0.1033
 1080SOL     OW 4455   1.947   2.658   0.675 -0.3033 -0.0276 -0.1543
 1080SOL    HW1 4456   1.963   2.569   0.644 -0.6034  0.2760 -1.2314
 1080SOL    HW2 4457   2.019   2.676   0.735 -0.7219 -1.3082  0.7762
 1081SOL     OW 4458   1.648   2.754   0.565  0.0607  0.3558 -0.0155
 1081SOL    HW1 4459   1.715   2.717   0.507  0.3447  1.5592 -0.4798
 1081SOL    HW2 4460   1.604   2.820   0.511 -0.3215  0.8068  0.8435
 1082SOL     OW 4461   0.501   2.133   1.499 -0.3409  0.1825  0.6321
 1082SOL    HW1 4462   0.489   2.227   1.486 -0.2092  0.1317  0.1091
 1082SOL    HW2 4463   0.497   2.096   1.410 -1.3508 -0.4147  0.9172
 1083SOL     OW 4464   0.522   3.420   0.571 -0.2916 -0.0555  0.0953
 1083SOL    HW1 4465   0.574   3.498   0.589  1.4381 -0.9935 -0.5655
 1083SOL    HW2 4466   0.460   3.448   0.504  0.0988  0.8330  0.0900
 1084SOL     OW 4467   1.109   2.561   1.841  0.6437 -0.0745  0.2034
 1084SOL    HW1 4468   1.047   2.614   1.791  0.1343 -1.7139 -1.0043
 1084SOL    HW2 4469   1.174   2.533   1.776 -0.8967 -3.5595 -0.0415
 1085SOL     OW 4470   1.047   1.831   0.516 -0.7444 -0.0284  0.0814
 1085SOL    HW1 4471   1.069   1.847   0.607  0.4995  0.2865 -0.2517
 1085SOL    HW2 4472   1.073   1.740   0.500  0.9550  0.5168 -0.4658
 1086SOL     OW 4473   0.045   2.252   0.941 -0.0875  0.3981 -0.2026
 1086SOL    HW1 4474   0.117   2.195   0.914  1.2093  1.8448  0.0785
 1086SOL    HW2 4475   0.027   2.307   0.864  0.2236  1.1365  0.2406
 1087SOL     OW 4476   1.151   2.582   8.808 -0.3962  0.3584  0.0995
 1087SOL    HW1 4477   1.069   2.537   8.786  0.7223 -0.7296 -2.1490
 1087SOL    HW2 4478   1.193   2.526   8.873 -0.6942  0.0789  0.0524
 1088SOL     OW 4479   1.416   3.305   1.247 -0.0499 -0.3434  0.1613
 1088SOL    HW1 4480   1.384   3.321   1.336  2.0587  1.0119  0.7550
 1088SOL    HW2 4481   1.432   3.211   1.244  1.8949 -0.1479  2.0288
 1089SOL     OW 4482   8.736   1.853   1.416 -0.5676 -0.2083 -0.1890
 1089SOL    HW1 4483   8.790   1.780   1.447  0.1257  0.5518  0.4587
 1089SOL    HW2 4484   8.740   1.917   1.487 -0.8201  0.6327 -0.9119
 1090SOL     OW 4485   1.342   3.112   0.860 -0.8634  0.5983 -0.4927
 1090SOL    HW1 4486   1.260   3.146   0.826 -0.0561  0.6131 -2.5760
 1090SOL    HW2 4487   1.352   3.027   0.818  0.8483  1.2224 -1.4530
 1091SOL     OW 4488   1.373   3.987   0.489  0.1684  0.6024  0.1727
 1091SOL    HW1 4489   1.444   4.017   0.433 -0.1014  2.2427  0.6618
 1091SOL    HW2 4490   1.405   3.905   0.526  0.6527 -0.1242 -1.7547
 1092SOL     OW 4491   0.504   2.577   8.777 -0.2993 -0.0693 -0.2341
 1092SOL    HW1 4492   0.412   2.557   8.761 -0.3651 -0.0178  0.0626
 1092SOL    HW2 4493   0.503   2.662   8.821 -0.1655 -0.4264  0.4789
 1093SOL     OW 4494   0.969   2.513   0.965 -0.1743  0.0718 -0.0396
 1093SOL    HW1 4495   0.914   2.504   1.042 -0.1670  1.9368  0.2457
 1093SOL    HW2 4496   0.938   2.594   0.923  0.9096 -0.0173 -1.0756
 1094SOL     OW 4497   1.485   3.283   0.497 -0.3550 -0.2068 -0.4955
 1094SOL    HW1 4498   1.473   3.378   0.503  1.3718  0.1239 -1.4944
 1094SOL    HW2 4499   1.448   3.260   0.411 -0.3774 -0.3698 -0.4421
 1095SOL     OW 4500   0.274   2.128   1.167  0.2520  0.3002  0.3076
 1095SOL    HW1 4501   0.288   2.043   1.210  0.8406  1.1794  1.9315
 1095SOL    HW2 4502   0.283   2.109   1.074 -2.2041 -1.9189  0.3971
 1096SOL     OW 4503   1.053   2.091   1.690 -0.2298  0.5015  0.1118
 1096SOL    HW1 4504   1.142   2.115   1.666 -0.1483  1.8599  1.5898
 1096SOL    HW2 4505   1.038   2.006   1.648  2.4231 -0.6789  1.3336
 1097SOL     OW 4506   0.850   2.401   1.443  0.7291  0.3877 -0.1549
 1097SOL    HW1 4507   0.859   2.426   1.351 -0.4259 -0.4823 -0.5316
 1097SOL    HW2 4508   0.859   2.305   1.443  1.7593  0.4723  0.7822
 1098SOL     OW 4509   0.696   1.851   1.073 -0.0587  0.3029  0.3246
 1098SOL    HW1 4510   0.614   1.842   1.024 -0.8872  0.1437  1.6946
 1098SOL    HW2 4511   0.755   1.786   1.034 -0.6729  0.2096 -0.4759
 1099SOL     OW 4512   0.832   2.761   0.834  0.1959  0.0349 -0.3028
 1099SOL    HW1 4513   0.839   2.804   0.749  0.4388 -1.5120 -1.1111
 1099SOL    HW2 4514   0.739   2.767   0.857  0.3563  1.6601  0.0073
 1100SOL     OW 4515   8.621   2.254   0.770  0.5249 -0.0988 -0.2613
 1100SOL    HW1 4516   8.626   2.173   0.719  1.5263  1.1179 -2.1850
 1100SOL    HW2 4517   8.527   2.270   0.781  0.3070 -0.9059 -0.8633
 1101SOL     OW 4518   8.683   3.789   1.545 -0.3192 -0.0362 -0.6584
 1101SOL    HW1 4519   8.729   3.730   1.604  0.6436 -0.4526 -1.7621
 1101SOL    HW2 4520   8.595   3.753   1.538 -0.8020  0.6730  1.3676
 1102SOL     OW 4521   0.708   2.471   0.565  0.1367 -0.6643  0.0339
 1102SOL    HW1 4522   0.707   2.415   0.643  1.4455  0.4532  0.9030
 1102SOL    HW2 4523   0.799   2.470   0.536 -0.1876 -0.4347 -1.0314
 1103SOL     OW 4524   1.240   2.267   1.605 -0.0889 -0.3086  0.2421
 1103SOL    HW1 4525   1.330   2.288   1.579 -0.6633 -0.3625 -1.9417
 1103SOL    HW2 4526   1.192   2.349   1.592 -0.4541 -0.3823  1.0538
 1104SOL     OW 4527   1.191   2.779   0.227 -0.1500 -0.3167  0.6189
 1104SOL    HW1 4528   1.249   2.720   0.276 -1.4766 -3.2004 -1.0268
 1104SOL    HW2 4529   1.215   2.763   0.135 -2.8173 -0.8761 -0.0443
 1105SOL     OW 4530   0.778   1.857   0.490  0.4643  0.2783  0.3115
 1105SOL    HW1 4531   0.744   1.907   0.565  0.7660 -0.7293  1.1433
 1105SOL    HW2 4532   0.873   1.862   0.499  0.5080 -1.2398  0.9825
 1106SOL     OW 4533   1.162   3.650   0.216 -0.3439 -0.7035 -0.3259
 1106SOL    HW1 4534   1.078   3.604   0.222 -0.6479 -0.3864 -1.6176
 1106SOL    HW2 4535   1.148   3.731   0.266 -1.0043 -0.4217 -0.9337
 1107SOL     OW 4536   0.275   4.198   0.432 -0.1223  0.5363 -0.6157
 1107SOL    HW1 4537   0.225   4.147   0.495 -1.4196  0.5878 -1.5582
 1107SOL    HW2 4538   0.359   4.152   0.424  0.0222  0.4435  0.9847
 1108SOL     OW 4539   2.112   3.262   0.807  0.6963  0.1383  0.0976
 1108SOL    HW1 4540   2.205   3.285   0.798  0.5273  0.7501 -0.0950
 1108SOL    HW2 4541   2.066   3.326   0.753 -0.0058  1.2845  1.9605
 1109SOL     OW 4542   0.979   3.430   1.403 -0.5067 -0.8253 -0.0641
 1109SOL    HW1 4543   1.003   3.522   1.416 -2.2889 -0.4206  0.6962
 1109SOL    HW2 4544   1.036   3.400   1.332 -0.5295  1.1481 -0.9937
 1110SOL     OW 4545   0.335   2.907   8.742 -0.2463 -0.0106  0.2202
 1110SOL    HW1 4546   0.340   2.844   8.671 -1.8191  2.1754 -1.9878
 1110SOL    HW2 4547   0.253   2.886   8.787  0.6304 -1.2405  1.3253
 1111SOL     OW 4548   1.384   2.586   0.804  0.0667  0.1339  0.0846
 1111SOL    HW1 4549   1.305   2.640   0.806  0.0878  0.1298  1.6752
 1111SOL    HW2 4550   1.430   2.607   0.885  0.9560 -0.9839 -0.1038
 1112SOL     OW 4551   0.603   2.967   1.523 -0.3158  0.1660 -0.3305
 1112SOL    HW1 4552   0.583   2.959   1.617  0.9200 -0.5384 -0.1104
 1112SOL    HW2 4553   0.569   2.886   1.485  0.7359 -0.3488 -0.1965
 1113SOL     OW 4554   0.931   3.491   0.199 -0.3386  0.2885  0.8717
 1113SOL    HW1 4555   0.881   3.539   0.133  0.0450  0.9182  1.0283
 1113SOL    HW2 4556   0.868   3.430   0.238 -0.3278 -0.8852 -0.8152
 1114SOL     OW 4557   0.426   1.584   1.318  0.1776 -0.2393 -0.1709
 1114SOL    HW1 4558   0.395   1.545   1.236 -0.1602  0.3976 -0.3518
 1114SOL    HW2 4559   0.520   1.572   1.317  0.1267 -0.6236 -0.4481
 1115SOL     OW 4560   1.396   3.109   0.015  0.1042  0.1890  0.0422
 1115SOL    HW1 4561   1.434   3.150   0.093  0.0569  1.0470 -0.3694
 1115SOL    HW2 4562   1.313   3.155   0.002  0.9654  1.4251 -1.5900
 1116SOL     OW 4563   0.141   3.496   0.215  0.4135  0.0070  0.2977
 1116SOL    HW1 4564   0.138   3.544   0.132 -0.6129 -0.7010 -0.0866
 1116SOL    HW2 4565   0.072   3.535   0.267  0.0490 -0.5686  0.2503
 1117SOL     OW 4566   1.739   1.765   0.467  0.0875  0.3327  0.5540
 1117SOL    HW1 4567   1.791   1.691   0.436 -2.2706 -0.1140 -2.9684
 1117SOL    HW2 4568   1.707   1.807   0.387 -3.8242  1.2921  2.3728
 1118SOL     OW 4569   0.410   3.555   0.997  0.0465 -0.0884 -0.0303
 1118SOL    HW1 4570   0.391   3.601   0.915  2.1881 -1.9332 -1.6884
 1118SOL    HW2 4571   0.423   3.625   1.061 -1.0047  1.4455 -1.3973
 1119SOL     OW 4572   1.114   3.306   1.192  0.0821  0.3780 -0.0932
 1119SOL    HW1 4573   1.203   3.329   1.219  0.0223 -0.9110  1.3316
 1119SOL    HW2 4574   1.115   3.211   1.184 -1.2064  0.3315  0.0864
 1120SOL     OW 4575   0.220   2.575   0.489 -0.2038  0.6356  0.0870
 1120SOL    HW1 4576   0.175   2.498   0.455  2.7909 -0.8098 -0.9453
 1120SOL    HW2 4577   0.242   2.553   0.579 -0.9215  1.0558  0.3712
 1121SOL     OW 4578   1.422   1.957   2.330 -0.1874 -0.0405 -0.5387
 1121SOL    HW1 4579   1.344   1.922   2.372  0.1710  1.2260  1.3829
 1121SOL    HW2 4580   1.399   2.047   2.308  0.9070  0.6029  0.7669
 1122SOL     OW 4581   0.797   1.944   1.571  0.2866 -0.5509 -0.1247
 1122SOL    HW1 4582   0.850   1.870   1.542  0.0583 -0.7013 -0.1665
 1122SOL    HW2 4583   0.838   2.021   1.531  0.9349 -0.5733  0.4796
 1123SOL     OW 4584   0.445   3.127   0.987  0.1908 -0.3027  0.3583
 1123SOL    HW1 4585   0.387   3.062   0.948  0.2521  0.3826 -0.9402
 1123SOL    HW2 4586   0.491   3.166   0.912  2.7044 -1.1726  1.3708
 1124SOL     OW 4587   1.108   2.480   1.520  0.5301 -0.8164  0.4910
 1124SOL    HW1 4588   1.120   2.575   1.514 -1.4468 -0.3804  2.2463
 1124SOL    HW2 4589   1.013   2.468   1.517  0.7330 -2.7552  0.4411
 1125SOL     OW 4590   1.041   3.383   0.690  0.3600 -0.1619  0.2800
 1125SOL    HW1 4591   1.093   3.417   0.763  1.2069 -0.3614 -0.2161
 1125SOL    HW2 4592   1.078   3.425   0.612 -0.3870 -0.1204 -0.0621
 1126SOL     OW 4593   0.739   2.303   0.782  0.3625 -0.5441  0.0713
 1126SOL    HW1 4594   0.822   2.256   0.779  0.9091  0.2599  1.4816
 1126SOL    HW2 4595   0.685   2.252   0.843  0.1098 -0.6093 -0.2013
 1127SOL     OW 4596   0.377   2.465   0.177  0.1141 -0.0493 -0.2985
 1127SOL    HW1 4597   0.426   2.535   0.222  0.2492 -0.6011  0.4234
 1127SOL    HW2 4598   0.414   2.465   0.089  0.1558  0.7541 -0.2953
 1128SOL     OW 4599   1.180   2.836   8.792  1.0659 -0.6881  0.4016
 1128SOL    HW1 4600   1.275   2.852   8.792  0.9782 -0.1570  0.8975
 1128SOL    HW2 4601   1.172   2.742   8.776  1.6063 -0.3809 -2.1529
 1129SOL     OW 4602   1.177   1.973   0.283  0.0704 -0.3417  0.4054
 1129SOL    HW1 4603   1.136   1.923   0.354  0.2008 -0.7906  0.1669
 1129SOL    HW2 4604   1.173   1.916   0.207 -0.8260  0.4627 -0.1779
 1130SOL     OW 4605   0.770   2.113   1.121 -0.5532  0.2773 -0.0192
 1130SOL    HW1 4606   0.743   2.021   1.113 -2.8314  0.8391  0.4218
 1130SOL    HW2 4607   0.865   2.110   1.126 -0.5093 -1.9832 -0.9888
 1131SOL     OW 4608   1.145   3.544   0.492 -0.3713  0.3524  0.1336
 1131SOL    HW1 4609   1.067   3.597   0.477 -0.1122  1.1150  1.3849
 1131SOL    HW2 4610   1.216   3.607   0.507  0.2635 -0.3346  0.1120
 1132SOL     OW 4611   0.012   2.898   0.825 -0.1345 -0.6869  0.6281
 1132SOL    HW1 4612   0.013   2.989   0.798  0.7721 -1.0247 -0.5613
 1132SOL    HW2 4613   0.049   2.850   0.750 -2.1782 -2.2317  0.5112
 1133SOL     OW 4614   0.945   3.697   0.445  0.1555 -0.1239 -0.0256
 1133SOL    HW1 4615   0.915   3.726   0.359 -0.4936  1.7161  0.7594
 1133SOL    HW2 4616   0.865   3.681   0.495  0.5141 -0.6139  0.4075
 1134SOL     OW 4617   0.695   2.656   8.498 -0.3182  0.1187 -0.2946
 1134SOL    HW1 4618   0.641   2.643   8.576  0.3727 -1.1885  0.0037
 1134SOL    HW2 4619   0.659   2.594   8.434 -1.6587  2.0124 -1.4919
 1135SOL     OW 4620   0.192   2.000   0.557  0.1702  0.3970  0.2042
 1135SOL    HW1 4621   0.244   2.076   0.530  1.3424 -0.2949  0.4648
 1135SOL    HW2 4622   0.223   1.929   0.501 -1.5438  0.2664 -0.6601
 1136SOL     OW 4623   0.486   1.830   0.900 -0.1821  0.3205  0.0497
 1136SOL    HW1 4624   0.468   1.880   0.821 -0.0050  0.4025  0.0605
 1136SOL    HW2 4625   0.400   1.808   0.935 -0.2619  0.9897  0.2758
 1137SOL     OW 4626   0.795   2.190   0.067  0.3009 -0.4356 -0.6581
 1137SOL    HW1 4627   0.809   2.275   0.024  1.6284 -1.1602 -1.7548
 1137SOL    HW2 4628   0.774   2.212   0.158 -0.7487  1.0955 -1.2146
 1138SOL     OW 4629   0.750   2.274   0.328  0.2416 -0.5582 -0.2006
 1138SOL    HW1 4630   0.829   2.248   0.376 -0.5769 -0.7424  1.0934
 1138SOL    HW2 4631   0.742   2.368   0.343 -0.2853 -0.7015  0.4567
 1139SOL     OW 4632   1.436   2.912   0.718 -0.1857 -0.2094 -0.0315
 1139SOL    HW1 4633   1.451   2.928   0.625 -0.9769 -1.2681 -0.3600
 1139SOL    HW2 4634   1.449   2.818   0.729 -1.6122 -0.3531  0.6099
 1140SOL     OW 4635   1.057   2.211   1.075 -0.0230 -0.0142 -0.2242
 1140SOL    HW1 4636   1.102   2.273   1.132  0.3377 -0.7502  0.3028
 1140SOL    HW2 4637   1.063   2.251   0.988 -0.8523  1.2780  0.2754
 1141SOL     OW 4638   2.246   2.475   0.354 -0.2585  0.6907 -0.0821
 1141SOL    HW1 4639   2.259   2.389   0.394  1.2794  0.0274 -1.8901
 1141SOL    HW2 4640   2.151   2.486   0.353 -0.5985 -1.6429 -1.0155
 1142SOL     OW 4641   0.402   3.489   0.332 -0.6277 -0.2276 -0.4064
 1142SOL    HW1 4642   0.444   3.526   0.255  0.6563 -2.1115 -0.6860
 1142SOL    HW2 4643   0.317   3.458   0.301  0.1887 -1.6690 -1.3064
 1143SOL     OW 4644   1.621   3.160   0.713 -0.0942 -0.0106  0.4876
 1143SOL    HW1 4645   1.568   3.199   0.644  1.4294  1.0361 -0.1618
 1143SOL    HW2 4646   1.558   3.126   0.776 -1.5628 -1.7910 -1.8117
 1144SOL     OW 4647   1.552   2.138   8.809 -0.0708  0.6324  0.2232
 1144SOL    HW1 4648   1.577   2.159   8.899 -0.0427  1.2357  0.0844
 1144SOL    HW2 4649   1.606   2.063   8.785  1.7092  1.9214 -0.0889
 1145SOL     OW 4650   0.354   2.219   8.546  0.0189 -0.2285 -0.3006
 1145SOL    HW1 4651   0.353   2.146   8.484 -1.8322 -0.4094 -0.1233
 1145SOL    HW2 4652   0.324   2.180   8.628  1.3376  0.2508  0.4340
 1146SOL     OW 4653   1.596   3.398   1.878 -0.4438 -0.0255  0.0675
 1146SOL    HW1 4654   1.540   3.329   1.913  0.9121 -1.5104 -0.5618
 1146SOL    HW2 4655   1.587   3.471   1.940 -3.3523 -0.0292 -0.2442
 1147SOL     OW 4656   0.864   2.802   1.487  0.1397  0.5901 -0.1882
 1147SOL    HW1 4657   0.861   2.894   1.511  0.3912 -0.0867  2.9044
 1147SOL    HW2 4658   0.948   2.771   1.522 -0.2256 -0.9433 -0.5751
 1148SOL     OW 4659   1.092   3.589   2.218  0.2420 -0.0529 -0.2017
 1148SOL    HW1 4660   1.174   3.636   2.230 -0.7304  2.3230 -2.0321
 1148SOL    HW2 4661   1.094   3.558   2.128 -0.0678 -1.7924  0.3378
 1149SOL     OW 4662   0.880   2.862   0.585 -0.3456 -0.0601  0.2272
 1149SOL    HW1 4663   0.829   2.937   0.555 -0.2033 -0.0636 -0.0316
 1149SOL    HW2 4664   0.906   2.817   0.504 -0.0431 -0.1302  0.3610
 1150SOL     OW 4665   1.779   2.801   0.828 -0.3968 -0.1230 -0.3201
 1150SOL    HW1 4666   1.844   2.764   0.768 -0.3598 -1.0726  0.2826
 1150SOL    HW2 4667   1.695   2.786   0.783 -0.1775  1.9057 -1.5110
 1151SOL     OW 4668   0.842   1.780   1.290 -0.3965 -0.6485 -0.2493
 1151SOL    HW1 4669   0.932   1.811   1.298 -1.2136  1.3812  2.3233
 1151SOL    HW2 4670   0.809   1.820   1.209 -0.3485  2.6046  1.2127
 1152SOL     OW 4671   0.955   2.992   1.963 -0.5441  0.0882 -0.0621
 1152SOL    HW1 4672   0.903   2.915   1.983 -1.0532 -0.2577 -2.5040
 1152SOL    HW2 4673   0.912   3.032   1.887  1.3771  1.1381 -0.6652
 1153SOL     OW 4674   0.552   2.596   0.380  0.3853  0.6405  0.1694
 1153SOL    HW1 4675   0.509   2.674   0.414  0.8494  1.3099 -0.7546
 1153SOL    HW2 4676   0.593   2.556   0.457 -1.8125 -0.0034  1.0722
 1154SOL     OW 4677   0.286   2.406   1.202 -0.0425  0.2403 -0.1887
 1154SOL    HW1 4678   0.282   2.445   1.115  2.7323  1.9280  0.3051
 1154SOL    HW2 4679   0.313   2.315   1.187 -1.4365 -0.0406 -1.1341
 1155SOL     OW 4680   0.993   2.161   1.423  0.5113  0.5916  0.1694
 1155SOL    HW1 4681   1.022   2.180   1.513  1.0550  3.0765 -0.4425
 1155SOL    HW2 4682   1.073   2.160   1.372  0.1619 -0.3676 -0.3806
 1156SOL     OW 4683   8.812   3.029   1.352  0.3998  0.2864 -0.3557
 1156SOL    HW1 4684   8.841   2.952   1.302 -0.7867 -0.7793  0.5322
 1156SOL    HW2 4685   8.837   3.103   1.297  0.9975 -0.7502 -1.5569
 1157SOL     OW 4686   0.091   3.095   0.441 -0.3971  0.1156 -0.1960
 1157SOL    HW1 4687   0.066   3.185   0.462  0.0569  0.2142 -0.0776
 1157SOL    HW2 4688   0.112   3.097   0.347 -1.6653 -0.1564 -0.5021
 1158SOL     OW 4689   0.484   2.243   0.322 -0.2778 -0.0116 -0.1656
 1158SOL    HW1 4690   0.578   2.258   0.326  0.0277 -1.9303  2.3193
 1158SOL    HW2 4691   0.447   2.327   0.294  2.1663  0.5615 -1.9601
 1159SOL     OW 4692   1.522   3.242   0.212  0.0818  0.3670 -0.4113
 1159SOL    HW1 4693   1.614   3.239   0.186  0.0639 -1.5528 -0.3578
 1159SOL    HW2 4694   1.505   3.335   0.229  2.0741  0.7283 -0.1820
 1160SOL     OW 4695   1.170   3.048   1.158  0.0046  0.0822 -0.7596
 1160SOL    HW1 4696   1.264   3.041   1.169 -0.3029 -0.9870  1.6620
 1160SOL    HW2 4697   1.148   2.982   1.092  0.7632 -0.8694 -0.0858
 1161SOL     OW 4698   1.605   2.428   0.626  0.0487  0.3014  0.2812
 1161SOL    HW1 4699   1.609   2.342   0.668  2.2087  0.7308  1.1383
 1161SOL    HW2 4700   1.535   2.474   0.672  0.4476 -0.2273  1.4667
 1162SOL     OW 4701   0.271   3.114   1.242 -0.1724 -0.5148  0.1784
 1162SOL    HW1 4702   0.360   3.149   1.238 -0.2528 -0.1932  1.0373
 1162SOL    HW2 4703   0.263   3.079   1.331 -1.0386 -0.1871  0.2325
 1163SOL     OW 4704   0.478   2.415   1.401  0.3229  0.5591  0.0061
 1163SOL    HW1 4705   0.532   2.494   1.403  0.3171  0.5519  1.3164
 1163SOL    HW2 4706   0.414   2.431   1.332  0.4203  1.6339  0.1497
 1164SOL     OW 4707   1.650   2.524   1.684 -0.5448  0.3104 -0.5171
 1164SOL    HW1 4708   1.697   2.599   1.647 -1.3101  1.1199  0.1261
 1164SOL    HW2 4709   1.635   2.547   1.775 -1.3721 -0.3493 -0.4744
 1165SOL     OW 4710   1.047   1.799   1.610  0.4359 -0.3635  0.3797
 1165SOL    HW1 4711   1.108   1.818   1.538  0.1959 -0.0878  0.2464
 1165SOL    HW2 4712   1.028   1.705   1.600  0.2187 -0.2773 -0.0651
 1166SOL     OW 4713   0.399   1.423   1.648  0.1887 -0.7111  0.2453
 1166SOL    HW1 4714   0.405   1.467   1.733  1.2480  1.0587 -0.7086
 1166SOL    HW2 4715   0.398   1.493   1.584  1.1735 -2.0473 -1.3171
 1167SOL     OW 4716   0.543   2.642   1.158  0.0364  0.4701 -0.2774
 1167SOL    HW1 4717   0.451   2.670   1.162 -0.0498  0.1267  0.2968
 1167SOL    HW2 4718   0.588   2.698   1.222  0.0781  0.1027  0.0189
 1168SOL     OW 4719   1.081   2.793   1.040 -0.2426  0.6180  0.3405
 1168SOL    HW1 4720   1.001   2.785   1.091  0.1850 -1.6638  0.7542
 1168SOL    HW2 4721   1.051   2.814   0.952 -1.0610  3.2033  1.1456
 1169SOL     OW 4722   0.979   2.427   0.539  0.3849 -0.3405  0.6515
 1169SOL    HW1 4723   1.007   2.500   0.483 -0.0410  0.2095  1.1369
 1169SOL    HW2 4724   1.006   2.349   0.492 -0.5450  0.0863 -0.6466
 1170SOL     OW 4725   8.666   1.681   0.822 -0.1855 -0.1396 -0.1307
 1170SOL    HW1 4726   8.631   1.638   0.901  0.1533 -0.7728 -0.3169
 1170SOL    HW2 4727   8.644   1.773   0.833 -2.0347 -0.5298 -0.3094
 1171SOL     OW 4728   8.790   2.737   1.273  0.1113  0.0783  1.0373
 1171SOL    HW1 4729   8.826   2.731   1.185 -2.0801  2.1723 -0.1061
 1171SOL    HW2 4730   8.820   2.657   1.317  1.3772 -0.9537 -1.5279
 1172SOL     OW 4731   0.384   2.275   0.741 -0.5548 -0.1235 -0.0833
 1172SOL    HW1 4732   0.348   2.351   0.696 -0.4644  0.5372  0.9532
 1172SOL    HW2 4733   0.466   2.305   0.779  0.0956 -1.0725 -0.6819
 1173SOL     OW 4734   1.634   2.778   2.252  0.0763 -0.0317  0.1554
 1173SOL    HW1 4735   1.599   2.803   2.337 -1.2144 -1.6687  0.1621
 1173SOL    HW2 4736   1.714   2.729   2.272 -0.5468 -0.9438  0.5010
 1174SOL     OW 4737   8.650   2.081   0.247  0.8152  0.0626  0.2044
 1174SOL    HW1 4738   8.601   2.005   0.279  1.3319 -0.4615 -0.2031
 1174SOL    HW2 4739   8.694   2.049   0.168 -0.0142  1.1827 -0.7323
 1175SOL     OW 4740   1.463   2.227   0.824 -0.2311  0.2328  0.6869
 1175SOL    HW1 4741   1.379   2.274   0.820  0.1805  0.9889  0.6289
 1175SOL    HW2 4742   1.509   2.268   0.898 -0.7652 -1.6405  2.1435
 1176SOL     OW 4743   0.484   2.507   0.950 -0.0310 -0.1298  0.2114
 1176SOL    HW1 4744   0.517   2.537   1.035 -0.2333 -2.1425  1.0497
 1176SOL    HW2 4745   0.500   2.413   0.950  0.0646 -0.1642 -2.0617
 1177SOL     OW 4746   0.963   3.182   1.484 -0.1205  0.1262 -0.1935
 1177SOL    HW1 4747   0.893   3.160   1.422  0.4677 -0.6157 -0.6021
 1177SOL    HW2 4748   0.964   3.278   1.485  0.2428  0.1659 -1.7754
 1178SOL     OW 4749   2.036   3.356   2.049  0.0883  1.0275  0.3745
 1178SOL    HW1 4750   1.959   3.300   2.063 -1.4852  2.8311 -0.5100
 1178SOL    HW2 4751   2.111   3.300   2.067 -1.4037 -1.2011 -0.0295
 1179SOL     OW 4752   0.488   2.548   1.805 -0.0704  0.6292 -0.0684
 1179SOL    HW1 4753   0.414   2.525   1.750 -0.3763 -1.3329  1.0687
 1179SOL    HW2 4754   0.545   2.471   1.803  0.9634  1.3297  0.6550
 1180SOL     OW 4755   1.616   2.100   0.241 -0.2357 -0.0557  1.1899
 1180SOL    HW1 4756   1.618   2.004   0.242  1.2500 -0.0410  0.6804
 1180SOL    HW2 4757   1.665   2.126   0.319  0.8399  0.2882  0.4146
 1181SOL     OW 4758   1.273   2.462   0.174  0.2477  0.0214 -0.1450
 1181SOL    HW1 4759   1.350   2.504   0.137  0.3190 -0.2824 -0.3488
 1181SOL    HW2 4760   1.308   2.391   0.228  0.1297  0.2162  0.1908
 1182SOL     OW 4761   1.240   3.018   0.376 -0.2877  0.0625  0.2058
 1182SOL    HW1 4762   1.221   3.086   0.312  1.7747  0.9720  0.4691
 1182SOL    HW2 4763   1.221   2.936   0.331  0.9283  0.6896 -1.5463
 1183SOL     OW 4764   8.775   2.493   1.123 -0.3709 -0.7081  0.0426
 1183SOL    HW1 4765   8.685   2.483   1.152 -0.4267 -1.9555 -0.4940
 1183SOL    HW2 4766   8.801   2.405   1.092  1.0541 -0.4121  0.2964
 1184SOL     OW 4767   0.225   2.165   0.281  0.0229  0.0205  0.1828
 1184SOL    HW1 4768   0.166   2.224   0.327 -0.0356  1.6612 -1.8244
 1184SOL    HW2 4769   0.313   2.197   0.301  0.1837 -1.1458  1.5085
 1185SOL     OW 4770   1.339   2.079   2.099 -0.4967  0.6236  0.4071
 1185SOL    HW1 4771   1.419   2.029   2.110 -0.2297  1.5316  3.6972
 1185SOL    HW2 4772   1.339   2.105   2.007  2.0142 -0.9232 -0.1174
 1186SOL     OW 4773   1.743   2.168   1.553  0.5419 -0.1328 -0.2935
 1186SOL    HW1 4774   1.760   2.207   1.467 -0.9156 -0.4767 -0.7675
 1186SOL    HW2 4775   1.791   2.085   1.552 -0.0578 -0.4890 -1.0875
 1187SOL     OW 4776   8.525   3.468   0.179  0.0087  0.5869 -0.7790
 1187SOL    HW1 4777   8.552   3.557   0.158 -2.2078  1.1234 -1.6561
 1187SOL    HW2 4778   8.507   3.470   0.274  0.8678  0.7965 -0.6169
 1188SOL     OW 4779   8.633   3.544   1.252 -0.0066 -0.4594  0.2906
 1188SOL    HW1 4780   8.614   3.464   1.299  0.5500  0.0688  1.4485
 1188SOL    HW2 4781   8.597   3.614   1.307  1.0278  0.2005  0.1552
 1189SOL     OW 4782   0.278   3.352   0.804  0.3756  0.4909 -0.1513
 1189SOL    HW1 4783   0.333   3.425   0.832  0.5062  1.4430 -2.6337
 1189SOL    HW2 4784   0.329   3.307   0.736 -1.2472  0.5176 -1.4586
 1190SOL     OW 4785   0.545   2.220   0.997  0.4656 -0.1063  0.0391
 1190SOL    HW1 4786   0.621   2.182   1.041  1.0513 -0.8423 -1.5532
 1190SOL    HW2 4787   0.470   2.172   1.032  1.0245 -1.4506 -0.5593
 1191SOL     OW 4788   8.610   1.979   0.923 -0.2532 -0.0431 -0.2496
 1191SOL    HW1 4789   8.645   2.056   0.878 -1.9515  2.5551  2.5043
 1191SOL    HW2 4790   8.673   1.963   0.993  0.2580 -1.4844 -0.9913
 1192SOL     OW 4791   8.816   1.896   1.143  0.1711 -0.1566  0.5099
 1192SOL    HW1 4792   8.911   1.910   1.138  0.1157  1.1872  2.1549
 1192SOL    HW2 4793   8.801   1.873   1.235 -1.2067  0.6516  0.5057
 1193SOL     OW 4794   1.358   2.993   1.624 -0.2238  0.3447 -0.2770
 1193SOL    HW1 4795   1.294   2.998   1.553 -0.7781 -1.3824  0.0659
 1193SOL    HW2 4796   1.305   2.992   1.704 -0.0084 -3.1987 -0.0313
 1194SOL     OW 4797   0.699   2.455   0.037  0.6408 -0.0135  0.0789
 1194SOL    HW1 4798   0.735   2.505   0.109 -1.7882  0.7694  0.8499
 1194SOL    HW2 4799   0.637   2.515  -0.005 -1.3862 -1.8995  0.2157
 1195SOL     OW 4800   1.123   2.763   1.583  0.4904 -0.6534 -0.2207
 1195SOL    HW1 4801   1.165   2.777   1.668 -1.5330 -0.7107  0.8390
 1195SOL    HW2 4802   1.145   2.841   1.532  1.5218 -0.5072  0.4222
 1196SOL     OW 4803   8.787   2.998   2.208  0.2846 -0.4913  0.4399
 1196SOL    HW1 4804   8.880   2.985   2.188  0.5888 -0.3923  1.7225
 1196SOL    HW2 4805   8.776   3.093   2.209 -0.3183 -0.4922 -1.7506
 1197SOL     OW 4806   0.441   2.012   0.704  0.5483  0.4640  0.2810
 1197SOL    HW1 4807   0.488   1.995   0.622  1.6315  0.5639  0.8578
 1197SOL    HW2 4808   0.425   2.106   0.704 -0.0627  0.3625 -0.1269
 1198SOL     OW 4809   1.116   3.741   1.069 -0.3032 -0.3408 -0.3196
 1198SOL    HW1 4810   1.023   3.737   1.094 -0.1492  0.5210  0.4079
 1198SOL    HW2 4811   1.146   3.826   1.098  0.7715 -0.6682 -0.4146
 1199SOL     OW 4812   0.562   2.385   8.591 -0.3035  0.4373 -0.5027
 1199SOL    HW1 4813   0.559   2.439   8.669  0.1199 -0.1423 -0.0742
 1199SOL    HW2 4814   0.494   2.318   8.606  1.3703 -1.1481  0.5137
 1200SOL     OW 4815   0.294   2.717   1.315  0.0506  0.0432 -0.2798
 1200SOL    HW1 4816   0.354   2.736   1.387 -0.6143  2.0063 -0.2094
 1200SOL    HW2 4817   0.222   2.668   1.356 -0.3255  1.1507  0.4049
 1201SOL     OW 4818   1.260   2.615   1.143 -0.1034 -0.3005  0.0191
 1201SOL    HW1 4819   1.189   2.678   1.130 -0.2482  0.5407  3.7149
 1201SOL    HW2 4820   1.219   2.542   1.190  1.2021 -0.3352  1.1738
 1202SOL     OW 4821   1.337   2.189   0.250 -0.0784 -0.4605  0.1258
 1202SOL    HW1 4822   1.281   2.114   0.272 -1.2881 -0.5787 -2.9257
 1202SOL    HW2 4823   1.424   2.151   0.239 -0.4318 -1.2162 -0.1680
 1203SOL     OW 4824   1.583   3.539   1.177  0.2491  0.4857  0.0490
 1203SOL    HW1 4825   1.558   3.611   1.235 -1.8043 -0.3947  0.3765
 1203SOL    HW2 4826   1.533   3.464   1.209  0.7807 -0.5903 -1.4922
 1204SOL     OW 4827   1.192   3.568   0.871 -0.8466 -0.0436  0.3892
 1204SOL    HW1 4828   1.177   3.629   0.944 -0.8692  0.0847  0.2777
 1204SOL    HW2 4829   1.254   3.503   0.906  0.6318  1.0751 -0.0565
 1205SOL     OW 4830   0.062   3.300   1.220  0.1548 -0.1142  0.5404
 1205SOL    HW1 4831   0.092   3.377   1.268 -0.0454  0.4552 -0.2344
 1205SOL    HW2 4832   0.129   3.233   1.236  0.2959  0.1922  1.2682
 1206SOL     OW 4833   0.483   3.430   1.667 -0.0622  0.0453 -0.7617
 1206SOL    HW1 4834   0.470   3.351   1.720 -0.0542  1.1614  0.9887
 1206SOL    HW2 4835   0.567   3.416   1.623 -0.1288 -0.9741 -0.5809
 1207SOL     OW 4836   1.223   1.754   8.726 -0.3823 -0.2586  0.4451
 1207SOL    HW1 4837   1.184   1.709   8.801  0.9969 -0.7898  0.8736
 1207SOL    HW2 4838   1.294   1.696   8.697  0.2008  0.7376 -0.2002
 1208SOL     OW 4839   1.773   2.161   0.460 -0.0997 -0.2261  1.0286
 1208SOL    HW1 4840   1.766   2.152   0.555 -0.7081  2.1231  1.2702
 1208SOL    HW2 4841   1.863   2.188   0.445 -0.9208  3.0855  1.3939
 1209SOL     OW 4842   1.455   3.734   0.562 -0.4046 -0.9155  0.3086
 1209SOL    HW1 4843   1.529   3.723   0.502 -1.0454 -1.8255 -0.3275
 1209SOL    HW2 4844   1.466   3.665   0.627 -0.6507 -1.0016  0.2588
 1210SOL     OW 4845   8.850   3.403   1.979 -0.5416 -0.0456 -0.2942
 1210SOL    HW1 4846   8.916   3.471   1.992 -1.1849  0.7192 -0.8997
 1210SOL    HW2 4847   8.880   3.355   1.901  0.4535 -1.1390  0.7316
 1211SOL     OW 4848   1.326   2.660   0.493 -0.0920  0.4936  0.0592
 1211SOL    HW1 4849   1.265   2.717   0.538  0.2561  0.5065  0.5287
 1211SOL    HW2 4850   1.362   2.604   0.562 -1.7499 -1.5492 -0.6230
 1212SOL     OW 4851   0.855   2.817   1.190  0.3834  0.3646  0.4228
 1212SOL    HW1 4852   0.827   2.767   1.267  0.7945  0.6464  0.7594
 1212SOL    HW2 4853   0.795   2.891   1.185  0.8609  0.8029  0.9671
 1213SOL     OW 4854   0.632   3.538   8.773 -0.6683 -0.2442  0.1118
 1213SOL    HW1 4855   0.668   3.489   8.847  0.8285  0.7599  0.1047
 1213SOL    HW2 4856   0.541   3.553   8.795 -0.0870  0.6126  2.0940
 1214SOL     OW 4857   1.366   3.652   1.842 -0.2735  0.0064 -0.0871
 1214SOL    HW1 4858   1.413   3.718   1.893  2.1838  0.5823 -2.8488
 1214SOL    HW2 4859   1.434   3.608   1.791 -2.5119 -0.4958 -2.8805
 1215SOL     OW 4860   2.208   1.960   1.186  0.1335 -0.3049  0.4059
 1215SOL    HW1 4861   2.170   1.874   1.204  1.9473 -1.6958 -1.8287
 1215SOL    HW2 4862   2.204   2.006   1.270 -2.5826 -1.8417  1.2276
 1216SOL     OW 4863   0.086   2.321   0.471 -0.1030 -0.2014 -0.3486
 1216SOL    HW1 4864   0.070   2.351   0.561  0.0510 -1.6411  0.1813
 1216SOL    HW2 4865  -0.001   2.306   0.435 -0.1461 -0.9934  0.0597
 1217SOL     OW 4866   1.326   3.630   8.843  0.8265  0.5539 -0.4292
 1217SOL    HW1 4867   1.388   3.558   8.853  0.1768 -0.0427 -0.6385
 1217SOL    HW2 4868   1.280   3.635   8.927  0.8860  0.7450 -0.4065
 1218SOL     OW 4869   0.790   2.453   1.178  0.0488 -0.1207  0.4655
 1218SOL    HW1 4870   0.786   2.361   1.152  1.5352 -0.0341 -0.1865
 1218SOL    HW2 4871   0.700   2.485   1.172 -0.4154 -1.4272  0.3250
 1219SOL     OW 4872   0.795   2.570   0.267 -0.0407 -0.3737 -0.0151
 1219SOL    HW1 4873   0.713   2.590   0.312  0.1818 -0.3562  0.3870
 1219SOL    HW2 4874   0.850   2.646   0.282 -0.0259 -0.2936 -0.4680
 1220SOL     OW 4875   1.504   3.550   0.759 -0.2305  0.1670  0.1167
 1220SOL    HW1 4876   1.433   3.521   0.815  0.6231 -0.2443  1.0200
 1220SOL    HW2 4877   1.579   3.496   0.784  0.7310  1.4199  0.0791
 1221SOL     OW 4878   0.640   2.959   1.118  0.3763  0.3933 -0.2678
 1221SOL    HW1 4879   0.573   3.016   1.079  0.3023  0.0734 -0.6144
 1221SOL    HW2 4880   0.629   2.875   1.073 -0.5643 -0.3988  1.3591
 1222SOL     OW 4881   1.440   3.041   1.137 -0.6366 -0.4946  0.0178
 1222SOL    HW1 4882   1.516   2.990   1.166  0.2207  1.0752  0.6668
 1222SOL    HW2 4883   1.449   3.044   1.042  1.9663  2.2354  0.1928
 1223SOL     OW 4884   0.609   3.258   0.773 -0.2619 -0.2147  0.0739
 1223SOL    HW1 4885   0.664   3.327   0.810  0.1717  0.1557 -1.2053
 1223SOL    HW2 4886   0.570   3.298   0.695 -1.6091 -0.7834  0.4228
 1224SOL     OW 4887   0.808   1.987   0.757  0.3058  0.4293 -0.3716
 1224SOL    HW1 4888   0.896   2.019   0.735  0.7338 -0.4142  0.0742
 1224SOL    HW2 4889   0.813   1.964   0.850 -0.5732  0.9561 -0.1744
 1225SOL     OW 4890   0.136   3.216   0.153  0.3260 -0.0139  0.4595
 1225SOL    HW1 4891   0.045   3.188   0.138  0.7450 -0.4168 -1.6403
 1225SOL    HW2 4892   0.127   3.302   0.195 -1.0081 -0.4878  1.2155
 1226SOL     OW 4893   1.368   2.642   1.402  0.1593 -0.6244 -0.5312
 1226SOL    HW1 4894   1.416   2.717   1.437  0.4325 -0.3039 -1.5621
 1226SOL    HW2 4895   1.349   2.665   1.312 -0.8751 -1.2738 -0.4942
 1227SOL     OW 4896   0.046   3.371   0.547 -0.3830  0.0624  0.2098
 1227SOL    HW1 4897   0.084   3.432   0.484  0.6049 -1.0582 -0.3231
 1227SOL    HW2 4898  -0.018   3.423   0.595 -0.3368  1.2389 -0.9379
 1228SOL     OW 4899   0.117   2.106   1.423 -0.0153 -0.2818 -0.2722
 1228SOL    HW1 4900   0.098   2.123   1.330 -0.7045 -0.4884 -0.1758
 1228SOL    HW2 4901   0.061   2.166   1.471 -1.3525 -1.6931  0.0361
 1229SOL     OW 4902   0.581   1.772   1.563  0.3871  0.5390 -0.0422
 1229SOL    HW1 4903   0.652   1.831   1.590  0.6094 -0.5822  1.9959
 1229SOL    HW2 4904   0.616   1.684   1.579 -1.0791 -0.0561 -0.0048
 1230SOL     OW 4905   8.674   2.695   0.120 -0.4929 -0.3860 -0.0309
 1230SOL    HW1 4906   8.712   2.626   0.066 -0.3733  0.5447 -1.1869
 1230SOL    HW2 4907   8.741   2.764   0.121 -0.0297 -0.7763  2.2271
 1231SOL     OW 4908   1.155   2.996   1.427  0.0191 -0.2219  0.0422
 1231SOL    HW1 4909   1.104   3.071   1.459  0.6540  0.8787 -1.4275
 1231SOL    HW2 4910   1.145   2.999   1.332  2.9129  0.1634 -0.3489
 1232SOL     OW 4911   0.055   2.164   0.048 -0.2373  0.2260  0.1326
 1232SOL    HW1 4912   0.008   2.244   0.071 -1.3464 -0.5474  0.6885
 1232SOL    HW2 4913   0.096   2.135   0.130  0.2133  0.2498 -0.0782
 1233SOL     OW 4914   0.932   3.020   0.172  0.0530 -0.5864  0.1021
 1233SOL    HW1 4915   0.970   3.051   0.090 -0.5155  1.8269  0.6942
 1233SOL    HW2 4916   0.840   3.047   0.168 -0.1506 -1.0508  1.2587
 1234SOL     OW 4917   0.683   2.605   1.439 -0.4189 -0.3087 -0.2760
 1234SOL    HW1 4918   0.741   2.676   1.467 -1.3015  0.3979 -0.1975
 1234SOL    HW2 4919   0.738   2.527   1.441 -0.1576 -0.1526  2.4892
 1235SOL     OW 4920   1.685   3.884   1.332 -0.1730  0.5071 -0.1105
 1235SOL    HW1 4921   1.672   3.902   1.239 -0.1674  0.0476 -0.2016
 1235SOL    HW2 4922   1.731   3.800   1.335  0.1991  0.7161  0.2962
 1236SOL     OW 4923   0.719   2.679   1.946 -0.4641  0.4498  0.3490
 1236SOL    HW1 4924   0.685   2.618   1.881 -3.2399  2.1921 -0.0217
 1236SOL    HW2 4925   0.766   2.624   2.009 -0.0613 -1.6028 -1.6381
 1237SOL     OW 4926   1.070   3.525   1.684 -0.2502  0.2018 -0.1485
 1237SOL    HW1 4927   1.093   3.435   1.704 -2.1168 -0.3224 -0.1809
 1237SOL    HW2 4928   1.142   3.557   1.629  0.3172 -1.3323 -0.3301
 1238SOL     OW 4929   0.236   3.332   1.489  0.4506 -0.1959 -0.5306
 1238SOL    HW1 4930   0.332   3.324   1.486  0.4917  0.4019 -0.9311
 1238SOL    HW2 4931   0.218   3.415   1.446 -0.1568  0.3993  0.8424
 1239SOL     OW 4932   1.506   2.715   1.020  0.6981 -0.3697  0.2352
 1239SOL    HW1 4933   1.421   2.707   1.065  0.1333 -0.4502 -0.8271
 1239SOL    HW2 4934   1.557   2.774   1.076 -0.4704  0.6081  0.3068
 1240SOL     OW 4935   1.289   2.001   0.607  0.0462 -0.2787  0.2260
 1240SOL    HW1 4936   1.335   1.922   0.579  2.0631  0.4868  1.2055
 1240SOL    HW2 4937   1.310   2.067   0.541  0.0949 -0.0101  0.5063
 1241SOL     OW 4938   0.547   2.793   0.872 -0.6444  0.0486 -0.5309
 1241SOL    HW1 4939   0.528   2.699   0.881 -1.2871  0.1679 -0.5842
 1241SOL    HW2 4940   0.461   2.834   0.867 -0.3627  0.6210 -0.7426
 1242SOL     OW 4941   1.608   1.909   2.133 -0.3661  0.2988 -0.3685
 1242SOL    HW1 4942   1.548   1.896   2.206  2.0913 -2.5727  1.4338
 1242SOL    HW2 4943   1.633   2.001   2.138 -0.4873  0.2770  2.3248
 1243SOL     OW 4944   1.626   2.865   1.205 -0.3046  0.0644  0.1780
 1243SOL    HW1 4945   1.611   2.851   1.298 -2.2945 -0.6422 -0.1860
 1243SOL    HW2 4946   1.716   2.897   1.199 -0.7586  2.0470  2.5045
 1244SOL     OW 4947   0.638   3.365   0.204 -0.1998 -0.1976 -0.0468
 1244SOL    HW1 4948   0.580   3.396   0.273  0.7584 -0.9925  1.1742
 1244SOL    HW2 4949   0.657   3.274   0.228  2.5179  0.3902  0.3433
 1245SOL     OW 4950   0.811   3.401   0.850 -0.4995  0.1707 -0.1819
 1245SOL    HW1 4951   0.843   3.381   0.938 -1.4107 -1.1946 -0.1248
 1245SOL    HW2 4952   0.877   3.364   0.791 -0.3700  0.2407 -0.0816
 1246SOL     OW 4953   1.160   3.120   0.642  0.5967  0.1381 -0.2921
 1246SOL    HW1 4954   1.105   3.198   0.650  1.2063  0.4521  1.0761
 1246SOL    HW2 4955   1.161   3.101   0.548  0.9934  2.1684 -0.7432
 1247SOL     OW 4956   0.947   2.789   0.320 -0.4391  0.5970  0.0303
 1247SOL    HW1 4957   1.041   2.796   0.300 -0.1599  0.6456  1.2240
 1247SOL    HW2 4958   0.908   2.865   0.278  0.1100  0.7297 -0.2547
 1248SOL     OW 4959   1.507   3.749   0.951  0.6610 -0.1989  0.2374
 1248SOL    HW1 4960   1.474   3.680   1.009 -1.6647  0.6335 -0.0086
 1248SOL    HW2 4961   1.539   3.702   0.874  0.4677 -1.0889  0.6889
 1249SOL     OW 4962   0.240   3.047   1.508 -0.2193 -0.1558 -0.3978
 1249SOL    HW1 4963   0.271   3.013   1.592  0.7068  0.1157 -0.6131
 1249SOL    HW2 4964   0.214   3.137   1.527 -0.8523 -0.3728 -0.2230
 1250SOL     OW 4965   0.033   3.187   0.816 -0.5666  0.1010  0.4097
 1250SOL    HW1 4966   0.118   3.226   0.835 -0.3229 -0.6398  0.8816
 1250SOL    HW2 4967   0.020   3.201   0.722  0.8121 -1.1727 -0.0054
 1251SOL     OW 4968   0.854   3.110   1.739  0.3127 -0.9086  0.0990
 1251SOL    HW1 4969   0.864   3.203   1.757  0.4591 -0.9819  0.4128
 1251SOL    HW2 4970   0.858   3.102   1.644  0.4938 -0.6186  0.0840
 1252SOL     OW 4971   1.627   2.329   1.301  0.8229  0.0435 -0.1756
 1252SOL    HW1 4972   1.686   2.404   1.304  1.0704 -0.1152 -0.9290
 1252SOL    HW2 4973   1.572   2.338   1.379  1.1089  0.7920 -0.0583
 1253SOL     OW 4974   8.791   2.409   0.162  0.0978  0.6737  0.5541
 1253SOL    HW1 4975   8.771   2.452   0.079 -0.7045  0.3949  0.5933
 1253SOL    HW2 4976   8.754   2.468   0.228 -0.8858  0.0031  0.6134
 1254SOL     OW 4977   1.268   3.356   1.467 -0.2094 -0.0166 -0.5498
 1254SOL    HW1 4978   1.248   3.307   1.546  0.0905 -0.0385 -0.4861
 1254SOL    HW2 4979   1.241   3.446   1.486  1.3993  0.3469  0.2068
 1255SOL     OW 4980   0.258   2.037   0.923  0.3763 -0.2221  0.3098
 1255SOL    HW1 4981   0.310   2.008   0.849 -2.5493  0.2508 -2.1190
 1255SOL    HW2 4982   0.201   1.962   0.943 -0.0699  0.2728  0.9326
 1256SOL     OW 4983   1.136   3.303   0.313 -0.4133 -0.1900 -0.1441
 1256SOL    HW1 4984   1.051   3.286   0.353 -0.3369 -1.5060 -0.4851
 1256SOL    HW2 4985   1.160   3.391   0.342 -0.8354 -0.6933  1.8713
 1257SOL     OW 4986   1.158   2.376   1.270 -0.0462 -0.0711 -0.1459
 1257SOL    HW1 4987   1.220   2.305   1.288  0.0933 -0.3745 -1.6983
 1257SOL    HW2 4988   1.145   2.418   1.355  0.8624 -1.1465  0.5617
 1258SOL     OW 4989   1.168   1.934   1.076 -0.3018 -0.1370 -0.8082
 1258SOL    HW1 4990   1.260   1.956   1.058  0.9916 -0.5570  3.8849
 1258SOL    HW2 4991   1.129   2.017   1.103 -0.7718 -0.2927 -1.0123
 1259SOL     OW 4992   0.714   3.079   0.547 -0.4321  0.2032  0.4194
 1259SOL    HW1 4993   0.634   3.037   0.515 -0.6749  0.2833  0.9076
 1259SOL    HW2 4994   0.685   3.129   0.624  0.1551 -0.0597  0.8156
 1260SOL     OW 4995   0.763   3.087   1.329  0.1109 -0.2078  0.5429
 1260SOL    HW1 4996   0.701   3.060   1.397 -1.1379  0.9521 -0.0927
 1260SOL    HW2 4997   0.721   3.061   1.247 -0.1850  1.7632  0.0283
 1261SOL     OW 4998   1.746   1.886   8.802 -0.1543 -0.0153  0.0479
 1261SOL    HW1 4999   1.832   1.845   8.814  0.6397  1.0208 -1.7095
 1261SOL    HW2 5000   1.718   1.860   8.714 -0.5528  1.5147 -0.3074
 1262SOL     OW 5001   1.118   2.351   0.797  0.0117  0.4518 -0.1325
 1262SOL    HW1 5002   1.064   2.376   0.722  1.0295  0.6622 -0.8183
 1262SOL    HW2 5003   1.098   2.418   0.863  0.0431  1.0103 -0.6735
 1263SOL     OW 5004   1.694   2.089   1.035 -0.6667  0.0918 -0.0546
 1263SOL    HW1 5005   1.649   2.171   1.054 -0.7225  0.0882 -0.1674
 1263SOL    HW2 5006   1.735   2.063   1.117  0.3723  0.8677 -0.3134
 1264SOL     OW 5007   0.211   2.950   0.639 -0.1114 -0.1526  0.2539
 1264SOL    HW1 5008   0.293   2.924   0.597  1.4164  2.9695  1.0583
 1264SOL    HW2 5009   0.158   2.985   0.567  0.8726  1.4157  0.2457
 1265SOL     OW 5010   0.695   4.018   0.138 -0.2037 -0.3236  0.3034
 1265SOL    HW1 5011   0.696   4.040   0.045 -0.5628 -1.8153 -0.0832
 1265SOL    HW2 5012   0.603   4.000   0.157 -0.0263 -0.8037  0.7376
 1266SOL     OW 5013   0.542   1.934   1.308  0.5195 -0.1610  0.1733
 1266SOL    HW1 5014   0.557   1.860   1.366  1.5242 -0.4426 -0.4274
 1266SOL    HW2 5015   0.615   1.932   1.246 -0.9087 -0.3551 -1.6065
 1267SOL     OW 5016   8.705   1.916   3.062  0.2750 -0.5113  0.0493
 1267SOL    HW1 5017   8.750   1.980   3.007 -0.0985 -0.5386 -0.2957
 1267SOL    HW2 5018   8.742   1.928   3.149 -2.0723  2.4896  0.7866
 1268SOL     OW 5019   8.800   2.367   2.614 -0.0099 -0.2888 -0.7773
 1268SOL    HW1 5020   8.823   2.390   2.704 -0.7866  0.3975 -0.7413
 1268SOL    HW2 5021   8.857   2.420   2.560 -1.1679  1.1007 -0.6871
 1269SOL     OW 5022   0.856   3.245   3.051  0.0965  0.1503 -0.7244
 1269SOL    HW1 5023   0.781   3.303   3.036 -0.1645  0.0638  0.1659
 1269SOL    HW2 5024   0.816   3.163   3.080  0.5137 -0.1050 -0.8717
 1270SOL     OW 5025   1.694   3.786   3.031  0.0053  0.4217  0.2430
 1270SOL    HW1 5026   1.603   3.764   3.011 -0.3045  1.1959  0.7492
 1270SOL    HW2 5027   1.697   3.881   3.029  0.6057  0.4349  1.0796
 1271SOL     OW 5028   1.239   2.310   2.764  0.2871  0.4615 -0.7502
 1271SOL    HW1 5029   1.334   2.316   2.760  0.3673 -1.0939 -3.5005
 1271SOL    HW2 5030   1.211   2.312   2.673 -2.4614  2.0136  0.0115
 1272SOL     OW 5031   1.565   2.286   2.238 -0.2685 -0.6324 -0.3381
 1272SOL    HW1 5032   1.587   2.237   2.317 -2.4388 -0.1109  0.6949
 1272SOL    HW2 5033   1.618   2.247   2.169 -0.5039 -3.1680  0.7920
 1273SOL     OW 5034   1.057   3.084   2.571  0.4238  0.2484 -0.2703
 1273SOL    HW1 5035   1.022   3.135   2.644  1.9618  0.2420  0.5219
 1273SOL    HW2 5036   1.149   3.069   2.594  0.7279 -0.4974 -1.8106
 1274SOL     OW 5037   0.749   2.439   3.571 -0.2139  0.2265  0.4592
 1274SOL    HW1 5038   0.686   2.369   3.556 -0.5957  0.7027 -0.2298
 1274SOL    HW2 5039   0.717   2.512   3.518  1.4854  0.1644 -0.7465
 1275SOL     OW 5040   0.936   2.819   2.492 -0.0853 -0.2196 -0.1147
 1275SOL    HW1 5041   0.937   2.889   2.557  1.5945 -0.8301  0.5656
 1275SOL    HW2 5042   1.000   2.846   2.426  1.3933 -1.5711  0.7087
 1276SOL     OW 5043   0.803   3.153   4.065  0.6264 -0.4660 -0.2137
 1276SOL    HW1 5044   0.865   3.129   4.134  0.4476 -0.2866  0.0086
 1276SOL    HW2 5045   0.720   3.165   4.110 -0.3550 -3.7467 -0.8808
 1277SOL     OW 5046   0.309   3.304   2.594  0.1235  0.2425 -0.2778
 1277SOL    HW1 5047   0.337   3.225   2.640 -0.6980 -0.2974 -0.6800
 1277SOL    HW2 5048   0.244   3.344   2.651 -1.7856 -1.0633 -1.4393
 1278SOL     OW 5049   1.209   3.284   3.660 -0.0808 -0.9872 -0.1983
 1278SOL    HW1 5050   1.201   3.343   3.735  3.4524  0.0796 -0.5059
 1278SOL    HW2 5051   1.237   3.201   3.697  0.8509 -0.6972 -0.2312
 1279SOL     OW 5052   8.584   2.116   2.828  0.3736  0.2022 -0.2348
 1279SOL    HW1 5053   8.673   2.111   2.863  0.5855  2.1651 -0.3857
 1279SOL    HW2 5054   8.595   2.128   2.734 -0.0593  0.4393 -0.2584
 1280SOL     OW 5055   1.023   1.825   2.834 -0.2918  0.0232  0.2263
 1280SOL    HW1 5056   1.090   1.757   2.826 -0.2704  0.2594 -3.4889
 1280SOL    HW2 5057   1.072   1.907   2.837 -0.3661  0.0870 -0.2274
 1281SOL     OW 5058   0.268   3.328   2.084  0.2847  0.4008 -0.1673
 1281SOL    HW1 5059   0.308   3.348   1.999  2.6510 -1.8068  0.3034
 1281SOL    HW2 5060   0.254   3.233   2.081 -2.3907  0.6946  0.8396
 1282SOL     OW 5061   0.734   2.704   3.476  0.7355 -0.7351 -0.2956
 1282SOL    HW1 5062   0.729   2.768   3.547  0.8966  0.0545 -0.9791
 1282SOL    HW2 5063   0.827   2.696   3.456  1.0859 -3.6619  1.9418
 1283SOL     OW 5064   0.382   2.972   2.497 -0.1721  0.6472  0.1691
 1283SOL    HW1 5065   0.316   2.999   2.560 -0.0147 -0.1236  0.6742
 1283SOL    HW2 5066   0.369   2.878   2.486  0.9592  0.4390  0.4326
 1284SOL     OW 5067   0.718   3.248   2.652 -0.3750 -0.0037  0.3829
 1284SOL    HW1 5068   0.759   3.254   2.738  0.0826 -1.1274  0.2539
 1284SOL    HW2 5069   0.771   3.303   2.596 -0.7473  0.8362  0.8325
 1285SOL     OW 5070   0.345   3.539   2.978 -0.0189 -0.0993 -0.1264
 1285SOL    HW1 5071   0.276   3.473   2.980 -0.2446  0.1310 -0.2449
 1285SOL    HW2 5072   0.351   3.572   3.067 -1.6149  1.4739 -0.5604
 1286SOL     OW 5073   0.617   3.267   2.025  0.1232  0.0371 -0.1957
 1286SOL    HW1 5074   0.708   3.266   1.995  0.0879 -2.0740 -0.3610
 1286SOL    HW2 5075   0.602   3.357   2.053  2.6827  0.1268  1.1468
 1287SOL     OW 5076   1.630   2.407   3.288  0.4835  0.2199  0.5144
 1287SOL    HW1 5077   1.670   2.387   3.203  0.3262  0.4101  0.3937
 1287SOL    HW2 5078   1.705   2.419   3.347  0.6027  0.3827  0.3340
 1288SOL     OW 5079   8.721   2.522   2.230 -0.5275 -0.2796  0.0349
 1288SOL    HW1 5080   8.800   2.492   2.185 -1.0834 -0.3835 -0.9102
 1288SOL    HW2 5081   8.652   2.465   2.197 -0.8497 -0.8688  1.6320
 1289SOL     OW 5082   2.259   4.026   2.123 -0.0953  0.2435  0.0305
 1289SOL    HW1 5083   2.195   4.005   2.192 -1.8275  0.5278 -1.3956
 1289SOL    HW2 5084   2.258   4.122   2.118 -0.4329  0.2061 -0.7639
 1290SOL     OW 5085   0.024   3.340   1.709 -0.2206 -0.6443 -0.4106
 1290SOL    HW1 5086   0.108   3.329   1.664 -0.6460 -0.2581 -1.3370
 1290SOL    HW2 5087  -0.032   3.273   1.669 -0.9365  0.4555 -1.3181
 1291SOL     OW 5088   1.900   2.582   2.588 -0.2084 -0.3325 -0.0018
 1291SOL    HW1 5089   1.926   2.524   2.660  0.7564  0.3567  0.2246
 1291SOL    HW2 5090   1.938   2.667   2.610  0.5702 -0.2256 -1.5688
 1292SOL     OW 5091   2.100   3.033   2.988 -0.0457 -0.4178 -0.0267
 1292SOL    HW1 5092   2.160   3.010   2.917  0.0009  1.6454 -0.7164
 1292SOL    HW2 5093   2.153   3.083   3.050 -1.0903  1.8030 -0.8512
 1293SOL     OW 5094   0.214   2.273   3.565 -0.1138 -0.4667 -0.1842
 1293SOL    HW1 5095   0.182   2.200   3.512 -1.8845 -1.3499  1.9521
 1293SOL    HW2 5096   0.254   2.231   3.641  0.5473  0.7846  0.1728
 1294SOL     OW 5097   0.498   3.446   2.469 -0.5491  0.2203  0.0245
 1294SOL    HW1 5098   0.580   3.398   2.457 -0.3435  0.6542 -0.3411
 1294SOL    HW2 5099   0.443   3.387   2.521 -0.0181 -0.0861  0.2503
 1295SOL     OW 5100   1.195   2.496   2.952 -0.3385  0.5559 -0.3582
 1295SOL    HW1 5101   1.203   2.585   2.917 -0.0537  0.4400 -0.5910
 1295SOL    HW2 5102   1.225   2.440   2.881  1.8380  0.3786  0.6185
 1296SOL     OW 5103   1.050   1.647   2.271 -0.6736  0.0610  0.5831
 1296SOL    HW1 5104   0.994   1.690   2.335  0.0656  1.3488  0.3900
 1296SOL    HW2 5105   1.086   1.718   2.219  0.7577 -0.7745  0.3848
 1297SOL     OW 5106   0.007   3.112   3.014  0.4116  0.2813  0.2730
 1297SOL    HW1 5107  -0.079   3.070   3.024  0.0257  0.8224 -0.6219
 1297SOL    HW2 5108   0.070   3.040   3.019 -0.2292 -0.4339 -1.1529
 1298SOL     OW 5109   1.416   3.204   1.944 -0.5027 -0.4128 -0.5694
 1298SOL    HW1 5110   1.453   3.122   1.910 -0.1992 -0.7581  0.5409
 1298SOL    HW2 5111   1.395   3.184   2.036 -1.0153  0.5700 -0.4631
 1299SOL     OW 5112   1.506   3.849   3.833  0.5339 -0.2761 -0.2224
 1299SOL    HW1 5113   1.474   3.922   3.887  2.4848  0.0246  0.6422
 1299SOL    HW2 5114   1.599   3.869   3.820  0.9376 -2.2447 -0.6003
 1300SOL     OW 5115   0.332   2.432   4.032 -0.3725 -0.2714 -0.5813
 1300SOL    HW1 5116   0.337   2.341   4.060  2.3986  0.0092  0.0807
 1300SOL    HW2 5117   0.396   2.440   3.961 -1.1636  0.9940 -1.1933
 1301SOL     OW 5118   1.743   3.394   3.168  0.1077  0.3837  0.7862
 1301SOL    HW1 5119   1.703   3.475   3.199  1.5157  1.1938  0.5345
 1301SOL    HW2 5120   1.760   3.410   3.075  0.9683  0.0408  0.8770
 1302SOL     OW 5121   1.918   3.649   2.684  0.6129 -0.2903  0.3917
 1302SOL    HW1 5122   1.899   3.626   2.775 -1.4888  0.4106  0.1819
 1302SOL    HW2 5123   1.894   3.571   2.634  0.8241 -0.3321  0.3563
 1303SOL     OW 5124   1.139   2.867   2.335 -0.7565 -0.2607  0.7344
 1303SOL    HW1 5125   1.126   2.945   2.282  1.0154 -0.0792  0.4820
 1303SOL    HW2 5126   1.121   2.794   2.275 -1.9642 -0.0714  0.8445
 1304SOL     OW 5127   1.174   2.047   2.843 -0.6536 -0.0293 -0.3110
 1304SOL    HW1 5128   1.136   2.065   2.929 -1.2327 -0.2501 -0.5121
 1304SOL    HW2 5129   1.204   2.132   2.812 -0.0534 -0.0173  0.2870
 1305SOL     OW 5130   1.668   3.591   2.065  0.1261 -0.7689  0.0911
 1305SOL    HW1 5131   1.760   3.568   2.049  0.6661  1.2123  0.0728
 1305SOL    HW2 5132   1.672   3.672   2.115 -1.6133 -0.2606 -0.5243
 1306SOL     OW 5133   0.371   2.472   3.236 -0.5963  0.0380 -0.6260
 1306SOL    HW1 5134   0.301   2.519   3.191 -1.3594  1.3409  1.7367
 1306SOL    HW2 5135   0.385   2.522   3.317  3.0819 -0.1748 -0.9683
 1307SOL     OW 5136   1.367   2.570   3.368 -0.4348  0.3443 -0.5510
 1307SOL    HW1 5137   1.446   2.516   3.376  0.3678  1.5131 -0.3321
 1307SOL    HW2 5138   1.384   2.627   3.293 -0.9782  0.7473 -0.3752
 1308SOL     OW 5139   0.689   3.303   3.319  0.3050 -0.4127  0.5793
 1308SOL    HW1 5140   0.728   3.221   3.288  1.4233  0.7292 -1.1860
 1308SOL    HW2 5141   0.685   3.359   3.241 -0.3280  1.2602  1.7581
 1309SOL     OW 5142   0.795   2.597   3.030  0.2893  0.2713 -0.8271
 1309SOL    HW1 5143   0.754   2.604   2.943  1.1328 -1.6588 -1.4460
 1309SOL    HW2 5144   0.772   2.509   3.060  0.4452  0.7276  0.6944
 1310SOL     OW 5145   1.169   2.316   2.223  0.2498  0.3456 -0.1162
 1310SOL    HW1 5146   1.258   2.282   2.210  0.1634  0.4457 -1.0769
 1310SOL    HW2 5147   1.113   2.238   2.214  0.1762  0.4398 -0.4747
 1311SOL     OW 5148   8.518   3.241   2.508  0.6521 -0.5983  0.0186
 1311SOL    HW1 5149   8.470   3.160   2.520 -1.2350  0.2897 -1.0292
 1311SOL    HW2 5150   8.485   3.276   2.425  0.4508  1.8650  1.0613
 1312SOL     OW 5151   8.714   3.072   3.441  0.3184 -0.3085  0.0253
 1312SOL    HW1 5152   8.780   3.119   3.390  1.3817 -1.3537  0.3909
 1312SOL    HW2 5153   8.644   3.136   3.454  1.7964  1.2593  0.6871
 1313SOL     OW 5154   0.901   2.123   2.055  0.5655 -0.2575 -0.6188
 1313SOL    HW1 5155   0.913   2.183   1.982  1.3259 -0.5009 -0.6973
 1313SOL    HW2 5156   0.850   2.050   2.019  1.0232 -0.4236 -0.9252
 1314SOL     OW 5157   1.456   2.812   3.690 -0.4250  0.1147 -0.4149
 1314SOL    HW1 5158   1.476   2.749   3.621  0.7188  0.3365 -0.3085
 1314SOL    HW2 5159   1.428   2.759   3.764 -1.2032 -0.1527 -0.8925
 1315SOL     OW 5160   2.059   2.782   2.753 -0.3286 -0.2497  0.7127
 1315SOL    HW1 5161   2.062   2.822   2.666 -1.6104  1.3440  1.3594
 1315SOL    HW2 5162   2.151   2.763   2.773  0.3864  2.3244  0.3027
 1316SOL     OW 5163   0.265   2.239   2.477 -0.5697 -0.3831 -0.6838
 1316SOL    HW1 5164   0.312   2.161   2.506  0.2587  1.0493  2.1754
 1316SOL    HW2 5165   0.329   2.310   2.485 -2.0591  1.0134 -0.5666
 1317SOL     OW 5166   1.535   3.545   2.635  0.0473 -0.3550  0.2759
 1317SOL    HW1 5167   1.621   3.504   2.639  0.8172  1.0684 -0.6938
 1317SOL    HW2 5168   1.531   3.584   2.548 -1.0940  0.6056  0.7334
 1318SOL     OW 5169   0.075   3.394   2.672  0.3750 -0.1966  0.1943
 1318SOL    HW1 5170   0.024   3.339   2.612 -1.5234  3.3946 -1.8383
 1318SOL    HW2 5171   0.017   3.406   2.748  0.7841 -0.8808  0.6314
 1319SOL     OW 5172   1.846   2.704   2.899  0.2980  0.2673  0.1772
 1319SOL    HW1 5173   1.829   2.788   2.943 -0.1799  1.4166 -2.0635
 1319SOL    HW2 5174   1.913   2.725   2.834  1.5420 -1.5607  0.7828
 1320SOL     OW 5175   0.730   3.346   3.588 -0.7748 -0.1400 -0.0612
 1320SOL    HW1 5176   0.721   3.331   3.494  0.9948 -1.0169 -0.1371
 1320SOL    HW2 5177   0.791   3.278   3.618 -1.2217  0.1720  1.7155
 1321SOL     OW 5178   0.442   2.713   1.536  0.3427 -0.0451 -0.5765
 1321SOL    HW1 5179   0.388   2.666   1.600  2.1223 -1.2987  0.0854
 1321SOL    HW2 5180   0.526   2.667   1.537  2.0356  2.8251 -0.3472
 1322SOL     OW 5181   1.522   2.338   2.832  0.2913 -0.6935 -0.0058
 1322SOL    HW1 5182   1.551   2.425   2.859  0.2639 -0.5849 -0.3254
 1322SOL    HW2 5183   1.520   2.287   2.913 -1.6545  0.1458  0.5281
 1323SOL     OW 5184   0.252   2.817   3.335 -0.2837  0.1484 -0.9431
 1323SOL    HW1 5185   0.189   2.764   3.383  0.8357 -1.4163 -1.1217
 1323SOL    HW2 5186   0.258   2.899   3.384  2.0641 -1.9602  2.7223
 1324SOL     OW 5187   1.333   3.750   2.195  0.0950 -0.3413  0.0522
 1324SOL    HW1 5188   1.403   3.778   2.135 -0.2840 -2.2849 -1.4320
 1324SOL    HW2 5189   1.275   3.825   2.201  0.9315  0.4142 -0.8505
 1325SOL     OW 5190   8.848   1.888   3.320 -0.9090 -0.0716 -0.1715
 1325SOL    HW1 5191   8.909   1.944   3.368 -0.4293 -0.4462 -0.3302
 1325SOL    HW2 5192   8.903   1.817   3.287 -1.7582 -1.4940  1.3318
 1326SOL     OW 5193   1.513   2.892   2.472 -0.1845 -0.2190  0.0859
 1326SOL    HW1 5194   1.522   2.965   2.533  0.5277  1.1459 -1.5661
 1326SOL    HW2 5195   1.432   2.849   2.498  0.0071  0.3946  1.8564
 1327SOL     OW 5196   0.297   3.623   1.580  0.2427 -0.5014 -0.0627
 1327SOL    HW1 5197   0.215   3.597   1.539 -0.5664  0.3412  0.9668
 1327SOL    HW2 5198   0.339   3.540   1.603 -0.2624 -0.9437 -0.6817
 1328SOL     OW 5199   1.348   1.665   2.467  0.3258  0.2248  0.3303
 1328SOL    HW1 5200   1.282   1.729   2.494 -0.0133  0.5492 -1.1737
 1328SOL    HW2 5201   1.310   1.580   2.491 -1.3842  0.2968 -1.8482
 1329SOL     OW 5202   0.356   3.089   2.780 -0.0092 -0.1532 -0.2422
 1329SOL    HW1 5203   0.326   3.118   2.866  0.2975 -0.7857  0.0890
 1329SOL    HW2 5204   0.332   2.997   2.776 -0.1636 -0.0897 -0.9066
 1330SOL     OW 5205   0.686   3.550   2.119 -0.2720 -0.2413 -0.1606
 1330SOL    HW1 5206   0.592   3.560   2.132 -0.1213 -0.0656  0.9104
 1330SOL    HW2 5207   0.699   3.567   2.026 -1.1393  1.0022 -0.0926
 1331SOL     OW 5208   0.551   2.630   2.219 -0.2536  0.8285 -0.3460
 1331SOL    HW1 5209   0.619   2.575   2.179 -0.1128  0.1414  0.7909
 1331SOL    HW2 5210   0.598   2.684   2.282 -0.6361  1.0203 -0.2261
 1332SOL     OW 5211   1.674   2.222   3.686 -0.2963  0.2758  0.2892
 1332SOL    HW1 5212   1.712   2.202   3.771 -0.6182 -0.4353  0.2688
 1332SOL    HW2 5213   1.606   2.287   3.705  0.3727  0.9516  0.4243
 1333SOL     OW 5214   0.300   1.665   1.557 -0.1038 -0.5094 -0.8443
 1333SOL    HW1 5215   0.350   1.645   1.477 -0.2630  1.1401 -1.3786
 1333SOL    HW2 5216   0.311   1.759   1.569 -1.5157 -0.4509  0.1216
 1334SOL     OW 5217   1.269   2.520   3.621 -0.0679 -0.5460  0.4653
 1334SOL    HW1 5218   1.302   2.531   3.531  1.2390 -2.0206  0.7184
 1334SOL    HW2 5219   1.177   2.496   3.610 -0.4121  1.0056 -0.3805
 1335SOL     OW 5220   1.232   3.397   2.733  0.1456 -0.2978  0.7032
 1335SOL    HW1 5221   1.255   3.376   2.642  1.9565 -1.3316  1.3448
 1335SOL    HW2 5222   1.162   3.336   2.755  1.0132 -1.3636  0.5757
 1336SOL     OW 5223   1.142   2.292   3.157 -0.0595  0.2878  0.1458
 1336SOL    HW1 5224   1.132   2.357   3.087 -1.7256 -0.0131  0.0573
 1336SOL    HW2 5225   1.236   2.275   3.161  0.0556 -0.1629 -2.4759
 1337SOL     OW 5226   0.886   3.412   2.231 -0.4007 -0.3830 -0.4874
 1337SOL    HW1 5227   0.813   3.467   2.200  0.1919 -0.7688 -2.7561
 1337SOL    HW2 5228   0.960   3.473   2.238 -0.4913 -0.3291 -0.0237
 1338SOL     OW 5229   0.573   2.246   2.738  0.3725 -0.2388  0.0984
 1338SOL    HW1 5230   0.655   2.206   2.709  1.4055 -0.9772  3.5856
 1338SOL    HW2 5231   0.568   2.226   2.832 -2.0983  2.7301  0.7651
 1339SOL     OW 5232   0.096   2.519   2.458 -1.1774  0.3783 -0.4450
 1339SOL    HW1 5233   0.161   2.489   2.394  0.3529 -1.3593  1.7464
 1339SOL    HW2 5234   0.053   2.593   2.416  0.9876  0.4652 -2.7321
 1340SOL     OW 5235   1.426   3.435   2.271  0.5158  0.2545  0.1323
 1340SOL    HW1 5236   1.448   3.475   2.187 -1.2057  1.7598  0.3255
 1340SOL    HW2 5237   1.437   3.506   2.335 -1.5682  0.1984  0.6386
 1341SOL     OW 5238   0.150   1.905   2.143  0.5678 -0.1908  0.5289
 1341SOL    HW1 5239   0.168   1.997   2.159  0.6561 -0.2188  0.5952
 1341SOL    HW2 5240   0.165   1.863   2.228 -1.3233 -0.0044  1.0010
 1342SOL     OW 5241   0.665   2.275   2.125 -0.3118  0.4914  0.3185
 1342SOL    HW1 5242   0.748   2.230   2.108 -0.7947 -0.0024 -0.8352
 1342SOL    HW2 5243   0.691   2.362   2.156  0.6331  0.0295  0.8854
 1343SOL     OW 5244   0.618   2.790   3.124 -0.2255 -0.2720  0.0227
 1343SOL    HW1 5245   0.676   2.714   3.133 -1.0766 -1.0776 -0.9474
 1343SOL    HW2 5246   0.672   2.865   3.150  1.0118 -1.0702 -0.1503
 1344SOL     OW 5247   1.765   3.404   2.897  0.3147  0.3424  0.3258
 1344SOL    HW1 5248   1.679   3.370   2.873  0.7591 -0.0275 -0.8111
 1344SOL    HW2 5249   1.827   3.337   2.866  0.9565 -0.1105  2.4150
 1345SOL     OW 5250   0.623   3.121   2.436  0.2528 -0.1238 -0.7675
 1345SOL    HW1 5251   0.663   3.149   2.519 -0.5290 -0.6648 -0.1963
 1345SOL    HW2 5252   0.530   3.115   2.455 -0.1414  1.0987 -2.0752
 1346SOL     OW 5253   1.431   3.822   2.689 -0.3426 -0.1141  0.4433
 1346SOL    HW1 5254   1.486   3.745   2.675 -0.2910  0.0704 -0.4374
 1346SOL    HW2 5255   1.485   3.896   2.660 -0.6242  0.1871  0.6789
 1347SOL     OW 5256   0.935   2.284   1.844  0.6747 -0.0194 -0.6570
 1347SOL    HW1 5257   0.967   2.202   1.808  1.1464 -0.4178  0.6334
 1347SOL    HW2 5258   0.993   2.351   1.806  0.3785 -0.2868 -1.5950
 1348SOL     OW 5259   8.824   2.304   3.124 -0.2619  0.6724 -0.3231
 1348SOL    HW1 5260   8.836   2.376   3.186  0.3937  0.2963  0.0071
 1348SOL    HW2 5261   8.729   2.294   3.116 -0.3554  1.2746 -0.0284
 1349SOL     OW 5262   0.133   1.692   2.915 -0.3191  0.1463  0.6660
 1349SOL    HW1 5263   0.192   1.618   2.922 -1.3818 -1.1033 -2.0106
 1349SOL    HW2 5264   0.183   1.758   2.868 -0.5594 -0.3751 -0.3493
 1350SOL     OW 5265   0.496   2.426   2.532 -0.5270 -0.5315 -0.6050
 1350SOL    HW1 5266   0.506   2.368   2.608 -1.7505  0.7417  0.5837
 1350SOL    HW2 5267   0.582   2.425   2.490  1.2557  1.1469  2.6009
 1351SOL     OW 5268   0.901   1.455   2.596 -0.0216  0.2383 -0.0299
 1351SOL    HW1 5269   0.899   1.537   2.645  1.1491 -0.8167  1.9340
 1351SOL    HW2 5270   0.829   1.462   2.534  0.9887  3.3519 -1.0040
 1352SOL     OW 5271   1.540   2.808   2.787 -0.1496  0.0211  0.0171
 1352SOL    HW1 5272   1.590   2.822   2.867 -2.2066  1.2203  1.1837
 1352SOL    HW2 5273   1.545   2.892   2.741  0.8822 -0.6098 -1.0841
 1353SOL     OW 5274   1.405   1.984   3.104  0.3289  0.2984  0.0674
 1353SOL    HW1 5275   1.449   1.955   3.185 -1.3339 -1.4702  0.4200
 1353SOL    HW2 5276   1.348   1.910   3.081 -1.0058  1.7321 -1.4089
 1354SOL     OW 5277   1.711   2.142   2.026  0.1413 -0.3724  0.5913
 1354SOL    HW1 5278   1.667   2.181   1.950 -0.6863  1.5543  1.9628
 1354SOL    HW2 5279   1.793   2.108   1.991  0.0551  0.9626 -1.0771
 1355SOL     OW 5280   0.434   3.236   1.826 -0.1408 -0.1690 -0.2715
 1355SOL    HW1 5281   0.391   3.153   1.803 -0.1380  0.1022 -1.3227
 1355SOL    HW2 5282   0.500   3.212   1.891  1.3242 -1.3498 -2.1078
 1356SOL     OW 5283   2.130   2.874   2.488  0.3372 -0.4421  0.1005
 1356SOL    HW1 5284   2.091   2.883   2.401 -0.2365  1.3764  0.5053
 1356SOL    HW2 5285   2.169   2.959   2.506 -0.9143 -0.2464  2.2540
 1357SOL     OW 5286   1.453   2.406   1.499  0.1177 -0.2306 -0.5781
 1357SOL    HW1 5287   1.528   2.434   1.551  1.1570 -3.2068 -0.2430
 1357SOL    HW2 5288   1.425   2.484   1.451  2.6889  1.2452  0.1629
 1358SOL     OW 5289   0.224   2.049   1.851 -0.8411  0.6584 -0.9599
 1358SOL    HW1 5290   0.268   1.987   1.792  2.7684  1.7317  0.3509
 1358SOL    HW2 5291   0.211   2.001   1.932  1.2681  1.2727 -0.1953
 1359SOL     OW 5292   1.586   3.224   3.751 -0.3135  0.2326  0.1658
 1359SOL    HW1 5293   1.551   3.278   3.680  0.1940 -1.8788 -1.7750
 1359SOL    HW2 5294   1.514   3.167   3.776 -0.8440  1.6904  2.2045
 1360SOL     OW 5295   1.043   3.200   2.824 -0.5851  0.1578  0.0361
 1360SOL    HW1 5296   0.988   3.211   2.902 -1.7673 -0.2379 -0.7139
 1360SOL    HW2 5297   1.070   3.109   2.826 -1.1062 -0.0110 -0.3112
 1361SOL     OW 5298   1.297   3.029   3.674  0.1201  0.0600  0.6800
 1361SOL    HW1 5299   1.352   2.958   3.708  0.2714 -0.0483  0.2247
 1361SOL    HW2 5300   1.234   2.984   3.618  0.1091  0.2686  0.5257
 1362SOL     OW 5301   1.492   3.283   2.862  0.3770 -0.2124  0.2108
 1362SOL    HW1 5302   1.426   3.327   2.809  1.3715 -0.2570 -1.1350
 1362SOL    HW2 5303   1.460   3.290   2.952 -0.5646  1.3052 -0.2046
 1363SOL     OW 5304   1.249   2.940   3.186  0.0461  0.3277 -0.8960
 1363SOL    HW1 5305   1.279   2.934   3.277 -0.2706  0.6394 -0.7659
 1363SOL    HW2 5306   1.322   2.980   3.139 -0.3709  1.6240 -0.4716
 1364SOL     OW 5307   1.064   1.995   3.104  0.2751  0.2126 -0.0438
 1364SOL    HW1 5308   1.125   1.932   3.143 -0.0598  0.8633  1.6375
 1364SOL    HW2 5309   1.068   2.071   3.163 -2.2260  0.2482  0.1889
 1365SOL     OW 5310   0.518   2.704   3.731  0.2465 -0.7076 -0.2213
 1365SOL    HW1 5311   0.540   2.658   3.650 -0.1320 -1.1075 -0.1022
 1365SOL    HW2 5312   0.441   2.757   3.709 -0.6019 -1.7234  0.1624
 1366SOL     OW 5313   0.700   2.988   2.118  0.5612  0.2039  0.0999
 1366SOL    HW1 5314   0.698   2.913   2.178 -0.7177  1.0494  1.1666
 1366SOL    HW2 5315   0.748   3.055   2.166  2.1580 -0.0743 -1.0636
 1367SOL     OW 5316   8.831   2.149   3.413 -0.0679 -0.2038 -0.1767
 1367SOL    HW1 5317   8.775   2.139   3.337 -0.3864 -1.2991  0.1815
 1367SOL    HW2 5318   8.787   2.099   3.482  0.7277 -0.0740  0.4421
 1368SOL     OW 5319   0.676   2.345   3.111 -0.6220  0.6164 -0.0396
 1368SOL    HW1 5320   0.598   2.390   3.143  0.2248  3.2981 -1.3764
 1368SOL    HW2 5321   0.644   2.287   3.043 -1.4364  2.4277 -1.2860
 1369SOL     OW 5322   8.556   3.296   3.129  0.3824 -0.4691  0.0368
 1369SOL    HW1 5323   8.640   3.323   3.166  0.3943 -1.0297  0.4250
 1369SOL    HW2 5324   8.565   3.313   3.035  0.1899  1.3778  0.3128
 1370SOL     OW 5325   0.841   3.151   2.269  0.0307  0.2065  0.5914
 1370SOL    HW1 5326   0.778   3.143   2.341 -0.4003  1.2841  0.3542
 1370SOL    HW2 5327   0.848   3.245   2.253  3.0350  0.3078  1.7726
 1371SOL     OW 5328   0.342   2.689   2.492 -0.5288  0.2248  0.3552
 1371SOL    HW1 5329   0.416   2.628   2.482 -1.0303 -0.2545 -0.6503
 1371SOL    HW2 5330   0.268   2.633   2.515 -0.6445  0.6687  1.0766
 1372SOL     OW 5331   1.586   3.072   2.686  0.2171 -0.0784 -0.0484
 1372SOL    HW1 5332   1.672   3.114   2.677  0.6053 -1.0015 -0.7389
 1372SOL    HW2 5333   1.539   3.129   2.747  1.2115  0.6046  0.1177
 1373SOL     OW 5334   0.726   2.976   3.595 -0.2800  0.2118 -0.4070
 1373SOL    HW1 5335   0.720   2.961   3.690  0.8034 -2.0664 -0.6246
 1373SOL    HW2 5336   0.785   3.051   3.586 -1.2094  1.1098  0.7310
 1374SOL     OW 5337   1.887   2.487   2.104 -0.2629  0.0865  0.3976
 1374SOL    HW1 5338   1.971   2.508   2.064  0.9805  1.0180  3.2248
 1374SOL    HW2 5339   1.903   2.406   2.151 -1.5596 -0.7800 -0.5970
 1375SOL     OW 5340   0.597   3.760   2.878 -0.0337 -0.5073 -0.1709
 1375SOL    HW1 5341   0.521   3.703   2.886 -0.5835  0.0908 -0.9780
 1375SOL    HW2 5342   0.667   3.712   2.922 -0.4765 -1.7896 -0.8004
 1376SOL     OW 5343   0.498   2.329   3.551  0.0217 -0.2401 -0.1665
 1376SOL    HW1 5344   0.468   2.403   3.499  1.5464  1.2047  0.8935
 1376SOL    HW2 5345   0.451   2.254   3.516 -1.2253  1.1462 -1.6005
 1377SOL     OW 5346   2.051   2.567   3.334 -0.1045 -0.2362  0.1980
 1377SOL    HW1 5347   2.096   2.546   3.252 -0.4739 -0.4616  0.0540
 1377SOL    HW2 5348   2.044   2.662   3.334  0.5393 -0.1833  0.3066
 1378SOL     OW 5349   1.249   1.744   3.398  0.5803 -0.0472  0.1891
 1378SOL    HW1 5350   1.332   1.790   3.383  0.9657 -1.0058 -0.7153
 1378SOL    HW2 5351   1.274   1.663   3.441 -0.0829  0.4681  1.6201
 1379SOL     OW 5352   0.602   1.578   3.413  0.3238 -0.4113 -1.0793
 1379SOL    HW1 5353   0.529   1.639   3.412  0.4599 -0.2270 -0.3560
 1379SOL    HW2 5354   0.639   1.582   3.325  0.7318  1.0316 -0.8606
 1380SOL     OW 5355   0.802   2.519   2.153  0.0434  0.1531  0.5055
 1380SOL    HW1 5356   0.887   2.507   2.112  0.5199  2.3138  0.7556
 1380SOL    HW2 5357   0.815   2.491   2.244 -0.2688 -1.9798 -0.0485
 1381SOL     OW 5358   1.279   2.721   2.845 -0.0733 -0.0393 -0.2380
 1381SOL    HW1 5359   1.235   2.742   2.762 -0.1452  2.6113  0.3822
 1381SOL    HW2 5360   1.372   2.736   2.827  0.0011 -0.3115 -0.0767
 1382SOL     OW 5361   1.527   2.553   2.146  0.1470  0.3581  0.3416
 1382SOL    HW1 5362   1.530   2.471   2.195  1.5170 -0.2628 -0.6823
 1382SOL    HW2 5363   1.512   2.621   2.212  0.3008 -0.5920  1.3809
 1383SOL     OW 5364   8.735   1.649   3.029  0.0278 -0.2483  0.0035
 1383SOL    HW1 5365   8.715   1.742   3.030  0.7801 -0.0835  0.9144
 1383SOL    HW2 5366   8.827   1.644   3.004  0.3404 -0.6602  1.1670
 1384SOL     OW 5367   8.513   3.296   2.797 -0.1488 -0.4583 -0.1275
 1384SOL    HW1 5368   8.477   3.209   2.808  0.3807 -0.5346  1.3005
 1384SOL    HW2 5369   8.466   3.333   2.722 -0.7007 -1.7859 -0.4613
 1385SOL     OW 5370   0.190   2.118   3.179 -0.2148  0.1056  0.1753
 1385SOL    HW1 5371   0.145   2.095   3.261 -1.5329  0.2382 -0.4812
 1385SOL    HW2 5372   0.170   2.211   3.166  1.2667  0.4877  0.4631
 1386SOL     OW 5373   1.170   3.150   4.113 -0.3935 -0.1530 -0.2577
 1386SOL    HW1 5374   1.176   3.058   4.085  1.1274  0.1223 -0.9363
 1386SOL    HW2 5375   1.110   3.148   4.187  0.7797 -1.9368  0.7307
 1387SOL     OW 5376   0.177   2.184   2.207 -0.0348  0.3628  0.2465
 1387SOL    HW1 5377   0.209   2.206   2.294  1.2471 -2.5075  0.6234
 1387SOL    HW2 5378   0.247   2.210   2.148 -0.0709  0.5439  0.2834
 1388SOL     OW 5379   1.852   2.656   2.312 -0.4017 -0.0406 -0.0477
 1388SOL    HW1 5380   1.872   2.590   2.245  0.9587 -0.1420  0.4272
 1388SOL    HW2 5381   1.888   2.619   2.392 -0.6175  0.7983  0.4412
 1389SOL     OW 5382   1.160   2.400   2.510 -0.3568 -0.1392 -0.1200
 1389SOL    HW1 5383   1.181   2.404   2.417  1.0566  1.9101  0.2232
 1389SOL    HW2 5384   1.089   2.462   2.522  0.6538  0.9604  0.4051
 1390SOL     OW 5385   0.313   2.869   3.667 -0.3595  0.3535  0.0833
 1390SOL    HW1 5386   0.299   2.907   3.753 -1.3041  0.3685 -0.0726
 1390SOL    HW2 5387   0.227   2.869   3.626  0.0512  0.2054 -0.8038
 1391SOL     OW 5388   2.444   3.231   3.165  0.2810 -0.1408 -0.2321
 1391SOL    HW1 5389   2.537   3.256   3.162  0.2043  0.1140 -0.6168
 1391SOL    HW2 5390   2.444   3.137   3.149  0.4397 -0.0562 -0.7516
 1392SOL     OW 5391   0.541   2.448   3.845  0.4005 -0.3455 -0.2727
 1392SOL    HW1 5392   0.548   2.524   3.787 -0.6118 -0.4896 -0.5919
 1392SOL    HW2 5393   0.533   2.373   3.787 -0.5063 -0.5038  0.0427
 1393SOL     OW 5394   1.063   2.563   2.117  0.0344  0.2503 -0.0105
 1393SOL    HW1 5395   1.105   2.485   2.152  1.1338  1.5532  1.7695
 1393SOL    HW2 5396   1.093   2.567   2.026 -0.2230 -1.4798 -0.2040
 1394SOL     OW 5397   1.375   2.159   1.817  0.4906 -0.3189 -0.3249
 1394SOL    HW1 5398   1.454   2.212   1.801  0.6587 -0.0565  1.2457
 1394SOL    HW2 5399   1.317   2.181   1.744  1.0664  1.0656 -0.3980
 1395SOL     OW 5400   1.264   3.320   2.480  0.5533 -0.9098 -0.1464
 1395SOL    HW1 5401   1.333   3.357   2.426  0.7660 -1.2227 -0.0944
 1395SOL    HW2 5402   1.207   3.274   2.419  0.6325 -1.0159 -0.1421
 1396SOL     OW 5403   0.291   3.053   3.043  0.0790  0.5126  0.1405
 1396SOL    HW1 5404   0.326   2.964   3.050  1.4628  0.9289 -1.1347
 1396SOL    HW2 5405   0.311   3.093   3.127  1.8770  0.4387 -0.2185
 1397SOL     OW 5406   0.195   2.605   2.888 -0.3364 -0.0445 -1.0354
 1397SOL    HW1 5407   0.282   2.628   2.922 -0.9821  0.6218  0.2702
 1397SOL    HW2 5408   0.162   2.687   2.851 -0.8557  0.0013 -0.4805
 1398SOL     OW 5409   0.968   2.038   3.448  0.1339  0.0233  0.0199
 1398SOL    HW1 5410   0.940   2.107   3.388  0.2911 -0.6757 -0.8835
 1398SOL    HW2 5411   0.893   1.977   3.450  0.7321 -0.7822 -0.7695
 1399SOL     OW 5412   1.509   1.912   3.375 -0.5673  0.2268 -0.1320
 1399SOL    HW1 5413   1.558   1.986   3.411 -0.5053  1.4941 -2.6264
 1399SOL    HW2 5414   1.569   1.837   3.385  1.0852  1.3263 -1.2095
 1400SOL     OW 5415   8.827   2.614   1.693  0.9278  0.0157 -0.3131
 1400SOL    HW1 5416   8.750   2.627   1.638  0.6214 -0.8607 -0.1111
 1400SOL    HW2 5417   8.792   2.584   1.777  1.3478  1.9419  0.6072
 1401SOL     OW 5418   0.071   3.594   2.438  0.2480  0.1263 -0.4857
 1401SOL    HW1 5419  -0.015   3.557   2.458  0.1936 -0.9502 -2.5195
 1401SOL    HW2 5420   0.129   3.555   2.504 -0.4203 -0.9501 -0.5117
 1402SOL     OW 5421   0.914   3.389   2.519  0.1745  0.0152  0.5030
 1402SOL    HW1 5422   0.936   3.471   2.564 -1.0743  0.8028 -0.2345
 1402SOL    HW2 5423   0.925   3.409   2.426  0.0805 -0.7294  0.3252
 1403SOL     OW 5424   0.943   2.553   2.546  0.1167  0.7711 -0.4233
 1403SOL    HW1 5425   0.952   2.645   2.522  0.3435  0.5843 -1.0882
 1403SOL    HW2 5426   0.888   2.553   2.625 -0.5692  1.4203 -0.8879
 1404SOL     OW 5427   0.006   2.431   2.866  0.1016 -0.6114  0.0915
 1404SOL    HW1 5428  -0.037   2.423   2.951 -1.3521 -0.1058 -0.5544
 1404SOL    HW2 5429   0.075   2.495   2.880 -0.5370 -0.0475  0.7475
 1405SOL     OW 5430   0.429   2.169   3.818  0.0176 -0.0201  0.0644
 1405SOL    HW1 5431   0.434   2.087   3.867 -1.3494  0.3183  0.8110
 1405SOL    HW2 5432   0.485   2.154   3.742 -0.7902 -1.9370 -0.2288
 1406SOL     OW 5433   1.645   2.733   3.349  0.5291 -0.4572  0.4642
 1406SOL    HW1 5434   1.708   2.782   3.297  0.7158 -0.6688  0.4875
 1406SOL    HW2 5435   1.578   2.706   3.287 -1.1671  2.3287  0.9176
 1407SOL     OW 5436   0.635   2.323   1.808 -0.1449  0.0583  0.3941
 1407SOL    HW1 5437   0.723   2.296   1.832  0.1840 -0.0683 -0.8845
 1407SOL    HW2 5438   0.598   2.248   1.761 -0.2944  0.7209 -0.5847
 1408SOL     OW 5439   1.655   2.529   2.987  0.0846  0.2575  0.5832
 1408SOL    HW1 5440   1.691   2.444   3.010 -1.2904 -0.1490  1.3526
 1408SOL    HW2 5441   1.727   2.575   2.943  1.0799 -0.9984  0.8523
 1409SOL     OW 5442   0.382   3.194   3.266  0.0059  0.3106  0.6174
 1409SOL    HW1 5443   0.431   3.171   3.346 -0.6734 -0.5243  0.8127
 1409SOL    HW2 5444   0.407   3.284   3.248  2.1725 -0.3043  0.2963
 1410SOL     OW 5445   0.812   2.089   2.692  0.0365 -0.0886  0.7301
 1410SOL    HW1 5446   0.876   2.025   2.722 -0.6891 -1.0486  0.3037
 1410SOL    HW2 5447   0.854   2.132   2.618 -0.0574 -1.2207 -0.0183
 1411SOL     OW 5448   1.032   3.377   3.261 -0.1808 -0.1299  0.1463
 1411SOL    HW1 5449   0.976   3.376   3.184 -0.2000 -3.0158  0.0986
 1411SOL    HW2 5450   1.017   3.292   3.303 -0.4478  1.4445  3.5755
 1412SOL     OW 5451   0.801   1.979   1.849 -0.6015  0.2054  0.1057
 1412SOL    HW1 5452   0.709   2.003   1.840 -0.7463 -0.7393 -1.1216
 1412SOL    HW2 5453   0.830   1.958   1.760  0.5050 -0.5672  0.6176
 1413SOL     OW 5454   8.764   2.607   3.143 -0.4362 -0.2037  0.2060
 1413SOL    HW1 5455   8.810   2.607   3.227  0.2142 -2.4171 -0.0751
 1413SOL    HW2 5456   8.813   2.670   3.090  1.3107 -1.2756  0.4452
 1414SOL     OW 5457   1.507   2.985   3.120  0.2583  0.2417 -0.2194
 1414SOL    HW1 5458   1.521   3.074   3.155  1.9094 -0.1966  0.3354
 1414SOL    HW2 5459   1.595   2.948   3.115 -0.4582 -1.5517  0.0224
 1415SOL     OW 5460   1.339   2.755   2.033  0.2009 -0.1926  0.7960
 1415SOL    HW1 5461   1.383   2.671   2.047 -1.2038 -0.8672  1.3202
 1415SOL    HW2 5462   1.316   2.784   2.121  2.2853  1.6995  0.8081
 1416SOL     OW 5463   2.068   3.237   3.351  0.0782  0.5363 -0.3880
 1416SOL    HW1 5464   2.118   3.229   3.433  0.7683  2.2793 -0.5930
 1416SOL    HW2 5465   1.977   3.243   3.379  0.1320 -0.6550  0.1160
 1417SOL     OW 5466   1.508   3.256   3.175 -0.1942  0.1733 -0.0358
 1417SOL    HW1 5467   1.570   3.329   3.178  0.8729 -0.6792 -0.5127
 1417SOL    HW2 5468   1.484   3.241   3.266  0.3701  0.4570  0.1606
 1418SOL     OW 5469   8.646   2.945   3.036 -0.1324 -0.2050 -0.1321
 1418SOL    HW1 5470   8.566   2.954   3.088 -0.3328 -0.5611 -0.3747
 1418SOL    HW2 5471   8.624   2.879   2.970  1.0662 -2.0162  1.1815
 1419SOL     OW 5472   0.788   3.008   3.184 -0.2275 -0.2788 -0.3302
 1419SOL    HW1 5473   0.850   2.952   3.138 -0.1763  0.6522 -1.4491
 1419SOL    HW2 5474   0.838   3.044   3.257  0.5991  0.5104 -1.2547
 1420SOL     OW 5475   1.570   2.178   2.540  0.6686  0.1432 -0.2283
 1420SOL    HW1 5476   1.515   2.133   2.604 -1.5795  2.0909 -0.6295
 1420SOL    HW2 5477   1.616   2.245   2.591 -0.2625  0.9516 -0.4004
 1421SOL     OW 5478   1.783   3.404   2.611  0.2929  0.2099  0.3618
 1421SOL    HW1 5479   1.754   3.382   2.522  0.3983  1.6927 -0.0658
 1421SOL    HW2 5480   1.872   3.369   2.615  0.9579  1.6546 -0.7751
 1422SOL     OW 5481   0.163   2.907   3.898 -0.1273  0.7430  0.0452
 1422SOL    HW1 5482   0.126   2.837   3.843  0.4653  0.7846 -0.4182
 1422SOL    HW2 5483   0.124   2.892   3.984 -0.0233 -0.1584 -0.0474
 1423SOL     OW 5484   1.593   2.588   2.573 -0.1826  0.1427  0.1926
 1423SOL    HW1 5485   1.591   2.649   2.647 -0.2379  0.8804 -0.4065
 1423SOL    HW2 5486   1.685   2.564   2.565 -0.2966 -0.6683  1.0699
 1424SOL     OW 5487   0.687   2.651   2.762 -0.3306  0.4805  0.3087
 1424SOL    HW1 5488   0.659   2.739   2.736 -0.0379 -0.2837 -3.0420
 1424SOL    HW2 5489   0.622   2.592   2.723  0.8291 -0.8735  0.3400
 1425SOL     OW 5490   0.697   3.586   1.843 -0.1207 -0.2209 -0.0024
 1425SOL    HW1 5491   0.613   3.576   1.799 -0.4843  2.3960 -0.0457
 1425SOL    HW2 5492   0.757   3.613   1.773  0.3706 -0.3965  0.3447
 1426SOL     OW 5493   1.556   3.380   3.507  0.1735  0.4387  0.2494
 1426SOL    HW1 5494   1.484   3.330   3.468 -0.5037 -0.6495  2.7202
 1426SOL    HW2 5495   1.521   3.469   3.515 -0.2700  0.3043 -0.1134
 1427SOL     OW 5496   1.539   1.684   2.726  0.1117 -0.4299  0.9937
 1427SOL    HW1 5497   1.455   1.641   2.711 -0.1972  0.4951 -0.0515
 1427SOL    HW2 5498   1.560   1.666   2.818 -0.1503 -2.5242  0.6958
 1428SOL     OW 5499   0.187   2.226   2.784 -0.2774 -0.4127  0.5295
 1428SOL    HW1 5500   0.160   2.315   2.804 -0.2356 -0.2346 -0.1708
 1428SOL    HW2 5501   0.217   2.230   2.693  0.8333 -0.8865  0.8511
 1429SOL     OW 5502   1.222   3.629   1.458 -0.0395  0.0130  0.0556
 1429SOL    HW1 5503   1.211   3.698   1.524  0.3003 -0.3441  0.4943
 1429SOL    HW2 5504   1.297   3.657   1.407 -1.7874  1.5847 -1.8446
 1430SOL     OW 5505   0.353   2.773   3.090  0.0281 -0.2555  0.1887
 1430SOL    HW1 5506   0.315   2.762   3.177 -0.3802  0.8710  0.1794
 1430SOL    HW2 5507   0.447   2.758   3.103 -0.0086  0.0449  0.8634
 1431SOL     OW 5508   1.360   2.558   2.443  0.2850 -0.3001  0.0099
 1431SOL    HW1 5509   1.443   2.591   2.479  0.8794 -1.6042 -0.1156
 1431SOL    HW2 5510   1.358   2.466   2.469 -1.2280 -0.2407  0.1671
 1432SOL     OW 5511   1.711   3.815   2.235  0.6227 -0.0800  0.1982
 1432SOL    HW1 5512   1.662   3.893   2.259 -0.0819 -0.1092 -1.0412
 1432SOL    HW2 5513   1.787   3.849   2.187  0.4552 -0.1288 -0.1085
 1433SOL     OW 5514   0.073   2.973   3.552  0.1017 -0.0298 -0.8719
 1433SOL    HW1 5515   0.130   3.050   3.560 -0.6335  0.4309  0.1836
 1433SOL    HW2 5516  -0.006   3.007   3.510  0.5058 -0.6262 -2.1563
 1434SOL     OW 5517   1.810   2.955   3.077  0.0571 -0.1914 -0.4639
 1434SOL    HW1 5518   1.895   2.982   3.042  1.1734 -1.3217  1.1521
 1434SOL    HW2 5519   1.819   2.968   3.172 -2.0373  0.7822 -0.3626
 1435SOL     OW 5520   1.255   2.784   2.571 -0.5854  0.1899  0.5772
 1435SOL    HW1 5521   1.198   2.841   2.520  1.2194  0.5497 -1.1171
 1435SOL    HW2 5522   1.273   2.710   2.514 -0.1037 -0.3789  1.4395
 1436SOL     OW 5523   0.892   1.783   2.514  0.4210 -0.1941 -0.5521
 1436SOL    HW1 5524   0.835   1.832   2.456  1.2326  1.8038  0.2502
 1436SOL    HW2 5525   0.834   1.718   2.555 -0.5272 -0.4424 -2.1820
 1437SOL     OW 5526   0.425   3.545   2.130 -0.3346 -0.0607  0.1362
 1437SOL    HW1 5527   0.386   3.546   2.043 -1.9513 -0.6039  0.8266
 1437SOL    HW2 5528   0.367   3.489   2.182  1.3122 -0.8219  1.2428
 1438SOL     OW 5529   1.765   2.311   3.039 -0.6163 -0.3712  0.3217
 1438SOL    HW1 5530   1.858   2.299   3.062 -0.3447 -1.7032 -1.2720
 1438SOL    HW2 5531   1.730   2.222   3.037 -1.9485  0.1222  0.8505
 1439SOL     OW 5532   0.338   2.977   1.798  0.3269 -0.3339  0.1881
 1439SOL    HW1 5533   0.269   2.913   1.779 -0.2373  0.4252 -0.4373
 1439SOL    HW2 5534   0.415   2.925   1.820  0.0475 -1.2326 -0.8802
 1440SOL     OW 5535   0.130   2.605   3.452 -0.0872  0.0490 -0.2769
 1440SOL    HW1 5536   0.039   2.577   3.454  0.4631 -1.9225 -0.8059
 1440SOL    HW2 5537   0.174   2.550   3.517  1.2551 -1.1762 -2.1355
 1441SOL     OW 5538   0.519   2.064   3.485  0.0152 -0.4292 -0.2655
 1441SOL    HW1 5539   0.563   2.018   3.413 -0.5978  0.1637 -1.0419
 1441SOL    HW2 5540   0.588   2.086   3.547  0.3733 -2.1017 -0.0287
 1442SOL     OW 5541   0.146   2.309   1.798  0.7522 -0.3060 -0.3122
 1442SOL    HW1 5542   0.187   2.225   1.817 -0.2855 -0.6236  0.6424
 1442SOL    HW2 5543   0.061   2.287   1.762  1.3849  0.3427 -2.3011
 1443SOL     OW 5544   1.091   2.919   2.804 -0.2365 -0.2569 -0.4739
 1443SOL    HW1 5545   1.067   2.838   2.759 -0.1110 -0.7870  0.3871
 1443SOL    HW2 5546   1.083   2.898   2.897  0.4096  0.5274 -0.2284
 1444SOL     OW 5547   0.311   2.487   2.236 -0.3409  0.0426  0.1951
 1444SOL    HW1 5548   0.339   2.414   2.181 -0.0688 -1.9051  2.7569
 1444SOL    HW2 5549   0.386   2.547   2.235  0.0399 -0.4268 -0.7401
 1445SOL     OW 5550   1.370   3.167   2.205 -0.6243  0.1559  0.0931
 1445SOL    HW1 5551   1.300   3.137   2.264 -0.0069 -0.4566  0.5365
 1445SOL    HW2 5552   1.378   3.260   2.223  0.5200 -0.2591  2.0610
 1446SOL     OW 5553   0.878   2.213   3.267 -0.1599  0.1670  0.0656
 1446SOL    HW1 5554   0.809   2.237   3.206  0.7426 -0.1820 -1.1391
 1446SOL    HW2 5555   0.958   2.247   3.227  1.0863 -3.7018 -1.2135
 1447SOL     OW 5556   1.801   3.281   3.428  0.1660 -0.1291 -0.1588
 1447SOL    HW1 5557   1.793   3.301   3.335  1.1918 -0.4267 -0.3321
 1447SOL    HW2 5558   1.726   3.323   3.469 -0.2140  0.1345 -1.1025
 1448SOL     OW 5559   1.023   2.864   3.074  0.2094 -0.5693 -0.0970
 1448SOL    HW1 5560   1.102   2.888   3.122 -1.4840  1.5759  1.8741
 1448SOL    HW2 5561   1.010   2.771   3.094  1.7433 -0.7474  0.2110
 1449SOL     OW 5562   0.930   3.160   3.629  0.2177 -0.4910 -0.2418
 1449SOL    HW1 5563   0.938   3.103   3.706 -0.9010 -0.8291 -0.3489
 1449SOL    HW2 5564   1.019   3.189   3.611  0.7916 -2.0068 -0.0144
 1450SOL     OW 5565   0.662   3.449   3.049 -0.5835 -0.4467 -0.1924
 1450SOL    HW1 5566   0.719   3.526   3.049  0.1017 -0.8952 -1.7446
 1450SOL    HW2 5567   0.574   3.484   3.038 -0.3996  0.1644  0.2473
 1451SOL     OW 5568   1.476   2.683   3.124 -0.2069 -0.5412  0.2783
 1451SOL    HW1 5569   1.529   2.623   3.071 -0.2482 -0.3240 -0.0104
 1451SOL    HW2 5570   1.427   2.735   3.061  1.0392  0.9196  0.4606
 1452SOL     OW 5571   1.444   1.964   2.690  0.1790 -1.0148  0.8315
 1452SOL    HW1 5572   1.480   1.875   2.688  0.0552 -1.0733  1.1440
 1452SOL    HW2 5573   1.358   1.954   2.732 -0.4652 -0.9668 -0.4315
 1453SOL     OW 5574   0.657   2.831   2.335 -0.4902 -0.0661 -0.1065
 1453SOL    HW1 5575   0.738   2.817   2.384 -0.1027 -0.4011 -0.8171
 1453SOL    HW2 5576   0.605   2.888   2.391 -0.3399 -0.9623  0.9944
 1454SOL     OW 5577   1.853   2.416   3.444 -0.6128 -0.2631 -0.4292
 1454SOL    HW1 5578   1.931   2.455   3.404 -0.3525 -1.2936 -0.9633
 1454SOL    HW2 5579   1.887   2.369   3.520 -0.6722 -0.9022 -0.7910
 1455SOL     OW 5580   1.670   2.586   3.571  0.0035  0.5518  0.0374
 1455SOL    HW1 5581   1.743   2.530   3.546  0.9001  0.7312  2.1031
 1455SOL    HW2 5582   1.676   2.661   3.512 -0.1214 -0.6119 -1.5346
 1456SOL     OW 5583   1.100   3.237   2.008 -0.4345  0.0211  0.0654
 1456SOL    HW1 5584   1.118   3.257   2.100  0.3150 -3.2480  0.7462
 1456SOL    HW2 5585   1.036   3.166   2.011  0.1220 -0.6195 -1.9462
 1457SOL     OW 5586   0.930   3.667   2.570  0.0509  0.2231  0.2070
 1457SOL    HW1 5587   0.895   3.709   2.492  2.0188 -2.2735 -2.2534
 1457SOL    HW2 5588   1.010   3.716   2.590  0.9082 -0.6368 -0.9934
 1458SOL     OW 5589   1.103   3.135   2.318 -0.0276 -0.4152 -0.3086
 1458SOL    HW1 5590   1.092   3.102   2.407  0.1001  0.0795 -0.1116
 1458SOL    HW2 5591   1.014   3.154   2.288 -0.0234 -0.0552 -0.0898
 1459SOL     OW 5592   1.183   2.879   1.836 -0.2920 -0.0916 -0.5618
 1459SOL    HW1 5593   1.100   2.901   1.878 -0.8825 -0.6637 -1.4095
 1459SOL    HW2 5594   1.240   2.854   1.909 -0.6169  1.0326  0.0966
 1460SOL     OW 5595   2.059   3.340   2.614 -0.2828  0.2799  0.3581
 1460SOL    HW1 5596   2.129   3.294   2.568  0.0373  0.5483  0.5750
 1460SOL    HW2 5597   2.051   3.295   2.698 -0.6941 -0.0491  0.1460
 1461SOL     OW 5598   0.037   2.712   3.756 -0.0609 -0.3072  0.6765
 1461SOL    HW1 5599   0.022   2.736   3.665  2.2384  1.5077  0.6751
 1461SOL    HW2 5600   0.078   2.626   3.752 -0.5802 -0.5332  0.0563
 1462SOL     OW 5601   0.100   2.827   2.757 -0.1616  0.1724  0.0545
 1462SOL    HW1 5602   0.042   2.902   2.749  1.6103  1.5150 -1.1740
 1462SOL    HW2 5603   0.091   2.781   2.673 -0.6496 -0.5479  0.4951
 1463SOL     OW 5604   0.469   2.644   3.454  0.4006 -0.4132  0.2240
 1463SOL    HW1 5605   0.408   2.718   3.453 -0.9894 -1.4783 -1.8456
 1463SOL    HW2 5606   0.550   2.679   3.417 -0.1440  0.1849 -0.4464
 1464SOL     OW 5607   1.612   2.094   2.957  0.2530 -0.5385 -0.2856
 1464SOL    HW1 5608   1.537   2.068   3.010 -0.2541  0.9260 -0.2454
 1464SOL    HW2 5609   1.581   2.090   2.866  0.4666 -0.9773 -0.3424
 1465SOL     OW 5610   0.431   2.286   2.021  0.2192  0.1071 -0.2796
 1465SOL    HW1 5611   0.518   2.283   2.060 -0.1650 -2.0521  0.5559
 1465SOL    HW2 5612   0.447   2.309   1.929  1.3910  2.2970  0.3964
 1466SOL     OW 5613   2.030   3.252   2.886  0.3040 -0.1155  0.6422
 1466SOL    HW1 5614   2.093   3.297   2.942 -1.0898  0.9915  1.3728
 1466SOL    HW2 5615   2.022   3.164   2.925  1.6804 -0.4264  0.2827
 1467SOL     OW 5616   0.254   1.992   2.931  0.1394  0.1439 -0.5046
 1467SOL    HW1 5617   0.196   2.004   3.006 -0.2879 -0.2587 -0.7619
 1467SOL    HW2 5618   0.232   2.065   2.872  1.3851  1.2284  0.3048
 1468SOL     OW 5619   0.666   3.880   2.384  0.4705 -0.1859  0.0647
 1468SOL    HW1 5620   0.734   3.818   2.356  0.5959  1.0805 -2.7135
 1468SOL    HW2 5621   0.599   3.825   2.424  1.5838 -1.8669 -0.2816
 1469SOL     OW 5622   1.246   1.766   3.113 -0.2513 -0.2959 -0.1553
 1469SOL    HW1 5623   1.229   1.748   3.206  0.6935 -1.8338 -0.2440
 1469SOL    HW2 5624   1.275   1.682   3.077  0.3564  0.4998 -1.6313
 1470SOL     OW 5625   0.416   1.961   3.148 -0.6826 -0.3651 -0.6724
 1470SOL    HW1 5626   0.363   2.038   3.165 -1.7013 -0.6544 -2.2810
 1470SOL    HW2 5627   0.402   1.942   3.055  2.0347 -0.6351 -1.1189
 1471SOL     OW 5628   1.122   3.543   1.960 -0.2896  0.4961  0.5399
 1471SOL    HW1 5629   1.084   3.537   1.873  0.9248 -0.5397  0.0441
 1471SOL    HW2 5630   1.212   3.572   1.945 -0.6702  2.3417  1.6307
 1472SOL     OW 5631   0.856   3.589   3.395  0.2368  0.5316  0.0939
 1472SOL    HW1 5632   0.911   3.648   3.447  0.0152 -1.0349  2.2309
 1472SOL    HW2 5633   0.911   3.512   3.379  0.3629  1.0243 -2.2652
 1473SOL     OW 5634   0.946   2.227   2.463 -0.0706  0.1246 -0.5757
 1473SOL    HW1 5635   1.030   2.262   2.491  0.5344 -2.0732  0.5986
 1473SOL    HW2 5636   0.967   2.153   2.407 -1.2644  0.5765 -1.6793
 1474SOL     OW 5637   0.765   2.414   2.410  0.1925  0.6541  0.3992
 1474SOL    HW1 5638   0.793   2.323   2.414 -1.4262  0.1131  4.5543
 1474SOL    HW2 5639   0.829   2.461   2.463 -1.4578  0.9771  2.2407
 1475SOL     OW 5640   0.812   1.926   2.993 -0.3889  0.0446 -0.0905
 1475SOL    HW1 5641   0.871   1.982   3.044  0.7505 -1.0264 -0.1702
 1475SOL    HW2 5642   0.870   1.883   2.930 -1.2176 -1.3007  0.0456
 1476SOL     OW 5643   0.367   2.686   2.029 -0.1975 -0.0684 -0.7229
 1476SOL    HW1 5644   0.435   2.687   2.097 -0.4225  0.3416 -0.5041
 1476SOL    HW2 5645   0.408   2.641   1.955 -0.1404 -1.0326 -0.1196
 1477SOL     OW 5646   0.909   3.755   1.733  0.1325 -0.1999 -0.2671
 1477SOL    HW1 5647   0.957   3.680   1.697  0.3930  0.3065 -0.9868
 1477SOL    HW2 5648   0.972   3.798   1.791 -0.5460 -1.5042  1.5456
 1478SOL     OW 5649   0.310   1.751   3.706  0.2817 -0.3515 -0.1300
 1478SOL    HW1 5650   0.330   1.723   3.617 -1.1492  3.1848 -1.7652
 1478SOL    HW2 5651   0.220   1.723   3.720  0.1793 -0.0558 -0.1925
 1479SOL     OW 5652   8.699   1.772   5.126 -0.2100  0.3596 -0.5744
 1479SOL    HW1 5653   8.684   1.805   5.037  0.8100  0.8014 -0.6021
 1479SOL    HW2 5654   8.642   1.696   5.133  1.7262 -1.4280 -2.6432
 1480SOL     OW 5655   8.692   2.012   4.273 -0.2483  0.0159 -0.3646
 1480SOL    HW1 5656   8.609   1.966   4.264 -0.5045  0.0947  1.2767
 1480SOL    HW2 5657   8.745   1.954   4.330  0.5075  0.3606 -0.7000
 1481SOL     OW 5658   0.375   3.022   5.158 -0.0130 -0.0684 -0.6996
 1481SOL    HW1 5659   0.311   2.954   5.136  0.8380 -1.0202 -0.3198
 1481SOL    HW2 5660   0.440   3.018   5.089 -0.8337  1.5923 -1.6454
 1482SOL     OW 5661   1.902   3.491   4.232  0.0280  0.5533 -0.4492
 1482SOL    HW1 5662   1.928   3.546   4.306  0.4422  0.8247 -0.7940
 1482SOL    HW2 5663   1.811   3.515   4.215  0.2590  1.2723 -0.7122
 1483SOL     OW 5664   1.149   2.201   3.707 -0.2958 -0.1344 -0.0252
 1483SOL    HW1 5665   1.167   2.182   3.615  0.9062  1.1819 -0.0938
 1483SOL    HW2 5666   1.196   2.283   3.724  1.5585 -1.5659  2.3821
 1484SOL     OW 5667   1.989   2.851   3.711 -0.5151  0.6201  0.1267
 1484SOL    HW1 5668   2.052   2.877   3.644 -0.6188 -1.4883 -0.8604
 1484SOL    HW2 5669   1.946   2.932   3.737 -0.4199  1.5103 -2.3000
 1485SOL     OW 5670   0.623   2.761   5.123  0.0517 -0.4245 -0.4217
 1485SOL    HW1 5671   0.655   2.819   5.193  0.3285 -0.5155 -0.4700
 1485SOL    HW2 5672   0.611   2.819   5.048 -0.2280 -0.3296 -0.3063
 1486SOL     OW 5673   0.960   2.347   5.254 -0.3671  0.0161  0.2565
 1486SOL    HW1 5674   0.986   2.432   5.218  1.9805 -0.4117  0.7718
 1486SOL    HW2 5675   0.880   2.366   5.304 -0.3911  1.7426 -0.3612
 1487SOL     OW 5676   0.788   2.641   4.545 -0.3053 -0.1958 -0.0344
 1487SOL    HW1 5677   0.782   2.604   4.633 -1.2756 -0.6043 -0.2559
 1487SOL    HW2 5678   0.697   2.656   4.519 -0.0456 -0.2730 -1.0456
 1488SOL     OW 5679   0.505   2.869   5.720  0.0677 -0.0688 -0.1824
 1488SOL    HW1 5680   0.581   2.812   5.731 -0.4687 -0.8515 -0.4869
 1488SOL    HW2 5681   0.439   2.833   5.779  0.1486  1.0264  0.6174
 1489SOL     OW 5682   0.245   3.167   4.755  0.1353  0.4347 -0.6672
 1489SOL    HW1 5683   0.183   3.231   4.721 -0.1285  0.8258  0.5111
 1489SOL    HW2 5684   0.287   3.130   4.677 -2.1714 -0.4681 -1.5494
 1490SOL     OW 5685   1.663   3.301   5.269  0.2284 -0.1655  0.1149
 1490SOL    HW1 5686   1.750   3.266   5.254  0.6870  0.1546  1.8002
 1490SOL    HW2 5687   1.657   3.378   5.212  0.5533 -0.9137 -0.9392
 1491SOL     OW 5688   0.683   2.321   5.395 -0.2051  0.1580 -0.0856
 1491SOL    HW1 5689   0.658   2.283   5.480 -0.4291 -1.9290 -1.0187
 1491SOL    HW2 5690   0.638   2.405   5.392 -1.3702 -0.3703  1.2733
 1492SOL     OW 5691   1.572   2.176   4.186 -0.2229 -0.7674 -0.3564
 1492SOL    HW1 5692   1.542   2.203   4.100 -1.4115 -2.4986 -0.5418
 1492SOL    HW2 5693   1.497   2.129   4.224 -0.0247  0.6084  1.9486
 1493SOL     OW 5694   8.833   3.179   4.379  0.1617 -0.2227  0.2969
 1493SOL    HW1 5695   8.811   3.095   4.420  0.1770 -0.0962  0.5722
 1493SOL    HW2 5696   8.883   3.225   4.446  0.5999 -0.2007 -0.0437
 1494SOL     OW 5697   1.149   3.280   4.942  0.0591 -0.0057 -0.1865
 1494SOL    HW1 5698   1.156   3.366   4.900  1.2388  0.8576  1.6211
 1494SOL    HW2 5699   1.224   3.232   4.910  1.9395  1.2418  2.0313
 1495SOL     OW 5700   0.104   2.997   4.921 -0.0437  0.7881  0.4180
 1495SOL    HW1 5701   0.184   3.026   4.877 -0.2653 -2.7931 -2.8884
 1495SOL    HW2 5702   0.131   2.919   4.970 -1.2914  0.0562 -0.0113
 1496SOL     OW 5703   8.408   3.367   4.642 -0.4583  0.1348 -0.0747
 1496SOL    HW1 5704   8.356   3.298   4.685 -1.5919  0.8515 -0.2565
 1496SOL    HW2 5705   8.410   3.342   4.550 -0.2882 -0.0011 -0.0361
 1497SOL     OW 5706   0.636   3.397   4.660 -0.0835  0.1425 -0.1412
 1497SOL    HW1 5707   0.721   3.369   4.625 -0.1585 -1.7257  1.0197
 1497SOL    HW2 5708   0.599   3.452   4.591  1.1929 -0.6896 -1.5602
 1498SOL     OW 5709   0.372   2.871   4.166 -0.3524  0.0325 -0.4927
 1498SOL    HW1 5710   0.329   2.957   4.167 -0.9109 -0.2447 -0.8298
 1498SOL    HW2 5711   0.436   2.878   4.095 -0.0160  0.3548 -0.1619
 1499SOL     OW 5712   1.861   1.893   4.623  0.0788 -0.5138  0.0337
 1499SOL    HW1 5713   1.913   1.901   4.703 -2.0612  1.7167  1.3395
 1499SOL    HW2 5714   1.811   1.812   4.635  0.0864 -0.4172  0.7950
 1500SOL     OW 5715   8.609   1.709   4.182  0.3635 -0.2920 -0.0821
 1500SOL    HW1 5716   8.554   1.634   4.160 -1.2182  1.2122 -1.6754
 1500SOL    HW2 5717   8.614   1.759   4.101  1.3723  1.3229  0.9144
 1501SOL     OW 5718   2.296   3.597   3.796 -0.0506 -0.0030  0.0112
 1501SOL    HW1 5719   2.381   3.554   3.807 -1.6714 -3.1532  1.5972
 1501SOL    HW2 5720   2.253   3.587   3.881 -2.5730  0.1226 -1.1644
 1502SOL     OW 5721   8.705   3.028   3.764 -0.3752  0.3543  0.3208
 1502SOL    HW1 5722   8.779   3.028   3.704 -0.2842  1.1810  0.4155
 1502SOL    HW2 5723   8.634   2.987   3.715 -0.0520  0.2019 -0.0252
 1503SOL     OW 5724   1.453   3.009   3.980  0.0223 -0.0785  0.2925
 1503SOL    HW1 5725   1.421   2.948   3.914 -2.3803  0.8280  0.5202
 1503SOL    HW2 5726   1.543   2.980   3.998 -0.6048 -2.7632 -0.4672
 1504SOL     OW 5727   1.442   2.891   4.270  0.0317  0.0506  0.6856
 1504SOL    HW1 5728   1.384   2.927   4.202 -0.4393  0.7632  1.4431
 1504SOL    HW2 5729   1.528   2.892   4.230 -0.2409  0.4708  0.0862
 1505SOL     OW 5730   0.175   2.567   5.423 -0.0212  0.3906  0.6228
 1505SOL    HW1 5731   0.195   2.480   5.387  1.8996  1.7182 -1.8177
 1505SOL    HW2 5732   0.106   2.600   5.365 -0.8527  0.4705  1.6389
 1506SOL     OW 5733   0.688   2.917   4.644 -0.0583 -0.3004  1.2850
 1506SOL    HW1 5734   0.598   2.922   4.676 -0.5810 -1.2915  0.0624
 1506SOL    HW2 5735   0.742   2.924   4.722 -1.2303 -0.9327  2.1840
 1507SOL     OW 5736   1.668   2.893   4.743 -0.2573 -0.2565 -0.7240
 1507SOL    HW1 5737   1.757   2.859   4.754 -0.6467 -0.6189  1.7955
 1507SOL    HW2 5738   1.665   2.971   4.797 -0.6453  1.5626 -3.1915
 1508SOL     OW 5739   0.907   1.773   4.530  0.2137  0.5275  0.0498
 1508SOL    HW1 5740   0.887   1.712   4.601 -1.0802  0.0978 -0.6474
 1508SOL    HW2 5741   0.842   1.842   4.538 -1.8454 -0.9453 -2.3237
 1509SOL     OW 5742   0.180   2.801   5.132  0.7239  0.1343  0.3816
 1509SOL    HW1 5743   0.261   2.753   5.148  0.0446 -1.4256 -0.6456
 1509SOL    HW2 5744   0.117   2.734   5.105 -0.6433  1.4382  0.1909
 1510SOL     OW 5745   1.167   2.870   4.072 -0.3456  0.2201 -0.5231
 1510SOL    HW1 5746   1.198   2.812   4.142  1.3676  0.9742 -0.6169
 1510SOL    HW2 5747   1.206   2.835   3.992 -0.6593  0.5303 -0.8149
 1511SOL     OW 5748   0.854   3.346   5.117  0.2549  0.0226  0.1021
 1511SOL    HW1 5749   0.926   3.408   5.113 -0.3811  0.8570  1.0704
 1511SOL    HW2 5750   0.857   3.311   5.206 -0.7001  0.2716  0.2385
 1512SOL     OW 5751   0.475   1.746   5.688 -0.1170 -0.1154 -0.1765
 1512SOL    HW1 5752   0.439   1.662   5.662 -0.2429 -0.4393  0.9808
 1512SOL    HW2 5753   0.559   1.751   5.643 -0.0712 -0.8958 -0.1898
 1513SOL     OW 5754   1.073   3.394   4.554 -0.1421 -0.7726 -0.0204
 1513SOL    HW1 5755   1.117   3.437   4.627 -1.1141  0.9734 -0.4203
 1513SOL    HW2 5756   1.141   3.337   4.516  1.7077  1.5327 -0.4055
 1514SOL     OW 5757   1.970   3.196   3.759  0.3054 -0.3936 -0.1832
 1514SOL    HW1 5758   1.915   3.274   3.769  1.3778  0.5431 -1.2619
 1514SOL    HW2 5759   1.908   3.126   3.740 -0.7624 -0.0118  1.6749
 1515SOL     OW 5760   0.736   2.512   4.100  0.0701 -0.3101  0.0724
 1515SOL    HW1 5761   0.687   2.470   4.170  0.3742  0.3154  0.6700
 1515SOL    HW2 5762   0.680   2.583   4.070  0.4120  0.1290  0.4558
 1516SOL     OW 5763   1.219   1.630   4.639  0.2035  0.1520 -0.4101
 1516SOL    HW1 5764   1.251   1.649   4.727 -0.9878  1.0980 -0.1579
 1516SOL    HW2 5765   1.137   1.680   4.632 -0.3880 -0.9402 -1.5848
 1517SOL     OW 5766   1.768   3.163   4.160 -0.6917 -0.1165 -0.4226
 1517SOL    HW1 5767   1.711   3.238   4.146 -0.8842 -0.2735 -0.4853
 1517SOL    HW2 5768   1.786   3.163   4.254  1.6109  1.6768 -0.7692
 1518SOL     OW 5769   0.927   2.188   5.033 -0.2307 -0.7259  0.3202
 1518SOL    HW1 5770   0.969   2.232   5.107 -0.0026 -0.7280  0.1905
 1518SOL    HW2 5771   0.841   2.161   5.067  0.6583 -2.5711  1.2420
 1519SOL     OW 5772   1.471   2.262   4.897 -0.3069  0.2355 -0.7341
 1519SOL    HW1 5773   1.405   2.317   4.854 -1.2151  0.4439  0.8457
 1519SOL    HW2 5774   1.526   2.324   4.945 -0.6060 -0.1275  0.0943
 1520SOL     OW 5775   0.815   2.448   4.781 -0.8689 -0.4116 -0.2272
 1520SOL    HW1 5776   0.799   2.465   4.874 -1.5306 -3.0638  0.2464
 1520SOL    HW2 5777   0.891   2.390   4.780  0.2640  1.0128 -1.5245
 1521SOL     OW 5778   1.112   2.146   4.842 -0.0471 -0.3756  0.2756
 1521SOL    HW1 5779   1.121   2.229   4.796 -1.6136  0.1695  0.8605
 1521SOL    HW2 5780   1.054   2.166   4.916 -1.6695 -2.2914 -0.3899
 1522SOL     OW 5781   0.990   2.440   4.135 -0.0681 -0.0686 -0.0754
 1522SOL    HW1 5782   0.899   2.444   4.105  0.0487 -1.4156 -0.7228
 1522SOL    HW2 5783   1.001   2.516   4.192 -1.3655  0.5535 -0.6252
 1523SOL     OW 5784   8.428   2.022   4.583 -0.5073 -0.3567 -0.2743
 1523SOL    HW1 5785   8.405   2.082   4.511 -0.5588 -0.0745 -0.0246
 1523SOL    HW2 5786   8.435   1.936   4.541  0.4029 -0.0482 -0.7910
 1524SOL     OW 5787   0.118   3.553   5.641  0.2784  0.0004 -0.2015
 1524SOL    HW1 5788   0.105   3.623   5.705 -0.2239  1.4161 -1.7734
 1524SOL    HW2 5789   0.039   3.499   5.648 -0.1266  0.5910 -0.1543
 1525SOL     OW 5790   0.811   1.786   3.489  0.0289  0.4074  0.0424
 1525SOL    HW1 5791   0.841   1.696   3.478 -0.2190  0.4194 -0.8223
 1525SOL    HW2 5792   0.766   1.807   3.407  1.7105  1.9362 -0.5733
 1526SOL     OW 5793   1.433   2.722   5.411  0.5196 -0.0091 -0.1878
 1526SOL    HW1 5794   1.522   2.711   5.445  0.3020  3.8600  2.1547
 1526SOL    HW2 5795   1.445   2.737   5.317  2.1932 -0.6908 -0.1184
 1527SOL     OW 5796   1.127   2.911   4.425  0.4883  0.2383  0.0004
 1527SOL    HW1 5797   1.189   2.975   4.460 -0.8584  0.8206  1.4764
 1527SOL    HW2 5798   1.093   2.865   4.502 -1.6965  0.7099 -0.5923
 1528SOL     OW 5799   0.168   1.875   4.670 -0.0828 -0.2149  0.0076
 1528SOL    HW1 5800   0.180   1.844   4.760  1.5374 -1.2330 -0.5109
 1528SOL    HW2 5801   0.248   1.925   4.651  0.1534 -1.0410 -1.2549
 1529SOL     OW 5802   0.963   3.535   4.311  0.1025 -0.0574  0.1904
 1529SOL    HW1 5803   1.030   3.526   4.243  0.6328  3.6200  0.0150
 1529SOL    HW2 5804   1.008   3.509   4.392  1.1786  0.6059 -0.1739
 1530SOL     OW 5805   0.347   3.763   4.475  0.1724  0.5260  0.6648
 1530SOL    HW1 5806   0.318   3.805   4.556 -1.5829 -1.5990  1.2351
 1530SOL    HW2 5807   0.286   3.795   4.409  0.7263  1.1682  0.4536
 1531SOL     OW 5808   1.454   3.099   4.588 -0.3404  0.3327  0.1107
 1531SOL    HW1 5809   1.441   3.174   4.530  0.2538 -0.4773 -1.1077
 1531SOL    HW2 5810   1.547   3.101   4.611 -0.5723  0.6587  1.0783
 1532SOL     OW 5811   0.683   3.063   5.122  0.3676  0.3842 -0.5746
 1532SOL    HW1 5812   0.702   3.027   5.208 -1.4478  2.0279  0.5915
 1532SOL    HW2 5813   0.669   3.156   5.137 -0.2263  0.6780 -2.6204
 1533SOL     OW 5814   0.095   2.182   4.240 -0.1817  0.2477 -0.1196
 1533SOL    HW1 5815   0.019   2.124   4.238  0.6213 -0.8618  0.2667
 1533SOL    HW2 5816   0.148   2.156   4.165  0.5614 -0.0627  0.4966
 1534SOL     OW 5817   1.335   2.648   4.204  0.1355  0.6205 -0.1471
 1534SOL    HW1 5818   1.336   2.563   4.250  0.4356  0.7708  0.1266
 1534SOL    HW2 5819   1.412   2.694   4.236  0.5201  0.6143 -1.0279
 1535SOL     OW 5820   0.362   3.447   5.663 -0.5964 -0.0869 -0.6336
 1535SOL    HW1 5821   0.280   3.494   5.681 -0.1252  1.5203 -2.3711
 1535SOL    HW2 5822   0.427   3.516   5.654  0.6808 -1.2692 -0.6756
 1536SOL     OW 5823   0.809   3.779   3.755  0.4893  0.2403  0.0472
 1536SOL    HW1 5824   0.856   3.812   3.831 -0.8554  0.0651  1.0023
 1536SOL    HW2 5825   0.826   3.685   3.755  2.2475  0.5112 -1.1803
 1537SOL     OW 5826   0.357   1.832   5.241 -0.1233  0.3529  0.0057
 1537SOL    HW1 5827   0.263   1.821   5.227 -0.0841 -0.1011  0.0840
 1537SOL    HW2 5828   0.364   1.899   5.309 -0.3365  2.1770 -1.6663
 1538SOL     OW 5829   2.150   3.162   3.962 -0.3710 -0.0016  0.3586
 1538SOL    HW1 5830   2.117   3.203   4.042  1.5207  0.0395  1.1626
 1538SOL    HW2 5831   2.089   3.190   3.894 -2.3360 -0.4322  1.8372
 1539SOL     OW 5832   0.557   3.046   3.835 -0.6006  0.4282  0.8204
 1539SOL    HW1 5833   0.617   3.096   3.891  0.3875  1.4045 -0.9990
 1539SOL    HW2 5834   0.556   2.959   3.874  2.4272  0.2134  0.7142
 1540SOL     OW 5835   1.400   2.037   3.911  0.4451  0.1460 -0.2687
 1540SOL    HW1 5836   1.431   2.125   3.933  1.7804 -0.2842 -0.3357
 1540SOL    HW2 5837   1.435   2.021   3.823 -0.2582 -0.2470 -0.4822
 1541SOL     OW 5838   0.257   3.801   5.095  0.0030 -0.1345 -0.3540
 1541SOL    HW1 5839   0.263   3.887   5.052  0.1165  0.3796  0.6442
 1541SOL    HW2 5840   0.189   3.755   5.047  0.0426  0.4624 -1.0060
 1542SOL     OW 5841   1.106   3.510   4.088 -0.0597  0.1958  0.1987
 1542SOL    HW1 5842   1.069   3.442   4.031 -0.4958  0.4993  0.1105
 1542SOL    HW2 5843   1.101   3.590   4.036  0.2553  0.3336  0.3799
 1543SOL     OW 5844   0.688   2.316   4.597  0.5728 -0.7620 -0.0776
 1543SOL    HW1 5845   0.744   2.368   4.654  0.6090  0.9644 -1.5880
 1543SOL    HW2 5846   0.732   2.318   4.512 -1.1758 -0.3203 -1.0200
 1544SOL     OW 5847   1.608   1.930   5.276  0.3948 -0.1523  0.1873
 1544SOL    HW1 5848   1.659   1.991   5.329  0.3788  0.2632 -0.2730
 1544SOL    HW2 5849   1.663   1.852   5.271  1.7031  0.8288 -1.5780
 1545SOL     OW 5850   1.163   1.904   3.593  0.2031 -0.3710 -0.4891
 1545SOL    HW1 5851   1.187   1.841   3.525 -2.3834 -0.5682 -1.3022
 1545SOL    HW2 5852   1.094   1.957   3.553  1.4767  2.2957  0.5599
 1546SOL     OW 5853   0.514   2.330   5.079  0.3659  0.2391  0.6111
 1546SOL    HW1 5854   0.441   2.390   5.062  0.7899  1.0232  1.4652
 1546SOL    HW2 5855   0.588   2.388   5.096  2.0946 -0.4574 -3.4842
 1547SOL     OW 5856   0.881   3.771   4.782  0.1860  0.5855  0.5599
 1547SOL    HW1 5857   0.851   3.687   4.817 -0.8549  1.1815  1.1541
 1547SOL    HW2 5858   0.868   3.764   4.688 -1.3388  0.6114  0.7383
 1548SOL     OW 5859   1.667   2.111   4.820 -0.0660 -0.3086  0.1190
 1548SOL    HW1 5860   1.583   2.155   4.833  0.7280  1.5280 -0.6227
 1548SOL    HW2 5861   1.688   2.127   4.728  1.1137 -0.7174  0.3039
 1549SOL     OW 5862   0.607   3.171   4.808  0.1592  0.2231  0.0393
 1549SOL    HW1 5863   0.527   3.208   4.845  0.2646  1.0452 -0.5279
 1549SOL    HW2 5864   0.643   3.241   4.754  0.8260 -0.4250 -0.3741
 1550SOL     OW 5865   0.560   2.367   4.259 -0.1634 -0.0842 -0.0572
 1550SOL    HW1 5866   0.545   2.272   4.259 -0.9632 -0.0015  1.8865
 1550SOL    HW2 5867   0.494   2.402   4.318  0.3338  1.6668 -0.4741
 1551SOL     OW 5868   0.557   2.066   4.336 -0.0253 -0.5302 -0.4306
 1551SOL    HW1 5869   0.614   2.035   4.407 -0.8950  0.1568  0.5848
 1551SOL    HW2 5870   0.593   2.024   4.257  1.1374 -1.0737  0.3587
 1552SOL     OW 5871   0.938   3.004   3.863  0.3590 -0.5872 -0.4513
 1552SOL    HW1 5872   1.016   2.950   3.874 -0.3288 -1.5745 -0.1699
 1552SOL    HW2 5873   0.914   3.031   3.952  0.2773 -0.4442 -0.5163
 1553SOL     OW 5874   0.433   1.261   4.037  0.0471  0.5942  0.4687
 1553SOL    HW1 5875   0.506   1.218   4.082  0.6386  2.4982  1.4585
 1553SOL    HW2 5876   0.359   1.253   4.098 -0.7443 -1.6258 -0.6749
 1554SOL     OW 5877   1.007   2.429   3.495  0.0372 -0.5515 -0.6745
 1554SOL    HW1 5878   0.913   2.436   3.506 -0.0291 -0.3977 -1.3474
 1554SOL    HW2 5879   1.022   2.337   3.474 -0.0133 -0.4674 -1.0777
 1555SOL     OW 5880   1.153   2.390   4.697  0.2781 -0.2038  0.1455
 1555SOL    HW1 5881   1.232   2.432   4.665 -0.9508  0.2603 -2.5320
 1555SOL    HW2 5882   1.113   2.350   4.620 -2.7414  0.6406  1.1080
 1556SOL     OW 5883   1.625   3.461   4.234 -0.3808 -0.3305  0.1455
 1556SOL    HW1 5884   1.550   3.482   4.179 -1.1032 -1.2560  0.7536
 1556SOL    HW2 5885   1.598   3.384   4.284  1.3423 -1.3264 -0.3656
 1557SOL     OW 5886   0.278   2.872   4.713 -0.1984  0.1578  0.2258
 1557SOL    HW1 5887   0.186   2.850   4.730 -0.4620  0.6305 -0.5435
 1557SOL    HW2 5888   0.310   2.802   4.657 -0.0871 -0.0139  0.5051
 1558SOL     OW 5889   1.589   3.592   3.838  0.3478 -0.2267  0.0887
 1558SOL    HW1 5890   1.554   3.578   3.926  0.7040  0.6901  0.3930
 1558SOL    HW2 5891   1.582   3.687   3.825  0.4840 -0.3308 -0.7950
 1559SOL     OW 5892   1.029   2.587   3.154  0.1749 -0.2433  0.3524
 1559SOL    HW1 5893   0.951   2.592   3.098  0.9448  1.5415 -0.6711
 1559SOL    HW2 5894   1.093   2.540   3.101  0.6962  0.8695 -0.0340
 1560SOL     OW 5895   8.574   2.535   5.385 -0.2751 -0.1163  0.1479
 1560SOL    HW1 5896   8.498   2.571   5.340 -0.2926 -0.5594 -0.1797
 1560SOL    HW2 5897   8.565   2.565   5.476  1.2014  3.2398 -0.6207
 1561SOL     OW 5898   0.690   2.107   5.218 -0.2253  0.3945 -0.0911
 1561SOL    HW1 5899   0.683   2.180   5.279 -0.5392  1.4026 -1.2852
 1561SOL    HW2 5900   0.758   2.050   5.255  0.0490  1.3068  0.8395
 1562SOL     OW 5901   0.735   2.268   3.901 -0.2293  0.2438 -0.3903
 1562SOL    HW1 5902   0.686   2.347   3.923  0.3359  0.6921 -0.7062
 1562SOL    HW2 5903   0.728   2.213   3.979 -1.4514  0.1740 -0.5288
 1563SOL     OW 5904   1.026   1.655   4.302  0.5659 -0.4226 -0.2900
 1563SOL    HW1 5905   1.011   1.703   4.384 -1.2360 -2.4444  0.6871
 1563SOL    HW2 5906   0.973   1.702   4.238  1.2789  0.6628 -0.1128
 1564SOL     OW 5907   1.273   2.805   4.785 -0.8967  0.2700 -0.1951
 1564SOL    HW1 5908   1.190   2.839   4.752 -0.3120  1.2142 -0.7603
 1564SOL    HW2 5909   1.324   2.883   4.806  0.3205 -0.2477 -1.0976
 1565SOL     OW 5910   1.335   2.408   4.294  0.0874  0.4808 -0.1714
 1565SOL    HW1 5911   1.395   2.334   4.290  0.2795  0.6556 -0.5083
 1565SOL    HW2 5912   1.270   2.382   4.359  0.2998  0.1240 -0.0998
 1566SOL     OW 5913   1.337   2.684   3.904 -0.7273 -0.5283 -0.2761
 1566SOL    HW1 5914   1.359   2.711   3.993  2.5206 -1.7643 -0.5768
 1566SOL    HW2 5915   1.316   2.591   3.911 -1.9653 -0.2836 -0.6062
 1567SOL     OW 5916   0.887   3.523   3.769 -0.3395  0.2904 -0.4683
 1567SOL    HW1 5917   0.919   3.455   3.829 -2.5482  1.1875  1.9009
 1567SOL    HW2 5918   0.840   3.475   3.701  1.3331 -0.7081 -0.9763
 1568SOL     OW 5919   2.442   3.014   4.499  0.9372  0.1000 -0.5616
 1568SOL    HW1 5920   2.485   2.983   4.419 -0.6092  0.5811 -1.6316
 1568SOL    HW2 5921   2.363   3.058   4.468  1.4490  2.3779  1.0810
 1569SOL     OW 5922   1.017   2.673   3.427 -0.0690  0.2868 -0.5245
 1569SOL    HW1 5923   1.032   2.655   3.334 -1.0360 -1.5875 -0.3515
 1569SOL    HW2 5924   1.027   2.588   3.470  0.1129  1.0760  1.0679
 1570SOL     OW 5925   0.752   1.820   3.809 -0.5853  0.4545  0.5769
 1570SOL    HW1 5926   0.757   1.784   3.720 -2.6902 -0.7082  0.8596
 1570SOL    HW2 5927   0.823   1.883   3.814 -0.2750  0.3727 -1.8580
 1571SOL     OW 5928   1.418   3.109   5.480 -0.3788  0.3978  0.0182
 1571SOL    HW1 5929   1.425   3.090   5.386 -1.2902  0.3676 -0.0476
 1571SOL    HW2 5930   1.413   3.205   5.484 -0.9328  0.3695 -0.0042
 1572SOL     OW 5931   1.088   2.971   4.963  0.0160  0.2992  0.6051
 1572SOL    HW1 5932   1.162   3.032   4.956  0.1340  0.0566 -0.3666
 1572SOL    HW2 5933   1.111   2.914   5.036  2.3093 -1.7957 -1.5851
 1573SOL     OW 5934   1.708   3.514   5.096  0.3930 -0.1458 -0.3064
 1573SOL    HW1 5935   1.627   3.549   5.061  0.4169 -0.7980 -1.0373
 1573SOL    HW2 5936   1.766   3.590   5.104 -0.1642  0.2654 -0.0969
 1574SOL     OW 5937   0.861   3.243   4.518  0.3813 -0.8028 -0.1790
 1574SOL    HW1 5938   0.932   3.306   4.522 -1.1133  0.9536  0.5304
 1574SOL    HW2 5939   0.848   3.215   4.608 -0.3787 -0.4133 -0.1540
 1575SOL     OW 5940   1.581   3.075   4.918 -0.6006 -0.2593 -0.2117
 1575SOL    HW1 5941   1.630   3.157   4.918  0.3838 -0.8140 -0.7636
 1575SOL    HW2 5942   1.591   3.040   5.007 -0.4557 -0.1018 -0.1671
 1576SOL     OW 5943   0.830   1.642   4.764 -0.2608  0.2162  0.1562
 1576SOL    HW1 5944   0.851   1.551   4.783 -2.2495  0.1315  2.2520
 1576SOL    HW2 5945   0.742   1.655   4.797 -0.2852  2.7677 -0.6513
 1577SOL     OW 5946   1.289   3.009   5.218 -0.2440 -0.1268  0.0052
 1577SOL    HW1 5947   1.376   3.024   5.179 -1.0790 -1.2971 -2.5355
 1577SOL    HW2 5948   1.250   3.096   5.222  0.6626  0.2869  0.2425
 1578SOL     OW 5949   0.142   2.472   3.779 -0.1537  0.0327 -0.1028
 1578SOL    HW1 5950   0.167   2.475   3.871  0.5112  1.3174 -0.3057
 1578SOL    HW2 5951   0.206   2.413   3.738 -1.4895 -1.9689  0.5143
 1579SOL     OW 5952   0.321   2.484   5.017 -0.3557  0.9187  0.1733
 1579SOL    HW1 5953   0.313   2.562   5.071  1.0354  0.2108  1.4803
 1579SOL    HW2 5954   0.250   2.491   4.954 -0.6305  2.9143  0.6500
 1580SOL     OW 5955   1.329   2.088   4.656  0.0135 -0.1280  0.1634
 1580SOL    HW1 5956   1.261   2.099   4.723  0.5003 -0.8333  0.7815
 1580SOL    HW2 5957   1.285   2.042   4.585  0.0839 -1.5115  0.9870
 1581SOL     OW 5958   8.588   3.598   5.131  0.1189  0.2434  0.0429
 1581SOL    HW1 5959   8.645   3.553   5.193  0.6936 -0.7588 -1.1680
 1581SOL    HW2 5960   8.646   3.661   5.088 -0.6951  2.3089  1.7816
 1582SOL     OW 5961   0.542   2.707   4.388 -0.2621 -0.0202  0.0177
 1582SOL    HW1 5962   0.578   2.794   4.377  0.1307 -0.3430 -1.4840
 1582SOL    HW2 5963   0.469   2.703   4.326  0.5752 -1.1858 -0.9494
 1583SOL     OW 5964   0.462   2.335   4.771  0.5067  0.2842 -0.3025
 1583SOL    HW1 5965   0.539   2.305   4.722  1.2002  1.9540 -0.2892
 1583SOL    HW2 5966   0.498   2.389   4.841 -0.6911  2.3197 -1.1508
 1584SOL     OW 5967   0.988   3.303   3.890  0.2560  0.4384 -0.5808
 1584SOL    HW1 5968   0.907   3.259   3.917  0.2007  0.2221 -1.0904
 1584SOL    HW2 5969   1.056   3.237   3.900  0.0806  0.0324 -1.9249
 1585SOL     OW 5970   1.338   3.068   4.831 -0.4652  0.2672  0.0971
 1585SOL    HW1 5971   1.363   3.083   4.739 -0.4329  1.0991  0.2295
 1585SOL    HW2 5972   1.421   3.052   4.876 -0.3635  0.9066  0.1565
 1586SOL     OW 5973   1.494   2.283   3.965  0.4747 -0.2107 -0.2889
 1586SOL    HW1 5974   1.417   2.336   3.988  0.9776  0.2048  0.4736
 1586SOL    HW2 5975   1.529   2.324   3.885  0.1642 -0.1347 -0.3867
 1587SOL     OW 5976   0.386   3.311   4.954 -0.3225 -0.5671  0.0158
 1587SOL    HW1 5977   0.331   3.274   4.885 -2.8121 -1.1299  2.1591
 1587SOL    HW2 5978   0.406   3.400   4.924 -1.3017 -0.8059 -1.4352
 1588SOL     OW 5979   0.688   2.685   5.480  0.0333 -0.3092 -0.2698
 1588SOL    HW1 5980   0.724   2.659   5.565 -1.1730  0.2960  0.4615
 1588SOL    HW2 5981   0.602   2.644   5.477  0.2555 -0.7101 -1.4247
 1589SOL     OW 5982   1.841   2.313   5.248 -0.1426 -0.3906 -0.3993
 1589SOL    HW1 5983   1.756   2.358   5.252 -0.1574 -0.4328 -0.2514
 1589SOL    HW2 5984   1.878   2.322   5.335 -0.9474 -2.2226  0.1915
 1590SOL     OW 5985   1.147   2.208   5.387 -0.2779 -0.9491  0.1755
 1590SOL    HW1 5986   1.082   2.243   5.325 -0.9703 -2.4562 -0.0119
 1590SOL    HW2 5987   1.231   2.222   5.344 -0.5543  0.0923 -0.0576
 1591SOL     OW 5988   0.388   2.273   5.377  0.4018  0.3252  0.0108
 1591SOL    HW1 5989   0.304   2.257   5.334 -0.2102  1.9868  0.5195
 1591SOL    HW2 5990   0.450   2.285   5.305 -0.1811  0.9840 -0.3925
 1592SOL     OW 5991   0.735   2.519   5.089 -0.2906 -0.2146 -0.1097
 1592SOL    HW1 5992   0.710   2.611   5.100 -1.4397 -0.4550 -0.6163
 1592SOL    HW2 5993   0.827   2.516   5.115  0.0084  1.2391 -0.9126
 1593SOL     OW 5994   1.104   2.284   4.458 -0.1678 -0.2524  0.8932
 1593SOL    HW1 5995   1.015   2.318   4.454  0.7043  2.0893 -2.0464
 1593SOL    HW2 5996   1.095   2.191   4.435 -1.8576 -0.2274  1.2959
 1594SOL     OW 5997   1.508   2.429   3.733  0.5561  0.4409  0.1374
 1594SOL    HW1 5998   1.419   2.454   3.707  0.3129 -1.6500 -1.3878
 1594SOL    HW2 5999   1.565   2.473   3.669  0.4631  0.4340  0.0490
 1595SOL     OW 6000   0.580   1.623   5.259 -0.1200  0.3772  0.2873
 1595SOL    HW1 6001   0.560   1.579   5.177 -0.1080 -0.9593  0.9739
 1595SOL    HW2 6002   0.505   1.681   5.274  0.1234  1.0480 -0.9029
 1596SOL     OW 6003   0.117   3.199   5.116  0.0621  0.4104  0.5531
 1596SOL    HW1 6004   0.026   3.204   5.145 -0.3380 -0.0846 -0.5503
 1596SOL    HW2 6005   0.113   3.153   5.032  1.1225  2.0748 -0.4742
 1597SOL     OW 6006   0.443   1.945   4.668 -0.0350 -0.3701 -0.0844
 1597SOL    HW1 6007   0.533   1.918   4.647 -0.5438 -2.6912  0.3893
 1597SOL    HW2 6008   0.437   1.934   4.763 -0.3847  1.3430  0.1246
 1598SOL     OW 6009   2.309   2.791   5.528  0.0689 -0.0064  0.0838
 1598SOL    HW1 6010   2.317   2.840   5.446  0.7081 -1.6979 -0.9383
 1598SOL    HW2 6011   2.361   2.840   5.591 -0.4861  1.3762 -0.4869
 1599SOL     OW 6012   0.442   1.644   4.221 -0.5322 -0.1741  0.2723
 1599SOL    HW1 6013   0.474   1.645   4.131 -1.1850 -1.4561  0.0054
 1599SOL    HW2 6014   0.484   1.568   4.261  0.3342  0.7961  1.2976
 1600SOL     OW 6015   1.801   2.133   3.901 -0.2613 -0.0045  0.3013
 1600SOL    HW1 6016   1.775   2.049   3.938  1.1499 -1.4721 -1.8090
 1600SOL    HW2 6017   1.866   2.168   3.963  1.6415 -2.1276 -0.3366
 1601SOL     OW 6018   0.883   2.030   4.231 -0.0386 -0.1540  0.4718
 1601SOL    HW1 6019   0.846   1.946   4.202  1.5223 -0.7094 -0.0019
 1601SOL    HW2 6020   0.953   2.048   4.169 -0.5181  1.6628  0.4198
 1602SOL     OW 6021   0.870   3.188   5.346 -0.0999 -0.0895 -0.6028
 1602SOL    HW1 6022   0.926   3.149   5.413 -1.1877 -1.5889 -0.5144
 1602SOL    HW2 6023   0.791   3.212   5.392 -0.6211 -0.5809 -1.2191
 1603SOL     OW 6024   1.580   3.002   5.198  0.4504  0.3113  0.1246
 1603SOL    HW1 6025   1.622   3.088   5.208  1.2839  0.1197 -1.3778
 1603SOL    HW2 6026   1.642   2.940   5.237  0.1069  0.3381  0.7123
 1604SOL     OW 6027   0.406   3.045   5.524  0.7743  0.1131 -0.0794
 1604SOL    HW1 6028   0.442   3.011   5.605 -0.8580  0.2126  0.7266
 1604SOL    HW2 6029   0.383   2.966   5.473  2.9495  0.0339 -1.0414
 1605SOL     OW 6030   1.950   2.571   3.745  0.2970  0.6113  0.6572
 1605SOL    HW1 6031   1.885   2.573   3.815 -1.8242 -2.1922 -1.0085
 1605SOL    HW2 6032   1.939   2.655   3.700 -1.0342  0.8381  1.3658
 1606SOL     OW 6033   1.061   2.708   3.827 -0.2430  0.0066  0.2876
 1606SOL    HW1 6034   1.143   2.670   3.796  0.0185  0.6134  0.2342
 1606SOL    HW2 6035   0.996   2.640   3.808  0.0921 -0.0997 -0.5431
 1607SOL     OW 6036   0.872   3.251   4.827  0.1767 -0.0210 -0.5256
 1607SOL    HW1 6037   0.807   3.258   4.897 -0.4983 -1.1998 -1.0006
 1607SOL    HW2 6038   0.951   3.220   4.871 -0.1892 -0.5739 -0.2463
 1608SOL     OW 6039   0.116   2.410   4.755  0.1891 -0.3374 -0.8958
 1608SOL    HW1 6040   0.130   2.322   4.790  1.4935 -0.2965 -1.2632
 1608SOL    HW2 6041   0.022   2.416   4.740  0.0803 -1.6326 -0.7818
 1609SOL     OW 6042   8.284   2.103   4.803  0.1317  0.1242  0.5769
 1609SOL    HW1 6043   8.345   2.070   4.738  1.4928  0.4880  1.6240
 1609SOL    HW2 6044   8.268   2.028   4.861 -0.4931  0.0056  0.2573
 1610SOL     OW 6045   1.517   2.155   5.155  0.0309 -0.5171 -0.5647
 1610SOL    HW1 6046   1.497   2.135   5.063  0.8216  0.0961 -0.8849
 1610SOL    HW2 6047   1.541   2.071   5.193 -0.7336 -0.8508 -0.7997
 1611SOL     OW 6048   1.345   1.764   4.868 -0.3094 -0.2189  0.2737
 1611SOL    HW1 6049   1.393   1.701   4.923  2.4064  0.4583 -1.1471
 1611SOL    HW2 6050   1.393   1.846   4.878 -3.1534  1.4585  1.2388
 1612SOL     OW 6051   0.238   3.101   4.261  0.3711  0.4277  0.4785
 1612SOL    HW1 6052   0.268   3.176   4.313  2.0767 -0.4699  0.8483
 1612SOL    HW2 6053   0.153   3.079   4.299  0.7506  0.9346  1.6895
 1613SOL     OW 6054   8.845   3.548   4.393 -0.0372  0.0657  0.0181
 1613SOL    HW1 6055   8.864   3.484   4.324  0.1391  0.0961  0.0374
 1613SOL    HW2 6056   8.910   3.617   4.380 -0.5657  0.5035 -0.3334
 1614SOL     OW 6057   0.369   3.216   4.465 -0.0023 -0.2696 -0.0242
 1614SOL    HW1 6058   0.387   3.310   4.463 -0.8399 -0.0481  1.2483
 1614SOL    HW2 6059   0.455   3.175   4.467  0.4852  0.6285  2.8029
 1615SOL     OW 6060   0.836   2.302   4.389  0.1141 -0.1334  0.0460
 1615SOL    HW1 6061   0.819   2.371   4.325 -0.4715  0.2480  0.6082
 1615SOL    HW2 6062   0.846   2.222   4.336 -0.3399  0.1798 -0.5177
 1616SOL     OW 6063   8.777   2.372   5.146 -0.4228  0.6356 -0.1239
 1616SOL    HW1 6064   8.766   2.330   5.060 -3.0132  2.6182 -0.9054
 1616SOL    HW2 6065   8.844   2.439   5.132  2.1089 -1.6055  0.5582
 1617SOL     OW 6066   0.437   2.580   5.514 -0.7267 -0.2811  0.0853
 1617SOL    HW1 6067   0.454   2.499   5.563 -0.0880  0.7940  1.6982
 1617SOL    HW2 6068   0.342   2.580   5.501 -0.6775 -1.5981 -0.5553
 1618SOL     OW 6069   1.526   2.693   4.862 -0.1604  0.2560  0.0348
 1618SOL    HW1 6070   1.593   2.748   4.821  0.3813 -0.0376  0.5007
 1618SOL    HW2 6071   1.443   2.723   4.824  0.3155 -0.0072 -1.2496
 1619SOL     OW 6072   0.712   2.113   3.668  0.0244  0.3611  0.3459
 1619SOL    HW1 6073   0.720   2.174   3.741 -1.1231  1.6272 -0.5300
 1619SOL    HW2 6074   0.798   2.115   3.625 -0.2286  2.0396 -0.1493
 1620SOL     OW 6075   1.695   2.451   4.601 -0.2095 -0.2294  0.0899
 1620SOL    HW1 6076   1.690   2.357   4.583  1.1954 -0.9421  2.7716
 1620SOL    HW2 6077   1.771   2.481   4.551  0.4733 -0.9677  0.6521
 1621SOL     OW 6078   0.280   3.504   5.207  0.2645 -0.1068 -0.5201
 1621SOL    HW1 6079   0.319   3.542   5.286  0.3081 -0.0868 -0.5512
 1621SOL    HW2 6080   0.305   3.563   5.137  1.0311 -0.6231 -0.7011
 1622SOL     OW 6081   0.817   1.926   4.783  0.1278 -0.5657  0.1151
 1622SOL    HW1 6082   0.907   1.903   4.804 -0.6096 -3.8438  0.2052
 1622SOL    HW2 6083   0.768   1.845   4.796 -2.6335  0.7739 -1.1530
 1623SOL     OW 6084   0.790   3.533   4.834  0.2497 -0.0541  0.1890
 1623SOL    HW1 6085   0.712   3.497   4.790  0.4710  0.8902 -1.0477
 1623SOL    HW2 6086   0.857   3.466   4.822 -0.0718 -0.4073  0.3119
 1624SOL     OW 6087   0.104   1.908   4.092 -0.0551 -0.4371 -0.5111
 1624SOL    HW1 6088   0.024   1.883   4.139  0.2955  0.3843  0.5582
 1624SOL    HW2 6089   0.163   1.833   4.104  0.5592  0.3123  1.6733
 1625SOL     OW 6090   0.283   3.284   5.464  0.2711 -0.3924  0.0429
 1625SOL    HW1 6091   0.313   3.195   5.485  0.5024 -0.4006 -0.3216
 1625SOL    HW2 6092   0.289   3.331   5.548  0.7688 -0.5463  0.0991
 1626SOL     OW 6093   1.115   2.617   4.898  0.3105  0.0582 -0.0230
 1626SOL    HW1 6094   1.143   2.700   4.858  0.3941 -0.0405 -0.1698
 1626SOL    HW2 6095   1.126   2.552   4.828 -2.0929  0.3128 -0.7551
 1627SOL     OW 6096   1.323   3.325   3.961 -0.3833  0.0042 -0.1087
 1627SOL    HW1 6097   1.280   3.279   4.033  0.4516  0.1393  0.4875
 1627SOL    HW2 6098   1.415   3.298   3.965 -0.2607  0.2405 -0.9411
 1628SOL     OW 6099   1.913   3.467   4.728 -0.4810  0.7340  0.3616
 1628SOL    HW1 6100   2.005   3.478   4.704 -0.3358  0.4384  0.7815
 1628SOL    HW2 6101   1.900   3.372   4.732 -0.8911  0.7703 -0.0256
 1629SOL     OW 6102   1.506   3.647   4.717 -0.2761  0.0368 -0.6172
 1629SOL    HW1 6103   1.521   3.740   4.699 -0.4722  0.4919  1.3365
 1629SOL    HW2 6104   1.565   3.601   4.657  0.5695  1.4513 -0.9167
 1630SOL     OW 6105   8.727   2.794   4.858  0.4888 -0.0048  0.6591
 1630SOL    HW1 6106   8.694   2.867   4.805 -1.1413 -1.5608 -0.6040
 1630SOL    HW2 6107   8.687   2.807   4.944  1.0095  1.0937  0.7587
 1631SOL     OW 6108   0.757   3.710   5.547 -0.3693  0.2952 -0.0083
 1631SOL    HW1 6109   0.826   3.691   5.483  0.9009 -1.0230  1.6519
 1631SOL    HW2 6110   0.675   3.691   5.501  0.5188 -0.8733 -1.1712
 1632SOL     OW 6111   1.731   2.359   4.307 -0.1586 -0.4828 -0.3689
 1632SOL    HW1 6112   1.697   2.292   4.366  1.0387  0.3258  1.3482
 1632SOL    HW2 6113   1.712   2.326   4.219 -0.8313 -2.3845  0.4342
 1633SOL     OW 6114   1.289   3.697   3.764  0.0927 -0.1962 -0.0661
 1633SOL    HW1 6115   1.355   3.766   3.769 -0.0795  0.1151 -1.5521
 1633SOL    HW2 6116   1.336   3.617   3.790  1.2961 -0.1127 -1.7936
 1634SOL     OW 6117   0.422   3.725   5.822  0.4233  0.1997  0.1537
 1634SOL    HW1 6118   0.357   3.678   5.874  0.7178 -1.4344 -0.8841
 1634SOL    HW2 6119   0.412   3.817   5.849 -3.1800  0.2611 -0.8120
 1635SOL     OW 6120   0.995   2.646   4.296 -0.0523  0.4977  0.1948
 1635SOL    HW1 6121   1.070   2.705   4.302  1.3824 -0.9199 -2.3293
 1635SOL    HW2 6122   0.942   2.667   4.373  1.3702  3.6345  0.4530
 1636SOL     OW 6123   1.064   3.088   5.490  0.2527 -0.6206  0.0082
 1636SOL    HW1 6124   1.115   3.011   5.515  1.9149  0.5053  0.2638
 1636SOL    HW2 6125   1.125   3.140   5.438 -0.3801  1.1411  0.9655
 1637SOL     OW 6126   0.462   3.040   3.495 -0.8858  0.2472  0.1233
 1637SOL    HW1 6127   0.555   3.051   3.511 -0.9160 -0.3517  0.7926
 1637SOL    HW2 6128   0.434   2.975   3.560 -1.5778 -0.2882 -0.6847
 1638SOL     OW 6129   1.717   3.529   4.555 -0.0322  0.4935 -0.2235
 1638SOL    HW1 6130   1.784   3.510   4.622  0.1770  0.1928 -0.5158
 1638SOL    HW2 6131   1.764   3.578   4.488 -0.0545  0.0990 -0.5299
 1639SOL     OW 6132   1.326   2.029   4.315 -0.2446 -0.4269 -0.3014
 1639SOL    HW1 6133   1.324   1.968   4.241 -1.2113 -0.4757 -0.2548
 1639SOL    HW2 6134   1.246   2.008   4.364 -0.1513  0.3177  0.1694
 1640SOL     OW 6135   8.669   2.134   4.626  0.1198 -0.3312 -0.0759
 1640SOL    HW1 6136   8.702   2.044   4.630 -0.1634 -0.5580 -1.9290
 1640SOL    HW2 6137   8.574   2.124   4.616 -0.0070  0.2153  0.4867
 1641SOL     OW 6138   2.191   3.463   4.027  0.0890 -0.0024  0.2636
 1641SOL    HW1 6139   2.164   3.371   4.035  0.8408 -0.2058  0.4873
 1641SOL    HW2 6140   2.197   3.494   4.117  0.0167  0.2218  0.1926
 1642SOL     OW 6141   0.755   2.914   5.329 -0.4287 -0.6312 -0.2589
 1642SOL    HW1 6142   0.755   2.830   5.374  1.7007 -1.1102 -1.0250
 1642SOL    HW2 6143   0.834   2.958   5.361 -0.5723  0.3281 -1.1738
 1643SOL     OW 6144   0.808   2.775   4.050  0.0197 -0.7129 -0.0762
 1643SOL    HW1 6145   0.836   2.698   4.100 -0.1699 -0.3190  0.6450
 1643SOL    HW2 6146   0.885   2.800   4.000  0.8496  0.0836  1.5364
 1644SOL     OW 6147   1.792   3.409   3.799 -0.5853 -0.9312  0.4644
 1644SOL    HW1 6148   1.734   3.484   3.789 -2.0278 -1.9665  0.7079
 1644SOL    HW2 6149   1.733   3.334   3.810  0.8018 -2.0433  0.6803
 1645SOL     OW 6150   1.600   3.305   4.456  0.1188  0.3038  0.0907
 1645SOL    HW1 6151   1.627   3.390   4.491 -0.2743  0.1178  0.8698
 1645SOL    HW2 6152   1.679   3.252   4.458  0.0673  0.2542  0.8312
 1646SOL     OW 6153   0.827   2.914   4.870 -0.1115 -0.0445  0.0118
 1646SOL    HW1 6154   0.917   2.930   4.898 -0.1547 -1.4757  1.1172
 1646SOL    HW2 6155   0.774   2.939   4.946 -0.7024  1.1521 -0.7659
 1647SOL     OW 6156   0.719   2.031   4.551  0.7768  0.2804 -0.0743
 1647SOL    HW1 6157   0.749   2.003   4.638 -1.4788  1.1319  1.0755
 1647SOL    HW2 6158   0.741   2.124   4.548  0.9808  0.2177 -0.4623
 1648SOL     OW 6159   0.957   3.078   4.298  0.8072  0.3359 -0.1566
 1648SOL    HW1 6160   0.931   3.130   4.374  0.1277  0.4054 -0.4261
 1648SOL    HW2 6161   0.996   2.998   4.335 -2.1623 -1.0105  0.3568
 1649SOL     OW 6162   1.831   2.070   5.063  0.3789 -0.5143 -0.4587
 1649SOL    HW1 6163   1.824   2.144   5.124  1.1375  0.7602 -1.8519
 1649SOL    HW2 6164   1.771   2.093   4.992 -0.3807 -1.9066 -0.3030
 1650SOL     OW 6165   8.365   3.301   4.364  0.8559  0.0661  0.1700
 1650SOL    HW1 6166   8.432   3.234   4.348  2.2841  1.7892 -1.5131
 1650SOL    HW2 6167   8.288   3.269   4.317  1.2605 -0.7860  0.0671
 1651SOL     OW 6168   0.130   2.845   5.439  0.0630  0.4103  0.2511
 1651SOL    HW1 6169   0.147   2.756   5.472 -0.3891  0.3404  0.3067
 1651SOL    HW2 6170   0.141   2.838   5.345 -1.6705 -0.1372  0.0411
 1652SOL     OW 6171   1.239   1.857   5.177 -0.6315  0.2524  0.7612
 1652SOL    HW1 6172   1.177   1.797   5.135  0.7261  0.1855 -1.2983
 1652SOL    HW2 6173   1.242   1.933   5.118  1.0192  0.3579  0.9378
 1653SOL     OW 6174   0.337   2.096   4.074 -0.7423  0.9785 -0.1050
 1653SOL    HW1 6175   0.328   2.014   4.026  0.1930  0.3801  0.7192
 1653SOL    HW2 6176   0.352   2.070   4.165  3.0333  1.8855 -0.3094
 1654SOL     OW 6177   1.394   2.459   4.609  0.8760 -0.2618  0.0560
 1654SOL    HW1 6178   1.450   2.394   4.567  0.8786  1.2889 -2.6238
 1654SOL    HW2 6179   1.446   2.539   4.608 -1.1673  1.2093 -2.3954
 1655SOL     OW 6180   0.546   1.656   3.959  0.4631  0.1179  0.3216
 1655SOL    HW1 6181   0.494   1.588   3.917  0.7473 -0.8854  1.5092
 1655SOL    HW2 6182   0.601   1.692   3.890 -0.4228 -0.1467 -0.5331
 1656SOL     OW 6183   0.566   2.821   3.973  0.9063 -0.2829  0.6378
 1656SOL    HW1 6184   0.652   2.805   4.010  0.2234 -2.4298  1.4310
 1656SOL    HW2 6185   0.561   2.765   3.896 -0.0928 -0.8931  1.1209
 1657SOL     OW 6186   0.403   2.676   5.224  0.4928 -0.1428  0.1842
 1657SOL    HW1 6187   0.488   2.689   5.182 -0.9393  0.6893 -2.7436
 1657SOL    HW2 6188   0.423   2.669   5.317  3.5170  2.5123 -0.1027
 1658SOL     OW 6189   1.700   3.950   4.887  0.1198 -0.1612  0.2093
 1658SOL    HW1 6190   1.781   3.900   4.874  0.2260 -0.1078  0.6381
 1658SOL    HW2 6191   1.683   3.990   4.802 -0.4884 -1.6701 -0.4181
 1659SOL     OW 6192   0.696   2.289   5.784 -0.1768 -0.4868  0.2081
 1659SOL    HW1 6193   0.614   2.314   5.741 -1.8707 -1.2903  2.7477
 1659SOL    HW2 6194   0.738   2.230   5.721 -0.7700  1.0933 -1.7757
 1660SOL     OW 6195   1.247   2.910   5.543 -0.1636  0.1366  0.4768
 1660SOL    HW1 6196   1.313   2.973   5.511 -1.8000  1.4630 -0.4274
 1660SOL    HW2 6197   1.287   2.824   5.526  1.7674  0.8764  0.9381
 1661SOL     OW 6198   0.584   3.674   5.318  0.1019 -0.7833 -0.1288
 1661SOL    HW1 6199   0.491   3.686   5.296  0.0605  1.5337  1.0065
 1661SOL    HW2 6200   0.623   3.637   5.239 -1.8151 -2.1092 -0.5267
 1662SOL     OW 6201   1.568   2.784   4.513 -0.0260 -0.2318  0.3677
 1662SOL    HW1 6202   1.493   2.826   4.470  0.5772  0.2401 -0.2394
 1662SOL    HW2 6203   1.572   2.826   4.599 -1.7222 -1.7348  1.2651
 1663SOL     OW 6204   1.259   2.400   4.042  0.1567  0.1376 -0.3083
 1663SOL    HW1 6205   1.298   2.406   4.129 -0.9203  0.2666  0.1839
 1663SOL    HW2 6206   1.164   2.398   4.058 -0.0442 -0.3261 -1.4524
 1664SOL     OW 6207   0.538   2.022   4.971  0.6346  0.2256 -0.3385
 1664SOL    HW1 6208   0.588   1.993   5.048 -0.3340 -2.2113 -0.5339
 1664SOL    HW2 6209   0.557   2.115   4.964  1.4700  0.3345  2.3169
 1665SOL     OW 6210   1.882   1.916   5.345 -0.1484  0.1042 -0.4925
 1665SOL    HW1 6211   1.882   1.887   5.254  0.0585  1.3450 -0.8999
 1665SOL    HW2 6212   1.943   1.856   5.389  0.0027 -0.2973 -1.2281
 1666SOL     OW 6213   1.781   2.630   5.083  0.0781 -0.3353  0.0648
 1666SOL    HW1 6214   1.776   2.607   4.991  2.0494 -3.2647  0.5484
 1666SOL    HW2 6215   1.720   2.571   5.126  0.5934 -0.3352  0.8203
 1667SOL     OW 6216   0.568   3.463   3.811 -0.5800  0.0019  0.2983
 1667SOL    HW1 6217   0.602   3.401   3.747 -1.6468 -0.8523  0.5430
 1667SOL    HW2 6218   0.477   3.479   3.784 -0.8079  0.2210  1.1548
 1668SOL     OW 6219   0.520   3.757   4.718  0.3814 -0.0855 -0.0439
 1668SOL    HW1 6220   0.492   3.743   4.628  0.4371  1.2513 -0.2966
 1668SOL    HW2 6221   0.600   3.809   4.710  0.1649  0.4017  0.7771
 1669SOL     OW 6222   0.491   2.925   4.876  0.0540 -0.1628 -0.6384
 1669SOL    HW1 6223   0.520   3.014   4.856 -0.6134  0.4181  0.8280
 1669SOL    HW2 6224   0.414   2.911   4.821  1.3900 -0.6699 -2.4688
 1670SOL     OW 6225   0.924   2.487   3.772  0.1038 -0.4567  0.0530
 1670SOL    HW1 6226   0.913   2.425   3.844  0.8421  0.0581  0.6321
 1670SOL    HW2 6227   0.852   2.467   3.711 -1.7477  0.3585  1.8501
 1671SOL     OW 6228   2.084   3.263   4.196  0.4150 -1.0414 -0.2198
 1671SOL    HW1 6229   1.992   3.266   4.221  0.8682 -2.3722  1.8608
 1671SOL    HW2 6230   2.122   3.344   4.230  0.0604 -0.5531 -0.9686
 1672SOL     OW 6231   0.164   3.285   6.016  0.4425  0.5469 -0.1632
 1672SOL    HW1 6232   0.136   3.210   5.964  0.5903  0.3873 -0.0129
 1672SOL    HW2 6233   0.135   3.265   6.105 -0.1169  0.9744 -0.2378
 1673SOL     OW 6234   0.076   2.787   4.402 -0.3905  0.7512  0.0499
 1673SOL    HW1 6235   0.134   2.784   4.478 -1.0376  0.4949  0.5437
 1673SOL    HW2 6236   0.128   2.751   4.331 -0.3252 -0.6292  0.7607
 1674SOL     OW 6237   0.534   3.320   5.235  0.2286  0.2542  0.2229
 1674SOL    HW1 6238   0.551   3.363   5.319  0.3305 -1.6769  1.2501
 1674SOL    HW2 6239   0.610   3.343   5.181  0.7270  0.6042  1.0511
 1675SOL     OW 6240   1.798   2.556   4.834  0.1237  0.4875 -0.1037
 1675SOL    HW1 6241   1.843   2.474   4.857  2.5150  1.3211 -1.5244
 1675SOL    HW2 6242   1.732   2.530   4.770  1.3168 -0.2936 -1.0655
 1676SOL     OW 6243   0.413   2.234   4.501 -0.2233  0.6319  0.2878
 1676SOL    HW1 6244   0.434   2.234   4.594  1.0175  1.6287  0.0233
 1676SOL    HW2 6245   0.472   2.168   4.463  0.3681  1.3253 -0.0134
 1677SOL     OW 6246   2.021   3.623   4.421  0.3158 -0.4112 -0.1534
 1677SOL    HW1 6247   2.043   3.703   4.373 -3.3101 -0.0464 -1.5619
 1677SOL    HW2 6248   2.012   3.652   4.512 -0.7764  0.8147 -0.6134
 1678SOL     OW 6249   0.207   2.166   4.831  0.1739 -0.6737 -0.6629
 1678SOL    HW1 6250   0.285   2.218   4.811  1.8667 -2.8511 -0.1065
 1678SOL    HW2 6251   0.239   2.076   4.837 -1.8875 -1.3616  2.2367
 1679SOL     OW 6252   0.628   3.114   4.454  0.0091  0.1861 -0.1522
 1679SOL    HW1 6253   0.721   3.133   4.469  0.5116 -0.9637 -1.5174
 1679SOL    HW2 6254   0.618   3.024   4.485 -0.6772  0.3394  0.0709
 1680SOL     OW 6255   1.596   1.968   4.457  0.1005  0.2901 -0.1610
 1680SOL    HW1 6256   1.595   1.893   4.517  0.2012 -0.1585 -0.7143
 1680SOL    HW2 6257   1.688   1.984   4.439  0.0325 -1.5626 -2.6191
 1681SOL     OW 6258   1.073   1.872   4.832 -0.0157  0.2567  0.4870
 1681SOL    HW1 6259   1.162   1.836   4.838 -0.5155 -1.2379 -0.6025
 1681SOL    HW2 6260   1.084   1.965   4.851  1.5135 -0.1987  2.1541
 1682SOL     OW 6261   0.998   2.809   4.642 -0.3686 -0.3866  0.0440
 1682SOL    HW1 6262   0.937   2.743   4.608 -1.6174  1.8730 -2.4756
 1682SOL    HW2 6263   0.948   2.855   4.710 -1.4706  1.1888 -1.7297
 1683SOL     OW 6264   0.662   3.261   5.529  0.1655  0.2101 -0.2391
 1683SOL    HW1 6265   0.735   3.228   5.581 -0.8523 -1.5353  0.1518
 1683SOL    HW2 6266   0.602   3.187   5.523 -0.8762  1.1412 -1.8336
 1684SOL     OW 6267   1.065   2.137   4.073  0.0931  0.3073 -0.4241
 1684SOL    HW1 6268   1.075   2.227   4.103 -0.0380  0.1063  0.2230
 1684SOL    HW2 6269   1.115   2.134   3.991  0.0837  0.9689 -0.4569
 1685SOL     OW 6270   1.059   1.997   4.435 -0.5572 -0.0920 -0.1987
 1685SOL    HW1 6271   0.995   2.022   4.369  0.1656 -1.0772 -1.3085
 1685SOL    HW2 6272   1.026   1.914   4.471 -0.1681 -0.3549 -0.4345
 1686SOL     OW 6273   1.511   2.232   4.533 -0.8030 -0.3437 -0.3751
 1686SOL    HW1 6274   1.458   2.184   4.597  0.2850 -1.5489 -0.3347
 1686SOL    HW2 6275   1.543   2.164   4.473 -0.2867  0.5139 -1.0851
 1687SOL     OW 6276   0.912   3.882   4.147 -0.2525 -0.4055  1.0110
 1687SOL    HW1 6277   0.971   3.957   4.140 -2.4234  1.1994 -3.6696
 1687SOL    HW2 6278   0.960   3.810   4.107  0.0745 -0.2785  1.1713
 1688SOL     OW 6279   0.168   2.640   5.903 -0.3691 -0.6915 -0.2562
 1688SOL    HW1 6280   0.090   2.691   5.925  0.0021 -0.3729  0.3399
 1688SOL    HW2 6281   0.146   2.597   5.820 -0.6327  0.5711 -0.8655
 1689SOL     OW 6282   8.836   1.808   6.742 -0.0215 -0.4197 -0.2947
 1689SOL    HW1 6283   8.870   1.721   6.761  2.9976  0.5769 -0.7319
 1689SOL    HW2 6284   8.857   1.822   6.650  2.5104  1.9480  0.5389
 1690SOL     OW 6285   0.526   1.989   6.486  0.2672 -0.5736 -0.3277
 1690SOL    HW1 6286   0.525   1.955   6.576  0.0733 -2.2236 -0.9163
 1690SOL    HW2 6287   0.616   2.017   6.471  0.2381 -0.0204  0.4578
 1691SOL     OW 6288   0.378   3.340   7.008 -0.0372  0.3633 -0.0618
 1691SOL    HW1 6289   0.434   3.283   6.955 -1.5862 -2.5370  1.1784
 1691SOL    HW2 6290   0.417   3.338   7.095 -0.8942  0.0077  0.3238
 1692SOL     OW 6291   1.507   3.161   6.339  0.3930 -0.5140  0.2244
 1692SOL    HW1 6292   1.565   3.213   6.395  1.3731 -1.7056  0.3562
 1692SOL    HW2 6293   1.454   3.109   6.400 -1.4346  1.1359  0.1367
 1693SOL     OW 6294   0.969   2.829   6.100  0.1820 -0.2320 -0.8407
 1693SOL    HW1 6295   1.024   2.869   6.032  1.7433 -1.9624 -0.6583
 1693SOL    HW2 6296   1.024   2.827   6.178 -0.9466  0.0355 -0.0092
 1694SOL     OW 6297   1.573   2.463   5.184  0.2184  0.0361 -0.0371
 1694SOL    HW1 6298   1.559   2.370   5.171  0.3643  0.0272 -0.1398
 1694SOL    HW2 6299   1.491   2.504   5.158  0.3655 -0.0149 -0.5997
 1695SOL     OW 6300   0.577   2.956   7.046 -0.0302 -0.2466  0.3947
 1695SOL    HW1 6301   0.661   2.927   7.082  0.5503  0.5074 -0.3271
 1695SOL    HW2 6302   0.529   2.990   7.121  1.5139  2.1389  0.4145
 1696SOL     OW 6303   1.099   2.705   7.501  0.0440  0.3236 -0.1393
 1696SOL    HW1 6304   1.035   2.693   7.431  0.4917 -2.3688 -0.1893
 1696SOL    HW2 6305   1.130   2.795   7.490 -0.3836  0.2111 -2.9642
 1697SOL     OW 6306   0.879   2.886   6.421 -0.7719  0.7946  0.5495
 1697SOL    HW1 6307   0.806   2.909   6.364 -0.9913  2.6702  1.5012
 1697SOL    HW2 6308   0.957   2.903   6.368 -0.9979  0.0711 -0.0254
 1698SOL     OW 6309   0.892   3.194   7.718 -0.2712 -0.2142  0.3109
 1698SOL    HW1 6310   0.985   3.215   7.712 -0.3390 -0.1493 -0.5652
 1698SOL    HW2 6311   0.882   3.155   7.805  0.6965 -0.8590  0.1445
 1699SOL     OW 6312   0.396   2.978   6.615 -0.4433  0.4887  0.0003
 1699SOL    HW1 6313   0.459   2.957   6.684  0.0794 -0.6797 -0.8070
 1699SOL    HW2 6314   0.444   2.966   6.533 -1.1502  1.5463 -0.5890
 1700SOL     OW 6315   1.636   3.614   6.591  0.3031 -0.1931  0.3627
 1700SOL    HW1 6316   1.713   3.670   6.599 -1.0369  1.8421 -0.1582
 1700SOL    HW2 6317   1.563   3.675   6.581 -1.0953 -2.0408 -1.6973
 1701SOL     OW 6318   0.839   1.923   6.970  0.4078  0.1282  0.2670
 1701SOL    HW1 6319   0.915   1.941   7.026  0.2762  1.2416  0.1169
 1701SOL    HW2 6320   0.787   1.859   7.020  0.3195  1.0517  1.4024
 1702SOL     OW 6321   1.422   2.222   5.590 -0.2703  0.1301  0.6466
 1702SOL    HW1 6322   1.475   2.160   5.540 -2.2643 -0.2162 -1.2028
 1702SOL    HW2 6323   1.378   2.275   5.523 -2.3311  0.2919  2.0404
 1703SOL     OW 6324   0.015   3.574   6.160 -0.3373 -0.2880  0.2528
 1703SOL    HW1 6325  -0.015   3.662   6.135  0.6449  0.2248  0.8121
 1703SOL    HW2 6326  -0.008   3.567   6.253 -1.8775 -1.2762 -0.1684
 1704SOL     OW 6327   1.471   3.269   7.103 -0.0904  0.2680 -0.3121
 1704SOL    HW1 6328   1.446   3.302   7.190 -0.0864  0.6654 -0.4626
 1704SOL    HW2 6329   1.408   3.199   7.086 -1.1296  1.2586 -0.6885
 1705SOL     OW 6330   0.229   3.072   6.371  0.1226  0.2882 -0.0459
 1705SOL    HW1 6331   0.273   3.052   6.453  1.1633  1.4161 -0.3058
 1705SOL    HW2 6332   0.229   2.989   6.323  0.1766 -0.1948  0.7694
 1706SOL     OW 6333   0.207   2.867   6.983  0.1882 -0.0802  0.4380
 1706SOL    HW1 6334   0.211   2.915   6.900  0.7100  0.1141  0.5661
 1706SOL    HW2 6335   0.234   2.932   7.048  0.8724 -0.5334  0.6186
 1707SOL     OW 6336   0.707   3.506   6.721  0.6220  0.0015 -0.4719
 1707SOL    HW1 6337   0.789   3.465   6.696  0.4817  0.4914 -1.8217
 1707SOL    HW2 6338   0.642   3.436   6.715  0.6118  0.0808 -1.4100
 1708SOL     OW 6339   0.532   2.118   5.970  0.2138  0.1662 -0.5187
 1708SOL    HW1 6340   0.455   2.174   5.981 -0.2394 -0.4437 -0.5294
 1708SOL    HW2 6341   0.587   2.166   5.908  0.6451  1.4196  0.7761
 1709SOL     OW 6342   1.976   1.765   6.971  0.3372 -0.9294 -0.0080
 1709SOL    HW1 6343   2.016   1.852   6.968  0.3237 -0.9082  0.3488
 1709SOL    HW2 6344   1.921   1.760   6.893 -1.0250  0.0443  0.8648
 1710SOL     OW 6345   0.317   1.961   6.169 -0.1205 -0.2112  0.2110
 1710SOL    HW1 6346   0.386   1.910   6.211 -0.3348  0.9610  2.1092
 1710SOL    HW2 6347   0.317   1.931   6.077 -0.2757 -3.6053  1.1699
 1711SOL     OW 6348   1.908   3.794   5.702  0.0700 -0.5928 -0.6076
 1711SOL    HW1 6349   1.974   3.725   5.695 -1.2577 -1.8563 -0.9255
 1711SOL    HW2 6350   1.959   3.873   5.721  1.6258 -1.6384 -0.2271
 1712SOL     OW 6351   0.249   3.569   5.981  0.5459  0.4627 -0.0338
 1712SOL    HW1 6352   0.168   3.556   6.030  0.4788  0.7405 -0.0690
 1712SOL    HW2 6353   0.290   3.483   5.979 -0.5613 -0.0772 -1.4600
 1713SOL     OW 6354   1.346   2.315   6.307 -0.3784 -0.3336  0.3031
 1713SOL    HW1 6355   1.320   2.338   6.396  0.6902  1.8004  0.1471
 1713SOL    HW2 6356   1.407   2.385   6.282 -1.6653 -0.1266 -2.5772
 1714SOL     OW 6357   1.591   2.808   5.729  0.7553  0.1913 -0.0786
 1714SOL    HW1 6358   1.627   2.895   5.749  0.4922  0.8242 -2.1232
 1714SOL    HW2 6359   1.657   2.766   5.674 -0.3039  0.2350 -1.4582
 1715SOL     OW 6360   0.296   2.550   7.364  0.1682  0.0566  0.0686
 1715SOL    HW1 6361   0.373   2.512   7.407 -1.1709 -0.8043  1.8612
 1715SOL    HW2 6362   0.276   2.489   7.293  1.5634  0.7042 -0.9120
 1716SOL     OW 6363   0.498   2.991   6.368 -0.1184 -0.1892  0.2270
 1716SOL    HW1 6364   0.577   2.961   6.324 -0.1272 -0.2496  0.2522
 1716SOL    HW2 6365   0.457   3.052   6.306  0.4748  0.6354  0.6256
 1717SOL     OW 6366   1.256   3.127   7.176  0.1157  0.3438 -0.5068
 1717SOL    HW1 6367   1.240   3.033   7.181  1.1802  0.0730 -1.5378
 1717SOL    HW2 6368   1.172   3.167   7.197 -0.2745 -0.8216  0.2673
 1718SOL     OW 6369   0.765   2.005   6.050  0.1653  0.3164  0.4075
 1718SOL    HW1 6370   0.819   2.082   6.069  0.2825  0.4763 -0.5112
 1718SOL    HW2 6371   0.675   2.036   6.062  0.1601  0.9333 -1.0404
 1719SOL     OW 6372   0.206   2.826   7.369  0.1616 -0.3840 -0.2100
 1719SOL    HW1 6373   0.111   2.827   7.378  0.3472 -1.0753  3.0364
 1719SOL    HW2 6374   0.227   2.736   7.346  0.0615 -0.0995 -1.5236
 1720SOL     OW 6375   1.316   2.609   6.187  0.2590  0.0033  0.5352
 1720SOL    HW1 6376   1.270   2.659   6.255 -0.9963  0.6860 -0.7702
 1720SOL    HW2 6377   1.377   2.671   6.148 -1.3004  0.6073 -1.0873
 1721SOL     OW 6378   1.294   3.267   6.754  0.2523 -0.0461  0.2146
 1721SOL    HW1 6379   1.337   3.312   6.827  1.9529 -1.7863  0.3713
 1721SOL    HW2 6380   1.203   3.256   6.782  0.4535  0.9017  1.2950
 1722SOL     OW 6381   0.378   1.649   7.112  0.1736  0.0755 -0.5743
 1722SOL    HW1 6382   0.335   1.734   7.106  0.3640  0.2374  0.3193
 1722SOL    HW2 6383   0.326   1.592   7.055 -0.9979  0.3546  0.1972
 1723SOL     OW 6384   1.352   3.446   6.499 -0.3458  0.3154 -0.1348
 1723SOL    HW1 6385   1.431   3.405   6.466 -0.2087  1.6191 -1.4975
 1723SOL    HW2 6386   1.329   3.394   6.576  0.0824 -2.0035 -1.4722
 1724SOL     OW 6387   1.985   4.011   6.115  0.0122 -0.8414 -0.1864
 1724SOL    HW1 6388   1.893   4.036   6.107  0.6983  1.3395 -2.5381
 1724SOL    HW2 6389   2.002   3.959   6.037  1.4692  1.4272 -1.4688
 1725SOL     OW 6390   0.422   2.766   5.969 -0.6848  0.2061 -0.0019
 1725SOL    HW1 6391   0.355   2.698   5.963  0.1983 -0.9952  2.5859
 1725SOL    HW2 6392   0.376   2.843   6.002 -0.7206 -0.8801  2.6801
 1726SOL     OW 6393   1.597   2.411   6.461 -0.2629 -0.0373  0.4795
 1726SOL    HW1 6394   1.616   2.334   6.515 -3.7094 -1.8196 -0.5315
 1726SOL    HW2 6395   1.629   2.387   6.373  0.3989  0.5383  0.5565
 1727SOL     OW 6396   1.546   3.411   5.862 -0.2970  0.8710 -0.1096
 1727SOL    HW1 6397   1.602   3.408   5.784  0.3981  0.9579  0.3783
 1727SOL    HW2 6398   1.607   3.403   5.935 -1.0399 -0.2876  0.4034
 1728SOL     OW 6399   0.945   2.023   6.719  0.3887 -0.0016  0.7377
 1728SOL    HW1 6400   1.032   2.017   6.759  0.4266  1.5331  0.9520
 1728SOL    HW2 6401   0.886   1.987   6.785  0.8943 -1.7372  0.3050
 1729SOL     OW 6402   1.209   1.983   6.776 -0.6375 -0.4133 -0.1251
 1729SOL    HW1 6403   1.249   1.938   6.702 -1.5790  1.0551 -1.5982
 1729SOL    HW2 6404   1.283   2.010   6.830 -0.0107 -3.1149  0.5367
 1730SOL     OW 6405   0.899   2.684   7.312  0.1745 -0.5668 -0.1513
 1730SOL    HW1 6406   0.929   2.672   7.222  3.2000  0.1814  0.6553
 1730SOL    HW2 6407   0.857   2.770   7.312  1.9611  0.3575 -0.4885
 1731SOL     OW 6408   1.531   1.469   6.854  0.2861 -0.7690  0.4079
 1731SOL    HW1 6409   1.485   1.542   6.896  2.3173  0.5507  0.5248
 1731SOL    HW2 6410   1.466   1.400   6.846 -1.5827  0.8546  0.8370
 1732SOL     OW 6411   0.858   2.504   5.669 -0.1196  0.4370  0.1405
 1732SOL    HW1 6412   0.806   2.455   5.733 -1.5210  0.8061 -0.6618
 1732SOL    HW2 6413   0.916   2.438   5.630 -1.1171 -0.3452 -0.0603
 1733SOL     OW 6414   0.062   2.204   6.113 -0.1746  0.3716  0.4144
 1733SOL    HW1 6415   0.057   2.180   6.205  1.1323 -1.0143  0.1602
 1733SOL    HW2 6416  -0.025   2.239   6.092 -1.5418 -2.2126  1.3843
 1734SOL     OW 6417   0.253   3.827   7.239 -0.2001  0.6471  0.0068
 1734SOL    HW1 6418   0.189   3.792   7.300  1.5678 -0.5784  1.2689
 1734SOL    HW2 6419   0.260   3.920   7.262 -1.4616  0.7836 -0.1269
 1735SOL     OW 6420   1.190   2.414   5.791 -0.2244 -0.8124 -0.2729
 1735SOL    HW1 6421   1.266   2.359   5.812  0.4204  0.2725  0.3463
 1735SOL    HW2 6422   1.165   2.387   5.702 -0.5860 -2.7973  0.3654
 1736SOL     OW 6423   1.967   2.602   7.485 -0.4023  0.5272 -0.0991
 1736SOL    HW1 6424   1.956   2.515   7.447 -0.1099  0.3626  0.1908
 1736SOL    HW2 6425   1.915   2.659   7.429 -1.6122 -0.0176  0.4255
 1737SOL     OW 6426   1.434   2.790   5.981  0.3848 -0.2815  0.0622
 1737SOL    HW1 6427   1.429   2.876   6.023  3.6381  0.5171 -0.8826
 1737SOL    HW2 6428   1.419   2.807   5.888  2.9673 -0.2567 -0.4444
 1738SOL     OW 6429   0.522   1.663   6.569 -0.3453  0.6111 -0.0886
 1738SOL    HW1 6430   0.487   1.575   6.582  0.8426  0.1861  0.4222
 1738SOL    HW2 6431   0.587   1.673   6.638  1.3311  0.9045 -1.6244
 1739SOL     OW 6432   0.889   3.147   5.947  0.0094 -0.5112  0.6361
 1739SOL    HW1 6433   0.826   3.219   5.946 -0.7547 -1.1522 -1.2380
 1739SOL    HW2 6434   0.843   3.074   5.907  1.8544 -1.0669 -0.6177
 1740SOL     OW 6435   0.424   3.543   6.287 -0.0869  0.7131 -0.9064
 1740SOL    HW1 6436   0.347   3.489   6.305 -1.0551  2.4441  0.4650
 1740SOL    HW2 6437   0.446   3.523   6.196 -2.4430  0.5024 -1.4927
 1741SOL     OW 6438   1.835   2.845   7.036  0.5297 -0.1819 -0.2000
 1741SOL    HW1 6439   1.810   2.916   6.977  0.2836 -1.0499 -1.1851
 1741SOL    HW2 6440   1.916   2.874   7.076 -0.2789  1.2467  0.4901
 1742SOL     OW 6441   1.061   3.543   7.260 -0.2355  0.3454 -0.3591
 1742SOL    HW1 6442   1.096   3.478   7.199  0.4297  0.5111 -0.1559
 1742SOL    HW2 6443   1.125   3.614   7.259 -0.6725  0.7476 -0.1480
 1743SOL     OW 6444   0.027   3.064   5.595 -0.1397 -0.8315 -0.1985
 1743SOL    HW1 6445  -0.057   3.025   5.617 -0.4774  0.1126  0.2218
 1743SOL    HW2 6446   0.063   3.006   5.527 -1.4933 -0.7954 -0.9829
 1744SOL     OW 6447   1.663   2.848   6.163 -0.1587 -0.1067 -0.5300
 1744SOL    HW1 6448   1.619   2.811   6.086  0.1140  1.7829 -1.6825
 1744SOL    HW2 6449   1.744   2.884   6.128  1.9741 -2.6799  1.3867
 1745SOL     OW 6450   0.083   3.170   6.870 -0.0091 -0.1691 -0.5977
 1745SOL    HW1 6451   0.109   3.094   6.819 -1.0806 -0.5687 -0.5723
 1745SOL    HW2 6452   0.150   3.236   6.850  0.3572 -0.7716 -1.4201
 1746SOL     OW 6453   1.242   3.455   5.917 -0.6665 -0.2033 -0.3239
 1746SOL    HW1 6454   1.312   3.411   5.966 -0.1282  0.0233 -0.8672
 1746SOL    HW2 6455   1.203   3.386   5.864 -1.4818 -0.5225  0.6567
 1747SOL     OW 6456   0.205   1.953   7.013  0.1272  0.6686 -0.1169
 1747SOL    HW1 6457   0.157   1.948   7.095  0.4604  2.9796  0.2862
 1747SOL    HW2 6458   0.139   1.972   6.947 -0.1472 -1.2333 -0.4569
 1748SOL     OW 6459   1.694   3.410   5.612  0.2700  0.1081  0.1331
 1748SOL    HW1 6460   1.726   3.494   5.581 -2.2846  1.8019  1.7247
 1748SOL    HW2 6461   1.620   3.390   5.554 -0.7665  0.3070  1.3438
 1749SOL     OW 6462   0.605   3.844   6.107  0.0914  0.3168  0.2327
 1749SOL    HW1 6463   0.546   3.866   6.034  0.2763  1.0623  0.2982
 1749SOL    HW2 6464   0.689   3.882   6.081  0.4070 -0.2760  0.3890
 1750SOL     OW 6465   1.471   1.916   5.966 -0.7732  0.0245  0.3516
 1750SOL    HW1 6466   1.513   1.833   5.990 -1.5282 -0.2305  0.8313
 1750SOL    HW2 6467   1.451   1.907   5.873 -1.7213 -0.7380  0.6110
 1751SOL     OW 6468   8.504   4.137   6.847 -1.1534 -0.7317  0.3004
 1751SOL    HW1 6469   8.563   4.103   6.779  1.3948 -0.7526  2.3649
 1751SOL    HW2 6470   8.515   4.077   6.920 -2.1909  0.4448  1.4729
 1752SOL     OW 6471   0.977   3.418   6.550 -0.1840  0.0486 -0.1955
 1752SOL    HW1 6472   1.047   3.393   6.489  0.7465 -0.2964  0.9734
 1752SOL    HW2 6473   0.936   3.494   6.509  0.4276 -0.1582 -1.2385
 1753SOL     OW 6474   0.416   2.320   6.295  0.2929 -0.5071 -0.0085
 1753SOL    HW1 6475   0.374   2.319   6.209 -0.8408  0.6159  0.5085
 1753SOL    HW2 6476   0.386   2.240   6.338  0.9449 -1.1253 -0.6667
 1754SOL     OW 6477   1.567   2.035   7.013 -0.4534  0.0081 -0.3775
 1754SOL    HW1 6478   1.576   2.123   7.051  1.0209 -0.2644 -0.0420
 1754SOL    HW2 6479   1.535   2.051   6.924  0.2074  0.9157 -0.4675
 1755SOL     OW 6480   0.670   2.112   5.574  0.6904 -0.2788  0.8470
 1755SOL    HW1 6481   0.736   2.047   5.548  0.5476  0.1362 -0.6427
 1755SOL    HW2 6482   0.593   2.089   5.523  0.3444  0.5145  1.0007
 1756SOL     OW 6483   0.858   1.993   7.267 -0.2060 -0.2090  0.2977
 1756SOL    HW1 6484   0.939   1.943   7.280  0.1414  0.1254 -0.5120
 1756SOL    HW2 6485   0.883   2.083   7.284 -0.2178 -0.0114 -0.6588
 1757SOL     OW 6486   0.560   3.167   6.862 -0.2031  0.4367  0.6436
 1757SOL    HW1 6487   0.544   3.079   6.896  0.2440  0.4256  0.8335
 1757SOL    HW2 6488   0.565   3.155   6.767 -0.2055  0.2694  0.6641
 1758SOL     OW 6489   1.161   2.402   6.901  0.1160 -0.2490  0.0890
 1758SOL    HW1 6490   1.167   2.366   6.990  1.1607 -0.9070 -0.2341
 1758SOL    HW2 6491   1.252   2.418   6.876 -0.1297 -0.6038 -1.0776
 1759SOL     OW 6492   0.810   2.760   6.649  0.4324 -0.0267  0.2642
 1759SOL    HW1 6493   0.834   2.814   6.574 -0.4947 -0.2972 -0.2421
 1759SOL    HW2 6494   0.865   2.682   6.642 -0.8309 -0.8412 -1.1258
 1760SOL     OW 6495   0.786   2.110   6.492  0.4027 -0.0518 -0.7958
 1760SOL    HW1 6496   0.847   2.079   6.559 -0.7153  0.6851  0.6193
 1760SOL    HW2 6497   0.836   2.173   6.441  0.6500  1.1247  0.8318
 1761SOL     OW 6498   0.432   1.978   5.502  0.2672  0.2742 -0.3944
 1761SOL    HW1 6499   0.439   1.894   5.547  2.2593  0.0308 -1.0281
 1761SOL    HW2 6500   0.348   2.014   5.529 -0.4446 -1.7298  0.2181
 1762SOL     OW 6501   1.693   2.631   5.463 -0.3714 -0.2220 -0.0245
 1762SOL    HW1 6502   1.708   2.547   5.505 -2.6725  0.0590  1.5468
 1762SOL    HW2 6503   1.732   2.623   5.376  0.9479 -2.2766  0.7060
 1763SOL     OW 6504   0.392   1.875   5.910 -0.2792 -0.5412  0.2971
 1763SOL    HW1 6505   0.453   1.948   5.919 -0.3207 -0.4318 -0.2782
 1763SOL    HW2 6506   0.419   1.830   5.831 -0.3118 -1.1030  0.5989
 1764SOL     OW 6507   1.087   2.433   6.063 -0.1836  0.1534  0.8835
 1764SOL    HW1 6508   1.114   2.400   5.977 -0.2017 -2.7218  1.8783
 1764SOL    HW2 6509   1.168   2.438   6.114 -0.2211  1.5173  0.8633
 1765SOL     OW 6510   0.948   2.562   7.029  0.4637  0.0795 -0.5318
 1765SOL    HW1 6511   0.875   2.518   7.072  1.1486 -1.1511 -0.5825
 1765SOL    HW2 6512   1.022   2.501   7.038  1.8842  1.8778  0.7654
 1766SOL     OW 6513   1.119   3.357   6.289  0.1051 -0.3621  0.0750
 1766SOL    HW1 6514   1.140   3.288   6.226  0.3216 -1.1948  1.0379
 1766SOL    HW2 6515   1.204   3.381   6.328  0.1192  0.8745 -0.6594
 1767SOL     OW 6516   0.120   2.715   6.678 -0.3799  0.4072  0.7875
 1767SOL    HW1 6517   0.065   2.670   6.615 -0.9573  1.3971  0.5634
 1767SOL    HW2 6518   0.126   2.655   6.753  0.3273 -0.7900 -0.1821
 1768SOL     OW 6519   1.485   3.670   6.127 -0.3726  0.0990 -0.0792
 1768SOL    HW1 6520   1.538   3.703   6.054 -0.2114  1.5792  0.6768
 1768SOL    HW2 6521   1.505   3.576   6.130  0.5352  0.2341 -1.1786
 1769SOL     OW 6522   0.972   2.595   5.152 -0.0606  0.3926  0.4482
 1769SOL    HW1 6523   1.010   2.606   5.064  0.6681 -1.0673  0.5440
 1769SOL    HW2 6524   1.006   2.669   5.202 -0.4003  1.1845 -0.4594
 1770SOL     OW 6525   8.700   1.965   7.078  0.2626 -0.1331 -0.2446
 1770SOL    HW1 6526   8.619   1.918   7.098 -0.2729  0.3340 -1.2612
 1770SOL    HW2 6527   8.762   1.934   7.144 -0.2957 -1.6704 -0.4016
 1771SOL     OW 6528   0.457   2.076   6.958 -0.2326  0.6091 -0.6667
 1771SOL    HW1 6529   0.495   2.094   7.044  0.7165 -2.6972 -0.2468
 1771SOL    HW2 6530   0.380   2.022   6.976  1.0417 -1.7517 -1.8339
 1772SOL     OW 6531   0.583   2.447   6.495  0.7511 -0.3897 -0.8810
 1772SOL    HW1 6532   0.517   2.515   6.508  0.9131 -0.4940  0.6891
 1772SOL    HW2 6533   0.547   2.392   6.426 -1.1860 -0.8723  0.4394
 1773SOL     OW 6534   0.942   2.203   6.055  0.7774  0.2432 -0.1303
 1773SOL    HW1 6535   0.968   2.292   6.032 -0.3161  0.5967 -0.0629
 1773SOL    HW2 6536   0.966   2.195   6.148 -1.8200  1.5753  0.7599
 1774SOL     OW 6537   1.005   3.251   6.802  0.2912 -0.7351 -0.0963
 1774SOL    HW1 6538   0.994   3.287   6.714  0.9618 -0.7331 -0.1856
 1774SOL    HW2 6539   0.951   3.172   6.802 -1.9379  0.7066  0.4087
 1775SOL     OW 6540   1.469   2.607   6.588  0.1068  0.4025 -0.0144
 1775SOL    HW1 6541   1.514   2.527   6.561 -1.8039 -0.4106 -1.0120
 1775SOL    HW2 6542   1.512   2.677   6.538 -0.2474 -0.4482 -1.5602
 1776SOL     OW 6543   1.763   2.379   5.832  0.4652 -0.0691 -0.2386
 1776SOL    HW1 6544   1.775   2.470   5.859  1.9804 -0.3988  0.3135
 1776SOL    HW2 6545   1.733   2.385   5.741 -1.0337  0.9869  0.2869
 1777SOL     OW 6546   0.416   3.251   5.873 -0.5162 -0.4295 -0.4676
 1777SOL    HW1 6547   0.431   3.323   5.812 -0.6182  0.2562  0.2888
 1777SOL    HW2 6548   0.325   3.262   5.900 -0.5419 -0.8667 -0.3794
 1778SOL     OW 6549   1.436   3.042   6.101  0.5662 -0.2349  0.0799
 1778SOL    HW1 6550   1.483   3.095   6.038  1.3623 -0.3782  0.5402
 1778SOL    HW2 6551   1.482   3.057   6.184  2.1982 -3.2674 -0.1478
 1779SOL     OW 6552   1.398   2.461   5.414 -0.2253 -0.1368 -0.5031
 1779SOL    HW1 6553   1.485   2.463   5.376  1.6869  0.1154  3.4079
 1779SOL    HW2 6554   1.378   2.553   5.433 -0.9799 -0.2782 -0.5604
 1780SOL     OW 6555   0.721   2.426   6.162  0.2368  0.1811  0.3568
 1780SOL    HW1 6556   0.636   2.406   6.122  0.5500 -0.3511 -0.0555
 1780SOL    HW2 6557   0.749   2.344   6.201  1.1430  0.0031 -0.6189
 1781SOL     OW 6558   2.304   2.986   7.396  0.2941 -0.2321 -0.1981
 1781SOL    HW1 6559   2.330   2.921   7.461  0.9449 -0.2545 -0.4777
 1781SOL    HW2 6560   2.217   3.015   7.425  0.5454 -0.2861  0.6425
 1782SOL     OW 6561   0.896   2.965   7.025  0.7596  0.0575  0.6075
 1782SOL    HW1 6562   0.959   3.032   7.050  1.8864 -1.0111  0.7083
 1782SOL    HW2 6563   0.935   2.883   7.053 -0.3370 -0.7101 -0.0106
 1783SOL     OW 6564   1.388   2.778   7.528  0.0112  0.0631 -0.1517
 1783SOL    HW1 6565   1.432   2.847   7.479  0.6739 -0.0159  0.3199
 1783SOL    HW2 6566   1.330   2.825   7.588  1.8366  0.3531  1.5243
 1784SOL     OW 6567   0.839   3.046   6.757 -0.0097  0.0327  0.4306
 1784SOL    HW1 6568   0.817   2.995   6.835  0.2052 -2.0824 -0.7862
 1784SOL    HW2 6569   0.809   2.991   6.684  2.8707  0.2335 -1.0716
 1785SOL     OW 6570   1.501   2.944   7.298 -0.3267 -0.2541  0.2322
 1785SOL    HW1 6571   1.465   3.032   7.299 -0.3797 -0.2443 -0.7863
 1785SOL    HW2 6572   1.561   2.944   7.224  0.6056 -0.7231  0.9781
 1786SOL     OW 6573   1.156   1.660   6.918  0.3274 -0.0389 -0.5915
 1786SOL    HW1 6574   1.245   1.695   6.925 -0.4476  1.7326  1.6427
 1786SOL    HW2 6575   1.139   1.656   6.824  2.2333  0.9765 -1.0313
 1787SOL     OW 6576   1.117   2.955   7.409 -0.0892 -0.4066  0.1739
 1787SOL    HW1 6577   1.172   3.019   7.454  0.4668 -0.0789 -0.9277
 1787SOL    HW2 6578   1.088   3.000   7.329  0.1292 -1.4396 -0.5086
 1788SOL     OW 6579   0.676   2.734   6.047 -0.3306  0.0967 -0.3066
 1788SOL    HW1 6580   0.581   2.736   6.036 -0.4322 -0.9075  0.2524
 1788SOL    HW2 6581   0.696   2.816   6.093 -0.8584  0.5371 -0.8425
 1789SOL     OW 6582   0.521   2.188   7.228  0.4015  0.4355 -0.6277
 1789SOL    HW1 6583   0.593   2.247   7.206  0.7445  0.4583  0.5041
 1789SOL    HW2 6584   0.442   2.241   7.222  0.5964  0.7119 -0.7299
 1790SOL     OW 6585   1.144   2.220   6.503  0.5413 -0.1722 -0.1227
 1790SOL    HW1 6586   1.223   2.197   6.455  0.8117 -1.3112  0.8223
 1790SOL    HW2 6587   1.162   2.194   6.593 -0.1807  1.3344  0.5003
 1791SOL     OW 6588   8.596   3.048   6.807 -0.0365  0.5797  0.0649
 1791SOL    HW1 6589   8.675   3.049   6.861 -0.0422  1.4960  0.0765
 1791SOL    HW2 6590   8.558   2.961   6.821  0.6243  0.3629  0.5567
 1792SOL     OW 6591   0.450   3.237   6.179 -0.0835  0.4800 -0.1051
 1792SOL    HW1 6592   0.522   3.300   6.185  1.0380 -0.6644 -0.9592
 1792SOL    HW2 6593   0.439   3.223   6.085 -0.7004 -0.1743  0.0580
 1793SOL     OW 6594   0.628   1.988   6.778 -0.6957 -0.4163 -0.2401
 1793SOL    HW1 6595   0.695   1.943   6.830 -0.7259 -0.1525  0.0306
 1793SOL    HW2 6596   0.568   2.025   6.843 -0.4432  0.3715 -0.4365
 1794SOL     OW 6597   1.142   2.953   5.864 -0.2049  0.3836 -0.2963
 1794SOL    HW1 6598   1.226   2.989   5.837  0.4904 -0.6076  0.4909
 1794SOL    HW2 6599   1.129   2.878   5.806  0.3887 -0.6152  0.8311
 1795SOL     OW 6600   1.152   2.903   6.611  0.2875 -0.2950 -0.0410
 1795SOL    HW1 6601   1.118   2.836   6.671  1.6705 -0.6694  0.3705
 1795SOL    HW2 6602   1.082   2.916   6.547 -1.9524  1.3478  2.5399
 1796SOL     OW 6603   0.965   2.590   6.318 -0.7377  0.3655 -0.2136
 1796SOL    HW1 6604   1.045   2.635   6.348 -2.0904  2.9038 -0.1627
 1796SOL    HW2 6605   0.928   2.552   6.398  0.4274 -0.9174 -0.2521
 1797SOL     OW 6606   0.020   3.374   6.558 -0.0349 -0.5557  0.2573
 1797SOL    HW1 6607  -0.024   3.377   6.643  0.2105  0.2114  0.3683
 1797SOL    HW2 6608   0.112   3.392   6.578 -0.3634  2.4373 -0.4031
 1798SOL     OW 6609   0.786   2.647   7.551  0.1130  0.4470 -0.4525
 1798SOL    HW1 6610   0.833   2.728   7.569  2.2314 -1.0681  1.4755
 1798SOL    HW2 6611   0.810   2.624   7.462 -1.4067  2.4209 -1.4316
 1799SOL     OW 6612   2.042   2.914   7.256 -0.0581  0.2891 -0.2787
 1799SOL    HW1 6613   2.086   2.833   7.280 -0.5734  0.1100  0.0704
 1799SOL    HW2 6614   1.988   2.936   7.333 -0.6060  0.4810 -0.7095
 1800SOL     OW 6615   1.090   1.974   7.464 -0.0101 -0.5937  0.7156
 1800SOL    HW1 6616   1.161   1.951   7.404 -1.3106  3.0087 -2.6246
 1800SOL    HW2 6617   1.103   2.067   7.482 -2.5584 -0.3895  1.8786
 1801SOL     OW 6618   0.566   1.493   7.261 -0.2589 -0.6474  0.6447
 1801SOL    HW1 6619   0.492   1.532   7.215  1.1995  1.5571 -0.0524
 1801SOL    HW2 6620   0.568   1.537   7.346 -1.5593 -3.0188  1.9978
 1802SOL     OW 6621   0.567   2.869   6.789  0.3784  0.0287 -0.2998
 1802SOL    HW1 6622   0.560   2.867   6.884  0.4207 -0.5451 -0.3026
 1802SOL    HW2 6623   0.636   2.805   6.768  0.1851 -0.0477 -0.7267
 1803SOL     OW 6624   1.256   2.708   6.442  0.0543 -0.1701  0.4141
 1803SOL    HW1 6625   1.338   2.664   6.461  0.5294  0.8992  0.9070
 1803SOL    HW2 6626   1.242   2.766   6.516  0.2313  1.6404 -0.9113
 1804SOL     OW 6627   8.821   1.780   7.302  0.1201 -0.6383 -0.2866
 1804SOL    HW1 6628   8.863   1.716   7.360  0.9382  0.3964  0.3017
 1804SOL    HW2 6629   8.884   1.852   7.297 -1.3837  0.7743  0.2476
 1805SOL     OW 6630   8.550   2.784   6.841  0.3173 -0.1621 -0.4868
 1805SOL    HW1 6631   8.629   2.753   6.886  0.7417 -1.1936 -1.8744
 1805SOL    HW2 6632   8.560   2.753   6.751 -0.3424  2.0795 -1.4144
 1806SOL     OW 6633   0.621   2.572   6.934 -0.1505 -0.3777  0.3016
 1806SOL    HW1 6634   0.621   2.507   6.864  4.2120 -0.3021 -0.0761
 1806SOL    HW2 6635   0.685   2.540   6.997 -0.4934  1.8196  1.9065
 1807SOL     OW 6636   2.037   2.966   7.524  0.7537  0.4264  0.9228
 1807SOL    HW1 6637   1.981   2.927   7.591 -0.3138 -1.2588 -0.8347
 1807SOL    HW2 6638   1.989   3.043   7.494  0.3029  0.0775  0.7472
 1808SOL     OW 6639   0.559   1.768   6.309  0.0013  0.3144 -0.6302
 1808SOL    HW1 6640   0.562   1.853   6.353  1.6933  0.7103 -1.4122
 1808SOL    HW2 6641   0.555   1.704   6.379  0.8023  0.9851  0.0453
 1809SOL     OW 6642   1.751   2.369   5.551  0.2792 -0.3394  0.1362
 1809SOL    HW1 6643   1.721   2.281   5.530 -1.1469  0.5191 -1.7478
 1809SOL    HW2 6644   1.846   2.361   5.557  0.1028 -2.1745  1.0180
 1810SOL     OW 6645   0.852   2.484   6.542 -0.0166  0.5213  0.5809
 1810SOL    HW1 6646   0.867   2.441   6.626 -1.2168 -0.9947  0.0691
 1810SOL    HW2 6647   0.761   2.463   6.520 -0.4225  2.6942 -0.0972
 1811SOL     OW 6648   0.856   3.516   7.808  0.6450  0.2544 -0.3200
 1811SOL    HW1 6649   0.798   3.488   7.737 -0.7396  0.5611  0.6673
 1811SOL    HW2 6650   0.927   3.563   7.763 -0.2091  0.4620 -1.5030
 1812SOL     OW 6651   2.190   3.303   7.196  0.0190 -0.4631  0.0013
 1812SOL    HW1 6652   2.260   3.368   7.195 -1.2101  0.8933 -0.4569
 1812SOL    HW2 6653   2.132   3.330   7.267  0.2515 -1.9306  0.7947
 1813SOL     OW 6654   0.713   3.145   7.518 -0.2179  0.1173  0.1590
 1813SOL    HW1 6655   0.793   3.159   7.569 -0.1829 -1.4819  0.5777
 1813SOL    HW2 6656   0.642   3.166   7.578 -0.1383  0.4125  0.1515
 1814SOL     OW 6657   1.363   2.547   5.003  0.3860  0.2368 -0.1670
 1814SOL    HW1 6658   1.273   2.570   4.981  0.2976  1.4291  1.2686
 1814SOL    HW2 6659   1.416   2.608   4.952  0.3469  0.2144 -0.2353
 1815SOL     OW 6660   1.227   2.695   5.777  0.6990 -0.1148 -0.0021
 1815SOL    HW1 6661   1.281   2.708   5.699  0.2537 -1.4233 -0.5470
 1815SOL    HW2 6662   1.225   2.600   5.790  0.0967  0.0349  1.1322
 1816SOL     OW 6663   0.809   3.238   6.269  0.2251  0.0023 -0.1644
 1816SOL    HW1 6664   0.890   3.287   6.285 -0.5152  0.8839  1.0851
 1816SOL    HW2 6665   0.741   3.288   6.315 -0.7063 -1.7583  0.4806
 1817SOL     OW 6666   0.358   2.611   7.041  0.6816  0.4215 -0.0336
 1817SOL    HW1 6667   0.440   2.628   6.995  1.4139  2.8726  1.9929
 1817SOL    HW2 6668   0.309   2.693   7.033 -0.7987 -0.3949  0.3483
 1818SOL     OW 6669   0.320   2.313   6.840 -0.0525 -0.4223  0.0986
 1818SOL    HW1 6670   0.347   2.227   6.873 -2.0753 -2.1271 -2.3476
 1818SOL    HW2 6671   0.402   2.357   6.820  1.0995 -0.9991  3.0367
 1819SOL     OW 6672   1.217   2.334   7.173  0.0094  0.3274  0.1110
 1819SOL    HW1 6673   1.244   2.259   7.227 -0.6666  1.1709  1.6810
 1819SOL    HW2 6674   1.247   2.410   7.221 -1.8825  1.1657  0.0431
 1820SOL     OW 6675   1.145   1.593   6.657 -0.0909 -0.4077 -0.5499
 1820SOL    HW1 6676   1.060   1.551   6.671  0.6502 -1.8662 -0.2055
 1820SOL    HW2 6677   1.127   1.665   6.597 -1.7682  0.0708  0.4888
 1821SOL     OW 6678   0.313   3.009   5.989 -0.1282  0.5390  0.2422
 1821SOL    HW1 6679   0.233   3.014   5.936 -0.9975 -0.3227  1.4148
 1821SOL    HW2 6680   0.369   3.078   5.953 -1.1731  0.8105 -0.9693
 1822SOL     OW 6681   8.806   3.726   6.648  0.4421  0.1114  0.5321
 1822SOL    HW1 6682   8.824   3.711   6.741  0.8378 -2.3710  0.1349
 1822SOL    HW2 6683   8.771   3.642   6.617  1.2124  0.5644 -1.7589
 1823SOL     OW 6684   0.628   3.435   6.418 -0.3572  0.0220  0.2495
 1823SOL    HW1 6685   0.691   3.506   6.406 -0.0415 -0.2340  0.3735
 1823SOL    HW2 6686   0.548   3.466   6.375  0.1232 -0.0279 -0.7037
 1824SOL     OW 6687   0.929   2.297   6.791  0.0104  0.5166  0.3182
 1824SOL    HW1 6688   1.020   2.322   6.808  0.2627  0.6227 -1.0420
 1824SOL    HW2 6689   0.934   2.205   6.766 -0.3772  0.2778  1.0951
 1825SOL     OW 6690   0.133   2.245   6.584 -0.2968 -0.6675 -0.5860
 1825SOL    HW1 6691   0.188   2.257   6.662 -0.5517  1.6240 -0.6853
 1825SOL    HW2 6692   0.186   2.189   6.526  1.2621  0.1505 -0.0245
 1826SOL     OW 6693   8.724   2.408   7.289 -0.2080 -0.0753  0.1487
 1826SOL    HW1 6694   8.692   2.404   7.199 -0.5822  0.0449  0.2737
 1826SOL    HW2 6695   8.709   2.499   7.316 -0.0839 -0.1068  0.3268
 1827SOL     OW 6696   1.345   2.653   7.108 -0.2777  0.1619 -0.3695
 1827SOL    HW1 6697   1.331   2.603   7.027 -1.1529  0.0807 -0.1853
 1827SOL    HW2 6698   1.433   2.689   7.100 -0.2693 -0.0358 -1.2557
 1828SOL     OW 6699   1.121   2.808   5.277 -0.1980 -0.0451  0.2135
 1828SOL    HW1 6700   1.173   2.881   5.244  0.2180 -0.2462  0.4049
 1828SOL    HW2 6701   1.140   2.806   5.371  1.3899 -1.6319 -0.0826
 1829SOL     OW 6702   1.728   2.468   6.863 -0.2451 -0.5284  0.3117
 1829SOL    HW1 6703   1.788   2.523   6.813 -0.2006 -1.5506 -0.8278
 1829SOL    HW2 6704   1.720   2.388   6.810  1.2791 -2.4971  2.8631
 1830SOL     OW 6705   0.259   3.615   7.000  0.2188  0.4076 -0.0005
 1830SOL    HW1 6706   0.290   3.656   7.081  0.5804  0.9159 -0.3863
 1830SOL    HW2 6707   0.309   3.534   6.993  1.1195  0.9792 -0.3598
 1831SOL     OW 6708   0.750   2.474   7.194  0.0277  0.5525 -0.0025
 1831SOL    HW1 6709   0.810   2.418   7.244  1.6111  2.5649  0.4703
 1831SOL    HW2 6710   0.728   2.545   7.254 -0.3072  1.5244 -1.2360
 1832SOL     OW 6711   1.088   3.400   7.029 -0.2536  0.0660  0.1826
 1832SOL    HW1 6712   1.044   3.480   7.002 -1.4569 -0.5340  0.2881
 1832SOL    HW2 6713   1.077   3.340   6.955  1.9259  0.4475 -0.5050
 1833SOL     OW 6714   0.429   2.333   5.631  0.3052  0.2922  0.0467
 1833SOL    HW1 6715   0.413   2.298   5.543  0.1235 -0.1877  0.2686
 1833SOL    HW2 6716   0.356   2.300   5.683  0.7646  0.0436  0.5325
 1834SOL     OW 6717   8.800   2.692   6.980 -0.5895 -0.1405  0.0773
 1834SOL    HW1 6718   8.853   2.772   6.984  0.7011 -0.9674 -0.2240
 1834SOL    HW2 6719   8.858   2.625   6.945 -2.4112 -0.6273 -2.2401
 1835SOL     OW 6720   1.094   2.676   6.757 -0.6332 -0.2038  0.2586
 1835SOL    HW1 6721   1.148   2.608   6.796 -0.2757  0.7469  1.4937
 1835SOL    HW2 6722   1.018   2.684   6.815 -0.6002  0.5367  0.2132
 1836SOL     OW 6723   0.957   2.633   5.877 -0.1046 -0.2039 -0.6849
 1836SOL    HW1 6724   0.916   2.610   5.794  0.2826  0.3203 -1.0223
 1836SOL    HW2 6725   1.051   2.635   5.858 -0.1218  1.7219 -0.6950
 1837SOL     OW 6726   1.856   3.323   6.943  0.1732  0.5869 -0.0411
 1837SOL    HW1 6727   1.907   3.397   6.979  0.1836  1.1701 -1.2221
 1837SOL    HW2 6728   1.905   3.245   6.969  0.3584  1.0025  0.9141
 1838SOL     OW 6729   1.637   3.830   6.326  0.1748  0.8816 -0.1031
 1838SOL    HW1 6730   1.562   3.788   6.285 -0.0539  0.3343  0.8435
 1838SOL    HW2 6731   1.703   3.760   6.332 -0.4051  0.4427  1.9894
 1839SOL     OW 6732   8.638   2.682   6.552 -0.3481 -0.8513  0.2626
 1839SOL    HW1 6733   8.697   2.743   6.507 -0.1435 -0.2197  1.3524
 1839SOL    HW2 6734   8.688   2.600   6.554  0.8649 -0.1365  1.8225
 1840SOL     OW 6735   0.800   3.573   7.307 -0.6029  0.3067 -0.2855
 1840SOL    HW1 6736   0.894   3.584   7.296 -0.5758  2.5196  1.4471
 1840SOL    HW2 6737   0.788   3.479   7.318  1.4584  0.0165 -0.1428
 1841SOL     OW 6738   1.778   2.055   5.708  0.4523 -0.2666  0.3310
 1841SOL    HW1 6739   1.868   2.089   5.702  0.7967 -1.1276  0.3967
 1841SOL    HW2 6740   1.761   2.050   5.802  0.6843 -0.9528  0.3454
 1842SOL     OW 6741   1.606   3.424   6.143 -0.1134  0.2079  0.5413
 1842SOL    HW1 6742   1.593   3.352   6.205  0.1601 -0.8242 -0.5564
 1842SOL    HW2 6743   1.700   3.441   6.147  0.2547 -1.1885 -0.9462
 1843SOL     OW 6744   0.381   3.558   7.347  0.4050  0.3867 -0.2320
 1843SOL    HW1 6745   0.412   3.475   7.383 -1.7078 -0.3301  0.1114
 1843SOL    HW2 6746   0.369   3.614   7.423  1.0087  0.7282 -0.3819
 1844SOL     OW 6747   1.632   2.732   6.416  0.1241  0.2815 -0.1538
 1844SOL    HW1 6748   1.625   2.787   6.338 -0.9314 -0.1527 -0.3886
 1844SOL    HW2 6749   1.622   2.642   6.383 -0.4114  0.1021  0.4744
 1845SOL     OW 6750   0.998   3.178   7.178 -0.2263  0.1543  0.5668
 1845SOL    HW1 6751   0.926   3.205   7.235 -0.1138 -0.6526  1.1060
 1845SOL    HW2 6752   0.992   3.237   7.102 -1.5583 -0.0071  0.5200
 1846SOL     OW 6753   0.705   3.740   5.815 -0.3394 -0.3967 -0.0345
 1846SOL    HW1 6754   0.610   3.734   5.811 -0.4987  0.8062  1.1144
 1846SOL    HW2 6755   0.733   3.729   5.724 -1.5862 -0.6134 -0.4160
 1847SOL     OW 6756   1.644   3.085   7.057  0.6784 -0.4493 -0.1413
 1847SOL    HW1 6757   1.668   3.069   6.966 -0.7394 -1.7252 -0.3354
 1847SOL    HW2 6758   1.579   3.155   7.053  0.5916 -0.5278 -0.1175
 1848SOL     OW 6759   1.749   2.007   5.965 -0.0649  0.2001 -0.5914
 1848SOL    HW1 6760   1.790   2.038   6.045  1.1707 -0.5642 -0.9111
 1848SOL    HW2 6761   1.656   2.002   5.987  0.0106  1.7123  0.2180
 1849SOL     OW 6762   0.595   2.355   6.759 -0.0730  0.6874  0.1456
 1849SOL    HW1 6763   0.591   2.389   6.670  0.5381 -1.2231 -0.6853
 1849SOL    HW2 6764   0.665   2.289   6.756 -0.6012 -0.0169  1.8318
 1850SOL     OW 6765   0.940   3.478   5.740 -0.2206 -0.0218 -0.0730
 1850SOL    HW1 6766   1.015   3.418   5.742  1.5677  2.0664  0.5446
 1850SOL    HW2 6767   0.924   3.493   5.647 -1.1167 -1.8410 -0.2643
 1851SOL     OW 6768   0.785   2.927   7.355 -0.3372 -0.5226  0.1112
 1851SOL    HW1 6769   0.728   2.967   7.421 -1.3901  0.5650 -1.3941
 1851SOL    HW2 6770   0.809   2.999   7.296 -0.5275 -1.6837 -1.4551
 1852SOL     OW 6771   0.763   2.995   6.188  0.3643 -0.3974 -0.3561
 1852SOL    HW1 6772   0.839   2.972   6.135  1.3623  0.6387  0.5482
 1852SOL    HW2 6773   0.779   3.086   6.215 -0.9501 -0.3197  0.2765
 1853SOL     OW 6774   1.117   3.235   5.201  0.1721 -0.0239  0.6979
 1853SOL    HW1 6775   1.022   3.221   5.194  0.2508 -0.6693  0.9266
 1853SOL    HW2 6776   1.143   3.268   5.115 -0.5016  1.6018  1.0683
 1854SOL     OW 6777   0.158   2.970   6.724 -0.0146  0.3024 -0.6021
 1854SOL    HW1 6778   0.138   2.876   6.727  2.1775 -0.2289 -0.4154
 1854SOL    HW2 6779   0.241   2.975   6.676 -0.9158  2.3418 -2.1018
 1855SOL     OW 6780   1.999   3.104   7.074  0.3893  0.5445 -0.2298
 1855SOL    HW1 6781   2.072   3.165   7.087 -0.0478  0.6479  2.1786
 1855SOL    HW2 6782   2.012   3.036   7.140 -0.0619 -1.1053 -1.7642
 1856SOL     OW 6783   1.136   2.938   6.283 -0.1757  0.3707 -0.2641
 1856SOL    HW1 6784   1.156   3.026   6.251  0.5369  0.2832 -0.0849
 1856SOL    HW2 6785   1.216   2.910   6.328 -0.0489 -0.7377 -1.1311
 1857SOL     OW 6786   1.301   2.114   6.111  0.3247 -0.4721  0.4790
 1857SOL    HW1 6787   1.305   2.158   6.026 -0.9122  0.5443  0.9265
 1857SOL    HW2 6788   1.342   2.175   6.172  1.9093 -1.5177  0.5276
 1858SOL     OW 6789   0.584   3.467   6.079 -0.2128 -0.0200 -0.1604
 1858SOL    HW1 6790   0.567   3.443   5.988  1.2998  0.4660 -0.5949
 1858SOL    HW2 6791   0.664   3.519   6.076 -1.8081  2.7216  1.0822
 1859SOL     OW 6792   1.443   2.505   6.841 -0.5513  0.3109  0.1076
 1859SOL    HW1 6793   1.532   2.486   6.872 -0.4432  1.2050  0.3619
 1859SOL    HW2 6794   1.455   2.537   6.752 -0.7733 -1.1817 -0.4910
 1860SOL     OW 6795   0.224   3.364   6.368 -0.6660 -0.1498  0.2503
 1860SOL    HW1 6796   0.253   3.276   6.345 -1.3073  0.0099 -1.2634
 1860SOL    HW2 6797   0.136   3.351   6.404 -1.4431 -0.0201 -1.4906
 1861SOL     OW 6798   0.323   3.017   7.190  0.1776  0.0043  0.4607
 1861SOL    HW1 6799   0.284   2.994   7.274 -0.3089  3.2720  1.2486
 1861SOL    HW2 6800   0.303   3.109   7.178  0.5867 -0.2187 -3.1029
 1862SOL     OW 6801   0.665   1.665   7.053  0.0212  0.7964  0.0899
 1862SOL    HW1 6802   0.581   1.703   7.078  0.2218  0.8941  0.6220
 1862SOL    HW2 6803   0.684   1.600   7.121  0.0936  0.3533 -0.3477
 1863SOL     OW 6804   0.065   1.966   5.933 -0.1087  0.4862  0.2393
 1863SOL    HW1 6805  -0.020   2.006   5.913  0.4668  2.0451  0.7511
 1863SOL    HW2 6806   0.110   2.031   5.985  1.7490  0.0538 -0.7372
 1864SOL     OW 6807   1.163   2.849   7.171 -0.7179  0.0637 -0.1497
 1864SOL    HW1 6808   1.221   2.777   7.149 -1.2583 -0.3133 -0.3475
 1864SOL    HW2 6809   1.142   2.836   7.263 -0.8629 -0.0663 -0.2011
 1865SOL     OW 6810   0.165   1.701   5.861  0.2777  0.8943 -0.0638
 1865SOL    HW1 6811   0.118   1.779   5.892 -0.2144  0.3174  0.6520
 1865SOL    HW2 6812   0.257   1.728   5.861  0.3360  0.8722  2.1154
 1866SOL     OW 6813   1.109   3.264   5.789  0.0613  0.6528  0.3685
 1866SOL    HW1 6814   1.165   3.227   5.721  0.8813  1.0638  0.8089
 1866SOL    HW2 6815   1.049   3.193   5.813  1.6805 -0.4528  1.2838
 1867SOL     OW 6816   0.567   2.663   7.279  0.3151 -0.0694  0.4758
 1867SOL    HW1 6817   0.494   2.654   7.218  1.4327 -0.9452 -0.7819
 1867SOL    HW2 6818   0.535   2.724   7.346 -0.9997  0.8274 -0.9027
 1868SOL     OW 6819   1.707   3.986   6.075 -0.2183 -0.6615  0.3305
 1868SOL    HW1 6820   1.681   3.952   6.160 -0.2712 -0.4584  0.3954
 1868SOL    HW2 6821   1.627   4.027   6.040 -0.6241 -2.0526 -0.4671
 1869SOL     OW 6822   0.901   2.241   7.387 -0.5059  0.5909 -0.0990
 1869SOL    HW1 6823   0.983   2.275   7.422  0.3907 -1.9016  0.3935
 1869SOL    HW2 6824   0.857   2.201   7.463 -1.2491  0.1720 -0.7301
 1870SOL     OW 6825   1.352   2.946   7.766  0.3854 -0.6680 -0.1031
 1870SOL    HW1 6826   1.380   3.030   7.730  1.6163 -0.7516  0.5647
 1870SOL    HW2 6827   1.434   2.906   7.797 -0.3015 -1.7052  0.4136
 1871SOL     OW 6828   8.830   3.827   7.066 -0.7679  0.6545  0.3350
 1871SOL    HW1 6829   8.878   3.903   7.031  0.2375  0.0617  0.3858
 1871SOL    HW2 6830   8.845   3.830   7.160  2.7180 -1.7953  0.0354
 1872SOL     OW 6831   1.639   2.666   7.025  0.0663 -0.2737 -0.3011
 1872SOL    HW1 6832   1.675   2.591   6.977  1.5222 -0.0649  0.3935
 1872SOL    HW2 6833   1.710   2.731   7.022 -0.2548  0.1646  1.1565
 1873SOL     OW 6834   1.076   2.058   5.843 -0.2143 -1.0514  0.4209
 1873SOL    HW1 6835   1.129   1.997   5.894  0.0611 -0.5056  0.7876
 1873SOL    HW2 6836   1.019   2.100   5.906 -0.2035 -0.7148  0.2085
 1874SOL     OW 6837   0.401   2.648   6.560 -0.1204  0.0330  0.7545
 1874SOL    HW1 6838   0.453   2.716   6.603  2.2998 -2.2044  1.6669
 1874SOL    HW2 6839   0.332   2.627   6.623  0.5175  0.0972  1.4927
 1875SOL     OW 6840   1.938   2.336   7.378 -0.2527  0.4636 -0.1479
 1875SOL    HW1 6841   1.994   2.259   7.372  0.7347  1.0581  1.0967
 1875SOL    HW2 6842   1.910   2.352   7.288  0.2292 -0.8220 -0.5488
 1876SOL     OW 6843   1.857   2.434   7.100 -0.4535 -0.1477  1.0557
 1876SOL    HW1 6844   1.793   2.386   7.153 -0.9463  0.6830  1.2321
 1876SOL    HW2 6845   1.818   2.436   7.013  0.9763 -2.6961  0.2620
 1877SOL     OW 6846   0.856   3.130   5.637  0.0021  0.5583 -0.1037
 1877SOL    HW1 6847   0.936   3.113   5.589 -0.9549 -0.9038 -1.2767
 1877SOL    HW2 6848   0.861   3.074   5.714  0.9583  1.9565  0.9084
 1878SOL     OW 6849   0.559   3.223   6.558 -0.3686 -0.2082 -0.1799
 1878SOL    HW1 6850   0.560   3.147   6.499 -2.7032 -0.7864  0.4160
 1878SOL    HW2 6851   0.604   3.292   6.509  2.3886 -2.0543 -0.5143
 1879SOL     OW 6852   1.342   3.080   6.558 -0.0026  0.0909 -0.4636
 1879SOL    HW1 6853   1.342   3.146   6.628  2.5320 -0.2564 -0.0282
 1879SOL    HW2 6854   1.284   3.011   6.590 -0.5646  0.8898  0.3063
 1880SOL     OW 6855   0.802   2.919   5.839 -0.5488 -0.8399 -0.2687
 1880SOL    HW1 6856   0.713   2.897   5.867 -0.3139 -1.8759 -0.2896
 1880SOL    HW2 6857   0.856   2.846   5.871  0.8560  1.2388  2.5695
 1881SOL     OW 6858   1.841   3.557   6.171  0.0916  0.1335  0.6064
 1881SOL    HW1 6859   1.908   3.598   6.226 -1.6001  2.8684  0.8145
 1881SOL    HW2 6860   1.824   3.621   6.102 -1.9217 -0.7085  0.2442
 1882SOL     OW 6861   8.847   3.118   7.469 -0.1266  0.3794 -0.0925
 1882SOL    HW1 6862   8.826   3.026   7.456  1.5866  0.0060 -0.5429
 1882SOL    HW2 6863   8.774   3.153   7.520 -0.9594 -1.1379 -0.1829
 1883SOL     OW 6864   8.731   3.134   6.520  0.0218  0.1318 -0.1196
 1883SOL    HW1 6865   8.731   3.104   6.611 -1.0480  1.9389  0.5332
 1883SOL    HW2 6866   8.787   3.212   6.520 -0.1439  0.2643 -0.9770
 1884SOL     OW 6867   0.755   3.318   6.985  0.4598  0.0260  0.0015
 1884SOL    HW1 6868   0.690   3.247   6.983  0.7598 -0.2664  0.4454
 1884SOL    HW2 6869   0.798   3.313   6.900 -0.1224  0.2424 -0.3115
 1885SOL     OW 6870   1.955   2.270   6.696  0.6299 -0.3362 -0.4255
 1885SOL    HW1 6871   2.033   2.226   6.662  0.9404 -1.0902  1.1930
 1885SOL    HW2 6872   1.985   2.315   6.775 -0.4125 -0.0006 -0.2042
 1886SOL     OW 6873   0.283   2.089   6.406  0.1474  0.0372 -0.0396
 1886SOL    HW1 6874   0.371   2.060   6.430 -0.4770 -1.4309  0.5683
 1886SOL    HW2 6875   0.262   2.041   6.326 -0.6967 -0.8079  0.6798
 1887SOL     OW 6876   1.636   3.364   6.465 -0.3282  0.0816 -0.2773
 1887SOL    HW1 6877   1.664   3.302   6.532 -1.8711 -0.9163 -0.4838
 1887SOL    HW2 6878   1.644   3.450   6.506  1.7790 -0.2248  0.0498
 1888SOL     OW 6879   0.309   2.346   7.144  0.0730  0.3145 -0.3425
 1888SOL    HW1 6880   0.311   2.435   7.107  0.2293 -0.1645 -1.5176
 1888SOL    HW2 6881   0.255   2.296   7.083  1.3996 -0.8143 -0.6424
 1889SOL     OW 6882   0.831   3.620   6.419 -0.3484  0.3662 -0.3235
 1889SOL    HW1 6883   0.785   3.700   6.445  0.1720  1.0474 -1.4310
 1889SOL    HW2 6884   0.879   3.645   6.339  1.0256 -0.6290  0.1601
 1890SOL     OW 6885   1.697   2.238   6.648  0.0240 -0.4137 -0.1952
 1890SOL    HW1 6886   1.792   2.249   6.647 -0.0317  0.5806 -3.0019
 1890SOL    HW2 6887   1.681   2.162   6.592 -0.8547 -0.8097  0.5553
 1891SOL     OW 6888   1.417   2.268   5.882  0.2037  0.0285  0.0008
 1891SOL    HW1 6889   1.441   2.221   5.802  0.0245 -0.3336  0.1562
 1891SOL    HW2 6890   1.456   2.355   5.872 -0.7457  0.3619 -0.9805
 1892SOL     OW 6891   0.994   3.614   6.214 -0.6746  0.0571 -0.0122
 1892SOL    HW1 6892   1.027   3.525   6.226  1.1634  0.6140 -0.5617
 1892SOL    HW2 6893   0.918   3.603   6.157  0.1956 -1.1008 -1.0358
 1893SOL     OW 6894   0.281   3.341   6.685 -0.4228 -0.0056  0.1065
 1893SOL    HW1 6895   0.308   3.431   6.702 -0.3560  0.1863 -0.9233
 1893SOL    HW2 6896   0.347   3.306   6.626 -0.0382 -0.9939  1.0833
 1894SOL     OW 6897   1.700   2.112   5.472 -0.1205  0.1271  0.0710
 1894SOL    HW1 6898   1.776   2.074   5.428  0.7673  0.7661  1.0051
 1894SOL    HW2 6899   1.703   2.076   5.561 -2.2180 -1.5998 -0.4661
 1895SOL     OW 6900   0.943   2.263   6.327 -0.4866 -0.3060  0.6643
 1895SOL    HW1 6901   0.971   2.351   6.301  1.3443 -0.7501  1.0151
 1895SOL    HW2 6902   1.000   2.240   6.400 -0.0645 -2.2659 -0.2101
 1896SOL     OW 6903   1.641   2.530   6.183 -0.2704 -0.0269  0.1943
 1896SOL    HW1 6904   1.602   2.585   6.115 -0.5224  0.5160  0.7631
 1896SOL    HW2 6905   1.636   2.441   6.148 -0.6932  0.2056 -0.3557
 1897SOL     OW 6906   8.726   2.834   5.672  0.1160  0.4655 -0.3079
 1897SOL    HW1 6907   8.764   2.845   5.759  2.8812  0.9978 -1.4809
 1897SOL    HW2 6908   8.697   2.743   5.669  0.9982  0.1304  0.7963
 1898SOL     OW 6909   0.671   3.427   5.790  0.4831 -0.2546  0.5462
 1898SOL    HW1 6910   0.765   3.446   5.791  0.6188 -0.9225  1.2297
 1898SOL    HW2 6911   0.651   3.412   5.697  1.1194 -0.4313  0.4328
 1899SOL     OW 6912   8.774   2.841   7.417  0.4142  0.7640  0.1122
 1899SOL    HW1 6913   8.773   2.772   7.483  3.0640 -0.3758 -0.8915
 1899SOL    HW2 6914   8.738   2.800   7.338 -1.0130  1.5644  0.3094
 1900SOL     OW 6915   0.019   1.994   8.415 -0.4821 -0.0411 -0.0879
 1900SOL    HW1 6916   0.036   2.059   8.483  1.7785 -0.8730  0.2155
 1900SOL    HW2 6917  -0.059   2.027   8.370 -1.1850  1.2833  1.9496
 1901SOL     OW 6918   8.702   2.261   7.542 -0.0321  0.3096  0.3815
 1901SOL    HW1 6919   8.616   2.294   7.516 -0.5629 -2.8702 -2.6705
 1901SOL    HW2 6920   8.762   2.299   7.478  0.0147 -1.1491 -0.4744
 1902SOL     OW 6921   0.265   3.673   8.282  0.4957 -0.2645  0.1488
 1902SOL    HW1 6922   0.312   3.656   8.364  3.6974  0.4311 -1.4158
 1902SOL    HW2 6923   0.242   3.765   8.287 -0.5038 -0.5269  0.7704
 1903SOL     OW 6924   1.905   3.059   8.204  0.4331  0.3799  0.4146
 1903SOL    HW1 6925   1.811   3.049   8.220  0.1949 -0.2207 -1.1743
 1903SOL    HW2 6926   1.916   3.038   8.111  2.1771  0.1982  0.6296
 1904SOL     OW 6927   1.537   2.560   7.987  0.2224  0.3652 -0.4127
 1904SOL    HW1 6928   1.510   2.633   8.043  2.5998 -0.0140  1.4083
 1904SOL    HW2 6929   1.520   2.482   8.040  3.7549  0.0612  0.5342
 1905SOL     OW 6930   2.241   2.849   7.836 -0.0319  0.7430 -0.4093
 1905SOL    HW1 6931   2.266   2.926   7.785  1.2363  0.2170 -0.6414
 1905SOL    HW2 6932   2.162   2.816   7.794  0.5521  0.7741 -1.5641
 1906SOL     OW 6933   0.380   3.647   0.003 -0.2126  0.0831 -0.1132
 1906SOL    HW1 6934   0.287   3.631  -0.015 -0.3003 -0.8210  1.0897
 1906SOL    HW2 6935   0.390   3.742  -0.010 -1.4147  0.2779  0.2306
 1907SOL     OW 6936   0.581   3.203   7.933 -0.2924 -0.1182 -0.2689
 1907SOL    HW1 6937   0.654   3.264   7.943 -0.3708 -0.0338 -0.2084
 1907SOL    HW2 6938   0.540   3.200   8.020  0.3674 -1.0974  0.0210
 1908SOL     OW 6939   8.547   3.363   8.779  0.3744 -0.6313  0.1973
 1908SOL    HW1 6940   8.481   3.306   8.740 -0.3273  1.2328 -1.5005
 1908SOL    HW2 6941   8.515   3.381   8.867 -1.6009  0.4447 -0.6687
 1909SOL     OW 6942   0.296   2.027   8.346  0.3200 -0.4173 -0.1719
 1909SOL    HW1 6943   0.282   1.994   8.257  1.0100 -2.2693  0.3455
 1909SOL    HW2 6944   0.218   2.000   8.395  0.6769 -0.9197  0.1428
 1910SOL     OW 6945   1.350   2.455   7.814 -0.3511 -0.0073  0.2799
 1910SOL    HW1 6946   1.378   2.371   7.849 -2.6865 -0.9258  0.1092
 1910SOL    HW2 6947   1.374   2.519   7.882 -0.0050 -1.0210  1.1299
 1911SOL     OW 6948   0.397   3.588   8.035 -0.5430 -0.3014 -0.1771
 1911SOL    HW1 6949   0.320   3.616   7.986 -0.5822  0.3376  0.2383
 1911SOL    HW2 6950   0.381   3.618   8.124  1.0757  1.6918 -0.4749
 1912SOL     OW 6951   0.124   3.405   7.614 -0.3308 -0.1375 -0.0172
 1912SOL    HW1 6952   0.077   3.442   7.540 -2.2580 -0.9649  0.7302
 1912SOL    HW2 6953   0.083   3.320   7.630  1.3267 -0.8521  0.7996
 1913SOL     OW 6954   0.065   3.003   8.601  0.0323  0.3483  0.1399
 1913SOL    HW1 6955   0.004   3.074   8.581 -0.5180  0.0841  0.8565
 1913SOL    HW2 6956   0.140   3.047   8.642 -0.5169  0.4670  1.0253
 1914SOL     OW 6957   0.429   3.712   8.495 -0.2110 -0.0873 -0.3370
 1914SOL    HW1 6958   0.488   3.782   8.520 -2.3267  1.2730  1.1577
 1914SOL    HW2 6959   0.385   3.686   8.576  0.0479 -2.7606 -0.9446
 1915SOL     OW 6960   0.861   2.884   7.648 -0.3890 -0.4396  0.3890
 1915SOL    HW1 6961   0.843   2.977   7.638  0.2904 -0.4364 -0.9505
 1915SOL    HW2 6962   0.942   2.881   7.698  0.2942 -0.2670 -0.6854
 1916SOL     OW 6963   0.004   2.618   7.597 -0.2276 -0.2113  0.3217
 1916SOL    HW1 6964   0.038   2.529   7.590  1.6031  0.5616 -1.9803
 1916SOL    HW2 6965   0.063   2.661   7.659 -0.5268 -0.3265  0.6927
 1917SOL     OW 6966   2.358   3.620   7.589  0.2308 -0.4605  0.7179
 1917SOL    HW1 6967   2.299   3.670   7.646 -0.7941 -1.1117  0.2643
 1917SOL    HW2 6968   2.441   3.619   7.636 -0.4105 -0.4463  1.9016
 1918SOL     OW 6969   8.751   3.339   7.148 -0.4833 -0.0174 -0.5808
 1918SOL    HW1 6970   8.722   3.372   7.233 -0.9372  0.4055 -0.8932
 1918SOL    HW2 6971   8.736   3.411   7.088  0.9705  0.1239 -0.8212
 1919SOL     OW 6972   1.666   2.814   8.679 -0.0411  0.0785 -0.2108
 1919SOL    HW1 6973   1.731   2.884   8.689 -0.2087  0.3661 -1.0389
 1919SOL    HW2 6974   1.717   2.734   8.675  0.3281  0.3490 -1.4187
 1920SOL     OW 6975   1.442   2.688   8.204  0.0239  0.3416 -0.0277
 1920SOL    HW1 6976   1.449   2.726   8.291 -0.5409  0.6571 -0.1193
 1920SOL    HW2 6977   1.348   2.678   8.189  0.1431 -2.8579  0.7572
 1921SOL     OW 6978   0.782   3.374   8.029 -0.2540  0.4138  0.6225
 1921SOL    HW1 6979   0.835   3.294   8.024 -0.7417  0.0468  1.2470
 1921SOL    HW2 6980   0.829   3.436   7.973  0.4017 -0.1500  0.5203
 1922SOL     OW 6981   1.055   2.279   7.879 -0.4282 -0.5018 -0.1699
 1922SOL    HW1 6982   1.023   2.304   7.966  1.8128  1.8035  0.0865
 1922SOL    HW2 6983   1.044   2.357   7.826  1.7108 -0.6312 -0.9015
 1923SOL     OW 6984   0.129   2.830   8.166  0.0310 -0.2852 -1.1247
 1923SOL    HW1 6985   0.211   2.861   8.206  1.3589 -1.1074 -3.0449
 1923SOL    HW2 6986   0.072   2.906   8.165  0.3208  0.0289  1.2865
 1924SOL     OW 6987   1.954   2.973   7.948  0.6386  0.2503  0.1999
 1924SOL    HW1 6988   1.975   2.891   7.905 -3.0250  0.2473 -2.0157
 1924SOL    HW2 6989   2.015   3.037   7.910  0.4452 -0.6240 -1.6818
 1925SOL     OW 6990   1.305   3.313   8.643 -0.2962 -0.3583  0.4764
 1925SOL    HW1 6991   1.259   3.243   8.596 -2.8624  0.6332  1.3299
 1925SOL    HW2 6992   1.271   3.308   8.732  1.0360  0.7137  1.0839
 1926SOL     OW 6993   1.572   3.501   8.137  0.1895 -0.2945 -0.5947
 1926SOL    HW1 6994   1.540   3.524   8.050  1.0416 -0.5074 -0.9673
 1926SOL    HW2 6995   1.667   3.509   8.131  0.1928  1.0271  0.6963
 1927SOL     OW 6996   0.337   2.584   7.735 -0.0892 -0.3705  0.0086
 1927SOL    HW1 6997   0.333   2.668   7.691 -1.9414 -0.1064  0.6199
 1927SOL    HW2 6998   0.420   2.586   7.783  0.3580  0.6638 -0.7649
 1928SOL     OW 6999   1.465   2.299   8.088 -0.4522  0.1963 -0.6202
 1928SOL    HW1 7000   1.446   2.318   8.180 -1.8700 -1.0922 -0.6099
 1928SOL    HW2 7001   1.393   2.242   8.060  2.1212 -2.9408 -1.3419
 1929SOL     OW 7002   1.857   3.409   7.601 -0.0480 -0.0759 -0.8887
 1929SOL    HW1 7003   1.853   3.497   7.562  1.2690  1.0729  1.3323
 1929SOL    HW2 7004   1.778   3.404   7.655  0.9149  0.6867  0.6701
 1930SOL     OW 7005   0.434   2.760   0.584  0.4712 -0.1666  0.0977
 1930SOL    HW1 7006   0.354   2.708   0.593 -1.2311  2.2245 -0.2482
 1930SOL    HW2 7007   0.466   2.770   0.673  0.1489 -0.8021  0.2912
 1931SOL     OW 7008   0.816   2.281   8.511  0.1251  0.0071  0.0940
 1931SOL    HW1 7009   0.723   2.297   8.530 -0.2453  0.3525 -1.8074
 1931SOL    HW2 7010   0.819   2.192   8.476  0.7037 -0.4137  1.1556
 1932SOL     OW 7011   0.943   2.649   7.869 -0.3290  0.1832  0.4327
 1932SOL    HW1 7012   0.993   2.611   7.797  0.8295  2.2455  0.0601
 1932SOL    HW2 7013   0.859   2.672   7.830  0.0928  0.7861 -0.1454
 1933SOL     OW 7014   0.115   2.725   7.891 -0.1328  0.2446  0.7378
 1933SOL    HW1 7015   0.130   2.750   7.982  0.1306  0.4967  0.6260
 1933SOL    HW2 7016   0.195   2.680   7.865 -0.1191  0.3738  0.5591
 1934SOL     OW 7017   0.104   4.189   0.149 -0.1317 -0.3215 -0.2468
 1934SOL    HW1 7018   0.166   4.181   0.222 -0.7629  1.3331  0.5360
 1934SOL    HW2 7019   0.085   4.099   0.124  0.5101 -0.9297  1.3048
 1935SOL     OW 7020   0.600   1.940   7.307  0.2883 -0.3183 -0.3459
 1935SOL    HW1 7021   0.696   1.939   7.303  0.3901 -1.1932  1.4529
 1935SOL    HW2 7022   0.577   2.033   7.305  1.5333  0.3156  4.0796
 1936SOL     OW 7023   1.681   3.023   8.009 -0.1409 -0.2736  0.0324
 1936SOL    HW1 7024   1.644   2.946   7.965 -0.2020 -0.6069  0.6553
 1936SOL    HW2 7025   1.774   3.020   7.988 -0.0620 -0.7869  0.4479
 1937SOL     OW 7026   0.506   2.203   8.217  0.4627 -0.5104  0.2669
 1937SOL    HW1 7027   0.432   2.165   8.265 -0.8573  1.4472 -0.0978
 1937SOL    HW2 7028   0.467   2.237   8.136  0.9993  3.5083  1.4592
 1938SOL     OW 7029   1.244   3.308   7.990  0.1856  0.1587 -0.1615
 1938SOL    HW1 7030   1.323   3.256   8.009 -0.0106  0.5921  2.1596
 1938SOL    HW2 7031   1.265   3.396   8.022 -0.2656  1.0214 -2.0905
 1939SOL     OW 7032   0.099   4.155   8.191  0.4111  0.2157 -0.2733
 1939SOL    HW1 7033   0.144   4.151   8.107 -0.4007  0.4840 -0.7296
 1939SOL    HW2 7034   0.042   4.231   8.185 -0.1589 -0.1550  0.2641
 1940SOL     OW 7035   1.518   2.595   0.316  0.1690  0.3113  0.2456
 1940SOL    HW1 7036   1.459   2.620   0.387 -0.5369 -1.8309  0.4794
 1940SOL    HW2 7037   1.598   2.566   0.360 -0.4197 -1.4125  0.2354
 1941SOL     OW 7038   0.308   2.825   7.652  0.3896 -0.4921  0.1650
 1941SOL    HW1 7039   0.319   2.912   7.691  0.2954 -1.3109  2.1387
 1941SOL    HW2 7040   0.269   2.842   7.567 -1.0841  1.3491  1.1225
 1942SOL     OW 7041   1.924   2.583   8.615  0.2009 -0.1482  0.0109
 1942SOL    HW1 7042   1.903   2.498   8.653  1.4881 -0.0479  1.0157
 1942SOL    HW2 7043   1.851   2.601   8.555 -0.6274 -1.4566  0.5739
 1943SOL     OW 7044   1.347   3.590   7.780  0.2649 -0.2003 -0.0039
 1943SOL    HW1 7045   1.358   3.660   7.845 -0.0193 -0.8926  0.8063
 1943SOL    HW2 7046   1.259   3.604   7.744  0.1752 -0.1957  0.2181
 1944SOL     OW 7047   1.755   3.079   7.638  0.0372  0.4050 -0.0181
 1944SOL    HW1 7048   1.795   3.123   7.564 -0.7560  0.6266 -0.3297
 1944SOL    HW2 7049   1.732   2.992   7.605  0.7222  0.0836  0.3147
 1945SOL     OW 7050   0.454   3.487   7.784  0.0323  0.3435  0.0871
 1945SOL    HW1 7051   0.452   3.480   7.879  0.5561  2.2524  0.2767
 1945SOL    HW2 7052   0.384   3.549   7.763  0.4210  0.5303 -0.7045
 1946SOL     OW 7053   1.381   2.198   7.682  0.0009  0.3783 -0.4285
 1946SOL    HW1 7054   1.360   2.114   7.640  0.1345  0.5739 -0.8947
 1946SOL    HW2 7055   1.462   2.227   7.638  0.1227  0.6046 -0.0595
 1947SOL     OW 7056   0.122   3.905   8.303  0.0259  0.1171  0.1583
 1947SOL    HW1 7057   0.124   3.992   8.263  0.6199  0.3093  0.5901
 1947SOL    HW2 7058   0.033   3.874   8.288 -1.4414  2.3208  3.1218
 1948SOL     OW 7059   1.097   3.164   8.503  0.1272  0.5087  0.2011
 1948SOL    HW1 7060   1.076   3.231   8.438  0.4035  0.5848  0.1887
 1948SOL    HW2 7061   1.144   3.097   8.453 -0.3098  0.2128  0.1743
 1949SOL     OW 7062   0.147   2.408   7.685 -0.3362 -0.1675  0.6912
 1949SOL    HW1 7063   0.219   2.470   7.696 -2.3096  2.2454  0.9040
 1949SOL    HW2 7064   0.184   2.336   7.633  1.7052  1.9301 -0.9493
 1950SOL     OW 7065   0.670   1.989   7.705  0.0089  0.1739  0.5414
 1950SOL    HW1 7066   0.715   1.924   7.650 -0.3123  0.3886  0.0205
 1950SOL    HW2 7067   0.581   1.955   7.714 -0.4207  0.9736 -0.4747
 1951SOL     OW 7068   0.965   3.036   8.698 -0.5606 -0.3537 -0.2813
 1951SOL    HW1 7069   1.010   3.080   8.626 -0.2502 -0.1841  0.0141
 1951SOL    HW2 7070   1.032   2.984   8.741 -0.0598  1.6686  1.5753
 1952SOL     OW 7071   1.030   3.301   8.279  0.2600  0.4562  0.6027
 1952SOL    HW1 7072   0.974   3.377   8.295 -1.8991 -1.1380  0.9530
 1952SOL    HW2 7073   1.078   3.323   8.199 -0.5403  2.0340  0.5173
 1953SOL     OW 7074   0.637   2.775   8.070 -0.1665 -0.2604 -0.3921
 1953SOL    HW1 7075   0.650   2.690   8.027  1.0377 -0.3660  0.1268
 1953SOL    HW2 7076   0.701   2.775   8.141 -0.8997  0.6466  0.2863
 1954SOL     OW 7077   0.704   2.420   7.871  0.5163  0.7957  0.2212
 1954SOL    HW1 7078   0.744   2.405   7.957 -1.6487  1.1040  1.3330
 1954SOL    HW2 7079   0.678   2.512   7.871 -0.0202  0.6583 -0.5503
 1955SOL     OW 7080   1.664   2.859   7.500  0.3858  0.0385  0.7006
 1955SOL    HW1 7081   1.625   2.903   7.424  0.4395  0.0675  0.6897
 1955SOL    HW2 7082   1.687   2.772   7.468  1.0468  0.2818  0.4863
 1956SOL     OW 7083   8.569   1.708   7.360 -0.2316 -0.1040  0.3181
 1956SOL    HW1 7084   8.591   1.615   7.355  1.2024  0.2725 -2.5543
 1956SOL    HW2 7085   8.653   1.753   7.359 -0.9125  1.2513 -1.2776
 1957SOL     OW 7086   0.740   2.258   7.639 -0.1246  0.5682 -0.2648
 1957SOL    HW1 7087   0.689   2.178   7.652 -0.0015  0.6316  0.6284
 1957SOL    HW2 7088   0.743   2.299   7.725 -0.0847  1.4788 -0.6844
 1958SOL     OW 7089   1.174   2.603   8.142 -0.2145  0.0522  0.1614
 1958SOL    HW1 7090   1.136   2.684   8.108 -2.2319 -1.2477 -0.8645
 1958SOL    HW2 7091   1.164   2.609   8.237 -1.3457  0.5653  0.0240
 1959SOL     OW 7092   0.236   3.297   8.003 -0.0496 -0.2767 -0.0614
 1959SOL    HW1 7093   0.165   3.279   8.065  0.1528  2.0997  0.9658
 1959SOL    HW2 7094   0.304   3.340   8.056  0.8024  0.3971 -1.6196
 1960SOL     OW 7095   1.590   3.249   8.298 -0.3880  0.1915  0.1699
 1960SOL    HW1 7096   1.543   3.212   8.224 -1.5394 -0.0008  0.9543
 1960SOL    HW2 7097   1.577   3.344   8.289  0.2240  0.2313 -0.3425
 1961SOL     OW 7098   1.148   2.230   7.541  0.0951 -0.6059 -0.1106
 1961SOL    HW1 7099   1.193   2.251   7.622  1.0401 -1.2897 -0.4339
 1961SOL    HW2 7100   1.218   2.224   7.476 -0.6481 -0.0378 -0.9845
 1962SOL     OW 7101   8.606   2.350   8.641 -0.4382 -0.4505 -0.0780
 1962SOL    HW1 7102   8.573   2.344   8.730 -0.8750  1.7048 -0.0424
 1962SOL    HW2 7103   8.557   2.283   8.592 -0.8320 -1.0323  1.0868
 1963SOL     OW 7104   0.678   2.670   7.812 -0.3708 -0.1486  0.0618
 1963SOL    HW1 7105   0.700   2.639   7.725  1.5943  1.2832 -0.0008
 1963SOL    HW2 7106   0.640   2.757   7.798 -0.5656 -0.1441  0.5892
 1964SOL     OW 7107   1.115   2.100   8.290  0.0704  0.2539  0.4269
 1964SOL    HW1 7108   1.152   2.188   8.284  1.0677 -0.2096 -0.7017
 1964SOL    HW2 7109   1.185   2.046   8.327  0.2670 -0.4762 -0.9403
 1965SOL     OW 7110   1.229   2.942   8.407  0.4446  0.5858 -0.1749
 1965SOL    HW1 7111   1.313   2.947   8.453  0.5763  0.9549 -0.4516
 1965SOL    HW2 7112   1.209   2.849   8.404 -0.1339  0.6211  1.6607
 1966SOL     OW 7113   1.704   2.562   8.454 -0.1969 -0.3006  0.3551
 1966SOL    HW1 7114   1.728   2.472   8.437 -0.8919 -0.1615 -1.5512
 1966SOL    HW2 7115   1.622   2.556   8.504 -0.2827 -0.7277  0.1656
 1967SOL     OW 7116   2.133   2.610   8.114  0.2868 -0.5293  0.2235
 1967SOL    HW1 7117   2.189   2.686   8.095  0.4328 -0.5681  0.4898
 1967SOL    HW2 7118   2.070   2.643   8.178  0.4716 -0.6841  0.4853
 1968SOL     OW 7119   0.755   3.292   7.304  0.2986 -0.7815 -0.4075
 1968SOL    HW1 7120   0.674   3.304   7.254  0.0390  2.6645  0.5914
 1968SOL    HW2 7121   0.726   3.253   7.387 -0.9630  2.9374  1.0972
 1969SOL     OW 7122   1.449   2.767   8.472 -0.0116  0.0193  0.2699
 1969SOL    HW1 7123   1.512   2.819   8.521 -1.2228  1.0921  0.7675
 1969SOL    HW2 7124   1.437   2.688   8.524  0.4341  0.1014  0.4996
 1970SOL     OW 7125   1.752   2.683   7.299 -0.8047  0.4271 -0.1382
 1970SOL    HW1 7126   1.684   2.616   7.292 -1.1919  0.8360 -0.2779
 1970SOL    HW2 7127   1.761   2.718   7.210  0.1254 -0.1501 -0.2814
 1971SOL     OW 7128   0.328   1.987   7.468 -0.1706 -0.2727 -0.7061
 1971SOL    HW1 7129   0.417   1.971   7.437  0.1552  2.5365 -1.5909
 1971SOL    HW2 7130   0.325   1.949   7.555  1.9227 -0.4403 -0.6603
 1972SOL     OW 7131   1.959   2.590   0.250 -0.2234 -0.2457  0.0723
 1972SOL    HW1 7132   1.872   2.554   0.266 -0.3926  0.3199  0.4368
 1972SOL    HW2 7133   1.968   2.661   0.314  0.6140 -0.4805  0.2223
 1973SOL     OW 7134   0.688   3.075   8.619  0.3660 -0.1234  0.1329
 1973SOL    HW1 7135   0.781   3.054   8.618  0.4863  0.3835  0.4356
 1973SOL    HW2 7136   0.685   3.170   8.632 -0.1846 -0.0832 -0.2466
 1974SOL     OW 7137   1.143   2.657   8.404 -0.2020  0.0811 -0.1582
 1974SOL    HW1 7138   1.182   2.597   8.469  1.1233  0.2287 -0.7769
 1974SOL    HW2 7139   1.085   2.713   8.455  1.4372  0.7416  1.0836
 1975SOL     OW 7140   0.909   3.105   8.010  0.3288  0.3667 -0.0455
 1975SOL    HW1 7141   0.853   3.061   8.074 -0.2054  0.2595 -0.5786
 1975SOL    HW2 7142   0.985   3.048   8.002 -0.3917 -0.5374 -0.7968
 1976SOL     OW 7143   0.678   3.105   0.202  0.3301  0.4921  0.3053
 1976SOL    HW1 7144   0.640   3.088   0.289  1.0165 -0.0277  0.5100
 1976SOL    HW2 7145   0.604   3.096   0.142  0.1552 -0.7503  0.6812
 1977SOL     OW 7146   1.151   2.396   8.558  0.2293  0.3685  0.2479
 1977SOL    HW1 7147   1.084   2.417   8.623 -1.5919 -1.2494 -1.0379
 1977SOL    HW2 7148   1.218   2.348   8.608 -0.4706  0.3449  1.1921
 1978SOL     OW 7149   8.391   3.569   8.603 -0.2336  0.7236  0.2652
 1978SOL    HW1 7150   8.361   3.540   8.689 -2.2787  0.0716 -0.6097
 1978SOL    HW2 7151   8.465   3.511   8.582 -0.4819  0.0986  1.0665
 1979SOL     OW 7152   0.467   3.284   7.325  0.6538 -0.0967  0.6229
 1979SOL    HW1 7153   0.461   3.223   7.398  0.3762 -0.3170  0.4200
 1979SOL    HW2 7154   0.376   3.298   7.297  0.8445 -1.3445 -0.7554
 1980SOL     OW 7155   0.301   2.555   8.118 -0.0943 -0.0797  0.1420
 1980SOL    HW1 7156   0.379   2.524   8.072  0.1416 -0.2614  0.6473
 1980SOL    HW2 7157   0.230   2.500   8.085 -0.2492  0.9003 -1.2314
 1981SOL     OW 7158   1.473   3.181   8.050 -0.2623  0.2693  0.4857
 1981SOL    HW1 7159   1.550   3.136   8.015 -0.6498  1.5736 -2.3412
 1981SOL    HW2 7160   1.420   3.111   8.088  0.7733 -1.1408 -0.5596
 1982SOL     OW 7161   1.194   3.305   0.044  0.4111  0.1039 -0.4610
 1982SOL    HW1 7162   1.184   3.279   0.135  0.5689 -1.3827 -0.8404
 1982SOL    HW2 7163   1.144   3.386   0.036 -0.5330 -0.3464  0.6845
 1983SOL     OW 7164   1.794   2.629   7.911 -0.3696 -0.5959  0.0559
 1983SOL    HW1 7165   1.809   2.662   7.999 -1.4792  0.3437 -0.0836
 1983SOL    HW2 7166   1.712   2.580   7.916 -0.9046  0.1980 -0.6145
 1984SOL     OW 7167   0.507   3.106   8.844  0.0651 -0.2629  0.0088
 1984SOL    HW1 7168   0.572   3.122   8.775  0.4259  0.2814  0.4690
 1984SOL    HW2 7169   0.441   3.051   8.802  0.7007 -0.6264 -0.5359
 1985SOL     OW 7170   0.954   2.770   8.551  0.2335 -0.1556 -0.3581
 1985SOL    HW1 7171   0.978   2.833   8.618  1.3865 -1.3116  0.3570
 1985SOL    HW2 7172   0.876   2.727   8.584 -0.2877  0.5534 -0.6387
 1986SOL     OW 7173   1.198   2.330   8.256 -0.1181 -0.4814  0.1950
 1986SOL    HW1 7174   1.151   2.365   8.331 -0.0349  0.0616  0.0039
 1986SOL    HW2 7175   1.191   2.399   8.190  0.9512 -0.3875  0.1677
 1987SOL     OW 7176   1.087   2.500   7.701 -0.4920 -0.2735  1.0845
 1987SOL    HW1 7177   1.177   2.481   7.727 -0.3750  2.4462  3.1057
 1987SOL    HW2 7178   1.095   2.558   7.626 -0.5973 -0.6733  0.7605
 1988SOL     OW 7179   0.128   1.740   8.377 -0.5038  0.0307  0.8012
 1988SOL    HW1 7180   0.095   1.830   8.374  0.3657  0.3283 -0.2147
 1988SOL    HW2 7181   0.200   1.742   8.440 -0.1856  0.1514  0.4350
 1989SOL     OW 7182   8.718   2.999   0.062 -0.0953 -0.3415 -0.3913
 1989SOL    HW1 7183   8.698   3.021  -0.029  0.0387  1.0413 -0.1122
 1989SOL    HW2 7184   8.657   3.053   0.113  0.5968 -0.2480  0.3590
 1990SOL     OW 7185   0.393   2.797   8.253 -0.4983  0.2278  0.1361
 1990SOL    HW1 7186   0.445   2.837   8.183 -3.5665  2.3635 -1.1519
 1990SOL    HW2 7187   0.382   2.706   8.225  0.1707  0.4787 -1.0199
 1991SOL     OW 7188   0.354   2.133   7.860 -0.3628 -0.1804 -0.0940
 1991SOL    HW1 7189   0.418   2.066   7.835 -0.7547 -2.1864  3.4539
 1991SOL    HW2 7190   0.283   2.123   7.797  1.6150  0.3078 -2.5315
 1992SOL     OW 7191   1.946   2.774   7.741  0.2634  0.1799 -0.2032
 1992SOL    HW1 7192   1.928   2.727   7.659 -0.5175 -0.4474  0.3080
 1992SOL    HW2 7193   1.911   2.717   7.809 -1.4190  1.8056  0.4054
 1993SOL     OW 7194   0.868   2.751   8.272 -0.0658 -0.1590  0.0852
 1993SOL    HW1 7195   0.877   2.657   8.285 -0.6482 -0.2474 -0.1340
 1993SOL    HW2 7196   0.841   2.785   8.357  0.7509 -0.0987  0.3338
 1994SOL     OW 7197   1.564   2.302   7.100  0.1112 -0.1483  0.0564
 1994SOL    HW1 7198   1.583   2.352   7.180  0.1921 -0.4013  0.1993
 1994SOL    HW2 7199   1.495   2.351   7.056  0.2274  0.1160  0.1681
 1995SOL     OW 7200   1.303   2.523   7.383 -0.0754  0.3175 -0.2165
 1995SOL    HW1 7201   1.355   2.598   7.355 -0.7719  1.3088  1.0301
 1995SOL    HW2 7202   1.232   2.561   7.435  0.1946 -1.2758  1.4204
 1996SOL     OW 7203   1.295   3.013   8.140  0.1556  0.5754  0.0145
 1996SOL    HW1 7204   1.227   2.960   8.098 -1.4448  1.2543  1.6267
 1996SOL    HW2 7205   1.278   3.004   8.234  2.1553  0.9986  0.4743
 1997SOL     OW 7206   0.452   3.210   8.219 -0.0818  0.0215  0.4889
 1997SOL    HW1 7207   0.439   3.262   8.298  0.2678 -0.0821  0.6181
 1997SOL    HW2 7208   0.466   3.120   8.250  1.1696  0.1592  0.3961
 1998SOL     OW 7209   0.337   2.727   8.516  0.1027 -0.1957  0.7140
 1998SOL    HW1 7210   0.338   2.763   8.427  0.2640 -0.6204  0.5378
 1998SOL    HW2 7211   0.308   2.637   8.504 -1.6843  0.2654  1.3038
 1999SOL     OW 7212   1.063   2.199   0.379 -0.6062 -0.3880  0.1805
 1999SOL    HW1 7213   1.120   2.226   0.308 -2.7462 -0.0320 -1.5016
 1999SOL    HW2 7214   1.070   2.104   0.381 -0.7265 -0.4193 -0.6951
 2000SOL     OW 7215   8.676   3.536   7.401  0.0910 -0.2543  0.1051
 2000SOL    HW1 7216   8.658   3.609   7.460 -0.6651 -1.8735  2.0086
 2000SOL    HW2 7217   8.638   3.563   7.318 -0.7563  1.2445  0.9327
 2001SOL     OW 7218   8.812   3.668   8.527 -0.0619 -0.2716  0.3901
 2001SOL    HW1 7219   8.743   3.610   8.560 -1.2770  0.7972 -0.1651
 2001SOL    HW2 7220   8.829   3.638   8.438 -0.8302  0.3092  0.0335
 2002SOL     OW 7221   0.650   3.471   8.258 -0.0493 -0.0872 -0.6768
 2002SOL    HW1 7222   0.701   3.550   8.275 -2.0790  1.2754 -0.5425
 2002SOL    HW2 7223   0.652   3.462   8.163  2.1261 -1.2978 -0.5791
 2003SOL     OW 7224   0.877   2.471   8.329 -0.3704  0.1744  0.3092
 2003SOL    HW1 7225   0.785   2.462   8.353 -0.5701 -0.2356 -0.5423
 2003SOL    HW2 7226   0.924   2.414   8.391 -1.0929 -2.7169 -1.5734
 2004SOL     OW 7227   0.307   2.453   8.413 -0.0726 -0.4290  0.2586
 2004SOL    HW1 7228   0.329   2.373   8.460  0.0260 -1.5270 -1.5870
 2004SOL    HW2 7229   0.370   2.459   8.342 -1.2133  0.2743 -0.7526
 2005SOL     OW 7230   0.549   2.386   7.465 -0.3551 -0.3429  0.5683
 2005SOL    HW1 7231   0.604   2.334   7.523  0.8294 -0.1764 -0.3760
 2005SOL    HW2 7232   0.594   2.471   7.459  1.2488 -1.2760 -2.9286
 2006SOL     OW 7233   1.489   2.522   8.638 -0.4867 -0.2570  0.5253
 2006SOL    HW1 7234   1.425   2.458   8.670 -0.5491 -0.2157  0.4861
 2006SOL    HW2 7235   1.525   2.562   8.716 -0.7414 -0.0556  0.5437
 2007SOL     OW 7236   0.597   2.423   8.334 -0.4574 -0.5207 -0.3830
 2007SOL    HW1 7237   0.606   2.338   8.292 -0.0264 -0.0148 -1.3453
 2007SOL    HW2 7238   0.570   2.403   8.424  0.8674 -1.7200 -0.2203
 2008SOL     OW 7239   1.114   3.720   8.377  0.0408 -0.5341  0.0552
 2008SOL    HW1 7240   1.037   3.675   8.412 -1.9860  2.8397  0.3929
 2008SOL    HW2 7241   1.162   3.749   8.455 -1.6921  2.4737  0.1696
 2009SOL     OW 7242   0.298   2.262   7.499 -0.0250  0.1586 -0.5765
 2009SOL    HW1 7243   0.379   2.294   7.458  1.0070 -1.6817 -0.0762
 2009SOL    HW2 7244   0.297   2.168   7.481 -1.7493  0.0393 -0.0277
 2010SOL     OW 7245   0.254   3.178   8.741 -0.1613  0.8922 -0.2645
 2010SOL    HW1 7246   0.191   3.199   8.810  0.3502  0.2928  0.4009
 2010SOL    HW2 7247   0.339   3.201   8.778  0.2229 -0.4184 -0.2639
 2011SOL     OW 7248   0.715   3.350   8.597 -0.0436 -0.8782  0.2002
 2011SOL    HW1 7249   0.688   3.435   8.632  0.3598 -0.9220  0.6352
 2011SOL    HW2 7250   0.690   3.353   8.505  2.0557  0.6639 -0.4055
 2012SOL     OW 7251   1.612   2.838   7.801 -0.7236 -0.2050 -0.4685
 2012SOL    HW1 7252   1.615   2.742   7.803  0.7164 -0.1651  1.1790
 2012SOL    HW2 7253   1.690   2.863   7.751 -0.6281  0.1190 -0.1603
 2013SOL     OW 7254   1.742   3.474   8.564 -1.1054  0.1770 -0.0636
 2013SOL    HW1 7255   1.772   3.409   8.626 -0.8248  1.8917  1.6894
 2013SOL    HW2 7256   1.647   3.472   8.570 -1.0875  0.1228  0.1770
 2014SOL     OW 7257   1.471   3.713   8.278  0.3602 -0.3472 -0.0254
 2014SOL    HW1 7258   1.548   3.732   8.333 -0.5121  0.2886  1.0235
 2014SOL    HW2 7259   1.485   3.624   8.247  1.0537 -0.5972  0.9467
 2015SOL     OW 7260   8.362   3.213   8.649 -0.3204  1.0438  0.1272
 2015SOL    HW1 7261   8.283   3.204   8.595 -0.2242  0.5781  0.0583
 2015SOL    HW2 7262   8.432   3.176   8.596 -0.2805  0.2687  0.7006
 2016SOL     OW 7263   2.174   2.000   7.978 -0.2543 -0.4415 -0.5180
 2016SOL    HW1 7264   2.114   2.075   7.974 -0.7006 -0.7640  0.0290
 2016SOL    HW2 7265   2.124   1.927   7.943 -1.2373 -1.3616  2.4617
 2017SOL     OW 7266   1.490   3.438   7.639  0.1710  0.2803  0.9941
 2017SOL    HW1 7267   1.433   3.485   7.700  0.5900  0.0100  1.6122
 2017SOL    HW2 7268   1.542   3.381   7.695 -2.8192 -3.7706  0.1120
 2018SOL     OW 7269   1.708   2.711   8.182  0.0685 -0.6199 -0.1064
 2018SOL    HW1 7270   1.711   2.671   8.269  0.9856 -0.5737 -0.1105
 2018SOL    HW2 7271   1.614   2.724   8.165 -0.0976  1.3450  1.7805
 2019SOL     OW 7272   0.693   3.680   7.537  0.3279 -0.1677 -0.1143
 2019SOL    HW1 7273   0.712   3.645   7.450 -1.9998 -0.3699 -0.6080
 2019SOL    HW2 7274   0.597   3.687   7.540  0.2834 -0.5863  2.5753
 2020SOL     OW 7275   1.893   2.211   8.168 -0.3952  0.2304 -0.7698
 2020SOL    HW1 7276   1.852   2.297   8.176 -0.3085  0.3887 -1.9191
 2020SOL    HW2 7277   1.982   2.224   8.202 -1.4215 -0.3093  2.5255
 2021SOL     OW 7278   0.459   2.379   7.971  0.5177 -0.1773  0.0615
 2021SOL    HW1 7279   0.416   2.298   7.943  2.2735 -0.6971 -1.2904
 2021SOL    HW2 7280   0.541   2.382   7.922  0.6480  2.3022  0.2641
 2022SOL     OW 7281   1.508   3.228   7.412  0.2659  0.3192 -0.0079
 2022SOL    HW1 7282   1.495   3.290   7.484  2.8700  0.4515  0.4120
 2022SOL    HW2 7283   1.585   3.260   7.366 -0.3570 -0.7251 -1.8813
 2023SOL     OW 7284   0.917   3.213   0.428 -0.1068  0.2400  0.7393
 2023SOL    HW1 7285   0.912   3.137   0.371 -0.3885 -0.9429  2.2827
 2023SOL    HW2 7286   0.842   3.204   0.487  0.0736  1.5041  1.2025
 2024SOL     OW 7287   1.086   2.925   7.827 -0.1054  0.4314 -0.3582
 2024SOL    HW1 7288   1.174   2.930   7.790 -0.9264 -0.7523 -2.7373
 2024SOL    HW2 7289   1.096   2.870   7.904  1.4912  1.8114  0.4927
 2025SOL     OW 7290   1.919   3.178   7.426  0.3459 -0.4780  0.2619
 2025SOL    HW1 7291   1.868   3.171   7.346  0.2175  0.3902  0.2655
 2025SOL    HW2 7292   1.887   3.257   7.469  1.0976 -0.3900  0.6815
 2026SOL     OW 7293   1.440   2.827   0.008 -0.2321  0.0496  0.6807
 2026SOL    HW1 7294   1.431   2.915   0.045 -0.5312  0.3196 -0.0233
 2026SOL    HW2 7295   1.507   2.837  -0.060  1.7556 -0.8476  2.3819
 2027SOL     OW 7296   1.025   2.820   8.077 -0.0893  0.4312 -0.4077
 2027SOL    HW1 7297   0.997   2.756   8.011 -0.0886 -0.5713  0.5426
 2027SOL    HW2 7298   0.962   2.809   8.148  0.4374  0.8713  0.1328
 2028SOL     OW 7299   1.438   2.257   8.379 -0.2804  0.0559  0.3191
 2028SOL    HW1 7300   1.483   2.263   8.463  0.8273 -2.1802 -0.0263
 2028SOL    HW2 7301   1.364   2.316   8.387  1.3717  2.0665  1.8023
 2029SOL     OW 7302   0.172   3.540   7.861  0.1658 -0.1952 -0.1511
 2029SOL    HW1 7303   0.166   3.492   7.943  0.4393  1.6120  0.9728
 2029SOL    HW2 7304   0.139   3.478   7.795 -1.9087 -1.0491  1.5586
 2030SOL     OW 7305   2.117   1.976   0.047  0.3535 -0.3508 -0.2534
 2030SOL    HW1 7306   2.170   1.997   0.124 -0.5605 -2.0789  0.9158
 2030SOL    HW2 7307   2.152   2.032  -0.023  2.0283  0.3601  1.0931
 2031SOL     OW 7308   0.180   3.261   7.292  0.3850 -0.2543 -0.3362
 2031SOL    HW1 7309   0.113   3.218   7.345  0.9596  0.7609  1.3057
 2031SOL    HW2 7310   0.133   3.298   7.218 -0.7703 -0.2083  0.3974
 2032SOL     OW 7311   0.914   2.386   8.721  0.0476 -0.2354 -0.4528
 2032SOL    HW1 7312   0.883   2.346   8.640  0.5111  0.8206 -1.1777
 2032SOL    HW2 7313   0.834   2.413   8.766 -0.1776  0.6199 -1.3356
 2033SOL     OW 7314   0.070   2.225   7.338 -0.6114 -0.0097  0.2928
 2033SOL    HW1 7315   0.132   2.251   7.406 -1.9962  1.4054  1.0803
 2033SOL    HW2 7316   0.021   2.305   7.318 -0.8534 -0.5947 -1.7462
 2034SOL     OW 7317   8.685   1.689   7.661 -0.2599 -0.6819  0.1706
 2034SOL    HW1 7318   8.667   1.727   7.576  0.5247 -0.3322  0.1534
 2034SOL    HW2 7319   8.609   1.634   7.680 -0.7619 -0.1934 -0.4257
 2035SOL     OW 7320   1.283   3.117   7.521  0.4156  0.2963 -0.2678
 2035SOL    HW1 7321   1.239   3.185   7.572  1.6722  1.2677 -0.4499
 2035SOL    HW2 7322   1.363   3.158   7.489  0.2380 -0.6411 -2.0553
 2036SOL     OW 7323   0.507   2.963   0.406 -0.1177  0.0373  0.5391
 2036SOL    HW1 7324   0.499   2.883   0.458 -2.5412  0.5490  1.0679
 2036SOL    HW2 7325   0.448   2.950   0.332  1.7742  0.1552 -1.0832
 2037SOL     OW 7326   1.479   3.502   8.521  0.0594 -0.4493 -0.2034
 2037SOL    HW1 7327   1.431   3.584   8.506  1.0720  0.2864  0.4170
 2037SOL    HW2 7328   1.411   3.435   8.523 -0.6065  0.0261 -2.9467
 2038SOL     OW 7329   8.777   3.600   0.352 -0.6679  0.4568  0.3791
 2038SOL    HW1 7330   8.743   3.649   0.277 -0.1827 -3.6240 -2.8819
 2038SOL    HW2 7331   8.700   3.558   0.390 -0.4757 -3.2013 -2.6512
 2039SOL     OW 7332   1.529   2.568   0.057  0.4076  0.1853  0.1355
 2039SOL    HW1 7333   1.494   2.655   0.038 -0.1990 -0.0675  0.1044
 2039SOL    HW2 7334   1.530   2.564   0.153 -0.3107 -0.0723  0.1364
 2040SOL     OW 7335   1.607   2.423   7.340 -0.2735 -0.4151  0.1636
 2040SOL    HW1 7336   1.518   2.430   7.374 -0.0143  0.2547  0.7232
 2040SOL    HW2 7337   1.644   2.347   7.385 -1.3960 -2.4028 -2.0409
 2041SOL     OW 7338   0.564   2.913   7.844  0.2730 -0.1684 -0.1607
 2041SOL    HW1 7339   0.593   3.003   7.829  1.1813 -0.3450  0.4345
 2041SOL    HW2 7340   0.581   2.897   7.937 -1.9710 -0.2348  0.3099
 2042SOL     OW 7341   1.922   2.220   8.630  0.4647  0.3519 -0.0919
 2042SOL    HW1 7342   2.012   2.249   8.636  0.5199 -0.1162  1.8276
 2042SOL    HW2 7343   1.870   2.296   8.656  0.4197 -0.0274  0.9474
 2043SOL     OW 7344   1.180   3.294   7.711 -0.2477 -0.4520  0.1101
 2043SOL    HW1 7345   1.201   3.276   7.802 -3.1430 -1.5285  0.6808
 2043SOL    HW2 7346   1.161   3.388   7.709  1.4192 -0.0938  0.2192
 2044SOL     OW 7347   0.916   3.721   8.064 -0.0036  0.2849  0.5653
 2044SOL    HW1 7348   0.843   3.711   8.125 -0.3312  1.9891  0.5173
 2044SOL    HW2 7349   0.893   3.666   7.990 -0.8399  0.1643  0.9046
 2045SOL     OW 7350   0.762   3.073   8.230  0.4322  0.1055  0.6275
 2045SOL    HW1 7351   0.697   3.028   8.284 -0.6031 -0.4889 -1.0171
 2045SOL    HW2 7352   0.754   3.165   8.254  0.1452 -0.1646  1.6182
 2046SOL     OW 7353   1.568   2.576   7.675 -0.5539  0.3990  0.4311
 2046SOL    HW1 7354   1.503   2.512   7.703 -0.4487 -1.1823 -2.5404
 2046SOL    HW2 7355   1.521   2.631   7.612  0.3259  0.8277  0.1358
 2047SOL     OW 7356   1.855   3.349   8.344 -0.0885  0.0565  0.4754
 2047SOL    HW1 7357   1.825   3.411   8.410 -0.3091  1.3588 -0.8023
 2047SOL    HW2 7358   1.785   3.284   8.338 -1.3674  1.4621 -0.4164
 2048SOL     OW 7359   8.780   3.093   8.048 -0.3026  0.3252 -0.1871
 2048SOL    HW1 7360   8.724   3.031   8.095 -1.1381  1.4053  0.2717
 2048SOL    HW2 7361   8.827   3.038   7.985 -0.3135 -0.9174  0.8329
 2049SOL     OW 7362   2.286   2.085   0.213 -0.2985  0.1153 -0.2399
 2049SOL    HW1 7363   2.370   2.039   0.210 -1.0497 -1.4458  1.0859
 2049SOL    HW2 7364   2.306   2.174   0.183  1.3347 -0.8690 -2.3449
 2050SOL     OW 7365   8.772   2.168   7.826 -0.0841 -0.2310  0.5484
 2050SOL    HW1 7366   8.854   2.130   7.855  0.1329 -0.0487  0.1766
 2050SOL    HW2 7367   8.767   2.148   7.733 -0.5261 -0.3604  0.5999
 2051SOL     OW 7368   1.485   3.117   8.510 -0.0211 -0.8435  0.4855
 2051SOL    HW1 7369   1.542   3.157   8.444 -0.8564  0.7920  0.6869
 2051SOL    HW2 7370   1.496   3.171   8.588 -0.9953 -1.1609  0.8644
 2052SOL     OW 7371   0.258   2.495   8.756 -0.0134  0.9216  0.1417
 2052SOL    HW1 7372   0.187   2.481   8.819  0.3348  1.3580  0.6460
 2052SOL    HW2 7373   0.247   2.425   8.691 -0.6694  0.7561  0.4213
 2053SOL     OW 7374   0.645   3.648   7.961  0.2045 -0.7184  0.0184
 2053SOL    HW1 7375   0.559   3.634   8.001  0.6289 -0.3685  1.0667
 2053SOL    HW2 7376   0.666   3.564   7.919 -0.4333 -0.9511  0.1628
 2054SOL     OW 7377   1.353   2.268   8.676 -0.3770 -0.1490 -0.2845
 2054SOL    HW1 7378   1.325   2.180   8.649 -1.6492 -1.2660  3.8335
 2054SOL    HW2 7379   1.414   2.252   8.749 -0.1246  2.3799  0.1388
 2055SOL     OW 7380   1.771   2.309   8.413 -0.2090  0.1852  0.3800
 2055SOL    HW1 7381   1.844   2.248   8.422 -0.3024 -0.1026 -0.6665
 2055SOL    HW2 7382   1.702   2.258   8.371  0.1061  1.3006 -1.6024
 2056SOL     OW 7383   0.516   3.255   7.669  0.2842 -0.0276  0.5981
 2056SOL    HW1 7384   0.484   3.345   7.679 -0.5637 -0.2577  0.0347
 2056SOL    HW2 7385   0.533   3.226   7.758 -0.1947  0.4271  0.8443
 2057SOL     OW 7386   0.969   3.371   8.730 -0.1477 -0.6360  0.1366
 2057SOL    HW1 7387   0.881   3.362   8.693 -0.4004 -0.6228  0.7219
 2057SOL    HW2 7388   0.996   3.281   8.749 -0.8791 -0.5142  1.8738
 2058SOL     OW 7389   1.346   2.132   7.355  0.7529  0.0803 -0.4026
 2058SOL    HW1 7390   1.321   2.043   7.328  0.7984 -0.1338  0.2515
 2058SOL    HW2 7391   1.435   2.123   7.388  0.9695  0.4797 -0.8651
 2059SOL     OW 7392   0.901   2.423   8.066  0.4665  0.0242  0.0715
 2059SOL    HW1 7393   0.932   2.509   8.040  1.0629 -0.1240  0.2713
 2059SOL    HW2 7394   0.878   2.433   8.159 -0.5029  0.2415 -0.1803
 2060SOL     OW 7395   1.711   2.235   7.887 -0.1743  0.2013  0.5954
 2060SOL    HW1 7396   1.666   2.272   7.963  1.4848 -1.2546  2.3791
 2060SOL    HW2 7397   1.712   2.141   7.903  0.5725 -0.1110 -1.0583
 2061SOL     OW 7398   0.260   3.087   7.778 -0.1469 -0.3252  0.1963
 2061SOL    HW1 7399   0.249   3.131   7.862 -1.1487 -2.0630  1.0303
 2061SOL    HW2 7400   0.319   3.144   7.728  1.1166  0.3526  2.3459
 2062SOL     OW 7401   1.092   3.957   7.826 -0.3711 -0.2866 -0.0029
 2062SOL    HW1 7402   1.005   3.933   7.794 -0.4089  1.1179 -1.0068
 2062SOL    HW2 7403   1.131   4.008   7.755  0.7607  0.2556  0.9794
 2063SOL     OW 7404   8.655   4.311   0.242  0.0499 -0.2049  0.0459
 2063SOL    HW1 7405   8.728   4.295   0.182 -0.0945 -0.9598  0.0552
 2063SOL    HW2 7406   8.589   4.247   0.217 -1.9718  2.4907 -2.0429
 2064SOL     OW 7407   0.040   4.171   0.986  0.0945  0.8041 -0.0603
 2064SOL    HW1 7408   0.033   4.195   1.078  1.8168 -1.4608  0.7659
 2064SOL    HW2 7409   0.127   4.202   0.960 -0.4534  1.5905 -1.0082
 2065SOL     OW 7410   8.632   4.083   0.987 -0.0678 -0.3686  0.2328
 2065SOL    HW1 7411   8.723   4.112   0.990 -0.9068  2.4888  0.6449
 2065SOL    HW2 7412   8.627   4.012   1.050  1.8286 -0.4754  0.3021
 2066SOL     OW 7413   0.988   4.702   0.632 -0.3808 -0.0491 -0.0776
 2066SOL    HW1 7414   1.019   4.744   0.712 -0.2181 -1.9409  0.9081
 2066SOL    HW2 7415   0.898   4.733   0.622  0.1186  1.4912 -0.1240
 2067SOL     OW 7416   1.711   5.576   0.628  0.2862  0.1911 -0.2480
 2067SOL    HW1 7417   1.684   5.639   0.695 -1.8189 -0.4884 -0.3754
 2067SOL    HW2 7418   1.716   5.493   0.675  2.1010  0.2505 -0.2837
 2068SOL     OW 7419   0.782   4.514   0.582 -0.5737  0.4966  0.4259
 2068SOL    HW1 7420   0.782   4.608   0.602 -1.3206  0.5802  0.0728
 2068SOL    HW2 7421   0.861   4.480   0.625  1.3675  1.7992 -1.8018
 2069SOL     OW 7422   1.766   4.597   0.312  0.1666  0.5938  0.8908
 2069SOL    HW1 7423   1.803   4.671   0.265  0.8297 -0.4234 -0.2364
 2069SOL    HW2 7424   1.672   4.610   0.307  0.1231 -0.0668 -1.8342
 2070SOL     OW 7425   0.615   4.760   0.938  0.7188 -0.1877 -0.4587
 2070SOL    HW1 7426   0.632   4.852   0.959  0.6220 -0.0308 -1.0625
 2070SOL    HW2 7427   0.586   4.761   0.847  0.0699 -0.7477 -0.2639
 2071SOL     OW 7428   1.209   4.319   1.490  0.2061  0.3252  0.3369
 2071SOL    HW1 7429   1.186   4.390   1.549  2.3068  0.3456  1.2189
 2071SOL    HW2 7430   1.278   4.355   1.435 -1.0443 -0.0067 -1.5381
 2072SOL     OW 7431   0.985   4.472   0.166 -0.8393  0.4834  0.0350
 2072SOL    HW1 7432   0.985   4.402   0.231 -1.3899 -0.0358 -0.5079
 2072SOL    HW2 7433   0.916   4.532   0.195 -1.8981 -0.3603 -0.7001
 2073SOL     OW 7434   0.937   4.935   1.580  0.3834  0.0708 -0.2166
 2073SOL    HW1 7435   1.016   4.984   1.555  0.0983  0.8649  0.3945
 2073SOL    HW2 7436   0.867   5.001   1.582 -0.0671 -0.4098  0.3487
 2074SOL     OW 7437   0.169   5.386   0.920  0.3366  0.1070 -0.1053
 2074SOL    HW1 7438   0.210   5.412   0.838  1.6544 -0.4209  0.3691
 2074SOL    HW2 7439   0.098   5.328   0.894  1.4140 -0.9331 -0.8314
 2075SOL     OW 7440   0.960   5.488   1.542  0.1365 -0.5241  0.7338
 2075SOL    HW1 7441   0.979   5.460   1.453  0.0393  1.0107  0.1945
 2075SOL    HW2 7442   0.896   5.425   1.574  0.3228 -1.2076 -0.2070
 2076SOL     OW 7443   0.574   3.997   1.127  0.1013  0.1451  0.1613
 2076SOL    HW1 7444   0.639   4.033   1.188 -1.5031 -1.3106  2.8918
 2076SOL    HW2 7445   0.585   4.049   1.047  1.1629  3.3584  2.2273
 2077SOL     OW 7446   1.182   3.788   0.686  0.1606 -0.1772 -0.5819
 2077SOL    HW1 7447   1.167   3.737   0.766  0.4297  0.0661 -0.3748
 2077SOL    HW2 7448   1.274   3.817   0.692  0.2926 -0.4560 -1.1488
 2078SOL     OW 7449   0.564   5.400   0.152  0.5183  0.2299 -1.1911
 2078SOL    HW1 7450   0.504   5.455   0.202  1.0386  1.5140 -1.9522
 2078SOL    HW2 7451   0.610   5.460   0.094  0.1102 -1.1731 -3.0669
 2079SOL     OW 7452   0.990   4.841   1.295 -0.8372 -0.1210  0.2981
 2079SOL    HW1 7453   0.984   4.820   1.389  1.1581  0.1143  0.5231
 2079SOL    HW2 7454   0.997   4.755   1.252 -1.9268 -0.2366  0.3393
 2080SOL     OW 7455   0.185   5.108   1.067  0.1797 -0.0156  0.2379
 2080SOL    HW1 7456   0.152   5.197   1.080  1.4132  0.4675  0.1538
 2080SOL    HW2 7457   0.106   5.056   1.047 -0.4993  1.1354 -0.1599
 2081SOL     OW 7458   0.279   4.658   0.481  0.0158 -0.2200  0.2080
 2081SOL    HW1 7459   0.322   4.627   0.401  2.5621 -0.7875  1.6978
 2081SOL    HW2 7460   0.199   4.607   0.487  0.3406 -0.9712 -1.3923
 2082SOL     OW 7461   0.563   5.402   1.531 -0.2192  0.9810 -0.6153
 2082SOL    HW1 7462   0.610   5.467   1.582  0.0529 -0.1609  0.6598
 2082SOL    HW2 7463   0.575   5.429   1.440 -0.1849  2.7258 -0.1209
 2083SOL     OW 7464   0.526   4.830   8.710  0.2932  0.2027  0.3215
 2083SOL    HW1 7465   0.556   4.757   8.765  0.4344 -0.4146 -0.5581
 2083SOL    HW2 7466   0.430   4.822   8.711  0.3414 -0.9478 -0.9974
 2084SOL     OW 7467   1.226   3.965   1.190  0.3953  0.6576 -0.0904
 2084SOL    HW1 7468   1.190   4.054   1.194  0.1779  0.5263  1.1638
 2084SOL    HW2 7469   1.253   3.946   1.279 -2.8324 -1.8443  0.5562
 2085SOL     OW 7470   8.486   3.883   0.365  0.2111 -0.1145 -0.3168
 2085SOL    HW1 7471   8.490   3.978   0.379  0.5459 -0.1111 -0.4375
 2085SOL    HW2 7472   8.402   3.869   0.321 -0.0408  0.0748  0.0930
 2086SOL     OW 7473   2.134   5.656   0.500  0.6188 -0.0254  0.3216
 2086SOL    HW1 7474   2.162   5.736   0.454 -0.5962  0.2975  0.1083
 2086SOL    HW2 7475   2.064   5.620   0.444  0.5213 -0.7355  0.8905
 2087SOL     OW 7476   0.034   5.732   0.300  0.6312  0.0917 -0.2960
 2087SOL    HW1 7477   0.028   5.812   0.352 -0.3110 -0.3302  0.2532
 2087SOL    HW2 7478  -0.015   5.667   0.349  1.1654 -0.7689 -0.8683
 2088SOL     OW 7479   1.545   4.372   0.401 -0.0373  0.3306 -0.5451
 2088SOL    HW1 7480   1.538   4.386   0.496 -1.6859 -2.0460 -0.2307
 2088SOL    HW2 7481   1.639   4.377   0.384  0.7138 -2.5388  1.8923
 2089SOL     OW 7482   1.853   4.880   0.237  0.5889  0.7616 -0.0240
 2089SOL    HW1 7483   1.885   4.880   0.146 -0.3337  1.7852 -0.3636
 2089SOL    HW2 7484   1.840   4.972   0.258 -0.1010  0.4821  0.8350
 2090SOL     OW 7485   0.515   4.686   1.449  0.7115  0.0525 -0.0017
 2090SOL    HW1 7486   0.420   4.675   1.447  0.7229 -0.1143  0.3152
 2090SOL    HW2 7487   0.535   4.741   1.372  0.5667 -1.5127 -1.2086
 2091SOL     OW 7488   0.721   4.779   0.620  0.3789 -0.1143 -0.1999
 2091SOL    HW1 7489   0.654   4.767   0.552 -0.2477 -0.3903  0.4537
 2091SOL    HW2 7490   0.715   4.871   0.643  0.0838 -0.1819 -0.0019
 2092SOL     OW 7491   0.868   5.088   1.333  0.3763 -0.3163  0.6653
 2092SOL    HW1 7492   0.924   5.011   1.325  0.7448  0.0836 -0.7573
 2092SOL    HW2 7493   0.795   5.058   1.389  0.0171 -2.0020 -0.6169
 2093SOL     OW 7494   0.708   3.682   0.590 -0.3097  0.6168  0.2674
 2093SOL    HW1 7495   0.654   3.761   0.593 -0.1095  0.7408  0.7225
 2093SOL    HW2 7496   0.749   3.678   0.676  2.1759  1.8107 -0.7453
 2094SOL     OW 7497   0.181   4.680   1.031 -0.0873  0.3344  0.2226
 2094SOL    HW1 7498   0.134   4.723   1.103  0.7240 -0.8107  1.4998
 2094SOL    HW2 7499   0.264   4.727   1.024 -1.0171  1.8392 -1.4902
 2095SOL     OW 7500   1.985   4.878   8.849 -0.0621  0.0804 -0.1552
 2095SOL    HW1 7501   2.072   4.839   8.837 -1.2636 -2.5777 -0.7339
 2095SOL    HW2 7502   1.946   4.878   8.761 -1.8001 -1.7327  0.5593
 2096SOL     OW 7503   1.069   5.710   1.648 -0.8527 -0.2382  0.5049
 2096SOL    HW1 7504   1.022   5.628   1.633  0.3176 -0.8247 -0.1266
 2096SOL    HW2 7505   1.102   5.734   1.561 -0.3666  0.3869  0.8568
 2097SOL     OW 7506   0.750   4.103   1.299  0.3221 -0.2594 -0.5003
 2097SOL    HW1 7507   0.812   4.051   1.350  0.1695  0.6195  0.6306
 2097SOL    HW2 7508   0.802   4.144   1.231  0.6086 -1.0922 -0.8036
 2098SOL     OW 7509   1.389   5.332   0.670 -0.9665 -0.1001 -0.8178
 2098SOL    HW1 7510   1.352   5.254   0.713 -0.2099  1.0507  2.1267
 2098SOL    HW2 7511   1.319   5.396   0.673 -0.4474  0.4426  0.0604
 2099SOL     OW 7512   1.657   5.364   0.785  0.2669  0.0114 -0.3806
 2099SOL    HW1 7513   1.621   5.380   0.872  0.7729 -1.2090  0.0770
 2099SOL    HW2 7514   1.582   5.372   0.726 -0.5795 -1.5060  0.4367
 2100SOL     OW 7515   0.136   4.520   0.093  0.1649 -0.3225  0.4286
 2100SOL    HW1 7516   0.110   4.430   0.076 -1.6595  0.1466  0.5378
 2100SOL    HW2 7517   0.191   4.515   0.171  1.5874 -1.5106 -0.5835
 2101SOL     OW 7518   0.855   4.127   1.070  0.1756  0.2376 -0.0892
 2101SOL    HW1 7519   0.865   4.049   1.016 -1.2127 -0.3814  0.4765
 2101SOL    HW2 7520   0.858   4.200   1.008 -0.3098 -0.3856 -0.8659
 2102SOL     OW 7521   1.882   5.332   0.244  0.7901 -0.2415  0.0874
 2102SOL    HW1 7522   1.921   5.394   0.182 -1.6437  1.6976  0.3330
 2102SOL    HW2 7523   1.793   5.319   0.212  0.7973 -2.6370  0.8221
 2103SOL     OW 7524   0.963   4.396   1.343  0.1492 -0.0570 -0.0082
 2103SOL    HW1 7525   0.871   4.410   1.365  0.0997  0.3656 -0.4568
 2103SOL    HW2 7526   1.006   4.376   1.427 -0.0401  1.4269  0.4695
 2104SOL     OW 7527   1.252   4.211   1.761 -0.3106  0.1995  0.3466
 2104SOL    HW1 7528   1.254   4.243   1.671  1.0197  2.2557  1.0477
 2104SOL    HW2 7529   1.327   4.151   1.767 -1.5490 -1.4932 -0.3895
 2105SOL     OW 7530   1.248   4.716   1.051 -0.1451  0.3805  0.2075
 2105SOL    HW1 7531   1.310   4.712   1.125  1.5796  1.0005 -1.1153
 2105SOL    HW2 7532   1.174   4.662   1.078  1.4396 -1.3033  1.4683
 2106SOL     OW 7533   1.454   4.240   0.868 -0.1204 -0.3660 -0.2161
 2106SOL    HW1 7534   1.446   4.146   0.887 -0.8586 -0.2392  0.1366
 2106SOL    HW2 7535   1.394   4.282   0.930  0.5944  0.3782 -0.0146
 2107SOL     OW 7536   0.942   4.271   0.370 -0.1405  0.4491 -0.0249
 2107SOL    HW1 7537   0.942   4.310   0.458  1.4166  3.2492 -1.1325
 2107SOL    HW2 7538   1.017   4.211   0.370 -0.8690 -0.4980  0.8676
 2108SOL     OW 7539   8.674   4.654   0.823  0.1011  0.3842  0.1326
 2108SOL    HW1 7540   8.756   4.664   0.871  0.2986  3.0847 -0.6224
 2108SOL    HW2 7541   8.607   4.645   0.890  0.4349  3.5411  1.0062
 2109SOL     OW 7542   8.792   5.561   1.483  0.8362 -0.1072 -0.3419
 2109SOL    HW1 7543   8.736   5.578   1.407 -0.3333 -0.5508  0.3811
 2109SOL    HW2 7544   8.868   5.515   1.447 -0.6964 -2.2803 -1.0198
 2110SOL     OW 7545   0.814   3.757   8.725  0.6023 -0.6494  0.0733
 2110SOL    HW1 7546   0.784   3.845   8.746  1.6140  0.1509 -1.6353
 2110SOL    HW2 7547   0.742   3.700   8.752  0.5281  0.5054  2.6191
 2111SOL     OW 7548   1.917   3.979   2.060  0.1100  0.0061 -0.5468
 2111SOL    HW1 7549   1.984   4.045   2.039 -0.3108  0.3476 -0.8245
 2111SOL    HW2 7550   1.940   3.950   2.148 -0.5991  1.6666  0.2376
 2112SOL     OW 7551   1.453   4.781   0.480  0.4141 -0.0262  0.6349
 2112SOL    HW1 7552   1.366   4.816   0.463  2.0602  3.9938 -0.8715
 2112SOL    HW2 7553   1.480   4.742   0.397  0.6975  0.4127  0.5167
 2113SOL     OW 7554   0.108   3.689   1.000 -0.4568 -0.0876 -0.3363
 2113SOL    HW1 7555   0.050   3.613   1.008 -0.8526  0.3729  1.9862
 2113SOL    HW2 7556   0.193   3.652   0.979 -0.7971 -1.1255  0.0278
 2114SOL     OW 7557   1.185   5.527   0.469 -0.3857 -0.3626  0.1957
 2114SOL    HW1 7558   1.131   5.550   0.394 -0.1422  1.3333  0.5018
 2114SOL    HW2 7559   1.180   5.431   0.474 -0.3140 -0.5229 -2.0258
 2115SOL     OW 7560   0.341   5.457   0.714 -0.8448 -0.0690  0.2015
 2115SOL    HW1 7561   0.321   5.534   0.660 -3.3339 -0.3103  0.6475
 2115SOL    HW2 7562   0.431   5.435   0.691 -0.3759  2.3787 -0.6618
 2116SOL     OW 7563   1.767   4.719   0.907  0.0752  0.0056  0.2196
 2116SOL    HW1 7564   1.827   4.677   0.845  0.0490  0.5867 -0.2040
 2116SOL    HW2 7565   1.686   4.669   0.900  0.0427  0.1289 -0.2856
 2117SOL     OW 7566   0.994   5.577   2.054 -0.4464 -0.4745  1.0607
 2117SOL    HW1 7567   1.053   5.573   2.129  2.2982  0.5314 -0.8512
 2117SOL    HW2 7568   1.034   5.518   1.989 -0.2530  1.8236 -1.0651
 2118SOL     OW 7569   0.175   5.016   8.833  0.5167 -0.0073  0.8190
 2118SOL    HW1 7570   0.178   5.046   8.742 -0.7279 -0.8423  0.4717
 2118SOL    HW2 7571   0.267   5.016   8.862  0.7739  1.8486  0.1203
 2119SOL     OW 7572   1.540   4.692   0.735  0.4254  0.4184  0.2711
 2119SOL    HW1 7573   1.461   4.657   0.778  0.9291  0.0199  0.8896
 2119SOL    HW2 7574   1.506   4.738   0.659 -0.5379  1.3355  1.2027
 2120SOL     OW 7575   0.563   4.853   1.677 -0.3084 -0.3821 -0.0256
 2120SOL    HW1 7576   0.489   4.834   1.734 -1.3651  0.2367 -1.1389
 2120SOL    HW2 7577   0.559   4.786   1.608  0.1955 -0.3651 -0.0798
 2121SOL     OW 7578   1.521   5.583   0.453 -0.6481 -0.2340  0.4101
 2121SOL    HW1 7579   1.608   5.568   0.491 -0.7838  1.0369  1.2790
 2121SOL    HW2 7580   1.475   5.634   0.518 -1.7417 -0.0770 -0.4576
 2122SOL     OW 7581   0.094   3.551   1.371  0.1272 -0.6372  0.2262
 2122SOL    HW1 7582   0.119   3.640   1.348 -2.0336 -0.5910 -2.5056
 2122SOL    HW2 7583  -0.002   3.554   1.374  0.0766 -2.2937  2.9265
 2123SOL     OW 7584   1.920   5.171   8.790  0.3816 -0.0581 -0.0381
 2123SOL    HW1 7585   1.840   5.145   8.745  0.1282 -0.6004  0.6877
 2123SOL    HW2 7586   1.890   5.233   8.857  0.8372  1.2527 -1.0251
 2124SOL     OW 7587   8.726   5.466   8.750 -0.2618 -0.1315 -0.9092
 2124SOL    HW1 7588   8.794   5.459   8.817 -0.8567 -1.1963 -0.3826
 2124SOL    HW2 7589   8.706   5.375   8.727 -0.8568  0.1903 -1.7172
 2125SOL     OW 7590   1.392   3.974   0.132  0.2527  0.5018 -0.2303
 2125SOL    HW1 7591   1.433   4.027   0.065  1.0479 -1.3090 -1.2468
 2125SOL    HW2 7592   1.463   3.948   0.190  0.6002 -2.2563 -1.7308
 2126SOL     OW 7593   0.463   5.365   1.045 -0.7767  0.0937 -0.0867
 2126SOL    HW1 7594   0.388   5.368   0.986  0.3375 -0.2255 -1.5953
 2126SOL    HW2 7595   0.532   5.413   0.998  0.4510 -1.0340  0.4917
 2127SOL     OW 7596   1.022   5.116   0.754 -0.0660 -0.2353 -0.1075
 2127SOL    HW1 7597   0.941   5.104   0.704 -0.3671 -0.6869  0.4745
 2127SOL    HW2 7598   1.090   5.080   0.697 -0.2706  0.1449 -0.5993
 2128SOL     OW 7599   8.741   4.536   0.392  0.4813 -0.1044  0.1097
 2128SOL    HW1 7600   8.787   4.466   0.439  1.6602  0.7100  0.1944
 2128SOL    HW2 7601   8.670   4.491   0.347 -0.4013 -1.0119  2.2408
 2129SOL     OW 7602   1.147   3.826   1.865  0.3372 -0.1379 -0.1450
 2129SOL    HW1 7603   1.165   3.855   1.955 -0.1016 -0.6579  0.1241
 2129SOL    HW2 7604   1.206   3.752   1.852 -2.3043 -2.7418  1.2320
 2130SOL     OW 7605   0.924   3.907   1.410  0.0190  0.2655 -0.1974
 2130SOL    HW1 7606   1.012   3.870   1.415  0.0529  0.4108  0.4883
 2130SOL    HW2 7607   0.866   3.832   1.413  0.1038  0.2187  0.4626
 2131SOL     OW 7608   0.729   5.800   1.005 -0.4928  0.1839 -0.4281
 2131SOL    HW1 7609   0.718   5.889   0.971 -0.7342 -0.3047 -1.6744
 2131SOL    HW2 7610   0.823   5.786   1.007 -0.3705  1.0020  1.2617
 2132SOL     OW 7611   1.499   4.107   1.789  0.1681 -0.6397 -0.2398
 2132SOL    HW1 7612   1.560   4.152   1.847 -0.0266  0.9289 -1.1983
 2132SOL    HW2 7613   1.554   4.071   1.720  0.3493 -2.1458  0.6335
 2133SOL     OW 7614   0.865   5.063   0.537 -0.0487 -0.1846 -0.3334
 2133SOL    HW1 7615   0.835   5.002   0.469  0.8298 -0.3689 -0.5646
 2133SOL    HW2 7616   0.864   5.149   0.494 -0.8852 -0.0793 -0.1313
 2134SOL     OW 7617   1.160   4.150   0.726  0.1784  0.2536 -0.3064
 2134SOL    HW1 7618   1.106   4.081   0.688  1.2391 -0.7124 -0.1389
 2134SOL    HW2 7619   1.215   4.104   0.789  0.3115  1.4059  0.4415
 2135SOL     OW 7620   0.239   3.876   0.367 -0.4391 -0.0733 -0.2949
 2135SOL    HW1 7621   0.197   3.950   0.410  1.0765  0.7622 -0.1514
 2135SOL    HW2 7622   0.224   3.801   0.425 -0.5883  0.4948  0.4003
 2136SOL     OW 7623   1.672   4.755   8.818 -0.2728 -0.3418 -0.3085
 2136SOL    HW1 7624   1.681   4.766   8.723  0.2266 -1.3466 -0.3949
 2136SOL    HW2 7625   1.736   4.687   8.840 -0.2548  0.0183  0.7793
 2137SOL     OW 7626   0.891   4.371   8.797  0.1286 -0.5380 -0.2165
 2137SOL    HW1 7627   0.836   4.450   8.798 -0.4640 -0.9264  1.3889
 2137SOL    HW2 7628   0.952   4.383   8.870  0.8859 -1.0077 -0.7543
 2138SOL     OW 7629   1.388   4.401   1.285 -0.4641 -0.0549 -0.0755
 2138SOL    HW1 7630   1.428   4.485   1.305 -1.4756  0.8483 -1.6844
 2138SOL    HW2 7631   1.412   4.383   1.194  0.9380 -2.2501  0.6316
 2139SOL     OW 7632   0.896   5.473   0.702  0.0538  0.4444  0.0527
 2139SOL    HW1 7633   0.873   5.552   0.652 -2.6278 -0.7443 -0.7746
 2139SOL    HW2 7634   0.906   5.405   0.635 -2.5721 -0.9556  0.9241
 2140SOL     OW 7635   0.461   4.986   0.780  0.0182 -0.2120  0.0984
 2140SOL    HW1 7636   0.447   4.895   0.756  3.4852 -1.2413  1.4047
 2140SOL    HW2 7637   0.430   4.992   0.870  1.1981 -0.5596  0.5419
 2141SOL     OW 7638   0.980   5.864   0.710  0.6144 -0.1359 -0.2310
 2141SOL    HW1 7639   0.950   5.779   0.680  2.0320 -0.4341 -0.8805
 2141SOL    HW2 7640   0.944   5.926   0.647  1.7948 -0.5486 -1.3533
 2142SOL     OW 7641   1.044   3.896   8.811 -0.0330  0.0650  0.3206
 2142SOL    HW1 7642   0.956   3.859   8.801 -0.3756  1.0766 -0.5748
 2142SOL    HW2 7643   1.085   3.841   8.878 -0.4978 -1.9026 -0.9462
 2143SOL     OW 7644   0.188   4.186   1.425  0.1670 -0.3299 -1.1892
 2143SOL    HW1 7645   0.108   4.217   1.381  0.4109  1.2093 -0.6153
 2143SOL    HW2 7646   0.249   4.172   1.353  0.2937  1.3638 -1.4687
 2144SOL     OW 7647   0.451   3.808   1.425 -0.1412  0.0576 -0.3607
 2144SOL    HW1 7648   0.408   3.738   1.474 -2.2121  0.5783 -1.3411
 2144SOL    HW2 7649   0.445   3.885   1.483  0.5515 -0.1482 -0.0101
 2145SOL     OW 7650   0.688   4.214   0.325 -0.8190  0.6275  0.2825
 2145SOL    HW1 7651   0.705   4.150   0.257  0.0700  1.3613 -0.2222
 2145SOL    HW2 7652   0.774   4.255   0.341 -1.7009  3.2153 -1.0093
 2146SOL     OW 7653   0.883   3.808   0.218  0.0888  0.6851 -0.2500
 2146SOL    HW1 7654   0.955   3.870   0.206  0.7618  0.2069  1.0783
 2146SOL    HW2 7655   0.804   3.858   0.198  0.7373  1.3611 -1.2510
 2147SOL     OW 7656   1.280   5.002   1.094  0.2065  0.2730 -0.0678
 2147SOL    HW1 7657   1.275   4.907   1.086 -1.0783  0.3717 -0.6719
 2147SOL    HW2 7658   1.354   5.027   1.039 -0.3451 -0.2610 -1.0790
 2148SOL     OW 7659   1.334   4.561   0.835  0.5555 -0.4205 -0.7548
 2148SOL    HW1 7660   1.321   4.625   0.905 -0.3089 -1.1089 -0.2516
 2148SOL    HW2 7661   1.307   4.477   0.874  1.9247 -1.1422 -1.3061
 2149SOL     OW 7662   1.577   4.081   0.342  0.2818 -0.1812 -0.1842
 2149SOL    HW1 7663   1.660   4.070   0.389  0.0263 -2.8267 -0.2134
 2149SOL    HW2 7664   1.561   4.176   0.345  1.4433  0.0430  3.0231
 2150SOL     OW 7665   0.775   4.929   0.258 -0.0862  0.2847  0.3094
 2150SOL    HW1 7666   0.859   4.885   0.267  0.0766  0.6398  0.5255
 2150SOL    HW2 7667   0.751   4.914   0.166 -0.5051 -1.0891  0.6153
 2151SOL     OW 7668   2.047   4.865   0.737  0.1135  0.2376  0.3328
 2151SOL    HW1 7669   1.957   4.846   0.713  0.1859 -0.3194  0.4874
 2151SOL    HW2 7670   2.100   4.811   0.679  0.2986 -0.8586  1.4761
 2152SOL     OW 7671   1.138   4.146   8.747 -0.2359  0.1158 -0.7718
 2152SOL    HW1 7672   1.095   4.070   8.786 -1.0542  0.7290 -0.4379
 2152SOL    HW2 7673   1.178   4.191   8.822  0.4477 -0.1088 -0.9982
 2153SOL     OW 7674   0.536   4.363   0.104  0.5818 -0.0324  0.2913
 2153SOL    HW1 7675   0.575   4.297   0.161 -0.4244 -0.7894  0.1398
 2153SOL    HW2 7676   0.554   4.331   0.015  1.7149  0.8857  0.1605
 2154SOL     OW 7677   1.941   5.035   1.542 -0.2586  0.0548  0.2766
 2154SOL    HW1 7678   1.947   5.089   1.464 -1.6064  0.6304  0.5380
 2154SOL    HW2 7679   2.027   4.994   1.550  0.3401  1.0569 -0.7255
 2155SOL     OW 7680   0.839   5.353   1.245 -0.8192  0.1756  0.4831
 2155SOL    HW1 7681   0.843   5.265   1.280  0.1906 -0.1238 -0.3229
 2155SOL    HW2 7682   0.746   5.375   1.245 -0.9205 -0.1437  2.4498
 2156SOL     OW 7683   1.267   5.347   1.369  0.0697 -0.1616  0.1549
 2156SOL    HW1 7684   1.203   5.281   1.342  0.0969  0.3705 -1.3267
 2156SOL    HW2 7685   1.352   5.302   1.364  0.0797 -0.0750 -0.7634
 2157SOL     OW 7686   1.108   5.182   1.208  0.1923  0.1399 -0.3016
 2157SOL    HW1 7687   1.034   5.134   1.246  0.7721  1.0122  2.0953
 2157SOL    HW2 7688   1.152   5.118   1.153 -2.3007 -0.4151 -1.8347
 2158SOL     OW 7689   1.497   5.090   0.974  0.1462  0.5670 -0.2108
 2158SOL    HW1 7690   1.530   5.179   0.970  1.4751  0.1218 -4.3493
 2158SOL    HW2 7691   1.567   5.039   1.015  0.9876  0.9111 -1.2001
 2159SOL     OW 7692   1.081   4.199   1.180  0.0467  0.3898  0.1570
 2159SOL    HW1 7693   1.049   4.266   1.239  1.0950  1.0928 -0.0357
 2159SOL    HW2 7694   1.003   4.159   1.143 -0.6057  1.8735 -0.1235
 2160SOL     OW 7695   1.102   4.500   1.669  0.0825  0.2291 -0.3717
 2160SOL    HW1 7696   1.093   4.420   1.720  1.5896 -0.2411 -0.7990
 2160SOL    HW2 7697   1.024   4.551   1.691 -1.6008 -1.8847 -1.0746
 2161SOL     OW 7698   0.309   4.809   0.177 -0.1939 -1.0145 -0.6172
 2161SOL    HW1 7699   0.371   4.739   0.157 -0.4775 -1.1561 -0.9973
 2161SOL    HW2 7700   0.228   4.783   0.133  0.6059  1.1725 -3.7287
 2162SOL     OW 7701   0.385   4.029   1.572 -0.2883 -0.2071 -0.4716
 2162SOL    HW1 7702   0.475   4.059   1.586  0.2091 -2.1807  1.0526
 2162SOL    HW2 7703   0.338   4.106   1.541  1.7603  1.0556 -0.6196
 2163SOL     OW 7704   1.689   3.994   1.615  0.1613  0.0923  0.0603
 2163SOL    HW1 7705   1.741   4.069   1.585  0.7953 -0.7996 -1.1412
 2163SOL    HW2 7706   1.699   3.929   1.546  0.3792 -1.4694  1.4991
 2164SOL     OW 7707   0.509   5.130   1.206 -0.6661 -0.3194  0.0904
 2164SOL    HW1 7708   0.459   5.142   1.286 -0.7856 -0.6158  0.0604
 2164SOL    HW2 7709   0.507   5.215   1.163 -2.4834 -0.7219 -0.6844
 2165SOL     OW 7710   8.613   4.733   0.191 -0.1555 -0.5870 -0.1003
 2165SOL    HW1 7711   8.658   4.684   0.122 -1.1574 -1.5285 -0.1022
 2165SOL    HW2 7712   8.658   4.708   0.272  0.7187  0.1627 -0.3329
 2166SOL     OW 7713   0.515   4.054   0.455 -0.6483  1.0821 -0.6150
 2166SOL    HW1 7714   0.576   4.127   0.450 -1.1361  1.6291  0.8820
 2166SOL    HW2 7715   0.539   3.998   0.381  0.7701  1.9474 -0.8573
 2167SOL     OW 7716   1.693   5.123   0.657 -0.3306  0.4379 -0.0630
 2167SOL    HW1 7717   1.763   5.128   0.592  0.2882  0.3781  0.5862
 2167SOL    HW2 7718   1.710   5.196   0.717  0.8107 -1.1768  1.6788
 2168SOL     OW 7719   0.957   5.508   1.073 -0.5470  0.3088  0.1846
 2168SOL    HW1 7720   0.880   5.556   1.045 -1.1744 -0.7738 -0.0131
 2168SOL    HW2 7721   0.923   5.439   1.131  0.4434  0.8398  1.4566
 2169SOL     OW 7722   1.182   4.151   0.379  0.0652  0.5247 -0.2017
 2169SOL    HW1 7723   1.206   4.238   0.412 -0.1931  0.8179 -0.7622
 2169SOL    HW2 7724   1.256   4.095   0.402  0.1393  0.8494  0.3545
 2170SOL     OW 7725   0.361   4.907   1.046  0.1991  0.8254 -0.1037
 2170SOL    HW1 7726   0.412   4.927   1.124 -2.5668 -2.2305  2.7490
 2170SOL    HW2 7727   0.303   4.982   1.035 -1.1235  0.2592  2.4438
 2171SOL     OW 7728   0.869   4.665   1.662  0.2860  0.0020  0.7305
 2171SOL    HW1 7729   0.786   4.619   1.677  0.6737 -1.5846 -1.4105
 2171SOL    HW2 7730   0.851   4.721   1.587  0.5604  1.4244  1.6975
 2172SOL     OW 7731   1.775   4.625   1.541 -0.3252 -0.0843 -0.0003
 2172SOL    HW1 7732   1.771   4.530   1.536  1.5016 -0.1502 -3.0333
 2172SOL    HW2 7733   1.853   4.644   1.593  0.5561 -0.3586 -1.1726
 2173SOL     OW 7734   0.850   3.793   1.097 -0.3079  0.0634  0.0717
 2173SOL    HW1 7735   0.844   3.884   1.128 -2.0887 -0.1090  0.3559
 2173SOL    HW2 7736   0.790   3.745   1.153 -0.9510 -0.8991 -1.3885
 2174SOL     OW 7737   0.398   3.799   1.165  0.2766  0.3866 -0.3598
 2174SOL    HW1 7738   0.473   3.845   1.128  0.6398 -0.0019 -0.1080
 2174SOL    HW2 7739   0.410   3.804   1.259  0.9017 -1.1555 -0.3304
 2175SOL     OW 7740   0.873   4.616   0.945  0.1515 -0.1894  0.0962
 2175SOL    HW1 7741   0.926   4.688   0.912 -1.6758  1.1429 -0.0888
 2175SOL    HW2 7742   0.787   4.656   0.964 -0.7029 -2.1675  0.6485
 2176SOL     OW 7743   1.704   4.551   1.163 -0.1719 -0.0329  0.0496
 2176SOL    HW1 7744   1.800   4.559   1.158  0.0189 -1.7166  0.5512
 2176SOL    HW2 7745   1.686   4.459   1.142 -1.8997  0.7873 -2.5697
 2177SOL     OW 7746   1.313   4.381   0.086  0.1284  0.2094  0.2915
 2177SOL    HW1 7747   1.290   4.373   0.179 -0.4186 -1.7008  0.0253
 2177SOL    HW2 7748   1.409   4.376   0.085  0.0817 -1.9548  0.6469
 2178SOL     OW 7749   0.130   3.864   1.202 -0.0145 -0.7818 -0.2084
 2178SOL    HW1 7750   0.211   3.902   1.235 -0.0124 -1.1743  0.2376
 2178SOL    HW2 7751   0.155   3.819   1.121  0.0423 -0.1157 -0.5690
 2179SOL     OW 7752   0.073   4.807   1.261  0.0651 -0.5247 -0.8650
 2179SOL    HW1 7753   0.048   4.737   1.321 -1.5058 -0.7293 -1.6756
 2179SOL    HW2 7754   0.150   4.847   1.300  0.8749 -2.5542 -0.2642
 2180SOL     OW 7755   0.616   4.143   0.832 -0.5934 -0.2960 -0.1034
 2180SOL    HW1 7756   0.643   4.232   0.811  0.0020  0.0079  1.8091
 2180SOL    HW2 7757   0.694   4.090   0.819 -1.1465 -0.7202 -2.0142
 2181SOL     OW 7758   1.644   5.053   2.155  0.1822 -0.1549  0.8103
 2181SOL    HW1 7759   1.708   4.993   2.117 -1.9614 -1.7949 -0.4465
 2181SOL    HW2 7760   1.574   4.996   2.186 -0.4685  1.5356  2.6313
 2182SOL     OW 7761   0.111   4.408   0.587 -0.2976  0.1049 -0.3261
 2182SOL    HW1 7762   0.176   4.435   0.652 -0.7624 -1.7390  0.9860
 2182SOL    HW2 7763   0.150   4.332   0.544 -1.6538 -1.2477  0.7309
 2183SOL     OW 7764   1.519   4.714   0.238 -0.2050 -0.2919 -0.0017
 2183SOL    HW1 7765   1.573   4.713   0.160 -1.3371  0.0393 -0.8207
 2183SOL    HW2 7766   1.434   4.680   0.209 -0.9783  0.8631  0.8045
 2184SOL     OW 7767   1.008   4.369   0.672 -0.1401 -0.1707 -0.4257
 2184SOL    HW1 7768   1.081   4.429   0.657 -1.3403  1.1846 -1.0585
 2184SOL    HW2 7769   1.050   4.286   0.695  1.7095 -0.1045 -3.0518
 2185SOL     OW 7770   1.041   5.085   1.941 -0.4919  0.6138  0.4713
 2185SOL    HW1 7771   0.947   5.071   1.931 -0.5725  0.7139  1.0221
 2185SOL    HW2 7772   1.061   5.050   2.028  0.3985 -1.4164 -0.4900
 2186SOL     OW 7773   1.863   5.303   1.853 -0.6267 -0.0765 -0.8958
 2186SOL    HW1 7774   1.917   5.375   1.886  1.6421 -2.1140  0.2044
 2186SOL    HW2 7775   1.780   5.312   1.899 -0.5760  2.0564 -1.1282
 2187SOL     OW 7776   0.991   4.817   1.856 -0.0101  0.4200  0.5837
 2187SOL    HW1 7777   1.056   4.868   1.806  0.1161 -0.5028 -0.2481
 2187SOL    HW2 7778   0.951   4.760   1.790 -0.3374 -0.3487  1.4324
 2188SOL     OW 7779   1.796   4.291   0.305 -0.1722 -0.2573  0.3778
 2188SOL    HW1 7780   1.827   4.285   0.215 -1.1368 -1.6459  0.0982
 2188SOL    HW2 7781   1.875   4.289   0.358  0.3506 -0.8061 -0.4016
 2189SOL     OW 7782   1.229   4.649   0.141  0.7637  0.2978  0.1592
 2189SOL    HW1 7783   1.217   4.695   0.057 -1.7633  1.5685  1.1044
 2189SOL    HW2 7784   1.182   4.567   0.130  2.7123 -0.7934 -0.4998
 2190SOL     OW 7785   1.199   5.239   0.447  0.1376  0.2022 -0.2363
 2190SOL    HW1 7786   1.170   5.157   0.408  0.1605  0.3245 -0.5174
 2190SOL    HW2 7787   1.295   5.231   0.452  0.1932  0.4497 -0.8220
 2191SOL     OW 7788   0.503   4.606   1.118  0.5974  0.5272 -0.3315
 2191SOL    HW1 7789   0.556   4.649   1.051 -0.8950  1.1105 -1.2065
 2191SOL    HW2 7790   0.506   4.666   1.193  0.5910  0.9086 -0.6354
 2192SOL     OW 7791   0.513   3.909   0.688 -0.4612  0.1708  0.5706
 2192SOL    HW1 7792   0.497   3.977   0.622 -1.5981 -1.2084 -0.6366
 2192SOL    HW2 7793   0.527   3.958   0.769  2.1493  1.9978 -0.8285
 2193SOL     OW 7794   1.178   3.842   1.594 -0.4656  0.5203 -0.2290
 2193SOL    HW1 7795   1.202   3.930   1.564  0.0894  0.8566  1.1344
 2193SOL    HW2 7796   1.166   3.851   1.689  2.8262 -1.5105  0.5499
 2194SOL     OW 7797   1.463   3.712   1.400 -0.1422  0.1369  0.6592
 2194SOL    HW1 7798   1.463   3.678   1.490  0.3079  1.4967  1.1954
 2194SOL    HW2 7799   1.536   3.774   1.398 -1.4306  1.6714 -0.0458
 2195SOL     OW 7800   8.729   5.187   8.712  0.4816  0.0161 -0.0347
 2195SOL    HW1 7801   8.747   5.171   8.619  1.7738  1.3344 -0.0576
 2195SOL    HW2 7802   8.716   5.100   8.750 -2.3186 -0.4841 -1.8154
 2196SOL     OW 7803   0.142   5.608   1.103 -0.0318  0.3183 -0.0752
 2196SOL    HW1 7804   0.134   5.519   1.069  1.0705  0.7673 -1.6502
 2196SOL    HW2 7805   0.227   5.608   1.147 -1.0562 -0.0063  1.9859
 2197SOL     OW 7806   0.675   5.000   1.036  0.1343  0.2859  0.0256
 2197SOL    HW1 7807   0.752   5.057   1.034  0.0396  0.4286  0.3338
 2197SOL    HW2 7808   0.603   5.057   1.065 -0.0834  0.1486 -0.2373
 2198SOL     OW 7809   0.832   4.349   0.906  0.4333  0.2866 -0.4069
 2198SOL    HW1 7810   0.827   4.444   0.917  1.9598  0.3049  0.3098
 2198SOL    HW2 7811   0.886   4.336   0.828  0.2998  0.0002 -0.4561
 2199SOL     OW 7812   8.818   4.279   1.249  0.6155  0.4761 -0.3572
 2199SOL    HW1 7813   8.764   4.357   1.263  1.8783  1.4266 -0.5594
 2199SOL    HW2 7814   8.756   4.207   1.244 -0.9094  1.8130 -3.0616
 2200SOL     OW 7815   0.714   4.475   1.389  0.7511 -0.5130 -0.3053
 2200SOL    HW1 7816   0.651   4.547   1.381  1.2274 -0.2106 -1.5018
 2200SOL    HW2 7817   0.704   4.444   1.479  0.1738  0.7140  0.0671
 2201SOL     OW 7818   1.574   4.302   1.474 -0.4109 -0.6793 -0.0774
 2201SOL    HW1 7819   1.663   4.333   1.457 -0.5790  0.3093  0.7319
 2201SOL    HW2 7820   1.537   4.285   1.387 -0.2885  1.3741 -0.5702
 2202SOL     OW 7821   0.573   4.772   0.398  0.2666  0.2946  0.4130
 2202SOL    HW1 7822   0.492   4.721   0.390  0.5615 -0.1278  0.0416
 2202SOL    HW2 7823   0.551   4.858   0.362 -0.0397  0.2091  0.3905
 2203SOL     OW 7824   1.229   4.393   1.076  0.5170 -0.5951 -0.7808
 2203SOL    HW1 7825   1.195   4.450   1.145  2.1620 -0.8109  0.2765
 2203SOL    HW2 7826   1.189   4.308   1.093 -1.0838 -0.0624 -1.6904
 2204SOL     OW 7827   8.651   5.345   1.856  0.3601 -0.0415  0.5744
 2204SOL    HW1 7828   8.636   5.251   1.846  0.0478  0.1276 -0.6351
 2204SOL    HW2 7829   8.626   5.383   1.772  0.5382  1.1237  1.0266
 2205SOL     OW 7830   0.834   3.969   0.851  0.3079 -0.6063  0.7560
 2205SOL    HW1 7831   0.814   3.876   0.857 -1.5340 -0.3908 -1.0468
 2205SOL    HW2 7832   0.903   3.975   0.785 -1.0953 -0.5722 -0.7584
 2206SOL     OW 7833   0.651   5.048   1.525 -0.5554 -0.4526  0.3984
 2206SOL    HW1 7834   0.610   4.992   1.591 -0.8364  0.4618  1.0197
 2206SOL    HW2 7835   0.580   5.106   1.495  0.3151  1.4522  1.8044
 2207SOL     OW 7836   0.581   4.341   0.643  0.1068  0.0877 -0.0163
 2207SOL    HW1 7837   0.524   4.344   0.567  0.8763 -0.7838 -0.6516
 2207SOL    HW2 7838   0.659   4.391   0.616  0.1195  0.3076  0.4238
 2208SOL     OW 7839   0.282   4.493   0.821 -0.3720 -0.2358 -0.0733
 2208SOL    HW1 7840   0.306   4.402   0.834  2.2603  0.4582  0.4264
 2208SOL    HW2 7841   0.264   4.527   0.908  0.6233  0.1897 -0.0188
 2209SOL     OW 7842   1.426   4.699   1.245 -0.4308  0.3692 -0.6835
 2209SOL    HW1 7843   1.521   4.696   1.234 -0.3403 -3.2865 -0.1834
 2209SOL    HW2 7844   1.413   4.753   1.323  1.3166  0.1392 -0.1739
 2210SOL     OW 7845   1.275   4.400   0.339 -0.4091 -0.1760 -0.7529
 2210SOL    HW1 7846   1.365   4.434   0.336 -0.0789 -1.0274 -2.9988
 2210SOL    HW2 7847   1.227   4.463   0.393  1.0097  1.6641 -1.5040
 2211SOL     OW 7848   1.903   5.224   1.350  0.0511 -0.1796 -0.6469
 2211SOL    HW1 7849   1.914   5.218   1.255 -0.6403  1.3580 -0.8592
 2211SOL    HW2 7850   1.808   5.229   1.362  0.1773  0.6232  0.0541
 2212SOL     OW 7851   1.143   5.456   0.864  0.0951  0.7929  0.4489
 2212SOL    HW1 7852   1.086   5.423   0.795  0.9411 -1.9626  0.9136
 2212SOL    HW2 7853   1.083   5.488   0.931 -1.0108 -1.7487  0.7995
 2213SOL     OW 7854   8.814   5.226   0.850 -0.0170  0.2423  0.3046
 2213SOL    HW1 7855   8.836   5.145   0.804  0.2392 -0.0499  0.9215
 2213SOL    HW2 7856   8.782   5.197   0.935 -0.1246  0.7841  0.4528
 2214SOL     OW 7857   0.562   5.477   1.288  0.5533 -0.2717  0.2604
 2214SOL    HW1 7858   0.584   5.564   1.255  0.5081 -0.5676 -0.5863
 2214SOL    HW2 7859   0.516   5.435   1.215 -0.6171 -0.5461  1.1282
 2215SOL     OW 7860   1.050   4.487   8.335  0.2470 -0.3883 -0.0334
 2215SOL    HW1 7861   1.064   4.395   8.360 -0.6350 -0.7369 -0.7937
 2215SOL    HW2 7862   0.955   4.497   8.333  0.3270  0.2836 -0.8665
 2216SOL     OW 7863   1.845   3.948   0.323 -0.4274  0.0307  0.7849
 2216SOL    HW1 7864   1.931   3.970   0.357  0.9121 -1.6575 -1.2562
 2216SOL    HW2 7865   1.844   3.983   0.234 -1.9492  0.2248  0.8472
 2217SOL     OW 7866   1.522   5.384   1.030  0.2217 -0.5601 -0.3623
 2217SOL    HW1 7867   1.587   5.428   1.085  1.6948 -0.0790 -2.3493
 2217SOL    HW2 7868   1.444   5.439   1.035  0.4351 -0.3455  0.9296
 2218SOL     OW 7869   0.131   5.096   1.867  0.2008 -0.5703 -0.3050
 2218SOL    HW1 7870   0.052   5.043   1.878 -0.4576  0.3427 -0.4588
 2218SOL    HW2 7871   0.128   5.159   1.939  0.4231 -0.0954 -0.7010
 2219SOL     OW 7872   1.351   4.977   0.708  0.0138 -0.0264 -0.2155
 2219SOL    HW1 7873   1.439   4.965   0.743 -0.6018  0.2585  1.5327
 2219SOL    HW2 7874   1.347   4.920   0.631  1.7669  0.0974 -0.4211
 2220SOL     OW 7875   1.019   4.606   1.181  0.0179  0.1964  0.2956
 2220SOL    HW1 7876   0.991   4.532   1.235  0.1763 -0.5360 -0.5947
 2220SOL    HW2 7877   0.962   4.603   1.104 -0.0694  1.0900  0.3176
 2221SOL     OW 7878   1.015   4.790   0.223 -0.4057 -0.3412  0.1636
 2221SOL    HW1 7879   0.986   4.792   0.132  0.0873 -0.8804 -0.0104
 2221SOL    HW2 7880   1.094   4.736   0.222 -0.8287 -0.9958  1.0371
 2222SOL     OW 7881   1.639   5.285   1.394 -0.0979  0.1739  0.3157
 2222SOL    HW1 7882   1.573   5.223   1.362  0.2672  0.5850 -1.3517
 2222SOL    HW2 7883   1.602   5.371   1.372  0.1050  0.4977  1.1985
 2223SOL     OW 7884   1.678   4.278   1.107  0.0533  0.0961  0.1264
 2223SOL    HW1 7885   1.765   4.275   1.068  0.2229 -0.1709  0.5093
 2223SOL    HW2 7886   1.648   4.187   1.106  1.0299 -0.3384  2.7034
 2224SOL     OW 7887   0.376   4.240   0.919 -0.0375 -0.3356 -0.0292
 2224SOL    HW1 7888   0.393   4.230   1.012 -0.1458  0.3931  0.0782
 2224SOL    HW2 7889   0.463   4.238   0.879  0.0124 -0.6088  0.0915
 2225SOL     OW 7890   1.620   5.249   0.149 -0.0768 -0.4177 -0.3080
 2225SOL    HW1 7891   1.557   5.301   0.199  2.2193  0.8551  1.5017
 2225SOL    HW2 7892   1.600   5.158   0.172 -2.3848 -0.2061 -1.2929
 2226SOL     OW 7893   1.058   4.841   0.878  0.2514 -0.1701  0.5549
 2226SOL    HW1 7894   1.039   4.931   0.852  0.1202 -0.2449  0.3869
 2226SOL    HW2 7895   1.141   4.846   0.926  1.2269 -0.2210 -1.0649
 2227SOL     OW 7896   1.195   4.848   0.478  0.4280 -0.1934  0.3520
 2227SOL    HW1 7897   1.121   4.806   0.522  0.1398 -1.3811 -1.1875
 2227SOL    HW2 7898   1.155   4.915   0.423  0.6282  0.1457  0.6199
 2228SOL     OW 7899   1.986   5.517   0.071  0.1116 -0.0501 -0.0822
 2228SOL    HW1 7900   2.045   5.473   0.010 -0.5193 -1.4233  0.2705
 2228SOL    HW2 7901   2.018   5.607   0.074 -0.9202  0.6024 -3.8151
 2229SOL     OW 7902   0.602   4.839   1.249  0.4355  0.0295 -0.7960
 2229SOL    HW1 7903   0.594   4.931   1.273 -1.3168 -0.3499  0.3036
 2229SOL    HW2 7904   0.665   4.837   1.178  2.1194  1.8393  0.5419
 2230SOL     OW 7905   1.640   4.965   1.219  0.1077 -0.5199 -0.2405
 2230SOL    HW1 7906   1.701   4.957   1.145  0.4352 -0.6406  0.0440
 2230SOL    HW2 7907   1.678   4.911   1.288  0.0376 -0.0364  0.1756
 2231SOL     OW 7908   0.773   4.610   0.289  0.1912 -0.0377 -0.3109
 2231SOL    HW1 7909   0.747   4.697   0.320 -2.2995 -0.3579 -1.2793
 2231SOL    HW2 7910   0.811   4.568   0.366  0.7337  1.6254  0.3789
 2232SOL     OW 7911   0.984   3.970   0.617  0.4988 -0.4024  0.1243
 2232SOL    HW1 7912   1.052   3.903   0.628  0.0192 -1.0503 -0.7269
 2232SOL    HW2 7913   0.941   3.947   0.535 -1.1295 -0.3369  0.9141
 2233SOL     OW 7914   0.085   5.530   0.071  0.3059 -0.3403  0.0633
 2233SOL    HW1 7915   0.067   5.585   0.147  0.0550  0.5912 -0.6562
 2233SOL    HW2 7916   0.173   5.554   0.044  0.2217 -0.3320 -0.2114
 2234SOL     OW 7917   2.059   4.583   1.200  0.0510 -0.1209 -0.0690
 2234SOL    HW1 7918   2.130   4.533   1.240 -1.8214 -1.5549  1.6856
 2234SOL    HW2 7919   2.073   4.575   1.106  3.2038  1.2352  0.1599
 2235SOL     OW 7920   0.428   5.029   0.281  0.3971 -0.3604  0.7652
 2235SOL    HW1 7921   0.474   5.070   0.208  1.3302  0.5131  1.8104
 2235SOL    HW2 7922   0.383   4.954   0.242  0.4141  0.4007 -0.7959
 2236SOL     OW 7923   0.084   4.748   1.751 -0.2125 -0.3963  0.2080
 2236SOL    HW1 7924   0.045   4.663   1.732  2.3490 -1.8778  1.0882
 2236SOL    HW2 7925   0.027   4.786   1.818 -0.2338 -2.4024  1.3994
 2237SOL     OW 7926   0.683   3.708   1.307  0.6068 -0.4100  0.0903
 2237SOL    HW1 7927   0.651   3.619   1.292  0.2054 -0.7263  2.5167
 2237SOL    HW2 7928   0.605   3.757   1.335  1.2717  0.1180  1.0405
 2238SOL     OW 7929   0.313   4.304   8.365 -0.3187 -0.4808  0.3269
 2238SOL    HW1 7930   0.340   4.246   8.294  1.1742 -0.2703  0.6886
 2238SOL    HW2 7931   0.251   4.252   8.416  1.1828 -1.8916  0.7965
 2239SOL     OW 7932   1.192   5.030   1.516 -0.3775  0.7313 -0.2240
 2239SOL    HW1 7933   1.256   4.970   1.479  0.7053  2.4238 -1.2410
 2239SOL    HW2 7934   1.236   5.115   1.518 -1.0752  1.1664  3.1614
 2240SOL     OW 7935   8.757   3.998   0.295 -1.2111 -0.3992  0.1796
 2240SOL    HW1 7936   8.683   3.952   0.334 -1.9695 -0.8811 -1.7142
 2240SOL    HW2 7937   8.758   4.083   0.339 -1.4788 -1.2075  1.8030
 2241SOL     OW 7938   1.475   5.126   0.481 -0.0588 -0.0518  0.2451
 2241SOL    HW1 7939   1.524   5.049   0.510 -0.5093 -0.1702  0.7092
 2241SOL    HW2 7940   1.456   5.174   0.562 -0.5514  0.0816  0.0534
 2242SOL     OW 7941   0.525   4.342   1.139 -0.1480  0.4974 -0.2676
 2242SOL    HW1 7942   0.523   4.435   1.115 -2.2263  0.6964  0.3918
 2242SOL    HW2 7943   0.597   4.334   1.202  1.8268  1.0557 -2.3431
 2243SOL     OW 7944   2.104   5.574   0.850  0.5146 -0.5380 -0.0457
 2243SOL    HW1 7945   2.049   5.645   0.883  1.8868  0.9497 -0.8442
 2243SOL    HW2 7946   2.066   5.552   0.765  0.2995 -0.5233  0.0455
 2244SOL     OW 7947   0.631   4.127   1.562  0.6090  0.2275 -0.8087
 2244SOL    HW1 7948   0.674   4.192   1.618 -1.1145  0.4869  0.3210
 2244SOL    HW2 7949   0.645   4.159   1.473 -0.7827  2.6300 -0.2740
 2245SOL     OW 7950   1.411   4.829   1.472  0.4134  0.0041 -0.4874
 2245SOL    HW1 7951   1.492   4.877   1.486  0.2496  0.2165 -0.2509
 2245SOL    HW2 7952   1.397   4.782   1.554  1.3355 -1.6139 -1.2117
 2246SOL     OW 7953   0.349   5.701   1.330  0.2627  0.5877 -0.2125
 2246SOL    HW1 7954   0.395   5.771   1.375 -0.1523  0.1613  0.9330
 2246SOL    HW2 7955   0.396   5.690   1.247  0.0997  2.4466 -0.5860
 2247SOL     OW 7956   1.966   4.850   1.250  0.1698 -0.1496 -0.1385
 2247SOL    HW1 7957   1.971   4.756   1.229 -0.2514  0.0338 -1.1265
 2247SOL    HW2 7958   1.917   4.888   1.177 -0.6759  0.6682  0.8290
 2248SOL     OW 7959   1.143   3.921   0.254 -0.5286 -0.2290 -0.1245
 2248SOL    HW1 7960   1.231   3.921   0.218 -0.6863 -0.2045 -0.5155
 2248SOL    HW2 7961   1.138   4.000   0.307 -1.7479  2.2722 -3.6512
 2249SOL     OW 7962   0.398   4.729   0.719 -0.3560  0.0134 -0.1581
 2249SOL    HW1 7963   0.380   4.688   0.634  0.6546 -1.1781  0.1706
 2249SOL    HW2 7964   0.392   4.657   0.782  0.9586  0.4664  0.5094
 2250SOL     OW 7965   1.845   4.321   1.733 -0.4097  0.1317 -0.3820
 2250SOL    HW1 7966   1.851   4.276   1.649  1.9783  0.0087 -0.2124
 2250SOL    HW2 7967   1.861   4.413   1.712  1.3278 -0.0413  0.0031
 2251SOL     OW 7968   2.263   4.500   1.572 -0.4603  0.5472  0.5818
 2251SOL    HW1 7969   2.297   4.493   1.483 -2.2564 -0.1388 -0.0824
 2251SOL    HW2 7970   2.272   4.412   1.609  1.5971  1.1178  1.6584
 2252SOL     OW 7971   1.101   5.045   0.280  0.5783 -0.0241  0.3007
 2252SOL    HW1 7972   1.066   4.965   0.243 -3.2166  1.0851  1.1132
 2252SOL    HW2 7973   1.132   5.095   0.204  0.3462 -1.0705 -0.4936
 2253SOL     OW 7974   0.567   5.349   0.592 -0.7787  0.2075  0.3873
 2253SOL    HW1 7975   0.614   5.311   0.666 -1.6900 -1.0831  0.3328
 2253SOL    HW2 7976   0.506   5.281   0.565 -1.7529  1.3425 -0.3755
 2254SOL     OW 7977   0.540   4.662   0.144 -0.3743  0.0411 -0.2668
 2254SOL    HW1 7978   0.532   4.570   0.117 -0.1617  0.1163 -0.5901
 2254SOL    HW2 7979   0.621   4.665   0.195  1.8573  0.7869 -3.5324
 2255SOL     OW 7980   1.485   5.018   0.221  0.1127 -0.1094 -0.6824
 2255SOL    HW1 7981   1.458   5.058   0.304  0.6567  1.2866 -1.1532
 2255SOL    HW2 7982   1.504   4.927   0.243  1.0741  0.4394  0.9032
 2256SOL     OW 7983   1.834   4.952   1.027  0.1320  0.4886  0.1962
 2256SOL    HW1 7984   1.821   4.870   0.979 -0.2957  0.3292  0.5780
 2256SOL    HW2 7985   1.894   5.002   0.972 -0.6617  0.4765 -0.7045
 2257SOL     OW 7986   0.783   5.060   1.874  0.0963 -0.0442  0.2241
 2257SOL    HW1 7987   0.716   5.002   1.837  0.7608  0.2062 -1.4709
 2257SOL    HW2 7988   0.740   5.103   1.947 -1.1326 -0.9676  0.0802
 2258SOL     OW 7989   0.061   4.969   0.756 -0.1470  0.2408 -0.2600
 2258SOL    HW1 7990   0.097   4.967   0.667 -0.1250 -0.2743 -0.2404
 2258SOL    HW2 7991   0.091   4.888   0.796  0.0441  0.5870  0.3007
 2259SOL     OW 7992   0.429   5.183   1.449  0.5689 -0.4404  0.5695
 2259SOL    HW1 7993   0.479   5.263   1.466  1.4690 -1.2787  2.1844
 2259SOL    HW2 7994   0.373   5.173   1.526 -1.1561 -0.2555 -0.6016
 2260SOL     OW 7995   1.838   4.332   1.452  0.7211  0.1119 -0.6850
 2260SOL    HW1 7996   1.838   4.240   1.425  0.5510  0.3888 -1.6797
 2260SOL    HW2 7997   1.904   4.374   1.397  0.6400  0.6298 -0.3980
 2261SOL     OW 7998   0.340   4.456   0.302  0.0728  0.5734  0.8075
 2261SOL    HW1 7999   0.404   4.451   0.230  0.2083  1.6157  0.8480
 2261SOL    HW2 8000   0.335   4.366   0.335  0.9599  0.3289  0.3156
 2262SOL     OW 8001   1.214   5.530   1.152 -0.5186 -0.3435  0.1365
 2262SOL    HW1 8002   1.128   5.510   1.116 -0.4984 -0.9424  0.4061
 2262SOL    HW2 8003   1.230   5.461   1.217  0.2091 -0.3060  0.0131
 2263SOL     OW 8004   0.370   4.127   1.224  0.2786 -0.2001 -0.1783
 2263SOL    HW1 8005   0.401   4.213   1.196 -0.9964  0.1143 -0.6954
 2263SOL    HW2 8006   0.439   4.067   1.195  0.4343  0.4721 -1.2613
 2264SOL     OW 8007   0.697   5.251   0.812 -0.2675  0.3228  0.9041
 2264SOL    HW1 8008   0.792   5.252   0.826 -0.4445  1.3929  2.2527
 2264SOL    HW2 8009   0.669   5.164   0.840  0.3495 -0.1898  0.0117
 2265SOL     OW 8010   1.359   3.991   0.909 -0.2968 -0.4998  0.1719
 2265SOL    HW1 8011   1.308   4.000   0.990 -0.8460 -1.1052 -0.0981
 2265SOL    HW2 8012   1.392   3.901   0.912 -0.6728 -0.6676 -0.4686
 2266SOL     OW 8013   0.798   3.692   0.856 -0.1718 -0.4816  0.6111
 2266SOL    HW1 8014   0.809   3.695   0.951 -0.9490  0.5624  0.6765
 2266SOL    HW2 8015   0.817   3.601   0.833 -1.0170 -1.0103  1.8935
 2267SOL     OW 8016   1.223   4.549   0.585 -0.5234 -0.2154  0.0548
 2267SOL    HW1 8017   1.263   4.529   0.670 -0.9508 -0.3188  0.2327
 2267SOL    HW2 8018   1.142   4.594   0.607  0.4818  1.8922 -0.3350
 2268SOL     OW 8019   0.625   5.519   0.894  0.6078 -0.0765 -0.1757
 2268SOL    HW1 8020   0.666   5.441   0.857  1.2664  0.1644  0.0332
 2268SOL    HW2 8021   0.679   5.592   0.864  0.9788  0.1557  1.0005
 2269SOL     OW 8022   1.428   3.523   0.301 -0.1036  0.2653 -0.0340
 2269SOL    HW1 8023   1.484   3.600   0.303  0.6376 -0.2680  1.5146
 2269SOL    HW2 8024   1.339   3.557   0.288  0.4794  1.1610 -1.9392
 2270SOL     OW 8025   1.587   4.376   0.051  0.1152 -0.1936 -0.5155
 2270SOL    HW1 8026   1.619   4.338   0.133 -1.8817  1.8746  1.3622
 2270SOL    HW2 8027   1.663   4.419   0.013  0.6831  0.4533  1.2595
 2271SOL     OW 8028   1.586   4.023   0.693 -0.7793  0.0722  0.0928
 2271SOL    HW1 8029   1.503   4.065   0.715 -1.5613 -0.6799 -1.2717
 2271SOL    HW2 8030   1.563   3.931   0.681 -0.3208  0.2455 -2.9097
 2272SOL     OW 8031   0.105   5.091   0.249  0.3495  0.1262  0.3155
 2272SOL    HW1 8032   0.170   5.156   0.279 -1.3484  1.6116  0.9804
 2272SOL    HW2 8033   0.065   5.131   0.172  1.1743 -1.4378 -0.9867
 2273SOL     OW 8034   0.947   5.322   0.470 -0.2074 -0.2305  0.5360
 2273SOL    HW1 8035   1.043   5.323   0.467 -0.0530  2.0743  2.8797
 2273SOL    HW2 8036   0.921   5.307   0.379  2.3576 -0.4939 -0.2470
 2274SOL     OW 8037   0.249   4.407   1.581  0.2592 -0.4444  0.5398
 2274SOL    HW1 8038   0.194   4.394   1.658 -0.3538  1.2999  0.4451
 2274SOL    HW2 8039   0.227   4.334   1.523 -2.5874  0.5554  0.1934
 2275SOL     OW 8040   0.310   3.653   2.729 -0.1571 -0.2289  0.4298
 2275SOL    HW1 8041   0.230   3.602   2.718  1.4172 -2.9849  0.8228
 2275SOL    HW2 8042   0.343   3.628   2.815  0.6982  1.5638  0.6859
 2276SOL     OW 8043   8.740   3.724   1.987 -0.7717  0.2441  0.2905
 2276SOL    HW1 8044   8.787   3.803   2.014  0.1897 -0.6470  1.3207
 2276SOL    HW2 8045   8.706   3.687   2.069  0.4851 -1.4389  0.1090
 2277SOL     OW 8046   0.676   4.747   3.003  0.2147 -0.3035 -0.0755
 2277SOL    HW1 8047   0.653   4.792   2.921  0.3003 -0.0296  0.0473
 2277SOL    HW2 8048   0.756   4.699   2.982  1.3230  1.2614  0.3341
 2278SOL     OW 8049   1.864   5.416   2.325  0.1686 -0.6577  0.2949
 2278SOL    HW1 8050   1.782   5.381   2.289  0.1015 -1.6089  1.3255
 2278SOL    HW2 8051   1.925   5.342   2.319  0.6855 -0.2397  0.4030
 2279SOL     OW 8052   1.158   4.612   1.959  0.4361  0.0509 -0.0423
 2279SOL    HW1 8053   1.118   4.690   1.922 -0.0808 -0.8794 -1.5177
 2279SOL    HW2 8054   1.250   4.636   1.972  0.0991  1.1732  0.3713
 2280SOL     OW 8055   1.592   4.038   2.318 -0.1862 -0.1561  0.5827
 2280SOL    HW1 8056   1.626   4.120   2.355  0.9249 -1.2440  2.1039
 2280SOL    HW2 8057   1.522   4.066   2.260  0.8172  1.9424  0.2685
 2281SOL     OW 8058   0.893   4.606   2.917  0.1213 -0.7284  0.4772
 2281SOL    HW1 8059   0.918   4.533   2.861 -0.2038 -0.2445 -0.3137
 2281SOL    HW2 8060   0.967   4.667   2.911  0.7922 -1.3759  1.8446
 2282SOL     OW 8061   0.769   4.000   3.355  1.1479 -0.6402  0.0671
 2282SOL    HW1 8062   0.749   3.997   3.261  3.1029 -0.9470 -0.3857
 2282SOL    HW2 8063   0.831   4.073   3.363 -1.5674  1.7094  1.7203
 2283SOL     OW 8064   1.177   4.623   2.627 -0.7813 -0.1055 -0.0763
 2283SOL    HW1 8065   1.265   4.628   2.665 -0.2045  0.5039 -1.4185
 2283SOL    HW2 8066   1.121   4.597   2.699  0.4250  0.0254  0.9397
 2284SOL     OW 8067   1.012   5.137   3.669  0.4987  0.3260 -0.3005
 2284SOL    HW1 8068   0.940   5.103   3.722  1.7482 -2.3458 -0.1327
 2284SOL    HW2 8069   0.974   5.148   3.582 -0.1701 -0.9183 -0.1931
 2285SOL     OW 8070   0.197   4.634   2.850  0.4340  0.0872 -0.0406
 2285SOL    HW1 8071   0.165   4.611   2.763 -0.4300  2.8867 -0.5736
 2285SOL    HW2 8072   0.292   4.629   2.842  0.4229  1.4915 -1.5727
 2286SOL     OW 8073   1.287   5.166   3.656  0.4792 -0.1631 -0.2256
 2286SOL    HW1 8074   1.193   5.148   3.656  0.6672 -1.2465 -0.7157
 2286SOL    HW2 8075   1.309   5.181   3.564  0.3370  2.8047  0.1405
 2287SOL     OW 8076   0.864   4.193   2.921 -0.1152  0.2455 -0.0801
 2287SOL    HW1 8077   0.802   4.121   2.908 -0.1950 -0.0392  1.5933
 2287SOL    HW2 8078   0.824   4.247   2.989  0.4995  1.2132 -0.4729
 2288SOL     OW 8079   1.774   4.174   2.725 -0.0104  0.5797 -0.2328
 2288SOL    HW1 8080   1.846   4.154   2.665 -0.3872 -0.8954 -0.2244
 2288SOL    HW2 8081   1.814   4.232   2.791  1.7669 -1.8116  0.9415
 2289SOL     OW 8082   0.235   5.184   2.557 -0.8488 -0.2894  0.4272
 2289SOL    HW1 8083   0.297   5.129   2.508  0.7326  0.8713  1.0134
 2289SOL    HW2 8084   0.241   5.152   2.647 -0.0812  0.6573  0.7307
 2290SOL     OW 8085   0.843   4.992   3.868 -0.4045  0.2504 -0.2613
 2290SOL    HW1 8086   0.876   4.963   3.953 -1.7540  1.2532  0.6459
 2290SOL    HW2 8087   0.774   4.929   3.846 -1.6356  1.2799  0.5234
 2291SOL     OW 8088   0.531   4.788   2.463  0.1315  0.0243 -0.0437
 2291SOL    HW1 8089   0.591   4.775   2.536  1.9414  0.2367 -1.4286
 2291SOL    HW2 8090   0.562   4.728   2.395 -1.5921 -0.2811 -0.6141
 2292SOL     OW 8091   0.310   4.299   2.902 -0.1123 -0.2722  0.4894
 2292SOL    HW1 8092   0.356   4.375   2.866 -1.4000  0.1924 -0.2306
 2292SOL    HW2 8093   0.335   4.227   2.844 -1.3796  0.2688 -0.7765
 2293SOL     OW 8094   0.487   5.819   2.792  0.2728 -0.4503  0.3449
 2293SOL    HW1 8095   0.558   5.763   2.823  0.5491  0.6506  1.7596
 2293SOL    HW2 8096   0.531   5.886   2.739  0.0564 -0.9106 -0.4361
 2294SOL     OW 8097   0.578   4.467   2.093 -0.0768  0.1979  0.0660
 2294SOL    HW1 8098   0.531   4.395   2.136 -0.6370  0.2247 -0.4760
 2294SOL    HW2 8099   0.650   4.424   2.046 -2.1107 -0.4780 -2.7366
 2295SOL     OW 8100   1.674   3.761   3.543 -0.3001  0.3437  0.1109
 2295SOL    HW1 8101   1.682   3.797   3.454 -2.7559  1.9090  0.4418
 2295SOL    HW2 8102   1.739   3.811   3.594 -2.2369  3.0878  0.1299
 2296SOL     OW 8103   0.390   4.256   2.209 -0.4992 -0.0910  0.3013
 2296SOL    HW1 8104   0.354   4.341   2.232 -2.0947 -1.0934  1.7413
 2296SOL    HW2 8105   0.383   4.204   2.290  0.3512 -1.6276 -0.5566
 2297SOL     OW 8106   2.069   5.751   2.032 -0.4683  0.2381 -0.4181
 2297SOL    HW1 8107   1.991   5.805   2.022  0.5430  1.8451  0.0647
 2297SOL    HW2 8108   2.141   5.813   2.045  0.5848 -1.2492  1.3817
 2298SOL     OW 8109   0.234   5.308   2.266 -0.1828  0.4793 -0.3227
 2298SOL    HW1 8110   0.256   5.288   2.357  0.4660  0.4469 -0.4810
 2298SOL    HW2 8111   0.145   5.343   2.270 -0.1001  0.6283  0.3438
 2299SOL     OW 8112   1.719   4.685   2.271 -0.1621  0.2332 -0.0980
 2299SOL    HW1 8113   1.723   4.628   2.195 -0.8234  0.9376 -0.6781
 2299SOL    HW2 8114   1.629   4.716   2.272  0.0236  0.7629  0.5811
 2300SOL     OW 8115   1.969   4.976   2.500 -0.4787  0.2679 -0.0680
 2300SOL    HW1 8116   1.963   4.880   2.499 -0.3920  0.2574  0.2615
 2300SOL    HW2 8117   1.983   4.998   2.592  0.0279  0.5663 -0.2112
 2301SOL     OW 8118   0.579   4.215   3.476  0.4800  0.5390 -0.2240
 2301SOL    HW1 8119   0.514   4.234   3.408 -1.0609 -1.3055  0.6282
 2301SOL    HW2 8120   0.651   4.172   3.428 -0.1647  0.1076 -0.8355
 2302SOL     OW 8121   0.674   4.598   2.329 -0.2522 -0.3788  0.1235
 2302SOL    HW1 8122   0.641   4.570   2.244  0.7948  0.0831 -0.4536
 2302SOL    HW2 8123   0.759   4.555   2.337  0.3336  0.7670  0.2540
 2303SOL     OW 8124   1.378   4.871   3.166 -0.6559  0.0807 -0.4165
 2303SOL    HW1 8125   1.386   4.875   3.071 -2.4819  2.1957 -0.5479
 2303SOL    HW2 8126   1.295   4.825   3.181 -1.1223  1.0745  0.0977
 2304SOL     OW 8127   0.853   3.829   2.048  0.0615 -0.0998  0.6638
 2304SOL    HW1 8128   0.794   3.904   2.053  1.1100  0.6982  1.4408
 2304SOL    HW2 8129   0.820   3.778   1.974 -1.0246  0.8068  0.4887
 2305SOL     OW 8130   0.115   4.400   3.061  0.0480 -0.9016  0.3077
 2305SOL    HW1 8131   0.187   4.384   3.000  0.0197 -0.2041  0.0822
 2305SOL    HW2 8132   0.088   4.313   3.089  1.0662 -1.1691  0.5000
 2306SOL     OW 8133   1.657   4.687   1.902 -0.3658 -0.2681 -0.0634
 2306SOL    HW1 8134   1.735   4.729   1.865  0.0162  0.9980  2.0148
 2306SOL    HW2 8135   1.634   4.619   1.838  1.2413  0.6297 -1.7059
 2307SOL     OW 8136   1.024   5.799   3.919  0.5632 -0.3818  0.6229
 2307SOL    HW1 8137   1.020   5.852   3.840  1.1366 -2.0684 -0.5979
 2307SOL    HW2 8138   0.936   5.762   3.928  0.7771 -1.0271  0.1441
 2308SOL     OW 8139   0.216   3.172   3.611 -0.6646  0.4222 -0.3120
 2308SOL    HW1 8140   0.304   3.153   3.579 -1.0730 -0.3732 -0.9829
 2308SOL    HW2 8141   0.199   3.261   3.580 -0.6202  0.0797 -1.3593
 2309SOL     OW 8142   1.127   5.361   2.523  0.0338 -0.4444  0.2944
 2309SOL    HW1 8143   1.209   5.373   2.476 -0.4920 -0.3384 -0.6238
 2309SOL    HW2 8144   1.060   5.389   2.461 -0.8649 -2.6428  0.1888
 2310SOL     OW 8145   2.280   6.146   2.493  0.2878 -0.6128 -0.2952
 2310SOL    HW1 8146   2.251   6.068   2.540 -0.6217 -0.5408 -0.6993
 2310SOL    HW2 8147   2.375   6.142   2.496  0.3207  0.2178  2.8981
 2311SOL     OW 8148   0.892   4.418   1.892  0.0321  0.3355 -0.2286
 2311SOL    HW1 8149   0.930   4.493   1.939 -0.5382  0.3005  0.2928
 2311SOL    HW2 8150   0.897   4.345   1.955 -3.4664  0.9521  0.9771
 2312SOL     OW 8151   1.398   3.999   2.899 -0.0129 -0.4862  0.3831
 2312SOL    HW1 8152   1.304   4.014   2.887  0.3347  0.7290 -1.0377
 2312SOL    HW2 8153   1.413   3.912   2.862 -0.3936 -0.1875 -0.5049
 2313SOL     OW 8154   1.434   5.639   2.020 -0.0186 -0.3029  0.0627
 2313SOL    HW1 8155   1.421   5.586   2.099  0.6580 -2.2908 -1.1006
 2313SOL    HW2 8156   1.426   5.577   1.948  1.0784  1.1429 -1.3705
 2314SOL     OW 8157   0.725   4.253   3.173 -0.0618  0.2061 -0.0024
 2314SOL    HW1 8158   0.633   4.238   3.194 -1.1282  0.4791 -3.6937
 2314SOL    HW2 8159   0.744   4.340   3.208 -0.5699 -0.5707  2.3760
 2315SOL     OW 8160   1.438   3.617   3.549  0.5150 -0.6214  0.4260
 2315SOL    HW1 8161   1.379   3.671   3.602 -0.1520 -1.0028  0.0877
 2315SOL    HW2 8162   1.525   3.654   3.564  0.3072 -0.5941  1.6263
 2316SOL     OW 8163   0.877   4.462   3.296 -0.4499  0.2635  0.0889
 2316SOL    HW1 8164   0.875   4.510   3.379  1.7706 -0.5040  0.6348
 2316SOL    HW2 8165   0.914   4.524   3.234  1.0928 -0.2450  0.4741
 2317SOL     OW 8166   1.069   3.600   3.050  0.5586 -0.0308 -0.0036
 2317SOL    HW1 8167   1.124   3.561   2.981  0.3130  0.7969 -0.6762
 2317SOL    HW2 8168   1.110   3.571   3.132  0.8236 -1.0707 -0.4895
 2318SOL     OW 8169   1.182   4.340   2.038 -0.1448 -0.0875 -0.2367
 2318SOL    HW1 8170   1.184   4.398   2.114 -0.0283 -1.7810  1.1137
 2318SOL    HW2 8171   1.197   4.397   1.964  0.6106  1.5089  1.0900
 2319SOL     OW 8172   0.452   4.394   2.560 -0.0230 -0.4830 -0.5228
 2319SOL    HW1 8173   0.443   4.309   2.603 -1.2899  0.6794  1.6420
 2319SOL    HW2 8174   0.546   4.412   2.562  0.0127 -0.7165  1.3170
 2320SOL     OW 8175   8.847   5.571   3.250 -0.5042  0.0849  0.2954
 2320SOL    HW1 8176   8.813   5.637   3.189 -1.4865  0.2615  1.0150
 2320SOL    HW2 8177   8.920   5.531   3.203  0.0158  1.5734 -0.2183
 2321SOL     OW 8178   0.993   4.144   1.846 -0.2244  0.6400  0.0605
 2321SOL    HW1 8179   1.048   4.210   1.803  1.1655 -0.8345 -0.5022
 2321SOL    HW2 8180   1.055   4.084   1.887 -1.3840 -1.0855 -0.5998
 2322SOL     OW 8181   1.779   4.414   4.126 -0.0609  0.2935 -0.0584
 2322SOL    HW1 8182   1.799   4.343   4.065  0.8574  0.4520  0.0383
 2322SOL    HW2 8183   1.700   4.455   4.090  0.1934  0.0809 -0.8819
 2323SOL     OW 8184   1.476   4.729   2.588  0.4249  0.2673  0.0448
 2323SOL    HW1 8185   1.566   4.695   2.590  0.3952  0.1216  2.6775
 2323SOL    HW2 8186   1.486   4.823   2.608  0.0388  0.4297 -0.5153
 2324SOL     OW 8187   0.319   3.927   3.211 -0.1781  0.4512  0.0044
 2324SOL    HW1 8188   0.338   3.835   3.228  1.2508  0.8801  0.8200
 2324SOL    HW2 8189   0.392   3.958   3.158  0.8215  1.8042  2.0784
 2325SOL     OW 8190   1.158   5.071   2.599  0.2739  0.3284  0.1243
 2325SOL    HW1 8191   1.150   5.150   2.547 -0.9444  0.0144 -0.1896
 2325SOL    HW2 8192   1.249   5.044   2.588  0.4598  1.1913 -0.4811
 2326SOL     OW 8193   0.530   4.885   2.772  0.6400  0.1515  0.1778
 2326SOL    HW1 8194   0.554   4.897   2.680  1.5626 -1.5403  0.1586
 2326SOL    HW2 8195   0.435   4.891   2.773  0.4198 -2.0114 -1.3063
 2327SOL     OW 8196   2.047   4.549   2.710  0.0743 -0.3947  0.4716
 2327SOL    HW1 8197   2.121   4.494   2.736 -0.3496 -3.2410 -3.5219
 2327SOL    HW2 8198   2.084   4.637   2.703  2.1327 -1.0545  1.9999
 2328SOL     OW 8199   0.958   5.339   3.898  0.0708  0.0611 -0.2860
 2328SOL    HW1 8200   1.009   5.272   3.853 -0.7090 -0.1140 -0.9406
 2328SOL    HW2 8201   0.872   5.298   3.912 -0.1571  0.6402  0.0404
 2329SOL     OW 8202   0.496   4.439   1.736  0.6836  0.1062  0.2559
 2329SOL    HW1 8203   0.456   4.402   1.814  0.5573 -1.4349 -0.4832
 2329SOL    HW2 8204   0.422   4.454   1.676  1.0219 -1.6471 -0.6771
 2330SOL     OW 8205   1.726   4.632   2.655  0.3691  0.4476 -0.4003
 2330SOL    HW1 8206   1.768   4.637   2.741 -0.7296  0.7048  0.1436
 2330SOL    HW2 8207   1.791   4.591   2.598  1.5683  1.3813  0.2560
 2331SOL     OW 8208   0.230   5.205   3.590  0.1367  0.0993  0.2583
 2331SOL    HW1 8209   0.287   5.147   3.538 -0.1179  0.4310 -0.4072
 2331SOL    HW2 8210   0.187   5.146   3.652  2.4561  0.0577  1.9785
 2332SOL     OW 8211   1.175   5.608   2.267 -0.2195 -0.3847  0.0447
 2332SOL    HW1 8212   1.234   5.533   2.266  0.3831  0.0838 -1.2954
 2332SOL    HW2 8213   1.163   5.627   2.360  2.3935 -0.0041  0.3613
 2333SOL     OW 8214   8.781   3.713   3.461  0.0042 -0.0427 -0.1185
 2333SOL    HW1 8215   8.704   3.734   3.408 -0.2761 -1.6635 -0.3990
 2333SOL    HW2 8216   8.754   3.640   3.516  1.2769 -0.5362 -0.1092
 2334SOL     OW 8217   1.344   5.478   1.827  0.4917  0.3282 -0.0498
 2334SOL    HW1 8218   1.250   5.475   1.843  0.8751  0.3375  2.6726
 2334SOL    HW2 8219   1.352   5.491   1.733 -2.2156  0.4228 -0.3415
 2335SOL     OW 8220   0.688   5.101   2.134  0.1871 -0.3331 -0.1816
 2335SOL    HW1 8221   0.601   5.139   2.123  1.2038  2.3503  0.3614
 2335SOL    HW2 8222   0.706   5.108   2.228  0.7418 -1.5477 -0.1688
 2336SOL     OW 8223   1.628   3.980   2.606 -0.1401  0.5212  0.3198
 2336SOL    HW1 8224   1.623   4.027   2.523  2.2566  1.0122  0.3821
 2336SOL    HW2 8225   1.669   4.042   2.666 -2.1835  0.3164  2.0376
 2337SOL     OW 8226   0.210   5.459   2.878  0.1671 -0.7502  0.8255
 2337SOL    HW1 8227   0.187   5.416   2.960 -2.5971 -0.2801  0.3902
 2337SOL    HW2 8228   0.175   5.401   2.810 -0.7101  0.5473  0.1262
 2338SOL     OW 8229   0.816   5.252   3.100 -0.1803 -0.4198 -0.0873
 2338SOL    HW1 8230   0.846   5.200   3.174  0.1281 -2.3573 -1.4762
 2338SOL    HW2 8231   0.818   5.191   3.026 -2.8144  0.7038 -1.2375
 2339SOL     OW 8232   0.619   3.995   2.131 -0.4161  0.9476 -0.4850
 2339SOL    HW1 8233   0.545   3.952   2.088 -0.6710  0.8906 -0.0011
 2339SOL    HW2 8234   0.630   3.946   2.213  0.4413  0.6803 -0.7509
 2340SOL     OW 8235   1.947   3.534   3.451  0.3765  0.5163  0.3076
 2340SOL    HW1 8236   1.996   3.485   3.518 -0.0509 -2.3226 -1.2764
 2340SOL    HW2 8237   1.914   3.466   3.392 -0.3577  2.7919 -2.0656
 2341SOL     OW 8238   0.426   3.759   1.779  0.3607 -0.0379 -0.4182
 2341SOL    HW1 8239   0.377   3.716   1.709  0.3787  0.9669 -1.0654
 2341SOL    HW2 8240   0.493   3.810   1.733 -0.3559  1.5472  0.2585
 2342SOL     OW 8241   0.585   3.627   3.398  0.1134 -0.2120 -0.2049
 2342SOL    HW1 8242   0.586   3.707   3.449 -1.2859  0.5062 -1.2343
 2342SOL    HW2 8243   0.674   3.593   3.405  0.8433  1.6146 -0.0415
 2343SOL     OW 8244   0.545   5.239   3.380  0.4078 -0.2531  0.8396
 2343SOL    HW1 8245   0.471   5.180   3.394  0.5857 -0.5488  0.5637
 2343SOL    HW2 8246   0.506   5.320   3.348  0.1768 -0.3003  1.0051
 2344SOL     OW 8247   1.369   4.254   3.532 -0.0147  0.3248  0.2783
 2344SOL    HW1 8248   1.396   4.229   3.443  0.3329  0.5953  0.3037
 2344SOL    HW2 8249   1.451   4.256   3.582 -0.2742 -0.3315  0.7333
 2345SOL     OW 8250   1.186   4.696   2.339 -0.4519  0.1580 -0.2419
 2345SOL    HW1 8251   1.238   4.629   2.296 -0.3411  0.0940 -0.0100
 2345SOL    HW2 8252   1.191   4.674   2.432  1.3360  1.7024  0.0695
 2346SOL     OW 8253   0.693   3.997   2.788 -0.5221 -0.1837  0.3238
 2346SOL    HW1 8254   0.720   4.001   2.696  0.3817  0.8544  0.6040
 2346SOL    HW2 8255   0.680   3.904   2.805  1.4924 -0.6260 -0.2668
 2347SOL     OW 8256   0.291   3.488   1.862  0.2395 -0.4058 -0.0471
 2347SOL    HW1 8257   0.359   3.438   1.818  0.4045  0.5595 -0.9376
 2347SOL    HW2 8258   0.313   3.580   1.842  0.1364  0.0550  1.7812
 2348SOL     OW 8259   1.580   5.087   1.669  0.5818  0.5455  0.1884
 2348SOL    HW1 8260   1.626   5.159   1.626  1.1691 -0.6153 -1.2610
 2348SOL    HW2 8261   1.618   5.008   1.630 -2.0918 -0.5145 -0.5695
 2349SOL     OW 8262   0.636   3.437   1.245  0.3622 -0.2915  0.5020
 2349SOL    HW1 8263   0.556   3.397   1.211  0.2415 -0.2061  0.6831
 2349SOL    HW2 8264   0.706   3.403   1.189  0.6446 -2.7894  2.2230
 2350SOL     OW 8265   1.108   3.903   2.121  0.0210  0.1148 -0.1455
 2350SOL    HW1 8266   1.018   3.873   2.103  0.1609 -0.0315 -0.6143
 2350SOL    HW2 8267   1.109   3.918   2.215 -0.9138  1.4889 -0.3211
 2351SOL     OW 8268   1.124   4.117   3.216  0.0543 -0.6079 -0.9627
 2351SOL    HW1 8269   1.215   4.142   3.236  0.1798 -1.3297 -0.5685
 2351SOL    HW2 8270   1.128   4.023   3.202 -0.9307 -0.9901  0.9795
 2352SOL     OW 8271   1.473   5.460   2.524 -0.4066  0.1320  0.1215
 2352SOL    HW1 8272   1.538   5.528   2.544 -0.3955  0.3047 -0.4883
 2352SOL    HW2 8273   1.512   5.408   2.454 -0.4682 -0.4330  0.5013
 2353SOL     OW 8274   1.016   4.406   2.812 -0.5259 -0.3081  0.0981
 2353SOL    HW1 8275   1.091   4.393   2.871 -0.1403  1.4169  0.0452
 2353SOL    HW2 8276   0.959   4.331   2.829  0.0190 -0.3553  2.0069
 2354SOL     OW 8277   1.687   5.684   2.554 -0.0609  0.0829 -0.5651
 2354SOL    HW1 8278   1.758   5.685   2.490  1.0382 -0.1487  0.5908
 2354SOL    HW2 8279   1.619   5.740   2.516  0.5068 -0.1182 -1.9465
 2355SOL     OW 8280   1.281   4.064   1.462  0.8443  0.9498 -0.4536
 2355SOL    HW1 8281   1.244   4.151   1.449  0.1091  0.6972 -0.0624
 2355SOL    HW2 8282   1.375   4.080   1.471  0.6293  1.7972  0.4835
 2356SOL     OW 8283   8.818   4.195   3.270 -0.0259  0.1261 -0.2750
 2356SOL    HW1 8284   8.786   4.285   3.263  0.5089  0.4824  1.4526
 2356SOL    HW2 8285   8.776   4.160   3.349 -0.0003 -1.0584 -0.7630
 2357SOL     OW 8286   0.525   3.996   3.031 -0.1063  0.1105  0.3925
 2357SOL    HW1 8287   0.573   3.930   2.981  0.4441  0.3057  0.6647
 2357SOL    HW2 8288   0.491   4.056   2.964  0.1780  0.0700  0.2118
 2358SOL     OW 8289   0.785   4.099   2.475 -0.1368 -0.4302  0.0120
 2358SOL    HW1 8290   0.721   4.030   2.461 -0.5437 -0.4213  1.6649
 2358SOL    HW2 8291   0.744   4.177   2.436 -0.9420 -0.5185  0.6558
 2359SOL     OW 8292   0.866   3.695   2.312 -0.2473  0.0079 -0.1408
 2359SOL    HW1 8293   0.954   3.676   2.280 -0.0175 -0.0069  0.4891
 2359SOL    HW2 8294   0.808   3.663   2.243  0.1479 -2.1353  0.4286
 2360SOL     OW 8295   1.545   4.981   2.689 -0.0504  0.0966  0.0095
 2360SOL    HW1 8296   1.502   5.063   2.665 -1.1823 -0.6323 -0.5472
 2360SOL    HW2 8297   1.615   5.007   2.749 -0.5078  1.4444 -0.0098
 2361SOL     OW 8298   1.470   4.291   2.760 -0.0617 -0.7615  0.4517
 2361SOL    HW1 8299   1.450   4.235   2.836  1.6889  0.5838  1.9843
 2361SOL    HW2 8300   1.564   4.280   2.746 -0.2172 -0.4034 -1.0938
 2362SOL     OW 8301   1.942   4.689   2.426  0.4977 -0.0383  0.6879
 2362SOL    HW1 8302   1.856   4.669   2.387  0.6712 -0.1887  0.3753
 2362SOL    HW2 8303   1.979   4.603   2.447  1.4831 -0.1255 -1.1690
 2363SOL     OW 8304   0.889   4.921   2.336 -0.4851 -0.9404  0.1540
 2363SOL    HW1 8305   0.863   4.846   2.390  0.4915 -1.2023  0.2761
 2363SOL    HW2 8306   0.868   4.895   2.247  1.9479 -2.3621 -0.1005
 2364SOL     OW 8307   1.915   4.418   2.497 -0.2442  0.2481 -0.1782
 2364SOL    HW1 8308   1.924   4.325   2.518 -0.0968  0.5948  1.4230
 2364SOL    HW2 8309   1.967   4.463   2.564 -2.5345  1.6288  0.7597
 2365SOL     OW 8310   1.555   4.383   2.114 -0.3933 -0.2032  0.2224
 2365SOL    HW1 8311   1.550   4.325   2.190  1.5107 -0.6440  0.0688
 2365SOL    HW2 8312   1.633   4.353   2.067  0.0656  1.8566 -0.4038
 2366SOL     OW 8313   0.676   3.875   1.678 -0.0851 -0.2006 -0.1368
 2366SOL    HW1 8314   0.704   3.963   1.654  0.3777 -1.0102 -2.8547
 2366SOL    HW2 8315   0.757   3.827   1.692 -0.2942 -0.7149 -0.6830
 2367SOL     OW 8316   1.916   4.943   3.142  0.1841  0.2467  0.4072
 2367SOL    HW1 8317   1.963   4.976   3.218  0.9147  1.6778 -0.6364
 2367SOL    HW2 8318   1.959   4.983   3.066 -2.9431  2.0507 -0.6221
 2368SOL     OW 8319   1.065   5.050   3.185  0.2562  0.2988  0.5085
 2368SOL    HW1 8320   1.121   5.100   3.125 -1.1332  1.6060  0.2411
 2368SOL    HW2 8321   1.031   4.979   3.132  0.1462  0.6331  0.1210
 2369SOL     OW 8322   1.693   5.088   3.123 -0.2555  0.7293 -0.4455
 2369SOL    HW1 8323   1.635   5.056   3.191 -0.4642  1.9118 -0.0393
 2369SOL    HW2 8324   1.777   5.045   3.140 -0.6472  0.0406 -0.2262
 2370SOL     OW 8325   1.105   4.774   2.921  0.2337  0.0840 -0.7502
 2370SOL    HW1 8326   1.104   4.774   3.017 -0.1212 -0.0596 -0.7520
 2370SOL    HW2 8327   1.195   4.795   2.898  0.0330  1.4334 -0.3856
 2371SOL     OW 8328   1.752   5.051   2.842 -0.6054  0.6451  0.1346
 2371SOL    HW1 8329   1.730   5.091   2.925  2.4102  0.4181  1.1690
 2371SOL    HW2 8330   1.848   5.047   2.841 -0.5793 -1.4197 -2.3590
 2372SOL     OW 8331   1.004   3.121   3.348 -0.0563  0.0642  0.4613
 2372SOL    HW1 8332   1.066   3.077   3.289 -0.1977  0.5808 -0.0836
 2372SOL    HW2 8333   1.012   3.074   3.431  2.3082  1.1408  0.9262
 2373SOL     OW 8334   1.100   4.677   3.776 -0.4501 -0.4549  0.1383
 2373SOL    HW1 8335   1.096   4.602   3.836 -1.7685 -0.0528  0.5809
 2373SOL    HW2 8336   1.009   4.696   3.755 -0.1325  0.9966 -0.0236
 2374SOL     OW 8337   0.951   4.585   2.134  0.1433  0.3539  0.1144
 2374SOL    HW1 8338   0.912   4.672   2.125 -0.3873  0.2521  1.2264
 2374SOL    HW2 8339   1.042   4.596   2.108  0.2163  1.3718  0.7616
 2375SOL     OW 8340   0.455   4.307   3.234 -0.5880 -0.5044 -0.2814
 2375SOL    HW1 8341   0.441   4.402   3.234 -0.1013 -0.4282 -0.0560
 2375SOL    HW2 8342   0.370   4.270   3.257 -0.7582 -0.1192 -0.2839
 2376SOL     OW 8343   1.266   3.537   3.289  0.0953 -0.8061 -0.0701
 2376SOL    HW1 8344   1.303   3.545   3.377  1.7456 -0.9629 -0.7030
 2376SOL    HW2 8345   1.205   3.464   3.295  0.7457 -1.3047  0.7841
 2377SOL     OW 8346   0.080   5.332   3.098  0.3109 -0.0988  0.4434
 2377SOL    HW1 8347   0.021   5.342   3.173 -1.8201  0.2230 -1.1556
 2377SOL    HW2 8348   0.118   5.245   3.108 -2.7728 -1.6072  0.0807
 2378SOL     OW 8349   0.301   4.581   2.324 -0.1944 -0.5680 -0.0106
 2378SOL    HW1 8350   0.248   4.650   2.284 -0.2583 -0.8963 -0.4967
 2378SOL    HW2 8351   0.358   4.627   2.386 -0.1353 -0.0571 -0.4404
 2379SOL     OW 8352   0.353   4.050   2.442  0.2122 -0.0397 -0.1229
 2379SOL    HW1 8353   0.386   3.980   2.386 -1.2429 -0.8212 -0.0635
 2379SOL    HW2 8354   0.328   4.006   2.523  0.5560  0.7861  0.4461
 2380SOL     OW 8355   1.029   5.277   2.183  0.0740  0.4781  0.1882
 2380SOL    HW1 8356   1.119   5.262   2.154  0.1700 -0.5029  0.9678
 2380SOL    HW2 8357   0.976   5.263   2.104  0.5388  0.2851 -0.0894
 2381SOL     OW 8358   1.255   5.188   3.045  0.3030  0.3244 -0.1938
 2381SOL    HW1 8359   1.225   5.214   2.958  0.6754 -0.8253 -0.6900
 2381SOL    HW2 8360   1.347   5.214   3.047  0.8003 -1.2365 -0.8583
 2382SOL     OW 8361   1.485   4.443   2.499  0.7766 -0.3691  0.0883
 2382SOL    HW1 8362   1.478   4.393   2.580  0.0076  0.6329  0.6617
 2382SOL    HW2 8363   1.481   4.535   2.526  1.1510  0.0021 -1.0273
 2383SOL     OW 8364   0.771   4.755   2.626 -0.1547 -0.2940  0.3488
 2383SOL    HW1 8365   0.819   4.716   2.553 -0.8950  0.5273 -0.5972
 2383SOL    HW2 8366   0.831   4.821   2.662  0.2679 -0.8030  0.6025
 2384SOL     OW 8367   0.488   4.820   3.408 -0.4195  0.0099 -0.1926
 2384SOL    HW1 8368   0.550   4.859   3.345 -0.4477 -1.1059 -0.9289
 2384SOL    HW2 8369   0.542   4.798   3.483 -0.5235  2.1362  0.5780
 2385SOL     OW 8370   1.489   4.181   3.261 -0.4552 -0.5788  0.1121
 2385SOL    HW1 8371   1.576   4.181   3.222 -1.3845 -0.4294 -2.1190
 2385SOL    HW2 8372   1.454   4.094   3.243 -1.1046 -0.3353  0.1712
 2386SOL     OW 8373   1.083   3.631   3.583 -0.0723  0.1022 -0.1311
 2386SOL    HW1 8374   1.139   3.676   3.645 -0.4668  1.4540 -0.7274
 2386SOL    HW2 8375   1.025   3.578   3.638  0.1848  0.5707  0.6093
 2387SOL     OW 8376   0.177   3.184   3.878  0.3439 -0.1812  0.2143
 2387SOL    HW1 8377   0.177   3.089   3.889  0.4435 -0.0424  1.4888
 2387SOL    HW2 8378   0.195   3.196   3.785  2.0602 -1.3798  0.3379
 2388SOL     OW 8379   0.686   4.491   2.646 -0.5510 -0.4743  0.0715
 2388SOL    HW1 8380   0.751   4.458   2.584  2.5912 -0.7040  3.2439
 2388SOL    HW2 8381   0.704   4.584   2.653 -1.1847 -0.3642  0.3092
 2389SOL     OW 8382   1.876   4.668   2.905  0.2500  0.2760  0.0511
 2389SOL    HW1 8383   1.942   4.610   2.867 -0.3686 -0.2479 -0.2607
 2389SOL    HW2 8384   1.925   4.740   2.942  1.0343 -0.4087  0.3656
 2390SOL     OW 8385   1.332   4.124   2.184  0.3769  0.0052  0.2409
 2390SOL    HW1 8386   1.269   4.170   2.128 -0.6718 -1.4726  0.1399
 2390SOL    HW2 8387   1.278   4.082   2.251  1.1513 -2.0156 -0.3519
 2391SOL     OW 8388   0.185   3.610   3.505  0.0664 -0.0235  0.2042
 2391SOL    HW1 8389   0.093   3.637   3.497  0.6441  1.9085 -0.4796
 2391SOL    HW2 8390   0.222   3.669   3.570  1.0764 -0.0310 -0.3391
 2392SOL     OW 8391   0.376   4.557   3.129 -0.0624 -0.1437 -0.4114
 2392SOL    HW1 8392   0.290   4.569   3.088  0.4719  1.8276 -1.0586
 2392SOL    HW2 8393   0.438   4.572   3.058  0.8607 -1.2515  0.1224
 2393SOL     OW 8394   0.977   4.248   2.555  0.1995 -0.3803 -0.6366
 2393SOL    HW1 8395   0.901   4.192   2.569  0.7462 -1.1305 -0.6304
 2393SOL    HW2 8396   0.958   4.293   2.472 -0.1158 -0.7903 -0.7928
 2394SOL     OW 8397   1.356   4.392   3.807  0.2629  0.0373  0.2604
 2394SOL    HW1 8398   1.422   4.351   3.751 -1.2772 -0.4324 -1.2729
 2394SOL    HW2 8399   1.367   4.486   3.793  0.3537 -0.0535 -0.2736
 2395SOL     OW 8400   0.189   3.771   2.283 -0.1951 -1.3263 -0.4595
 2395SOL    HW1 8401   0.129   3.720   2.337  0.2552  0.5467  1.9904
 2395SOL    HW2 8402   0.274   3.761   2.327  0.6235 -1.3241 -1.9881
 2396SOL     OW 8403   1.678   4.263   2.429 -0.3686 -0.1894 -0.1513
 2396SOL    HW1 8404   1.756   4.319   2.433 -0.3986 -0.0764 -1.0732
 2396SOL    HW2 8405   1.607   4.320   2.459  0.1108 -0.7436  2.2434
 2397SOL     OW 8406   1.108   4.008   2.906  0.5342  0.0772 -0.0045
 2397SOL    HW1 8407   1.085   3.933   2.960  1.4113 -0.2135 -0.0148
 2397SOL    HW2 8408   1.032   4.067   2.912  0.8780  0.3909  2.1354
 2398SOL     OW 8409   0.640   5.094   3.602  0.3596  0.8338  0.3390
 2398SOL    HW1 8410   0.639   5.146   3.521 -1.4525  1.9630  1.0193
 2398SOL    HW2 8411   0.614   5.156   3.670 -0.7504 -0.7039  1.3756
 2399SOL     OW 8412   2.085   4.516   3.266 -0.0733  0.2859 -0.6834
 2399SOL    HW1 8413   2.054   4.605   3.252  0.0711  0.2171 -1.4844
 2399SOL    HW2 8414   2.006   4.464   3.279 -0.3030  0.1806 -2.3132
 2400SOL     OW 8415   0.402   4.021   3.575  0.5580 -0.1845 -0.2522
 2400SOL    HW1 8416   0.459   3.950   3.546 -1.1462 -0.9578 -1.9001
 2400SOL    HW2 8417   0.459   4.099   3.575  1.4212 -0.7310 -2.7818
 2401SOL     OW 8418   1.487   3.872   2.004  0.0595 -0.0594  0.2047
 2401SOL    HW1 8419   1.470   3.965   1.992 -0.0918  0.0328  1.0410
 2401SOL    HW2 8420   1.578   3.860   1.976  0.0812  0.3436  0.0969
 2402SOL     OW 8421   1.496   4.438   1.702 -0.2719 -0.3150 -0.2495
 2402SOL    HW1 8422   1.484   4.369   1.767  1.2495 -0.5971 -0.2297
 2402SOL    HW2 8423   1.543   4.395   1.630 -1.1799  0.1970 -1.1842
 2403SOL     OW 8424   1.417   5.280   2.744 -0.4914  0.2868  0.0239
 2403SOL    HW1 8425   1.458   5.349   2.692 -0.9136  0.3560 -0.2203
 2403SOL    HW2 8426   1.476   5.267   2.818 -0.0412  0.3977 -0.3160
 2404SOL     OW 8427   0.459   4.130   2.758 -0.4705  0.1387 -0.0513
 2404SOL    HW1 8428   0.407   4.055   2.727 -0.3132  0.3142 -0.7425
 2404SOL    HW2 8429   0.549   4.097   2.759 -0.5373 -0.0410  0.7700
 2405SOL     OW 8430   0.054   4.034   2.799 -0.3229 -0.5073  0.1197
 2405SOL    HW1 8431   0.068   4.035   2.894 -1.0647  2.1671  0.2846
 2405SOL    HW2 8432   0.028   4.124   2.777 -0.8265 -1.1976 -2.5401
 2406SOL     OW 8433   1.369   3.188   3.443  0.0170 -0.0726 -0.2408
 2406SOL    HW1 8434   1.296   3.226   3.492 -0.2509  0.3836 -0.9694
 2406SOL    HW2 8435   1.377   3.099   3.477 -0.9996 -0.1952 -0.2700
 2407SOL     OW 8436   1.930   3.737   3.717  0.1782  0.0882  0.2511
 2407SOL    HW1 8437   1.891   3.718   3.802  1.0112  1.2931  0.9376
 2407SOL    HW2 8438   1.930   3.653   3.671 -0.4611 -0.5423  1.3557
 2408SOL     OW 8439   8.789   4.902   1.944 -0.4985 -0.0351 -0.0534
 2408SOL    HW1 8440   8.697   4.898   1.918 -0.2404 -2.0926 -0.8466
 2408SOL    HW2 8441   8.786   4.910   2.039 -1.4573  2.1539 -0.2049
 2409SOL     OW 8442   0.011   5.694   2.794  0.0056 -0.4025 -0.9523
 2409SOL    HW1 8443   0.020   5.653   2.708  0.2616 -0.1157 -1.0629
 2409SOL    HW2 8444   0.100   5.696   2.829 -0.1710 -1.0056 -0.4508
 2410SOL     OW 8445   0.708   5.129   2.393  0.2605  0.2142 -0.0825
 2410SOL    HW1 8446   0.721   5.211   2.441 -1.1013 -1.6284  3.8419
 2410SOL    HW2 8447   0.795   5.088   2.391  0.5991  0.9420 -0.4631
 2411SOL     OW 8448   1.067   3.865   3.156  0.1149 -0.2473  0.0984
 2411SOL    HW1 8449   1.061   3.841   3.249  1.4943 -1.8743 -0.1877
 2411SOL    HW2 8450   1.102   3.787   3.114 -0.9848  0.2789 -1.9030
 2412SOL     OW 8451   0.097   4.010   3.083 -0.2513  0.3064 -0.0386
 2412SOL    HW1 8452   0.054   4.059   3.153 -1.8598  0.5761 -1.1763
 2412SOL    HW2 8453   0.175   3.972   3.125 -1.1348  0.5051  1.8655
 2413SOL     OW 8454   0.194   4.118   3.725  0.5874 -0.6362 -0.0517
 2413SOL    HW1 8455   0.269   4.095   3.669  0.0778 -0.1310 -0.9649
 2413SOL    HW2 8456   0.211   4.072   3.807  2.3301  0.1132  0.0673
 2414SOL     OW 8457   0.959   4.225   3.392 -0.0024  0.1052 -0.0820
 2414SOL    HW1 8458   0.992   4.199   3.306 -0.7346 -0.6367 -0.1455
 2414SOL    HW2 8459   0.907   4.304   3.375 -0.4664 -0.2618 -0.3804
 2415SOL     OW 8460   0.835   4.201   2.062  0.0528 -0.3659  0.1426
 2415SOL    HW1 8461   0.890   4.156   1.998  1.3740  0.7370  0.4490
 2415SOL    HW2 8462   0.753   4.152   2.062  0.3853 -1.0071 -1.6277
 2416SOL     OW 8463   1.936   4.300   2.915  0.2382 -0.1036 -0.3367
 2416SOL    HW1 8464   2.004   4.357   2.878 -1.6286  2.9481  0.5632
 2416SOL    HW2 8465   1.982   4.248   2.980  1.8316  1.5799 -0.0192
 2417SOL     OW 8466   0.146   5.022   3.214 -0.1208 -0.0858 -0.3049
 2417SOL    HW1 8467   0.125   4.998   3.123  0.4857  0.6374 -0.6535
 2417SOL    HW2 8468   0.074   4.986   3.266 -1.2833  0.7605 -1.2501
 2418SOL     OW 8469   0.253   3.927   2.678  0.1748  0.4407 -0.2599
 2418SOL    HW1 8470   0.249   3.836   2.704 -1.5144  0.1882 -1.2280
 2418SOL    HW2 8471   0.178   3.968   2.721 -0.0701  0.9661 -1.1443
 2419SOL     OW 8472   0.667   4.934   3.223  0.6127 -0.4658 -0.2586
 2419SOL    HW1 8473   0.672   4.864   3.158  0.8785 -0.6856 -0.0028
 2419SOL    HW2 8474   0.619   5.004   3.178  2.1622  0.0113 -1.2515
 2420SOL     OW 8475   0.749   4.394   1.656 -0.3269  0.2397 -0.2876
 2420SOL    HW1 8476   0.808   4.398   1.731  0.7477 -0.8059 -1.0489
 2420SOL    HW2 8477   0.664   4.419   1.691  0.1166 -0.3946  1.3106
 2421SOL     OW 8478   0.091   4.825   3.008  0.4620 -0.2208  0.2303
 2421SOL    HW1 8479   0.000   4.824   2.977  0.5503  2.1796 -0.2839
 2421SOL    HW2 8480   0.138   4.768   2.947 -0.5940 -1.1682  0.2584
 2422SOL     OW 8481   1.256   4.471   3.269  0.5700 -0.1700  0.3786
 2422SOL    HW1 8482   1.339   4.519   3.264  0.4316 -0.0603 -1.7776
 2422SOL    HW2 8483   1.263   4.420   3.350  2.9233 -0.4884  0.0530
 2423SOL     OW 8484   1.409   4.803   1.961 -0.4446 -0.3987 -0.2659
 2423SOL    HW1 8485   1.373   4.848   1.885 -1.1303 -0.1031  0.2187
 2423SOL    HW2 8486   1.495   4.771   1.932 -0.2834  0.5348 -0.8567
 2424SOL     OW 8487   1.439   5.444   3.300 -0.1211  1.0372 -0.0471
 2424SOL    HW1 8488   1.479   5.479   3.220 -0.5518 -2.2938 -1.9107
 2424SOL    HW2 8489   1.345   5.457   3.287 -0.2656 -0.3983 -0.6317
 2425SOL     OW 8490   1.527   5.252   3.010 -0.1469 -0.5969 -0.0700
 2425SOL    HW1 8491   1.541   5.335   3.054 -2.5100 -0.9361  1.5089
 2425SOL    HW2 8492   1.597   5.195   3.043 -2.1722 -1.0818  4.2194
 2426SOL     OW 8493   8.686   4.785   2.865  0.5104  0.3550 -0.1689
 2426SOL    HW1 8494   8.607   4.815   2.820  0.8818 -0.4640 -1.4274
 2426SOL    HW2 8495   8.741   4.749   2.795  1.5541 -0.0315  0.8189
 2427SOL     OW 8496   0.348   5.053   3.405 -0.2050 -0.1376  0.0216
 2427SOL    HW1 8497   0.283   5.022   3.343 -1.1461  0.8013  0.4971
 2427SOL    HW2 8498   0.410   4.981   3.414 -1.2673 -1.1183 -0.3330
 2428SOL     OW 8499   1.997   4.131   2.553 -0.0082 -0.6135  0.3972
 2428SOL    HW1 8500   2.065   4.145   2.487 -1.9932  1.6902 -1.3591
 2428SOL    HW2 8501   1.988   4.036   2.560  1.4660 -0.9212 -1.3608
 2429SOL     OW 8502   1.356   5.414   2.227  0.7756  0.0209  0.6088
 2429SOL    HW1 8503   1.447   5.397   2.204  0.6744  1.3190 -0.8875
 2429SOL    HW2 8504   1.310   5.333   2.202  1.0264  0.5627 -1.8501
 2430SOL     OW 8505   0.063   5.314   3.367  0.4185  0.1062  0.1276
 2430SOL    HW1 8506   0.148   5.289   3.405 -0.1685 -4.0873 -0.8038
 2430SOL    HW2 8507   0.010   5.234   3.372 -0.5417 -0.3541 -6.9735
 2431SOL     OW 8508   1.339   4.527   2.183 -0.3888 -0.1283  0.3688
 2431SOL    HW1 8509   1.414   4.513   2.126 -0.3626 -0.6965  0.5439
 2431SOL    HW2 8510   1.345   4.459   2.249 -2.3915 -1.7190 -0.9676
 2432SOL     OW 8511   0.856   5.084   3.422 -0.1240 -0.1701  0.1435
 2432SOL    HW1 8512   0.784   5.037   3.463 -0.7186 -0.4239 -1.1712
 2432SOL    HW2 8513   0.911   5.015   3.384  0.9626  0.0017  1.3140
 2433SOL     OW 8514   0.741   5.486   1.985  0.8815  0.0336  0.2196
 2433SOL    HW1 8515   0.822   5.537   1.982  0.2836  1.0105  0.1485
 2433SOL    HW2 8516   0.706   5.504   2.072  0.7277 -0.3729  0.2421
 2434SOL     OW 8517   1.704   5.506   3.623  0.3698  0.2361 -0.2796
 2434SOL    HW1 8518   1.689   5.413   3.604 -1.1316  0.2173  0.7954
 2434SOL    HW2 8519   1.716   5.510   3.718 -0.1624  1.2077 -0.2404
 2435SOL     OW 8520   1.912   3.615   2.972  0.0757  0.2238 -0.4469
 2435SOL    HW1 8521   1.848   3.685   2.983 -0.4310 -0.1542 -0.9526
 2435SOL    HW2 8522   1.862   3.541   2.938  0.8015 -0.0431 -0.9590
 2436SOL     OW 8523   0.431   3.739   2.475  0.1394 -0.1983  0.3801
 2436SOL    HW1 8524   0.468   3.653   2.459  0.0178 -0.1101 -0.4588
 2436SOL    HW2 8525   0.408   3.739   2.568  2.8922  0.0116  1.1496
 2437SOL     OW 8526   1.083   5.386   1.887  0.0697 -0.0311  0.1181
 2437SOL    HW1 8527   1.122   5.301   1.908 -0.6663 -0.5913 -0.7229
 2437SOL    HW2 8528   0.999   5.365   1.848  0.0684  1.0726 -0.5190
 2438SOL     OW 8529   0.889   4.775   3.329 -0.3618  0.6546  0.8218
 2438SOL    HW1 8530   0.840   4.840   3.279 -0.4212  0.7406  0.9937
 2438SOL    HW2 8531   0.825   4.735   3.387 -0.8182 -1.0886 -0.7942
 2439SOL     OW 8532   1.247   4.945   1.773 -0.4013  0.4475  0.9368
 2439SOL    HW1 8533   1.182   5.012   1.798 -0.5224  1.3326 -1.5253
 2439SOL    HW2 8534   1.239   4.937   1.678  1.3320 -1.3253  0.8691
 2440SOL     OW 8535   1.862   5.552   1.706  0.2635 -0.1768  0.3744
 2440SOL    HW1 8536   1.837   5.460   1.718  1.1508 -0.5887 -0.7302
 2440SOL    HW2 8537   1.780   5.600   1.714 -0.8333 -1.3956 -2.3093
 2441SOL     OW 8538   8.836   4.764   3.288  0.1851 -0.2884  0.3882
 2441SOL    HW1 8539   8.878   4.680   3.309 -0.2893 -0.5309  0.3843
 2441SOL    HW2 8540   8.892   4.802   3.221  0.8530 -0.2274  0.9621
 2442SOL     OW 8541   1.525   5.028   3.331  0.2062 -0.0246 -0.7189
 2442SOL    HW1 8542   1.467   4.982   3.271  1.0027 -0.9929 -0.7831
 2442SOL    HW2 8543   1.471   5.096   3.371 -1.6241 -2.2521  0.8767
 2443SOL     OW 8544   1.374   4.799   2.886  0.5849 -0.0605 -0.6690
 2443SOL    HW1 8545   1.394   4.705   2.885  0.6861 -0.0358 -0.8559
 2443SOL    HW2 8546   1.414   4.834   2.807  0.3436  0.0993 -0.7223
 2444SOL     OW 8547   1.155   3.847   2.620 -0.2857 -0.1357  0.5664
 2444SOL    HW1 8548   1.134   3.908   2.691  1.0929  2.8093 -1.3364
 2444SOL    HW2 8549   1.251   3.844   2.620 -0.2239  0.4056 -1.4341
 2445SOL     OW 8550   0.842   4.828   2.086  0.0675 -0.1253  0.2187
 2445SOL    HW1 8551   0.877   4.838   1.997 -1.5581 -1.8776 -0.6790
 2445SOL    HW2 8552   0.769   4.890   2.090 -0.0653 -0.2841  0.2335
 2446SOL     OW 8553   1.399   3.923   3.248 -0.0570 -0.7961  0.2767
 2446SOL    HW1 8554   1.396   3.859   3.177 -1.4632  2.4863 -2.9944
 2446SOL    HW2 8555   1.337   3.889   3.313  0.2105 -3.2761 -0.6478
 2447SOL     OW 8556   0.339   4.791   1.835 -0.2641  0.0997 -0.0250
 2447SOL    HW1 8557   0.336   4.733   1.911 -0.0098 -0.3376 -0.3400
 2447SOL    HW2 8558   0.257   4.774   1.789  0.7952 -1.7923 -1.3807
 2448SOL     OW 8559   0.325   4.579   3.461  0.0056  0.1377  0.0882
 2448SOL    HW1 8560   0.381   4.639   3.410  0.4474 -0.7616 -0.5109
 2448SOL    HW2 8561   0.386   4.513   3.494 -0.5428 -0.2195  0.3858
 2449SOL     OW 8562   0.804   3.674   3.058  0.1144  0.7443 -0.2376
 2449SOL    HW1 8563   0.896   3.650   3.060  0.4081  1.8701  0.5951
 2449SOL    HW2 8564   0.789   3.722   3.139 -1.5505 -0.5751  0.2807
 2450SOL     OW 8565   0.154   3.894   1.627  0.0195  0.3567 -0.1775
 2450SOL    HW1 8566   0.186   3.809   1.658  0.1825 -0.8157 -3.1875
 2450SOL    HW2 8567   0.232   3.941   1.601 -0.1872  0.6926 -0.1932
 2451SOL     OW 8568   1.461   4.629   3.271 -0.3477  0.2234 -0.0313
 2451SOL    HW1 8569   1.437   4.721   3.261 -1.0540 -0.1058 -1.7267
 2451SOL    HW2 8570   1.531   4.616   3.208  0.1880 -0.2618  0.6559
 2452SOL     OW 8571   8.787   3.603   1.734  0.1904  0.3073 -0.5140
 2452SOL    HW1 8572   8.803   3.636   1.822  0.8982 -0.4770 -0.3383
 2452SOL    HW2 8573   8.815   3.512   1.736  0.7623  0.4343 -1.7082
 2453SOL     OW 8574   1.281   5.186   2.151 -0.3337 -0.9210 -0.0262
 2453SOL    HW1 8575   1.227   5.112   2.178  0.1853 -0.5635  2.1229
 2453SOL    HW2 8576   1.345   5.149   2.091 -0.9857 -1.9231 -0.1283
 2454SOL     OW 8577   1.203   4.343   3.021  0.7653  1.0227  0.1837
 2454SOL    HW1 8578   1.207   4.385   3.107 -0.9793  0.9302  0.3449
 2454SOL    HW2 8579   1.170   4.255   3.039 -0.5341  1.3245 -0.6663
 2455SOL     OW 8580   1.546   5.515   3.060 -0.1893 -0.1111  0.3238
 2455SOL    HW1 8581   1.636   5.528   3.033  0.1111 -0.5432  1.0818
 2455SOL    HW2 8582   1.494   5.551   2.988  0.5504 -2.4130 -1.5051
 2456SOL     OW 8583   1.103   3.840   3.405  0.4912 -0.2653 -0.0568
 2456SOL    HW1 8584   1.097   3.916   3.464 -0.8540 -0.8658  0.6266
 2456SOL    HW2 8585   1.101   3.764   3.463  1.8823 -0.8625 -0.7304
 2457SOL     OW 8586   1.137   4.733   3.186 -0.1754 -0.5345  0.0606
 2457SOL    HW1 8587   1.074   4.768   3.248  0.9664  0.5162  0.6893
 2457SOL    HW2 8588   1.165   4.649   3.223  1.8909  0.9148  2.0633
 2458SOL     OW 8589   0.607   5.234   2.751  0.4237 -1.1367 -0.1967
 2458SOL    HW1 8590   0.666   5.258   2.680 -0.9309 -0.2587 -1.0499
 2458SOL    HW2 8591   0.533   5.294   2.744 -0.2310 -1.6922  1.3309
 2459SOL     OW 8592   1.629   4.629   3.039  0.1272  0.6021 -0.1693
 2459SOL    HW1 8593   1.598   4.599   2.954  0.7381  0.0006 -0.1874
 2459SOL    HW2 8594   1.708   4.679   3.020  0.3290  0.3707  0.0558
 2460SOL     OW 8595   1.179   4.007   2.366 -0.3319 -0.0886 -0.0053
 2460SOL    HW1 8596   1.159   3.936   2.428 -0.9175  1.3591  1.5282
 2460SOL    HW2 8597   1.197   4.082   2.421  2.5507  0.4595 -1.5172
 2461SOL     OW 8598   0.871   4.360   2.282 -0.8200 -0.5650  0.0354
 2461SOL    HW1 8599   0.895   4.439   2.235 -2.2575  0.0818  0.3094
 2461SOL    HW2 8600   0.876   4.290   2.217 -2.1349  0.2045 -0.9532
 2462SOL     OW 8601   1.961   4.016   3.555 -0.1089  0.1439  0.5941
 2462SOL    HW1 8602   2.024   4.087   3.541  0.0916 -0.0838  0.2997
 2462SOL    HW2 8603   1.998   3.942   3.505 -1.8069  0.6700 -1.5844
 2463SOL     OW 8604   1.741   4.197   3.173 -0.2137  1.0960  0.2317
 2463SOL    HW1 8605   1.717   4.165   3.086 -0.6988 -0.5824  0.9325
 2463SOL    HW2 8606   1.777   4.120   3.218 -1.2505  1.5520  1.9592
 2464SOL     OW 8607   1.127   4.959   2.188  0.2222  0.0754  0.0002
 2464SOL    HW1 8608   1.071   4.950   2.265  0.1668  1.9509  0.2209
 2464SOL    HW2 8609   1.145   4.869   2.161  0.0122 -0.6206  2.0262
 2465SOL     OW 8610   0.961   4.918   2.717  0.3292  0.2976 -0.0300
 2465SOL    HW1 8611   1.016   4.978   2.666 -0.4105  2.1002  1.1774
 2465SOL    HW2 8612   1.020   4.884   2.784  0.8937 -0.7945 -1.0583
 2466SOL     OW 8613   1.385   4.522   2.896  0.0743  0.0053  0.2104
 2466SOL    HW1 8614   1.402   4.449   2.835 -3.1060 -0.5477 -0.1959
 2466SOL    HW2 8615   1.315   4.489   2.953 -0.6969  2.3686  0.7187
 2467SOL     OW 8616   1.306   4.660   1.664 -0.1770  0.4934  0.3765
 2467SOL    HW1 8617   1.224   4.612   1.673  0.2006 -0.0114  1.1653
 2467SOL    HW2 8618   1.374   4.597   1.688  0.6034  0.3612 -1.9378
 2468SOL     OW 8619   1.733   5.417   2.768  0.2366  0.3923  0.5106
 2468SOL    HW1 8620   1.734   5.371   2.684 -1.8759 -1.1724  1.2713
 2468SOL    HW2 8621   1.814   5.389   2.811  0.4291 -0.2453 -0.2449
 2469SOL     OW 8622   0.565   4.899   3.936  0.1260  0.2431  0.2172
 2469SOL    HW1 8623   0.551   4.970   3.997 -0.0342 -1.8050  2.7291
 2469SOL    HW2 8624   0.494   4.837   3.955  1.0682 -1.2264 -0.8727
 2470SOL     OW 8625   0.277   4.853   2.631  0.2492 -0.1136  0.1093
 2470SOL    HW1 8626   0.347   4.880   2.571  0.0464  0.0614 -0.0469
 2470SOL    HW2 8627   0.210   4.815   2.575  0.7965 -1.5535  0.3744
 2471SOL     OW 8628   0.775   4.594   3.570  0.2555 -0.0839  0.2884
 2471SOL    HW1 8629   0.773   4.539   3.649 -1.3201  0.2944  0.5333
 2471SOL    HW2 8630   0.750   4.681   3.600 -2.4019 -0.3315 -0.8838
 2472SOL     OW 8631   1.702   3.853   3.297 -0.8380  0.3443  0.2436
 2472SOL    HW1 8632   1.618   3.897   3.288  0.9452  3.6980 -2.3487
 2472SOL    HW2 8633   1.713   3.807   3.213 -0.0557 -0.0090  0.5338
 2473SOL     OW 8634   0.372   3.918   2.035  0.2560 -0.0332  0.7292
 2473SOL    HW1 8635   0.399   3.841   1.985  0.5437  1.1823 -1.0826
 2473SOL    HW2 8636   0.276   3.915   2.032  0.2550 -0.5507  1.0728
 2474SOL     OW 8637   1.916   5.267   3.031  0.2402  0.0365  0.6063
 2474SOL    HW1 8638   1.974   5.196   3.007  0.4083 -0.3561  2.0783
 2474SOL    HW2 8639   1.858   5.230   3.098 -1.0361  0.7056 -0.0813
 2475SOL     OW 8640   0.484   4.539   2.860 -0.4693  0.1247  0.3844
 2475SOL    HW1 8641   0.530   4.497   2.788 -2.8192 -2.3750  0.1910
 2475SOL    HW2 8642   0.553   4.573   2.916  1.6188 -2.5160 -0.3926
 2476SOL     OW 8643   0.937   4.649   2.449 -0.3140  0.6321 -0.7789
 2476SOL    HW1 8644   0.979   4.621   2.368 -0.3711 -2.7185  0.2062
 2476SOL    HW2 8645   1.007   4.647   2.515 -0.4806  2.3519 -0.4935
 2477SOL     OW 8646   1.423   3.687   3.101  0.4781  0.3622  0.3339
 2477SOL    HW1 8647   1.378   3.644   3.174 -0.2510  0.6073  0.0359
 2477SOL    HW2 8648   1.369   3.669   3.025  0.6805  0.9932  0.0369
 2478SOL     OW 8649   1.300   3.611   2.870  0.4108 -0.6983 -0.0652
 2478SOL    HW1 8650   1.284   3.523   2.837 -0.6100 -0.5534 -0.0095
 2478SOL    HW2 8651   1.314   3.665   2.792  0.5855 -0.8315 -0.1245
 2479SOL     OW 8652   1.424   5.057   2.433 -0.1798 -0.1404 -0.0319
 2479SOL    HW1 8653   1.500   5.026   2.482 -0.8521 -0.2134  1.0005
 2479SOL    HW2 8654   1.445   5.038   2.341  0.5455 -1.2170  0.3406
 2480SOL     OW 8655   0.512   5.068   3.049 -0.0674  0.0849  0.1277
 2480SOL    HW1 8656   0.590   5.102   3.005  0.1739  1.3847  1.4556
 2480SOL    HW2 8657   0.445   5.135   3.034 -1.2188 -1.3759 -1.6560
 2481SOL     OW 8658   1.507   3.693   2.398 -0.4150  0.4584  0.3620
 2481SOL    HW1 8659   1.587   3.725   2.356  0.2676 -0.7598  0.6774
 2481SOL    HW2 8660   1.436   3.733   2.348  0.3894  1.4797  0.0119
 2482SOL     OW 8661   1.240   4.179   2.548 -0.1380 -0.4986 -0.1036
 2482SOL    HW1 8662   1.304   4.240   2.584  1.4172  0.5291 -4.1044
 2482SOL    HW2 8663   1.155   4.216   2.574  0.8043  1.9952 -0.2516
 2483SOL     OW 8664   1.667   4.047   2.967  0.5410 -0.5203 -0.6106
 2483SOL    HW1 8665   1.576   4.047   2.938  0.2963  1.6377 -0.0482
 2483SOL    HW2 8666   1.718   4.060   2.887  0.3881 -1.6688 -0.9179
 2484SOL     OW 8667   0.296   4.579   2.016  0.1976 -0.2628 -0.3148
 2484SOL    HW1 8668   0.238   4.537   2.079  2.0586 -1.5809  0.6142
 2484SOL    HW2 8669   0.384   4.555   2.045  1.1627 -0.1697 -2.9318
 2485SOL     OW 8670   0.931   5.470   2.367  0.1682  0.3585  0.2713
 2485SOL    HW1 8671   0.950   5.408   2.297  1.9599  0.1805  0.8496
 2485SOL    HW2 8672   0.857   5.521   2.335 -0.9128 -1.6148 -0.5044
 2486SOL     OW 8673   0.502   4.109   3.898  0.3126  0.3522  0.1549
 2486SOL    HW1 8674   0.544   4.130   3.981  1.0669  1.4160 -0.4557
 2486SOL    HW2 8675   0.522   4.184   3.842 -0.4000 -0.2199 -0.9042
 2487SOL     OW 8676   0.483   3.991   4.244  0.6613  0.1598 -0.3165
 2487SOL    HW1 8677   0.446   4.009   4.330 -0.8479  0.2264 -0.9458
 2487SOL    HW2 8678   0.494   4.078   4.205 -1.8375  0.0721 -1.4212
 2488SOL     OW 8679   8.816   3.575   4.049  0.2083  0.1160 -0.5908
 2488SOL    HW1 8680   8.852   3.514   4.114 -1.5396  0.3519  0.6909
 2488SOL    HW2 8681   8.892   3.606   4.000  1.9602  1.5735  2.7383
 2489SOL     OW 8682   0.569   4.845   4.696 -0.0563 -0.2123 -0.1001
 2489SOL    HW1 8683   0.607   4.925   4.733  0.1975 -0.1983 -0.3861
 2489SOL    HW2 8684   0.488   4.874   4.653  0.1871 -0.0625 -0.4571
 2490SOL     OW 8685   1.419   5.195   4.487  0.2569  0.0635  0.5177
 2490SOL    HW1 8686   1.431   5.152   4.403  1.9754  1.2067  0.1230
 2490SOL    HW2 8687   1.500   5.176   4.535 -0.1986  0.4307  1.4567
 2491SOL     OW 8688   1.200   4.650   4.114 -0.3090 -0.0070 -0.5543
 2491SOL    HW1 8689   1.250   4.621   4.190 -2.2010  1.7649  1.5058
 2491SOL    HW2 8690   1.246   4.728   4.083 -0.4539  0.2465 -0.1415
 2492SOL     OW 8691   1.843   4.589   3.457  0.0695  0.4760  0.7268
 2492SOL    HW1 8692   1.757   4.584   3.501 -0.8354  1.0476 -0.8848
 2492SOL    HW2 8693   1.823   4.575   3.364  1.7814  0.3136  0.3578
 2493SOL     OW 8694   0.562   4.811   4.261 -0.1132 -0.4606 -0.1314
 2493SOL    HW1 8695   0.514   4.881   4.216  0.5646  0.5333  0.6365
 2493SOL    HW2 8696   0.597   4.853   4.340  1.1601 -1.4009 -0.1619
 2494SOL     OW 8697   0.484   4.554   5.530 -0.2764  0.3406  0.6270
 2494SOL    HW1 8698   0.571   4.579   5.564 -0.3075  0.2946  0.7417
 2494SOL    HW2 8699   0.423   4.607   5.580 -0.2818  0.7827  0.1525
 2495SOL     OW 8700   0.946   4.598   4.199  0.1996 -0.0022  0.0451
 2495SOL    HW1 8701   0.941   4.635   4.287 -0.9849 -0.0929  0.0335
 2495SOL    HW2 8702   1.033   4.622   4.168  0.1382  1.2150  0.7267
 2496SOL     OW 8703   0.769   5.113   5.531 -0.3233 -0.3877  0.5501
 2496SOL    HW1 8704   0.800   5.029   5.498 -1.1057 -0.6120  0.3769
 2496SOL    HW2 8705   0.775   5.173   5.456  1.8132  0.1570  1.0927
 2497SOL     OW 8706   0.519   5.073   4.492 -0.1138 -0.5818  0.1449
 2497SOL    HW1 8707   0.450   5.131   4.460  1.3034  0.0385 -1.9877
 2497SOL    HW2 8708   0.555   5.117   4.569 -0.0018  0.6721 -0.6134
 2498SOL     OW 8709   1.502   5.720   5.508  0.8264  0.0410  0.1120
 2498SOL    HW1 8710   1.573   5.688   5.452  2.2357  0.4031  1.6022
 2498SOL    HW2 8711   1.541   5.726   5.595 -1.3849 -0.8713  1.2490
 2499SOL     OW 8712   0.621   4.049   5.551 -0.1403  0.1898 -0.1771
 2499SOL    HW1 8713   0.657   4.060   5.639 -0.5775  1.3098 -0.1197
 2499SOL    HW2 8714   0.548   3.987   5.562  0.9652 -1.1472 -0.0968
 2500SOL     OW 8715   1.523   4.251   4.321 -0.4908  0.1643  0.6722
 2500SOL    HW1 8716   1.485   4.231   4.406 -1.1879  0.0126  0.3270
 2500SOL    HW2 8717   1.494   4.340   4.301  0.1696  0.4316  0.8591
 2501SOL     OW 8718   8.715   5.308   4.050  0.4449 -0.1560 -0.5078
 2501SOL    HW1 8719   8.758   5.262   4.122  0.8968  1.7047  0.4590
 2501SOL    HW2 8720   8.623   5.282   4.057  0.5381 -0.2449  0.5413
 2502SOL     OW 8721   1.055   5.357   5.667 -0.2212  0.0210  0.4533
 2502SOL    HW1 8722   1.003   5.284   5.700 -0.6116 -0.2427 -0.7037
 2502SOL    HW2 8723   0.990   5.420   5.635  0.1292 -0.6004 -1.6315
 2503SOL     OW 8724   0.513   5.078   4.165  0.1700  0.4258  0.1793
 2503SOL    HW1 8725   0.573   5.146   4.192 -0.3706  1.6171 -1.4366
 2503SOL    HW2 8726   0.430   5.123   4.148 -0.3357 -0.6892 -0.4886
 2504SOL     OW 8727   0.174   4.359   4.611  0.0906 -0.7517  0.3503
 2504SOL    HW1 8728   0.211   4.439   4.648 -2.4255  1.1895 -0.9835
 2504SOL    HW2 8729   0.222   4.346   4.529 -0.2250  0.0859  0.0210
 2505SOL     OW 8730   0.438   5.871   4.957 -0.3079  0.1066 -0.3801
 2505SOL    HW1 8731   0.365   5.925   4.985 -0.8642 -1.8256  2.3165
 2505SOL    HW2 8732   0.515   5.913   4.995 -0.6585 -0.4934  1.0887
 2506SOL     OW 8733   0.784   4.429   3.799 -0.1995 -0.5874 -0.3472
 2506SOL    HW1 8734   0.768   4.513   3.843  0.3133  0.1768 -1.5537
 2506SOL    HW2 8735   0.777   4.364   3.869 -0.1698  0.4970  0.7144
 2507SOL     OW 8736   1.954   4.117   5.021 -0.5017 -0.5298 -0.3900
 2507SOL    HW1 8737   1.959   4.209   4.997  0.1465 -0.2258  0.8454
 2507SOL    HW2 8738   1.865   4.091   4.997 -0.9335  0.6178 -0.0994
 2508SOL     OW 8739   8.668   4.182   3.907  0.1103 -0.4987  0.3354
 2508SOL    HW1 8740   8.724   4.181   3.985 -0.4046 -0.6116  0.7030
 2508SOL    HW2 8741   8.597   4.122   3.927 -0.8160  0.5727  0.3475
 2509SOL     OW 8742   1.961   5.385   4.051 -0.1740  0.0059 -0.1075
 2509SOL    HW1 8743   2.044   5.423   4.080  0.1619 -0.8937  0.1222
 2509SOL    HW2 8744   1.981   5.348   3.965 -0.1331 -0.8767  0.2718
 2510SOL     OW 8745   8.553   5.103   3.655  0.1907 -0.6694 -0.4619
 2510SOL    HW1 8746   8.574   5.196   3.648  0.5133 -0.8290 -1.8628
 2510SOL    HW2 8747   8.634   5.059   3.630 -0.5113 -1.3152 -1.6449
 2511SOL     OW 8748   1.494   4.751   4.027 -0.6982  0.0240  0.2277
 2511SOL    HW1 8749   1.555   4.764   3.954 -0.3487  0.3325  0.5744
 2511SOL    HW2 8750   1.421   4.809   4.008 -0.9199 -0.3961 -0.2242
 2512SOL     OW 8751   1.584   4.852   3.762  0.0831 -0.4241 -0.1815
 2512SOL    HW1 8752   1.662   4.876   3.812  0.0721 -0.0954 -0.3177
 2512SOL    HW2 8753   1.612   4.853   3.670 -0.1952  0.1558 -0.2640
 2513SOL     OW 8754   8.475   5.338   5.133 -0.2610 -0.5091 -0.2268
 2513SOL    HW1 8755   8.491   5.432   5.126 -0.4237 -0.5289 -0.9097
 2513SOL    HW2 8756   8.447   5.311   5.046  2.4573 -1.7055 -0.8180
 2514SOL     OW 8757   0.656   5.528   4.247 -0.3541 -0.1084  0.3665
 2514SOL    HW1 8758   0.744   5.536   4.210  0.4701 -0.0809  2.2198
 2514SOL    HW2 8759   0.606   5.600   4.207  0.2287 -0.5912 -1.2802
 2515SOL     OW 8760   1.271   4.816   5.267 -0.7339 -0.1041  0.1854
 2515SOL    HW1 8761   1.248   4.838   5.177  0.2972 -0.5743 -0.2185
 2515SOL    HW2 8762   1.302   4.725   5.262 -1.4735 -0.4302  1.1702
 2516SOL     OW 8763   0.701   3.486   4.264 -0.3738 -0.1903 -0.1214
 2516SOL    HW1 8764   0.795   3.499   4.277 -0.4944 -0.9989  2.0102
 2516SOL    HW2 8765   0.677   3.548   4.195  1.9588 -0.9768 -1.7795
 2517SOL     OW 8766   0.614   4.743   5.081  0.3140 -0.4110 -0.1588
 2517SOL    HW1 8767   0.567   4.714   5.159  0.3510  0.4466  0.1871
 2517SOL    HW2 8768   0.640   4.833   5.100 -0.3168  0.0770 -1.4539
 2518SOL     OW 8769   1.234   4.916   3.921 -0.4183  0.1550 -0.2072
 2518SOL    HW1 8770   1.174   4.851   3.884 -1.9799  0.6617  1.2898
 2518SOL    HW2 8771   1.180   4.994   3.932  0.6389  0.7787  0.7648
 2519SOL     OW 8772   1.247   5.682   5.477  0.0483 -0.1834 -0.1181
 2519SOL    HW1 8773   1.262   5.593   5.446  0.1658 -0.4137  0.5813
 2519SOL    HW2 8774   1.334   5.716   5.498 -0.0920 -0.3247  0.7322
 2520SOL     OW 8775   0.421   3.880   5.578 -0.1419  0.5400 -0.5072
 2520SOL    HW1 8776   0.457   3.796   5.608  2.4904  1.6463 -0.2765
 2520SOL    HW2 8777   0.365   3.857   5.504  1.3353 -1.3445 -1.1221
 2521SOL     OW 8778   1.138   5.205   4.549 -0.1055  0.0663  0.1645
 2521SOL    HW1 8779   1.126   5.238   4.638  0.5330 -1.6885  0.9383
 2521SOL    HW2 8780   1.233   5.204   4.537 -0.1948  0.5489 -0.6611
 2522SOL     OW 8781   1.158   5.706   3.576  0.3288  0.1297  0.5004
 2522SOL    HW1 8782   1.213   5.645   3.625  1.9269  1.2303  0.1612
 2522SOL    HW2 8783   1.219   5.752   3.519 -1.1727  0.4515 -0.9116
 2523SOL     OW 8784   0.639   3.851   3.548 -0.2346 -0.2809  0.7413
 2523SOL    HW1 8785   0.695   3.825   3.621  1.6380 -0.7736 -0.7956
 2523SOL    HW2 8786   0.699   3.892   3.485 -1.9463  1.0895 -0.0973
 2524SOL     OW 8787   1.195   4.161   5.050 -0.1870  0.0595  0.5624
 2524SOL    HW1 8788   1.181   4.250   5.017  1.2131  0.3727  0.7454
 2524SOL    HW2 8789   1.133   4.107   5.002  0.2980  0.8340 -0.9895
 2525SOL     OW 8790   1.357   5.493   4.020  0.6036  0.0648 -0.0561
 2525SOL    HW1 8791   1.400   5.408   4.011  0.1765 -0.1839  0.2584
 2525SOL    HW2 8792   1.279   5.475   4.071 -0.3169  0.3655 -1.3124
 2526SOL     OW 8793   0.633   4.197   4.870 -0.2954 -1.0077  0.1600
 2526SOL    HW1 8794   0.712   4.190   4.924  0.0217 -0.3917 -0.2144
 2526SOL    HW2 8795   0.588   4.113   4.884  1.1120 -1.9564 -0.6845
 2527SOL     OW 8796   1.571   3.848   5.133 -0.0325  0.0997 -0.6941
 2527SOL    HW1 8797   1.602   3.880   5.048 -0.0164  0.2343 -0.6382
 2527SOL    HW2 8798   1.597   3.917   5.194 -0.0830  0.0221 -0.5868
 2528SOL     OW 8799   1.206   4.439   4.973  0.6109 -0.0751 -0.1859
 2528SOL    HW1 8800   1.270   4.499   5.011 -0.3017  0.8541 -0.0678
 2528SOL    HW2 8801   1.151   4.494   4.917 -0.6605 -0.6663  0.4352
 2529SOL     OW 8802   1.146   3.740   4.589  0.0770  0.4423 -0.5345
 2529SOL    HW1 8803   1.183   3.828   4.585  1.1075  0.2160  1.9978
 2529SOL    HW2 8804   1.059   3.749   4.551  0.5038  2.3304 -1.1829
 2530SOL     OW 8805   1.282   4.285   4.094  0.3633  0.0362  0.5399
 2530SOL    HW1 8806   1.266   4.376   4.070  0.4143 -0.1112 -0.0871
 2530SOL    HW2 8807   1.367   4.286   4.138  0.3601  0.2921  0.5407
 2531SOL     OW 8808   0.545   4.258   4.176  0.0513 -0.8396  0.2408
 2531SOL    HW1 8809   0.583   4.321   4.116  1.5505 -0.5844  1.3994
 2531SOL    HW2 8810   0.560   4.295   4.263 -2.2701 -1.0728  0.8157
 2532SOL     OW 8811   0.196   5.846   5.417 -0.0665  0.5907 -0.1838
 2532SOL    HW1 8812   0.199   5.910   5.488 -3.1857  0.8337 -0.1419
 2532SOL    HW2 8813   0.117   5.869   5.367 -0.0154 -1.8400 -1.5265
 2533SOL     OW 8814   1.068   4.092   4.020 -0.4379 -0.0230 -0.0517
 2533SOL    HW1 8815   1.124   4.169   4.013 -1.7150  0.9131 -0.3777
 2533SOL    HW2 8816   1.069   4.054   3.932  0.5582 -0.6727  0.2216
 2534SOL     OW 8817   1.480   4.376   5.180 -0.6319 -0.0570 -0.3951
 2534SOL    HW1 8818   1.517   4.380   5.268 -1.4855  0.3541 -0.0487
 2534SOL    HW2 8819   1.494   4.286   5.152  0.7385  0.1046 -0.3353
 2535SOL     OW 8820   1.532   5.120   3.862  0.4690  0.2239  1.0314
 2535SOL    HW1 8821   1.463   5.086   3.805 -1.2997  1.8602  2.0684
 2535SOL    HW2 8822   1.608   5.064   3.844 -0.7316 -0.8669 -1.0736
 2536SOL     OW 8823   0.673   3.947   4.562 -0.2094 -0.1717  0.1983
 2536SOL    HW1 8824   0.759   3.991   4.567 -1.5706  2.6431  0.8753
 2536SOL    HW2 8825   0.670   3.912   4.473  0.5314  2.3378 -0.9096
 2537SOL     OW 8826   0.850   4.906   4.163 -0.5814 -0.4387 -0.7714
 2537SOL    HW1 8827   0.807   4.843   4.220  0.8904 -0.0658  0.8537
 2537SOL    HW2 8828   0.811   4.991   4.186 -0.2017 -0.3266 -0.5321
 2538SOL     OW 8829   0.149   5.180   4.434  0.0938 -0.1763 -0.4237
 2538SOL    HW1 8830   0.178   5.132   4.512 -0.6522 -0.2009 -0.1476
 2538SOL    HW2 8831   0.215   5.248   4.421 -0.8731  1.2443  1.5452
 2539SOL     OW 8832   1.565   4.720   4.516  0.0730 -0.3373 -0.3993
 2539SOL    HW1 8833   1.601   4.780   4.580 -0.6231  0.2131 -0.5187
 2539SOL    HW2 8834   1.638   4.702   4.456  0.4899 -0.2143  0.0639
 2540SOL     OW 8835   1.053   5.272   5.405  0.2137 -0.2980 -0.1476
 2540SOL    HW1 8836   1.037   5.312   5.490 -1.9034 -1.2119 -0.0532
 2540SOL    HW2 8837   1.067   5.179   5.424  2.3059 -0.1151 -0.6028
 2541SOL     OW 8838   0.401   4.715   4.013 -0.1152 -0.3171  0.1821
 2541SOL    HW1 8839   0.416   4.668   4.095 -1.2055 -1.5614 -0.2902
 2541SOL    HW2 8840   0.394   4.646   3.946  2.2734  0.7194 -1.2775
 2542SOL     OW 8841   1.183   4.550   4.677  0.4233  0.4324  0.0195
 2542SOL    HW1 8842   1.213   4.641   4.670  0.3610  0.7562  2.7893
 2542SOL    HW2 8843   1.264   4.499   4.680  0.6779  0.8579  2.6543
 2543SOL     OW 8844   0.470   5.378   5.447 -0.2731  0.0497 -0.1518
 2543SOL    HW1 8845   0.422   5.312   5.397 -0.3630  0.3592 -0.4776
 2543SOL    HW2 8846   0.560   5.371   5.414 -0.1195 -0.4264  0.3517
 2544SOL     OW 8847   0.785   5.618   3.883  0.0414 -0.2381  0.6462
 2544SOL    HW1 8848   0.713   5.654   3.832  0.1733  0.8951  1.2161
 2544SOL    HW2 8849   0.816   5.543   3.832  0.1610  0.8255 -0.9208
 2545SOL     OW 8850   0.226   4.058   4.970 -0.2544  0.2862 -0.2005
 2545SOL    HW1 8851   0.320   4.051   4.953 -0.3828  0.3884 -1.0308
 2545SOL    HW2 8852   0.201   4.140   4.928 -0.8742 -0.1993 -0.8136
 2546SOL     OW 8853   1.585   5.413   3.873 -0.6620  0.4309 -0.0246
 2546SOL    HW1 8854   1.506   5.466   3.866 -0.7496  0.2773 -0.2242
 2546SOL    HW2 8855   1.558   5.326   3.841 -0.2660  0.5277 -0.6457
 2547SOL     OW 8856   8.742   5.194   4.346 -0.4833 -0.2141  0.2714
 2547SOL    HW1 8857   8.717   5.101   4.347 -0.5337 -0.2013  0.9450
 2547SOL    HW2 8858   8.835   5.194   4.366 -0.6604 -0.0830  1.1563
 2548SOL     OW 8859   1.653   3.883   4.448  0.1865 -0.4058 -0.1843
 2548SOL    HW1 8860   1.743   3.892   4.416  0.2788 -0.1550  0.1360
 2548SOL    HW2 8861   1.598   3.908   4.373  0.3748 -0.7636 -0.4483
 2549SOL     OW 8862   0.160   5.962   4.742  0.4095 -0.0475  0.1148
 2549SOL    HW1 8863   0.187   6.004   4.824 -0.0409 -0.0814  0.2872
 2549SOL    HW2 8864   0.082   5.911   4.766  0.0306  0.2736 -0.4204
 2550SOL     OW 8865   0.957   5.285   4.367  0.3012  0.3607  0.6206
 2550SOL    HW1 8866   1.000   5.233   4.300  2.0221  0.9663  1.2069
 2550SOL    HW2 8867   1.000   5.260   4.449 -0.6199  0.8294  1.2760
 2551SOL     OW 8868   0.310   3.924   3.912  0.0490 -0.2384  0.2166
 2551SOL    HW1 8869   0.342   3.846   3.956  0.9633 -0.1862 -0.3312
 2551SOL    HW2 8870   0.386   3.983   3.910 -0.7282  0.8394  0.9866
 2552SOL     OW 8871   1.508   3.707   5.363  0.6555 -0.1808  0.0169
 2552SOL    HW1 8872   1.524   3.746   5.277  0.9160  1.7060  0.8691
 2552SOL    HW2 8873   1.570   3.751   5.421 -0.0732 -0.8185  1.3268
 2553SOL     OW 8874   0.779   4.201   3.957 -0.6748 -0.6677  0.1187
 2553SOL    HW1 8875   0.835   4.234   4.027 -1.1019 -0.1853  0.2423
 2553SOL    HW2 8876   0.827   4.128   3.920 -0.6613 -1.2364  1.2319
 2554SOL     OW 8877   0.736   3.886   5.023  0.2229  0.4558 -0.0219
 2554SOL    HW1 8878   0.740   3.878   5.118  1.2438  2.5248  0.1609
 2554SOL    HW2 8879   0.786   3.811   4.990 -0.9773 -0.8475  0.9879
 2555SOL     OW 8880   1.117   5.224   5.059 -0.4027 -0.2644  0.3570
 2555SOL    HW1 8881   1.147   5.212   5.150 -0.9584  0.4046  0.6389
 2555SOL    HW2 8882   1.028   5.189   5.059 -0.6297  0.3104  0.2251
 2556SOL     OW 8883   1.177   4.236   5.310 -0.1715  0.2622  0.9617
 2556SOL    HW1 8884   1.117   4.310   5.303 -1.7210 -0.9713  0.8552
 2556SOL    HW2 8885   1.208   4.222   5.221 -1.3549 -0.3940  0.6379
 2557SOL     OW 8886   0.655   5.093   4.808 -0.0056 -0.1290  0.7264
 2557SOL    HW1 8887   0.668   5.180   4.770  2.4564 -0.9818 -0.5636
 2557SOL    HW2 8888   0.716   5.089   4.882  0.7720 -1.1488  0.0485
 2558SOL     OW 8889   0.942   4.524   4.799 -0.3169  0.1807  0.0699
 2558SOL    HW1 8890   0.876   4.481   4.745 -0.0672  0.6350 -0.6055
 2558SOL    HW2 8891   1.020   4.526   4.743  0.2733 -0.3516  0.8514
 2559SOL     OW 8892   0.554   3.235   4.202 -0.1610 -0.3508 -0.6476
 2559SOL    HW1 8893   0.560   3.198   4.290 -0.9254  1.3166  0.1713
 2559SOL    HW2 8894   0.591   3.323   4.211 -2.8137  0.9330 -1.2416
 2560SOL     OW 8895   1.389   4.662   3.718 -0.3714 -0.0932 -0.0731
 2560SOL    HW1 8896   1.443   4.737   3.742  0.9908 -1.7831  2.6504
 2560SOL    HW2 8897   1.300   4.687   3.744 -0.1698  1.0538 -0.4573
 2561SOL     OW 8898   0.328   3.333   4.064  0.3300  0.4438 -0.0632
 2561SOL    HW1 8899   0.293   3.270   4.001  1.1462  0.2393 -0.3204
 2561SOL    HW2 8900   0.403   3.288   4.104 -0.5197  0.3254  1.4937
 2562SOL     OW 8901   0.689   3.813   4.290  0.4108 -0.0837 -0.2206
 2562SOL    HW1 8902   0.758   3.829   4.225  0.9532  2.5374  0.8854
 2562SOL    HW2 8903   0.616   3.869   4.262  0.8532  1.5223  1.6509
 2563SOL     OW 8904   1.009   4.473   5.257  0.1680 -0.0746 -0.0305
 2563SOL    HW1 8905   0.952   4.502   5.186 -0.5390 -1.8039 -0.2197
 2563SOL    HW2 8906   0.949   4.455   5.330  0.8231  1.1028  0.8149
 2564SOL     OW 8907   1.235   5.487   4.983 -0.2305 -0.2367  0.2545
 2564SOL    HW1 8908   1.236   5.393   5.003 -0.3211 -0.3877 -0.4352
 2564SOL    HW2 8909   1.161   5.521   5.034 -0.0718 -0.4987  0.6675
 2565SOL     OW 8910   0.701   5.252   4.230 -0.3375  0.3792  0.5558
 2565SOL    HW1 8911   0.776   5.236   4.287  0.1311 -1.0244 -0.4087
 2565SOL    HW2 8912   0.677   5.343   4.248  1.3803  0.7593  1.1291
 2566SOL     OW 8913   0.904   5.959   4.322  0.1287 -0.1995  0.0067
 2566SOL    HW1 8914   0.854   5.912   4.256  0.3303  0.6617 -0.7869
 2566SOL    HW2 8915   0.993   5.965   4.286 -0.0798  1.5038 -0.3443
 2567SOL     OW 8916   1.598   4.251   3.675  0.1515  0.3537  0.3435
 2567SOL    HW1 8917   1.637   4.167   3.698  0.0269 -0.8436 -3.2517
 2567SOL    HW2 8918   1.674   4.310   3.667  0.5698 -0.2285 -0.0991
 2568SOL     OW 8919   0.242   3.985   4.674  0.1342 -0.1003 -0.4089
 2568SOL    HW1 8920   0.211   4.033   4.751 -0.6942  0.6633 -1.1978
 2568SOL    HW2 8921   0.294   4.049   4.625  0.3758 -0.4788 -0.6528
 2569SOL     OW 8922   0.501   3.968   4.887  0.2277 -0.1701 -0.1860
 2569SOL    HW1 8923   0.489   3.895   4.826 -4.8318 -1.8129  2.1705
 2569SOL    HW2 8924   0.558   3.933   4.956  0.7756 -0.5680 -0.8360
 2570SOL     OW 8925   1.344   4.130   4.512  0.0948 -0.1689  0.3317
 2570SOL    HW1 8926   1.313   4.089   4.432  0.6979  0.4485 -0.2268
 2570SOL    HW2 8927   1.276   4.193   4.535 -0.1785 -0.4966  0.4331
 2571SOL     OW 8928   1.005   4.010   4.484  0.2753 -0.5067  0.6948
 2571SOL    HW1 8929   1.060   4.077   4.524 -0.2032 -0.8555  2.0069
 2571SOL    HW2 8930   0.937   4.059   4.438 -1.8572  0.0752  4.0877
 2572SOL     OW 8931   1.186   5.188   3.932  0.4157 -0.1626 -0.3283
 2572SOL    HW1 8932   1.245   5.178   3.857  1.5444 -0.2846  0.5440
 2572SOL    HW2 8933   1.226   5.258   3.985 -0.1642 -0.3126  0.3213
 2573SOL     OW 8934   1.567   4.617   4.851 -0.0378  1.2243 -0.3963
 2573SOL    HW1 8935   1.529   4.632   4.938 -1.6545 -2.0288 -0.4175
 2573SOL    HW2 8936   1.657   4.589   4.869 -0.8920 -1.1787  0.4355
 2574SOL     OW 8937   1.580   4.578   3.517  0.1052  0.0204  0.8384
 2574SOL    HW1 8938   1.505   4.618   3.561 -0.4420 -0.2675  0.1934
 2574SOL    HW2 8939   1.553   4.572   3.425 -0.1343 -2.4992  1.0037
 2575SOL     OW 8940   0.133   5.013   3.785  0.1184  0.0202  0.2562
 2575SOL    HW1 8941   0.122   4.943   3.721  1.0235 -0.2721  0.4121
 2575SOL    HW2 8942   0.121   4.971   3.870 -1.8461  0.5527  0.2846
 2576SOL     OW 8943   1.446   5.253   4.073 -0.5533 -0.0833 -0.6103
 2576SOL    HW1 8944   1.476   5.204   4.150  0.8803  3.1582  1.1132
 2576SOL    HW2 8945   1.490   5.212   3.999  1.4095 -0.7688  0.8627
 2577SOL     OW 8946   1.753   4.062   3.742 -0.2202  0.0315 -0.2645
 2577SOL    HW1 8947   1.811   4.035   3.813  0.2130 -2.3103 -1.4062
 2577SOL    HW2 8948   1.808   4.060   3.664 -1.3693 -0.3674 -1.0983
 2578SOL     OW 8949   0.675   3.611   4.005  0.4035 -0.2995  0.4710
 2578SOL    HW1 8950   0.638   3.543   3.948 -0.2942  0.3234  0.1512
 2578SOL    HW2 8951   0.705   3.679   3.945  0.0177  0.1928  0.8192
 2579SOL     OW 8952   1.517   5.394   5.473  0.0851 -0.1633 -0.1523
 2579SOL    HW1 8953   1.476   5.416   5.557 -0.5807 -0.0561 -0.4949
 2579SOL    HW2 8954   1.599   5.443   5.473 -0.2569  0.4296  0.1254
 2580SOL     OW 8955   0.933   5.058   5.170 -0.2523  0.2265 -0.4080
 2580SOL    HW1 8956   0.866   4.992   5.189  0.2809 -0.4751 -0.8885
 2580SOL    HW2 8957   0.982   5.067   5.252  0.3332 -0.7799 -0.6220
 2581SOL     OW 8958   1.229   6.103   5.343  0.2036  0.2137 -0.5768
 2581SOL    HW1 8959   1.303   6.049   5.314  0.8388 -0.0291  1.3644
 2581SOL    HW2 8960   1.270   6.174   5.392 -0.8497 -0.0094  0.6561
 2582SOL     OW 8961   1.273   4.955   5.018  0.4012 -0.0740 -0.1336
 2582SOL    HW1 8962   1.188   4.985   4.985  0.2880  0.0420  0.2585
 2582SOL    HW2 8963   1.329   5.032   5.017  0.3184 -0.0078  0.1978
 2583SOL     OW 8964   1.202   4.948   4.474  0.5929  0.5028 -0.4307
 2583SOL    HW1 8965   1.233   5.001   4.401  1.4605  1.3649  0.5325
 2583SOL    HW2 8966   1.143   5.006   4.523  0.9848  0.3505  0.2366
 2584SOL     OW 8967   1.237   3.511   4.733  0.3533  0.0949 -0.5900
 2584SOL    HW1 8968   1.324   3.538   4.762  0.0844  1.3771 -0.9069
 2584SOL    HW2 8969   1.206   3.584   4.679 -0.6270 -0.6606 -1.0877
 2585SOL     OW 8970   0.762   4.463   5.407  0.2075 -0.0929 -0.1701
 2585SOL    HW1 8971   0.783   4.370   5.399 -0.3040 -0.1502 -0.8881
 2585SOL    HW2 8972   0.688   4.476   5.348  0.7986  0.9486 -0.6870
 2586SOL     OW 8973   0.817   4.135   4.291 -0.3621  0.4462 -0.1144
 2586SOL    HW1 8974   0.876   4.203   4.256 -0.3137 -0.4223 -1.8395
 2586SOL    HW2 8975   0.757   4.116   4.218 -1.8599  0.2678  1.1209
 2587SOL     OW 8976   0.831   4.717   5.509 -0.3025 -0.2632 -0.0038
 2587SOL    HW1 8977   0.925   4.716   5.524 -0.2124 -0.0318 -0.5494
 2587SOL    HW2 8978   0.809   4.627   5.484 -0.4002 -0.5737  1.1439
 2588SOL     OW 8979   1.484   3.614   4.992  0.1732  0.1090  0.1560
 2588SOL    HW1 8980   1.481   3.634   4.898 -0.1200  0.2974  0.2077
 2588SOL    HW2 8981   1.433   3.683   5.034  0.5746  0.2100  0.4885
 2589SOL     OW 8982   0.021   5.497   5.222  0.3378  0.0185 -1.0152
 2589SOL    HW1 8983   0.025   5.547   5.304 -1.8411 -0.0737 -0.7885
 2589SOL    HW2 8984   0.009   5.406   5.250 -0.0429 -0.0607 -1.4249
 2590SOL     OW 8985   0.703   4.634   3.984 -0.4851 -0.0231 -0.0247
 2590SOL    HW1 8986   0.768   4.622   4.053  0.2505 -0.1637 -0.7174
 2590SOL    HW2 8987   0.663   4.718   4.003  0.2213  0.2761  0.1612
 2591SOL     OW 8988   0.871   4.284   4.535  0.1624 -0.1927 -0.2605
 2591SOL    HW1 8989   0.819   4.259   4.459  0.5047  0.8180 -0.8576
 2591SOL    HW2 8990   0.814   4.344   4.584 -0.0306 -0.7850  0.2490
 2592SOL     OW 8991   1.118   5.401   4.152  0.0393  0.2883  0.0764
 2592SOL    HW1 8992   1.050   5.407   4.085 -0.2807  1.4123  0.4701
 2592SOL    HW2 8993   1.069   5.395   4.235  0.4271 -0.9096  0.2377
 2593SOL     OW 8994   1.708   5.441   4.681  0.1789  0.5348 -0.1339
 2593SOL    HW1 8995   1.667   5.376   4.624  1.0811  0.4107 -0.6599
 2593SOL    HW2 8996   1.744   5.389   4.753  0.5427  0.5004 -0.3420
 2594SOL     OW 8997   1.549   4.477   4.015  0.0537  0.1215 -0.3284
 2594SOL    HW1 8998   1.528   4.570   4.012  0.0613  0.2083  1.4059
 2594SOL    HW2 8999   1.494   4.438   3.947  0.4351  1.4316 -1.4409
 2595SOL     OW 9000   0.006   5.129   4.945  0.1253 -0.5236  0.4467
 2595SOL    HW1 9001   0.032   5.189   4.875 -0.7624 -1.6910 -0.9453
 2595SOL    HW2 9002   0.089   5.100   4.984  0.7115 -0.6742 -0.8599
 2596SOL     OW 9003   0.842   4.564   5.055  0.2013 -0.1275 -0.0826
 2596SOL    HW1 9004   0.876   4.538   4.969 -0.5509 -0.7424 -0.2023
 2596SOL    HW2 9005   0.792   4.644   5.038  1.5840  0.8204  0.1044
 2597SOL     OW 9006   1.164   4.883   5.776 -0.0696  0.0113 -0.2934
 2597SOL    HW1 9007   1.073   4.902   5.752  0.1454  1.7338  0.1958
 2597SOL    HW2 9008   1.214   4.957   5.742  0.5081  1.6363  3.6423
 2598SOL     OW 9009   0.984   3.638   5.405  0.5320  0.0750  0.2869
 2598SOL    HW1 9010   1.058   3.695   5.423 -0.1871  0.6434  1.6385
 2598SOL    HW2 9011   0.986   3.623   5.310  1.2232  1.6642  0.0332
 2599SOL     OW 9012   0.640   3.543   5.080  0.6719  0.0586  0.7440
 2599SOL    HW1 9013   0.584   3.563   5.005  0.5383  0.3303  0.9172
 2599SOL    HW2 9014   0.710   3.489   5.043  0.0869 -0.6158  0.6010
 2600SOL     OW 9015   1.008   4.768   4.896  0.6566  0.7626 -0.7227
 2600SOL    HW1 9016   0.971   4.690   4.854 -0.8143 -0.7580  3.0075
 2600SOL    HW2 9017   1.097   4.743   4.919  0.3378  0.2947  0.0533
 2601SOL     OW 9018   1.690   4.817   4.732  0.2904  0.4213  0.0325
 2601SOL    HW1 9019   1.750   4.836   4.804  1.4577  1.2817 -1.1363
 2601SOL    HW2 9020   1.639   4.742   4.763  2.1118 -0.4918  0.9852
 2602SOL     OW 9021   1.369   3.831   4.177  0.0878  0.2965 -0.0899
 2602SOL    HW1 9022   1.310   3.878   4.236 -1.0471 -0.1617 -0.8182
 2602SOL    HW2 9023   1.454   3.873   4.189 -0.6200  1.7241  0.1660
 2603SOL     OW 9024   0.399   3.579   4.876 -0.6615 -0.0694 -0.0305
 2603SOL    HW1 9025   0.422   3.646   4.812 -1.0446 -0.8011 -0.9580
 2603SOL    HW2 9026   0.305   3.592   4.891 -0.6585 -0.1595  0.0683
 2604SOL     OW 9027   8.441   4.912   4.994 -0.2992 -0.3730 -0.0460
 2604SOL    HW1 9028   8.497   4.987   5.015 -0.9839  0.2064 -0.2644
 2604SOL    HW2 9029   8.355   4.950   4.976 -0.3591 -1.0947 -1.3860
 2605SOL     OW 9030   0.712   4.412   4.707 -0.4143  0.0038 -0.2848
 2605SOL    HW1 9031   0.658   4.480   4.747  2.1777  1.9736  0.1785
 2605SOL    HW2 9032   0.683   4.331   4.749 -0.9074  1.3741  2.2436
 2606SOL     OW 9033   2.511   4.866   5.498 -0.2651  0.2615  0.4254
 2606SOL    HW1 9034   2.578   4.803   5.470  0.0787  0.7033  0.2327
 2606SOL    HW2 9035   2.438   4.852   5.437 -0.5181 -0.5023  0.8913
 2607SOL     OW 9036   0.475   3.496   4.435  0.8628 -0.3894  0.0755
 2607SOL    HW1 9037   0.553   3.521   4.386  0.0976  2.0995  0.0226
 2607SOL    HW2 9038   0.426   3.577   4.446 -1.8790 -1.8817 -0.1582
 2608SOL     OW 9039   1.918   3.705   4.010  0.2720 -0.2436  0.6773
 2608SOL    HW1 9040   2.001   3.706   4.059 -0.0524  1.4151  1.2401
 2608SOL    HW2 9041   1.890   3.613   4.013  2.5540 -1.0546 -0.3660
 2609SOL     OW 9042   0.956   4.762   4.456 -0.4636  0.1466  0.3875
 2609SOL    HW1 9043   0.891   4.832   4.464  0.1311  0.8039 -0.3084
 2609SOL    HW2 9044   1.040   4.808   4.461  0.0743 -0.9101  3.7667
 2610SOL     OW 9045   0.449   5.192   5.673  0.2242 -0.2737 -0.4818
 2610SOL    HW1 9046   0.487   5.279   5.674  0.4775 -0.2451 -3.4002
 2610SOL    HW2 9047   0.367   5.201   5.623 -1.3214 -1.2032  1.7054
 2611SOL     OW 9048   1.670   5.919   5.168 -0.0862 -0.2458 -0.6527
 2611SOL    HW1 9049   1.735   5.990   5.169 -2.2400  1.8737  0.4682
 2611SOL    HW2 9050   1.683   5.876   5.084  1.5866  1.2561 -1.2260
 2612SOL     OW 9051   0.404   4.638   5.286  0.2391 -0.2589  0.6002
 2612SOL    HW1 9052   0.321   4.682   5.305 -0.6275 -1.7634  0.4593
 2612SOL    HW2 9053   0.423   4.588   5.366  1.5790  0.8882  1.0333
 2613SOL     OW 9054   2.120   3.452   3.638  0.1774  0.1211  0.2632
 2613SOL    HW1 9055   2.156   3.523   3.690 -1.7819  0.2336  1.5529
 2613SOL    HW2 9056   2.132   3.374   3.692 -2.4389  0.3307  1.2781
 2614SOL     OW 9057   1.138   4.105   3.526  0.3599  0.0118 -0.6902
 2614SOL    HW1 9058   1.068   4.140   3.471 -0.2753  1.1364  0.7622
 2614SOL    HW2 9059   1.208   4.170   3.521  0.1222  0.3478  0.1488
 2615SOL     OW 9060   0.774   5.486   4.494  0.2942  0.3465  0.4687
 2615SOL    HW1 9061   0.720   5.511   4.419 -2.2940 -1.9591  1.3693
 2615SOL    HW2 9062   0.824   5.410   4.464 -0.8043 -0.6286  1.0049
 2616SOL     OW 9063   0.582   4.378   4.440 -0.3203  0.4803 -0.2269
 2616SOL    HW1 9064   0.535   4.439   4.384 -1.3240  0.1519  0.2310
 2616SOL    HW2 9065   0.635   4.434   4.497  0.6136  0.8224 -1.3792
 2617SOL     OW 9066   0.434   4.122   4.492 -0.4974  0.1806 -0.1950
 2617SOL    HW1 9067   0.458   4.211   4.464 -0.6561  1.4125  3.0825
 2617SOL    HW2 9068   0.517   4.080   4.514 -0.3800 -0.7355 -2.2099
 2618SOL     OW 9069   1.251   3.748   5.427 -0.1317 -0.7006 -0.1039
 2618SOL    HW1 9070   1.252   3.826   5.372  2.2732  1.1658  2.3241
 2618SOL    HW2 9071   1.336   3.707   5.413  0.6749 -0.0082  2.2927
 2619SOL     OW 9072   1.058   3.582   5.083  0.2094  0.2181 -1.0373
 2619SOL    HW1 9073   1.098   3.667   5.098 -0.0160  0.2880 -0.8183
 2619SOL    HW2 9074   1.132   3.521   5.075  0.3747 -0.0083  1.4602
 2620SOL     OW 9075   0.079   4.716   3.931  0.0502  0.6767 -0.2571
 2620SOL    HW1 9076   0.031   4.667   3.864 -0.9504 -1.2711  1.7746
 2620SOL    HW2 9077   0.167   4.726   3.894 -1.2153  2.4643 -3.1535
 2621SOL     OW 9078   8.785   5.809   4.872  0.1328  0.1225 -0.5772
 2621SOL    HW1 9079   8.736   5.740   4.917 -1.9871  1.9562  0.1030
 2621SOL    HW2 9080   8.738   5.823   4.790 -1.0203  2.3531  0.3669
 2622SOL     OW 9081   0.503   5.464   4.672 -0.1256  0.0638 -0.7150
 2622SOL    HW1 9082   0.598   5.464   4.686 -0.3107 -0.3985  0.7583
 2622SOL    HW2 9083   0.476   5.553   4.694 -0.3918 -0.6096  2.1921
 2623SOL     OW 9084   1.110   4.686   5.464 -0.0621 -0.6738  0.1488
 2623SOL    HW1 9085   1.164   4.724   5.395 -0.2973  0.4605  0.5553
 2623SOL    HW2 9086   1.055   4.621   5.420 -1.2105  1.0124 -1.0283
 2624SOL     OW 9087   0.140   4.121   4.414  0.3140 -0.0431 -0.5015
 2624SOL    HW1 9088   0.234   4.121   4.429  0.1182  1.8004  1.0629
 2624SOL    HW2 9089   0.124   4.198   4.359 -0.3514  0.0801 -0.1504
 2625SOL     OW 9090   0.406   4.281   5.416  0.3874 -0.1380 -0.4106
 2625SOL    HW1 9091   0.453   4.365   5.425 -0.0224  0.0887 -0.3778
 2625SOL    HW2 9092   0.445   4.241   5.339  1.3224 -0.3993  0.1844
 2626SOL     OW 9093   1.117   5.005   5.422 -0.2058 -0.1261  0.1091
 2626SOL    HW1 9094   1.179   5.004   5.495  1.9710 -0.0441 -1.6516
 2626SOL    HW2 9095   1.153   4.944   5.358 -1.8692  0.0547 -1.0738
 2627SOL     OW 9096   1.130   3.981   3.765  0.0664 -0.6249 -0.6478
 2627SOL    HW1 9097   1.219   3.968   3.798  0.3655 -0.7972 -1.4901
 2627SOL    HW2 9098   1.142   4.029   3.683 -0.6510 -0.2595 -0.5439
 2628SOL     OW 9099   1.814   4.488   4.758  0.1030 -0.4793 -0.0343
 2628SOL    HW1 9100   1.881   4.440   4.806  0.5676 -0.8475 -1.0183
 2628SOL    HW2 9101   1.863   4.553   4.706 -0.2983 -0.6639 -0.6636
 2629SOL     OW 9102   0.206   5.556   4.773  0.4281 -0.3369 -0.2073
 2629SOL    HW1 9103   0.281   5.615   4.782  0.4777 -0.4111 -0.1358
 2629SOL    HW2 9104   0.208   5.528   4.681 -1.5223  2.3591 -1.2021
 2630SOL     OW 9105   1.013   3.963   4.958  0.3614 -0.3513 -0.3523
 2630SOL    HW1 9106   1.002   3.924   4.871 -1.1462 -0.5179 -0.1016
 2630SOL    HW2 9107   0.929   4.005   4.977  0.2029 -1.4149  1.5538
 2631SOL     OW 9108   1.041   5.747   5.336  0.3331  0.5300  0.2610
 2631SOL    HW1 9109   1.107   5.731   5.403  1.4934 -0.6714 -1.1230
 2631SOL    HW2 9110   1.081   5.810   5.277  1.2468 -1.7849 -1.7920
 2632SOL     OW 9111   0.336   3.632   3.239 -0.1521  0.1123 -0.2244
 2632SOL    HW1 9112   0.417   3.610   3.286  0.1006 -0.4348 -0.8983
 2632SOL    HW2 9113   0.270   3.638   3.308  0.4085  0.2990  0.3075
 2633SOL     OW 9114   0.192   4.590   4.764  0.2037 -0.3754  0.5771
 2633SOL    HW1 9115   0.227   4.626   4.845  1.2736 -2.7426  1.2763
 2633SOL    HW2 9116   0.099   4.578   4.782  0.3010 -0.2332  1.2024
 2634SOL     OW 9117   1.304   4.692   4.941 -0.2750  0.3644  0.1852
 2634SOL    HW1 9118   1.368   4.705   4.871  0.5455 -1.2367  0.6014
 2634SOL    HW2 9119   1.307   4.774   4.991  1.5211  0.3003  0.2361
 2635SOL     OW 9120   1.372   4.088   3.888 -0.4919  0.7509 -0.2351
 2635SOL    HW1 9121   1.338   4.167   3.930  0.4894  0.2496  1.6070
 2635SOL    HW2 9122   1.442   4.120   3.830 -0.1767  1.2643  0.4136
 2636SOL     OW 9123   1.210   6.046   4.834  0.3505 -0.1872 -0.3614
 2636SOL    HW1 9124   1.263   5.967   4.845  1.5765  0.7307  0.7164
 2636SOL    HW2 9125   1.123   6.014   4.811  0.8373 -1.8444 -0.0228
 2637SOL     OW 9126   1.127   5.289   4.790 -0.2700 -0.0783  0.1052
 2637SOL    HW1 9127   1.127   5.261   4.882 -3.0659  0.9827  0.5196
 2637SOL    HW2 9128   1.145   5.383   4.793  1.8971 -0.4022 -0.6961
 2638SOL     OW 9129   8.801   4.938   4.726  0.5650  0.0277 -0.5755
 2638SOL    HW1 9130   8.820   4.976   4.812  0.1471 -1.1136  0.0397
 2638SOL    HW2 9131   8.752   5.007   4.680 -0.3766  0.1838  0.5905
 2639SOL     OW 9132   0.787   5.618   5.359  0.0678  0.3479 -0.6950
 2639SOL    HW1 9133   0.745   5.646   5.440 -1.3830 -0.3664 -1.1638
 2639SOL    HW2 9134   0.864   5.674   5.352  0.4530  0.1635  1.3619
 2640SOL     OW 9135   1.808   3.964   4.011  0.9228  0.2615  0.0890
 2640SOL    HW1 9136   1.888   4.017   4.002  1.9079 -1.2577 -0.5939
 2640SOL    HW2 9137   1.840   3.874   4.018 -0.6754 -0.2492  1.5680
 2641SOL     OW 9138   0.880   5.597   4.133  0.0363 -0.7992 -0.0198
 2641SOL    HW1 9139   0.933   5.677   4.128 -1.6023  0.2738 -1.3303
 2641SOL    HW2 9140   0.842   5.588   4.045 -2.4154 -1.1610  1.0128
 2642SOL     OW 9141   0.223   5.557   5.564 -0.1190 -0.1817 -0.0229
 2642SOL    HW1 9142   0.272   5.526   5.488 -2.8109 -2.2793 -1.0847
 2642SOL    HW2 9143   0.183   5.640   5.535  0.8739  0.3282  0.0357
 2643SOL     OW 9144   1.425   4.596   4.291  0.4121 -0.1461 -0.1865
 2643SOL    HW1 9145   1.472   4.623   4.212  1.6095 -0.5895  0.3428
 2643SOL    HW2 9146   1.482   4.624   4.363 -0.0356 -0.8879  0.4649
 2644SOL     OW 9147   0.757   4.906   5.327  0.5753  0.3707  0.3514
 2644SOL    HW1 9148   0.769   4.841   5.396  0.1950  1.2755  1.2948
 2644SOL    HW2 9149   0.663   4.919   5.321  0.6819  1.3725  0.6929
 2645SOL     OW 9150   0.228   5.475   3.645 -0.5627  0.2084  1.1310
 2645SOL    HW1 9151   0.222   5.380   3.643  0.2192  0.1526  1.0167
 2645SOL    HW2 9152   0.182   5.500   3.726 -2.0046 -0.1403  0.4446
 2646SOL     OW 9153   1.426   5.892   5.282 -0.4003 -0.2863 -0.1257
 2646SOL    HW1 9154   1.455   5.848   5.362  0.2622  0.7273  0.2195
 2646SOL    HW2 9155   1.506   5.913   5.235 -0.7580 -0.4142 -0.8049
 2647SOL     OW 9156   1.809   4.075   4.658  0.1614 -0.5788  0.5232
 2647SOL    HW1 9157   1.881   4.012   4.665 -0.0169 -0.7782  0.5853
 2647SOL    HW2 9158   1.771   4.058   4.571  1.3775  0.8131 -0.3060
 2648SOL     OW 9159   0.431   3.736   4.098 -0.9685 -0.5270  0.4102
 2648SOL    HW1 9160   0.525   3.722   4.083 -0.9832  0.2913 -0.5706
 2648SOL    HW2 9161   0.427   3.811   4.157 -0.9899 -1.1039  1.1412
 2649SOL     OW 9162   1.272   5.521   3.772  0.8396 -0.1692  0.1822
 2649SOL    HW1 9163   1.266   5.427   3.755  0.1376 -0.3944  1.5638
 2649SOL    HW2 9164   1.300   5.528   3.863  1.3889  0.9722 -0.0475
 2650SOL     OW 9165   0.570   4.615   4.845 -0.1290  0.0307  0.1064
 2650SOL    HW1 9166   0.579   4.655   4.932 -0.1861  0.8347 -0.2467
 2650SOL    HW2 9167   0.593   4.686   4.784  0.4679 -0.6833 -0.5202
 2651SOL     OW 9168   0.946   4.348   4.133 -0.0425  0.1115  0.6142
 2651SOL    HW1 9169   1.041   4.346   4.133  0.0016 -1.9546  2.4101
 2651SOL    HW2 9170   0.924   4.441   4.145  1.7067  0.6434  0.0485
 2652SOL     OW 9171   1.298   5.799   3.958  0.7797 -0.1462 -0.6207
 2652SOL    HW1 9172   1.212   5.758   3.945 -1.0600  2.8934  0.7810
 2652SOL    HW2 9173   1.355   5.755   3.895 -1.5655 -2.8388 -1.1001
 2653SOL     OW 9174   1.009   5.497   5.170 -0.1407 -1.3673  0.1770
 2653SOL    HW1 9175   1.006   5.582   5.214 -1.3992 -0.9668 -0.6179
 2653SOL    HW2 9176   1.055   5.440   5.231  5.7221  0.9954 -1.3071
 2654SOL     OW 9177   1.438   5.177   5.057  0.5567 -0.7972  0.1692
 2654SOL    HW1 9178   1.412   5.241   5.123 -2.4640 -1.9979  0.3004
 2654SOL    HW2 9179   1.510   5.128   5.098  1.8941  1.4275  0.6345
 2655SOL     OW 9180   0.788   5.048   4.426  0.2540 -0.5926  0.4169
 2655SOL    HW1 9181   0.696   5.070   4.438  0.4484  0.4833  0.0153
 2655SOL    HW2 9182   0.836   5.120   4.469  0.9072 -0.2087 -0.9051
 2656SOL     OW 9183   0.871   3.723   4.518  0.1462 -0.2571 -0.0716
 2656SOL    HW1 9184   0.857   3.780   4.443  0.3236  0.8202  0.6945
 2656SOL    HW2 9185   0.848   3.635   4.487  1.6143 -0.0781 -1.8075
 2657SOL     OW 9186   0.513   5.723   4.117 -0.4635 -0.1824 -0.2756
 2657SOL    HW1 9187   0.459   5.657   4.074 -0.8950 -1.2110  1.7790
 2657SOL    HW2 9188   0.452   5.790   4.146 -0.0453  1.1224 -2.1978
 2658SOL     OW 9189   2.148   4.295   5.338 -0.6439  0.1013  0.4595
 2658SOL    HW1 9190   2.069   4.273   5.288 -0.0107  0.3952 -0.7195
 2658SOL    HW2 9191   2.220   4.277   5.278  0.2169 -0.4551  1.6217
 2659SOL     OW 9192   0.010   4.769   4.204 -0.3419 -0.1513  0.3382
 2659SOL    HW1 9193   0.060   4.767   4.122  0.0860  0.0375  0.5903
 2659SOL    HW2 9194   0.056   4.833   4.258  0.5684 -1.6736  1.4725
 2660SOL     OW 9195   0.295   4.786   4.963  0.2571 -0.3997  0.3285
 2660SOL    HW1 9196   0.263   4.866   5.005 -0.0831  0.4688 -1.4649
 2660SOL    HW2 9197   0.368   4.758   5.018  0.7451  1.4568  0.7243
 2661SOL     OW 9198   1.264   3.793   5.106 -0.0840 -0.2116  0.5799
 2661SOL    HW1 9199   1.238   3.858   5.171  0.8746 -0.0736  0.8314
 2661SOL    HW2 9200   1.266   3.842   5.023  0.7895  0.1310  0.7931
 2662SOL     OW 9201   0.388   3.421   3.543 -0.2006  0.2641 -0.0620
 2662SOL    HW1 9202   0.311   3.471   3.516  0.5238  0.6250 -1.6023
 2662SOL    HW2 9203   0.462   3.470   3.505  0.7591 -0.2541  1.0940
 2663SOL     OW 9204   1.280   4.539   5.258  0.1666  0.0378  0.3175
 2663SOL    HW1 9205   1.359   4.485   5.251 -0.1687 -0.2751 -1.4585
 2663SOL    HW2 9206   1.208   4.475   5.257 -0.1640  0.4054  0.4086
 2664SOL     OW 9207   0.289   3.582   3.932 -0.1023  0.6172  0.5486
 2664SOL    HW1 9208   0.327   3.637   4.000  1.7411  0.3700 -0.2068
 2664SOL    HW2 9209   0.303   3.492   3.963 -0.8154  0.5380  0.6362
 2665SOL     OW 9210   1.103   5.097   4.217 -0.0403  0.1804  0.2936
 2665SOL    HW1 9211   1.091   5.004   4.239 -1.2366  0.4034  0.6588
 2665SOL    HW2 9212   1.114   5.097   4.122  1.0489 -0.4240  0.4086
 2666SOL     OW 9213   0.434   4.388   4.884 -0.1651 -0.3150 -0.2418
 2666SOL    HW1 9214   0.471   4.476   4.874  0.8595 -0.5526  1.0904
 2666SOL    HW2 9215   0.508   4.329   4.866 -0.4897 -0.8585  0.1620
 2667SOL     OW 9216   1.205   5.872   5.118 -0.3343 -0.8285 -0.4084
 2667SOL    HW1 9217   1.248   5.875   5.033 -0.5449  4.1051 -0.6128
 2667SOL    HW2 9218   1.277   5.883   5.181 -0.6214  2.0662 -0.4617
 2668SOL     OW 9219   0.530   4.288   5.168 -0.2139  0.5387  0.6057
 2668SOL    HW1 9220   0.599   4.269   5.105 -1.2126 -0.3501 -0.2689
 2668SOL    HW2 9221   0.456   4.316   5.115 -0.9475  0.2055  1.4181
 2669SOL     OW 9222   1.329   5.325   5.290  0.2368  0.5568 -0.6559
 2669SOL    HW1 9223   1.274   5.289   5.359  1.5083 -1.9455 -0.8498
 2669SOL    HW2 9224   1.395   5.376   5.337 -2.0783  3.6469 -0.4265
 2670SOL     OW 9225   0.436   5.751   5.411 -0.5272  0.4454  0.7281
 2670SOL    HW1 9226   0.348   5.789   5.412 -1.0180 -0.6677  0.8940
 2670SOL    HW2 9227   0.449   5.722   5.321  0.1417  1.6310  0.4187
 2671SOL     OW 9228   1.632   4.297   4.762 -0.2529 -0.5276  0.1126
 2671SOL    HW1 9229   1.687   4.373   4.742 -1.5833  0.3523 -0.4002
 2671SOL    HW2 9230   1.679   4.222   4.728  1.6492 -0.1034  1.6348
 2672SOL     OW 9231   1.430   3.560   4.081  0.7033 -0.6066  0.0868
 2672SOL    HW1 9232   1.421   3.649   4.114 -0.4746 -1.4857  2.3427
 2672SOL    HW2 9233   1.341   3.533   4.059  1.1172 -1.0704 -1.0974
 2673SOL     OW 9234   0.704   4.645   4.521  0.5094 -0.4845 -0.8203
 2673SOL    HW1 9235   0.658   4.694   4.589  0.0299 -2.3402  0.3003
 2673SOL    HW2 9236   0.794   4.678   4.524  0.8295 -1.3214  1.6538
 2674SOL     OW 9237   1.466   4.115   5.082 -0.2652 -0.4712 -0.3225
 2674SOL    HW1 9238   1.375   4.134   5.060 -0.4210 -0.3876  0.3964
 2674SOL    HW2 9239   1.497   4.062   5.008 -0.7926 -0.2270 -0.7326
 2675SOL     OW 9240   1.717   4.542   5.165  0.0342 -0.0135 -0.0175
 2675SOL    HW1 9241   1.644   4.481   5.154 -0.6070  0.8303 -0.6189
 2675SOL    HW2 9242   1.679   4.628   5.146  0.8691  0.6041  0.9751
 2676SOL     OW 9243   0.656   4.832   3.646 -0.4197  0.6423 -0.3178
 2676SOL    HW1 9244   0.619   4.816   3.732 -1.1918  1.5194 -0.4689
 2676SOL    HW2 9245   0.631   4.922   3.625  1.7054  1.2624 -0.4774
 2677SOL     OW 9246   0.565   5.484   5.141  0.5162  0.0420  0.4036
 2677SOL    HW1 9247   0.639   5.426   5.154 -0.6877 -1.9223 -0.9942
 2677SOL    HW2 9248   0.602   5.572   5.150  2.6212 -0.8695  1.4850
 2678SOL     OW 9249   1.338   4.757   4.634 -0.0109 -0.5053 -0.0757
 2678SOL    HW1 9250   1.303   4.834   4.588 -0.1125 -1.2327 -1.2476
 2678SOL    HW2 9251   1.419   4.736   4.588  0.3186 -0.7543  0.6071
 2679SOL     OW 9252   1.096   4.429   3.892  0.6234  0.7832  0.0932
 2679SOL    HW1 9253   1.185   4.412   3.863  0.8757  0.3726  1.0548
 2679SOL    HW2 9254   1.042   4.417   3.814  1.5214  2.2600 -0.8024
 2680SOL     OW 9255   1.842   5.671   4.625 -0.1820  0.5732 -0.1213
 2680SOL    HW1 9256   1.803   5.589   4.652 -1.4383  1.2468  0.1893
 2680SOL    HW2 9257   1.936   5.658   4.635 -0.4009 -0.5884  0.5514
 2681SOL     OW 9258   0.276   5.426   5.175 -0.1785 -0.1651  0.1633
 2681SOL    HW1 9259   0.326   5.508   5.174  1.3201 -1.0289 -0.9721
 2681SOL    HW2 9260   0.185   5.453   5.161  0.2943  1.2951 -0.3510
 2682SOL     OW 9261   0.238   4.820   4.651 -0.1887  0.3564 -0.0100
 2682SOL    HW1 9262   0.218   4.731   4.679  1.1635  0.5108  1.6332
 2682SOL    HW2 9263   0.222   4.874   4.728 -1.8033  1.7070 -1.2215
 2683SOL     OW 9264   0.585   4.936   5.633 -0.5429  0.0813  0.0673
 2683SOL    HW1 9265   0.611   4.925   5.542 -0.8533 -0.2869  0.0194
 2683SOL    HW2 9266   0.598   5.029   5.651  2.7725 -0.3590  0.6634
 2684SOL     OW 9267   2.219   4.132   4.848 -0.0690  0.3578 -0.3364
 2684SOL    HW1 9268   2.300   4.116   4.895  0.1236 -0.3522 -0.8866
 2684SOL    HW2 9269   2.151   4.125   4.915  0.0562 -2.2669 -0.3748
 2685SOL     OW 9270   1.131   4.280   4.576  0.2651 -0.0321  0.2871
 2685SOL    HW1 9271   1.147   4.369   4.608 -0.9080 -0.5521  2.6200
 2685SOL    HW2 9272   1.035   4.271   4.580  0.3439 -1.2399 -0.3403
 2686SOL     OW 9273   1.311   5.784   4.853 -0.5122 -0.0074 -0.3814
 2686SOL    HW1 9274   1.254   5.707   4.858 -0.2765 -0.1505  0.2146
 2686SOL    HW2 9275   1.395   5.750   4.821  0.3455 -0.4599  2.1175
 2687SOL     OW 9276   0.176   4.298   4.876 -0.2518  0.1757 -0.4317
 2687SOL    HW1 9277   0.258   4.338   4.904 -1.4573  0.7435  2.6512
 2687SOL    HW2 9278   0.165   4.326   4.785  2.6077  0.5851 -0.7399
 2688SOL     OW 9279   0.763   5.869   4.126 -0.3989  0.4402  0.3946
 2688SOL    HW1 9280   0.696   5.813   4.167 -1.2705  1.8151  0.9340
 2688SOL    HW2 9281   0.720   5.904   4.048 -0.2481  1.1757  0.6354
 2689SOL     OW 9282   1.206   4.011   4.293  0.8053 -0.0594 -0.1922
 2689SOL    HW1 9283   1.120   3.983   4.323  0.8902  0.0769  0.1759
 2689SOL    HW2 9284   1.189   4.081   4.231  0.6634  0.1201  0.0522
 2690SOL     OW 9285   1.278   3.291   4.409 -0.3725 -0.3163  0.4066
 2690SOL    HW1 9286   1.325   3.368   4.441 -0.0008 -0.7836  1.0211
 2690SOL    HW2 9287   1.293   3.291   4.314 -1.9602  1.4036  0.1091
 2691SOL     OW 9288   0.740   5.217   3.947  0.4131 -0.0109  0.5978
 2691SOL    HW1 9289   0.778   5.134   3.918 -0.1603  0.0431 -0.3391
 2691SOL    HW2 9290   0.706   5.199   4.034 -1.3915 -1.3243 -0.3148
 2692SOL     OW 9291   0.367   5.253   4.736 -0.1900  0.1519 -0.1980
 2692SOL    HW1 9292   0.390   5.263   4.829  1.2600  0.4724 -0.5569
 2692SOL    HW2 9293   0.407   5.329   4.694 -3.6267  1.8900 -0.6953
 2693SOL     OW 9294   1.154   3.769   3.992  0.3408 -0.4098 -0.0722
 2693SOL    HW1 9295   1.236   3.793   4.035  0.6490 -1.7918  0.1442
 2693SOL    HW2 9296   1.177   3.758   3.900  0.3950 -0.7500 -0.0194
 2694SOL     OW 9297   1.346   3.583   4.431  0.2040 -0.4083 -0.1095
 2694SOL    HW1 9298   1.305   3.615   4.511 -0.1816 -1.3113  0.0628
 2694SOL    HW2 9299   1.423   3.639   4.419 -0.3076  0.3977  0.3196
 2695SOL     OW 9300   1.494   3.911   4.652 -0.6170  0.1663  0.3660
 2695SOL    HW1 9301   1.421   3.967   4.627 -1.5277 -1.4534 -0.7960
 2695SOL    HW2 9302   1.560   3.925   4.584 -0.3741  0.6515  0.6965
 2696SOL     OW 9303   0.521   4.426   3.659  0.2178  0.2385 -0.1098
 2696SOL    HW1 9304   0.608   4.423   3.698  0.5228  0.4789 -0.7672
 2696SOL    HW2 9305   0.519   4.353   3.597 -0.4188 -0.4112  0.6550
 2697SOL     OW 9306   0.555   5.321   3.749  0.0935 -0.4172 -0.1902
 2697SOL    HW1 9307   0.469   5.298   3.786 -0.6185  1.7036 -0.4199
 2697SOL    HW2 9308   0.616   5.311   3.823 -0.4709 -1.1174  0.1993
 2698SOL     OW 9309   0.032   4.320   5.586 -0.7391  0.4003 -0.6012
 2698SOL    HW1 9310   0.063   4.345   5.499  1.3575  2.0473  0.5337
 2698SOL    HW2 9311   0.111   4.319   5.640 -2.1267  0.5123  1.5421
 2699SOL     OW 9312   8.520   4.389   6.694  0.1220  0.5632 -0.0378
 2699SOL    HW1 9313   8.481   4.314   6.739  2.1255  0.5794  1.8795
 2699SOL    HW2 9314   8.546   4.354   6.608  1.7663 -1.2631  1.1109
 2700SOL     OW 9315   8.420   4.031   6.065 -0.0660  0.1768  0.0233
 2700SOL    HW1 9316   8.511   4.022   6.037 -0.3801 -0.3914 -0.8380
 2700SOL    HW2 9317   8.369   4.003   5.990 -0.9389 -0.9555  1.0055
 2701SOL     OW 9318   0.455   5.038   6.646  0.1533 -0.0856  0.2927
 2701SOL    HW1 9319   0.409   5.102   6.701 -0.6850  0.1736 -0.6756
 2701SOL    HW2 9320   0.526   5.006   6.700 -0.8201 -0.0492  1.6322
 2702SOL     OW 9321   1.296   4.893   6.165  0.3796  0.0537  0.0255
 2702SOL    HW1 9322   1.342   4.817   6.128 -1.9270 -1.4204 -0.0332
 2702SOL    HW2 9323   1.212   4.895   6.120  0.1014  2.2621  0.5382
 2703SOL     OW 9324   1.113   4.268   6.199  0.4040  0.0295  0.2767
 2703SOL    HW1 9325   1.120   4.337   6.266  0.5183  0.5302 -0.2453
 2703SOL    HW2 9326   1.031   4.224   6.219 -1.8014  2.8544 -1.7329
 2704SOL     OW 9327   1.775   4.239   5.779  0.2343  0.4615 -0.3119
 2704SOL    HW1 9328   1.819   4.258   5.696  1.2941  0.5718  0.2482
 2704SOL    HW2 9329   1.809   4.153   5.805  1.6605  1.3962  1.0851
 2705SOL     OW 9330   0.589   4.727   6.699 -0.8216 -0.3282  0.7797
 2705SOL    HW1 9331   0.598   4.822   6.694 -0.7476 -0.2369  2.2515
 2705SOL    HW2 9332   0.499   4.713   6.729 -1.5879 -0.8310 -1.5250
 2706SOL     OW 9333   0.947   4.556   7.236 -0.1074  0.4623  0.1262
 2706SOL    HW1 9334   0.887   4.621   7.201 -1.1307 -0.7411 -0.4584
 2706SOL    HW2 9335   1.006   4.535   7.164 -0.2581  0.2046  0.0769
 2707SOL     OW 9336   0.312   4.295   6.637 -0.0937 -0.1826 -0.2954
 2707SOL    HW1 9337   0.394   4.248   6.622 -0.7396 -1.7668  0.9199
 2707SOL    HW2 9338   0.252   4.229   6.670 -0.8967  1.5602  1.9969
 2708SOL     OW 9339   0.961   4.939   7.169  0.5691  0.6617  0.4756
 2708SOL    HW1 9340   0.917   4.862   7.134  1.6526  0.3579 -0.2707
 2708SOL    HW2 9341   0.921   5.012   7.122  0.1517  0.4825  0.5472
 2709SOL     OW 9342   0.171   5.148   6.450  0.1199 -0.3151  0.0990
 2709SOL    HW1 9343   0.232   5.099   6.395  0.9525 -0.5073  1.1610
 2709SOL    HW2 9344   0.153   5.228   6.400  1.7361  0.0369  0.0225
 2710SOL     OW 9345   1.244   5.408   6.861 -0.0685 -0.3091 -0.0705
 2710SOL    HW1 9346   1.259   5.318   6.829 -0.3774 -0.2792 -0.3041
 2710SOL    HW2 9347   1.307   5.418   6.933 -0.1704 -0.7858  0.0935
 2711SOL     OW 9348   0.426   4.009   7.039 -0.1094  0.3021 -0.0786
 2711SOL    HW1 9349   0.379   4.059   6.971 -1.0585 -1.6546 -0.9307
 2711SOL    HW2 9350   0.414   3.918   7.014  0.9312 -0.4092  1.8490
 2712SOL     OW 9351   1.550   4.336   5.901 -0.4257  0.1289  0.7516
 2712SOL    HW1 9352   1.635   4.310   5.867 -0.8992 -0.1739 -0.2676
 2712SOL    HW2 9353   1.513   4.256   5.939 -0.6089  0.0418  0.3984
 2713SOL     OW 9354   8.653   5.915   6.062  0.1591 -0.4217  0.3828
 2713SOL    HW1 9355   8.725   5.894   6.122 -0.4764  0.1135  1.3585
 2713SOL    HW2 9356   8.651   6.010   6.058  1.4908 -0.4226 -2.1376
 2714SOL     OW 9357   1.035   5.057   6.906  0.1297  0.7993  0.5313
 2714SOL    HW1 9358   1.031   4.991   6.837  0.3293  1.4899 -0.1562
 2714SOL    HW2 9359   0.952   5.104   6.900 -0.2734  0.2302  1.4230
 2715SOL     OW 9360   0.191   5.105   5.600  0.2791 -0.0269 -0.3546
 2715SOL    HW1 9361   0.123   5.052   5.559  0.0152  0.1535 -0.1551
 2715SOL    HW2 9362   0.155   5.193   5.603  0.5802  0.0991 -0.3786
 2716SOL     OW 9363   0.753   4.493   6.634  0.0087  0.0270  0.4909
 2716SOL    HW1 9364   0.692   4.567   6.629  0.5042  0.4264  0.2923
 2716SOL    HW2 9365   0.704   4.419   6.597 -0.5858  0.1838  0.9462
 2717SOL     OW 9366   0.236   5.335   7.047 -0.5075 -0.3813  0.0378
 2717SOL    HW1 9367   0.278   5.339   7.133  0.3201 -0.9338 -0.3300
 2717SOL    HW2 9368   0.293   5.278   6.995  0.2624  1.7173 -1.5556
 2718SOL     OW 9369   0.661   4.786   5.874 -0.0668  0.3652 -0.0103
 2718SOL    HW1 9370   0.635   4.831   5.794 -1.8961 -0.4268  0.0799
 2718SOL    HW2 9371   0.745   4.745   5.853 -1.3441 -1.3520 -2.1826
 2719SOL     OW 9372   1.355   4.105   6.239  0.1233  0.5837  0.6044
 2719SOL    HW1 9373   1.268   4.144   6.231  0.7504  2.1040  1.0033
 2719SOL    HW2 9374   1.339   4.011   6.229 -1.6070  0.7942  0.9936
 2720SOL     OW 9375   8.849   4.772   6.155  0.1965 -0.0001  0.1330
 2720SOL    HW1 9376   8.769   4.743   6.110 -1.2995  0.7716  2.1204
 2720SOL    HW2 9377   8.910   4.700   6.144 -0.6047 -0.4709 -1.7774
 2721SOL     OW 9378   1.640   6.102   6.143 -0.0473 -0.1064  0.0392
 2721SOL    HW1 9379   1.665   6.032   6.203  1.5137  1.0922  0.8803
 2721SOL    HW2 9380   1.720   6.153   6.132 -0.8734  0.9537 -1.3636
 2722SOL     OW 9381   0.083   5.685   5.972  0.0154  0.2408  0.2295
 2722SOL    HW1 9382   0.016   5.628   6.010 -0.5778 -0.2640 -1.4666
 2722SOL    HW2 9383   0.165   5.655   6.012 -0.6350  0.2215  1.6029
 2723SOL     OW 9384   1.598   4.519   6.155  0.1022 -0.1417  0.1661
 2723SOL    HW1 9385   1.582   4.428   6.181 -0.1679 -0.4184 -0.9218
 2723SOL    HW2 9386   1.672   4.514   6.095  0.8587  0.5113  1.0214
 2724SOL     OW 9387   2.082   4.457   6.031  0.1963  0.2183 -0.6495
 2724SOL    HW1 9388   2.166   4.415   6.053 -0.4908 -0.6906  0.3100
 2724SOL    HW2 9389   2.101   4.551   6.036  0.4314  0.0933  2.7370
 2725SOL     OW 9390   0.772   4.235   6.891  0.6235  0.2397 -0.3837
 2725SOL    HW1 9391   0.744   4.224   6.982  0.6825  1.1586 -0.2425
 2725SOL    HW2 9392   0.784   4.146   6.858 -1.4037 -0.1577 -0.1268
 2726SOL     OW 9393   0.854   4.561   6.322  0.0898  0.0164  0.3852
 2726SOL    HW1 9394   0.936   4.538   6.279 -0.2150 -2.8750  1.1252
 2726SOL    HW2 9395   0.809   4.477   6.335 -2.9232  1.4529  0.1840
 2727SOL     OW 9396   1.372   4.702   7.037  0.0730  0.6133  0.0089
 2727SOL    HW1 9397   1.280   4.722   7.023 -0.0998  1.5910  2.1828
 2727SOL    HW2 9398   1.414   4.722   6.953 -1.3334  2.5563 -0.3080
 2728SOL     OW 9399   1.140   3.713   5.986  0.1603 -0.3113  0.8547
 2728SOL    HW1 9400   1.141   3.625   5.948 -0.1814  0.0077  0.0985
 2728SOL    HW2 9401   1.087   3.704   6.066  1.0678 -1.0298  1.4039
 2729SOL     OW 9402   0.057   4.509   6.761 -0.0300  0.1319 -0.5298
 2729SOL    HW1 9403   0.115   4.453   6.709  1.0733  1.1344 -0.4167
 2729SOL    HW2 9404   0.049   4.464   6.845  1.5621  0.5296 -0.1281
 2730SOL     OW 9405   1.823   4.468   5.963  0.3165  0.1208 -0.0156
 2730SOL    HW1 9406   1.825   4.408   5.889  0.6021  0.0422  0.0532
 2730SOL    HW2 9407   1.915   4.475   5.990 -0.0126 -1.8683  1.9375
 2731SOL     OW 9408   1.167   5.635   7.561  0.4347 -0.4277  0.3435
 2731SOL    HW1 9409   1.129   5.681   7.636  0.5303 -1.4618  1.0389
 2731SOL    HW2 9410   1.100   5.573   7.534  0.9868 -1.1041  0.5201
 2732SOL     OW 9411   0.408   3.752   7.563 -0.0268  0.9686 -0.0502
 2732SOL    HW1 9412   0.383   3.788   7.648 -0.7372  0.0353  0.1589
 2732SOL    HW2 9413   0.418   3.829   7.507 -2.8264  1.4942  0.0115
 2733SOL     OW 9414   1.516   4.904   6.485  0.3308  0.3654  0.1004
 2733SOL    HW1 9415   1.574   4.967   6.529 -0.5903  2.5895 -1.6405
 2733SOL    HW2 9416   1.445   4.958   6.450 -1.3447 -1.8984 -0.1977
 2734SOL     OW 9417   1.479   5.546   6.295 -0.3583  0.1266  0.5631
 2734SOL    HW1 9418   1.557   5.577   6.250 -1.2884  0.8396 -0.5969
 2734SOL    HW2 9419   1.513   5.486   6.362  1.0783 -0.8091 -0.9180
 2735SOL     OW 9420   0.319   4.890   5.751  0.1413 -0.5429  0.1849
 2735SOL    HW1 9421   0.411   4.913   5.741  0.5081 -0.6645  2.7045
 2735SOL    HW2 9422   0.272   4.965   5.714  1.2079 -0.5388 -1.2425
 2736SOL     OW 9423   0.698   4.029   6.518  0.5418  0.5627  0.1582
 2736SOL    HW1 9424   0.763   4.047   6.450  0.9717 -2.1266 -0.2231
 2736SOL    HW2 9425   0.750   4.017   6.598  0.0408  3.7601  1.1477
 2737SOL     OW 9426   1.397   5.607   5.933  0.1983 -0.2729  0.2820
 2737SOL    HW1 9427   1.453   5.594   6.009  0.5031 -0.9902 -0.0524
 2737SOL    HW2 9428   1.311   5.626   5.969  0.2783 -0.8809  0.8145
 2738SOL     OW 9429   0.723   4.377   7.430  0.2521  0.4230 -0.4230
 2738SOL    HW1 9430   0.770   4.356   7.350  2.8475  1.4140  0.7211
 2738SOL    HW2 9431   0.748   4.307   7.491 -1.6565 -0.3017 -0.4123
 2739SOL     OW 9432   1.666   3.937   6.853  0.0468 -0.7247  0.2866
 2739SOL    HW1 9433   1.667   4.024   6.814  0.0835 -0.5425  0.7018
 2739SOL    HW2 9434   1.719   3.884   6.792  2.4152  0.1584  1.4521
 2740SOL     OW 9435   0.812   4.755   7.068  0.2725  0.4166  0.0386
 2740SOL    HW1 9436   0.720   4.747   7.092 -0.0490 -1.0395 -1.5563
 2740SOL    HW2 9437   0.813   4.751   6.973  1.9891  0.4459  0.0240
 2741SOL     OW 9438   0.755   3.970   6.823 -0.1838 -0.0515  0.4555
 2741SOL    HW1 9439   0.839   3.929   6.846  0.1147  1.0541  1.4363
 2741SOL    HW2 9440   0.689   3.911   6.860  0.2630  0.8250  2.8559
 2742SOL     OW 9441   0.875   4.403   5.828 -0.2820 -0.2081  0.5067
 2742SOL    HW1 9442   0.858   4.354   5.747  0.5662  1.6810 -0.8889
 2742SOL    HW2 9443   0.955   4.363   5.863  0.4675  0.2110 -0.6693
 2743SOL     OW 9444   0.530   4.733   6.358  0.0751 -0.3923 -0.4160
 2743SOL    HW1 9445   0.554   4.670   6.291 -1.1465 -0.3535 -0.9065
 2743SOL    HW2 9446   0.492   4.681   6.428 -1.1143 -0.2176 -0.9024
 2744SOL     OW 9447   8.458   5.630   7.648 -0.1605 -0.5295 -0.5262
 2744SOL    HW1 9448   8.367   5.603   7.638 -0.4948  0.3173  0.1453
 2744SOL    HW2 9449   8.509   5.552   7.626 -1.0220 -0.8330 -1.5382
 2745SOL     OW 9450   0.927   3.946   5.696  0.9904  0.1284  0.0908
 2745SOL    HW1 9451   0.862   3.897   5.645  0.8497  0.3505  0.0553
 2745SOL    HW2 9452   1.003   3.888   5.700  0.7962 -0.1239  0.1165
 2746SOL     OW 9453   1.594   4.170   7.456  0.0698 -0.2984 -0.4215
 2746SOL    HW1 9454   1.511   4.210   7.432 -0.2242 -1.3451 -1.1793
 2746SOL    HW2 9455   1.628   4.133   7.375  0.2893 -1.6611  0.2686
 2747SOL     OW 9456   1.395   4.791   5.890 -0.3162  0.3170 -0.0308
 2747SOL    HW1 9457   1.306   4.804   5.858  0.4688  2.3815 -1.5696
 2747SOL    HW2 9458   1.436   4.877   5.885  1.3049 -0.2130  2.2594
 2748SOL     OW 9459   0.318   3.728   6.492 -0.5043 -0.1630 -0.3446
 2748SOL    HW1 9460   0.402   3.720   6.447 -0.6718  2.4960 -1.2659
 2748SOL    HW2 9461   0.340   3.729   6.585  0.6000  1.3591 -0.5976
 2749SOL     OW 9462   1.203   5.228   5.890 -0.1145 -0.5117 -0.0734
 2749SOL    HW1 9463   1.117   5.263   5.913 -0.7283 -1.0450 -1.4361
 2749SOL    HW2 9464   1.240   5.198   5.973 -0.8440  0.5756  0.6645
 2750SOL     OW 9465   0.591   5.631   6.576 -0.0130  0.2098  0.1766
 2750SOL    HW1 9466   0.496   5.631   6.568 -0.0091  1.9426 -0.2359
 2750SOL    HW2 9467   0.609   5.694   6.646  0.8366 -0.1546  0.2955
 2751SOL     OW 9468   1.521   4.760   6.770 -0.0617  0.4334 -0.1572
 2751SOL    HW1 9469   1.458   4.735   6.702 -0.8447  2.0295 -0.0620
 2751SOL    HW2 9470   1.567   4.835   6.732  0.5212  0.4075  0.4974
 2752SOL     OW 9471   1.580   5.146   7.002  0.6938 -0.0938 -0.2968
 2752SOL    HW1 9472   1.613   5.111   7.085  0.2358  1.8228  0.7553
 2752SOL    HW2 9473   1.485   5.148   7.013  0.5543 -0.6846 -1.2576
 2753SOL     OW 9474   0.230   4.611   6.135  0.0486  1.0408 -0.2327
 2753SOL    HW1 9475   0.226   4.520   6.164 -2.2912  1.6924  1.8845
 2753SOL    HW2 9476   0.300   4.613   6.070 -0.1148 -2.3242 -0.6669
 2754SOL     OW 9477   1.425   4.389   5.663  0.5508 -0.2065  0.2512
 2754SOL    HW1 9478   1.467   4.380   5.748  1.4921 -0.1572 -0.1857
 2754SOL    HW2 9479   1.381   4.474   5.666 -1.3127 -1.1507  1.4495
 2755SOL     OW 9480   0.562   4.749   7.171 -0.0247 -0.0793  0.4869
 2755SOL    HW1 9481   0.474   4.745   7.135 -0.2617 -0.5504  1.1016
 2755SOL    HW2 9482   0.549   4.765   7.264  0.3438 -3.9588  1.3458
 2756SOL     OW 9483   1.290   5.232   6.154  0.7561  0.2713  0.6676
 2756SOL    HW1 9484   1.206   5.235   6.200  0.0836 -2.1600 -0.2733
 2756SOL    HW2 9485   1.335   5.156   6.191  1.3224 -0.1340 -0.8001
 2757SOL     OW 9486   8.824   3.576   6.952 -0.1035  0.0975  0.1829
 2757SOL    HW1 9487   8.914   3.593   6.979 -0.6653 -0.6447  2.7554
 2757SOL    HW2 9488   8.774   3.651   6.985 -0.7680 -0.6607  0.9601
 2758SOL     OW 9489   1.350   5.418   5.726 -0.1206  0.1747  0.5604
 2758SOL    HW1 9490   1.360   5.495   5.782 -0.2364  0.6389 -0.0446
 2758SOL    HW2 9491   1.257   5.396   5.732  0.0951 -0.5631  1.5476
 2759SOL     OW 9492   0.648   5.585   5.882 -0.0303 -0.2986 -0.3782
 2759SOL    HW1 9493   0.615   5.512   5.935  0.7379  0.7760  1.7296
 2759SOL    HW2 9494   0.621   5.565   5.793 -0.3670 -2.8267  0.2248
 2760SOL     OW 9495   1.528   3.874   5.741  0.0032 -0.0619  0.5435
 2760SOL    HW1 9496   1.493   3.791   5.773  0.1918 -0.2229  0.3294
 2760SOL    HW2 9497   1.519   3.934   5.816 -1.3432  0.0818  0.2909
 2761SOL     OW 9498   0.025   5.870   6.683  0.1432 -0.6212 -0.8439
 2761SOL    HW1 9499   0.101   5.822   6.714  0.1792  0.2226  0.4579
 2761SOL    HW2 9500   0.037   5.959   6.717 -0.6721 -0.0736 -1.9077
 2762SOL     OW 9501   0.806   5.216   6.707  0.4201 -0.2559 -0.1733
 2762SOL    HW1 9502   0.866   5.283   6.742  0.9543 -0.4717 -0.6560
 2762SOL    HW2 9503   0.759   5.261   6.637 -1.1610  0.3858  1.2356
 2763SOL     OW 9504   8.620   3.967   6.385 -0.1714  0.2455  0.6757
 2763SOL    HW1 9505   8.710   3.941   6.366 -0.3107 -0.6406  1.1360
 2763SOL    HW2 9506   8.568   3.889   6.363 -0.5665 -0.0734  2.5620
 2764SOL     OW 9507   1.410   3.473   6.923  0.6301  0.0747 -0.1481
 2764SOL    HW1 9508   1.493   3.512   6.895  0.2968  1.0760  0.1946
 2764SOL    HW2 9509   1.434   3.417   6.997  1.1048 -0.2419 -0.5377
 2765SOL     OW 9510   0.839   4.241   5.039 -0.4277  0.0702  0.2398
 2765SOL    HW1 9511   0.852   4.336   5.033 -0.9420  0.1766  0.6959
 2765SOL    HW2 9512   0.892   4.215   5.115 -0.2183 -0.0199  0.0620
 2766SOL     OW 9513   0.769   3.597   7.051 -0.1035 -0.4965 -0.3994
 2766SOL    HW1 9514   0.767   3.599   7.146  0.0385 -1.2980 -0.3733
 2766SOL    HW2 9515   0.763   3.504   7.028 -0.8221 -0.2652 -1.1924
 2767SOL     OW 9516   0.650   5.071   6.858  0.2645 -0.1659 -0.1366
 2767SOL    HW1 9517   0.709   5.104   6.790  1.4324  1.0506  1.4002
 2767SOL    HW2 9518   0.692   5.096   6.941 -1.4969 -0.9183  1.0421
 2768SOL     OW 9519   1.238   3.700   7.013 -0.3332  0.2211 -0.2092
 2768SOL    HW1 9520   1.288   3.624   6.983 -1.3301 -0.5742  0.0600
 2768SOL    HW2 9521   1.148   3.682   6.984 -0.6725  1.0648  0.2762
 2769SOL     OW 9522   0.895   4.938   6.686  0.7425 -0.3721 -0.6685
 2769SOL    HW1 9523   0.905   5.031   6.669  1.1113 -0.3483 -0.3366
 2769SOL    HW2 9524   0.862   4.902   6.604  1.9107 -0.1676 -1.2364
 2770SOL     OW 9525   0.868   4.017   6.308  0.2174 -0.5106  0.1338
 2770SOL    HW1 9526   0.944   3.970   6.341  0.2976 -0.1748  0.4371
 2770SOL    HW2 9527   0.871   4.006   6.213  1.1231  0.2050  0.0649
 2771SOL     OW 9528   0.437   3.976   5.926 -0.3747  0.2024 -0.4331
 2771SOL    HW1 9529   0.373   4.028   5.974  0.9420  0.2795  1.3363
 2771SOL    HW2 9530   0.507   4.038   5.905  1.1092 -0.7279  1.4980
 2772SOL     OW 9531   1.209   4.225   5.595  0.3695 -0.2142  0.1184
 2772SOL    HW1 9532   1.194   4.224   5.500  1.4655  1.1036 -0.1006
 2772SOL    HW2 9533   1.290   4.275   5.606 -0.2469  0.4912  1.8120
 2773SOL     OW 9534   0.067   3.958   6.073  1.0532  1.0023  0.0242
 2773SOL    HW1 9535   0.113   3.925   6.150 -0.5788  0.6737  0.8893
 2773SOL    HW2 9536   0.130   4.018   6.032  2.5873 -0.1393  0.6168
 2774SOL     OW 9537   1.137   3.128   6.096  0.2299 -0.0248 -0.0224
 2774SOL    HW1 9538   1.051   3.152   6.062 -0.1146 -0.1875  0.7259
 2774SOL    HW2 9539   1.178   3.077   6.025 -0.1928  0.2471 -0.4640
 2775SOL     OW 9540   0.617   4.225   7.126 -0.2651 -0.2812  0.3310
 2775SOL    HW1 9541   0.545   4.174   7.090  0.7793 -0.8126 -1.0807
 2775SOL    HW2 9542   0.576   4.307   7.154 -1.4693 -0.7073 -0.1186
 2776SOL     OW 9543   0.964   5.394   6.821 -0.3740 -0.2778  0.2461
 2776SOL    HW1 9544   1.058   5.412   6.825 -0.5939  1.4557 -1.1967
 2776SOL    HW2 9545   0.925   5.460   6.879 -0.6547 -2.1157  2.2937
 2777SOL     OW 9546   0.330   4.919   6.087  0.3312  0.5144 -0.3184
 2777SOL    HW1 9547   0.337   4.930   6.181 -0.6258 -0.0482 -0.1636
 2777SOL    HW2 9548   0.290   4.832   6.076 -0.3525  0.9174 -1.2032
 2778SOL     OW 9549   1.032   4.859   6.059  0.5467 -0.1482 -0.2560
 2778SOL    HW1 9550   1.013   4.917   5.986  0.4726 -1.6594 -1.4801
 2778SOL    HW2 9551   0.949   4.850   6.105  0.1267 -0.6952 -1.1092
 2779SOL     OW 9552   1.296   3.986   5.326  0.2017  0.1736  0.1326
 2779SOL    HW1 9553   1.260   4.074   5.336 -0.3184  0.0528 -0.5833
 2779SOL    HW2 9554   1.390   3.999   5.322  0.1431  0.6719  0.2586
 2780SOL     OW 9555   0.432   3.977   6.702  0.1183  0.4916  0.5038
 2780SOL    HW1 9556   0.524   3.992   6.723 -0.2063  0.0421  2.4967
 2780SOL    HW2 9557   0.431   3.893   6.656  0.6412 -0.0106  1.3765
 2781SOL     OW 9558   0.353   3.673   6.770  0.4501  0.0317 -0.4527
 2781SOL    HW1 9559   0.441   3.697   6.799  0.2890  0.2810 -0.1725
 2781SOL    HW2 9560   0.300   3.675   6.849  0.8327 -3.3204  0.0337
 2782SOL     OW 9561   0.690   4.083   5.854  0.4022 -0.3683  0.0349
 2782SOL    HW1 9562   0.764   4.027   5.832 -0.0301 -0.3806 -1.4958
 2782SOL    HW2 9563   0.728   4.171   5.859  0.9366 -0.6475  1.6832
 2783SOL     OW 9564   0.830   3.578   5.977  0.1319 -0.0528  0.4282
 2783SOL    HW1 9565   0.891   3.563   5.905  0.6759  1.2420  0.5970
 2783SOL    HW2 9566   0.766   3.639   5.941  0.7716  1.1125  1.2235
 2784SOL     OW 9567   1.347   4.612   6.097  0.0380 -0.4731  0.5029
 2784SOL    HW1 9568   1.429   4.565   6.111 -0.2060 -0.6898  1.2389
 2784SOL    HW2 9569   1.365   4.670   6.023  0.5451 -1.2335  0.0233
 2785SOL     OW 9570   1.608   4.251   6.229  0.4588 -0.4404  0.2346
 2785SOL    HW1 9571   1.537   4.194   6.260 -0.5986  0.3267 -0.6627
 2785SOL    HW2 9572   1.645   4.288   6.308 -1.4634  0.6538  0.6893
 2786SOL     OW 9573   1.904   4.759   6.443 -0.4883  0.6635 -0.2121
 2786SOL    HW1 9574   1.830   4.774   6.384 -1.1942 -0.0993  0.4367
 2786SOL    HW2 9575   1.928   4.668   6.429 -0.0362  0.7515 -0.0222
 2787SOL     OW 9576   8.835   5.265   5.333 -0.2438  0.8954  0.0334
 2787SOL    HW1 9577   8.789   5.302   5.409  0.5770  1.5752  0.2128
 2787SOL    HW2 9578   8.773   5.202   5.297 -1.3591  1.8359  0.2289
 2788SOL     OW 9579   1.678   4.746   6.277 -1.0858 -0.2903  0.1948
 2788SOL    HW1 9580   1.596   4.782   6.311 -1.7880 -1.7639  0.1650
 2788SOL    HW2 9581   1.652   4.664   6.235  0.4245 -0.8364  0.2654
 2789SOL     OW 9582   1.633   4.014   5.341  0.1182  0.0200 -0.2791
 2789SOL    HW1 9583   1.595   4.097   5.368  1.3548  0.5782 -0.1966
 2789SOL    HW2 9584   1.662   3.972   5.422 -1.1809 -0.8619 -0.2418
 2790SOL     OW 9585   0.287   4.347   5.691  0.0240  0.6409  0.1272
 2790SOL    HW1 9586   0.361   4.323   5.634  1.1092 -0.1665  1.7777
 2790SOL    HW2 9587   0.275   4.441   5.676 -0.1997  0.3435 -1.9039
 2791SOL     OW 9588   1.897   4.744   7.232  0.1648  0.9113 -0.1993
 2791SOL    HW1 9589   1.928   4.696   7.155  0.0447  0.7497 -0.1472
 2791SOL    HW2 9590   1.906   4.836   7.208  1.4270  0.8809  0.0959
 2792SOL     OW 9591   0.795   5.147   7.085 -0.4970 -0.4753 -0.0569
 2792SOL    HW1 9592   0.738   5.132   7.161 -0.9457 -1.2076 -0.5176
 2792SOL    HW2 9593   0.790   5.241   7.069  0.3679 -0.1537  1.3976
 2793SOL     OW 9594   0.842   5.415   7.115  0.1052  0.4953 -0.2124
 2793SOL    HW1 9595   0.827   5.505   7.086  0.5123  1.1600  1.5415
 2793SOL    HW2 9596   0.931   5.415   7.150 -0.3599 -0.2352  1.0405
 2794SOL     OW 9597   0.857   4.674   6.826  0.5034 -0.7933  0.0776
 2794SOL    HW1 9598   0.799   4.607   6.792 -1.1077  0.2475  0.6189
 2794SOL    HW2 9599   0.868   4.735   6.753  0.9900 -1.0300 -0.0482
 2795SOL     OW 9600   1.415   4.432   6.677  0.4778 -0.1663  0.0130
 2795SOL    HW1 9601   1.413   4.490   6.601 -0.9870 -1.9535 -1.4075
 2795SOL    HW2 9602   1.353   4.470   6.739  1.2421  0.9784  0.1092
 2796SOL     OW 9603   0.998   3.635   6.920 -0.2073 -0.0918  0.2698
 2796SOL    HW1 9604   0.992   3.668   6.831  0.6664 -2.9078 -0.9549
 2796SOL    HW2 9605   0.912   3.650   6.958 -1.2373 -0.6239 -1.7569
 2797SOL     OW 9606   1.192   5.271   7.496  0.1357 -0.1944 -0.1394
 2797SOL    HW1 9607   1.118   5.332   7.489  0.3387  0.0641 -0.0217
 2797SOL    HW2 9608   1.178   5.209   7.425  0.7260  0.8453 -1.2047
 2798SOL     OW 9609   0.464   4.597   6.009 -0.2914  0.2065  0.4942
 2798SOL    HW1 9610   0.529   4.529   5.992 -1.7281 -0.7984 -1.3238
 2798SOL    HW2 9611   0.496   4.673   5.960 -0.7390 -0.4659 -0.8909
 2799SOL     OW 9612   1.010   4.428   6.699  0.5379  0.7272  0.2704
 2799SOL    HW1 9613   0.924   4.461   6.673  0.5382  0.1075 -0.5601
 2799SOL    HW2 9614   0.992   4.343   6.738  0.4968  1.7860  2.7608
 2800SOL     OW 9615   1.091   3.921   6.370  0.0560 -0.3942 -0.1031
 2800SOL    HW1 9616   1.136   3.979   6.432 -0.1883  2.8290 -2.6367
 2800SOL    HW2 9617   1.161   3.885   6.316  0.1259 -1.8708  0.9116
 2801SOL     OW 9618   0.352   4.862   7.017  0.1948  0.1998 -0.5264
 2801SOL    HW1 9619   0.259   4.873   6.998  0.1294  0.3993 -0.0915
 2801SOL    HW2 9620   0.386   4.951   7.023 -0.0295  0.2022  1.4615
 2802SOL     OW 9621   0.079   4.957   5.962  0.0394  0.4189 -0.0093
 2802SOL    HW1 9622   0.161   4.920   5.932  1.0664  2.4481  0.1155
 2802SOL    HW2 9623   0.055   4.905   6.039  1.3826  0.0123  0.1515
 2803SOL     OW 9624   0.230   3.769   6.188 -0.0413  0.2492 -0.1554
 2803SOL    HW1 9625   0.233   3.726   6.103  0.9773  0.3408 -0.1730
 2803SOL    HW2 9626   0.240   3.699   6.252  1.8049  0.4451 -0.1889
 2804SOL     OW 9627   1.268   5.103   5.652 -0.1679 -0.6455  0.2519
 2804SOL    HW1 9628   1.362   5.119   5.643 -0.1689 -0.2673  0.9041
 2804SOL    HW2 9629   1.238   5.167   5.717 -0.9197 -0.6122 -0.1121
 2805SOL     OW 9630   1.296   5.110   6.961  0.2561 -0.0439  0.1271
 2805SOL    HW1 9631   1.234   5.094   6.890 -0.3898 -0.2745  0.7180
 2805SOL    HW2 9632   1.241   5.115   7.039  0.9649  0.0087  0.6355
 2806SOL     OW 9633   1.787   4.429   5.400  0.2979  0.2914 -0.1337
 2806SOL    HW1 9634   1.857   4.465   5.454  0.3142 -1.7540  1.3639
 2806SOL    HW2 9635   1.798   4.471   5.315  3.5423 -0.1511 -0.0673
 2807SOL     OW 9636   0.399   5.145   6.945 -0.1913 -0.0034 -0.3468
 2807SOL    HW1 9637   0.349   5.171   6.868 -1.5240 -2.0371 -0.2443
 2807SOL    HW2 9638   0.484   5.118   6.910 -0.5367 -0.2246 -1.0304
 2808SOL     OW 9639   0.087   4.059   6.957 -0.0916  0.2414 -0.2442
 2808SOL    HW1 9640   0.101   4.068   6.863  0.5424  1.2329 -0.0665
 2808SOL    HW2 9641   0.128   4.136   6.996  0.8216 -0.7889  0.9536
 2809SOL     OW 9642   1.413   3.913   6.992  0.4759  0.6295  0.1955
 2809SOL    HW1 9643   1.492   3.891   6.944  0.5299  1.2043  0.0155
 2809SOL    HW2 9644   1.350   3.846   6.967  0.2861  1.3057 -1.2179
 2810SOL     OW 9645   1.078   3.573   7.643 -0.2244 -0.2503  0.7691
 2810SOL    HW1 9646   1.102   3.655   7.601  2.0437  0.1226  2.5359
 2810SOL    HW2 9647   1.042   3.519   7.573  2.0212  0.8056 -1.3641
 2811SOL     OW 9648   0.515   3.711   7.157  0.1765 -0.1077 -0.2485
 2811SOL    HW1 9649   0.446   3.757   7.204  1.5572  1.2328  0.5850
 2811SOL    HW2 9650   0.512   3.621   7.190 -0.6509  0.1400  0.3536
 2812SOL     OW 9651   0.374   4.953   6.373  0.1578 -0.0569  0.1620
 2812SOL    HW1 9652   0.406   4.864   6.382 -1.7913 -0.8205  0.0465
 2812SOL    HW2 9653   0.386   4.992   6.460  0.3467 -0.6802  0.4211
 2813SOL     OW 9654   1.384   4.665   6.530  0.1887 -0.3512 -0.0828
 2813SOL    HW1 9655   1.296   4.676   6.495  0.6098 -0.5927 -1.2747
 2813SOL    HW2 9656   1.432   4.742   6.500  0.8002 -1.0118 -0.8694
 2814SOL     OW 9657   1.879   4.183   5.321  0.0725 -0.2436 -0.1375
 2814SOL    HW1 9658   1.828   4.120   5.270  0.2935 -0.1174 -0.5108
 2814SOL    HW2 9659   1.830   4.265   5.314  0.5097 -0.0326 -0.7931
 2815SOL     OW 9660   8.731   4.306   6.943  0.5484  0.1799  0.1346
 2815SOL    HW1 9661   8.659   4.342   6.892 -0.0954 -1.1472  0.0917
 2815SOL    HW2 9662   8.716   4.212   6.944  1.9046 -0.0527  0.7090
 2816SOL     OW 9663   0.233   4.714   6.701 -0.0473  0.3570  0.4223
 2816SOL    HW1 9664   0.215   4.782   6.766  1.6953 -0.5092  1.8762
 2816SOL    HW2 9665   0.187   4.637   6.734  0.9971 -0.1353  0.7615
 2817SOL     OW 9666   0.380   4.042   6.242  0.2140 -0.1323  0.1437
 2817SOL    HW1 9667   0.387   3.948   6.228  3.0924 -0.1337  0.9088
 2817SOL    HW2 9668   0.323   4.051   6.319  0.2841 -1.2714  0.3408
 2818SOL     OW 9669   1.373   4.279   7.350 -1.0397  0.2063  0.3525
 2818SOL    HW1 9670   1.392   4.315   7.263 -0.9536  1.3458  0.8197
 2818SOL    HW2 9671   1.292   4.230   7.339  0.2546 -1.7660 -0.9142
 2819SOL     OW 9672   8.640   3.977   6.676  0.2497  0.7716 -0.8553
 2819SOL    HW1 9673   8.648   3.984   6.581  0.4509  0.0654 -0.9014
 2819SOL    HW2 9674   8.705   3.910   6.700  0.0994  0.8425 -0.2431
 2820SOL     OW 9675   2.294   4.172   5.589 -0.1105 -0.0840 -0.0168
 2820SOL    HW1 9676   2.244   4.213   5.518  1.1608  2.0644  0.2098
 2820SOL    HW2 9677   2.372   4.136   5.545 -0.2233 -0.4221  0.0584
 2821SOL     OW 9678   0.613   4.280   6.544  0.2297  0.0838  0.1246
 2821SOL    HW1 9679   0.600   4.285   6.449  1.3788  1.0123 -0.0061
 2821SOL    HW2 9680   0.654   4.195   6.558 -1.5887 -0.8650  0.0318
 2822SOL     OW 9681   1.079   4.915   7.682 -0.7001  0.7219 -0.3660
 2822SOL    HW1 9682   1.008   4.862   7.717  0.7817 -0.5085  0.9079
 2822SOL    HW2 9683   1.130   4.854   7.628  0.9820  0.7912  1.0548
 2823SOL     OW 9684   1.564   5.092   7.501 -0.3419 -0.1664 -0.2425
 2823SOL    HW1 9685   1.567   5.006   7.461  0.9139 -0.6047  0.7231
 2823SOL    HW2 9686   1.554   5.075   7.595  0.1583  0.7273 -0.0096
 2824SOL     OW 9687   0.501   4.377   7.675  0.2764  0.0473 -0.4371
 2824SOL    HW1 9688   0.501   4.403   7.583 -2.5635  1.1813 -0.2317
 2824SOL    HW2 9689   0.418   4.410   7.709  1.0399 -0.7009  2.4549
 2825SOL     OW 9690   1.683   3.807   5.535  0.3643 -0.8227  0.0678
 2825SOL    HW1 9691   1.621   3.831   5.605  1.8513  1.8686  0.6030
 2825SOL    HW2 9692   1.769   3.822   5.574  1.2832 -1.2565 -1.7255
 2826SOL     OW 9693   0.880   5.035   5.776  0.0334  0.1216 -0.4822
 2826SOL    HW1 9694   0.812   5.055   5.841 -1.4824 -1.5145 -1.4665
 2826SOL    HW2 9695   0.847   5.073   5.695  1.5829  1.5418 -0.5044
 2827SOL     OW 9696   0.788   4.835   6.447  0.1197 -0.2528  0.1691
 2827SOL    HW1 9697   0.844   4.775   6.397  0.5657  1.0796 -1.0014
 2827SOL    HW2 9698   0.699   4.802   6.434  0.4971 -1.6282  0.9580
 2828SOL     OW 9699   0.167   4.051   6.709  0.0260  0.1054  0.2678
 2828SOL    HW1 9700   0.253   4.016   6.734  0.8597  0.7242 -1.5372
 2828SOL    HW2 9701   0.136   3.992   6.641 -1.1002 -0.2223  1.0366
 2829SOL     OW 9702   8.822   4.281   5.952  0.4162 -0.1035  0.2709
 2829SOL    HW1 9703   8.751   4.243   6.004  0.2720 -0.5859 -0.2567
 2829SOL    HW2 9704   8.811   4.242   5.865  0.0279  1.4746 -0.4100
 2830SOL     OW 9705   1.668   3.530   6.927  0.1784  0.0325 -0.7482
 2830SOL    HW1 9706   1.737   3.589   6.897  0.4815  1.1233  1.8067
 2830SOL    HW2 9707   1.706   3.443   6.922  1.6900  0.5876  0.3666
 2831SOL     OW 9708   1.399   3.735   6.703  0.3473  0.8293 -0.1027
 2831SOL    HW1 9709   1.353   3.700   6.628  2.9264 -2.3675 -0.4089
 2831SOL    HW2 9710   1.333   3.740   6.772 -0.9522 -1.5037 -1.0734
 2832SOL     OW 9711   8.840   4.937   5.544  0.2430  0.1870 -0.5745
 2832SOL    HW1 9712   8.758   4.928   5.496 -0.1600  0.3929  0.0643
 2832SOL    HW2 9713   8.838   4.868   5.610  1.7738 -1.5053 -2.1752
 2833SOL     OW 9714   0.630   5.009   6.251  0.2603 -0.4720  0.2548
 2833SOL    HW1 9715   0.545   4.984   6.289  0.6040 -0.4996  1.0279
 2833SOL    HW2 9716   0.678   4.926   6.243  0.6410 -0.3235  0.9101
 2834SOL     OW 9717   0.783   4.791   6.155  0.1127  0.1696 -0.3318
 2834SOL    HW1 9718   0.808   4.705   6.190  0.9030  1.3532  2.2598
 2834SOL    HW2 9719   0.728   4.771   6.080  0.7838 -2.5967 -0.1957
 2835SOL     OW 9720   1.224   4.116   6.541 -0.1009  0.2429 -0.2270
 2835SOL    HW1 9721   1.248   4.208   6.530  1.8193  0.0624  1.7356
 2835SOL    HW2 9722   1.192   4.111   6.631 -1.3743 -0.8178 -0.7160
 2836SOL     OW 9723   8.688   4.588   6.315  0.2603  0.7799  0.0331
 2836SOL    HW1 9724   8.748   4.661   6.332  0.4179  0.3889  1.2486
 2836SOL    HW2 9725   8.717   4.519   6.376 -0.5960  0.1106 -0.3051
 2837SOL     OW 9726   0.375   4.057   7.517 -0.4083 -0.4736 -0.3600
 2837SOL    HW1 9727   0.420   4.071   7.601 -1.8348 -0.7490  0.4917
 2837SOL    HW2 9728   0.444   4.031   7.457  0.9771  1.5088  0.2327
 2838SOL     OW 9729   1.122   4.428   7.058 -0.4010  0.1584 -0.0750
 2838SOL    HW1 9730   1.084   4.393   6.978 -0.4089 -0.2175  0.0905
 2838SOL    HW2 9731   1.216   4.431   7.041 -0.3997  0.0502 -0.0876
 2839SOL     OW 9732   0.982   4.018   6.011  0.5132  0.6510  0.8165
 2839SOL    HW1 9733   0.985   4.089   5.946 -1.6614 -1.3218 -1.6471
 2839SOL    HW2 9734   1.036   3.949   5.974 -2.5903 -1.4079 -0.2916
 2840SOL     OW 9735   1.644   4.330   6.533 -0.2144 -0.6739 -0.2965
 2840SOL    HW1 9736   1.561   4.374   6.549  0.1769  1.0706 -2.5600
 2840SOL    HW2 9737   1.709   4.380   6.584  0.2210  1.5384 -2.8179
 2841SOL     OW 9738   0.460   5.312   7.259 -0.6279  0.3823  0.0121
 2841SOL    HW1 9739   0.427   5.268   7.336 -0.4643  0.8072  0.3317
 2841SOL    HW2 9740   0.538   5.262   7.234 -1.1591 -0.2515 -0.3786
 2842SOL     OW 9741   0.966   3.716   6.678  0.1679  0.6562 -0.1134
 2842SOL    HW1 9742   0.898   3.689   6.617 -0.2663  0.5832  0.3994
 2842SOL    HW2 9743   1.047   3.679   6.641 -0.3799 -1.3319  0.5191
 2843SOL     OW 9744   0.505   5.724   6.906 -0.0150 -0.3141 -0.6219
 2843SOL    HW1 9745   0.495   5.663   6.979  1.5240  1.5908  1.3435
 2843SOL    HW2 9746   0.599   5.728   6.891 -0.2768 -0.2298 -2.3688
 2844SOL     OW 9747   0.832   4.176   5.328 -0.0623  0.2181 -0.5373
 2844SOL    HW1 9748   0.872   4.092   5.350 -0.6021  0.6021  2.2378
 2844SOL    HW2 9749   0.745   4.171   5.367 -0.0185  2.1629 -0.1344
 2845SOL     OW 9750   0.073   4.479   7.276  0.1539 -0.2039 -0.5682
 2845SOL    HW1 9751   0.008   4.448   7.339 -0.8788 -0.4858 -1.7310
 2845SOL    HW2 9752   0.037   4.561   7.243  1.6966  1.0306  0.7036
 2846SOL     OW 9753   1.112   4.788   6.925  0.0070 -0.5813 -0.3849
 2846SOL    HW1 9754   1.066   4.860   6.969 -1.0692 -0.5374 -1.5323
 2846SOL    HW2 9755   1.043   4.738   6.882  1.0773 -0.1838 -2.6885
 2847SOL     OW 9756   1.255   4.042   5.811  0.1155 -0.4956  0.0011
 2847SOL    HW1 9757   1.217   4.105   5.749  1.2828  0.1796 -0.0645
 2847SOL    HW2 9758   1.229   3.957   5.776 -0.4434 -0.0870 -0.6229
 2848SOL     OW 9759   1.586   5.029   6.728 -0.5182  0.5054  0.4011
 2848SOL    HW1 9760   1.631   5.092   6.784 -0.1445 -0.3500  1.0676
 2848SOL    HW2 9761   1.494   5.038   6.753 -0.1032 -1.7411  3.1235
 2849SOL     OW 9762   1.001   5.862   7.214  0.4113 -0.4838 -0.1306
 2849SOL    HW1 9763   1.077   5.819   7.252  0.5091  0.5493  0.9120
 2849SOL    HW2 9764   1.037   5.930   7.157  0.2651 -2.0800 -2.2333
 2850SOL     OW 9765   8.748   5.206   6.041  0.0675  0.1599 -0.2117
 2850SOL    HW1 9766   8.724   5.157   6.120 -0.6994  0.0717 -0.4895
 2850SOL    HW2 9767   8.844   5.206   6.040  0.0759 -0.1940  0.4952
 2851SOL     OW 9768   0.851   5.424   7.697 -0.4503 -0.1853 -0.3531
 2851SOL    HW1 9769   0.873   5.347   7.751  1.6199  0.5402 -0.0807
 2851SOL    HW2 9770   0.833   5.388   7.610 -1.3097 -1.1242  0.1850
 2852SOL     OW 9771   2.182   4.029   6.333 -0.1491 -0.3766 -0.0973
 2852SOL    HW1 9772   2.249   4.079   6.287 -0.0902  0.1732  0.5779
 2852SOL    HW2 9773   2.116   4.010   6.266  0.3645 -0.3659 -0.6128
 2853SOL     OW 9774   1.529   5.300   5.903  0.0074 -1.0281 -0.0192
 2853SOL    HW1 9775   1.474   5.326   5.829 -0.3901 -2.4223 -0.2317
 2853SOL    HW2 9776   1.478   5.324   5.980  0.8282  1.3291 -0.1095
 2854SOL     OW 9777   8.741   5.007   7.415 -0.1147 -0.0728  0.1342
 2854SOL    HW1 9778   8.666   5.066   7.427 -2.3202 -2.6426  0.0571
 2854SOL    HW2 9779   8.737   4.983   7.323  1.3965  0.4029 -0.0770
 2855SOL     OW 9780   1.565   4.299   5.435  0.2373 -0.3397  0.1053
 2855SOL    HW1 9781   1.646   4.351   5.441  0.2951 -0.3147 -0.7233
 2855SOL    HW2 9782   1.516   4.322   5.513  0.8362 -0.0060  0.3910
 2856SOL     OW 9783   0.367   4.280   6.948  0.0722 -0.1083 -0.6939
 2856SOL    HW1 9784   0.363   4.298   6.854  1.4053  0.9956 -0.5689
 2856SOL    HW2 9785   0.398   4.361   6.987  1.3738 -1.1242  0.4895
 2857SOL     OW 9786   0.732   5.354   5.330  0.3708  0.2292 -0.6617
 2857SOL    HW1 9787   0.795   5.322   5.266 -0.1176  1.5357 -1.8353
 2857SOL    HW2 9788   0.768   5.438   5.359  0.7277 -0.4569  1.0313
 2858SOL     OW 9789   1.608   5.642   6.926  0.0572  0.1884  0.5521
 2858SOL    HW1 9790   1.619   5.549   6.910  0.0066  0.1782  0.5757
 2858SOL    HW2 9791   1.610   5.682   6.839  1.9785  0.3785  0.6387
 2859SOL     OW 9792   1.745   4.073   6.451  0.3014  0.3333 -0.1458
 2859SOL    HW1 9793   1.698   4.147   6.490  0.8830  0.2307  0.8024
 2859SOL    HW2 9794   1.676   4.015   6.418 -0.1538  1.5084 -1.3498
 2860SOL     OW 9795   0.071   3.907   6.472  0.1631  0.2046  0.0589
 2860SOL    HW1 9796   0.131   3.849   6.425  1.4398  0.2177  1.6189
 2860SOL    HW2 9797   0.026   3.849   6.534 -2.1441  0.0206 -1.6537
 2861SOL     OW 9798   1.082   5.729   5.713 -0.5069 -0.3726 -0.3544
 2861SOL    HW1 9799   1.110   5.700   5.626  0.4981 -1.8661  0.4328
 2861SOL    HW2 9800   1.004   5.676   5.732 -0.6501 -0.1389 -0.2774
 2862SOL     OW 9801   1.128   4.724   6.423 -0.2204 -0.0960  0.0296
 2862SOL    HW1 9802   1.102   4.702   6.334  2.1717 -0.7944 -0.5858
 2862SOL    HW2 9803   1.126   4.820   6.425  2.3038  0.0939 -1.7495
 2863SOL     OW 9804   0.263   4.623   5.677  0.0250  0.1851 -0.0335
 2863SOL    HW1 9805   0.168   4.631   5.681  0.1124  0.8364  0.9440
 2863SOL    HW2 9806   0.297   4.709   5.702  0.8749  0.8311 -3.0641
 2864SOL     OW 9807   1.570   5.795   5.768  0.5937 -0.5864 -0.5508
 2864SOL    HW1 9808   1.611   5.716   5.805  1.4076  0.4982  0.9923
 2864SOL    HW2 9809   1.480   5.793   5.803  0.3718 -1.2154 -1.1458
 2865SOL     OW 9810   0.387   4.547   7.012  0.5118 -0.5406  0.0023
 2865SOL    HW1 9811   0.406   4.637   6.984 -0.7717 -0.6646 -1.4025
 2865SOL    HW2 9812   0.347   4.557   7.098  2.4810  0.0329  0.9036
 2866SOL     OW 9813   1.959   4.956   7.092  0.4424 -0.8122  0.5001
 2866SOL    HW1 9814   1.974   4.948   6.998 -0.0571  0.2606  0.3117
 2866SOL    HW2 9815   1.959   5.051   7.108 -0.0335 -0.9651  1.4846
 2867SOL     OW 9816   1.070   4.582   6.181 -0.4389  0.4564  0.4141
 2867SOL    HW1 9817   1.164   4.577   6.165 -0.1479 -1.3932  2.2727
 2867SOL    HW2 9818   1.036   4.634   6.108  1.5603 -1.6514 -2.2428
 2868SOL     OW 9819   0.581   3.815   6.388  0.5824  0.1564  0.1766
 2868SOL    HW1 9820   0.570   3.811   6.293  0.5924 -1.9205  0.2096
 2868SOL    HW2 9821   0.609   3.905   6.405 -1.4115  1.2060 -1.5341
 2869SOL     OW 9822   0.965   5.365   6.023  1.1170 -0.1150  0.5224
 2869SOL    HW1 9823   0.936   5.288   6.072 -0.2835  0.2784  0.3515
 2869SOL    HW2 9824   0.924   5.439   6.069 -0.6955  0.2380 -1.4928
 2870SOL     OW 9825   1.785   4.036   7.093 -0.8175 -0.1946  0.4830
 2870SOL    HW1 9826   1.739   4.117   7.110 -0.3661 -0.3314  2.5613
 2870SOL    HW2 9827   1.750   4.006   7.009 -2.6531  0.9678  0.7762
 2871SOL     OW 9828   0.472   4.966   5.312  0.4903  0.2383 -0.7747
 2871SOL    HW1 9829   0.428   5.050   5.302  0.0076  0.4043  2.0759
 2871SOL    HW2 9830   0.401   4.902   5.315  0.7536 -0.0753 -1.1279
 2872SOL     OW 9831   0.176   4.266   7.145 -0.4849 -0.2922  0.3401
 2872SOL    HW1 9832   0.256   4.281   7.095  0.0118 -0.2163  1.1410
 2872SOL    HW2 9833   0.162   4.348   7.192 -0.5714 -0.5947  0.8449
 2873SOL     OW 9834   0.609   3.734   6.866 -0.2386  0.0907  0.3104
 2873SOL    HW1 9835   0.636   3.694   6.949  0.6262 -2.6409 -1.1620
 2873SOL    HW2 9836   0.677   3.710   6.804 -1.3449  1.2216 -1.4352
 2874SOL     OW 9837   0.137   4.340   5.337  0.0083  0.2009 -0.0298
 2874SOL    HW1 9838   0.222   4.310   5.369  1.1397  0.5143 -2.4981
 2874SOL    HW2 9839   0.097   4.262   5.298  0.8090  0.7668 -2.0989
 2875SOL     OW 9840   1.237   4.559   6.825  0.7983  0.0940 -0.0218
 2875SOL    HW1 9841   1.165   4.517   6.779  0.3898 -1.7285  2.1286
 2875SOL    HW2 9842   1.197   4.631   6.874  1.0447  1.2392 -1.4159
 2876SOL     OW 9843   0.078   3.761   5.801  0.3400 -0.6871  0.2392
 2876SOL    HW1 9844   0.096   3.812   5.880 -0.0308 -1.7302  1.0209
 2876SOL    HW2 9845   0.125   3.807   5.731  0.5614  0.3315  1.0341
 2877SOL     OW 9846   1.265   4.632   5.679  0.8749  0.3434  0.0765
 2877SOL    HW1 9847   1.229   4.641   5.590 -0.5315 -0.3005  0.5549
 2877SOL    HW2 9848   1.244   4.715   5.721 -1.4452 -0.5145  0.7922
 2878SOL     OW 9849   0.095   4.052   7.307  0.0921  0.3950  0.2845
 2878SOL    HW1 9850   0.118   4.107   7.382 -2.8683  2.1181  0.0835
 2878SOL    HW2 9851   0.105   4.110   7.232 -0.9433 -0.0095 -0.1805
 2879SOL     OW 9852   1.049   5.141   6.368  0.1793 -0.1223  0.1897
 2879SOL    HW1 9853   0.971   5.147   6.313 -0.0037  0.2637  0.4879
 2879SOL    HW2 9854   1.057   5.228   6.408 -0.9769 -0.9847  2.5173
 2880SOL     OW 9855   1.114   3.818   7.254  0.3614 -0.6447  0.4792
 2880SOL    HW1 9856   1.137   3.791   7.166  2.0080  0.7697  0.4057
 2880SOL    HW2 9857   1.041   3.878   7.243  0.5756 -0.4568  0.0575
 2881SOL     OW 9858   1.439   4.432   7.128  0.6532 -0.3508 -0.1436
 2881SOL    HW1 9859   1.473   4.446   7.040 -1.6037  0.3776 -0.9662
 2881SOL    HW2 9860   1.381   4.506   7.143 -0.3894 -1.3979  1.2542
 2882SOL     OW 9861   0.060   5.518   6.977 -0.6663  0.0093  0.0761
 2882SOL    HW1 9862  -0.019   5.466   6.963 -0.9672  0.4099  0.2472
 2882SOL    HW2 9863   0.124   5.456   7.010 -0.7244 -0.4405 -0.6389
 2883SOL     OW 9864   1.584   4.364   6.908 -0.9903  0.1560 -0.0153
 2883SOL    HW1 9865   1.665   4.407   6.880 -0.3565 -1.6879 -1.2137
 2883SOL    HW2 9866   1.524   4.375   6.834 -0.8561 -0.8878 -0.2928
 2884SOL     OW 9867   1.185   3.817   5.687  0.6905 -0.3165  0.1616
 2884SOL    HW1 9868   1.247   3.814   5.613  0.9288  0.0151  0.3466
 2884SOL    HW2 9869   1.192   3.731   5.727 -0.6806 -1.1208 -1.2038
 2885SOL     OW 9870   0.232   4.198   5.943 -0.1924 -0.3148  0.5205
 2885SOL    HW1 9871   0.140   4.223   5.936  0.1056  0.3718 -2.0701
 2885SOL    HW2 9872   0.266   4.208   5.854  2.9172  1.5609  1.7370
 2886SOL     OW 9873   1.755   3.276   7.251 -0.1381 -0.3640  0.1870
 2886SOL    HW1 9874   1.755   3.364   7.213 -0.8049 -0.5092 -0.1572
 2886SOL    HW2 9875   1.730   3.218   7.179  1.1723 -0.9504  0.1727
 2887SOL     OW 9876   1.208   4.105   6.993  0.2322  0.8249  0.0392
 2887SOL    HW1 9877   1.288   4.052   7.003  0.0962  0.7684  0.9278
 2887SOL    HW2 9878   1.154   4.080   7.068 -0.1564  1.6624  0.0452
 2888SOL     OW 9879   0.696   5.057   5.958  0.1088 -0.0071  0.4993
 2888SOL    HW1 9880   0.689   4.963   5.944 -1.0605  0.0967  0.3341
 2888SOL    HW2 9881   0.609   5.091   5.940  0.8722  1.3145 -1.0676
 2889SOL     OW 9882   0.704   5.383   6.516  0.0781  0.1311  0.0159
 2889SOL    HW1 9883   0.780   5.431   6.483 -0.2185  0.1012 -0.7213
 2889SOL    HW2 9884   0.646   5.451   6.551  0.6733  0.1119  1.0916
 2890SOL     OW 9885   1.148   4.442   6.438  0.1640 -0.1734  0.3652
 2890SOL    HW1 9886   1.105   4.404   6.514  2.4924 -0.4475  1.6128
 2890SOL    HW2 9887   1.131   4.536   6.445  1.0940 -0.0858  1.7628
 2891SOL     OW 9888   0.912   4.690   5.853  0.6573  0.0405  0.2371
 2891SOL    HW1 9889   1.007   4.698   5.854  0.7458 -1.0815  1.0451
 2891SOL    HW2 9890   0.895   4.596   5.846 -0.3833  0.0417  2.1596
 2892SOL     OW 9891   1.290   5.022   6.413  0.2795  0.6781  0.5030
 2892SOL    HW1 9892   1.206   5.069   6.417 -0.1556  0.0661 -0.7734
 2892SOL    HW2 9893   1.283   4.969   6.333  2.1823  1.1714 -0.0197
 2893SOL     OW 9894   0.320   4.604   7.258 -0.4912  0.4024  0.2261
 2893SOL    HW1 9895   0.337   4.683   7.309 -0.3421  0.2662  0.3867
 2893SOL    HW2 9896   0.233   4.575   7.288 -0.6438  0.6274  0.0078
 2894SOL     OW 9897   0.455   5.171   5.948  0.4339  0.6560 -0.0977
 2894SOL    HW1 9898   0.415   5.093   5.986 -0.4187  2.1244  2.2618
 2894SOL    HW2 9899   0.404   5.189   5.870  0.3467 -0.8444 -0.4155
 2895SOL     OW 9900   1.388   5.427   7.097 -0.0818  0.4312  0.5642
 2895SOL    HW1 9901   1.402   5.410   7.190 -0.2677 -0.4223  0.4418
 2895SOL    HW2 9902   1.464   5.479   7.070  0.0840  0.4927  1.1354
 2896SOL     OW 9903   2.001   3.649   6.375 -0.1748 -0.3598  0.2648
 2896SOL    HW1 9904   1.995   3.745   6.376  0.5124 -0.2612 -1.3697
 2896SOL    HW2 9905   2.080   3.629   6.424 -0.2682 -0.0898  0.5308
 2897SOL     OW 9906   0.920   4.219   5.634  0.2636  0.1399  0.5479
 2897SOL    HW1 9907   0.907   4.126   5.653 -2.4125  0.1881 -0.5780
 2897SOL    HW2 9908   1.012   4.226   5.611  0.4697 -2.2979  0.3139
 2898SOL     OW 9909   1.284   5.223   6.668 -0.4937  1.0450 -0.0783
 2898SOL    HW1 9910   1.277   5.151   6.606 -1.9792  0.5772  0.5732
 2898SOL    HW2 9911   1.219   5.286   6.639 -0.6875  1.1505  0.5603
 2899SOL     OW 9912   0.166   4.135   6.390 -1.0143  0.3305  0.2487
 2899SOL    HW1 9913   0.104   4.207   6.389 -1.6029 -0.1635 -1.2258
 2899SOL    HW2 9914   0.118   4.062   6.429 -0.7201  0.4628  0.8750
 2900SOL     OW 9915   0.577   5.308   6.301  0.3643 -0.1920  0.3688
 2900SOL    HW1 9916   0.574   5.213   6.297  0.0571 -0.1333 -1.8749
 2900SOL    HW2 9917   0.642   5.328   6.369 -0.6297 -1.9542  1.9221
 2901SOL     OW 9918   1.297   3.836   6.183  0.2258 -0.1815 -1.1286
 2901SOL    HW1 9919   1.241   3.833   6.105  0.4388 -1.0724 -1.2618
 2901SOL    HW2 9920   1.358   3.764   6.171  0.7179  0.1173 -0.4670
 2902SOL     OW 9921   1.181   3.665   6.523  0.2783  0.4024  0.1594
 2902SOL    HW1 9922   1.239   3.595   6.491  1.2977  1.2913 -0.0233
 2902SOL    HW2 9923   1.172   3.724   6.448  0.0618  0.8610  0.5454
 2903SOL     OW 9924   0.770   4.284   6.299 -0.7575 -0.1323  0.0307
 2903SOL    HW1 9925   0.682   4.261   6.270 -0.2348 -0.3994 -1.3711
 2903SOL    HW2 9926   0.824   4.209   6.277 -0.2079 -0.1035  1.1740
 2904SOL     OW 9927   0.492   5.556   7.138  0.5040 -0.4340  0.1608
 2904SOL    HW1 9928   0.568   5.573   7.194  1.5414 -1.5277 -0.8373
 2904SOL    HW2 9929   0.472   5.463   7.152  2.3434 -1.4564 -2.9456
 2905SOL     OW 9930   1.419   3.655   5.831 -0.8717  0.0688  0.8104
 2905SOL    HW1 9931   1.448   3.564   5.841 -0.8585  0.1242  1.2852
 2905SOL    HW2 9932   1.346   3.664   5.892 -1.7708 -0.0095 -0.2277
 2906SOL     OW 9933   1.105   4.295   5.927  0.0938  0.3501 -0.0052
 2906SOL    HW1 9934   1.192   4.281   5.889 -0.4481 -0.8770 -0.8603
 2906SOL    HW2 9935   1.120   4.296   6.021  1.1377  1.0015 -0.1562
 2907SOL     OW 9936   1.461   4.072   5.987  0.3768  0.3739  0.4102
 2907SOL    HW1 9937   1.387   4.076   5.926  1.5517 -1.1952 -1.2009
 2907SOL    HW2 9938   1.420   4.065   6.073 -1.3287  1.3085 -0.2604
 2908SOL     OW 9939   0.166   4.788   5.363  0.0058  0.4347 -0.0456
 2908SOL    HW1 9940   0.117   4.860   5.402  1.0892  0.5005  1.2914
 2908SOL    HW2 9941   0.115   4.710   5.384 -0.8941  0.7378 -1.0350
 2909SOL     OW 9942   0.780   5.330   5.813 -0.1857  0.7498  0.6905
 2909SOL    HW1 9943   0.841   5.317   5.886 -0.1886  1.2649  0.7897
 2909SOL    HW2 9944   0.718   5.257   5.820  0.4830  0.1520  0.5210
 2910SOL     OW 9945   8.722   4.473   7.897 -0.0714  0.0914  0.4338
 2910SOL    HW1 9946   8.664   4.500   7.826  1.8637  0.7316 -1.0131
 2910SOL    HW2 9947   8.798   4.532   7.889  0.3117  0.0273  2.9182
 2911SOL     OW 9948   0.055   4.140   8.534  0.3611  0.3074  0.1558
 2911SOL    HW1 9949  -0.036   4.168   8.532  0.4617  0.7031  0.9324
 2911SOL    HW2 9950   0.052   4.047   8.513 -0.2091  0.3522  0.0332
 2912SOL     OW 9951   8.340   4.481   7.968 -0.4150 -0.0173  0.6397
 2912SOL    HW1 9952   8.381   4.405   7.926 -1.9184  0.1101 -1.1867
 2912SOL    HW2 9953   8.388   4.556   7.933 -1.5429  0.0764 -0.7944
 2913SOL     OW 9954   0.351   5.395   8.563  0.5791  0.1045 -0.1556
 2913SOL    HW1 9955   0.299   5.316   8.552  1.3221 -0.7225  1.8350
 2913SOL    HW2 9956   0.441   5.367   8.546  0.9070  0.3903  1.0349
 2914SOL     OW 9957   1.940   5.447   8.261  0.5755 -0.3303 -0.0052
 2914SOL    HW1 9958   1.968   5.539   8.255  0.5470 -0.0481  2.7309
 2914SOL    HW2 9959   1.866   5.441   8.200 -1.6515  2.4735  2.0655
 2915SOL     OW 9960   1.111   4.682   7.964  0.4268 -0.8331  0.2922
 2915SOL    HW1 9961   1.172   4.712   7.897 -0.4349 -0.9044 -0.5443
 2915SOL    HW2 9962   1.129   4.589   7.974  0.5320 -0.8280  0.1428
 2916SOL     OW 9963   1.747   3.905   7.607  0.0532  0.4128  0.3208
 2916SOL    HW1 9964   1.756   4.000   7.593  0.1625 -0.0151 -3.5927
 2916SOL    HW2 9965   1.663   3.883   7.567 -0.3149 -1.0836  1.8151
 2917SOL     OW 9966   0.600   5.249   8.545 -0.4795 -0.2479  0.0281
 2917SOL    HW1 9967   0.644   5.178   8.593  0.6690 -0.3679 -1.1502
 2917SOL    HW2 9968   0.653   5.326   8.563  2.4650 -0.9755 -4.0493
 2918SOL     OW 9969   0.589   4.945   8.244  0.3529 -0.1639  0.6216
 2918SOL    HW1 9970   0.558   4.894   8.169  0.9118  0.5139 -0.0801
 2918SOL    HW2 9971   0.602   4.880   8.313  1.6303 -1.0624 -0.4271
 2919SOL     OW 9972   0.192   5.137   8.569 -1.1699 -0.4563  0.5636
 2919SOL    HW1 9973   0.109   5.141   8.521 -1.2055 -1.3516  0.5421
 2919SOL    HW2 9974   0.258   5.121   8.503 -1.2029 -1.5517  0.7831
 2920SOL     OW 9975   0.684   4.185   8.738  0.0698  0.0312 -0.2219
 2920SOL    HW1 9976   0.631   4.242   8.684 -0.6754 -0.5663 -0.1344
 2920SOL    HW2 9977   0.765   4.234   8.752 -1.1992  1.8481  1.3201
 2921SOL     OW 9978   1.681   3.918   8.127  0.0934  0.1541  0.7550
 2921SOL    HW1 9979   1.671   3.924   8.032 -0.3788  0.3824  0.8143
 2921SOL    HW2 9980   1.617   3.852   8.153  0.4456 -0.1422  0.8815
 2922SOL     OW 9981   0.162   5.125   7.848  0.4538  0.0692 -0.0610
 2922SOL    HW1 9982   0.221   5.199   7.833  0.1281  0.2310 -0.5997
 2922SOL    HW2 9983   0.079   5.153   7.809  0.3048 -0.5491 -0.1983
 2923SOL     OW 9984   0.196   4.974   8.074 -0.0253  0.4344 -0.1502
 2923SOL    HW1 9985   0.168   5.025   7.997 -2.2097 -0.0229  0.2774
 2923SOL    HW2 9986   0.168   5.027   8.149 -1.0126 -0.6623  0.2938
 2924SOL     OW 9987   0.439   4.635   8.199  0.1362  0.2204  0.1724
 2924SOL    HW1 9988   0.419   4.707   8.139  2.3869  1.7931  1.1805
 2924SOL    HW2 9989   0.421   4.556   8.149 -1.8337  1.4521 -1.1949
 2925SOL     OW 9990   0.539   5.150   0.024  0.1060  0.0592 -0.3938
 2925SOL    HW1 9991   0.592   5.142  -0.056 -0.9926  0.0675 -1.1428
 2925SOL    HW2 9992   0.539   5.244   0.042 -1.5596  0.3718 -1.7567
 2926SOL     OW 9993   0.682   5.116   7.339  0.7238  0.3854  0.0848
 2926SOL    HW1 9994   0.682   5.180   7.410  0.9049  0.4751  0.0058
 2926SOL    HW2 9995   0.695   5.032   7.383  1.0992  0.4671  0.1386
 2927SOL     OW 9996   0.199   4.233   7.916 -0.2855  0.0095  0.0307
 2927SOL    HW1 9997   0.211   4.207   7.825 -0.4674  0.9878 -0.2844
 2927SOL    HW2 9998   0.175   4.325   7.912 -1.7444 -0.2973  0.9917
 2928SOL     OW 9999   1.812   5.583   7.778  0.3935 -0.2888 -0.0046
 2928SOL    HW110000   1.812   5.490   7.752 -3.0100 -0.3594 -0.3141
 2928SOL    HW210001   1.778   5.628   7.701  1.1015  1.1151  0.4843
 2929SOL     OW10002   8.748   5.069   7.689 -0.0827  0.6692  0.0558
 2929SOL    HW110003   8.791   5.037   7.610  0.3961 -1.4819  1.1346
 2929SOL    HW210004   8.654   5.062   7.670 -0.0278  2.3449 -1.1057
 2930SOL     OW10005   1.397   4.697   7.794 -0.0859  0.0549 -0.0115
 2930SOL    HW110006   1.433   4.610   7.811  3.0611  0.9450 -1.3642
 2930SOL    HW210007   1.413   4.745   7.875  1.9945  0.4332 -0.5874
 2931SOL     OW10008   1.559   5.017   7.767  0.5872  0.2189  0.3861
 2931SOL    HW110009   1.494   4.989   7.832 -0.5379  3.4274  0.8418
 2931SOL    HW210010   1.636   4.965   7.787 -0.9344 -1.6890  1.7310
 2932SOL     OW10011   0.698   5.026   8.674 -0.5955 -0.4558 -0.2073
 2932SOL    HW110012   0.764   4.981   8.727 -0.6271 -1.6917 -1.1610
 2932SOL    HW210013   0.619   4.972   8.685 -1.2368  0.5630  0.2914
 2933SOL     OW10014   0.800   4.090   8.157  0.0457  0.3278  0.2936
 2933SOL    HW110015   0.885   4.046   8.169 -0.2952 -0.3245  0.3589
 2933SOL    HW210016   0.820   4.183   8.168  1.3956  0.5611 -2.9196
 2934SOL     OW10017   0.266   4.676   8.710 -0.7519  0.6241  0.6703
 2934SOL    HW110018   0.184   4.726   8.703 -0.3464  1.6965  2.7799
 2934SOL    HW210019   0.250   4.614   8.781  0.1121  0.5443  0.8022
 2935SOL     OW10020   1.263   4.753   7.552  0.0308 -0.0885  0.1229
 2935SOL    HW110021   1.273   4.663   7.521  0.7333 -0.1670  0.5597
 2935SOL    HW210022   1.308   4.755   7.636 -0.2034  0.6089  0.2378
 2936SOL     OW10023   1.475   5.471   8.626 -0.2216 -0.3881 -0.1122
 2936SOL    HW110024   1.566   5.455   8.602  0.4481  0.7828  1.4063
 2936SOL    HW210025   1.442   5.532   8.560  0.3253 -0.2751 -0.2818
 2937SOL     OW10026   1.402   5.428   7.873 -0.4524 -0.1336 -0.3092
 2937SOL    HW110027   1.369   5.360   7.931  1.0374 -1.5957 -1.0701
 2937SOL    HW210028   1.476   5.466   7.921 -0.5863  0.1699 -0.3445
 2938SOL     OW10029   0.838   4.215   7.639 -0.3815  0.1142  0.2536
 2938SOL    HW110030   0.892   4.290   7.665  1.2662 -0.8883 -0.0782
 2938SOL    HW210031   0.850   4.153   7.711 -1.9075  0.2383  0.6304
 2939SOL     OW10032   1.370   4.058   8.004  0.1924 -0.1730  0.1279
 2939SOL    HW110033   1.350   3.972   7.969  0.1414 -0.6899  1.3919
 2939SOL    HW210034   1.388   4.043   8.097  0.5597  1.1199  0.2856
 2940SOL     OW10035   1.964   5.068   7.753  0.2429 -0.0046 -0.0062
 2940SOL    HW110036   2.015   5.041   7.829  2.4146  0.5890 -1.1569
 2940SOL    HW210037   1.984   5.002   7.686 -1.8708 -0.6899 -0.0439
 2941SOL     OW10038   0.694   4.547   8.607 -0.2004 -0.3208 -0.0608
 2941SOL    HW110039   0.696   4.456   8.637  1.2448 -0.6845 -1.1501
 2941SOL    HW210040   0.614   4.554   8.555  0.5874 -1.5066 -1.4911
 2942SOL     OW10041   0.593   3.951   8.625 -0.2987  0.0364 -0.0376
 2942SOL    HW110042   0.591   3.966   8.531 -2.9231 -1.1219 -0.2397
 2942SOL    HW210043   0.656   4.015   8.658  2.0667 -0.6953 -2.7243
 2943SOL     OW10044   1.060   4.243   7.337  0.4192 -0.5264 -0.2873
 2943SOL    HW110045   1.013   4.192   7.270  0.6911 -0.6744 -0.3650
 2943SOL    HW210046   1.025   4.331   7.327 -1.6686 -1.0788  1.2798
 2944SOL     OW10047   0.193   4.274   7.530 -0.0792  0.1534 -0.0203
 2944SOL    HW110048   0.225   4.365   7.535 -1.7606  0.8650 -1.4438
 2944SOL    HW210049   0.272   4.223   7.511  0.8351  1.3513  0.3766
 2945SOL     OW10050   8.830   6.028   0.656  0.1456 -0.4236 -0.2920
 2945SOL    HW110051   8.826   6.096   0.724  0.5316  0.1670 -0.8406
 2945SOL    HW210052   8.868   5.952   0.699 -0.3162 -0.2970  0.3409
 2946SOL     OW10053   0.678   3.936   7.128 -0.7741  0.3560  0.2577
 2946SOL    HW110054   0.646   3.849   7.152  0.5274 -0.5431 -1.0725
 2946SOL    HW210055   0.605   3.977   7.083 -0.3935 -1.4007 -2.1720
 2947SOL     OW10056   1.869   5.018   8.171  0.7461  0.2317 -0.6299
 2947SOL    HW110057   1.922   5.068   8.233  0.5916  0.0231 -0.3284
 2947SOL    HW210058   1.785   5.006   8.215  0.9712 -0.7915 -0.4502
 2948SOL     OW10059   1.141   4.245   8.355  0.1544 -0.3329 -0.2495
 2948SOL    HW110060   1.187   4.189   8.417 -0.6284 -0.7089 -0.0043
 2948SOL    HW210061   1.153   4.202   8.270  1.5685  0.3915 -0.4586
 2949SOL     OW10062   1.348   5.114   8.304  0.1965 -0.0625  0.3304
 2949SOL    HW110063   1.323   5.148   8.218 -0.7952  0.2219  0.7149
 2949SOL    HW210064   1.310   5.176   8.367  2.2606  0.6217  0.9698
 2950SOL     OW10065   0.373   5.505   8.016  0.1153 -0.4967  0.1289
 2950SOL    HW110066   0.319   5.571   8.058  0.7144  0.1986 -0.1645
 2950SOL    HW210067   0.463   5.530   8.039  0.3685 -0.9912 -0.3043
 2951SOL     OW10068   1.335   4.465   8.412 -0.0411 -0.0205  0.2441
 2951SOL    HW110069   1.331   4.557   8.438 -0.1867  0.8131 -2.3773
 2951SOL    HW210070   1.243   4.438   8.408 -0.0242 -0.1160  0.5143
 2952SOL     OW10071   0.463   4.431   7.406 -0.2931 -0.6320 -0.1980
 2952SOL    HW110072   0.553   4.421   7.375 -0.3416 -1.5565 -0.0698
 2952SOL    HW210073   0.424   4.496   7.348  1.4133  2.4455  1.7928
 2953SOL     OW10074   1.447   4.437   8.168 -0.0738  0.7868 -0.7912
 2953SOL    HW110075   1.503   4.393   8.233  0.9726  2.1738 -0.7165
 2953SOL    HW210076   1.375   4.473   8.219 -0.0275  0.6351 -0.6140
 2954SOL     OW10077   1.206   5.134   7.773  0.3251 -0.5149  0.4641
 2954SOL    HW110078   1.233   5.181   7.694 -0.6355 -1.0707 -0.2194
 2954SOL    HW210079   1.174   5.050   7.740 -3.5434  0.5770  0.9851
 2955SOL     OW10080   1.642   4.909   7.329 -0.0320 -0.6694 -0.4315
 2955SOL    HW110081   1.557   4.898   7.288 -0.2468  0.3825 -0.2863
 2955SOL    HW210082   1.700   4.849   7.281 -1.2453 -2.9914  0.7994
 2956SOL     OW10083   0.372   5.043   7.595 -0.0224 -0.5057 -0.9386
 2956SOL    HW110084   0.317   5.022   7.671 -1.7092  2.0126 -1.3272
 2956SOL    HW210085   0.440   5.100   7.629  2.3015 -3.2993 -0.5376
 2957SOL     OW10086   1.633   3.624   7.879 -0.7201  0.3336  0.5599
 2957SOL    HW110087   1.600   3.570   7.807 -2.2163  1.1993  0.5583
 2957SOL    HW210088   1.716   3.584   7.903 -0.0740  0.1266 -1.7750
 2958SOL     OW10089   0.185   5.680   8.130  0.0614 -0.0617  0.4274
 2958SOL    HW110090   0.163   5.773   8.126 -0.6365 -0.2040  0.7728
 2958SOL    HW210091   0.132   5.646   8.202  0.5439 -0.6664  0.5088
 2959SOL     OW10092   0.913   5.560   8.519 -0.3179  0.1258  0.1860
 2959SOL    HW110093   0.953   5.563   8.606 -0.1269 -1.0136  0.1494
 2959SOL    HW210094   0.916   5.468   8.494 -0.6582  0.3927 -0.9011
 2960SOL     OW10095   0.256   4.504   7.726 -0.8692  0.0740  0.3472
 2960SOL    HW110096   0.171   4.546   7.716 -0.1671  1.0686 -2.6922
 2960SOL    HW210097   0.317   4.577   7.740 -0.2637 -0.3773  0.1319
 2961SOL     OW10098   0.857   3.957   7.484  0.2747  0.0686 -0.7075
 2961SOL    HW110099   0.830   4.008   7.560 -0.9554  1.0173 -1.7318
 2961SOL    HW210100   0.903   3.881   7.521 -0.4241  0.4158  0.9778
 2962SOL     OW10101   1.207   5.096   0.026  0.2140  0.2207 -0.3184
 2962SOL    HW110102   1.276   5.160   0.042 -0.5428  1.5009 -1.8891
 2962SOL    HW210103   1.254   5.014   0.011  1.1843  0.2341  2.2046
 2963SOL     OW10104   0.989   5.078   8.707 -0.9375  0.2849 -0.1178
 2963SOL    HW110105   1.032   5.028   8.639 -1.0056  1.0493 -0.7407
 2963SOL    HW210106   1.059   5.105   8.766 -0.8783 -0.3749  0.1174
 2964SOL     OW10107   0.778   4.570   8.327  0.1868  0.1083 -0.3934
 2964SOL    HW110108   0.780   4.632   8.254 -0.2887  0.3905 -0.1656
 2964SOL    HW210109   0.737   4.618   8.399 -0.0102 -0.4058 -0.1581
 2965SOL     OW10110   0.799   4.047   7.874  0.2419 -0.8637  0.6603
 2965SOL    HW110111   0.827   3.957   7.863  1.1752 -0.7708  2.0617
 2965SOL    HW210112   0.783   4.056   7.968 -1.1134  0.0804  0.3763
 2966SOL     OW10113   1.363   4.867   7.280 -0.3667  0.1144 -0.0642
 2966SOL    HW110114   1.328   4.830   7.361 -0.0365 -1.3057 -0.5322
 2966SOL    HW210115   1.341   4.802   7.213  2.9631 -0.8083 -0.4239
 2967SOL     OW10116   0.056   3.883   7.972 -0.0583  0.2959  0.3045
 2967SOL    HW110117  -0.003   3.868   8.046 -0.4570 -1.4222 -0.3220
 2967SOL    HW210118   0.109   3.958   7.998 -0.4584 -0.0297  2.1606
 2968SOL     OW10119   1.146   4.097   7.572 -0.2914 -0.0114  0.0835
 2968SOL    HW110120   1.202   4.156   7.622 -1.6080 -1.0339  2.9882
 2968SOL    HW210121   1.109   4.152   7.503  1.0640  1.6795  0.6247
 2969SOL     OW10122   0.917   5.302   8.460 -0.7509 -0.9209 -0.3936
 2969SOL    HW110123   0.838   5.264   8.421 -1.0907 -1.2003  0.5272
 2969SOL    HW210124   0.927   5.256   8.544 -0.9932  0.7453  0.6078
 2970SOL     OW10125   0.452   4.896   7.999 -0.1912  0.6859 -0.5920
 2970SOL    HW110126   0.371   4.927   8.039 -0.8075  0.4768 -1.6242
 2970SOL    HW210127   0.504   4.974   7.985  0.5375  0.6553  1.6086
 2971SOL     OW10128   1.630   5.230   8.228  0.1917 -0.3014  0.0943
 2971SOL    HW110129   1.545   5.189   8.247 -0.9231  2.2151  0.9786
 2971SOL    HW210130   1.663   5.258   8.314  0.5682  1.1978 -0.5166
 2972SOL     OW10131   0.926   3.993   7.225  0.7449  0.2252 -0.3028
 2972SOL    HW110132   0.911   3.977   7.318 -0.1048 -1.4872 -0.6933
 2972SOL    HW210133   0.841   3.975   7.183  0.9426  1.5510 -1.3621
 2973SOL     OW10134   0.774   3.709   8.293 -0.7071  0.2081  0.0424
 2973SOL    HW110135   0.829   3.724   8.370  0.9902  1.8096 -1.3762
 2973SOL    HW210136   0.708   3.779   8.297 -0.9466 -0.0260  0.2836
 2974SOL     OW10137   1.131   4.146   8.093 -0.1807  0.1860  0.2932
 2974SOL    HW110138   1.079   4.068   8.109 -1.0377  0.2571 -1.7312
 2974SOL    HW210139   1.214   4.114   8.058 -1.0750  0.1078 -1.9662
 2975SOL     OW10140   1.186   3.629   8.109 -0.3452 -0.5310 -0.6661
 2975SOL    HW110141   1.099   3.641   8.070  0.0337  0.4003 -1.2575
 2975SOL    HW210142   1.183   3.680   8.189  0.1500  0.8452 -1.4816
 2976SOL     OW10143   2.012   5.168   8.342 -0.0845 -0.0158  0.2009
 2976SOL    HW110144   2.013   5.264   8.334  0.4725 -0.0293  0.0740
 2976SOL    HW210145   2.050   5.150   8.427  2.8703 -0.2271 -1.0616
 2977SOL     OW10146   1.151   4.463   8.715 -0.0098  0.1283 -0.0996
 2977SOL    HW110147   1.104   4.381   8.700 -0.7217  0.2143  1.5220
 2977SOL    HW210148   1.203   4.448   8.793  0.5609  0.9375 -0.3096
 2978SOL     OW10149   1.719   4.255   7.678  0.5621 -0.0162 -0.3560
 2978SOL    HW110150   1.651   4.234   7.742 -1.0281  1.2937 -1.5538
 2978SOL    HW210151   1.689   4.216   7.596  2.1439 -0.9032 -0.5565
 2979SOL     OW10152   0.427   4.780   7.429 -0.0788 -0.0559 -0.6233
 2979SOL    HW110153   0.521   4.772   7.447  0.3497  0.1541 -2.5669
 2979SOL    HW210154   0.398   4.852   7.486  0.8142 -0.4332  0.3537
 2980SOL     OW10155   2.042   4.931   7.977 -0.3242 -0.4645 -0.0908
 2980SOL    HW110156   2.125   4.896   8.007 -0.8101 -3.0292 -1.4267
 2980SOL    HW210157   1.981   4.914   8.049 -0.2524 -1.1673 -0.1878
 2981SOL     OW10158   1.483   3.865   7.458  0.2168  0.0828  0.2614
 2981SOL    HW110159   1.502   3.906   7.374  3.4485  2.9178  2.1102
 2981SOL    HW210160   1.398   3.899   7.483  0.2615  1.0507 -0.8291
 2982SOL     OW10161   0.804   3.806   7.782 -0.1819 -0.0934  0.7863
 2982SOL    HW110162   0.775   3.787   7.692 -0.6753  0.9430  0.7193
 2982SOL    HW210163   0.745   3.754   7.837 -3.3261  3.0474  0.7295
 2983SOL     OW10164   2.159   5.047   0.148 -0.3444  0.1810  0.5017
 2983SOL    HW110165   2.093   5.043   0.079 -1.8072 -0.4816  1.8896
 2983SOL    HW210166   2.163   4.958   0.183 -1.0119  0.8837  2.4895
 2984SOL     OW10167   1.526   4.975   8.805  0.2272 -0.0344  0.3919
 2984SOL    HW110168   1.517   5.015   8.891  2.2277  0.7921  0.2731
 2984SOL    HW210169   1.566   4.890   8.821  2.4941  0.9378  0.2008
 2985SOL     OW10170   1.479   4.110   8.772 -0.0489  0.4374  0.6066
 2985SOL    HW110171   1.507   4.185   8.825  0.3321  0.7368 -0.0039
 2985SOL    HW210172   1.491   4.140   8.681 -1.5282  0.2573  0.3353
 2986SOL     OW10173   0.776   4.756   7.737 -0.2651 -0.1399  0.3634
 2986SOL    HW110174   0.815   4.669   7.725  1.9719  0.9242 -0.5775
 2986SOL    HW210175   0.758   4.786   7.648 -1.5873  0.1598  0.7124
 2987SOL     OW10176   0.451   4.570   8.497  0.7084  0.3033  0.1009
 2987SOL    HW110177   0.418   4.647   8.545  0.6789  0.1844  0.2726
 2987SOL    HW210178   0.438   4.591   8.405  0.6055  0.4624  0.1514
 2988SOL     OW10179   1.227   3.802   8.640 -0.9262 -0.6793  0.4958
 2988SOL    HW110180   1.141   3.831   8.669 -0.9530  0.2748 -0.4389
 2988SOL    HW210181   1.264   3.756   8.715 -2.1006 -0.7818  1.0331
 2989SOL     OW10182   0.146   5.994   0.437 -0.2857 -0.0646 -0.2046
 2989SOL    HW110183   0.097   5.995   0.519 -0.7603 -0.6819 -0.4743
 2989SOL    HW210184   0.108   6.065   0.385  0.6468  0.9430  0.4626
 2990SOL     OW10185   0.165   4.704   8.048  0.6152 -0.5133 -0.1409
 2990SOL    HW110186   0.206   4.790   8.038  0.5550 -0.3284  1.0880
 2990SOL    HW210187   0.113   4.694   7.969 -1.5522  1.7896  0.8493
 2991SOL     OW10188   0.450   4.418   8.050  0.0080 -0.3361 -0.3032
 2991SOL    HW110189   0.515   4.386   7.988  0.0962 -1.0385  0.1318
 2991SOL    HW210190   0.439   4.345   8.112 -0.9558 -0.1048 -0.1880
 2992SOL     OW10191   1.391   4.842   8.288  0.2729  0.6847  0.0067
 2992SOL    HW110192   1.309   4.793   8.285  1.0309 -0.8112  1.7912
 2992SOL    HW210193   1.365   4.932   8.306 -1.0533  0.6459 -1.5059
 2993SOL     OW10194   1.683   5.127   8.646  0.4323 -0.4077 -0.1655
 2993SOL    HW110195   1.633   5.083   8.715  0.0197  1.0869  0.5288
 2993SOL    HW210196   1.692   5.061   8.577 -1.3564 -1.1414  0.2492
 2994SOL     OW10197   1.572   4.159   7.879  0.2807 -0.1525 -0.0620
 2994SOL    HW110198   1.613   4.075   7.856 -1.3624 -1.0008 -0.0228
 2994SOL    HW210199   1.496   4.135   7.931  0.6316  1.4729  1.2611
 2995SOL     OW10200   0.295   5.810   8.680 -0.5051 -0.6650  0.0683
 2995SOL    HW110201   0.280   5.781   8.591 -0.3301 -2.3337  0.5596
 2995SOL    HW210202   0.306   5.730   8.731  2.0509  0.2543  1.1600
 2996SOL     OW10203   0.674   4.316   8.356  0.5301  0.1080 -0.3952
 2996SOL    HW110204   0.722   4.393   8.326  0.2617  1.2734  1.9151
 2996SOL    HW210205   0.590   4.350   8.385 -0.0364 -1.2545 -0.3754
 2997SOL     OW10206   1.152   4.725   8.237 -0.4903  0.3544 -1.1706
 2997SOL    HW110207   1.132   4.718   8.144  0.6090 -0.0056 -1.3881
 2997SOL    HW210208   1.130   4.638   8.272 -0.8407  0.4688 -1.1014
 2998SOL     OW10209   1.140   3.806   7.535 -0.4148 -0.2788 -0.5778
 2998SOL    HW110210   1.120   3.809   7.441 -0.4127  0.6031 -0.5628
 2998SOL    HW210211   1.161   3.897   7.557  1.6488 -0.8005 -0.1741
 2999SOL     OW10212   0.231   4.243   8.715  0.3095  0.8450 -0.4839
 2999SOL    HW110213   0.165   4.228   8.646  0.3767  0.7903 -0.5356
 2999SOL    HW210214   0.179   4.253   8.795  0.3236 -1.1116 -0.1778
 3000SOL     OW10215   8.737   5.688   8.584  0.1396 -0.1462 -0.1913
 3000SOL    HW110216   8.768   5.640   8.660 -0.8051 -0.0540  0.2674
 3000SOL    HW210217   8.650   5.719   8.609  0.4979  1.3322 -0.6729
 3001SOL     OW10218   0.709   4.640   8.042 -0.0132 -0.0140 -0.1061
 3001SOL    HW110219   0.722   4.580   7.968 -2.2345  0.3269 -0.8376
 3001SOL    HW210220   0.632   4.606   8.088 -0.4299  1.4287  0.3210
 3002SOL     OW10221   0.470   4.154   8.144  0.7186 -0.6031 -0.6578
 3002SOL    HW110222   0.562   4.132   8.125  0.5702 -1.8927 -0.0434
 3002SOL    HW210223   0.420   4.085   8.100  0.0298  0.1247 -1.0380
 3003SOL     OW10224   1.650   3.890   7.861 -0.4372 -0.4329  0.4989
 3003SOL    HW110225   1.623   3.800   7.844  1.0730 -0.7382 -0.4801
 3003SOL    HW210226   1.727   3.903   7.805  0.2445  0.9966  1.6863
 3004SOL     OW10227   1.186   4.427   8.037  0.2695 -0.6228 -0.3622
 3004SOL    HW110228   1.254   4.410   8.102 -0.0778  0.3623  0.2836
 3004SOL    HW210229   1.132   4.347   8.038 -0.7937  0.0202  1.9326
 3005SOL     OW10230   1.691   3.548   7.195 -0.1020 -0.2957 -0.1586
 3005SOL    HW110231   1.644   3.579   7.272  0.5403  0.0150  0.1236
 3005SOL    HW210232   1.626   3.549   7.125 -0.5730 -0.1178  0.2741
 3006SOL     OW10233   1.042   4.178   6.793 -0.2952 -0.4932  0.2422
 3006SOL    HW110234   1.098   4.152   6.866  1.4288  1.1136 -0.4135
 3006SOL    HW210235   0.965   4.218   6.835  0.8378  0.7545  1.2004
 3007SOL     OW10236   1.113   4.946   8.495  0.3699 -0.4734 -0.0322
 3007SOL    HW110237   1.093   4.860   8.458 -1.7944  0.0968 -0.3326
 3007SOL    HW210238   1.135   5.000   8.419 -1.6709  0.0655 -0.3108
 3008SOL     OW10239   0.135   4.460   8.154 -0.0566  0.1107 -0.2981
 3008SOL    HW110240   0.218   4.412   8.159  0.0072  0.2893  0.5804
 3008SOL    HW210241   0.155   4.538   8.103  0.4861  0.4768  0.4542
 3009SOL     OW10242   0.367   3.903   8.786  0.6658  0.4114  0.2887
 3009SOL    HW110243   0.283   3.893   8.742  0.4955 -1.7750  1.0242
 3009SOL    HW210244   0.424   3.942   8.720 -0.4850  0.4371 -0.7214
 3010SOL     OW10245   0.904   3.597   8.521 -0.3363 -0.6783  0.1255
 3010SOL    HW110246   0.966   3.535   8.559  0.0791 -0.1655  0.2974
 3010SOL    HW210247   0.867   3.643   8.596 -0.5958 -0.6688 -0.0064
 3011SOL     OW10248   0.007   4.702   7.827 -0.0553  0.1961  0.6255
 3011SOL    HW110249  -0.047   4.780   7.844  1.4350  1.9039 -1.9205
 3011SOL    HW210250   0.003   4.690   7.732  0.8559 -2.0818  0.8132
 3012SOL     OW10251   8.738   5.172   8.088 -0.2544  0.6427  0.4747
 3012SOL    HW110252   8.681   5.233   8.042  2.1656  2.4852 -0.2248
 3012SOL    HW210253   8.820   5.219   8.101  1.2454 -1.9553  1.2320
 3013SOL     OW10254   0.384   5.254   7.992 -0.1379 -0.3589  0.0279
 3013SOL    HW110255   0.315   5.241   8.056 -0.0378 -1.9894 -0.1519
 3013SOL    HW210256   0.410   5.345   8.003 -1.5841 -0.0154  0.8158
 3014SOL     OW10257   0.946   4.648   8.624  0.3486 -0.2515  0.2473
 3014SOL    HW110258   0.875   4.585   8.620  0.7744 -0.6950 -1.4561
 3014SOL    HW210259   1.021   4.598   8.657  0.4844 -0.4596 -0.3537
 3015SOL     OW10260   8.711   4.346   8.596 -0.4771 -0.0890 -0.0943
 3015SOL    HW110261   8.780   4.411   8.589  0.7162 -1.3166 -0.2255
 3015SOL    HW210262   8.669   4.364   8.680  0.3325  0.3743  0.2184
 3016SOL     OW10263   0.888   4.513   7.840 -0.4668  0.1465  0.3093
 3016SOL    HW110264   0.931   4.469   7.767 -0.0485 -0.6932  1.0477
 3016SOL    HW210265   0.959   4.557   7.887 -0.6981  0.4604  0.3724
 3017SOL     OW10266   1.717   4.092   8.389 -0.7369  1.0420 -0.0828
 3017SOL    HW110267   1.699   4.010   8.342 -0.7467  1.7141 -1.2894
 3017SOL    HW210268   1.650   4.096   8.458  1.7722 -2.0844  2.9260
 3018SOL     OW10269   0.654   4.027   8.370 -0.4286  0.3204  0.2979
 3018SOL    HW110270   0.632   4.117   8.395 -0.8190  0.8663 -1.8250
 3018SOL    HW210271   0.699   4.036   8.286 -1.9665 -1.5517 -0.7987
 3019SOL     OW10272   1.047   5.457   8.808 -0.4177 -0.4277 -0.2983
 3019SOL    HW110273   1.058   5.551   8.824 -2.1825 -0.4950  1.7196
 3019SOL    HW210274   1.132   5.419   8.829 -0.4833  0.4276  1.7625
 3020SOL     OW10275   0.578   3.957   7.392 -0.0828 -0.0530  0.4820
 3020SOL    HW110276   0.613   3.996   7.311 -0.9866 -0.2958 -0.0375
 3020SOL    HW210277   0.656   3.941   7.445  0.3858  1.7593  0.4171
 3021SOL     OW10278   8.759   4.931   8.818  0.2586  0.1493  0.4796
 3021SOL    HW110279   8.776   4.849   8.772  0.6441 -1.3810  3.1931
 3021SOL    HW210280   8.844   4.957   8.853  0.3065  2.1971 -0.9292
 3022SOL     OW10281   1.253   4.839   8.776 -0.1432  0.2045  0.0932
 3022SOL    HW110282   1.342   4.874   8.780 -0.2281  0.3845  0.6186
 3022SOL    HW210283   1.240   4.812   8.685  0.0372  1.2632 -0.2554
 3023SOL     OW10284   1.315   4.493   7.528 -0.0871 -0.4669  0.0356
 3023SOL    HW110285   1.411   4.497   7.528 -0.1332  1.7919 -0.4505
 3023SOL    HW210286   1.295   4.423   7.466  1.2391 -1.1772  0.3619
 3024SOL     OW10287   1.197   5.305   8.446  0.4658 -0.3600  0.2487
 3024SOL    HW110288   1.103   5.327   8.444  0.4114 -0.6524 -0.7832
 3024SOL    HW210289   1.216   5.292   8.539 -0.1403  1.2940  0.6488
 3025SOL     OW10290   1.338   5.314   8.818 -0.4609  0.1321 -0.4550
 3025SOL    HW110291   1.388   5.368   8.757 -0.3025 -0.0041 -0.4475
 3025SOL    HW210292   1.370   5.339   8.905 -1.4256  1.0773 -0.3545
 3026SOL     OW10293   8.771   5.147   8.426 -0.4635 -0.1266  0.6240
 3026SOL    HW110294   8.723   5.074   8.388 -1.5246  0.4740  0.7474
 3026SOL    HW210295   8.774   5.213   8.357  0.0840 -0.1056  0.6615
 3027SOL     OW10296   1.902   3.673   7.489  0.0765  0.4255 -0.2906
 3027SOL    HW110297   1.923   3.747   7.431  1.1287  0.8713  0.6113
 3027SOL    HW210298   1.852   3.713   7.560 -2.3624 -0.3309 -1.4820
 3028SOL     OW10299   1.636   5.246   7.931  0.0609  0.2163 -0.0894
 3028SOL    HW110300   1.569   5.191   7.892 -0.8809  1.1426  0.1795
 3028SOL    HW210301   1.650   5.210   8.019  0.7381 -0.6486 -0.5349
 3029SOL     OW10302   1.628   4.943   8.452  0.3688 -0.7627 -0.2775
 3029SOL    HW110303   1.549   4.986   8.421 -0.4131 -1.8927  0.0636
 3029SOL    HW210304   1.607   4.850   8.450  0.2858 -0.9735  3.3795
 3030SOL     OW10305   0.656   5.268   7.556  0.0929 -0.0722 -0.2098
 3030SOL    HW110306   0.596   5.222   7.615  0.7346  0.0715  0.5693
 3030SOL    HW210307   0.644   5.360   7.576 -0.5247  0.0653 -1.1328
 3031SOL     OW10308   2.003   3.763   8.476  0.1244 -0.2866 -0.3960
 3031SOL    HW110309   1.989   3.734   8.566  0.8978  0.8770  0.1306
 3031SOL    HW210310   2.060   3.696   8.438  1.1024  0.0075  0.4928
 3032SOL     OW10311   8.460   4.095   8.074 -0.2499  0.2447 -0.2401
 3032SOL    HW110312   8.495   4.134   8.154 -3.5859  0.5209  1.2430
 3032SOL    HW210313   8.458   4.167   8.011 -1.5983  1.2311  0.8698
 3033SOL     OW10314   1.171   5.076   7.286  0.0451 -0.2805 -0.1295
 3033SOL    HW110315   1.101   5.040   7.232  1.0450 -0.7104 -1.1650
 3033SOL    HW210316   1.241   5.012   7.281  0.3874 -0.0593  1.2395
 3034SOL     OW10317   0.682   4.808   8.461  0.1087 -0.0165 -0.0379
 3034SOL    HW110318   0.643   4.806   8.548  0.3247  1.5982  0.1109
 3034SOL    HW210319   0.776   4.818   8.477 -0.0474  2.5682 -0.4415
 3035SOL     OW10320   0.680   4.680   7.459 -0.0257 -0.0393  0.2735
 3035SOL    HW110321   0.723   4.597   7.477  1.1878  1.0084  2.7988
 3035SOL    HW210322   0.737   4.723   7.395  1.2400  0.1841  1.5064
 3036SOL     OW10323   1.483   5.345   7.374 -0.0999 -0.1406  0.6139
 3036SOL    HW110324   1.503   5.266   7.424 -0.7946 -0.2492  0.7302
 3036SOL    HW210325   1.402   5.378   7.413 -0.3493  0.0795 -0.0833
 3037SOL     OW10326   1.861   4.530   8.844  0.1241  0.0110 -0.3590
 3037SOL    HW110327   1.870   4.444   8.886  1.8712  0.9625  1.3764
 3037SOL    HW210328   1.911   4.523   8.763 -0.3360 -0.7949 -0.5907
 3038SOL     OW10329   0.906   4.834   8.085 -0.0926  0.2407  0.2200
 3038SOL    HW110330   0.959   4.802   8.013 -0.5888  0.0083 -0.0483
 3038SOL    HW210331   0.845   4.763   8.104  1.6953 -0.7671  2.6086
 3039SOL     OW10332   1.298   3.808   7.940  0.5431  0.2393 -0.2193
 3039SOL    HW110333   1.218   3.834   7.894 -0.0884  0.9547  1.2069
 3039SOL    HW210334   1.268   3.751   8.010  1.2599  0.5799  0.3864
 3040SOL     OW10335   0.515   5.156   7.775  0.1295 -0.3945 -0.0888
 3040SOL    HW110336   0.584   5.108   7.820  1.8200  1.5753 -0.4292
 3040SOL    HW210337   0.454   5.182   7.844 -0.0519 -1.7316  0.2819
 3041SOL     OW10338   1.551   3.858   8.720 -0.0501  0.1793 -0.2422
 3041SOL    HW110339   1.533   3.947   8.749  0.8513 -0.2917  1.9785
 3041SOL    HW210340   1.465   3.819   8.706 -0.4875  0.9959  0.1367
 3042SOL     OW10341   8.833   4.668   7.504  0.4360 -0.2792  1.0932
 3042SOL    HW110342   8.846   4.688   7.412  0.7355 -1.7904  0.7747
 3042SOL    HW210343   8.753   4.714   7.528 -1.8961 -2.8927 -0.9889
 3043SOL     OW10344   0.463   3.917   0.182  0.1015 -0.3808  0.1334
 3043SOL    HW110345   0.398   3.881   0.242 -0.9665  0.3258 -0.5577
 3043SOL    HW210346   0.420   3.912   0.096  1.6195 -1.4469 -0.6089
 3044SOL     OW10347   0.103   3.820   7.466  0.2103 -0.2011  0.0305
 3044SOL    HW110348   0.155   3.813   7.546 -0.4629 -0.0818  0.4830
 3044SOL    HW210349   0.114   3.911   7.438  1.8370 -0.6625 -0.9848
 3045SOL     OW10350   0.342   3.971   7.961 -0.2181  0.2255  0.1885
 3045SOL    HW110351   0.283   3.906   7.923 -1.4957  0.8605  1.0056
 3045SOL    HW210352   0.391   4.006   7.887 -0.0924 -1.0763 -0.3697
 3046SOL     OW10353   0.909   4.874   7.452 -0.4607 -0.2737 -0.0042
 3046SOL    HW110354   0.979   4.920   7.499 -1.2687  1.2203 -0.2049
 3046SOL    HW210355   0.926   4.891   7.360  2.3389 -4.9033 -0.6863
 3047SOL     OW10356   0.414   5.119   8.403  0.6576 -0.6888  0.5710
 3047SOL    HW110357   0.454   5.062   8.338  1.2279 -0.3278  0.6003
 3047SOL    HW210358   0.487   5.169   8.439  0.0773  0.7154 -0.1104
 3048SOL     OW10359   1.790   5.705   8.750  0.0713  0.5209 -0.5003
 3048SOL    HW110360   1.804   5.617   8.715 -0.2531  0.5380 -0.6742
 3048SOL    HW210361   1.802   5.695   8.845  1.0642  0.4969 -0.6155
 3049SOL     OW10362   0.343   5.829   0.345  0.2456 -0.5427  0.4738
 3049SOL    HW110363   0.346   5.870   0.258 -0.7022 -0.0255  0.6693
 3049SOL    HW210364   0.281   5.882   0.394 -0.2130 -1.5958  1.0672
 3050SOL     OW10365   1.488   4.219   8.529  0.1658  0.6780 -0.5605
 3050SOL    HW110366   1.413   4.162   8.510  0.1119  0.7511 -0.5693
 3050SOL    HW210367   1.477   4.294   8.471  0.5532  0.4244 -0.9625
 3051SOL     OW10368   1.288   4.230   7.766  0.1004 -0.3338 -0.3210
 3051SOL    HW110369   1.307   4.183   7.847  0.3059 -0.2368 -0.3121
 3051SOL    HW210370   1.339   4.311   7.773 -0.7405  0.1954 -0.0446
 3052SOL     OW10371   1.060   4.380   7.673 -0.0978 -1.0167 -0.1488
 3052SOL    HW110372   1.094   4.458   7.631  1.0302 -1.7813 -0.7007
 3052SOL    HW210373   1.136   4.342   7.718 -1.0208 -0.8118  1.6927
 3053SOL     OW10374   2.092   4.816   8.529  0.0252 -0.2202 -0.3505
 3053SOL    HW110375   2.164   4.793   8.588 -0.9034  0.1043  0.9477
 3053SOL    HW210376   2.114   4.773   8.446  1.1955 -0.9710  0.3295
 3054SOL     OW10377   0.645   5.293   8.131 -0.5566 -0.4185  0.0062
 3054SOL    HW110378   0.721   5.239   8.155  1.0807  1.0444 -1.5414
 3054SOL    HW210379   0.580   5.231   8.098  1.0148 -1.5452 -1.1316
 3055SOL     OW10380   0.638   5.624   8.514  0.3016 -0.3711  0.4969
 3055SOL    HW110381   0.602   5.680   8.445 -2.0518 -0.1954  1.7589
 3055SOL    HW210382   0.732   5.620   8.496  0.1317  1.7548 -1.2018
 3056SOL     OW10383   0.882   4.852   8.808  0.1570 -0.2090  0.1567
 3056SOL    HW110384   0.923   4.929   8.769 -2.1131  0.7176 -0.5174
 3056SOL    HW210385   0.887   4.785   8.740 -0.0420  0.0950 -0.1593
 3057SOL     OW10386   0.964   4.613   7.509  0.0713 -0.0505  0.0472
 3057SOL    HW110387   0.959   4.709   7.508 -0.5765 -0.0843 -0.0455
 3057SOL    HW210388   0.988   4.589   7.420  0.7265  0.0455  0.1897
 3058SOL     OW10389   2.097   5.132   8.589 -0.3514  0.0334  0.0682
 3058SOL    HW110390   2.102   5.037   8.601 -1.8851 -0.1403 -0.4192
 3058SOL    HW210391   2.049   5.163   8.665 -0.9987  0.2451 -0.4209
 3059SOL     OW10392   0.175   4.663   8.448  0.3623 -0.0262 -0.4403
 3059SOL    HW110393   0.213   4.596   8.390  0.0814 -0.6314  0.0577
 3059SOL    HW210394   0.242   4.677   8.515  2.4858  3.6412 -3.0207
 3060SOL     OW10395   1.684   3.742   8.484  0.0017 -0.1580 -0.2432
 3060SOL    HW110396   1.732   3.661   8.503  2.3061  1.2237  0.1986
 3060SOL    HW210397   1.681   3.788   8.568  1.2604  1.4452 -1.0157
 3061SOL     OW10398   0.656   4.353   7.886 -0.0163 -0.3289 -0.1658
 3061SOL    HW110399   0.604   4.372   7.808  0.2502  0.5831 -0.1456
 3061SOL    HW210400   0.746   4.371   7.859  0.1428 -0.5893  0.1808
 3062SOL     OW10401   1.777   5.439   8.608 -0.1381 -0.6461  0.0371
 3062SOL    HW110402   1.784   5.350   8.641 -0.2583 -0.5425  0.3440
 3062SOL    HW210403   1.834   5.441   8.531 -0.6406 -1.1681 -0.3531
 3063SOL     OW10404   0.481   4.338   8.641 -0.2438 -0.0394  0.2739
 3063SOL    HW110405   0.445   4.407   8.585  0.7442  0.8701  0.7194
 3063SOL    HW210406   0.405   4.285   8.665 -0.7608 -0.2036 -1.5598
 3064SOL     OW10407   0.814   5.082   8.228  0.2324 -0.0930 -0.7307
 3064SOL    HW110408   0.729   5.044   8.251  0.1120  0.9153  0.6390
 3064SOL    HW210409   0.866   5.008   8.195 -0.4932 -1.1388  0.3839
 3065SOL     OW10410   1.273   4.052   8.537  0.1683 -0.5642  0.4375
 3065SOL    HW110411   1.259   3.961   8.561 -0.0398 -0.3500  1.1691
 3065SOL    HW210412   1.226   4.102   8.604 -0.6227  0.0675 -0.5380
 3066SOL     OW10413   1.013   3.934   8.210 -0.7508  0.1392 -0.0444
 3066SOL    HW110414   1.007   3.865   8.145  1.2498  0.3753 -0.5396
 3066SOL    HW210415   1.028   3.888   8.293  2.4050 -0.0919 -0.6156
 3067SOL     OW10416   0.710   4.995   7.877 -0.0850 -0.0272  0.1975
 3067SOL    HW110417   0.792   5.042   7.895  0.0346 -0.7944  1.7739
 3067SOL    HW210418   0.738   4.911   7.840 -0.2914  0.8725 -2.2313
 3068SOL     OW10419   0.316   5.559   8.795 -0.6019  0.6126 -0.0311
 3068SOL    HW110420   0.410   5.574   8.805 -0.1987 -0.3850 -1.8843
 3068SOL    HW210421   0.309   5.489   8.730 -2.6293  0.3264  0.4161
 3069SOL     OW10422   1.574   3.602   7.433  0.7660 -0.0417 -0.2215
 3069SOL    HW110423   1.524   3.557   7.502 -0.5645  1.3756 -0.2079
 3069SOL    HW210424   1.546   3.693   7.439  2.0491  0.4672 -1.4282
 3070SOL     OW10425   1.394   3.977   8.271 -0.1748  0.5209 -0.5639
 3070SOL    HW110426   1.410   3.883   8.270 -0.6852  0.4331 -0.8604
 3070SOL    HW210427   1.350   3.993   8.355 -0.5197  0.4161 -0.7210
 3071SOL     OW10428   1.796   3.659   8.156 -0.1414  0.2983 -0.6027
 3071SOL    HW110429   1.845   3.628   8.233 -0.0518  0.9188 -0.4050
 3071SOL    HW210430   1.780   3.752   8.174 -0.4028  0.3682 -1.1897
 3072SOL     OW10431   8.613   4.809   7.637  0.1520  0.1261  0.1491
 3072SOL    HW110432   8.520   4.834   7.639  0.0165 -0.3309 -0.2246
 3072SOL    HW210433   8.612   4.713   7.637  0.6304  0.1196  0.3159
 3073SOL     OW10434   0.943   5.221   7.855  0.7425 -0.2244 -0.1131
 3073SOL    HW110435   0.951   5.263   7.941 -0.9555  0.5850 -0.3009
 3073SOL    HW210436   1.033   5.217   7.822  1.5114 -1.0433  1.9049
 3074SOL     OW10437   0.592   6.266   0.353  0.4176 -0.3525  0.5015
 3074SOL    HW110438   0.676   6.266   0.307  0.0578  0.1669 -0.1773
 3074SOL    HW210439   0.535   6.213   0.298  0.5837 -1.6604  1.5349
 3075SOL     OW10440   0.204   5.833   0.979 -0.4213  0.0287 -0.2551
 3075SOL    HW110441   0.265   5.861   1.047  2.5703 -1.8412 -1.9190
 3075SOL    HW210442   0.171   5.748   1.009  1.1317 -0.9404 -1.1522
 3076SOL     OW10443   8.678   5.713   0.685  0.1866 -0.0031 -0.1056
 3076SOL    HW110444   8.646   5.645   0.744 -0.1862  0.7568  0.5813
 3076SOL    HW210445   8.769   5.728   0.712  0.7479 -1.2063 -1.1840
 3077SOL     OW10446   0.520   7.478   1.125  0.0341  0.0304 -0.3016
 3077SOL    HW110447   0.443   7.421   1.122 -0.9573  1.3940 -2.1109
 3077SOL    HW210448   0.588   7.429   1.078  0.5192 -1.3921  1.7138
 3078SOL     OW10449   1.961   7.545   0.446  0.4779  0.3438 -0.1293
 3078SOL    HW110450   1.924   7.533   0.359  0.4370  1.1039 -0.2237
 3078SOL    HW210451   2.050   7.509   0.440 -0.1059 -1.2138  0.0133
 3079SOL     OW10452   1.218   6.240   0.519  0.0157  0.0776  0.8799
 3079SOL    HW110453   1.278   6.314   0.513  2.1524 -1.5750  0.7011
 3079SOL    HW210454   1.238   6.200   0.604 -0.5696 -0.7273  0.6475
 3080SOL     OW10455   1.713   6.376   0.108  0.2974  0.0193  0.0923
 3080SOL    HW110456   1.807   6.391   0.099  0.2398 -0.1031 -0.8367
 3080SOL    HW210457   1.672   6.443   0.053 -0.0047 -2.3077 -2.7880
 3081SOL     OW10458   0.833   7.163   1.154 -0.0113  0.1263  0.3511
 3081SOL    HW110459   0.846   7.140   1.062 -1.2126 -0.1185  0.2398
 3081SOL    HW210460   0.786   7.089   1.192 -0.4350  0.6809  0.9207
 3082SOL     OW10461   0.756   6.698   1.894  0.5011 -0.0284  0.2031
 3082SOL    HW110462   0.793   6.611   1.884 -1.2721 -0.9155  1.0374
 3082SOL    HW210463   0.721   6.720   1.808 -1.5832 -1.3851  0.6490
 3083SOL     OW10464   0.855   7.036   0.901 -0.0287 -0.7665  0.1300
 3083SOL    HW110465   0.827   6.988   0.823 -2.3593  0.1230  0.3619
 3083SOL    HW210466   0.898   7.114   0.867  1.6395 -1.7796 -0.2230
 3084SOL     OW10467   0.795   7.241   1.992  0.1748 -0.1370  0.1234
 3084SOL    HW110468   0.798   7.290   1.910  1.1153  1.0771  0.8375
 3084SOL    HW210469   0.738   7.166   1.974 -0.6237  0.7682 -1.2606
 3085SOL     OW10470   0.295   7.038   1.208  0.3408  0.3025 -0.3091
 3085SOL    HW110471   0.317   6.949   1.236  1.5663  0.6376 -0.1303
 3085SOL    HW210472   0.287   7.032   1.113 -0.1082 -0.0954 -0.2501
 3086SOL     OW10473   1.160   7.074   1.094  0.3901 -0.0035  0.0474
 3086SOL    HW110474   1.171   6.982   1.116  1.0749 -0.0317 -0.3705
 3086SOL    HW210475   1.073   7.079   1.055  0.8244 -0.7160 -1.0683
 3087SOL     OW10476   0.953   6.197   0.898 -0.3047  0.0617  0.0019
 3087SOL    HW110477   0.898   6.131   0.856 -0.1806 -0.8648  1.2133
 3087SOL    HW210478   0.895   6.240   0.961 -0.5766  1.6508 -1.2650
 3088SOL     OW10479   1.644   6.141   0.464  0.2341  0.3398 -0.3056
 3088SOL    HW110480   1.698   6.110   0.391  1.2089  1.8267 -0.2528
 3088SOL    HW210481   1.569   6.081   0.465  0.6772 -0.2955 -1.9052
 3089SOL     OW10482   0.052   7.493   0.679 -0.3847  0.0273 -0.1488
 3089SOL    HW110483   0.081   7.464   0.766 -0.7714 -1.3923 -0.4742
 3089SOL    HW210484   0.118   7.459   0.619 -1.8317 -1.9210 -0.7331
 3090SOL     OW10485   1.320   6.706   2.081  0.0841  0.1500 -0.5258
 3090SOL    HW110486   1.391   6.648   2.056 -0.4474 -0.6221 -0.2927
 3090SOL    HW210487   1.363   6.783   2.118  0.7985 -0.1873 -0.6529
 3091SOL     OW10488   0.230   7.448   0.501 -0.4169  0.4586  0.2531
 3091SOL    HW110489   0.223   7.450   0.405 -1.5815 -2.4539  0.1713
 3091SOL    HW210490   0.315   7.488   0.520  0.5252 -0.2459 -2.1135
 3092SOL     OW10491   0.436   6.624   1.113  0.3587 -0.4302  0.0165
 3092SOL    HW110492   0.403   6.534   1.106  0.8527 -0.6361  0.2641
 3092SOL    HW210493   0.407   6.666   1.032  0.4067 -0.9154 -0.2607
 3093SOL     OW10494   0.588   7.384   1.411 -0.0242  0.4986  0.2897
 3093SOL    HW110495   0.544   7.317   1.464  1.1775  0.2060  0.9606
 3093SOL    HW210496   0.543   7.383   1.327 -0.9654 -0.1261  0.7925
 3094SOL     OW10497   0.629   7.144   0.361 -0.3309 -0.1774 -0.7856
 3094SOL    HW110498   0.642   7.141   0.456 -1.2408  0.3844 -0.6303
 3094SOL    HW210499   0.606   7.054   0.338  0.8193 -0.5203 -0.6254
 3095SOL     OW10500   1.350   5.564   1.536 -0.2260  0.1041 -0.4735
 3095SOL    HW110501   1.306   5.643   1.504 -2.3924 -0.7038  0.3831
 3095SOL    HW210502   1.308   5.492   1.490  1.2678 -0.6484 -0.7375
 3096SOL     OW10503   8.671   6.361   0.507  0.3188 -0.2898 -0.7211
 3096SOL    HW110504   8.671   6.270   0.478  0.2167 -1.0807  1.5411
 3096SOL    HW210505   8.584   6.375   0.543  0.9912  0.0050  0.8697
 3097SOL     OW10506   2.021   7.315   0.208 -0.2668  0.1512  0.1463
 3097SOL    HW110507   1.972   7.233   0.218 -1.1415  0.4891 -1.1371
 3097SOL    HW210508   1.958   7.383   0.229  0.3750  0.5248  0.9078
 3098SOL     OW10509   8.625   7.430   0.035 -0.3702  0.7361  0.2299
 3098SOL    HW110510   8.694   7.409   0.098  1.8597  3.0352 -1.2487
 3098SOL    HW210511   8.619   7.526   0.038 -1.3183  0.7937 -1.8967
 3099SOL     OW10512   1.878   6.674   1.144 -0.3689  0.5297 -0.0496
 3099SOL    HW110513   1.808   6.610   1.133 -0.0585  0.0909  0.4571
 3099SOL    HW210514   1.903   6.699   1.055 -0.6270  0.0916 -0.2477
 3100SOL     OW10515   2.065   6.608   0.382  0.3639  0.0978 -0.6057
 3100SOL    HW110516   1.979   6.568   0.370 -0.2165  1.5226 -1.4305
 3100SOL    HW210517   2.083   6.599   0.476 -1.8099  1.9305  0.0466
 3101SOL     OW10518   0.406   6.589   1.763 -0.3514  0.4239  0.8279
 3101SOL    HW110519   0.459   6.593   1.842 -3.6318 -1.3918  3.3692
 3101SOL    HW210520   0.331   6.647   1.781 -0.5611  1.0381 -1.5791
 3102SOL     OW10521   0.519   6.915   0.712 -0.7110 -0.4688 -0.1682
 3102SOL    HW110522   0.613   6.930   0.716 -0.8263  0.0040  1.1330
 3102SOL    HW210523   0.503   6.890   0.621  0.8580 -1.9027 -0.0997
 3103SOL     OW10524   1.049   6.848   1.558  0.4762 -0.7711 -0.2096
 3103SOL    HW110525   1.085   6.900   1.630  0.9244 -1.5212  0.1114
 3103SOL    HW210526   1.122   6.794   1.528  0.5429  0.1088 -1.7891
 3104SOL     OW10527   0.703   5.485   0.410  0.0935 -1.0358  0.4768
 3104SOL    HW110528   0.796   5.491   0.432  0.3109 -1.2628 -0.3379
 3104SOL    HW210529   0.665   5.433   0.481  0.3868 -0.0866  1.3490
 3105SOL     OW10530   0.365   6.786   0.886  0.0589 -0.8167  0.0200
 3105SOL    HW110531   0.303   6.771   0.815 -2.0508  1.0897  1.3442
 3105SOL    HW210532   0.435   6.838   0.845  0.3581 -2.1776 -1.2735
 3106SOL     OW10533   1.958   6.408   0.741  0.6324 -0.4058 -0.5672
 3106SOL    HW110534   1.957   6.377   0.832  1.8250 -0.1543 -0.4461
 3106SOL    HW210535   1.943   6.329   0.689 -3.5260 -0.1024 -0.1458
 3107SOL     OW10536   1.281   7.153   1.613  0.0889  0.2043 -0.5024
 3107SOL    HW110537   1.247   7.237   1.645 -0.2322  0.6845 -2.0360
 3107SOL    HW210538   1.232   7.136   1.533  0.1750 -1.4582 -0.2410
 3108SOL     OW10539   0.319   5.455   1.705  0.5116  0.1796  0.4394
 3108SOL    HW110540   0.336   5.513   1.778  0.1680 -0.1880  0.8195
 3108SOL    HW210541   0.390   5.391   1.708 -0.3998 -0.8312  1.4891
 3109SOL     OW10542   1.443   7.038   0.609  0.5241  0.3192  0.1695
 3109SOL    HW110543   1.376   7.052   0.542  0.4777  1.7489  0.4884
 3109SOL    HW210544   1.402   7.069   0.690  0.8286 -0.7454  0.7452
 3110SOL     OW10545   2.013   7.998   0.318 -0.6447  0.7212  0.3795
 3110SOL    HW110546   2.046   7.939   0.251 -3.7543 -0.2428 -0.4798
 3110SOL    HW210547   2.087   8.056   0.337  1.4539 -1.2002 -1.2683
 3111SOL     OW10548   0.520   6.107   0.131  0.0268  0.1687  0.0781
 3111SOL    HW110549   0.581   6.040   0.162  1.2122  0.4362 -1.5466
 3111SOL    HW210550   0.461   6.060   0.072  1.2931  0.6030 -1.6179
 3112SOL     OW10551   1.360   5.604   0.820  0.2748 -0.1150  0.4850
 3112SOL    HW110552   1.280   5.554   0.836  0.8302 -0.7557  1.3036
 3112SOL    HW210553   1.365   5.665   0.894  0.5805 -0.1260  0.4731
 3113SOL     OW10554   2.190   7.405   0.495  0.5797  0.2923 -0.2553
 3113SOL    HW110555   2.276   7.444   0.480  1.0957 -0.3639  0.8431
 3113SOL    HW210556   2.204   7.311   0.479 -0.3938  0.4031 -1.8965
 3114SOL     OW10557   0.822   6.330   1.131  0.1586 -0.5085 -0.1186
 3114SOL    HW110558   0.728   6.338   1.148  0.3926 -0.4381  1.2747
 3114SOL    HW210559   0.860   6.303   1.215  1.4852  0.2651 -0.4324
 3115SOL     OW10560   0.788   6.274   1.708  0.3944  0.5634  0.5718
 3115SOL    HW110561   0.841   6.345   1.671 -0.3989  0.9953  0.2234
 3115SOL    HW210562   0.841   6.196   1.696  0.4373  0.7866 -0.9411
 3116SOL     OW10563   0.978   6.503   1.707 -0.4531  0.1487 -0.2067
 3116SOL    HW110564   1.048   6.566   1.724 -2.3217  2.1050  0.7348
 3116SOL    HW210565   0.926   6.543   1.638 -2.5429  0.4603  1.4356
 3117SOL     OW10566   1.369   5.961   1.223  0.2229 -0.1789 -0.8260
 3117SOL    HW110567   1.443   5.972   1.283  0.0313 -1.2407 -0.3698
 3117SOL    HW210568   1.338   6.050   1.208  1.7335  0.3166 -1.2226
 3118SOL     OW10569   0.775   6.313   0.592 -0.1796 -0.4678  0.0359
 3118SOL    HW110570   0.704   6.319   0.528  0.8397 -1.3596 -1.2338
 3118SOL    HW210571   0.737   6.346   0.673 -1.7021  0.1259 -0.8754
 3119SOL     OW10572   8.398   6.405   0.469 -0.2719 -0.0810 -0.5678
 3119SOL    HW110573   8.340   6.399   0.545 -0.4232  0.0164 -0.6760
 3119SOL    HW210574   8.401   6.498   0.447  0.5487  0.0165 -0.0797
 3120SOL     OW10575   0.190   7.333   1.609 -0.2929  0.2295 -0.0921
 3120SOL    HW110576   0.192   7.262   1.544  0.1187  0.7458 -0.6581
 3120SOL    HW210577   0.100   7.367   1.603 -0.3711  0.0270 -0.1080
 3121SOL     OW10578   1.485   5.722   0.183 -0.5397  0.3755  0.5419
 3121SOL    HW110579   1.577   5.707   0.206 -0.6838 -0.6081  0.5251
 3121SOL    HW210580   1.438   5.650   0.224 -0.9649 -0.7122 -1.7286
 3122SOL     OW10581   1.256   5.985   1.581 -0.4705  0.2166  0.2946
 3122SOL    HW110582   1.345   5.978   1.547 -0.8329 -0.0082 -0.6131
 3122SOL    HW210583   1.256   5.929   1.659  0.0367 -0.2009  0.0015
 3123SOL     OW10584   1.459   6.755   0.624 -0.5415 -0.0635 -0.3323
 3123SOL    HW110585   1.525   6.739   0.556  0.8654 -1.6358  1.2979
 3123SOL    HW210586   1.452   6.850   0.628  0.5033  0.1005 -1.5910
 3124SOL     OW10587   0.539   6.057   0.568 -0.0226 -0.4231  0.7745
 3124SOL    HW110588   0.446   6.072   0.584 -0.4658 -1.2877 -0.7583
 3124SOL    HW210589   0.564   6.125   0.506  0.1677 -0.6136  0.6391
 3125SOL     OW10590   1.086   7.354   0.563  0.0733  0.0655  0.3573
 3125SOL    HW110591   1.094   7.356   0.468 -2.7091 -1.1048  0.0008
 3125SOL    HW210592   1.037   7.434   0.584 -0.9436 -0.6047  0.5712
 3126SOL     OW10593   0.533   7.307   0.696  0.3108  0.2872  0.1033
 3126SOL    HW110594   0.601   7.323   0.631  0.9925  0.2143  0.7905
 3126SOL    HW210595   0.486   7.390   0.703  0.9131  0.6158  0.2939
 3127SOL     OW10596   1.606   6.885   1.040 -0.2182 -0.6222 -0.0214
 3127SOL    HW110597   1.689   6.932   1.037 -0.2711 -0.4892  0.4543
 3127SOL    HW210598   1.563   6.907   0.957 -0.2855  0.2600  0.2350
 3128SOL     OW10599   1.177   6.976   1.784 -0.3057 -0.4901 -0.2474
 3128SOL    HW110600   1.127   7.044   1.829  0.6149 -0.1754  0.3194
 3128SOL    HW210601   1.227   7.024   1.718  1.4207 -0.3867  1.0685
 3129SOL     OW10602   0.254   6.690   0.040 -0.0628  0.3645 -0.1354
 3129SOL    HW110603   0.336   6.650   0.011  0.4162  1.9269 -1.0490
 3129SOL    HW210604   0.186   6.635   0.002  0.5344 -0.9259  0.5968
 3130SOL     OW10605   1.653   6.634   0.882 -0.1715 -0.3201 -0.3299
 3130SOL    HW110606   1.618   6.720   0.903 -0.3125 -0.2383 -0.8632
 3130SOL    HW210607   1.625   6.619   0.791  2.6117  0.4724 -1.4093
 3131SOL     OW10608   0.588   6.862   2.039 -0.2432  0.1685 -0.1725
 3131SOL    HW110609   0.645   6.798   1.997 -0.2196  0.1643 -0.1335
 3131SOL    HW210610   0.618   6.865   2.130 -0.9873 -0.6252  0.1173
 3132SOL     OW10611   1.694   7.212   0.185 -0.3814  0.2193 -0.3140
 3132SOL    HW110612   1.673   7.133   0.134  2.1734 -0.3051 -0.7322
 3132SOL    HW210613   1.677   7.188   0.276  1.9754 -1.5201 -0.2443
 3133SOL     OW10614   0.170   6.007   1.231 -0.3598 -0.4222 -0.0387
 3133SOL    HW110615   0.141   5.941   1.294 -0.5978 -0.7129 -0.4461
 3133SOL    HW210616   0.241   6.054   1.276 -0.8100 -0.3439  0.6012
 3134SOL     OW10617   2.655   7.250   0.090 -0.3639 -0.0385  0.1547
 3134SOL    HW110618   2.647   7.228  -0.003  2.6059 -0.9189  0.0049
 3134SOL    HW210619   2.624   7.341   0.096  0.7922  0.5486 -1.9965
 3135SOL     OW10620   0.496   7.400   0.326  1.1296 -0.2449  0.2251
 3135SOL    HW110621   0.529   7.485   0.353  0.0898  1.3675 -2.9932
 3135SOL    HW210622   0.559   7.337   0.360  2.8922  1.9402  1.2374
 3136SOL     OW10623   1.909   5.873   0.601  0.4398 -0.1213 -0.2805
 3136SOL    HW110624   1.973   5.802   0.594  2.1062  0.8871  2.6192
 3136SOL    HW210625   1.824   5.829   0.604  1.2278 -1.7768 -0.9838
 3137SOL     OW10626   0.213   7.416   0.897 -0.2103 -0.1266 -0.3090
 3137SOL    HW110627   0.290   7.460   0.863  0.8168  0.2652  2.2674
 3137SOL    HW210628   0.244   7.328   0.920 -0.3545  0.1605  1.1116
 3138SOL     OW10629   0.999   7.691   1.125  0.0760 -0.5535  0.4114
 3138SOL    HW110630   1.008   7.596   1.132 -1.4023 -0.8356 -1.0461
 3138SOL    HW210631   1.012   7.709   1.032  0.2053  0.6624  0.6560
 3139SOL     OW10632   0.143   6.419   0.237  0.4601 -0.1762 -0.0105
 3139SOL    HW110633   0.124   6.357   0.167  0.0293  1.8224 -1.7558
 3139SOL    HW210634   0.070   6.481   0.234  0.9653  0.5353  1.5448
 3140SOL     OW10635   1.292   5.802   1.777  0.2316 -0.0724  0.0468
 3140SOL    HW110636   1.357   5.747   1.821 -1.3123 -0.8578  1.4128
 3140SOL    HW210637   1.215   5.746   1.767 -1.2683  1.6825  1.1525
 3141SOL     OW10638   0.856   5.777   1.803 -0.0374  0.6454  0.8651
 3141SOL    HW110639   0.894   5.822   1.879  1.8006  0.6226  0.0092
 3141SOL    HW210640   0.927   5.774   1.739 -2.1136  2.7120 -1.8014
 3142SOL     OW10641   1.088   7.437   1.006  0.4162  0.2389 -0.3886
 3142SOL    HW110642   1.153   7.389   1.057  0.4564 -2.1169 -2.4594
 3142SOL    HW210643   1.042   7.370   0.956 -0.5026  2.2419 -2.4411
 3143SOL     OW10644   1.376   6.260   1.380 -0.1504  0.8459 -0.6483
 3143SOL    HW110645   1.317   6.258   1.304 -0.6183  0.9244 -0.2931
 3143SOL    HW210646   1.411   6.349   1.380 -1.7124  1.5042  0.3861
 3144SOL     OW10647   0.634   7.296   0.937  0.2194 -0.3844 -0.2555
 3144SOL    HW110648   0.582   7.301   0.857 -1.8969  0.4425  1.0899
 3144SOL    HW210649   0.609   7.212   0.976  0.5533 -0.3764 -0.0228
 3145SOL     OW10650   0.930   5.847   0.373  0.1705 -0.1267 -0.0463
 3145SOL    HW110651   0.977   5.927   0.396 -0.4232  0.3591 -0.4817
 3145SOL    HW210652   0.843   5.877   0.345 -0.2650 -0.9737  0.3597
 3146SOL     OW10653   0.419   5.141   0.525 -0.1844  0.3211 -0.4589
 3146SOL    HW110654   0.422   5.082   0.449  0.7463 -0.8070  0.4088
 3146SOL    HW210655   0.439   5.084   0.600  1.5395  1.8919  0.3406
 3147SOL     OW10656   1.841   6.817   8.826  0.1026  0.1480  0.0603
 3147SOL    HW110657   1.888   6.866   8.758 -0.7413  1.7099  0.5526
 3147SOL    HW210658   1.896   6.825   8.904  0.1594 -0.0398  0.0394
 3148SOL     OW10659   1.028   5.620   0.252  0.0990 -0.2101  0.0961
 3148SOL    HW110660   0.988   5.688   0.306 -1.3711 -0.6416 -0.4023
 3148SOL    HW210661   1.014   5.650   0.162  0.7278 -0.4934 -0.1050
 3149SOL     OW10662   1.112   6.470   1.350  0.3748 -0.0931  0.0112
 3149SOL    HW110663   1.135   6.540   1.410 -0.0954  0.5894 -0.5868
 3149SOL    HW210664   1.143   6.500   1.265 -1.6292  0.3420 -0.6160
 3150SOL     OW10665   0.964   7.583   0.675  0.5916  0.3124  0.0544
 3150SOL    HW110666   0.886   7.639   0.664  0.5804  0.0042 -1.8694
 3150SOL    HW210667   0.995   7.602   0.763 -1.0038  1.3028  0.4510
 3151SOL     OW10668   0.303   6.422   0.711  0.1411 -0.3209  0.0569
 3151SOL    HW110669   0.320   6.333   0.680 -1.6797  0.2596 -3.0871
 3151SOL    HW210670   0.234   6.412   0.777 -1.5950 -1.1823 -1.7905
 3152SOL     OW10671   1.186   7.960   0.981  0.3103  0.5577  0.4591
 3152SOL    HW110672   1.116   8.026   0.982  0.9768  1.2989  2.0781
 3152SOL    HW210673   1.266   8.010   0.963  0.7029  0.0583  0.7761
 3153SOL     OW10674   0.580   6.652   0.263 -0.1422  0.0722  0.6842
 3153SOL    HW110675   0.507   6.640   0.202  0.3506  0.4528 -0.0006
 3153SOL    HW210676   0.590   6.568   0.307 -0.6346 -0.1484  0.3748
 3154SOL     OW10677   8.779   6.246   1.325 -0.2650  0.6633 -0.7548
 3154SOL    HW110678   8.844   6.177   1.337 -1.9798 -1.0110 -0.6055
 3154SOL    HW210679   8.695   6.201   1.334 -1.4543  2.7413 -0.9414
 3155SOL     OW10680   0.495   5.689   1.097  0.4110  0.1227 -0.1374
 3155SOL    HW110681   0.557   5.759   1.075 -0.4147  0.1467 -2.7657
 3155SOL    HW210682   0.473   5.649   1.012 -1.4882 -1.3183  0.9513
 3156SOL     OW10683   0.611   5.758   0.377 -0.2307  0.3889  0.4595
 3156SOL    HW110684   0.603   5.663   0.373 -1.6843  0.5135 -0.2274
 3156SOL    HW210685   0.521   5.790   0.378  0.2273  1.7800  0.0121
 3157SOL     OW10686   0.840   5.699   0.575  0.3724 -0.0421 -0.4432
 3157SOL    HW110687   0.907   5.723   0.511  0.5990  1.4372  0.3186
 3157SOL    HW210688   0.757   5.720   0.532  0.5176  0.8531 -0.2863
 3158SOL     OW10689   1.309   7.111   0.836  0.2232  0.1593  0.8178
 3158SOL    HW110690   1.260   7.125   0.917 -0.8412  0.4747  0.1471
 3158SOL    HW210691   1.246   7.132   0.766  0.5684 -1.7638 -0.1365
 3159SOL     OW10692   1.693   6.034   1.055  0.4689  0.1377  0.6592
 3159SOL    HW110693   1.754   6.065   0.989 -1.1404  1.4652 -0.2917
 3159SOL    HW210694   1.732   6.058   1.139  1.1852  1.0355  0.0768
 3160SOL     OW10695   2.214   6.521   0.145 -0.0569  0.0511 -0.4548
 3160SOL    HW110696   2.270   6.444   0.153  1.5531  1.1084 -1.0685
 3160SOL    HW210697   2.179   6.534   0.233 -0.6152 -1.5485 -0.4163
 3161SOL     OW10698   0.836   7.307   0.259  0.2022 -0.0030 -0.3000
 3161SOL    HW110699   0.757   7.253   0.259 -1.1084  1.8058 -0.3429
 3161SOL    HW210700   0.826   7.364   0.182  0.4755  1.6923  0.8676
 3162SOL     OW10701   1.981   6.666   0.653 -0.0950  0.5648  0.4157
 3162SOL    HW110702   1.958   6.573   0.645 -1.8352  1.0002 -0.0397
 3162SOL    HW210703   2.004   6.676   0.746  0.5527 -0.3880  0.3835
 3163SOL     OW10704   1.375   6.485   0.555  0.6132  0.7648  0.3020
 3163SOL    HW110705   1.373   6.557   0.618  1.3403 -0.9275  2.3841
 3163SOL    HW210706   1.456   6.438   0.574 -1.1787 -2.2821  1.0769
 3164SOL     OW10707   1.059   6.088   0.372 -0.2486  1.0851  0.2310
 3164SOL    HW110708   1.012   6.162   0.334  1.0999  1.6985 -0.3209
 3164SOL    HW210709   1.115   6.126   0.439  1.3301  0.7845 -0.8397
 3165SOL     OW10710   1.510   6.751   1.561 -0.4997 -0.1415  0.2238
 3165SOL    HW110711   1.474   6.838   1.577  2.1770  1.1557 -0.2992
 3165SOL    HW210712   1.538   6.720   1.648 -0.4603 -0.0155  0.2556
 3166SOL     OW10713   0.886   6.994   1.419 -0.4196  0.0695 -0.0943
 3166SOL    HW110714   0.864   7.055   1.489 -1.0764 -1.2508  0.8831
 3166SOL    HW210715   0.931   6.922   1.463  2.3223  0.7568 -1.4838
 3167SOL     OW10716   1.643   6.887   2.008  0.8045 -0.7762 -0.6497
 3167SOL    HW110717   1.596   6.910   2.088  0.4131 -2.6227 -0.2953
 3167SOL    HW210718   1.642   6.967   1.956 -2.7900 -0.6461 -0.6741
 3168SOL     OW10719   1.408   7.398   0.850  0.8788 -0.1472 -0.6115
 3168SOL    HW110720   1.416   7.401   0.945  0.5383  1.2847 -0.6020
 3168SOL    HW210721   1.449   7.315   0.825  1.6566 -0.1938  0.7102
 3169SOL     OW10722   1.448   6.773   1.235  0.2095 -0.3251  0.0359
 3169SOL    HW110723   1.428   6.842   1.299 -2.6256 -1.0300  0.0549
 3169SOL    HW210724   1.493   6.818   1.164 -0.9808  1.4686  0.3428
 3170SOL     OW10725   0.953   5.744   1.226 -0.1917  0.2199 -0.0736
 3170SOL    HW110726   0.946   5.649   1.221  0.0087  0.2670 -1.6581
 3170SOL    HW210727   0.970   5.772   1.136  1.6357  1.6138  0.6388
 3171SOL     OW10728   0.707   6.746   1.633 -0.6521  0.3891  0.1980
 3171SOL    HW110729   0.711   6.829   1.587 -0.1294  0.1870 -0.1253
 3171SOL    HW210730   0.709   6.680   1.564  0.2204  0.0789  0.5028
 3172SOL     OW10731   0.931   6.698   0.276  0.0745 -0.3158 -0.2598
 3172SOL    HW110732   1.022   6.727   0.276  0.2713 -0.9148 -0.8127
 3172SOL    HW210733   0.925   6.634   0.347 -0.3000  0.8415  0.7950
 3173SOL     OW10734   0.934   6.614   1.094 -0.1510  0.6433  0.0219
 3173SOL    HW110735   0.856   6.645   1.140  1.2322  1.6202  1.8386
 3173SOL    HW210736   0.928   6.518   1.098 -1.8479  0.6682 -1.0061
 3174SOL     OW10737   2.024   5.891   1.166 -0.0822 -0.3652 -0.3131
 3174SOL    HW110738   2.035   5.872   1.259 -1.0922 -1.1291 -0.3326
 3174SOL    HW210739   1.995   5.982   1.163 -0.4229 -0.4564  0.1544
 3175SOL     OW10740   0.034   6.810   1.317  0.2523  0.1512 -0.0253
 3175SOL    HW110741   0.128   6.808   1.331  0.3437  1.8299 -0.2217
 3175SOL    HW210742  -0.004   6.815   1.405  0.5038  2.4914  0.0105
 3176SOL     OW10743   0.123   6.337   0.505 -0.5804 -0.2741 -0.2397
 3176SOL    HW110744   0.032   6.319   0.482 -0.1746 -1.5594 -0.9319
 3176SOL    HW210745   0.152   6.400   0.439 -0.9617  0.1617 -0.0007
 3177SOL     OW10746   0.811   6.044   0.594  0.3965 -0.4374 -0.5416
 3177SOL    HW110747   0.717   6.034   0.578  0.3322  0.2940 -0.6555
 3177SOL    HW210748   0.824   6.139   0.600  1.2389 -0.5012 -1.2194
 3178SOL     OW10749   1.324   7.054   0.345 -0.0366  0.2343 -0.2295
 3178SOL    HW110750   1.409   7.070   0.303 -0.1301  0.3311 -0.3847
 3178SOL    HW210751   1.265   7.118   0.305 -0.5781 -0.9077 -1.3633
 3179SOL     OW10752   1.308   7.660   0.789  0.0834  0.7667  0.1522
 3179SOL    HW110753   1.324   7.567   0.803  0.6415  0.4273 -2.2438
 3179SOL    HW210754   1.221   7.676   0.825  0.1358 -0.5794  0.9391
 3180SOL     OW10755   1.628   6.405   0.556  0.0301 -0.0882 -0.4370
 3180SOL    HW110756   1.636   6.313   0.531 -2.1440 -0.5589  0.4200
 3180SOL    HW210757   1.690   6.416   0.628 -0.3267 -1.1030  0.0296
 3181SOL     OW10758   0.662   6.926   1.297 -0.1290 -0.0221 -0.6930
 3181SOL    HW110759   0.584   6.927   1.353 -0.1552  0.8408 -0.7301
 3181SOL    HW210760   0.735   6.942   1.356  0.1218 -1.5781 -0.5422
 3182SOL     OW10761   0.873   6.957   1.865 -0.0293  0.7154  0.1113
 3182SOL    HW110762   0.850   6.866   1.848  1.6889  0.4544 -1.0919
 3182SOL    HW210763   0.908   6.956   1.955  0.5470  0.0593 -0.1126
 3183SOL     OW10764   1.546   6.471   1.361 -0.5163  0.2282  0.0112
 3183SOL    HW110765   1.576   6.488   1.272 -2.6774 -3.2151 -1.5633
 3183SOL    HW210766   1.543   6.558   1.402 -0.9591  2.1915 -3.7460
 3184SOL     OW10767   0.847   5.314   1.769 -0.1049  0.3886 -0.1299
 3184SOL    HW110768   0.823   5.221   1.769  0.7528  0.1298 -1.7417
 3184SOL    HW210769   0.797   5.352   1.841 -0.4165 -1.3362  0.6052
 3185SOL     OW10770   0.125   5.245   1.351  0.4485  0.6814 -0.5130
 3185SOL    HW110771   0.210   5.202   1.336 -0.2838 -0.6100 -1.1320
 3185SOL    HW210772   0.147   5.323   1.402  1.9341  0.0055 -0.0421
 3186SOL     OW10773   0.780   6.676   0.602 -1.0022 -0.0009  0.4088
 3186SOL    HW110774   0.832   6.631   0.535 -1.6271 -0.3376  0.1460
 3186SOL    HW210775   0.704   6.619   0.616 -0.7240 -0.0916  1.6391
 3187SOL     OW10776   1.265   6.596   0.813  0.0843 -0.0561  0.3815
 3187SOL    HW110777   1.238   6.505   0.828 -0.4266 -0.1688 -1.0754
 3187SOL    HW210778   1.184   6.643   0.797  0.4989 -0.0593 -2.3195
 3188SOL     OW10779   1.433   5.935   0.407 -0.1631  0.0799 -0.3581
 3188SOL    HW110780   1.413   5.889   0.488 -2.6602 -0.0090 -0.9424
 3188SOL    HW210781   1.450   5.866   0.344  0.0036  0.0842 -0.3172
 3189SOL     OW10782   0.210   5.501   1.469  0.0665  0.3748 -0.3278
 3189SOL    HW110783   0.241   5.576   1.419  0.5405  0.1632 -0.3650
 3189SOL    HW210784   0.265   5.501   1.548 -0.9764  0.9720  0.4183
 3190SOL     OW10785   0.307   6.784   1.304 -0.2548 -0.2708 -0.0310
 3190SOL    HW110786   0.308   6.718   1.373  2.5004 -0.1213  0.1675
 3190SOL    HW210787   0.353   6.742   1.231  0.1029  0.8415 -0.4651
 3191SOL     OW10788   1.299   6.060   0.771  0.4449 -0.4900 -0.0071
 3191SOL    HW110789   1.274   5.993   0.707  1.4867  1.3387 -2.4840
 3191SOL    HW210790   1.354   6.013   0.834 -0.8100 -2.4181 -0.2544
 3192SOL     OW10791   1.361   6.329   2.034 -0.1809  0.0231 -0.2014
 3192SOL    HW110792   1.294   6.310   1.968 -1.2619  0.4689  0.7327
 3192SOL    HW210793   1.357   6.256   2.095 -2.0682  1.5093  1.5904
 3193SOL     OW10794   0.218   5.637   0.515  0.4209 -0.0628  0.5418
 3193SOL    HW110795   0.133   5.600   0.493 -0.8738  2.0726  1.6584
 3193SOL    HW210796   0.231   5.707   0.451  0.1031  1.2800  1.8867
 3194SOL     OW10797   1.751   6.081   0.067  0.0073  0.1837 -0.0760
 3194SOL    HW110798   1.799   6.044   0.142  1.0138  0.5216 -0.5427
 3194SOL    HW210799   1.750   6.175   0.083  1.0905  0.3689 -0.9529
 3195SOL     OW10800   1.190   6.316   0.818 -0.8283  0.6076 -0.3695
 3195SOL    HW110801   1.106   6.296   0.858  0.2726 -0.8741  1.3818
 3195SOL    HW210802   1.224   6.231   0.789  0.7295  0.9263  0.4047
 3196SOL     OW10803   0.588   7.520   1.974  0.5231  0.0938  0.3732
 3196SOL    HW110804   0.596   7.544   1.881 -0.5733 -0.6707  0.0526
 3196SOL    HW210805   0.647   7.580   2.019  2.5857 -0.8007 -0.9861
 3197SOL     OW10806   1.423   6.992   1.386  0.0899  0.5352 -0.5228
 3197SOL    HW110807   1.338   7.027   1.412 -0.1982  1.0286 -1.9998
 3197SOL    HW210808   1.467   7.065   1.344  0.4684 -0.2116 -1.4655
 3198SOL     OW10809   0.205   6.409   1.802 -0.6331 -0.5137 -0.6424
 3198SOL    HW110810   0.173   6.454   1.880 -0.4218 -1.0189 -0.2554
 3198SOL    HW210811   0.283   6.457   1.776 -0.6928 -0.3560 -0.5305
 3199SOL     OW10812   1.687   5.811   0.753 -0.0115  0.0291  0.3030
 3199SOL    HW110813   1.611   5.845   0.800 -1.0105 -1.3166 -0.2665
 3199SOL    HW210814   1.761   5.861   0.788 -1.1509  1.4028  0.8316
 3200SOL     OW10815   1.834   5.977   0.331  0.0846 -0.2351 -0.4806
 3200SOL    HW110816   1.910   6.007   0.281  0.9476 -2.3464 -0.5363
 3200SOL    HW210817   1.869   5.962   0.419 -0.8001  0.8476  0.0778
 3201SOL     OW10818   0.558   7.040   1.041  0.3461 -0.4451 -0.3485
 3201SOL    HW110819   0.590   7.015   1.128 -1.9444 -1.8270  0.1706
 3201SOL    HW210820   0.626   7.009   0.981  1.7612  0.1269  0.8681
 3202SOL     OW10821   0.587   6.515   0.736  0.6337  0.5327  0.5102
 3202SOL    HW110822   0.512   6.471   0.696  1.8140 -0.8912 -0.2457
 3202SOL    HW210823   0.550   6.560   0.812 -1.9067  4.0986 -2.4816
 3203SOL     OW10824   0.444   6.025   1.068 -0.1705 -0.0402  0.4466
 3203SOL    HW110825   0.406   6.093   1.123 -1.0047 -0.3725  0.2907
 3203SOL    HW210826   0.538   6.044   1.069 -0.0944 -0.3283  2.3694
 3204SOL     OW10827   0.920   6.283   1.406  0.0034  0.1106  0.5869
 3204SOL    HW110828   0.989   6.344   1.380 -0.0336  0.3130  0.9588
 3204SOL    HW210829   0.958   6.231   1.476  0.6183 -1.4509 -0.8214
 3205SOL     OW10830   1.169   5.758   1.408  0.3178 -0.1749  0.0647
 3205SOL    HW110831   1.095   5.757   1.347 -0.9182 -1.3394  1.4970
 3205SOL    HW210832   1.192   5.850   1.417  0.5556  0.0255 -2.1271
 3206SOL     OW10833   8.819   7.323   0.183  0.3766  0.4988  0.6014
 3206SOL    HW110834   8.829   7.234   0.217  0.5584  0.5973  0.8121
 3206SOL    HW210835   8.909   7.357   0.179  0.6520 -0.3327 -2.2603
 3207SOL     OW10836   0.231   6.692   0.642  0.1236  0.0776  0.2480
 3207SOL    HW110837   0.194   6.692   0.554 -0.8859  1.0769  0.6427
 3207SOL    HW210838   0.263   6.603   0.655  0.2610 -0.0896 -1.1116
 3208SOL     OW10839   0.326   7.134   0.950 -0.0408 -0.4467  0.0513
 3208SOL    HW110840   0.418   7.118   0.974  0.4627  2.8549  0.8733
 3208SOL    HW210841   0.325   7.128   0.854  1.1562 -0.1691  0.0032
 3209SOL     OW10842   0.762   6.527   1.452 -0.6223 -0.1754 -0.5901
 3209SOL    HW110843   0.819   6.452   1.436  0.6225  0.5769  0.1814
 3209SOL    HW210844   0.759   6.574   1.368 -1.6775 -1.2298 -1.1737
 3210SOL     OW10845   8.804   6.310   0.761 -0.2072 -0.1199  0.1477
 3210SOL    HW110846   8.814   6.349   0.673 -0.4529 -1.5458 -0.5403
 3210SOL    HW210847   8.715   6.332   0.786 -0.5641 -0.7676 -0.5151
 3211SOL     OW10848   0.319   6.080   1.666  0.2741 -0.4182  0.1953
 3211SOL    HW110849   0.394   6.135   1.687 -0.2961 -0.6918  3.6108
 3211SOL    HW210850   0.244   6.140   1.667 -0.1028 -0.8548  1.9535
 3212SOL     OW10851   1.250   6.671   1.545 -0.7303 -0.3199 -0.3739
 3212SOL    HW110852   1.280   6.625   1.623  1.3698 -0.2014 -1.0445
 3212SOL    HW210853   1.324   6.725   1.519 -1.2360 -0.5928 -2.6086
 3213SOL     OW10854   1.346   6.163   0.275  0.0696  0.1450 -0.3046
 3213SOL    HW110855   1.360   6.071   0.298 -2.0348 -0.5466 -1.4864
 3213SOL    HW210856   1.270   6.189   0.327 -0.5959  0.5689 -1.4520
 3214SOL     OW10857   1.249   6.208   1.154 -0.3131 -0.4045 -0.7659
 3214SOL    HW110858   1.286   6.264   1.086 -0.8409  1.1293  0.1868
 3214SOL    HW210859   1.159   6.194   1.126  0.0344 -1.5167 -1.4273
 3215SOL     OW10860   0.215   6.940   1.565  0.3378 -0.3392 -0.1484
 3215SOL    HW110861   0.284   6.909   1.507  0.3616  1.3956 -1.1211
 3215SOL    HW210862   0.173   7.011   1.516 -0.3398  0.4719  1.5309
 3216SOL     OW10863   1.002   5.812   0.974 -0.0211  0.8927  0.2048
 3216SOL    HW110864   1.008   5.849   0.886 -0.1567  1.0430  0.2589
 3216SOL    HW210865   1.091   5.781   0.993 -0.1911  0.0361 -0.3425
 3217SOL     OW10866   0.811   7.399   1.738  0.0089 -0.3980 -0.1845
 3217SOL    HW110867   0.888   7.456   1.737 -1.2381  1.3482 -0.8665
 3217SOL    HW210868   0.753   7.436   1.671 -1.2515 -1.9263  0.0142
 3218SOL     OW10869   0.081   5.798   0.738  0.1444 -0.0077 -0.5092
 3218SOL    HW110870   0.161   5.774   0.690  0.3963 -0.3970  0.0778
 3218SOL    HW210871   0.111   5.809   0.828 -0.8511 -2.6178  0.2331
 3219SOL     OW10872   0.533   6.320   1.201  0.2593 -0.3690  0.0472
 3219SOL    HW110873   0.555   6.300   1.291 -0.5313 -1.8329 -0.0466
 3219SOL    HW210874   0.438   6.307   1.196  0.2683 -0.1668 -0.9518
 3220SOL     OW10875   1.158   7.078   1.392  0.1331 -0.6345  0.0257
 3220SOL    HW110876   1.158   7.111   1.302 -1.5516 -1.7744 -0.4433
 3220SOL    HW210877   1.071   7.040   1.404 -0.1714  0.6347  2.5866
 3221SOL     OW10878   0.962   6.484   0.477 -0.0143 -0.1548 -0.5077
 3221SOL    HW110879   0.913   6.413   0.517  0.0084 -0.2062 -0.5709
 3221SOL    HW210880   1.052   6.454   0.476 -0.2019 -0.7745 -1.9220
 3222SOL     OW10881   1.763   7.079   0.414  0.5907 -0.2157 -0.2106
 3222SOL    HW110882   1.826   7.010   0.396 -0.8279 -1.2804 -1.3976
 3222SOL    HW210883   1.753   7.078   0.509  0.6410 -1.6368 -0.1977
 3223SOL     OW10884   1.481   7.858   0.850 -0.2059  0.1661  0.1094
 3223SOL    HW110885   1.417   7.788   0.858 -0.0527  0.0764  0.6254
 3223SOL    HW210886   1.540   7.828   0.781 -1.4118  0.8155 -1.2440
 3224SOL     OW10887   8.672   6.865   0.643  0.1657  0.4837  0.2589
 3224SOL    HW110888   8.624   6.919   0.705  0.7690  1.6900 -0.3064
 3224SOL    HW210889   8.693   6.785   0.692 -1.0354  0.5905  0.9875
 3225SOL     OW10890   0.493   7.097   1.913  0.1701 -0.4419  0.9623
 3225SOL    HW110891   0.404   7.071   1.888  0.2124  0.0744  0.2430
 3225SOL    HW210892   0.534   7.016   1.943 -0.7141 -0.5821  1.8440
 3226SOL     OW10893   1.426   5.419   0.277  0.2372 -0.2066 -0.3353
 3226SOL    HW110894   1.484   5.470   0.334 -1.0043  0.9541 -0.0573
 3226SOL    HW210895   1.340   5.427   0.318 -0.3422 -0.9080 -1.3801
 3227SOL     OW10896   2.246   5.805   0.703  0.4543 -0.2337  0.0754
 3227SOL    HW110897   2.276   5.745   0.772  0.4057 -1.0202 -0.5710
 3227SOL    HW210898   2.223   5.748   0.630  2.5640  0.6786 -1.3992
 3228SOL     OW10899   1.788   7.449   0.654  0.6665  0.4115  0.0026
 3228SOL    HW110900   1.819   7.363   0.628  0.4159  0.1467  0.5720
 3228SOL    HW210901   1.831   7.509   0.593  1.5094 -0.0355  0.1403
 3229SOL     OW10902   0.239   7.064   1.812 -0.0860  0.1164  0.3955
 3229SOL    HW110903   0.227   7.020   1.728 -0.9056  2.1379 -0.6048
 3229SOL    HW210904   0.152   7.095   1.836  0.2680  0.2034  1.6455
 3230SOL     OW10905   1.155   6.826   0.340  0.0366  0.7318 -0.3601
 3230SOL    HW110906   1.161   6.762   0.411  0.9757 -0.5046 -1.4956
 3230SOL    HW210907   1.208   6.900   0.369 -0.5865  0.7637  0.7342
 3231SOL     OW10908   0.446   7.004   1.426 -0.3044  0.6500  0.3533
 3231SOL    HW110909   0.451   7.047   1.511 -0.3265  0.9152  0.2224
 3231SOL    HW210910   0.389   7.061   1.374 -1.2986 -0.1391  0.5378
 3232SOL     OW10911   1.067   7.111   0.669 -0.1538 -0.2249  0.4665
 3232SOL    HW110912   1.107   7.188   0.629  0.1101  0.6571  2.3173
 3232SOL    HW210913   0.992   7.091   0.613  0.9829  0.0819 -1.2148
 3233SOL     OW10914   1.284   7.315   1.181  0.0073 -0.4244 -0.0844
 3233SOL    HW110915   1.297   7.230   1.140  0.6534  0.7792 -2.5567
 3233SOL    HW210916   1.372   7.344   1.206 -0.2149 -0.4799  0.8090
 3234SOL     OW10917   2.073   5.868   1.432  0.0087 -0.2436  0.3499
 3234SOL    HW110918   2.132   5.925   1.481  0.5720  0.0155 -0.6052
 3234SOL    HW210919   2.099   5.779   1.456 -1.3493 -0.1544  2.4160
 3235SOL     OW10920   8.784   5.918   1.050 -0.0187 -0.1226  0.1273
 3235SOL    HW110921   8.755   5.916   1.141  0.1951 -0.6235  0.1884
 3235SOL    HW210922   8.879   5.930   1.056  0.1500 -1.2375  0.0125
 3236SOL     OW10923   1.613   7.003   0.040 -0.2711  0.1113 -0.6913
 3236SOL    HW110924   1.685   6.942   0.057 -1.6493 -1.0144  1.5423
 3236SOL    HW210925   1.561   6.960  -0.028  1.2953  1.1494 -2.6741
 3237SOL     OW10926   1.123   6.813   1.102 -0.3153 -0.2388  0.5682
 3237SOL    HW110927   1.060   6.744   1.081  0.1695 -0.3187 -0.7105
 3237SOL    HW210928   1.191   6.769   1.153 -0.5530 -0.4722  0.6870
 3238SOL     OW10929   1.133   6.151   8.774  0.0368 -0.0848 -0.6035
 3238SOL    HW110930   1.144   6.177   8.865  1.3365 -0.7789 -0.5421
 3238SOL    HW210931   1.057   6.094   8.774  0.7147 -1.0045  0.2505
 3239SOL     OW10932   2.559   7.168   8.717 -0.2246 -0.3840 -0.1197
 3239SOL    HW110933   2.478   7.125   8.742 -0.5150  0.2383  0.0193
 3239SOL    HW210934   2.531   7.243   8.664  0.3035 -0.7313 -0.9158
 3240SOL     OW10935   0.484   6.506   1.514  0.3114 -0.1971  0.1699
 3240SOL    HW110936   0.578   6.495   1.497  0.6106  0.1865  1.4449
 3240SOL    HW210937   0.480   6.546   1.601 -0.9279  2.6633 -1.0561
 3241SOL     OW10938   1.495   7.326   1.447 -0.2583  0.4246  0.2291
 3241SOL    HW110939   1.565   7.388   1.426 -0.2192  0.4707  0.4847
 3241SOL    HW210940   1.512   7.250   1.392  0.1213  0.3490  0.4459
 3242SOL     OW10941   1.090   6.712   0.594 -0.2692  0.3755 -0.3030
 3242SOL    HW110942   1.037   6.636   0.620 -0.4057  0.4320 -0.4161
 3242SOL    HW210943   1.083   6.772   0.668  1.2127 -0.4147  0.5489
 3243SOL     OW10944   1.336   5.749   0.587 -0.1187  0.2117  0.0523
 3243SOL    HW110945   1.346   5.697   0.667  1.3740 -1.1702 -0.9725
 3243SOL    HW210946   1.265   5.706   0.540  0.5671 -0.4264 -0.4178
 3244SOL     OW10947   0.810   6.934   0.653 -0.1999  0.1178  0.5888
 3244SOL    HW110948   0.794   6.840   0.659  0.9337 -0.1955 -0.8196
 3244SOL    HW210949   0.846   6.947   0.566 -0.1041  1.8391  0.8472
 3245SOL     OW10950   1.892   6.135   1.281  0.2784 -0.7170 -0.2854
 3245SOL    HW110951   1.974   6.153   1.328  0.9930  0.9237 -2.0338
 3245SOL    HW210952   1.823   6.149   1.346  1.2626  0.4945  0.5487
 3246SOL     OW10953   0.304   7.085   0.680 -0.0707  0.3648 -0.2462
 3246SOL    HW110954   0.376   7.024   0.696  1.2232  2.0212  0.6295
 3246SOL    HW210955   0.346   7.160   0.637 -1.5251  0.8221 -0.9037
 3247SOL     OW10956   0.096   6.227   1.654 -0.1981  0.4001  0.3969
 3247SOL    HW110957   0.139   6.299   1.701  0.4764 -0.1809  0.6998
 3247SOL    HW210958   0.026   6.268   1.604  0.7678  1.4122 -0.1785
 3248SOL     OW10959   0.654   6.187   1.421 -0.0798 -0.1210  0.6328
 3248SOL    HW110960   0.647   6.193   1.516  1.4596  1.1588  0.7261
 3248SOL    HW210961   0.736   6.233   1.401 -0.6104  0.0435 -1.3505
 3249SOL     OW10962   0.026   6.070   0.177 -0.1373  0.0498 -0.2296
 3249SOL    HW110963  -0.022   6.018   0.241 -0.1065  0.8497  0.4574
 3249SOL    HW210964  -0.037   6.135   0.146 -0.1558 -0.3348 -1.0309
 3250SOL     OW10965   1.287   6.564   1.147 -0.1578  0.1334  0.2958
 3250SOL    HW110966   1.348   6.624   1.189 -1.1371  1.0699  0.4315
 3250SOL    HW210967   1.305   6.575   1.053 -1.6412  2.1770  0.1839
 3251SOL     OW10968   8.523   5.934   0.171 -0.8143  0.3515 -0.4841
 3251SOL    HW110969   8.541   5.841   0.154  0.8431  0.8107 -1.4077
 3251SOL    HW210970   8.520   5.940   0.267  0.8971 -0.3768 -0.3376
 3252SOL     OW10971   1.621   6.719   0.385 -0.1477 -0.2229 -0.2416
 3252SOL    HW110972   1.641   6.800   0.338  0.8516 -0.4864 -0.3115
 3252SOL    HW210973   1.550   6.679   0.334  0.0684  0.1032 -0.8164
 3253SOL     OW10974   0.703   6.659   1.239  0.0372 -0.4701 -0.3915
 3253SOL    HW110975   0.707   6.751   1.267  0.4876 -0.3606 -0.8100
 3253SOL    HW210976   0.618   6.651   1.195 -0.9405 -0.7792  1.4349
 3254SOL     OW10977   1.758   7.493   0.923 -0.6647  0.1898 -0.2608
 3254SOL    HW110978   1.845   7.499   0.962 -1.7017  1.9700  2.0691
 3254SOL    HW210979   1.773   7.477   0.830  2.0797 -0.6964  0.2597
 3255SOL     OW10980   0.529   6.271   1.714 -0.3801 -0.2584  0.3214
 3255SOL    HW110981   0.498   6.361   1.728 -0.1595 -0.2576  0.8537
 3255SOL    HW210982   0.625   6.279   1.713 -0.3362 -0.5925  1.1893
 3256SOL     OW10983   1.116   6.683   1.830  0.2625 -0.4050  0.2483
 3256SOL    HW110984   1.158   6.680   1.916  0.4664  0.6393  0.1917
 3256SOL    HW210985   1.130   6.773   1.799  2.3691 -1.3609 -1.9573
 3257SOL     OW10986   0.460   7.196   1.623  0.1593  0.1136 -0.5441
 3257SOL    HW110987   0.388   7.254   1.647  0.7350  1.0597 -1.0285
 3257SOL    HW210988   0.513   7.189   1.702  0.2883  0.5602 -0.5879
 3258SOL     OW10989   1.666   6.487   1.113 -0.0773  0.0387 -0.3002
 3258SOL    HW110990   1.637   6.521   1.028 -2.1714 -0.3050  0.2350
 3258SOL    HW210991   1.705   6.402   1.091 -0.3171  0.0850 -0.9447
 3259SOL     OW10992   1.069   5.736   0.001  0.3534  0.2477 -0.0545
 3259SOL    HW110993   1.161   5.746  -0.022  0.6682 -0.1568  0.9867
 3259SOL    HW210994   1.032   5.824  -0.010  1.1918  0.7266  0.8888
 3260SOL     OW10995   0.288   6.157   0.640  0.3029 -0.0493  0.2902
 3260SOL    HW110996   0.223   6.113   0.695  0.1270 -1.0074 -0.6449
 3260SOL    HW210997   0.236   6.211   0.580  0.2997 -1.3242 -0.8954
 3261SOL     OW10998   1.598   5.639   1.748 -0.2364  0.2450  0.0677
 3261SOL    HW110999   1.523   5.624   1.690  1.8399 -0.8415 -2.5725
 3261SOL    HW211000   1.584   5.726   1.784 -1.8931  0.8022 -1.7517
 3262SOL     OW11001   1.751   6.840   1.431 -0.1346 -0.3015  0.1048
 3262SOL    HW111002   1.770   6.802   1.345 -0.2159  0.3586 -0.2051
 3262SOL    HW211003   1.665   6.803   1.454  0.0130 -0.6975  0.0335
 3263SOL     OW11004   0.942   6.990   0.425 -0.3897  0.0001 -0.3436
 3263SOL    HW111005   0.987   7.060   0.378  0.6203  0.0688  0.6856
 3263SOL    HW211006   0.990   6.911   0.402 -1.3975 -0.3658 -1.3310
 3264SOL     OW11007   0.632   7.759   0.901 -0.2144  0.5251  0.5939
 3264SOL    HW111008   0.665   7.848   0.888  1.7395 -0.2203  0.2187
 3264SOL    HW211009   0.633   7.746   0.996 -0.3451  0.8224  0.6389
 3265SOL     OW11010   1.078   6.865   0.817  0.4535  0.3971 -0.5809
 3265SOL    HW111011   1.129   6.869   0.898 -0.3148  1.0548 -0.1092
 3265SOL    HW211012   1.100   6.945   0.770 -4.0057  3.6355  2.0944
 3266SOL     OW11013   1.551   6.547   8.827 -0.4859 -0.2377  0.1098
 3266SOL    HW111014   1.468   6.507   8.800 -0.2832  0.1449 -1.1759
 3266SOL    HW211015   1.540   6.640   8.807  0.4502 -0.2707 -0.6284
 3267SOL     OW11016   2.243   7.550   0.795  0.3310 -0.3160 -0.2330
 3267SOL    HW111017   2.161   7.558   0.844  1.0732  0.5441  0.9212
 3267SOL    HW211018   2.271   7.641   0.781  0.0935 -0.5170 -2.3966
 3268SOL     OW11019   8.846   6.511   1.534 -0.8439  0.1007  0.2215
 3268SOL    HW111020   8.777   6.463   1.579 -1.0479  0.0470 -0.1509
 3268SOL    HW211021   8.831   6.603   1.559 -1.5283  0.1879 -0.4874
 3269SOL     OW11022   0.492   6.893   0.436 -0.2885 -0.4873 -0.8427
 3269SOL    HW111023   0.526   6.813   0.397 -1.0769 -1.0633 -0.3752
 3269SOL    HW211024   0.400   6.894   0.412 -0.3714  0.0836 -0.5251
 3270SOL     OW11025   0.845   7.130   1.652 -0.0169  0.5206 -0.0159
 3270SOL    HW111026   0.864   7.099   1.741  0.9954  0.7446 -0.1369
 3270SOL    HW211027   0.843   7.225   1.660  1.7259  0.6417 -0.4965
 3271SOL     OW11028   1.562   5.546   1.257  0.5972 -0.2885  0.2119
 3271SOL    HW111029   1.497   5.615   1.273  2.0041  1.8512 -2.4246
 3271SOL    HW211030   1.640   5.576   1.303  1.4229  0.3231 -1.5052
 3272SOL     OW11031   0.675   6.031   0.873 -0.1456  0.2150 -0.0356
 3272SOL    HW111032   0.582   6.010   0.866 -0.4172  1.2777  0.2855
 3272SOL    HW211033   0.707   6.029   0.783 -0.0297 -2.0270  0.0031
 3273SOL     OW11034   1.572   7.126   0.866  0.2101  0.4810 -0.1674
 3273SOL    HW111035   1.598   7.076   0.789 -1.3467 -1.0513  0.2156
 3273SOL    HW211036   1.478   7.109   0.875 -0.1192  2.4951  0.7544
 3274SOL     OW11037   0.373   6.056   1.378 -0.2821 -0.5989  0.0248
 3274SOL    HW111038   0.369   6.074   1.472 -1.0282 -0.6159 -0.0016
 3274SOL    HW211039   0.466   6.065   1.357 -0.1311 -0.4041  0.7250
 3275SOL     OW11040   0.756   7.403   0.564  0.3127 -0.6462 -0.4607
 3275SOL    HW111041   0.783   7.489   0.596 -0.9877 -0.4846  0.2912
 3275SOL    HW211042   0.818   7.382   0.494  2.1943 -0.2237  0.9998
 3276SOL     OW11043   1.345   5.733   1.044  0.5072  0.0367  0.5711
 3276SOL    HW111044   1.351   5.801   1.111 -0.7182  0.4756  0.2597
 3276SOL    HW211045   1.304   5.659   1.089 -0.6065  0.4396  0.2530
 3277SOL     OW11046   0.909   5.177   0.991 -0.5872 -0.0858 -0.2416
 3277SOL    HW111047   0.964   5.133   0.927 -0.6783 -1.3712  0.5330
 3277SOL    HW211048   0.970   5.210   1.057 -0.4534  1.6032 -1.1600
 3278SOL     OW11049   0.736   6.890   0.222 -0.2158 -0.0089 -0.0151
 3278SOL    HW111050   0.810   6.845   0.263 -0.5788  0.0784  0.7466
 3278SOL    HW211051   0.665   6.826   0.225 -0.6615  0.5098  0.8484
 3279SOL     OW11052   0.900   7.291   0.864 -0.1632  0.0601 -0.4418
 3279SOL    HW111053   0.903   7.320   0.772 -1.0112  0.6023 -0.3165
 3279SOL    HW211054   0.809   7.307   0.890 -0.0272 -0.4721  0.3750
 3280SOL     OW11055   1.899   5.531   0.426  0.1150  0.0491 -1.0805
 3280SOL    HW111056   1.834   5.550   0.494 -0.1848 -0.4367 -1.2267
 3280SOL    HW211057   1.859   5.462   0.373  0.8635 -0.4509 -1.0146
 3281SOL     OW11058   1.498   5.937   0.907  0.4836  0.1059  0.1274
 3281SOL    HW111059   1.556   5.983   0.968 -0.7457  2.1767 -0.1775
 3281SOL    HW211060   1.436   5.891   0.964 -0.6200  1.9718  0.4952
 3282SOL     OW11061   1.918   6.110   0.908 -0.1132  0.2587  0.4112
 3282SOL    HW111062   1.977   6.081   0.838 -0.4044  0.5344  0.0469
 3282SOL    HW211063   1.968   6.176   0.955 -0.5107  1.2891 -0.5643
 3283SOL     OW11064   0.041   6.755   0.418  0.1392 -0.0940 -0.4817
 3283SOL    HW111065  -0.022   6.817   0.457 -0.6283 -1.0793 -0.1028
 3283SOL    HW211066  -0.009   6.674   0.408  1.3396 -0.8837 -0.2471
 3284SOL     OW11067   1.125   7.077   8.819  0.2223  0.3116 -0.2480
 3284SOL    HW111068   1.051   7.037   8.775  0.7101 -0.3663 -0.4631
 3284SOL    HW211069   1.132   7.031   8.902 -0.3995  1.2623  0.3403
 3285SOL     OW11070   0.144   6.060   2.269  0.0035 -0.0473  0.0041
 3285SOL    HW111071   0.218   6.002   2.250  0.7490  0.8043  0.2953
 3285SOL    HW211072   0.090   6.055   2.190 -0.1961 -1.4890  0.1899
 3286SOL     OW11073   0.429   5.719   2.472 -0.3629 -0.1842 -0.2450
 3286SOL    HW111074   0.479   5.735   2.552  0.3170 -1.6135 -0.3587
 3286SOL    HW211075   0.419   5.805   2.432 -1.5408  0.7328  1.8307
 3287SOL     OW11076   0.156   5.638   2.517 -0.4210  0.3831 -0.2778
 3287SOL    HW111077   0.131   5.730   2.505  2.0877  1.0957 -0.8717
 3287SOL    HW211078   0.252   5.641   2.520 -0.3036 -2.1735  0.3000
 3288SOL     OW11079   0.318   7.060   3.106  0.3724 -0.1662 -0.1932
 3288SOL    HW111080   0.352   7.035   3.020  0.0259  1.3867 -0.8092
 3288SOL    HW211081   0.393   7.055   3.164  0.5949 -1.3152 -0.5449
 3289SOL     OW11082   1.885   7.281   3.154  0.2886 -0.0663  0.0160
 3289SOL    HW111083   1.812   7.245   3.205  0.9684 -1.3618  0.1140
 3289SOL    HW211084   1.963   7.260   3.206  0.7607  1.1466 -0.1754
 3290SOL     OW11085   1.245   6.299   2.665  0.3116 -0.0901  0.4585
 3290SOL    HW111086   1.319   6.346   2.628 -0.2182  0.1836 -0.2752
 3290SOL    HW211087   1.203   6.362   2.724  0.1018  0.0772  0.1325
 3291SOL     OW11088   1.470   6.163   1.742  0.3147  0.2988 -0.4700
 3291SOL    HW111089   1.410   6.235   1.727  1.5595  1.4316 -0.2272
 3291SOL    HW211090   1.463   6.108   1.664 -0.5805  0.7343 -0.7019
 3292SOL     OW11091   0.571   7.092   3.233 -0.2555 -0.0328  0.9118
 3292SOL    HW111092   0.559   7.075   3.326  1.3061  0.6884  1.2600
 3292SOL    HW211093   0.661   7.064   3.214 -0.3007  0.5309 -0.2178
 3293SOL     OW11094   0.937   6.195   3.604  0.2137  0.5367 -0.6059
 3293SOL    HW111095   1.028   6.212   3.582  0.6450 -0.0355  0.6558
 3293SOL    HW211096   0.895   6.281   3.599  0.7494  0.7597 -1.4632
 3294SOL     OW11097   0.935   6.428   2.842 -0.0905 -0.1476 -0.4185
 3294SOL    HW111098   1.022   6.456   2.871 -0.5201  1.2815 -0.4237
 3294SOL    HW211099   0.880   6.433   2.920  0.2333 -3.2273  0.1546
 3295SOL     OW11100   0.511   6.860   3.939 -0.4126  0.5519  0.4313
 3295SOL    HW111101   0.490   6.839   4.031 -0.8891 -1.5147 -0.0913
 3295SOL    HW211102   0.426   6.860   3.895 -0.0605  0.0804 -0.2682
 3296SOL     OW11103   0.133   6.794   2.834  0.5281  0.3983 -0.4334
 3296SOL    HW111104   0.050   6.843   2.830  0.9526  1.3263  1.3036
 3296SOL    HW211105   0.107   6.703   2.819 -0.6426  0.8054 -1.0439
 3297SOL     OW11106   1.198   6.928   3.826 -0.5057 -0.8339  0.3841
 3297SOL    HW111107   1.265   6.892   3.884  0.0878 -0.7068 -0.2181
 3297SOL    HW211108   1.246   6.975   3.759 -1.2102 -0.5083  0.0917
 3298SOL     OW11109   0.557   5.705   3.201 -0.0391  0.2924 -0.5524
 3298SOL    HW111110   0.595   5.714   3.288  1.2439  0.8140 -1.1508
 3298SOL    HW211111   0.462   5.712   3.216  0.0858 -0.7007  0.9134
 3299SOL     OW11112   1.823   5.961   2.434  0.0827  0.1559 -0.6239
 3299SOL    HW111113   1.828   5.872   2.400 -1.5579  0.8245 -2.9059
 3299SOL    HW211114   1.876   6.013   2.373  1.4259  0.7397  0.9544
 3300SOL     OW11115   0.463   7.096   2.397  0.3615  0.4201 -0.2659
 3300SOL    HW111116   0.549   7.105   2.357  0.0908  2.4126 -0.4633
 3300SOL    HW211117   0.450   7.177   2.446  0.0923 -1.3072  2.8068
 3301SOL     OW11118   0.870   6.938   3.595 -0.2058 -0.2995 -0.4533
 3301SOL    HW111119   0.821   6.907   3.671  0.4053  3.2420  1.6519
 3301SOL    HW211120   0.870   6.865   3.534 -1.3379 -3.1331  2.6519
 3302SOL     OW11121   0.298   6.871   2.359  0.8211  0.2047  0.6052
 3302SOL    HW111122   0.341   6.956   2.367 -0.1733  0.6844  1.1043
 3302SOL    HW211123   0.213   6.883   2.402  0.9513 -1.2601  1.3543
 3303SOL     OW11124   0.107   6.539   2.834 -0.2611 -0.0827  0.0652
 3303SOL    HW111125   0.193   6.519   2.797 -0.2223  0.3504 -0.0759
 3303SOL    HW211126   0.092   6.469   2.898  0.5026  0.2236  0.5902
 3304SOL     OW11127   0.535   7.713   3.513  0.0672 -0.0912 -0.1924
 3304SOL    HW111128   0.473   7.661   3.565  1.6871 -1.4651  0.4760
 3304SOL    HW211129   0.587   7.760   3.578  0.1687  0.5169 -0.7134
 3305SOL     OW11130   0.442   6.422   2.005 -0.4465 -0.0754  0.0054
 3305SOL    HW111131   0.378   6.479   2.048 -0.1478  1.6703 -1.6836
 3305SOL    HW211132   0.394   6.342   1.986 -1.0439 -0.2372  2.0204
 3306SOL     OW11133   1.031   5.490   3.084 -0.5483  0.0562  0.3348
 3306SOL    HW111134   1.014   5.437   3.007  0.7136 -0.9420  0.7076
 3306SOL    HW211135   0.946   5.528   3.107 -1.4966 -1.8394  0.0941
 3307SOL     OW11136   8.765   6.249   2.051 -0.5215 -0.0850  0.0597
 3307SOL    HW111137   8.731   6.237   2.139 -2.3534 -1.0145 -0.7256
 3307SOL    HW211138   8.822   6.173   2.037  1.6461  1.2390  1.2116
 3308SOL     OW11139   1.796   7.502   2.534 -0.7045 -0.0052  0.0370
 3308SOL    HW111140   1.824   7.559   2.605 -1.7204  1.9988 -1.0977
 3308SOL    HW211141   1.706   7.478   2.557 -1.0260  0.6279 -0.5390
 3309SOL     OW11142   0.173   6.729   1.862 -0.8346  0.0849 -0.0478
 3309SOL    HW111143   0.214   6.785   1.928 -1.0185 -1.0474  1.0658
 3309SOL    HW211144   0.079   6.736   1.879 -0.8490 -0.7453  0.2840
 3310SOL     OW11145   1.608   6.695   2.675  0.1600 -0.5981  0.1146
 3310SOL    HW111146   1.625   6.786   2.699 -0.9247 -0.4370  0.2949
 3310SOL    HW211147   1.671   6.676   2.606 -2.4694  1.7021 -3.1748
 3311SOL     OW11148   1.205   7.391   2.743 -0.3554  0.0862  0.5190
 3311SOL    HW111149   1.271   7.435   2.797 -1.3483  0.4371  1.4634
 3311SOL    HW211150   1.192   7.306   2.785  0.7426 -0.7129 -0.6693
 3312SOL     OW11151   0.238   5.793   3.674  0.0870 -0.2934 -0.0183
 3312SOL    HW111152   0.164   5.854   3.669  0.8727  0.7148  0.2654
 3312SOL    HW211153   0.288   5.811   3.594  0.4187 -0.4366  0.1560
 3313SOL     OW11154   0.611   6.652   2.739  0.4463 -0.2011 -0.0342
 3313SOL    HW111155   0.669   6.707   2.791 -1.9993  1.4049  1.1399
 3313SOL    HW211156   0.576   6.710   2.672 -1.8297 -0.3469  0.9320
 3314SOL     OW11157   1.316   6.683   3.254  0.5170 -0.0103 -0.1273
 3314SOL    HW111158   1.269   6.617   3.305 -0.2806  0.7875  0.2189
 3314SOL    HW211159   1.251   6.715   3.191  0.4001  1.4655  0.6862
 3315SOL     OW11160   1.145   5.611   2.674 -0.7315 -0.4353 -0.2606
 3315SOL    HW111161   1.068   5.662   2.648  0.0706  0.2919 -1.2953
 3315SOL    HW211162   1.115   5.520   2.671 -1.6458 -0.1476 -0.3026
 3316SOL     OW11163   0.111   6.887   3.135  0.1900  0.0679  0.1761
 3316SOL    HW111164   0.122   6.858   3.044  0.1593  0.2737  0.1061
 3316SOL    HW211165   0.181   6.951   3.148  1.0156 -0.9098  0.7049
 3317SOL     OW11166   1.473   6.240   2.372  0.5316 -0.4022 -0.2338
 3317SOL    HW111167   1.428   6.171   2.419  1.4960 -0.2051  1.0228
 3317SOL    HW211168   1.503   6.300   2.440 -1.1160  1.8193 -1.3101
 3318SOL     OW11169   1.367   7.058   3.678 -0.0725 -0.1173  0.0374
 3318SOL    HW111170   1.396   7.042   3.588 -0.8058  0.7874 -0.3848
 3318SOL    HW211171   1.380   7.152   3.691 -0.3489 -0.1674  0.7391
 3319SOL     OW11172   8.840   5.606   3.551 -0.0195  0.6394 -0.2516
 3319SOL    HW111173   8.888   5.685   3.526  0.6222 -0.0264 -1.2137
 3319SOL    HW211174   8.907   5.549   3.590 -0.4525  0.5156  0.3284
 3320SOL     OW11175   0.980   7.093   2.681 -0.0117  0.0286 -0.8225
 3320SOL    HW111176   1.056   7.072   2.735 -0.6598 -1.0461 -0.3077
 3320SOL    HW211177   1.017   7.127   2.599  0.9929  0.9142 -0.0321
 3321SOL     OW11178   2.176   7.763   2.635 -0.1074 -0.1469 -0.0492
 3321SOL    HW111179   2.241   7.697   2.611  0.6632  0.6723 -0.2552
 3321SOL    HW211180   2.147   7.801   2.552  0.1844  0.4566  0.1190
 3322SOL     OW11181   0.331   5.876   1.906 -0.4288 -0.4425  0.3218
 3322SOL    HW111182   0.424   5.854   1.914 -0.1218  1.0567  1.0604
 3322SOL    HW211183   0.325   5.928   1.826 -0.3969  0.5889  0.9752
 3323SOL     OW11184   1.094   5.711   2.938  0.6700  0.3583 -0.7235
 3323SOL    HW111185   1.088   5.630   2.988  1.9348  1.2770  1.0587
 3323SOL    HW211186   1.141   5.688   2.859 -0.7618 -1.0163 -1.2265
 3324SOL     OW11187   1.734   7.164   2.101  0.3437 -0.1174 -0.1100
 3324SOL    HW111188   1.779   7.246   2.077  1.3621 -1.1239 -1.9618
 3324SOL    HW211189   1.737   7.162   2.196  1.1705  1.5401 -0.0535
 3325SOL     OW11190   1.006   5.815   3.198  0.4431  0.0625  0.0002
 3325SOL    HW111191   1.084   5.761   3.209  1.4231  1.6344  1.2186
 3325SOL    HW211192   0.995   5.822   3.103  2.5667  0.8254 -0.2357
 3326SOL     OW11193   1.333   6.185   3.310  0.0594  0.2217  0.0358
 3326SOL    HW111194   1.272   6.127   3.355 -1.3087  0.9276 -0.8218
 3326SOL    HW211195   1.419   6.151   3.332 -0.6107 -0.4675  1.7632
 3327SOL     OW11196   0.997   6.468   3.450  0.3473 -0.2048 -0.2108
 3327SOL    HW111197   1.082   6.488   3.489 -0.8004  1.6660  1.4835
 3327SOL    HW211198   1.018   6.434   3.363  2.8120  0.3773  0.0988
 3328SOL     OW11199   1.558   5.981   2.114  0.4800 -0.3284 -0.5786
 3328SOL    HW111200   1.626   5.934   2.162  1.2824  0.2766 -1.0907
 3328SOL    HW211201   1.478   5.965   2.163  1.5819  2.0699  2.2749
 3329SOL     OW11202   0.940   6.425   2.359  0.7353 -0.2782  0.0357
 3329SOL    HW111203   0.904   6.456   2.442  2.6291 -0.1331  0.8689
 3329SOL    HW211204   0.998   6.496   2.330  3.6240 -2.0459  0.9811
 3330SOL     OW11205   0.282   6.110   2.654  0.2494 -0.2659 -0.6371
 3330SOL    HW111206   0.310   6.161   2.578  0.9493  0.0650 -0.1697
 3330SOL    HW211207   0.356   6.051   2.671  0.8824  0.8841  0.8584
 3331SOL     OW11208   0.093   7.576   3.830 -0.6634  0.0853 -0.4122
 3331SOL    HW111209   0.170   7.589   3.774 -1.3582 -1.1310 -1.6934
 3331SOL    HW211210   0.031   7.643   3.801 -0.0674  1.2137  0.7709
 3332SOL     OW11211   0.598   5.815   1.880 -0.1790  0.2644  0.2399
 3332SOL    HW111212   0.605   5.817   1.975 -2.4375 -0.8341  0.5002
 3332SOL    HW211213   0.688   5.804   1.849  0.5549  0.1996  2.2548
 3333SOL     OW11214   1.708   6.311   3.350 -0.9070  0.8174  0.3662
 3333SOL    HW111215   1.639   6.330   3.414 -1.2824 -0.9743  0.5293
 3333SOL    HW211216   1.789   6.321   3.399 -1.1891 -0.4817  1.1432
 3334SOL     OW11217   1.672   6.931   2.768  0.2583 -0.0380  0.5496
 3334SOL    HW111218   1.601   6.995   2.767 -0.9981 -1.3200  2.2775
 3334SOL    HW211219   1.747   6.979   2.801 -0.3906  0.8041  0.8392
 3335SOL     OW11220   0.712   5.610   2.259 -0.4700  0.1194  0.0907
 3335SOL    HW111221   0.635   5.577   2.305 -1.3753 -0.5194 -1.7547
 3335SOL    HW211222   0.687   5.698   2.231 -0.7621 -0.2602 -0.9135
 3336SOL     OW11223   1.089   6.578   2.192 -1.0248 -0.0030  0.6760
 3336SOL    HW111224   1.170   6.620   2.163 -1.6118  0.5819 -0.1734
 3336SOL    HW211225   1.080   6.502   2.136 -0.5804 -0.6174  1.4180
 3337SOL     OW11226   0.521   7.161   2.814  0.3157 -0.1544  0.3850
 3337SOL    HW111227   0.503   7.067   2.818  0.7312 -0.1927  1.9989
 3337SOL    HW211228   0.616   7.167   2.822  0.7006  0.2806 -3.1698
 3338SOL     OW11229   1.318   6.973   3.068 -0.3056 -1.0779 -0.0160
 3338SOL    HW111230   1.282   6.903   3.012 -1.3249 -2.0915  1.8065
 3338SOL    HW211231   1.274   6.961   3.152  2.0773 -0.4179  1.4300
 3339SOL     OW11232   0.816   6.924   3.195 -0.4896  0.0081 -0.5123
 3339SOL    HW111233   0.744   6.862   3.189 -0.6201  0.2080 -0.9726
 3339SOL    HW211234   0.874   6.886   3.262  0.3510 -1.5725 -2.0282
 3340SOL     OW11235   8.843   6.714   2.209 -0.6348 -0.2069 -0.0600
 3340SOL    HW111236   8.788   6.786   2.178 -1.6468 -0.6305  0.6750
 3340SOL    HW211237   8.780   6.645   2.232  0.2613 -0.9744  0.1272
 3341SOL     OW11238   1.591   6.315   2.855 -0.4345  0.2183  0.8517
 3341SOL    HW111239   1.497   6.311   2.876 -1.1712  3.2472 -1.2328
 3341SOL    HW211240   1.601   6.257   2.780 -0.3415 -0.9493  1.7282
 3342SOL     OW11241   0.504   6.577   3.882  0.3544  0.5773  0.2242
 3342SOL    HW111242   0.594   6.587   3.914  0.2358  0.7308  0.5160
 3342SOL    HW211243   0.474   6.666   3.865  0.9991  0.4285 -2.0000
 3343SOL     OW11244   1.128   7.208   1.935  0.4442  0.1711  0.0972
 3343SOL    HW111245   1.150   7.151   2.008 -0.3150  0.9314  0.9389
 3343SOL    HW211246   1.090   7.286   1.975 -0.2484  0.4937 -1.1237
 3344SOL     OW11247   8.727   5.830   3.196  0.7986 -0.1620  0.6452
 3344SOL    HW111248   8.712   5.911   3.146  3.1439  0.7183  1.2377
 3344SOL    HW211249   8.676   5.764   3.150  0.6647  1.1755 -1.2510
 3345SOL     OW11250   2.026   7.112   1.943 -0.0485 -0.6929 -0.2591
 3345SOL    HW111251   2.001   7.039   1.999 -0.9849 -0.8288 -0.8338
 3345SOL    HW211252   2.070   7.173   2.001  1.9719 -2.2814 -0.0103
 3346SOL     OW11253   0.082   7.012   2.066  0.1137  0.1526 -0.1855
 3346SOL    HW111254   0.128   6.928   2.060  0.0411  0.0873  0.1848
 3346SOL    HW211255   0.151   7.077   2.080  0.2173  0.2176 -0.9569
 3347SOL     OW11256   1.554   5.893   2.431 -0.5247 -0.0685  0.4720
 3347SOL    HW111257   1.627   5.954   2.445 -0.3835 -0.3783  1.0900
 3347SOL    HW211258   1.476   5.943   2.457 -0.1932 -0.9392  3.4215
 3348SOL     OW11259   0.270   7.430   3.402  0.1821  0.6792  0.1683
 3348SOL    HW111260   0.194   7.463   3.449  0.0425  1.7410 -0.7671
 3348SOL    HW211261   0.235   7.399   3.318  0.8433  1.7902 -0.5444
 3349SOL     OW11262   0.785   7.276   2.460 -0.2258 -0.2073  0.3786
 3349SOL    HW111263   0.779   7.297   2.553  0.0308  0.5397  0.2370
 3349SOL    HW211264   0.789   7.362   2.416 -0.2597 -0.5490 -0.3109
 3350SOL     OW11265   0.311   6.148   2.008 -0.0196  0.1825 -0.1611
 3350SOL    HW111266   0.217   6.154   1.988  0.0152  0.7659 -0.1638
 3350SOL    HW211267   0.331   6.055   2.000 -1.0602 -0.2919  1.9129
 3351SOL     OW11268   1.326   5.210   3.388  0.5740 -0.0590  0.0367
 3351SOL    HW111269   1.382   5.285   3.366 -0.9446  1.2775  0.5419
 3351SOL    HW211270   1.277   5.193   3.308  1.0349 -0.6513 -0.1296
 3352SOL     OW11271   0.675   5.554   1.720  0.4562 -0.5827 -0.6479
 3352SOL    HW111272   0.770   5.562   1.706  0.7219  0.6342  1.4742
 3352SOL    HW211273   0.667   5.527   1.811 -1.2594 -0.8625 -0.8584
 3353SOL     OW11274   0.263   5.678   3.251  1.0137  0.6339  0.3503
 3353SOL    HW111275   0.283   5.590   3.282  0.3943 -0.5332 -2.3506
 3353SOL    HW211276   0.207   5.715   3.319 -2.4880 -2.7402 -0.3888
 3354SOL     OW11277   1.178   6.916   2.808  0.6934 -0.0158 -0.9062
 3354SOL    HW111278   1.139   6.875   2.886  0.3719 -0.2448 -1.1875
 3354SOL    HW211279   1.126   6.884   2.735  0.4747  0.8463 -1.1436
 3355SOL     OW11280   1.159   6.393   3.188 -0.7460 -0.0074  0.4909
 3355SOL    HW111281   1.241   6.343   3.184 -0.6219  0.2418 -1.4672
 3355SOL    HW211282   1.096   6.340   3.140 -0.8545  1.2387 -0.8238
 3356SOL     OW11283   0.792   6.771   2.893 -0.2288 -0.4993  0.2620
 3356SOL    HW111284   0.723   6.740   2.952 -0.5661  0.7312  0.5498
 3356SOL    HW211285   0.793   6.866   2.906  0.2421 -0.2946 -1.1358
 3357SOL     OW11286   0.717   5.726   2.853  0.0055 -0.3298 -0.2158
 3357SOL    HW111287   0.809   5.742   2.831  0.1942 -0.2387  0.6061
 3357SOL    HW211288   0.721   5.673   2.933 -0.6506  0.9287  0.6796
 3358SOL     OW11289   0.472   5.260   2.129  0.5490 -0.7423 -0.2041
 3358SOL    HW111290   0.521   5.320   2.185  0.5773 -0.4659 -0.5261
 3358SOL    HW211291   0.382   5.265   2.161  0.9285 -2.1959  1.2171
 3359SOL     OW11292   1.928   6.919   2.146 -0.2648  0.1216  0.4774
 3359SOL    HW111293   1.898   6.952   2.230 -0.4125  0.6720  0.2147
 3359SOL    HW211294   1.848   6.907   2.095 -0.4150 -2.4696  1.1787
 3360SOL     OW11295   0.353   5.099   1.707  0.2771  0.1773  0.0178
 3360SOL    HW111296   0.275   5.083   1.761 -0.5974  0.5811 -1.0862
 3360SOL    HW211297   0.406   5.020   1.717 -0.9947 -0.7577 -0.3844
 3361SOL     OW11298   0.633   5.877   2.149  0.1735 -0.1189  0.0091
 3361SOL    HW111299   0.585   5.933   2.210 -0.8625  0.7255 -1.5412
 3361SOL    HW211300   0.721   5.915   2.145  0.2399 -0.1506  0.8894
 3362SOL     OW11301   0.978   6.032   3.354  0.1190 -0.4374 -0.2045
 3362SOL    HW111302   1.015   5.964   3.297  1.1082 -0.5450  0.5345
 3362SOL    HW211303   1.045   6.046   3.421 -0.3472  0.8047  0.0373
 3363SOL     OW11304   1.495   7.471   2.600 -0.0044 -0.0989  0.1677
 3363SOL    HW111305   1.525   7.411   2.668  0.1899  0.4646  0.5856
 3363SOL    HW211306   1.483   7.416   2.523  0.2977 -0.6477  0.5083
 3364SOL     OW11307   0.842   6.490   2.603 -0.1160  0.0886 -0.0006
 3364SOL    HW111308   0.749   6.505   2.620  0.3452  1.1135  1.7309
 3364SOL    HW211309   0.878   6.459   2.686  1.0249 -0.7563 -0.7678
 3365SOL     OW11310   1.867   7.853   2.586  0.5480 -0.1459  0.7505
 3365SOL    HW111311   1.876   7.808   2.670  5.1633 -1.6678 -0.3230
 3365SOL    HW211312   1.784   7.901   2.595 -1.3450 -3.4601  4.5202
 3366SOL     OW11313   0.780   6.242   1.994  0.8039  0.0780  0.7360
 3366SOL    HW111314   0.687   6.266   1.996  1.0792  1.1069  1.9601
 3366SOL    HW211315   0.802   6.238   1.901 -0.5430 -0.5197  0.4200
 3367SOL     OW11316   0.174   6.040   2.903 -0.7952 -0.0466 -0.0175
 3367SOL    HW111317   0.190   5.947   2.884  0.4270  0.3814 -1.2267
 3367SOL    HW211318   0.225   6.087   2.838  0.3805  1.5007  1.9050
 3368SOL     OW11319   0.251   5.759   2.874  0.0467  0.4049  0.4672
 3368SOL    HW111320   0.341   5.773   2.844 -0.8053  2.8972 -1.2860
 3368SOL    HW211321   0.260   5.714   2.957  2.7758 -2.6256 -1.2546
 3369SOL     OW11322   0.935   5.768   2.632  0.2762 -0.6629 -0.2422
 3369SOL    HW111323   0.983   5.834   2.581  1.3849 -0.8928  0.4942
 3369SOL    HW211324   0.843   5.789   2.615  0.6110  0.2804 -1.0377
 3370SOL     OW11325   1.171   5.325   2.811 -0.0904 -0.1841 -0.7161
 3370SOL    HW111326   1.263   5.302   2.803  0.3289  1.1468  0.0476
 3370SOL    HW211327   1.129   5.282   2.736  1.3350  0.1104 -1.7314
 3371SOL     OW11328   1.395   6.691   2.836 -0.2041  0.2426 -0.3314
 3371SOL    HW111329   1.411   6.746   2.914 -0.5817 -2.4788  1.8113
 3371SOL    HW211330   1.481   6.685   2.793  0.4758  0.2813  0.9637
 3372SOL     OW11331   1.466   5.889   2.799  0.6438 -0.2426  0.2113
 3372SOL    HW111332   1.458   5.794   2.797  3.6233 -0.5906  0.7117
 3372SOL    HW211333   1.455   5.912   2.891 -0.1032 -0.0610  0.0871
 3373SOL     OW11334   1.867   6.296   2.027 -0.5316 -0.5351 -0.1696
 3373SOL    HW111335   1.805   6.249   2.083 -2.0551  0.2361 -1.1334
 3373SOL    HW211336   1.845   6.266   1.938  0.6713 -0.4308 -0.5157
 3374SOL     OW11337   0.308   6.844   2.070 -0.0605  0.3218  0.4303
 3374SOL    HW111338   0.297   6.863   2.163 -0.9409 -0.9557  0.6174
 3374SOL    HW211339   0.400   6.863   2.052 -0.3283  2.5076  1.0676
 3375SOL     OW11340   1.409   7.013   2.687  0.1517  1.0778 -0.6125
 3375SOL    HW111341   1.354   6.981   2.759  2.1818  0.3351  0.7373
 3375SOL    HW211342   1.378   7.101   2.669 -2.4911  0.1276 -1.0700
 3376SOL     OW11343   0.993   6.100   1.643  0.4015  0.1160 -0.3493
 3376SOL    HW111344   1.049   6.036   1.598  2.0612  1.0411  0.3224
 3376SOL    HW211345   1.019   6.093   1.735 -0.3220  0.8360 -0.0853
 3377SOL     OW11346   0.553   5.258   1.830  0.2700 -0.0881 -0.2519
 3377SOL    HW111347   0.525   5.240   1.920 -0.8538  2.4513  0.0001
 3377SOL    HW211348   0.483   5.220   1.776  0.7331 -1.2401 -0.0805
 3378SOL     OW11349   1.703   6.910   3.536 -0.3172  0.1720 -0.0388
 3378SOL    HW111350   1.743   6.829   3.567 -0.2075  0.1038 -0.3512
 3378SOL    HW211351   1.771   6.950   3.481 -0.2990  0.5726  0.2729
 3379SOL     OW11352   0.395   6.977   3.420 -0.5057 -0.0499  0.3234
 3379SOL    HW111353   0.369   6.893   3.383 -1.0252  0.3956 -0.3284
 3379SOL    HW211354   0.313   7.024   3.434 -0.6243 -1.0631  4.2745
 3380SOL     OW11355   1.703   7.526   3.393 -0.7460 -0.8965 -0.6518
 3380SOL    HW111356   1.642   7.584   3.440  0.6459  1.1928 -1.3020
 3380SOL    HW211357   1.760   7.492   3.462  0.3633  1.0048 -0.5521
 3381SOL     OW11358   0.583   6.783   3.081 -0.2403 -0.1208  0.4567
 3381SOL    HW111359   0.502   6.834   3.074 -0.8266 -1.2384 -1.4317
 3381SOL    HW211360   0.555   6.692   3.085  0.9054 -0.5344 -0.2414
 3382SOL     OW11361   1.076   6.757   3.024  0.0392 -0.4080  0.9881
 3382SOL    HW111362   0.988   6.730   2.998  0.1214  0.1701  0.0403
 3382SOL    HW211363   1.127   6.676   3.021 -0.2923 -0.6109  0.7492
 3383SOL     OW11364   0.892   5.628   3.555  0.0809 -0.3596 -0.0743
 3383SOL    HW111365   0.861   5.538   3.545 -1.1730 -0.0357  0.5969
 3383SOL    HW211366   0.985   5.620   3.574 -0.3938 -1.6592  2.0263
 3384SOL     OW11367   0.959   6.566   3.819  0.1160  0.1680  0.0576
 3384SOL    HW111368   0.901   6.499   3.782 -0.3490  0.4544  0.2623
 3384SOL    HW211369   0.903   6.642   3.832  0.2430  0.0477  1.4585
 3385SOL     OW11370   0.705   6.743   2.271 -0.4010 -0.2844  0.5503
 3385SOL    HW111371   0.709   6.759   2.365 -2.4049  2.0064  0.3481
 3385SOL    HW211372   0.675   6.653   2.263 -0.2812 -0.4855  2.1312
 3386SOL     OW11373   0.671   5.983   3.137 -0.1512 -0.6367 -0.1382
 3386SOL    HW111374   0.711   5.948   3.217 -0.6395 -0.1871  0.3125
 3386SOL    HW211375   0.620   5.910   3.102 -0.1918 -0.7389  0.1318
 3387SOL     OW11376   1.064   6.014   2.840  0.3892 -0.0163 -0.2391
 3387SOL    HW111377   1.064   6.063   2.922 -1.1472  0.6070 -0.5842
 3387SOL    HW211378   1.076   5.923   2.866  0.5727  0.2439  0.6096
 3388SOL     OW11379   8.605   7.332   3.533 -0.0194 -0.4499  0.0484
 3388SOL    HW111380   8.509   7.339   3.531 -0.0159 -0.5661 -1.0107
 3388SOL    HW211381   8.622   7.258   3.591 -0.5056  0.4537  1.3938
 3389SOL     OW11382   0.349   6.242   2.387  0.4302  0.4123  0.1836
 3389SOL    HW111383   0.346   6.337   2.392 -1.5764  0.3372  1.5413
 3389SOL    HW211384   0.270   6.218   2.337  1.2594 -0.5377 -0.7308
 3390SOL     OW11385   0.803   5.084   2.875 -0.2623 -0.0644  0.3089
 3390SOL    HW111386   0.843   5.030   2.807 -0.2328 -2.3563  1.9963
 3390SOL    HW211387   0.727   5.124   2.833  0.5169 -0.3071 -1.4054
 3391SOL     OW11388   1.446   6.904   2.453  0.5834 -0.6589 -0.2651
 3391SOL    HW111389   1.452   6.942   2.540  3.0200 -1.9565  0.2208
 3391SOL    HW211390   1.376   6.840   2.459 -1.6792  1.6431 -0.3360
 3392SOL     OW11391   0.737   7.413   2.688  0.0314 -0.1943 -0.3893
 3392SOL    HW111392   0.794   7.490   2.681 -1.3122  1.0366  1.4559
 3392SOL    HW211393   0.771   7.366   2.764 -0.2860 -0.4334 -0.3975
 3393SOL     OW11394   1.650   6.220   2.175 -0.0279  0.3395  0.0497
 3393SOL    HW111395   1.596   6.150   2.138 -1.9707  2.0857 -0.5956
 3393SOL    HW211396   1.597   6.257   2.246  0.6220  1.6498 -0.1124
 3394SOL     OW11397   0.333   7.266   3.597  0.1130  0.0906 -0.0053
 3394SOL    HW111398   0.316   7.321   3.520 -0.9091 -1.2534 -0.7565
 3394SOL    HW211399   0.258   7.207   3.603 -0.2929  0.7420  2.5831
 3395SOL     OW11400   0.416   6.118   3.321  0.3505 -0.6493 -0.3315
 3395SOL    HW111401   0.475   6.093   3.250  0.7335 -0.2380 -0.1666
 3395SOL    HW211402   0.330   6.090   3.292  0.1797  1.2791 -1.8944
 3396SOL     OW11403   1.656   6.445   3.088  0.3153 -0.5116  0.0494
 3396SOL    HW111404   1.671   6.391   3.165  1.7693 -1.5661 -0.9131
 3396SOL    HW211405   1.628   6.383   3.020  1.6406 -0.0489 -0.9692
 3397SOL     OW11406   0.658   5.748   3.446 -0.4067  0.0737 -0.1391
 3397SOL    HW111407   0.751   5.747   3.469 -0.1995 -0.6217 -0.9583
 3397SOL    HW211408   0.625   5.663   3.476 -0.4278 -0.2997 -1.2018
 3398SOL     OW11409   0.388   5.488   3.415  0.5398  0.4587  0.0474
 3398SOL    HW111410   0.472   5.472   3.457  0.0417  1.0078  1.3034
 3398SOL    HW211411   0.327   5.502   3.487 -0.3962  1.2446 -0.8560
 3399SOL     OW11412   0.422   6.583   3.153  0.3391 -0.1037  0.3050
 3399SOL    HW111413   0.344   6.591   3.209  0.0145  0.6408 -0.2320
 3399SOL    HW211414   0.461   6.499   3.178  0.0166  0.0512  1.4108
 3400SOL     OW11415   0.865   6.415   3.109 -0.0941  0.1566 -0.1632
 3400SOL    HW111416   0.781   6.418   3.154 -0.5828  0.5271 -1.0698
 3400SOL    HW211417   0.889   6.322   3.110 -0.5669  0.0348  0.0026
 3401SOL     OW11418   0.743   6.225   2.268  0.5905 -0.1629  0.1914
 3401SOL    HW111419   0.760   6.194   2.179  0.1733  0.3488 -0.0722
 3401SOL    HW211420   0.825   6.267   2.295  0.7496 -0.4055  0.0840
 3402SOL     OW11421   0.475   5.478   2.706 -0.0387 -0.2093 -0.1001
 3402SOL    HW111422   0.548   5.527   2.745 -0.0474 -0.3431  0.0848
 3402SOL    HW211423   0.399   5.505   2.756 -0.3128  0.7722 -0.9992
 3403SOL     OW11424   8.751   7.229   3.349 -0.5652  0.2532  0.7199
 3403SOL    HW111425   8.693   7.170   3.302 -1.2482  1.4069  0.0601
 3403SOL    HW211426   8.693   7.279   3.407 -0.0504  0.4902  1.0434
 3404SOL     OW11427   0.590   6.341   3.176 -0.1033  0.2340  0.3769
 3404SOL    HW111428   0.641   6.266   3.207  3.0279  1.5158 -1.3256
 3404SOL    HW211429   0.551   6.310   3.094  0.2122  0.1180  0.2695
 3405SOL     OW11430   1.650   6.437   3.647 -0.3338  0.1464  0.1592
 3405SOL    HW111431   1.698   6.378   3.705 -1.9108 -1.4873 -0.1021
 3405SOL    HW211432   1.568   6.455   3.693 -0.8399  0.2688 -0.7614
 3406SOL     OW11433   0.441   5.070   2.417 -0.4979  0.2348  0.3030
 3406SOL    HW111434   0.523   5.118   2.409 -0.6022  0.8145  2.2188
 3406SOL    HW211435   0.462   4.981   2.388  0.3156  0.8049 -0.9348
 3407SOL     OW11436   1.036   6.123   1.925 -0.4981 -0.5588 -0.2179
 3407SOL    HW111437   0.950   6.110   1.964 -0.0891 -0.8260  0.6130
 3407SOL    HW211438   1.097   6.116   1.998  0.2175 -0.1823 -0.7662
 3408SOL     OW11439   1.363   6.049   2.581 -0.1356 -0.3563  0.3166
 3408SOL    HW111440   1.400   5.986   2.643  0.8929  1.4827  1.6771
 3408SOL    HW211441   1.351   6.129   2.633  4.1857  2.5463 -2.4765
 3409SOL     OW11442   0.909   7.539   3.473 -0.6193 -0.2618 -0.7878
 3409SOL    HW111443   0.872   7.489   3.401 -0.0579 -0.0917 -1.2005
 3409SOL    HW211444   1.003   7.541   3.455 -0.3807 -0.8224  0.3224
 3410SOL     OW11445   1.650   7.223   3.559  0.0535 -0.1411 -0.1691
 3410SOL    HW111446   1.653   7.129   3.540  1.4866  0.0319 -0.9275
 3410SOL    HW211447   1.675   7.230   3.651  1.6554 -0.4007 -0.5630
 3411SOL     OW11448   0.333   6.244   3.633  0.2682 -0.3256  0.7181
 3411SOL    HW111449   0.416   6.215   3.594  0.3151  0.1912  0.4215
 3411SOL    HW211450   0.318   6.331   3.595 -1.1528 -1.0120 -0.3867
 3412SOL     OW11451   0.943   5.842   2.070  0.3799  0.2375 -0.2305
 3412SOL    HW111452   0.966   5.750   2.059  1.3286  0.4932 -0.4986
 3412SOL    HW211453   1.018   5.880   2.117  0.9120  1.2654 -1.8107
 3413SOL     OW11454   1.283   6.348   1.632 -0.2995 -0.3889 -0.0377
 3413SOL    HW111455   1.193   6.371   1.611  0.0195  0.7701 -0.1818
 3413SOL    HW211456   1.316   6.304   1.554 -0.5240 -0.2106 -0.2313
 3414SOL     OW11457   1.273   7.232   2.505  0.3255  0.0756  0.1536
 3414SOL    HW111458   1.188   7.201   2.475 -0.2897 -0.6703  2.4901
 3414SOL    HW211459   1.254   7.291   2.577  1.7546 -0.8596  1.3825
 3415SOL     OW11460   0.232   5.974   3.182  0.3928 -0.4209  0.2511
 3415SOL    HW111461   0.244   5.879   3.181  1.9198 -0.2598  0.9294
 3415SOL    HW211462   0.219   5.997   3.090  2.3265 -1.0569 -0.2420
 3416SOL     OW11463   0.812   5.334   2.595 -0.1772 -0.5998  0.1948
 3416SOL    HW111464   0.827   5.410   2.539  0.6302 -0.0739  1.0817
 3416SOL    HW211465   0.886   5.335   2.657  0.8315 -3.0892 -0.8285
 3417SOL     OW11466   1.190   6.025   3.541 -0.0932  0.2315 -0.1110
 3417SOL    HW111467   1.275   5.980   3.541 -1.1655 -1.9066  0.0926
 3417SOL    HW211468   1.173   6.043   3.634  0.4452  1.3575 -0.2104
 3418SOL     OW11469   1.167   5.542   3.302 -0.5159  0.0817 -0.5173
 3418SOL    HW111470   1.092   5.530   3.361 -0.3334 -0.7628 -0.4517
 3418SOL    HW211471   1.132   5.523   3.215 -0.7170  1.0624 -0.6652
 3419SOL     OW11472   0.227   6.561   2.107 -0.1047  0.2371  0.1686
 3419SOL    HW111473   0.133   6.555   2.126 -0.7333 -0.2837 -2.6172
 3419SOL    HW211474   0.250   6.651   2.130 -1.4071  0.5409  0.4045
 3420SOL     OW11475   0.130   7.294   3.204  0.6227  0.3721 -0.0799
 3420SOL    HW111476   0.169   7.208   3.194 -1.0206 -0.4453  0.1783
 3420SOL    HW211477   0.053   7.280   3.260 -0.2609  1.8100 -0.8566
 3421SOL     OW11478   0.530   6.851   2.583  0.0090 -0.5013  0.0371
 3421SOL    HW111479   0.571   6.937   2.578 -0.6080 -0.0426  1.9951
 3421SOL    HW211480   0.462   6.853   2.515 -0.8030  1.0439  0.8454
 3422SOL     OW11481   0.922   6.134   3.094 -0.1754 -0.4387  0.1944
 3422SOL    HW111482   0.912   6.129   3.189 -1.7055  2.3403  0.2637
 3422SOL    HW211483   0.852   6.079   3.060 -0.6247 -0.1642  0.6668
 3423SOL     OW11484   0.034   6.180   3.225 -0.0711  0.4054  0.6341
 3423SOL    HW111485   0.100   6.110   3.232 -1.2879 -0.6568  2.2552
 3423SOL    HW211486  -0.047   6.135   3.201 -0.3416  1.6358 -0.8791
 3424SOL     OW11487   0.063   5.831   3.412  0.0079  0.0857  0.2402
 3424SOL    HW111488   0.017   5.826   3.328  0.1958  1.6852  0.0141
 3424SOL    HW211489   0.057   5.923   3.437  0.2152 -0.3149  1.8465
 3425SOL     OW11490   1.250   6.528   3.536  0.8544  0.0934  0.4694
 3425SOL    HW111491   1.229   6.616   3.566 -1.1997 -0.4342  0.7517
 3425SOL    HW211492   1.346   6.525   3.536  0.9788  2.3556  0.2671
 3426SOL     OW11493   0.628   6.475   2.260 -0.6829  0.3215 -0.1153
 3426SOL    HW111494   0.667   6.389   2.274 -1.8340 -0.0696  0.8319
 3426SOL    HW211495   0.606   6.476   2.167 -0.6513 -0.4150 -0.1398
 3427SOL     OW11496   1.675   6.132   2.599  0.0771  0.1707  0.2788
 3427SOL    HW111497   1.672   6.050   2.647  0.8056 -0.3167 -0.4790
 3427SOL    HW211498   1.749   6.122   2.539 -0.1043  1.2018 -0.1391
 3428SOL     OW11499   0.028   7.266   3.824 -0.1225  0.3124  0.1843
 3428SOL    HW111500   0.024   7.352   3.783  1.2330  0.0527 -0.5368
 3428SOL    HW211501   0.107   7.268   3.877 -0.3505 -0.3266  0.5624
 3429SOL     OW11502   0.778   5.577   3.090 -0.5186  0.1266 -0.0935
 3429SOL    HW111503   0.716   5.613   3.153  0.8078  0.0852  1.3117
 3429SOL    HW211504   0.761   5.483   3.090  0.4212 -0.0948  1.4030
 3430SOL     OW11505   0.955   7.122   3.087 -0.2722 -0.0642  0.1043
 3430SOL    HW111506   0.899   7.048   3.112 -1.0319  0.2804 -0.5383
 3430SOL    HW211507   0.947   7.183   3.160 -0.6751 -0.0580  0.0620
 3431SOL     OW11508   0.257   5.821   1.625 -0.9873  0.0722 -0.0631
 3431SOL    HW111509   0.332   5.764   1.609 -1.3161 -0.6866  1.0124
 3431SOL    HW211510   0.295   5.906   1.645 -0.4496 -0.0452 -0.5750
 3432SOL     OW11511   0.320   6.521   3.567  0.1662 -0.3778  0.5985
 3432SOL    HW111512   0.252   6.586   3.584 -0.1959 -0.1046 -1.5876
 3432SOL    HW211513   0.394   6.571   3.532  0.2865 -1.0058 -0.0872
 3433SOL     OW11514   0.504   6.703   3.483  0.3761 -0.4372  0.3218
 3433SOL    HW111515   0.592   6.666   3.480  1.8889  2.8225 -2.3977
 3433SOL    HW211516   0.518   6.795   3.505 -2.3891  0.1241  0.0435
 3434SOL     OW11517   1.093   6.430   1.962 -0.2390  0.0076  0.5283
 3434SOL    HW111518   1.115   6.346   1.922 -1.6871 -0.3713  0.4744
 3434SOL    HW211519   1.071   6.486   1.888 -0.0643  0.1925  0.6165
 3435SOL     OW11520   1.369   7.715   2.639 -0.4260 -0.2435  0.2747
 3435SOL    HW111521   1.278   7.687   2.627  0.0508 -1.4437 -0.7983
 3435SOL    HW211522   1.421   7.636   2.622  0.8437  0.5189  0.4565
 3436SOL     OW11523   0.985   7.545   2.623 -0.3637 -0.4563 -0.4042
 3436SOL    HW111524   1.050   7.483   2.658 -0.1612 -0.0502 -0.0456
 3436SOL    HW211525   1.025   7.578   2.543 -1.1055 -1.8689 -1.3958
 3437SOL     OW11526   8.745   6.902   2.937 -0.1803  0.4794  0.0534
 3437SOL    HW111527   8.765   6.926   3.028  0.3636 -0.0349  0.0768
 3437SOL    HW211528   8.662   6.855   2.942 -0.1230  0.4004  0.2986
 3438SOL     OW11529   0.838   7.795   3.576 -0.1181  0.0661 -0.1839
 3438SOL    HW111530   0.930   7.814   3.593 -0.5261  0.4910  1.8496
 3438SOL    HW211531   0.839   7.717   3.521  1.4524  0.3503 -0.5940
 3439SOL     OW11532   1.837   5.691   2.308 -0.6254 -0.7319  0.9054
 3439SOL    HW111533   1.777   5.705   2.235 -0.7683  0.2142  1.1880
 3439SOL    HW211534   1.867   5.601   2.297  1.5349  0.1629 -1.9738
 3440SOL     OW11535   1.606   7.348   2.915 -0.3252  0.0113  0.8946
 3440SOL    HW111536   1.650   7.406   2.977  0.6827  0.4345 -0.1913
 3440SOL    HW211537   1.636   7.261   2.938 -0.8415  0.0295  1.7044
 3441SOL     OW11538   0.291   7.084   4.060  0.0037 -0.2836  0.1625
 3441SOL    HW111539   0.210   7.034   4.075  0.5913 -1.0520  0.8993
 3441SOL    HW211540   0.352   7.049   4.124  0.9878  0.1602 -0.5169
 3442SOL     OW11541   1.476   6.449   2.539 -0.4360  0.0382  0.0154
 3442SOL    HW111542   1.543   6.479   2.601  1.1518 -2.1939 -0.5146
 3442SOL    HW211543   1.420   6.525   2.527  1.2903  1.6439  1.4245
 3443SOL     OW11544   0.281   6.372   3.296 -0.0402  0.2592  0.3774
 3443SOL    HW111545   0.345   6.302   3.287  1.8373  1.9156  0.2322
 3443SOL    HW211546   0.302   6.413   3.381  0.6062  2.1994 -0.6509
 3444SOL     OW11547   0.377   7.651   2.079 -0.2183 -0.2855 -0.2613
 3444SOL    HW111548   0.444   7.600   2.034  0.1162  1.0898 -1.4017
 3444SOL    HW211549   0.338   7.590   2.141  1.0279 -1.5481 -0.6674
 3445SOL     OW11550   1.633   7.513   3.120 -0.2923 -0.3764  0.2704
 3445SOL    HW111551   1.681   7.553   3.193 -0.3410 -0.4078  0.3195
 3445SOL    HW211552   1.609   7.586   3.064 -1.7891 -0.1479  1.1757
 3446SOL     OW11553   1.806   5.691   2.828 -0.3760 -0.0582 -0.6328
 3446SOL    HW111554   1.886   5.673   2.779 -0.4582 -0.8270 -0.5026
 3446SOL    HW211555   1.738   5.698   2.761  0.0967  2.5924 -0.9152
 3447SOL     OW11556   0.429   5.503   2.287 -0.6753 -0.0309 -0.4872
 3447SOL    HW111557   0.337   5.483   2.270 -0.9718  0.2183  0.7374
 3447SOL    HW211558   0.428   5.562   2.362  0.5522 -1.7714  1.0040
 3448SOL     OW11559   0.978   7.365   2.170 -0.2305  0.2948 -0.3200
 3448SOL    HW111560   0.907   7.339   2.111 -0.7857 -0.4766  0.6567
 3448SOL    HW211561   0.937   7.426   2.231 -0.3991 -1.0926  1.0128
 3449SOL     OW11562   0.086   6.405   3.104 -0.2302 -0.8874  0.1397
 3449SOL    HW111563   0.034   6.339   3.150 -0.6762  0.1805  1.2150
 3449SOL    HW211564   0.170   6.405   3.150 -0.4235 -0.3381  0.5086
 3450SOL     OW11565   1.078   6.202   2.394  0.0768 -0.1185 -0.0233
 3450SOL    HW111566   1.015   6.274   2.390 -0.6046 -0.6221  1.1045
 3450SOL    HW211567   1.151   6.238   2.445  0.4287  0.2517 -0.7683
 3451SOL     OW11568   1.574   6.706   1.820  0.0839  0.0598 -0.4724
 3451SOL    HW111569   1.591   6.794   1.856 -0.6966 -0.4224  1.1660
 3451SOL    HW211570   1.562   6.651   1.897 -0.5196 -1.2805 -1.4965
 3452SOL     OW11571   0.125   7.091   3.478 -0.0061  0.0121 -0.3942
 3452SOL    HW111572   0.115   7.056   3.567 -2.1096 -1.9831 -1.3273
 3452SOL    HW211573   0.038   7.124   3.455  0.4090  0.1593 -1.8580
 3453SOL     OW11574   1.176   6.930   3.297  0.6366  0.1832  0.3669
 3453SOL    HW111575   1.244   6.909   3.361  1.7111  1.0465 -0.4346
 3453SOL    HW211576   1.116   6.988   3.344  1.9073  1.5585  0.3776
 3454SOL     OW11577   1.287   6.694   2.585  0.4291  0.0583 -0.3567
 3454SOL    HW111578   1.195   6.716   2.603  0.2932  0.6160 -1.6356
 3454SOL    HW211579   1.332   6.709   2.668 -0.4228  1.0281 -0.0506
 3455SOL     OW11580   0.835   6.047   2.679 -0.1236 -0.6945  0.0602
 3455SOL    HW111581   0.850   6.100   2.601 -2.8632  2.4926  1.4473
 3455SOL    HW211582   0.912   6.064   2.734  1.0199 -1.6332 -1.1821
 3456SOL     OW11583   0.522   7.288   2.102 -0.1361  0.6540 -0.5585
 3456SOL    HW111584   0.567   7.366   2.069 -0.1992  1.2831  0.7868
 3456SOL    HW211585   0.507   7.234   2.024  1.3341  1.2511 -1.2886
 3457SOL     OW11586   1.649   5.899   3.128  0.0149 -0.5709  0.0167
 3457SOL    HW111587   1.714   5.916   3.060 -0.1697 -0.9451 -0.2559
 3457SOL    HW211588   1.685   5.826   3.178  0.0419 -0.4455  0.1810
 3458SOL     OW11589   0.444   6.531   2.466 -0.0401  0.0600  0.4088
 3458SOL    HW111590   0.520   6.520   2.410 -0.9773 -0.5606 -0.7904
 3458SOL    HW211591   0.416   6.622   2.451  0.5486  0.3453  0.9892
 3459SOL     OW11592   0.126   6.082   3.551  0.3851  0.1915 -0.3364
 3459SOL    HW111593   0.221   6.092   3.541  0.5435  0.8236  1.4911
 3459SOL    HW211594   0.090   6.163   3.514  0.3648 -0.8352 -2.7726
 3460SOL     OW11595   0.638   5.475   3.526  0.0780 -0.5057  0.1314
 3460SOL    HW111596   0.701   5.412   3.491  0.1768 -0.5214  0.3387
 3460SOL    HW211597   0.598   5.430   3.600 -1.5030 -1.2216 -1.0865
 3461SOL     OW11598   0.524   5.742   1.604  0.1693  0.0526 -0.1970
 3461SOL    HW111599   0.564   5.662   1.637  0.4077  0.0803 -0.4196
 3461SOL    HW211600   0.543   5.808   1.671  2.5020  0.6368 -1.3398
 3462SOL     OW11601   1.587   6.721   3.052  0.3948 -0.0797 -0.0356
 3462SOL    HW111602   1.610   6.635   3.087  1.4231  0.2056  0.0284
 3462SOL    HW211603   1.545   6.766   3.126  0.3507 -0.3325  0.0960
 3463SOL     OW11604   8.845   5.133   1.592 -0.0662 -0.0280  0.2792
 3463SOL    HW111605   8.882   5.166   1.510 -0.7876  0.4099  0.1220
 3463SOL    HW211606   8.921   5.120   1.649  0.7123 -2.2767 -1.1069
 3464SOL     OW11607   1.389   6.949   2.177 -0.1329 -0.2430  0.6334
 3464SOL    HW111608   1.296   6.973   2.167  0.0802  0.6382  0.6473
 3464SOL    HW211609   1.400   6.936   2.271 -0.3552 -0.8344  0.5785
 3465SOL     OW11610   0.707   6.157   3.363 -0.1697  0.6087  0.1806
 3465SOL    HW111611   0.649   6.161   3.439  0.3794 -2.6104  0.8999
 3465SOL    HW211612   0.790   6.124   3.398  0.8318  1.2503 -1.4819
 3466SOL     OW11613   1.482   7.930   2.850  0.2907 -0.1423  0.7118
 3466SOL    HW111614   1.484   7.907   2.757  0.9274  3.1363 -0.2256
 3466SOL    HW211615   1.426   7.864   2.890  1.5764 -2.8506 -1.5961
 3467SOL     OW11616   0.877   5.900   3.659 -0.6528 -0.4198 -0.1198
 3467SOL    HW111617   0.920   5.818   3.635 -0.1531 -0.5587  1.1601
 3467SOL    HW211618   0.916   5.966   3.602 -1.3609 -1.1141 -1.4594
 3468SOL     OW11619   1.107   6.731   3.646 -0.1164 -0.6091 -0.1823
 3468SOL    HW111620   1.067   6.671   3.709  1.1214 -0.0551  1.2062
 3468SOL    HW211621   1.121   6.812   3.696  0.8000 -0.1163 -1.2025
 3469SOL     OW11622   0.341   7.554   3.660 -0.2038 -0.7600 -0.0486
 3469SOL    HW111623   0.347   7.534   3.567  0.0938  1.6032 -0.5863
 3469SOL    HW211624   0.354   7.469   3.703 -1.2844 -2.0716 -2.1404
 3470SOL     OW11625   1.863   6.448   2.817 -0.1066 -0.1176  0.0301
 3470SOL    HW111626   1.896   6.405   2.897 -1.3085 -0.5392  0.3220
 3470SOL    HW211627   1.773   6.419   2.810 -0.6730  1.6169 -0.3151
 3471SOL     OW11628   1.088   5.935   2.461  0.1227  0.0859  0.7241
 3471SOL    HW111629   1.175   5.921   2.499  0.5782 -0.6829 -0.5319
 3471SOL    HW211630   1.084   6.028   2.441  0.1354  0.3713  1.9873
 3472SOL     OW11631   1.228   6.498   2.889 -0.4955  0.5392 -0.1061
 3472SOL    HW111632   1.290   6.562   2.854  0.5757 -0.6212 -0.4003
 3472SOL    HW211633   1.248   6.494   2.983  0.4335 -0.4077 -0.3325
 3473SOL     OW11634   1.341   6.190   2.940 -0.3995 -0.0487 -0.2129
 3473SOL    HW111635   1.353   6.116   3.001 -0.5720  0.0493 -0.0600
 3473SOL    HW211636   1.272   6.161   2.881  0.1246 -0.3536 -0.6903
 3474SOL     OW11637   1.929   6.241   2.558  0.2467  0.2145 -0.2516
 3474SOL    HW111638   2.014   6.223   2.597 -0.4494 -0.5692  0.9709
 3474SOL    HW211639   1.871   6.258   2.633 -1.0390 -0.9403 -0.9311
 3475SOL     OW11640   1.133   7.029   2.176  0.2214 -0.7818 -0.2121
 3475SOL    HW111641   1.080   6.949   2.170  0.2650 -0.8934  0.6991
 3475SOL    HW211642   1.087   7.083   2.241  0.8011 -0.5445  0.0075
 3476SOL     OW11643   0.994   7.291   3.309  0.8193  0.4661  0.1026
 3476SOL    HW111644   1.004   7.255   3.397  0.0009 -0.1526 -0.0480
 3476SOL    HW211645   1.056   7.364   3.306  3.0061 -1.2580  0.2154
 3477SOL     OW11646   0.974   6.735   2.669  0.0764 -0.3031 -0.2077
 3477SOL    HW111647   0.935   6.736   2.757  1.2080 -0.1512  0.3150
 3477SOL    HW211648   0.952   6.648   2.634  0.4913 -0.7722  0.6500
 3478SOL     OW11649   0.933   6.824   2.127  0.3271  0.4346  0.1519
 3478SOL    HW111650   0.851   6.810   2.173 -1.2388  2.0172 -1.9859
 3478SOL    HW211651   0.977   6.739   2.131 -0.7298 -0.1020  2.4806
 3479SOL     OW11652   1.834   7.107   2.890 -0.3793 -0.0567  0.2886
 3479SOL    HW111653   1.838   7.069   2.978 -0.3547 -0.0486  0.2911
 3479SOL    HW211654   1.922   7.143   2.875  0.2442 -1.8449 -0.5457
 3480SOL     OW11655   0.065   7.017   3.750  0.6117  0.3542  0.2734
 3480SOL    HW111656   0.050   7.105   3.786  0.4860 -0.1538  1.5043
 3480SOL    HW211657   0.019   6.959   3.810  0.2682 -0.5307 -0.8174
 3481SOL     OW11658   0.479   6.300   2.940  0.8603  0.0592  0.3435
 3481SOL    HW111659   0.518   6.244   2.872  0.3878  0.3915 -0.2090
 3481SOL    HW211660   0.432   6.368   2.891  0.3002  0.1550  0.9988
 3482SOL     OW11661   0.305   7.285   3.859  0.4874  0.4251 -0.3068
 3482SOL    HW111662   0.334   7.216   3.919 -2.0544 -1.5233 -1.1804
 3482SOL    HW211663   0.333   7.255   3.773  1.2343  1.6148 -0.5102
 3483SOL     OW11664   1.392   5.951   3.066 -0.5141 -0.2811  0.3026
 3483SOL    HW111665   1.352   5.895   3.133 -1.3399 -0.2017 -0.1214
 3483SOL    HW211666   1.485   5.952   3.090 -0.5529 -1.4444  0.5903
 3484SOL     OW11667   0.430   5.570   1.964 -0.0575  0.0436 -0.6681
 3484SOL    HW111668   0.491   5.521   2.019 -1.3126 -2.1119 -1.0791
 3484SOL    HW211669   0.479   5.648   1.937  1.8006 -0.6232  0.5899
 3485SOL     OW11670   1.552   7.322   3.294  0.1532  0.4095  0.0755
 3485SOL    HW111671   1.582   7.382   3.225  0.8729 -0.0297 -0.0052
 3485SOL    HW211672   1.605   7.346   3.370 -0.5634  0.8197  0.4527
 3486SOL     OW11673   0.613   5.936   2.577  0.4341 -0.3537 -0.2073
 3486SOL    HW111674   0.680   5.990   2.619  0.1992  0.6556 -1.0997
 3486SOL    HW211675   0.597   5.977   2.493  1.1757 -2.5672 -1.5246
 3487SOL     OW11676   0.410   7.435   2.299  0.2826  0.3119 -0.0989
 3487SOL    HW111677   0.460   7.440   2.380  0.4850  1.1656 -0.2650
 3487SOL    HW211678   0.461   7.378   2.242  1.5689  1.8871 -0.5905
 3488SOL     OW11679   1.356   5.745   3.292  0.0436 -0.3462  0.6639
 3488SOL    HW111680   1.295   5.674   3.312  0.2338 -1.1199 -1.3105
 3488SOL    HW211681   1.442   5.703   3.292  0.0190 -0.5650 -2.1201
 3489SOL     OW11682   0.871   5.373   3.393 -0.1167  0.9508 -0.1446
 3489SOL    HW111683   0.896   5.281   3.397 -0.7082  0.8469  1.9365
 3489SOL    HW211684   0.840   5.385   3.303 -0.8371 -1.0900 -0.2167
 3490SOL     OW11685   0.680   7.117   2.243 -0.0476  0.0099 -0.3493
 3490SOL    HW111686   0.649   7.194   2.196 -1.7322 -1.2058 -1.3555
 3490SOL    HW211687   0.773   7.111   2.222  0.6489  2.8352  1.3915
 3491SOL     OW11688   0.792   7.159   2.873 -0.1856 -0.3749 -0.3692
 3491SOL    HW111689   0.846   7.162   2.952 -0.9687 -2.1510  0.2818
 3491SOL    HW211690   0.851   7.126   2.806  0.9304  2.5681 -1.0170
 3492SOL     OW11691   1.258   5.845   2.142  0.2096  0.4628  0.2385
 3492SOL    HW111692   1.312   5.819   2.067 -0.1922  0.7705 -0.1606
 3492SOL    HW211693   1.227   5.762   2.178  0.7065  0.2968  0.2921
 3493SOL     OW11694   1.179   6.094   2.149 -0.5990 -0.2993  0.2097
 3493SOL    HW111695   1.197   6.004   2.174  1.0399 -0.1253 -0.2287
 3493SOL    HW211696   1.144   6.135   2.229 -0.8389 -1.1780  0.5609
 3494SOL     OW11697   1.419   5.589   2.819  0.1979  0.1274  0.2820
 3494SOL    HW111698   1.473   5.548   2.750 -0.6534 -1.1111  0.3168
 3494SOL    HW211699   1.329   5.579   2.787 -0.1454  0.3101  1.1829
 3495SOL     OW11700   0.046   6.882   2.457  0.1989  0.0473  0.1313
 3495SOL    HW111701  -0.021   6.859   2.520 -0.8663  0.9329 -0.6360
 3495SOL    HW211702   0.049   6.808   2.396  0.2163 -0.1717  0.3973
 3496SOL     OW11703   0.750   7.012   2.530  0.3912 -0.1664  0.2131
 3496SOL    HW111704   0.757   7.100   2.493  0.2095  0.5621  1.8249
 3496SOL    HW211705   0.834   6.997   2.573  0.3566 -0.7265  0.0920
 3497SOL     OW11706   0.432   5.904   3.500 -0.0976 -0.6966 -0.1191
 3497SOL    HW111707   0.450   5.986   3.453  1.1617 -1.2772 -0.7088
 3497SOL    HW211708   0.514   5.854   3.493 -1.0864 -2.3375 -0.4357
 3498SOL     OW11709   8.701   5.954   4.338 -0.3658 -0.4423 -0.4558
 3498SOL    HW111710   8.672   6.015   4.406  1.4406  0.5284 -0.4869
 3498SOL    HW211711   8.645   5.973   4.263  0.5795  1.7430 -0.6956
 3499SOL     OW11712   8.710   5.654   4.263  0.2901 -0.1422 -0.3603
 3499SOL    HW111713   8.698   5.605   4.344 -1.3628  0.3210 -0.2919
 3499SOL    HW211714   8.732   5.743   4.291 -0.0993 -0.0258 -0.4286
 3500SOL     OW11715   0.769   7.350   5.304  0.1165  0.5661  0.5294
 3500SOL    HW111716   0.681   7.362   5.339  0.7005  1.1636  1.8950
 3500SOL    HW211717   0.801   7.440   5.289 -0.2446  0.3328 -1.9903
 3501SOL     OW11718   1.524   7.341   4.421  0.5353  0.1056 -0.1200
 3501SOL    HW111719   1.527   7.398   4.497 -3.4670 -0.3275  0.6200
 3501SOL    HW211720   1.519   7.401   4.346  2.6715  0.5437  0.0332
 3502SOL     OW11721   1.093   6.491   4.448  0.3192  0.3463  0.3569
 3502SOL    HW111722   1.183   6.483   4.416  0.3541 -0.5948  0.6697
 3502SOL    HW211723   1.068   6.402   4.472 -0.2028  0.8115  1.6095
 3503SOL     OW11724   2.051   5.634   3.829 -0.1438 -0.1462  0.1382
 3503SOL    HW111725   1.955   5.628   3.824 -0.2466  0.9373  0.4904
 3503SOL    HW211726   2.082   5.581   3.755 -0.9956 -0.8665  0.2842
 3504SOL     OW11727   0.456   6.992   4.246 -0.0276 -0.0071 -0.6513
 3504SOL    HW111728   0.449   6.897   4.241 -0.9453 -0.0595  0.7227
 3504SOL    HW211729   0.536   7.008   4.296 -1.7406 -0.2629  2.4207
 3505SOL     OW11730   0.864   6.449   5.763 -0.4257 -0.2871  0.0323
 3505SOL    HW111731   0.947   6.421   5.726 -1.4037 -1.1988 -1.5839
 3505SOL    HW211732   0.858   6.543   5.742 -0.4763 -0.5566 -1.2106
 3506SOL     OW11733   0.539   6.535   4.353  0.2646 -0.4022  0.2861
 3506SOL    HW111734   0.529   6.455   4.405 -0.7135 -1.1986 -1.0893
 3506SOL    HW211735   0.619   6.520   4.301  0.6437 -0.0464  0.7512
 3507SOL     OW11736   1.095   6.845   5.810 -0.0594  0.6255  0.4502
 3507SOL    HW111737   1.142   6.762   5.808 -1.7275 -0.4002  1.1290
 3507SOL    HW211738   1.104   6.877   5.900  0.4747  1.1357  0.2239
 3508SOL     OW11739   0.393   7.098   4.731 -0.0689 -0.2725 -0.0459
 3508SOL    HW111740   0.300   7.090   4.712  0.1300 -0.8882 -0.8139
 3508SOL    HW211741   0.427   7.155   4.662  0.4058 -1.3926 -0.7773
 3509SOL     OW11742   1.255   7.086   5.376  0.5298 -0.0580 -0.3656
 3509SOL    HW111743   1.228   7.040   5.296 -0.5170  2.3083 -1.4856
 3509SOL    HW211744   1.184   7.148   5.393  1.1769  0.1276  1.8987
 3510SOL     OW11745   0.597   6.130   5.240 -0.3833  0.6197 -0.2385
 3510SOL    HW111746   0.529   6.130   5.307 -1.5922 -0.9076 -1.3959
 3510SOL    HW211747   0.679   6.122   5.289 -1.2299 -0.5958  1.0570
 3511SOL     OW11748   1.220   5.879   4.527 -0.0420 -0.2765 -0.0454
 3511SOL    HW111749   1.233   5.826   4.448 -1.7594  1.5622 -1.6596
 3511SOL    HW211750   1.232   5.969   4.498 -0.2749  0.4418  1.9311
 3512SOL     OW11751   0.266   7.369   4.168  0.0290 -0.0372 -0.0597
 3512SOL    HW111752   0.184   7.370   4.217 -0.4116 -1.7154 -0.7067
 3512SOL    HW211753   0.242   7.339   4.081  0.9558  1.9829 -1.0833
 3513SOL     OW11754   0.865   6.974   5.427  0.1046  0.5768 -0.3387
 3513SOL    HW111755   0.926   6.920   5.376  0.1329 -0.0442  0.3398
 3513SOL    HW211756   0.806   7.012   5.361 -0.1788 -0.6175 -0.7971
 3514SOL     OW11757   0.274   6.816   4.522 -0.3273 -0.0144 -0.0474
 3514SOL    HW111758   0.355   6.769   4.543 -0.9581 -0.9824  0.3136
 3514SOL    HW211759   0.220   6.807   4.601 -0.1623  2.0740  0.3576
 3515SOL     OW11760   0.196   6.813   5.000 -0.2500  0.1515 -0.3374
 3515SOL    HW111761   0.271   6.852   5.045  0.3249 -1.3117  0.0369
 3515SOL    HW211762   0.183   6.729   5.044 -0.8259 -0.5205 -1.7315
 3516SOL     OW11763   0.506   7.477   5.341 -0.1911 -0.3005 -0.4119
 3516SOL    HW111764   0.498   7.567   5.374 -1.0654 -0.5004 -0.0557
 3516SOL    HW211765   0.447   7.473   5.267  0.6038 -0.3060 -1.0568
 3517SOL     OW11766   0.723   6.549   3.473 -0.4555  0.2566  0.0552
 3517SOL    HW111767   0.684   6.480   3.527  0.8646 -0.7031 -0.1683
 3517SOL    HW211768   0.817   6.536   3.482 -0.1314 -0.2926 -2.8251
 3518SOL     OW11769   1.424   6.331   5.103 -0.0609  0.2297  0.3085
 3518SOL    HW111770   1.489   6.400   5.087 -0.8835  0.5847 -1.8353
 3518SOL    HW211771   1.476   6.254   5.127  1.1730  0.5032 -1.3288
 3519SOL     OW11772   0.233   5.656   4.347 -0.1579 -0.0441  0.0399
 3519SOL    HW111773   0.270   5.721   4.407  0.3009 -0.9671  0.7856
 3519SOL    HW211774   0.194   5.708   4.277 -1.8301  1.1122  1.7511
 3520SOL     OW11775   1.650   7.164   4.016  0.6993  0.6868  0.4439
 3520SOL    HW111776   1.558   7.166   4.043  0.4563  1.2457 -0.4045
 3520SOL    HW211777   1.658   7.086   3.962  0.9989  0.0159  1.4263
 3521SOL     OW11778   0.045   6.972   4.123  0.0728  0.4830 -0.5811
 3521SOL    HW111779   0.017   6.920   4.198  0.8715 -1.3184 -1.4549
 3521SOL    HW211780  -0.022   6.957   4.056 -0.7006  2.1754 -0.2235
 3522SOL     OW11781   1.552   6.692   4.331  0.0959  0.1318  0.2388
 3522SOL    HW111782   1.561   6.787   4.330  0.6358  0.0845 -0.7586
 3522SOL    HW211783   1.633   6.660   4.370  0.6996  0.0241 -1.0658
 3523SOL     OW11784   1.406   6.279   4.234 -0.3998  0.2845 -0.3061
 3523SOL    HW111785   1.427   6.370   4.211 -1.4959  0.6724  0.1463
 3523SOL    HW211786   1.456   6.263   4.314  1.2515 -0.1510 -1.3811
 3524SOL     OW11787   0.417   6.203   5.451 -0.0627 -0.5798 -0.1235
 3524SOL    HW111788   0.441   6.289   5.418 -0.8465 -1.0482 -2.0533
 3524SOL    HW211789   0.326   6.192   5.425 -0.5538 -1.2772  1.7106
 3525SOL     OW11790   0.424   6.736   4.187 -0.0558  0.7972  0.6208
 3525SOL    HW111791   0.478   6.683   4.247  0.6118 -0.5027 -1.0445
 3525SOL    HW211792   0.348   6.681   4.169  0.3011  0.6688 -0.5760
 3526SOL     OW11793   1.042   6.704   5.163 -0.3002  0.8301 -0.0384
 3526SOL    HW111794   1.002   6.645   5.227 -0.6765  0.4878 -0.5792
 3526SOL    HW211795   0.969   6.756   5.130 -0.1341  0.8881 -0.3107
 3527SOL     OW11796   0.556   6.102   4.027  0.0127 -0.4530  0.5120
 3527SOL    HW111797   0.594   6.047   3.959  0.4215 -2.2707  2.1184
 3527SOL    HW211798   0.592   6.189   4.010  0.3961 -0.9306 -1.3457
 3528SOL     OW11799   0.516   6.836   5.029 -0.2291  0.3176 -0.5289
 3528SOL    HW111800   0.601   6.830   4.987  0.5420 -2.3955  1.1444
 3528SOL    HW211801   0.479   6.748   5.022 -3.0047  1.4415 -1.3130
 3529SOL     OW11802   1.462   6.221   3.863 -0.0802 -0.7244  0.6110
 3529SOL    HW111803   1.406   6.187   3.793  1.3032  1.1463 -1.5654
 3529SOL    HW211804   1.498   6.143   3.905 -3.5095 -1.9974  1.5813
 3530SOL     OW11805   0.772   7.879   5.252 -0.5735  0.0689  0.1062
 3530SOL    HW111806   0.701   7.849   5.309 -1.1221 -1.9123 -1.5379
 3530SOL    HW211807   0.765   7.975   5.255 -2.6639 -0.0388  0.7746
 3531SOL     OW11808   0.208   6.000   5.637 -0.6347 -0.3114  0.2466
 3531SOL    HW111809   0.211   5.918   5.686 -0.5946 -0.0045  0.7687
 3531SOL    HW211810   0.145   6.055   5.684  0.3879  0.4743  0.7507
 3532SOL     OW11811   1.485   7.393   4.930 -0.3822  0.5322  0.5055
 3532SOL    HW111812   1.399   7.369   4.964  0.2087 -0.5616  1.2939
 3532SOL    HW211813   1.544   7.326   4.965  0.4501 -0.0288 -1.7954
 3533SOL     OW11814   1.891   7.592   3.949 -0.0540  0.4703  0.2060
 3533SOL    HW111815   1.842   7.521   3.989 -1.3974  0.9778 -0.4739
 3533SOL    HW211816   1.983   7.566   3.958 -0.4445 -0.6156  1.3044
 3534SOL     OW11817   0.684   6.400   3.737  0.2759  0.5093  0.3168
 3534SOL    HW111818   0.605   6.451   3.753 -1.5776 -2.1604  0.2826
 3534SOL    HW211819   0.702   6.355   3.820  0.2805 -0.7698 -0.3452
 3535SOL     OW11820   1.219   6.126   4.450 -0.2068 -0.1817  0.4715
 3535SOL    HW111821   1.268   6.145   4.371 -0.5912 -2.1804 -0.2929
 3535SOL    HW211822   1.138   6.175   4.440  0.9634  1.9973  1.0864
 3536SOL     OW11823   1.555   7.399   3.898 -0.6333  0.7038 -0.2151
 3536SOL    HW111824   1.621   7.331   3.912 -0.8274  0.5541 -0.0104
 3536SOL    HW211825   1.495   7.361   3.834  0.6205  1.6455 -2.0079
 3537SOL     OW11826   0.698   5.961   5.726 -0.5378  0.1556  0.0417
 3537SOL    HW111827   0.641   6.037   5.732 -0.8103  0.2535 -2.5101
 3537SOL    HW211828   0.783   5.997   5.699 -0.3722 -0.3328 -0.1043
 3538SOL     OW11829   1.575   6.260   5.707  0.8547 -0.1202 -0.4331
 3538SOL    HW111830   1.561   6.301   5.793  0.8788  1.3719 -1.1015
 3538SOL    HW211831   1.651   6.203   5.720  2.5754  2.0990 -0.0493
 3539SOL     OW11832   0.825   6.386   5.029  0.2064 -0.1340 -0.5649
 3539SOL    HW111833   0.786   6.302   5.005  0.5279 -0.0941 -1.2385
 3539SOL    HW211834   0.919   6.368   5.036  0.2546  0.1270 -0.5030
 3540SOL     OW11835   0.771   6.109   5.012 -0.0970 -0.3650  0.1310
 3540SOL    HW111836   0.837   6.046   5.042  1.0143  1.2353  1.2338
 3540SOL    HW211837   0.700   6.101   5.075  0.3366 -0.0641  0.6670
 3541SOL     OW11838   0.874   6.144   3.870  0.1688 -0.4096  0.1241
 3541SOL    HW111839   0.845   6.054   3.865 -1.9781  0.2099  0.4300
 3541SOL    HW211840   0.913   6.162   3.785 -2.8507 -0.5760 -1.4409
 3542SOL     OW11841   0.112   6.194   4.308  0.4682 -0.4132 -0.1791
 3542SOL    HW111842   0.080   6.284   4.311  3.6261  0.8540 -0.9209
 3542SOL    HW211843   0.056   6.151   4.243 -1.2891  0.8701  0.4034
 3543SOL     OW11844   0.059   7.336   5.134 -0.4587 -0.0576 -0.3936
 3543SOL    HW111845  -0.007   7.319   5.067 -0.4125  2.5616 -1.2012
 3543SOL    HW211846   0.143   7.326   5.089 -0.3393 -0.8434 -0.0222
 3544SOL     OW11847   1.096   5.957   4.136  0.2614  0.0294  0.0153
 3544SOL    HW111848   1.116   6.048   4.113 -1.5361  0.2556 -0.7995
 3544SOL    HW211849   1.114   5.908   4.056  0.6895 -0.2580  0.2853
 3545SOL     OW11850   1.538   6.331   5.986  0.5770  0.4204 -0.0411
 3545SOL    HW111851   1.497   6.248   6.011 -1.3989  1.3268 -0.1503
 3545SOL    HW211852   1.622   6.330   6.033  1.0284 -2.0238 -0.7722
 3546SOL     OW11853   1.457   6.557   4.127  0.5634 -0.0500 -0.5726
 3546SOL    HW111854   1.530   6.496   4.121 -0.0791 -0.7547 -1.7623
 3546SOL    HW211855   1.478   6.614   4.201  1.0262 -1.9400  0.8312
 3547SOL     OW11856   0.416   5.334   4.419 -0.5292  0.5402 -0.0815
 3547SOL    HW111857   0.467   5.393   4.475 -1.3095  0.2278  0.9932
 3547SOL    HW211858   0.404   5.382   4.337  1.2517  0.7206 -0.2680
 3548SOL     OW11859   0.923   7.235   4.568 -0.3158 -0.8551  0.1117
 3548SOL    HW111860   1.010   7.207   4.597  0.3895  0.4102 -0.6828
 3548SOL    HW211861   0.934   7.328   4.546 -1.6302 -0.9247 -0.9469
 3549SOL     OW11862   0.559   7.663   4.341 -0.2374 -0.0735 -0.2745
 3549SOL    HW111863   0.516   7.608   4.276  0.5251 -1.9002  0.7060
 3549SOL    HW211864   0.570   7.748   4.298  1.5033 -1.5899 -3.0686
 3550SOL     OW11865   1.625   6.972   4.394  0.3469  0.4528  0.7224
 3550SOL    HW111866   1.701   6.973   4.335  1.4558 -0.4227  2.0599
 3550SOL    HW211867   1.658   6.929   4.474 -1.8369 -0.8864  0.9689
 3551SOL     OW11868   0.998   7.094   5.686 -0.3438 -0.4648  0.0242
 3551SOL    HW111869   1.080   7.045   5.694 -0.4946 -1.1456 -1.9413
 3551SOL    HW211870   0.947   7.045   5.622 -0.6789  1.9959 -1.7543
 3552SOL     OW11871   0.097   6.193   3.835 -0.1974  0.3950  0.2296
 3552SOL    HW111872   0.112   6.140   3.757  0.1841 -0.7271  1.0465
 3552SOL    HW211873   0.182   6.233   3.853  0.6391 -1.9326  1.9105
 3553SOL     OW11874   1.360   6.518   4.438  0.1640  0.3282 -0.6827
 3553SOL    HW111875   1.433   6.574   4.411 -0.1914  1.4874  0.6387
 3553SOL    HW211876   1.390   6.476   4.518  0.0277 -0.5728 -1.0971
 3554SOL     OW11877   0.347   7.054   5.290  0.1959  0.2966 -0.1329
 3554SOL    HW111878   0.315   7.118   5.226 -1.5563  0.7386  1.1151
 3554SOL    HW211879   0.275   7.043   5.352  1.5595 -0.6493  1.3830
 3555SOL     OW11880   1.116   7.191   3.882 -0.9907 -0.6974  0.1545
 3555SOL    HW111881   1.026   7.209   3.908 -0.0415 -0.0478  3.5148
 3555SOL    HW211882   1.125   7.096   3.889 -1.2672 -0.7074  0.3998
 3556SOL     OW11883   0.432   6.304   5.084  0.2313 -0.1687 -0.6222
 3556SOL    HW111884   0.507   6.267   5.132  0.6554  1.4048 -0.0172
 3556SOL    HW211885   0.357   6.290   5.142  0.5599  0.7655  0.0462
 3557SOL     OW11886   1.657   6.866   3.934  0.0330 -0.1435  0.0930
 3557SOL    HW111887   1.569   6.833   3.947 -0.0224 -0.8310 -1.7557
 3557SOL    HW211888   1.708   6.789   3.908  1.2830  0.1716  1.4842
 3558SOL     OW11889   0.457   7.578   4.088 -0.3178  0.2598 -0.5914
 3558SOL    HW111890   0.538   7.527   4.082 -0.2785  0.4325 -2.0831
 3558SOL    HW211891   0.389   7.512   4.105 -0.1995 -0.2643 -1.9899
 3559SOL     OW11892   1.281   5.473   4.389 -0.0867 -0.3252  0.0807
 3559SOL    HW111893   1.234   5.477   4.306  0.6510 -1.8382 -0.4294
 3559SOL    HW211894   1.349   5.407   4.376 -0.4761 -1.2107  2.1235
 3560SOL     OW11895   0.635   7.668   4.805  0.2842  0.1740  0.5386
 3560SOL    HW111896   0.698   7.740   4.799 -0.5530  0.7725 -1.6337
 3560SOL    HW211897   0.590   7.667   4.721 -2.0141 -0.8161  1.6912
 3561SOL     OW11898   0.819   6.960   4.613  0.1224  0.3060 -0.1287
 3561SOL    HW111899   0.744   6.994   4.662  0.2375  0.0375  0.2400
 3561SOL    HW211900   0.863   7.037   4.578 -0.2186  0.4744 -0.1862
 3562SOL     OW11901   0.338   6.290   3.912 -0.5581 -0.5595 -0.2983
 3562SOL    HW111902   0.402   6.357   3.938 -2.0872  0.8824 -0.0362
 3562SOL    HW211903   0.338   6.293   3.816 -0.3669 -0.4313 -0.2962
 3563SOL     OW11904   1.323   5.755   6.218  0.1049 -0.2829 -0.0302
 3563SOL    HW111905   1.375   5.675   6.228  1.7026  0.0471 -3.9295
 3563SOL    HW211906   1.252   5.731   6.159 -1.5594  0.4323  1.5669
 3564SOL     OW11907   0.672   5.936   3.833 -0.5105 -0.2898  0.2864
 3564SOL    HW111908   0.728   5.919   3.758  0.7847 -0.4470  1.2577
 3564SOL    HW211909   0.645   5.850   3.864  0.8248 -0.3738  1.3379
 3565SOL     OW11910   0.711   5.859   5.957  0.0676  0.2763 -0.5515
 3565SOL    HW111911   0.684   5.769   5.937  0.0399  0.1408  0.0898
 3565SOL    HW211912   0.714   5.902   5.871 -0.6200 -0.1396 -0.7957
 3566SOL     OW11913   0.696   7.380   4.647 -0.3434 -0.1520  0.0096
 3566SOL    HW111914   0.725   7.465   4.615 -0.7464 -0.0249 -0.0281
 3566SOL    HW211915   0.771   7.345   4.696 -1.2017  1.6793  2.8815
 3567SOL     OW11916   1.698   6.285   4.954 -0.0721 -0.6930 -0.0759
 3567SOL    HW111917   1.715   6.225   4.881 -1.0848  0.1015 -1.0065
 3567SOL    HW211918   1.677   6.368   4.911  3.4260  0.9940  1.1574
 3568SOL     OW11919   0.643   7.029   4.818 -0.0335 -0.1004  0.1497
 3568SOL    HW111920   0.549   7.024   4.799  0.1794  0.3128 -1.1232
 3568SOL    HW211921   0.649   7.083   4.897 -0.8499  0.1098  0.0771
 3569SOL     OW11922   0.528   6.278   4.452 -0.0773 -0.3736  0.2664
 3569SOL    HW111923   0.454   6.219   4.437 -1.5844  1.1832  1.2149
 3569SOL    HW211924   0.599   6.242   4.398 -1.5165 -1.9022 -0.7030
 3570SOL     OW11925   0.357   5.491   3.968 -0.8209 -0.0504  0.4527
 3570SOL    HW111926   0.355   5.397   3.951 -0.3162  0.1073 -0.5488
 3570SOL    HW211927   0.265   5.517   3.973 -1.0232 -0.2685 -1.3219
 3571SOL     OW11928   1.468   6.509   3.841  0.1191 -0.6555  0.1307
 3571SOL    HW111929   1.409   6.436   3.862 -0.3068 -0.0008  1.2615
 3571SOL    HW211930   1.445   6.578   3.903 -0.2542  0.8918 -1.6384
 3572SOL     OW11931   0.270   5.227   3.909  0.2053  0.1692 -0.1015
 3572SOL    HW111932   0.197   5.211   3.968  1.7221 -0.4575  1.6908
 3572SOL    HW211933   0.265   5.155   3.845 -0.1132 -0.4949  0.6528
 3573SOL     OW11934   0.969   5.958   4.610 -0.2410 -0.2689  0.3218
 3573SOL    HW111935   0.932   5.992   4.529  1.1761  0.5316 -0.0209
 3573SOL    HW211936   1.059   5.935   4.587 -0.5722 -2.4874  1.0355
 3574SOL     OW11937   0.504   6.661   4.582 -0.0010 -0.0483  0.9547
 3574SOL    HW111938   0.512   6.627   4.493 -1.4261  0.1366  0.7312
 3574SOL    HW211939   0.594   6.683   4.607  0.3993  0.1191 -0.5141
 3575SOL     OW11940   1.213   7.348   4.426  0.0728 -0.0958 -0.2459
 3575SOL    HW111941   1.153   7.342   4.500 -0.5222 -0.1556 -0.7339
 3575SOL    HW211942   1.294   7.308   4.458 -0.7605 -1.8290 -0.2302
 3576SOL     OW11943   0.015   6.737   4.345  0.1110 -0.1222 -0.3435
 3576SOL    HW111944  -0.056   6.764   4.405  0.0090 -1.5479  0.2121
 3576SOL    HW211945   0.093   6.780   4.380 -0.0799 -0.3534  0.3833
 3577SOL     OW11946   1.391   7.694   4.597 -0.1712  0.2745 -0.1948
 3577SOL    HW111947   1.428   7.612   4.630 -1.3925  0.0517  0.6763
 3577SOL    HW211948   1.368   7.744   4.675 -2.3900  0.0730 -0.6518
 3578SOL     OW11949   1.164   6.446   3.945  0.1041 -0.3745  0.3497
 3578SOL    HW111950   1.088   6.486   3.904 -0.2691  0.5651  1.8469
 3578SOL    HW211951   1.214   6.521   3.980  1.1891 -1.0313  0.2564
 3579SOL     OW11952   8.849   6.970   5.251 -0.4410 -0.1121  0.0863
 3579SOL    HW111953   8.880   6.984   5.340  1.7672 -1.3294 -0.4392
 3579SOL    HW211954   8.794   6.892   5.256 -0.3590 -0.1488  0.3760
 3580SOL     OW11955   0.449   5.710   4.729 -0.0688  0.4141  0.3143
 3580SOL    HW111956   0.427   5.746   4.815  1.8881  0.9471  0.6277
 3580SOL    HW211957   0.442   5.785   4.669 -1.6181  0.0025 -0.0622
 3581SOL     OW11958   0.326   5.924   3.997  0.1023 -0.1904 -1.1100
 3581SOL    HW111959   0.272   5.973   3.935 -0.5525  0.8315  0.2193
 3581SOL    HW211960   0.396   5.984   4.022 -0.6219  0.0909  0.4129
 3582SOL     OW11961   0.979   5.772   4.809  0.2987 -0.2218 -0.1193
 3582SOL    HW111962   1.044   5.713   4.771  1.1060  0.1829  0.5979
 3582SOL    HW211963   0.937   5.813   4.733  1.5851  0.2543 -0.5956
 3583SOL     OW11964   1.213   7.226   4.657  0.1975  0.1100 -0.2904
 3583SOL    HW111965   1.285   7.172   4.625  3.1466  3.4971  0.0682
 3583SOL    HW211966   1.225   7.228   4.752 -0.2462  0.8956 -0.2506
 3584SOL     OW11967   1.016   6.441   4.817 -0.2150 -0.4191 -0.2996
 3584SOL    HW111968   1.101   6.405   4.843 -0.1648 -0.5466 -0.6373
 3584SOL    HW211969   0.960   6.365   4.804 -0.4846 -0.3231  0.2661
 3585SOL     OW11970   1.831   6.159   4.194  0.1583 -1.0439  0.5256
 3585SOL    HW111971   1.855   6.130   4.282  1.2714 -1.1441  0.2097
 3585SOL    HW211972   1.907   6.210   4.164 -0.1073 -1.1983 -0.4483
 3586SOL     OW11973   0.593   7.229   3.570  0.0679  0.0322 -0.2452
 3586SOL    HW111974   0.499   7.246   3.565 -0.1497  0.0406  2.4018
 3586SOL    HW211975   0.600   7.139   3.601  0.8898  0.3216  0.4571
 3587SOL     OW11976   1.844   6.912   4.240  0.2181  0.1216 -0.6437
 3587SOL    HW111977   1.896   6.989   4.220 -0.1089  0.0882 -1.6594
 3587SOL    HW211978   1.810   6.882   4.155 -1.8017  0.3930  0.0048
 3588SOL     OW11979   1.180   6.318   3.698 -0.4337  0.0364 -0.3800
 3588SOL    HW111980   1.138   6.346   3.780 -1.1300 -2.4677  0.2042
 3588SOL    HW211981   1.205   6.400   3.655 -2.1952  1.5157  1.2140
 3589SOL     OW11982   0.506   5.656   3.779 -0.0560 -0.2663 -0.2005
 3589SOL    HW111983   0.426   5.698   3.749 -0.0768 -0.1158  0.0663
 3589SOL    HW211984   0.481   5.565   3.796  0.1650 -0.6027 -1.5303
 3590SOL     OW11985   1.741   7.088   5.347 -0.2724 -0.5505  0.3456
 3590SOL    HW111986   1.693   7.080   5.430 -0.8877  1.0141  0.1815
 3590SOL    HW211987   1.678   7.060   5.280 -0.0748 -0.9751  0.3383
 3591SOL     OW11988   0.984   7.078   4.969  0.7011 -0.6492 -0.5044
 3591SOL    HW111989   0.897   7.112   4.988  1.0668  0.1775 -0.2610
 3591SOL    HW211990   0.968   6.991   4.932 -0.1855 -0.8096  0.2197
 3592SOL     OW11991   1.684   7.367   5.220 -0.8654  0.3899  0.1315
 3592SOL    HW111992   1.593   7.365   5.250 -0.8820  0.9076  0.1275
 3592SOL    HW211993   1.735   7.387   5.299 -0.7892  0.4575  0.0661
 3593SOL     OW11994   0.914   6.831   4.922 -0.0037  0.0585  0.2381
 3593SOL    HW111995   0.841   6.785   4.964 -0.5567  1.0787  0.4351
 3593SOL    HW211996   0.878   6.863   4.840 -0.3219  2.0557  1.1114
 3594SOL     OW11997   1.386   6.797   4.752  0.3564 -0.3820  0.2776
 3594SOL    HW111998   1.332   6.785   4.830 -0.8671 -0.4588 -0.5514
 3594SOL    HW211999   1.352   6.733   4.689  0.9696  0.0336 -0.5041
 3595SOL     OW12000   0.843   5.458   4.945 -0.1453  0.2206 -0.0896
 3595SOL    HW112001   0.822   5.550   4.964 -1.7993 -0.6474  2.8062
 3595SOL    HW212002   0.913   5.436   5.007 -1.5619 -1.1244  1.1046
 3596SOL     OW12003   1.041   6.636   5.483 -0.2501 -0.0738  0.2371
 3596SOL    HW112004   1.114   6.697   5.492 -1.5501  1.4878  0.6166
 3596SOL    HW212005   0.986   6.653   5.560 -0.6058 -1.8198  0.4156
 3597SOL     OW12006   0.908   6.854   4.053  0.0880  0.3994  0.4140
 3597SOL    HW112007   0.940   6.940   4.082  0.5452  1.1011 -1.9650
 3597SOL    HW212008   0.957   6.791   4.106  1.7553  1.5552  0.3256
 3598SOL     OW12009   0.128   6.414   4.590 -0.2430 -0.0729  0.2939
 3598SOL    HW112010   0.081   6.331   4.583 -0.2569 -0.0085 -0.4762
 3598SOL    HW212011   0.125   6.451   4.501 -2.5106  1.9864  1.1114
 3599SOL     OW12012   0.812   6.435   5.476 -0.1236 -0.0142  0.7045
 3599SOL    HW112013   0.891   6.487   5.458 -0.4181 -0.0542 -0.8334
 3599SOL    HW212014   0.818   6.414   5.569 -0.0719  2.8867  1.4541
 3600SOL     OW12015   0.016   7.085   4.996 -0.1764 -0.2003 -0.1340
 3600SOL    HW112016   0.012   7.051   5.085  1.5619 -1.3136 -0.4417
 3600SOL    HW212017   0.092   7.042   4.957  1.1735  2.7917 -1.1037
 3601SOL     OW12018   0.257   6.824   3.796  0.2268 -0.1313 -0.6394
 3601SOL    HW112019   0.218   6.909   3.817 -1.5578 -1.2472  0.9395
 3601SOL    HW212020   0.196   6.785   3.733 -0.1015 -1.0352  0.2105
 3602SOL     OW12021   0.175   6.325   4.915 -0.0635 -0.4376 -0.4361
 3602SOL    HW112022   0.165   6.405   4.864  2.3125 -0.5144 -1.1749
 3602SOL    HW212023   0.269   6.323   4.937 -0.5445 -1.7091  1.7784
 3603SOL     OW12024   1.381   7.109   4.508 -0.1846 -0.0695  0.4474
 3603SOL    HW112025   1.440   7.182   4.492 -0.2058  0.2942  1.8856
 3603SOL    HW212026   1.435   7.031   4.498 -0.2050  0.0929 -1.2932
 3604SOL     OW12027   1.116   7.316   4.937  0.0102 -0.3450  0.4827
 3604SOL    HW112028   1.051   7.245   4.935 -0.7229  0.3020  0.6015
 3604SOL    HW212029   1.113   7.349   5.026  1.7722 -1.4187  0.9730
 3605SOL     OW12030   1.921   5.758   4.152  0.1302  0.0227  0.5060
 3605SOL    HW112031   1.882   5.724   4.071 -0.8273 -0.4745  1.1522
 3605SOL    HW212032   1.865   5.723   4.222  1.6914 -0.6336  1.4768
 3606SOL     OW12033   0.102   7.413   4.822  0.0626 -0.1532  0.0675
 3606SOL    HW112034   0.098   7.325   4.786  2.3666 -0.0967 -0.4810
 3606SOL    HW212035   0.162   7.460   4.764 -0.6143  1.6086  0.7182
 3607SOL     OW12036   0.769   6.796   5.172 -0.2547 -0.4643  0.3487
 3607SOL    HW112037   0.718   6.727   5.215  1.1925 -1.0613  1.1644
 3607SOL    HW212038   0.715   6.874   5.182 -1.5268 -1.2883  0.1888
 3608SOL     OW12039   1.140   6.367   5.409  0.1980 -0.7492 -0.2175
 3608SOL    HW112040   1.123   6.459   5.386 -1.0376 -0.5188  1.4162
 3608SOL    HW212041   1.141   6.321   5.325 -1.4620  0.4148 -0.9243
 3609SOL     OW12042   0.856   5.560   5.662 -0.2253  0.0311 -0.6802
 3609SOL    HW112043   0.793   5.628   5.638 -0.7934 -0.0788  0.4644
 3609SOL    HW212044   0.810   5.504   5.723  0.3466 -1.2183 -1.3472
 3610SOL     OW12045   0.410   5.327   4.985 -0.4370 -0.5288  0.1642
 3610SOL    HW112046   0.330   5.359   5.026 -0.9129 -3.7945  2.1527
 3610SOL    HW212047   0.481   5.366   5.038 -0.8851 -0.7249  0.9271
 3611SOL     OW12048   0.348   6.490   4.749 -0.5637  0.5497  0.1066
 3611SOL    HW112049   0.380   6.565   4.699 -2.2378  0.3892 -1.2892
 3611SOL    HW212050   0.290   6.444   4.689 -1.9545 -0.1644  1.9077
 3612SOL     OW12051   1.166   6.632   4.690 -0.5035 -0.1634 -0.1085
 3612SOL    HW112052   1.095   6.597   4.744 -0.0524 -0.2936  0.4036
 3612SOL    HW212053   1.153   6.590   4.605 -0.9065 -0.3593  0.0428
 3613SOL     OW12054   1.631   6.345   4.090 -0.0435  0.8017 -0.2401
 3613SOL    HW112055   1.664   6.265   4.131 -0.6807  0.2119 -0.8657
 3613SOL    HW212056   1.564   6.316   4.029 -2.2314  2.0111  1.4397
 3614SOL     OW12057   0.039   6.165   4.575  0.0515 -0.1900  0.4060
 3614SOL    HW112058   0.045   6.129   4.486  0.4188 -0.2892  0.4679
 3614SOL    HW212059   0.113   6.125   4.621 -0.3663 -0.4447  0.8632
 3615SOL     OW12060   8.584   7.003   4.891  0.1269 -0.3242  0.5643
 3615SOL    HW112061   8.532   7.082   4.884  0.5639 -0.0170  0.7297
 3615SOL    HW212062   8.658   7.027   4.947 -0.0179 -0.9954  1.0633
 3616SOL     OW12063   0.340   6.069   4.362 -0.6007  0.0081 -0.4343
 3616SOL    HW112064   0.378   6.053   4.276 -0.3364  1.8651 -0.7067
 3616SOL    HW212065   0.255   6.109   4.344 -0.4514  0.6085  0.1571
 3617SOL     OW12066   1.588   6.959   5.562 -0.1673  0.6252  0.1644
 3617SOL    HW112067   1.550   6.906   5.492  0.1316  1.4670 -0.6613
 3617SOL    HW212068   1.528   6.947   5.636  0.3792 -1.5589  0.3191
 3618SOL     OW12069   0.087   5.491   4.157  0.2767  0.3759  0.1675
 3618SOL    HW112070   0.143   5.537   4.220  0.1665  1.3439 -0.4229
 3618SOL    HW212071   0.007   5.543   4.154  0.5161  0.7055 -1.2161
 3619SOL     OW12072   1.556   6.026   4.042  0.1584 -0.0691 -0.3914
 3619SOL    HW112073   1.507   5.950   4.074  1.1543 -0.5107  0.0976
 3619SOL    HW212074   1.619   6.046   4.111 -1.7588  2.8401  0.7274
 3620SOL     OW12075   0.962   6.272   4.517  0.0571 -0.4046  0.1315
 3620SOL    HW112076   0.946   6.255   4.610  0.0891  0.4765  0.2988
 3620SOL    HW212077   0.877   6.259   4.475 -0.0360 -0.4529  0.3341
 3621SOL     OW12078   1.068   7.272   5.452 -0.2856  0.1327  0.1066
 3621SOL    HW112079   0.989   7.258   5.401  0.5014 -3.5178 -0.3822
 3621SOL    HW212080   1.040   7.268   5.543 -0.6143 -1.8600 -0.0585
 3622SOL     OW12081   1.650   7.236   5.638 -0.3735 -0.1808 -0.3136
 3622SOL    HW112082   1.567   7.283   5.642  0.5105  1.3576  1.7306
 3622SOL    HW212083   1.628   7.152   5.597 -2.8293  0.3414 -0.2211
 3623SOL     OW12084   0.867   6.704   5.720 -0.5381  0.2663 -0.0146
 3623SOL    HW112085   0.946   6.738   5.761 -0.4648  2.3769 -1.7113
 3623SOL    HW212086   0.797   6.761   5.752 -0.7666  0.6978 -1.1980
 3624SOL     OW12087   1.420   5.898   3.544 -0.1929  0.0447 -0.1873
 3624SOL    HW112088   1.448   5.930   3.458 -0.8083  0.5819 -0.1945
 3624SOL    HW212089   1.412   5.803   3.533  0.0944  0.0660 -0.6137
 3625SOL     OW12090   0.889   6.750   3.414  0.1411  0.5826  0.0603
 3625SOL    HW112091   0.840   6.669   3.428  1.4619 -0.4471 -0.8989
 3625SOL    HW212092   0.976   6.731   3.449  0.7524  1.2109 -1.0603
 3626SOL     OW12093   1.131   6.950   4.442 -0.2489  0.5590  0.0287
 3626SOL    HW112094   1.193   7.014   4.477  0.9902 -0.9424  0.6905
 3626SOL    HW212095   1.116   6.889   4.514  0.6354 -1.3637 -1.3326
 3627SOL     OW12096   0.191   6.590   5.143  0.0026  0.0332  0.1536
 3627SOL    HW112097   0.276   6.580   5.100  0.8303 -0.1034  1.7431
 3627SOL    HW212098   0.152   6.502   5.140 -0.1190  0.1042 -0.6088
 3628SOL     OW12099   0.214   6.264   5.239 -0.4180 -0.2737  0.0557
 3628SOL    HW112100   0.177   6.330   5.297  0.3165  0.2731 -0.0746
 3628SOL    HW212101   0.162   6.185   5.255 -1.4460  0.3996  0.0461
 3629SOL     OW12102   1.327   6.166   5.653 -0.0860  0.4485 -0.0037
 3629SOL    HW112103   1.411   6.210   5.661  0.5285 -0.5532 -0.7447
 3629SOL    HW212104   1.334   6.089   5.710  0.1337 -0.5315 -1.3081
 3630SOL     OW12105   0.966   6.001   5.683  0.1145 -0.0629  0.1397
 3630SOL    HW112106   1.021   6.079   5.682 -0.4611  0.3988  1.5481
 3630SOL    HW212107   1.016   5.936   5.733  0.9672 -0.9279 -1.7533
 3631SOL     OW12108   8.479   6.671   4.037  0.0315  0.2237 -1.2486
 3631SOL    HW112109   8.487   6.745   4.097 -0.7252 -0.0121 -0.8473
 3631SOL    HW212110   8.557   6.619   4.052 -0.2222  0.0946 -0.3654
 3632SOL     OW12111   0.280   7.432   4.601  0.1950 -0.7894 -0.4039
 3632SOL    HW112112   0.348   7.367   4.581  0.4492 -0.3615 -0.9840
 3632SOL    HW212113   0.328   7.515   4.605 -0.2364 -0.5407 -0.4054
 3633SOL     OW12114   0.494   7.251   4.538 -0.2251  0.1969 -0.5657
 3633SOL    HW112115   0.512   7.243   4.445  0.2620 -1.0413 -0.3744
 3633SOL    HW212116   0.575   7.285   4.576  0.2589 -1.1576 -0.3346
 3634SOL     OW12117   0.884   6.186   4.789  0.0126  0.2149 -0.1493
 3634SOL    HW112118   0.833   6.158   4.865 -0.1524 -0.6044 -0.5490
 3634SOL    HW212119   0.913   6.105   4.748  1.3379  0.6616 -0.1500
 3635SOL     OW12120   8.518   6.222   4.999 -0.6969  0.1903 -0.7834
 3635SOL    HW112121   8.461   6.280   5.050  1.7097  1.0968  1.0839
 3635SOL    HW212122   8.599   6.272   4.987  1.6418 -2.7260  1.1874
 3636SOL     OW12123   0.425   6.454   5.350  0.1867  0.1219 -0.1405
 3636SOL    HW112124   0.386   6.535   5.383  1.7093 -0.4750  3.7353
 3636SOL    HW212125   0.512   6.481   5.318  0.2195  0.1830 -0.0008
 3637SOL     OW12126   1.310   6.613   5.320 -0.1213 -0.4816 -0.0678
 3637SOL    HW112127   1.308   6.581   5.230 -1.9562 -2.3439  0.5657
 3637SOL    HW212128   1.237   6.676   5.325  0.6886  0.4961 -0.1357
 3638SOL     OW12129   0.702   6.327   3.992 -0.2751 -0.1626 -0.9479
 3638SOL    HW112130   0.747   6.408   4.016 -1.5071  0.5635 -1.0105
 3638SOL    HW212131   0.770   6.260   3.997  0.6034  0.7454 -0.1759
 3639SOL     OW12132   1.456   6.377   4.659 -0.7532 -0.1627 -0.0782
 3639SOL    HW112133   1.384   6.367   4.722  0.1730 -1.3710  0.8304
 3639SOL    HW212134   1.524   6.423   4.707 -0.5482  0.1403 -0.6439
 3640SOL     OW12135   0.125   7.311   5.679 -0.6290 -0.3294  0.0609
 3640SOL    HW112136   0.203   7.260   5.700  0.5544  1.6660  0.7374
 3640SOL    HW212137   0.069   7.304   5.756  1.2356  2.3937  1.8492
 3641SOL     OW12138   0.948   6.108   5.378 -0.2295 -0.1179  0.3546
 3641SOL    HW112139   0.953   6.030   5.434 -0.6176  0.8820  1.8587
 3641SOL    HW212140   1.038   6.137   5.370 -0.0090 -1.0370 -0.7165
 3642SOL     OW12141   1.117   7.495   5.188 -0.2002  0.3190 -0.0288
 3642SOL    HW112142   1.033   7.511   5.230 -0.7023 -1.0790 -0.4444
 3642SOL    HW212143   1.166   7.577   5.199 -1.3924  0.9510  0.7150
 3643SOL     OW12144   0.598   6.148   3.624 -0.2638  0.7879 -0.7443
 3643SOL    HW112145   0.646   6.230   3.634 -0.6379  1.1240 -1.6060
 3643SOL    HW212146   0.576   6.122   3.713  2.1296  0.2364 -0.2485
 3644SOL     OW12147   8.777   7.267   5.370  0.5597 -0.1592 -0.6047
 3644SOL    HW112148   8.822   7.301   5.293  2.0788 -0.3775  0.1414
 3644SOL    HW212149   8.811   7.178   5.380 -0.1444 -0.3842 -0.0796
 3645SOL     OW12150   0.798   6.675   4.622 -0.0420 -0.1621 -0.0901
 3645SOL    HW112151   0.846   6.632   4.692  2.4342  0.0946 -1.5018
 3645SOL    HW212152   0.840   6.761   4.614 -0.1432 -0.2456 -1.9482
 3646SOL     OW12153   1.395   6.843   3.990  0.9778 -0.2427  0.0425
 3646SOL    HW112154   1.404   6.931   4.028 -1.8440  0.0028  0.3007
 3646SOL    HW212155   1.356   6.790   4.059 -1.0358 -0.6611 -1.3432
 3647SOL     OW12156   1.595   7.132   4.987  0.0652  0.3541 -0.1060
 3647SOL    HW112157   1.599   7.055   4.930  3.2979  0.0106  0.3984
 3647SOL    HW212158   1.561   7.098   5.070  0.3065 -0.2538 -0.2536
 3648SOL     OW12159   1.410   7.784   5.129  0.6896  0.5381 -0.1855
 3648SOL    HW112160   1.420   7.782   5.224  0.1688  1.8592 -0.0789
 3648SOL    HW212161   1.473   7.720   5.097  1.3889  0.5957  1.0179
 3649SOL     OW12162   8.756   6.977   4.649  0.3583 -0.3446  0.2046
 3649SOL    HW112163   8.687   6.990   4.714 -0.3298 -0.8876 -0.4011
 3649SOL    HW212164   8.709   6.968   4.566  1.2731  1.5019 -0.5743
 3650SOL     OW12165   0.634   7.005   5.249 -0.6372 -0.8608 -0.2516
 3650SOL    HW112166   0.647   7.078   5.188  0.1429  0.4377  1.4070
 3650SOL    HW212167   0.540   7.004   5.266 -0.9679 -1.6248 -1.8667
 3651SOL     OW12168   1.758   5.666   3.938  0.6618  0.4291 -0.5585
 3651SOL    HW112169   1.686   5.678   3.876 -0.6416  1.5451  1.0721
 3651SOL    HW212170   1.726   5.601   4.000  0.6868  1.5232  0.6490
 3652SOL     OW12171   1.473   7.444   4.156 -0.0355  0.3769 -0.5587
 3652SOL    HW112172   1.500   7.413   4.070 -0.0726 -0.9307 -0.1209
 3652SOL    HW212173   1.420   7.522   4.138  0.1173  0.2339 -1.7038
 3653SOL     OW12174   0.462   7.186   5.900 -0.2795  0.5441 -0.1194
 3653SOL    HW112175   0.498   7.195   5.812  1.0562 -1.6305  0.1433
 3653SOL    HW212176   0.369   7.169   5.885  0.0466 -0.5003 -1.1803
 3654SOL     OW12177   0.838   6.544   4.373  0.8907 -0.0407 -0.7354
 3654SOL    HW112178   0.817   6.614   4.435  1.4256  0.8352 -1.5041
 3654SOL    HW212179   0.917   6.503   4.408  0.2278 -0.6787  0.0410
 3655SOL     OW12180   0.723   7.198   5.053 -0.1449 -0.0413  0.5070
 3655SOL    HW112181   0.687   7.268   4.998 -2.0126 -0.7717  0.7289
 3655SOL    HW212182   0.749   7.242   5.134  0.7745  0.7221 -0.1822
 3656SOL     OW12183   0.737   7.440   3.684  0.1788 -0.2783 -0.0397
 3656SOL    HW112184   0.794   7.463   3.611  1.9360 -0.8006  1.0952
 3656SOL    HW212185   0.677   7.375   3.648  3.3243 -3.3208 -0.3173
 3657SOL     OW12186   1.404   7.753   5.406 -0.5008  0.4792 -0.4102
 3657SOL    HW112187   1.462   7.678   5.423 -1.4352 -0.4253 -1.0711
 3657SOL    HW212188   1.422   7.813   5.478  1.8122  0.6093 -1.0071
 3658SOL     OW12189   1.507   5.980   4.610 -0.2391  0.2756 -0.1193
 3658SOL    HW112190   1.418   5.977   4.646 -0.6901 -0.0916 -1.2324
 3658SOL    HW212191   1.520   5.894   4.571  0.8968  0.0647  0.6684
 3659SOL     OW12192   0.341   5.856   4.513 -0.4536 -0.0294 -0.4998
 3659SOL    HW112193   0.267   5.876   4.570 -0.6251  1.5158 -1.2140
 3659SOL    HW212194   0.356   5.937   4.463  2.1603 -0.0170  0.1320
 3660SOL     OW12195   1.070   7.127   3.525  0.4227  0.0749 -0.1315
 3660SOL    HW112196   1.005   7.062   3.551 -0.1002  0.2042 -1.0670
 3660SOL    HW212197   1.140   7.118   3.590 -0.8263  0.4174  1.3194
 3661SOL     OW12198   0.719   6.611   4.894  0.8594 -0.2748  0.0989
 3661SOL    HW112199   0.737   6.539   4.955 -1.5277 -0.0230  1.2131
 3661SOL    HW212200   0.681   6.568   4.817 -1.1478 -0.2336  1.0129
 3662SOL     OW12201   1.077   6.676   4.187 -0.5705 -0.0979  0.3374
 3662SOL    HW112202   1.090   6.582   4.197 -1.3354 -0.1549  0.9317
 3662SOL    HW212203   1.114   6.714   4.267  0.6679  0.2084 -0.3643
 3663SOL     OW12204   1.330   7.315   3.761  0.2867 -0.2352 -0.3838
 3663SOL    HW112205   1.263   7.275   3.816  0.8715 -0.3320  0.2637
 3663SOL    HW212206   1.284   7.337   3.680  0.0504 -2.7274 -1.0153
 3664SOL     OW12207   0.384   7.064   4.994 -0.0355  0.4462 -0.7734
 3664SOL    HW112208   0.382   7.047   4.900 -1.1425 -2.5826 -0.3351
 3664SOL    HW212209   0.433   6.990   5.030 -2.7133 -0.5425  1.2538
 3665SOL     OW12210   1.110   6.963   5.178 -0.0877  0.9350 -0.3746
 3665SOL    HW112211   1.067   6.995   5.099 -1.3280  3.3360  1.1515
 3665SOL    HW212212   1.105   6.868   5.172 -2.1391  1.0839 -2.1207
 3666SOL     OW12213   1.005   7.050   4.231 -0.2473  0.2528 -0.8738
 3666SOL    HW112214   1.059   7.121   4.197  0.3362  0.6477  0.7440
 3666SOL    HW212215   1.054   7.018   4.307 -1.8993  0.1174  0.1957
 3667SOL     OW12216   0.753   6.183   4.326  0.2323  0.3989 -0.9571
 3667SOL    HW112217   0.700   6.201   4.248 -2.4885 -1.7141  0.2481
 3667SOL    HW212218   0.795   6.099   4.307  1.2722  0.9059 -0.9398
 3668SOL     OW12219   0.664   7.120   4.068  0.3692 -0.0432 -0.2054
 3668SOL    HW112220   0.585   7.086   4.026  1.2972 -0.1444 -1.9712
 3668SOL    HW212221   0.645   7.116   4.162 -2.1508  1.0161 -0.5870
 3669SOL     OW12222   2.157   5.960   5.318  0.2352  0.2802  0.6898
 3669SOL    HW112223   2.242   5.950   5.360 -0.2201 -1.2758  1.3279
 3669SOL    HW212224   2.106   6.013   5.379  0.1441 -0.4420  1.2520
 3670SOL     OW12225   8.764   6.851   3.908 -0.7942  0.2999  0.2301
 3670SOL    HW112226   8.774   6.761   3.940  0.0875  0.4755  0.4686
 3670SOL    HW212227   8.707   6.843   3.832  1.6337 -0.8719 -1.5937
 3671SOL     OW12228   0.089   6.323   5.716  0.2722  0.4112 -0.7917
 3671SOL    HW112229   0.050   6.241   5.747  0.9702 -0.2312 -1.5426
 3671SOL    HW212230   0.142   6.354   5.790  0.1566  0.0797 -0.5672
 3672SOL     OW12231   0.712   5.747   5.113  0.3163 -0.1885 -0.0350
 3672SOL    HW112232   0.775   5.815   5.087 -1.0183  0.5379 -1.5247
 3672SOL    HW212233   0.736   5.726   5.203  2.3662  0.4168 -0.3816
 3673SOL     OW12234   0.088   5.663   3.879 -0.1226  0.3763 -0.5545
 3673SOL    HW112235   0.107   5.733   3.816 -0.7020  0.4612 -0.6430
 3673SOL    HW212236   0.109   5.701   3.964 -0.2649  0.5962 -0.6167
 3674SOL     OW12237   1.221   6.741   4.951 -0.4271  0.4277  0.3617
 3674SOL    HW112238   1.163   6.702   4.885 -3.1404  3.0693  0.9850
 3674SOL    HW212239   1.176   6.726   5.034  0.3824  1.5141  1.0217
 3675SOL     OW12240   8.832   5.402   3.845 -0.3104  0.0929 -0.4280
 3675SOL    HW112241   8.863   5.481   3.888  1.9511  0.3395 -2.2830
 3675SOL    HW212242   8.791   5.350   3.914  0.2342  1.8599  1.2857
 3676SOL     OW12243   1.418   7.084   4.152  0.0562 -0.3709 -0.9134
 3676SOL    HW112244   1.331   7.117   4.175  0.3511  1.4683 -2.1945
 3676SOL    HW212245   1.476   7.120   4.219 -0.1174 -1.4903 -0.1342
 3677SOL     OW12246   0.708   6.517   5.238 -0.0593  0.8016 -0.9946
 3677SOL    HW112247   0.755   6.489   5.316 -1.5257 -1.1781 -0.7704
 3677SOL    HW212248   0.739   6.458   5.169 -1.4061  0.1419 -1.0648
 3678SOL     OW12249   1.547   7.461   4.675 -0.1063 -0.5491 -0.3940
 3678SOL    HW112250   1.513   7.412   4.750 -0.9944 -0.8554 -0.9846
 3678SOL    HW212251   1.640   7.473   4.695 -0.4689  0.0495  1.1192
 3679SOL     OW12252   0.272   5.911   5.941  0.1800  0.4629  0.2041
 3679SOL    HW112253   0.199   5.879   5.888  1.4348 -0.5794 -0.9796
 3679SOL    HW212254   0.300   5.834   5.991  0.7673  0.7370  0.3012
 3680SOL     OW12255   1.228   6.841   5.510 -0.2168  0.2590  0.0961
 3680SOL    HW112256   1.248   6.860   5.602  0.8927 -0.3677  0.0132
 3680SOL    HW212257   1.231   6.926   5.466  0.1392  0.4531  0.4937
 3681SOL     OW12258   0.502   7.187   5.618  0.5847 -0.6822 -0.4332
 3681SOL    HW112259   0.528   7.105   5.576 -0.5482 -0.8808 -0.8003
 3681SOL    HW212260   0.459   7.236   5.547 -0.1292 -0.4415  0.1540
 3682SOL     OW12261   1.743   6.793   4.595  0.0424  0.0956 -0.1304
 3682SOL    HW112262   1.760   6.730   4.525 -0.2639 -0.5321  0.3431
 3682SOL    HW212263   1.782   6.754   4.673 -1.4802 -0.2822  0.4954
 3683SOL     OW12264   1.157   6.025   3.815 -0.0334 -0.3831  0.4145
 3683SOL    HW112265   1.156   6.095   3.880  0.6973  0.6855 -0.6730
 3683SOL    HW212266   1.219   5.961   3.850  0.3236  0.1611  0.8015
 3684SOL     OW12267   0.201   6.610   4.131 -0.0452 -0.1801 -0.3669
 3684SOL    HW112268   0.107   6.620   4.122  0.0362  1.2629  0.2085
 3684SOL    HW212269   0.214   6.515   4.141 -1.4860 -0.3327  0.2497
 3685SOL     OW12270   1.755   5.993   5.560 -0.4320  0.0852  0.0252
 3685SOL    HW112271   1.680   6.016   5.506 -0.0725  0.4847 -0.3127
 3685SOL    HW212272   1.720   5.987   5.649 -0.5757  1.8308  0.1279
 3686SOL     OW12273   1.609   6.547   4.813  0.0163 -0.2997 -0.1871
 3686SOL    HW112274   1.698   6.568   4.786 -0.9956  0.9374 -2.8642
 3686SOL    HW212275   1.565   6.632   4.818 -1.1088 -0.9072  0.9066
 3687SOL     OW12276   0.756   6.831   3.821 -0.8054  0.5208 -0.3220
 3687SOL    HW112277   0.815   6.845   3.895 -2.1245 -1.1178  1.1172
 3687SOL    HW212278   0.669   6.845   3.857 -1.4375  0.6167 -1.8357
 3688SOL     OW12279   0.856   7.865   4.732  0.5691  0.3011  0.3867
 3688SOL    HW112280   0.948   7.855   4.709  0.0298 -1.9561 -1.0990
 3688SOL    HW212281   0.816   7.906   4.656 -0.1383 -1.4323 -0.2046
 3689SOL     OW12282   0.717   6.983   4.327  0.4945 -0.5766 -0.1540
 3689SOL    HW112283   0.800   6.998   4.280  0.5612 -0.9604 -0.1677
 3689SOL    HW212284   0.744   6.949   4.412  0.3462 -1.0979 -0.3100
 3690SOL     OW12285   0.770   6.611   4.077  0.3265  0.1121  1.0504
 3690SOL    HW112286   0.816   6.584   4.156  0.1248  0.8756  1.4455
 3690SOL    HW212287   0.807   6.697   4.056  0.9748 -0.4309 -0.1788
 3691SOL     OW12288   1.676   7.578   4.242  0.2111  0.6183 -0.2393
 3691SOL    HW112289   1.729   7.506   4.209 -0.4265  0.2390 -0.4415
 3691SOL    HW212290   1.587   7.559   4.213 -0.1063  1.0576  0.4086
 3692SOL     OW12291   0.495   6.510   5.712  0.0774 -0.6813  0.1557
 3692SOL    HW112292   0.476   6.565   5.789  0.6894 -1.2852  0.7495
 3692SOL    HW212293   0.410   6.494   5.672 -0.0522  1.4833 -0.5887
 3693SOL     OW12294   0.095   6.810   4.731 -0.1829 -0.1196 -0.1344
 3693SOL    HW112295   0.124   6.832   4.820 -1.4662 -1.7101  0.7216
 3693SOL    HW212296   0.011   6.854   4.721 -0.5046 -0.7417 -0.1948
 3694SOL     OW12297   0.649   6.931   5.583  0.2861  0.7937  0.1314
 3694SOL    HW112298   0.611   6.851   5.547 -2.8910  1.8985  0.7475
 3694SOL    HW212299   0.730   6.944   5.532 -0.6686 -1.1398 -2.0640
 3695SOL     OW12300   1.256   6.302   4.851 -0.5164  0.6865  0.2337
 3695SOL    HW112301   1.286   6.314   4.941  0.3970  2.0127 -0.2055
 3695SOL    HW212302   1.244   6.208   4.842  2.1799  0.1699  0.9124
 3696SOL     OW12303   0.133   5.816   4.157  0.0301  0.2451  0.2239
 3696SOL    HW112304   0.198   5.867   4.109 -1.2358  1.6609 -0.0509
 3696SOL    HW212305   0.057   5.874   4.164 -1.1751 -1.3136  0.6188
 3697SOL     OW12306   1.483   7.037   5.206 -0.6142  0.0060  0.1621
 3697SOL    HW112307   1.412   7.085   5.250 -0.9115 -0.6346  0.4032
 3697SOL    HW212308   1.482   6.951   5.248  0.1670 -0.0802  0.0094
 3698SOL     OW12309   0.416   6.558   5.010  0.3694 -0.4218  0.5208
 3698SOL    HW112310   0.420   6.544   4.916  1.9853  1.9793  0.1230
 3698SOL    HW212311   0.462   6.482   5.048  1.3829 -0.4972 -0.7822
 3699SOL     OW12312   0.558   7.274   4.288 -0.3653 -0.5714 -0.2620
 3699SOL    HW112313   0.476   7.297   4.246 -0.5863 -0.8016  0.0426
 3699SOL    HW212314   0.620   7.341   4.259 -1.0525  0.5491  0.7939
 3700SOL     OW12315   0.940   5.885   5.037 -0.1293  0.5003  0.0173
 3700SOL    HW112316   0.953   5.849   4.949  0.1932  0.0914  0.2258
 3700SOL    HW212317   1.026   5.878   5.078 -0.5901 -0.6336  0.8474
 3701SOL     OW12318   0.781   5.322   4.722 -0.4971 -0.0460  0.3702
 3701SOL    HW112319   0.826   5.382   4.662  0.3117  0.5892  1.5590
 3701SOL    HW212320   0.787   5.365   4.808  1.6815 -2.5303  1.6452
 3702SOL     OW12321   0.862   7.301   4.258 -0.4983 -0.0624  0.1391
 3702SOL    HW112322   0.896   7.223   4.215 -1.0677 -0.5063  0.4807
 3702SOL    HW212323   0.817   7.268   4.337  1.9109  0.8344  2.0082
 3703SOL     OW12324   0.901   7.601   5.300  0.1733 -0.2988  0.0087
 3703SOL    HW112325   0.937   7.620   5.387  0.3688  1.4094 -0.4134
 3703SOL    HW212326   0.861   7.683   5.272  0.4033 -0.7167 -1.6593
 3704SOL     OW12327   1.432   5.728   4.191 -0.2699 -0.2990 -0.0428
 3704SOL    HW112328   1.484   5.668   4.138  0.8687  0.6794 -0.0750
 3704SOL    HW212329   1.380   5.776   4.127  2.3347  2.0806 -0.5821
 3705SOL     OW12330   1.192   6.208   4.085  0.1702 -0.2343  0.3598
 3705SOL    HW112331   1.273   6.228   4.132  0.5728 -0.3891 -0.2464
 3705SOL    HW212332   1.172   6.288   4.037 -0.6638  0.1868  1.3704
 3706SOL     OW12333   1.185   5.599   4.639 -0.1114 -0.6344  0.4125
 3706SOL    HW112334   1.186   5.529   4.574  1.4053 -1.4027  1.1924
 3706SOL    HW212335   1.214   5.677   4.591 -0.0392 -0.9540 -0.0668
 3707SOL     OW12336   8.771   6.565   4.020  0.2993 -0.4408  0.0254
 3707SOL    HW112337   8.759   6.521   3.936  1.7136  0.6081 -0.7799
 3707SOL    HW212338   8.766   6.495   4.085 -0.8322 -1.2750 -0.9186
 3708SOL     OW12339   0.850   7.285   3.928  0.1927 -0.2454  0.2303
 3708SOL    HW112340   0.787   7.222   3.963  0.4487 -2.0611 -2.2753
 3708SOL    HW212341   0.805   7.324   3.852  0.1707  2.4718  1.5196
 3709SOL     OW12342   0.294   6.645   6.032  0.4565  0.4018 -0.1618
 3709SOL    HW112343   0.322   6.638   6.123  1.3513  3.4562 -0.0953
 3709SOL    HW212344   0.370   6.680   5.986 -0.5375  0.5855 -1.7371
 3710SOL     OW12345   0.361   5.468   6.275  0.3726  0.0965 -0.8349
 3710SOL    HW112346   0.353   5.530   6.348 -0.2720 -1.7484  0.7274
 3710SOL    HW212347   0.450   5.433   6.283 -0.0692 -0.9202 -0.2291
 3711SOL     OW12348   8.750   6.303   6.543 -0.7299 -0.0794 -0.2634
 3711SOL    HW112349   8.718   6.223   6.584 -0.9092  0.1441  0.0318
 3711SOL    HW212350   8.767   6.278   6.452  0.2200 -0.7285  0.0760
 3712SOL     OW12351   0.577   6.907   7.018  0.3002  0.1116  0.3974
 3712SOL    HW112352   0.498   6.958   6.999  1.2662  1.6224  0.3505
 3712SOL    HW212353   0.583   6.844   6.946  0.0516  1.0971 -0.5017
 3713SOL     OW12354   1.596   7.141   6.847  0.0794  0.0156 -0.1200
 3713SOL    HW112355   1.571   7.049   6.859  1.2717 -0.4557 -0.9913
 3713SOL    HW212356   1.658   7.139   6.774 -0.9545  1.7080 -1.0965
 3714SOL     OW12357   1.261   6.234   6.686 -0.4452  0.1686  0.5895
 3714SOL    HW112358   1.327   6.217   6.754 -0.8855  0.3477  1.0690
 3714SOL    HW212359   1.311   6.271   6.613 -0.0040  0.2541  0.9282
 3715SOL     OW12360   1.848   6.581   5.839  0.2036  0.4639 -0.0189
 3715SOL    HW112361   1.782   6.548   5.777  1.6423 -2.4623 -0.1668
 3715SOL    HW212362   1.914   6.622   5.783 -0.1646  0.9860 -0.0850
 3716SOL     OW12363   0.926   7.147   7.027 -0.1224  0.5467 -1.0172
 3716SOL    HW112364   0.944   7.057   7.000 -1.4130  0.2607 -1.0114
 3716SOL    HW212365   0.989   7.165   7.096 -0.3474 -0.6184 -0.4928
 3717SOL     OW12366   0.809   6.334   7.173 -0.4811 -0.2739 -0.4803
 3717SOL    HW112367   0.877   6.323   7.240 -0.4315 -0.3120 -0.5367
 3717SOL    HW212368   0.837   6.277   7.101 -0.6148 -0.3514 -0.4713
 3718SOL     OW12369   0.915   6.464   6.381 -0.0132 -0.2703  0.4983
 3718SOL    HW112370   0.994   6.513   6.402 -0.1175  0.0450  0.1594
 3718SOL    HW212371   0.849   6.495   6.443  0.1115 -0.4835  0.7356
 3719SOL     OW12372   0.988   6.771   7.627  0.4457  0.1387  1.1994
 3719SOL    HW112373   0.958   6.843   7.572  1.2987 -0.1870  0.2613
 3719SOL    HW212374   1.008   6.811   7.712  1.2971  1.0874  0.5716
 3720SOL     OW12375   0.317   7.002   6.928  0.2129 -0.2748  0.1640
 3720SOL    HW112376   0.231   6.976   6.962 -0.3736  0.7125 -0.4704
 3720SOL    HW212377   0.318   6.968   6.839  0.7410 -0.8059  0.3725
 3721SOL     OW12378   1.564   7.019   7.312  0.1635 -0.4866  0.1353
 3721SOL    HW112379   1.652   7.011   7.349 -0.5897 -1.5614  1.8443
 3721SOL    HW212380   1.507   6.977   7.377 -1.4699 -0.9823 -1.5255
 3722SOL     OW12381   8.683   5.680   6.675 -0.3805 -0.0394 -0.1215
 3722SOL    HW112382   8.740   5.757   6.685 -1.0141  1.0311 -3.5472
 3722SOL    HW212383   8.639   5.673   6.760 -0.8525  3.8851  0.1855
 3723SOL     OW12384   1.478   5.819   6.447 -0.0935  0.0546  0.0423
 3723SOL    HW112385   1.426   5.822   6.366 -1.6293 -0.6133  0.9501
 3723SOL    HW212386   1.413   5.826   6.517  1.2317  0.9959  1.2418
 3724SOL     OW12387   0.450   7.213   6.550  0.0002  0.5211  0.0328
 3724SOL    HW112388   0.429   7.121   6.535  0.2047  0.4171  0.3802
 3724SOL    HW212389   0.370   7.251   6.588  0.4103  0.1307  1.3397
 3725SOL     OW12390   1.462   6.560   7.655 -0.0381  0.4912  0.2502
 3725SOL    HW112391   1.496   6.525   7.738  0.4849  0.6193  0.0962
 3725SOL    HW212392   1.473   6.488   7.593 -1.3148  0.0671  0.5012
 3726SOL     OW12393   0.441   7.340   6.301 -0.5386 -0.1203  0.1809
 3726SOL    HW112394   0.452   7.428   6.337 -1.2186  0.2200 -0.4303
 3726SOL    HW212395   0.470   7.282   6.372  3.2232  0.6119 -0.5494
 3727SOL     OW12396   0.265   6.953   6.660 -0.1653  0.1983 -0.1495
 3727SOL    HW112397   0.299   6.926   6.575  0.5586 -0.4025  0.3193
 3727SOL    HW212398   0.175   6.981   6.642  0.6733  2.3098 -1.5114
 3728SOL     OW12399   0.479   7.502   7.111  0.1257 -0.1555 -0.8016
 3728SOL    HW112400   0.444   7.428   7.062  0.7286 -0.1537 -1.2454
 3728SOL    HW212401   0.454   7.484   7.202 -0.7933 -0.2726 -1.0640
 3729SOL     OW12402   1.117   6.402   5.965 -0.5127 -0.7491  0.0500
 3729SOL    HW112403   1.036   6.351   5.968 -2.6062  2.4053  1.4610
 3729SOL    HW212404   1.123   6.433   5.874 -0.2997 -1.7758 -0.3032
 3730SOL     OW12405   1.096   5.460   7.218 -0.8093  0.0382  0.4206
 3730SOL    HW112406   1.151   5.535   7.237 -0.4134 -0.1675  0.0976
 3730SOL    HW212407   1.148   5.407   7.158 -1.2572 -0.2814  0.3132
 3731SOL     OW12408   0.082   6.159   6.345 -0.2007 -0.4982  0.3903
 3731SOL    HW112409   0.063   6.067   6.326 -1.0628 -0.2226 -0.1252
 3731SOL    HW212410   0.176   6.161   6.359 -0.3234 -1.6578  1.5530
 3732SOL     OW12411   1.714   7.518   5.928  0.5781 -0.2784  0.2640
 3732SOL    HW112412   1.688   7.426   5.924  0.3904 -0.1833 -2.6187
 3732SOL    HW212413   1.777   7.522   6.001 -1.6057 -2.0118  2.4312
 3733SOL     OW12414   0.259   7.548   5.790 -0.1353  0.0231  0.3088
 3733SOL    HW112415   0.230   7.486   5.724 -0.0912  0.8618 -0.5168
 3733SOL    HW212416   0.179   7.584   5.827 -0.1842  1.4445 -1.1159
 3734SOL     OW12417   1.741   6.377   6.523  0.0082  0.0282 -0.1091
 3734SOL    HW112418   1.806   6.308   6.515  1.3288  0.8865  2.1848
 3734SOL    HW212419   1.762   6.440   6.454  1.7489  0.3597  0.6794
 3735SOL     OW12420   1.901   6.591   6.091 -0.5007 -0.3938  0.3565
 3735SOL    HW112421   1.877   6.598   5.998  2.4730 -1.5755 -0.6434
 3735SOL    HW212422   1.935   6.678   6.113 -1.3609 -0.0629  0.4267
 3736SOL     OW12423   0.035   6.458   7.332 -0.4274  0.2400 -0.6842
 3736SOL    HW112424   0.063   6.392   7.395  0.4781  1.3939  0.1882
 3736SOL    HW212425  -0.058   6.472   7.350 -0.1874  0.5336  0.4063
 3737SOL     OW12426   0.803   6.749   6.304  0.0433 -0.0350 -0.0064
 3737SOL    HW112427   0.811   6.676   6.242  2.0468  0.1254 -0.0105
 3737SOL    HW212428   0.806   6.827   6.250  0.4233  0.0831  0.1825
 3738SOL     OW12429   1.197   6.805   7.054  0.0991  0.6444 -0.4783
 3738SOL    HW112430   1.240   6.883   7.021  0.7223  0.9051  0.8819
 3738SOL    HW212431   1.238   6.788   7.138 -2.5849  1.0476  1.0364
 3739SOL     OW12432   0.845   5.578   6.115 -0.1835 -0.3802  0.1442
 3739SOL    HW112433   0.833   5.624   6.199  0.8581 -0.2112  0.2168
 3739SOL    HW212434   0.767   5.600   6.064 -0.9813 -0.7287  1.1765
 3740SOL     OW12435   0.112   6.460   7.089 -0.0736 -0.0594  0.3452
 3740SOL    HW112436   0.030   6.506   7.074 -0.6757 -1.1954 -0.0067
 3740SOL    HW212437   0.120   6.454   7.184 -0.2435  0.3225  0.3840
 3741SOL     OW12438   1.377   6.960   5.746 -0.4523  0.0679  0.3272
 3741SOL    HW112439   1.374   7.040   5.799  0.3919 -1.4524  2.8275
 3741SOL    HW212440   1.411   6.893   5.805 -0.5008 -2.0314 -1.8664
 3742SOL     OW12441   1.213   7.323   7.625 -0.1574 -0.7990  0.0408
 3742SOL    HW112442   1.271   7.263   7.579  0.0137  0.0773 -0.9109
 3742SOL    HW212443   1.211   7.401   7.571  1.0433  0.7632  2.1207
 3743SOL     OW12444   0.500   5.929   7.362 -0.2096 -0.1009  0.2359
 3743SOL    HW112445   0.594   5.912   7.368 -0.3915 -0.9145  1.0026
 3743SOL    HW212446   0.493   6.004   7.303  0.8633 -0.5211 -0.4554
 3744SOL     OW12447   1.601   6.841   6.780  0.1922 -0.3246 -0.1688
 3744SOL    HW112448   1.541   6.784   6.733 -1.7913  0.6722  1.0524
 3744SOL    HW212449   1.616   6.797   6.864 -1.8885  1.1206  1.0656
 3745SOL     OW12450   1.920   8.073   6.061 -0.2370  0.5315  0.1114
 3745SOL    HW112451   1.884   8.016   5.993 -0.0652  0.5591 -0.0018
 3745SOL    HW212452   1.948   8.152   6.014  0.6189  0.2295  0.1017
 3746SOL     OW12453   0.845   6.295   6.007  0.3410 -0.2040 -0.1314
 3746SOL    HW112454   0.763   6.250   6.029  0.1142  0.3013  0.0934
 3746SOL    HW212455   0.836   6.317   5.914  0.8614 -1.4471 -0.4887
 3747SOL     OW12456   1.135   6.072   7.097 -0.6064 -0.5576 -0.3078
 3747SOL    HW112457   1.173   6.070   7.185 -0.4345 -1.8163 -0.4004
 3747SOL    HW212458   1.210   6.088   7.040 -0.5902 -0.5823 -0.2937
 3748SOL     OW12459   1.523   7.641   5.685  0.1262  0.0084  0.7006
 3748SOL    HW112460   1.455   7.594   5.732  0.6243 -0.5487  0.8802
 3748SOL    HW212461   1.551   7.710   5.745 -1.8698  1.7383 -0.2575
 3749SOL     OW12462   0.442   6.256   7.136 -0.0774 -0.2756  0.2970
 3749SOL    HW112463   0.370   6.196   7.118 -1.1217  1.3296 -1.2238
 3749SOL    HW212464   0.486   6.267   7.052  0.7875  0.2156  0.7982
 3750SOL     OW12465   1.533   5.971   7.428  0.7913 -0.4294  0.6044
 3750SOL    HW112466   1.589   6.004   7.498 -0.8923 -0.5443  2.0869
 3750SOL    HW212467   1.446   6.007   7.448  0.4362  0.3807 -2.0283
 3751SOL     OW12468   1.152   6.335   7.575  0.3172 -0.5468 -0.3689
 3751SOL    HW112469   1.234   6.335   7.525  0.0127 -0.8815 -0.8775
 3751SOL    HW212470   1.158   6.413   7.630  0.5613 -0.0381 -1.0961
 3752SOL     OW12471   0.904   6.198   6.958 -0.0656 -0.0783 -0.1887
 3752SOL    HW112472   0.983   6.146   6.973  2.2253  3.1132 -0.1697
 3752SOL    HW212473   0.923   6.247   6.878 -2.5108  0.0186 -0.7632
 3753SOL     OW12474   1.445   6.574   6.124  0.1575  0.3576  0.3131
 3753SOL    HW112475   1.405   6.487   6.136 -1.9306  1.2645  0.3905
 3753SOL    HW212476   1.520   6.575   6.184 -1.3353 -0.4748  2.2977
 3754SOL     OW12477   0.438   6.689   6.280  0.5071  0.8394  0.4129
 3754SOL    HW112478   0.406   6.777   6.299 -0.8262  0.0417  2.1748
 3754SOL    HW212479   0.413   6.637   6.357  2.2019 -0.8564 -0.0968
 3755SOL     OW12480   8.744   7.140   7.508 -0.5320 -0.4505 -0.6645
 3755SOL    HW112481   8.676   7.190   7.553 -0.0484  0.9989 -1.5071
 3755SOL    HW212482   8.756   7.184   7.424  1.4871 -0.6464 -0.5225
 3756SOL     OW12483   1.254   5.988   6.113 -0.2598 -0.2439  0.0780
 3756SOL    HW112484   1.185   6.032   6.162  0.0171  0.3783 -0.0849
 3756SOL    HW212485   1.276   5.911   6.166 -0.8054 -0.2365  0.3209
 3757SOL     OW12486   1.741   6.048   7.271 -0.2897 -0.0507 -0.3713
 3757SOL    HW112487   1.653   6.022   7.297 -0.5012  0.6164 -0.4154
 3757SOL    HW212488   1.771   5.978   7.214 -0.9841 -0.0331 -0.7627
 3758SOL     OW12489   1.218   7.148   6.251  0.1411 -0.0121  0.3133
 3758SOL    HW112490   1.140   7.165   6.303  0.9811 -0.4240  1.7733
 3758SOL    HW212491   1.283   7.118   6.315  1.3824 -0.0201 -0.9098
 3759SOL     OW12492   0.888   5.567   6.593 -0.4620 -0.3216 -0.2349
 3759SOL    HW112493   0.815   5.611   6.637  0.0281  0.0275  0.2351
 3759SOL    HW212494   0.951   5.636   6.576  0.4266 -0.8676  0.7355
 3760SOL     OW12495   1.009   7.263   6.404 -0.1175 -0.0155  0.7503
 3760SOL    HW112496   0.931   7.297   6.360 -0.3175 -0.0108  1.1073
 3760SOL    HW212497   0.981   7.245   6.494  0.1177 -0.6538  0.7028
 3761SOL     OW12498   0.436   7.577   6.748 -0.0498 -0.7655 -0.2201
 3761SOL    HW112499   0.369   7.608   6.688  0.8340  1.7693 -0.0352
 3761SOL    HW212500   0.480   7.657   6.778  0.8355 -2.0683  2.2757
 3762SOL     OW12501   1.813   6.879   6.631 -0.3918  0.0755  0.2404
 3762SOL    HW112502   1.885   6.856   6.691 -0.5682 -1.8391 -0.2224
 3762SOL    HW212503   1.734   6.867   6.684 -0.4291  2.6881  0.9104
 3763SOL     OW12504   1.211   7.233   7.162 -0.0997 -0.1315  0.0126
 3763SOL    HW112505   1.179   7.169   7.226  0.6233 -0.5843 -0.0548
 3763SOL    HW212506   1.209   7.317   7.208  1.2302 -0.5761  0.9631
 3764SOL     OW12507   0.557   6.694   5.929 -0.0561 -0.0957  0.4503
 3764SOL    HW112508   0.630   6.635   5.949  1.5046  0.8244 -2.0969
 3764SOL    HW212509   0.594   6.782   5.940  0.4930  0.4842 -4.2446
 3765SOL     OW12510   1.403   6.636   6.673 -0.2806 -0.5275 -0.1960
 3765SOL    HW112511   1.319   6.679   6.683 -0.0757 -0.1919  0.0602
 3765SOL    HW212512   1.394   6.585   6.592 -0.8648 -0.8185  0.0449
 3766SOL     OW12513   0.542   6.663   7.596  0.0532 -0.6122  0.4369
 3766SOL    HW112514   0.527   6.629   7.508 -0.5986 -0.5527  0.5161
 3766SOL    HW212515   0.617   6.614   7.628  2.2553  1.4253 -1.2412
 3767SOL     OW12516   1.249   7.669   6.138 -0.8166 -0.3685 -0.1935
 3767SOL    HW112517   1.320   7.720   6.099  0.8953 -2.2490  0.3112
 3767SOL    HW212518   1.192   7.647   6.064  0.4204 -0.8344 -1.0311
 3768SOL     OW12519   0.215   5.743   6.847 -0.3347  0.2712 -0.2375
 3768SOL    HW112520   0.302   5.736   6.886 -0.7145  0.8834  0.7484
 3768SOL    HW212521   0.164   5.675   6.891 -0.8188  1.0969  0.5002
 3769SOL     OW12522   1.416   7.192   5.909 -0.4683  0.4177 -0.5175
 3769SOL    HW112523   1.379   7.226   5.990 -0.2063  0.2656 -0.3352
 3769SOL    HW212524   1.510   7.201   5.920 -0.3327 -1.3474 -0.0224
 3770SOL     OW12525   0.146   7.520   6.189  0.6647  0.3100  1.0833
 3770SOL    HW112526   0.179   7.606   6.165 -0.7338  0.4296 -0.6371
 3770SOL    HW212527   0.149   7.519   6.285  1.0241  2.1391  1.1257
 3771SOL     OW12528   1.049   5.771   6.359  0.2419 -1.1132  0.5060
 3771SOL    HW112529   0.998   5.826   6.299  1.1417  0.2615  0.9548
 3771SOL    HW212530   0.985   5.712   6.397 -1.3142  1.2965  1.9290
 3772SOL     OW12531   0.069   6.890   7.041  0.0640  0.4006  0.0009
 3772SOL    HW112532   0.015   6.959   7.079 -0.7269 -0.5569  0.6810
 3772SOL    HW212533   0.140   6.877   7.105  0.1541  0.5054 -0.0769
 3773SOL     OW12534   0.905   7.239   6.771 -0.0675  0.1197  0.0293
 3773SOL    HW112535   0.856   7.300   6.825  0.1436  0.9438 -0.6891
 3773SOL    HW212536   0.903   7.157   6.820 -0.2462  0.7255  1.0770
 3774SOL     OW12537   0.347   6.173   6.279 -0.2475 -0.2974  0.2646
 3774SOL    HW112538   0.334   6.199   6.188 -2.6199  0.7379  0.8053
 3774SOL    HW212539   0.377   6.082   6.275  0.1618 -0.1155 -1.5323
 3775SOL     OW12540   1.239   5.943   7.490  0.4302 -0.0781 -0.0852
 3775SOL    HW112541   1.185   5.878   7.534  1.4662 -0.2803  0.9363
 3775SOL    HW212542   1.184   6.022   7.486 -1.2694 -1.2444 -2.3334
 3776SOL     OW12543   0.666   5.748   5.569 -0.3432  0.0732  0.3889
 3776SOL    HW112544   0.576   5.748   5.534 -0.6062  1.0843  1.0235
 3776SOL    HW212545   0.669   5.825   5.625  0.5454 -0.6687  1.3880
 3777SOL     OW12546   0.781   5.905   7.383 -0.1960  0.0224 -0.2995
 3777SOL    HW112547   0.853   5.941   7.434 -1.0220 -0.5982  1.3717
 3777SOL    HW212548   0.788   5.949   7.298  0.7862  1.6630  0.5742
 3778SOL     OW12549   0.730   7.007   7.197 -0.1886 -0.2009  0.3612
 3778SOL    HW112550   0.660   6.972   7.143 -0.3685  0.9370 -0.1677
 3778SOL    HW212551   0.783   7.060   7.137  0.2424  0.1905  1.0722
 3779SOL     OW12552   1.289   6.192   7.316 -0.1957 -0.0964 -0.6387
 3779SOL    HW112553   1.359   6.209   7.380 -1.1466  1.8526 -0.0397
 3779SOL    HW212554   1.318   6.236   7.237 -0.8359  0.9344 -0.3122
 3780SOL     OW12555   0.662   6.879   6.526  0.3745 -0.5735 -0.2709
 3780SOL    HW112556   0.704   6.964   6.513 -1.9374  0.7928  0.5650
 3780SOL    HW212557   0.702   6.822   6.461  1.6166  1.2909 -1.2225
 3781SOL     OW12558   0.947   6.270   6.680 -0.2748 -0.5003 -0.1754
 3781SOL    HW112559   0.918   6.202   6.619  0.2652 -0.2946 -0.6793
 3781SOL    HW212560   1.042   6.272   6.669 -0.3308  0.7266 -0.6145
 3782SOL     OW12561   0.537   5.407   6.032  0.2660  0.2575  0.4070
 3782SOL    HW112562   0.520   5.322   5.991  2.4644  0.1974 -0.4790
 3782SOL    HW212563   0.542   5.387   6.126 -1.8043 -0.0951  0.5048
 3783SOL     OW12564   1.389   6.531   5.596 -0.0593 -1.0210 -0.2233
 3783SOL    HW112565   1.394   6.437   5.583  0.8613 -0.8001 -1.7803
 3783SOL    HW212566   1.358   6.565   5.512  0.2621  0.1039  0.0955
 3784SOL     OW12567   0.464   5.507   5.694  0.5915 -0.8818 -0.0502
 3784SOL    HW112568   0.374   5.539   5.691  1.3092  1.3092 -1.1038
 3784SOL    HW212569   0.481   5.476   5.605  1.2341 -0.0887 -0.2183
 3785SOL     OW12570   0.827   5.934   6.198 -0.0166  0.2740  0.1596
 3785SOL    HW112571   0.793   5.925   6.109 -0.3693  0.1160  0.3086
 3785SOL    HW212572   0.792   6.017   6.229 -1.5893 -0.6115  0.8746
 3786SOL     OW12573   0.719   6.020   7.159  0.6812 -0.3944 -0.0044
 3786SOL    HW112574   0.629   6.019   7.125  0.5007  0.0949  0.4613
 3786SOL    HW212575   0.769   6.065   7.091  0.5147 -0.3732 -0.1154
 3787SOL     OW12576   1.556   7.158   6.451  0.0358 -0.5005  0.3146
 3787SOL    HW112577   1.564   7.141   6.545  0.4105 -0.1702  0.3475
 3787SOL    HW212578   1.625   7.222   6.433  0.1681 -0.7922 -0.2445
 3788SOL     OW12579   0.624   6.479   6.204 -0.1589 -0.7056 -0.0971
 3788SOL    HW112580   0.560   6.423   6.160  0.5410 -2.3437  0.8706
 3788SOL    HW212581   0.574   6.556   6.230 -0.7558  0.0404 -3.0687
 3789SOL     OW12582   1.626   7.530   6.588 -0.0655  0.2530  0.3995
 3789SOL    HW112583   1.566   7.568   6.652  0.1065 -0.3181  0.9080
 3789SOL    HW212584   1.676   7.604   6.555  0.5333  0.4292  1.6631
 3790SOL     OW12585   1.083   6.261   5.121  0.3968 -0.7026  0.2114
 3790SOL    HW112586   1.016   6.229   5.181  0.0703 -0.9106 -0.2607
 3790SOL    HW212587   1.144   6.188   5.111 -0.0731 -1.0133 -0.4651
 3791SOL     OW12588   8.715   5.995   7.172 -0.6687 -0.1870  0.6801
 3791SOL    HW112589   8.685   5.904   7.167  0.2793 -0.4746 -0.2158
 3791SOL    HW212590   8.803   5.989   7.209  0.4886  0.0631 -1.8221
 3792SOL     OW12591   0.481   5.961   7.045  0.3654  0.7088  0.0736
 3792SOL    HW112592   0.472   5.875   7.003  1.0047 -0.9433  3.0246
 3792SOL    HW212593   0.397   6.004   7.030 -0.3325 -0.8271 -0.6859
 3793SOL     OW12594   0.917   6.074   6.505  0.3341 -0.5860 -0.6600
 3793SOL    HW112595   0.977   6.085   6.431 -1.9685  0.0719 -2.5448
 3793SOL    HW212596   0.947   5.994   6.548  1.6480 -1.1191 -2.4327
 3794SOL     OW12597   0.813   5.166   6.152 -0.0704 -0.2441 -0.5436
 3794SOL    HW112598   0.756   5.124   6.217  0.0309  0.0918 -0.2349
 3794SOL    HW212599   0.780   5.134   6.068 -1.1206  0.4173 -0.4065
 3795SOL     OW12600   1.618   6.883   6.225 -0.1519 -0.0697  0.2752
 3795SOL    HW112601   1.676   6.810   6.245 -1.4401 -1.9071 -2.1465
 3795SOL    HW212602   1.537   6.863   6.272 -0.2405  0.2629  0.2692
 3796SOL     OW12603   1.353   5.927   6.685  0.5896  0.1531  0.0640
 3796SOL    HW112604   1.343   5.876   6.765  0.9340 -1.1925 -0.7041
 3796SOL    HW212605   1.320   6.014   6.707 -1.8483 -0.8866  0.9069
 3797SOL     OW12606   2.257   6.406   5.944 -0.6099  0.4650  0.3028
 3797SOL    HW112607   2.347   6.375   5.948 -0.5752  0.6009  0.6467
 3797SOL    HW212608   2.265   6.498   5.917 -0.7695 -0.0838 -1.7421
 3798SOL     OW12609   0.611   6.662   5.508 -0.0487  0.0267  0.0918
 3798SOL    HW112610   0.565   6.637   5.589  1.1605  0.6654  1.0006
 3798SOL    HW212611   0.665   6.586   5.487  0.0783  0.0889  0.1992
 3799SOL     OW12612   1.678   7.241   5.972  0.1926  0.5799 -0.1679
 3799SOL    HW112613   1.730   7.193   5.908 -0.3862 -0.8521  0.3984
 3799SOL    HW212614   1.702   7.201   6.056 -0.9980  0.6322  0.2161
 3800SOL     OW12615   1.424   6.156   6.327  0.3678  0.0444  0.0647
 3800SOL    HW112616   1.379   6.086   6.374 -0.3172  0.0925 -0.5046
 3800SOL    HW212617   1.485   6.111   6.268 -0.5622 -0.1120 -0.7997
 3801SOL     OW12618   0.792   5.706   6.353 -0.4364  0.1551 -0.0881
 3801SOL    HW112619   0.792   5.801   6.340  0.2739  0.2682  0.6766
 3801SOL    HW212620   0.715   5.689   6.407  0.9427  0.6739  2.1693
 3802SOL     OW12621   1.830   6.897   7.358  0.1622  0.1570  0.5219
 3802SOL    HW112622   1.842   6.803   7.370  1.7284  0.1411 -0.7821
 3802SOL    HW212623   1.889   6.919   7.286 -1.7564  1.7621 -0.6753
 3803SOL     OW12624   1.108   6.984   7.251 -0.1400 -0.1764 -0.3092
 3803SOL    HW112625   1.022   6.993   7.291  0.0941 -1.0496  0.4146
 3803SOL    HW212626   1.145   6.905   7.289 -0.1551 -1.4662 -2.7587
 3804SOL     OW12627   1.989   6.931   7.124 -0.1036  0.1591 -0.1483
 3804SOL    HW112628   1.904   6.938   7.080 -1.0884 -0.1356  1.6113
 3804SOL    HW212629   2.044   6.884   7.062 -1.4845 -0.4102 -0.9971
 3805SOL     OW12630   1.130   6.879   6.658  0.0110  0.4472 -0.7607
 3805SOL    HW112631   1.200   6.912   6.602  1.3383 -0.4483  0.2975
 3805SOL    HW212632   1.085   6.813   6.604 -0.5024  1.5209 -1.6859
 3806SOL     OW12633   1.640   6.508   6.755  0.2353  0.1981  0.5339
 3806SOL    HW112634   1.665   6.450   6.682  0.7329  0.3436  0.5873
 3806SOL    HW212635   1.564   6.556   6.722  0.4061  0.2014  0.1406
 3807SOL     OW12636   0.801   5.718   7.045  0.1136 -0.3448 -0.0861
 3807SOL    HW112637   0.745   5.679   7.113  1.5195 -1.8421  0.2926
 3807SOL    HW212638   0.875   5.756   7.094  1.1026 -1.3681 -0.7338
 3808SOL     OW12639   1.245   6.733   7.333 -0.1129  0.1076  0.1867
 3808SOL    HW112640   1.317   6.709   7.391  1.0593  0.0834 -1.2041
 3808SOL    HW212641   1.218   6.651   7.293 -0.6412  0.1758  0.4007
 3809SOL     OW12642   1.050   6.677   6.068 -0.3179 -0.6034  0.9870
 3809SOL    HW112643   0.957   6.666   6.049 -0.0755 -0.3907 -0.4821
 3809SOL    HW212644   1.090   6.594   6.040  0.1542 -0.0140 -0.1341
 3810SOL     OW12645   0.243   6.656   6.897 -0.1722  0.4895 -0.0594
 3810SOL    HW112646   0.152   6.657   6.928  0.0984  0.2899  0.7826
 3810SOL    HW212647   0.294   6.644   6.977  0.7143  2.5339 -0.2568
 3811SOL     OW12648   1.253   5.768   7.286  0.1292 -0.2598  0.3759
 3811SOL    HW112649   1.264   5.807   7.372  1.0302 -0.6432  0.4453
 3811SOL    HW212650   1.340   5.775   7.245  0.2847 -2.0295  0.3419
 3812SOL     OW12651   8.355   6.748   6.834  0.8606 -0.4024 -0.0309
 3812SOL    HW112652   8.365   6.681   6.901  0.6598 -1.2805 -0.8513
 3812SOL    HW212653   8.441   6.751   6.791  0.9761  0.1212  0.2350
 3813SOL     OW12654   0.795   6.580   6.014  0.2775  0.3100  0.4241
 3813SOL    HW112655   0.761   6.527   6.087 -1.2825  1.3954  0.5352
 3813SOL    HW212656   0.815   6.516   5.946  0.0491 -0.5673  1.1605
 3814SOL     OW12657   0.494   5.991   6.463 -0.6708  0.0182  0.0768
 3814SOL    HW112658   0.456   6.012   6.548  2.1673 -0.4923  1.5953
 3814SOL    HW212659   0.522   6.075   6.428  0.1712  0.0271  0.7339
 3815SOL     OW12660   1.793   7.073   6.165  0.4026 -0.7731 -0.0299
 3815SOL    HW112661   1.847   7.051   6.241  0.3491 -0.0380  0.2337
 3815SOL    HW212662   1.710   7.028   6.181  0.3372 -0.4976  0.4326
 3816SOL     OW12663   1.006   6.934   6.886 -0.3537 -0.7931 -0.1223
 3816SOL    HW112664   1.049   6.865   6.936  1.6881 -0.3602 -1.1850
 3816SOL    HW212665   1.036   6.921   6.796 -0.8235  0.7957 -0.5416
 3817SOL     OW12666   1.464   6.329   6.497  0.3436 -0.2302  0.5466
 3817SOL    HW112667   1.448   6.271   6.423 -0.1738 -1.4547  1.5899
 3817SOL    HW212668   1.559   6.337   6.502  0.3749  0.2418 -0.5158
 3818SOL     OW12669   0.019   7.030   6.596 -0.1838  0.0815  0.1341
 3818SOL    HW112670  -0.036   7.054   6.670 -0.2497  0.4468 -0.0359
 3818SOL    HW212671   0.003   6.936   6.584 -1.9069  0.4568 -0.8454
 3819SOL     OW12672   0.502   6.315   7.507  0.0078  0.0843 -1.3589
 3819SOL    HW112673   0.578   6.269   7.540  0.8580  1.4248 -1.3564
 3819SOL    HW212674   0.531   6.354   7.424 -1.0944 -0.5093 -2.0518
 3820SOL     OW12675   1.491   6.274   7.491 -0.0716  0.0583 -0.3189
 3820SOL    HW112676   1.531   6.236   7.569  0.2571  3.0319  1.0600
 3820SOL    HW212677   1.564   6.290   7.431  0.2785  1.4640  0.4409
 3821SOL     OW12678   0.969   5.431   7.446  0.8247  0.0583  0.7143
 3821SOL    HW112679   1.015   5.460   7.368  0.0593  0.6332  0.4558
 3821SOL    HW212680   0.887   5.393   7.414  0.8831 -0.4706  1.1838
 3822SOL     OW12681   0.378   5.578   7.627  0.5742  0.5405  0.2197
 3822SOL    HW112682   0.396   5.620   7.711 -0.2835  2.0560 -0.3228
 3822SOL    HW212683   0.311   5.632   7.587  0.1438 -0.8163 -0.9648
 3823SOL     OW12684   0.533   6.794   6.753 -0.0128 -0.2023  0.1387
 3823SOL    HW112685   0.566   6.802   6.663 -1.7653  0.6241 -0.4873
 3823SOL    HW212686   0.438   6.802   6.744 -0.2411 -0.2918  2.0619
 3824SOL     OW12687   1.301   6.551   6.441  0.1801 -0.1402 -0.3039
 3824SOL    HW112688   1.240   6.541   6.368 -0.8533 -0.8628  0.6381
 3824SOL    HW212689   1.321   6.461   6.468  1.5756  0.0821 -0.5050
 3825SOL     OW12690   1.263   6.358   6.215 -0.3330 -0.2942 -0.5905
 3825SOL    HW112691   1.270   6.265   6.236 -0.5848 -0.2328 -0.2109
 3825SOL    HW212692   1.231   6.361   6.125 -0.4518 -0.5785 -0.5572
 3826SOL     OW12693   0.265   5.733   7.250 -0.0946  0.4992  0.5716
 3826SOL    HW112694   0.242   5.648   7.214  0.3661  1.1699 -1.4109
 3826SOL    HW212695   0.361   5.733   7.252 -0.1004  0.4414  1.9739
 3827SOL     OW12696   0.027   6.804   6.792  0.3590 -0.0311  0.0552
 3827SOL    HW112697   0.119   6.791   6.767  0.7064  1.2550  0.5491
 3827SOL    HW212698   0.032   6.858   6.871 -0.8371  0.3203 -0.1002
 3828SOL     OW12699   0.479   6.334   6.815  0.2734 -0.0740  0.1866
 3828SOL    HW112700   0.532   6.413   6.819  0.9271 -0.3939 -1.4480
 3828SOL    HW212701   0.528   6.274   6.759 -1.1619 -0.9092 -0.2475
 3829SOL     OW12702   1.844   6.616   7.379 -0.2233 -0.2345 -0.6454
 3829SOL    HW112703   1.809   6.546   7.434  2.6861 -0.8454  0.5805
 3829SOL    HW212704   1.859   6.575   7.294 -1.0060 -0.3502 -0.7343
 3830SOL     OW12705   0.359   5.656   6.069  0.8550  0.4902  0.7288
 3830SOL    HW112706   0.367   5.569   6.109 -0.8052 -1.2473 -2.3299
 3830SOL    HW212707   0.421   5.654   5.996 -0.9668  0.8550 -0.8953
 3831SOL     OW12708   1.963   6.065   6.203  0.2313  0.0099 -0.2002
 3831SOL    HW112709   1.949   6.152   6.241 -3.4690 -0.4737 -0.0988
 3831SOL    HW212710   1.993   6.011   6.277  0.2972  0.6945  0.2773
 3832SOL     OW12711   0.752   6.560   6.582 -0.0753 -0.3119 -0.8540
 3832SOL    HW112712   0.682   6.565   6.647 -1.3820 -0.1268 -2.2156
 3832SOL    HW212713   0.816   6.501   6.621 -0.8230 -0.2260  0.5827
 3833SOL     OW12714   1.056   6.944   7.833 -0.0716 -0.3387 -0.0722
 3833SOL    HW112715   1.027   7.033   7.814  0.6307 -0.1815 -0.4507
 3833SOL    HW212716   1.148   6.953   7.860  0.8914 -1.1458 -2.6578
 3834SOL     OW12717   2.174   6.923   7.536 -0.2581  0.1263  0.5579
 3834SOL    HW112718   2.248   6.980   7.556 -0.7647  0.7964  0.5392
 3834SOL    HW212719   2.210   6.858   7.475  0.6301 -0.3286  1.5312
 3835SOL     OW12720   0.781   6.506   7.668  0.1655  0.3931 -0.7294
 3835SOL    HW112721   0.780   6.536   7.759  0.2163 -1.7495  0.0450
 3835SOL    HW212722   0.850   6.556   7.626  0.8727  0.6556  0.7096
 3836SOL     OW12723   1.152   5.644   6.023 -0.5379  0.0026  0.3773
 3836SOL    HW112724   1.085   5.687   5.970 -0.5596  0.9951  1.1930
 3836SOL    HW212725   1.116   5.556   6.040 -0.4794 -0.3794 -1.3172
 3837SOL     OW12726   1.561   6.143   5.417 -0.3787 -0.5182  0.7610
 3837SOL    HW112727   1.489   6.146   5.480 -1.0899  1.3871 -0.0616
 3837SOL    HW212728   1.593   6.233   5.413 -1.7249  0.0046 -3.0371
 3838SOL     OW12729   1.325   6.974   6.474 -0.2114 -0.4172  0.4820
 3838SOL    HW112730   1.410   7.018   6.465  0.6954 -1.5929  2.4883
 3838SOL    HW212731   1.329   6.900   6.414 -0.2178  0.0884 -0.1456
 3839SOL     OW12732   0.368   6.540   6.516  0.0588  0.4977 -1.0812
 3839SOL    HW112733   0.413   6.484   6.579  0.8139  0.6246 -1.5032
 3839SOL    HW212734   0.281   6.555   6.555  0.3044  0.0866 -0.3623
 3840SOL     OW12735   0.320   5.636   6.534 -0.1185  0.3513  0.2131
 3840SOL    HW112736   0.291   5.727   6.530 -1.0079  0.0301 -1.3718
 3840SOL    HW212737   0.241   5.585   6.551  0.3684 -0.1557  1.0879
 3841SOL     OW12738   0.713   6.223   7.631 -0.2998 -0.3056 -0.0745
 3841SOL    HW112739   0.787   6.178   7.590 -0.2207  0.9865 -1.4244
 3841SOL    HW212740   0.742   6.313   7.642 -1.9154  0.4616 -1.4646
 3842SOL     OW12741   0.945   6.102   7.578  0.3644  0.2261 -0.2053
 3842SOL    HW112742   0.977   6.060   7.657  1.8265  0.1292 -0.8192
 3842SOL    HW212743   0.998   6.181   7.569 -2.4814  2.4902  1.0717
 3843SOL     OW12744   0.197   7.140   5.912  0.2612  0.6392  0.1564
 3843SOL    HW112745   0.149   7.058   5.902 -0.4587  1.2927 -2.3171
 3843SOL    HW212746   0.183   7.165   6.004 -0.0669 -1.6051  0.7748
 3844SOL     OW12747   0.125   7.496   6.463 -0.0483  0.0032  0.0426
 3844SOL    HW112748   0.080   7.440   6.527 -1.1705 -0.1409 -0.8394
 3844SOL    HW212749   0.176   7.557   6.517 -0.9756 -0.0986  1.0879
 3845SOL     OW12750   0.578   7.349   6.743 -0.2667 -0.0541  0.1069
 3845SOL    HW112751   0.565   7.282   6.676  2.1378 -0.2675 -0.2262
 3845SOL    HW212752   0.519   7.420   6.719 -0.9200 -0.9657 -1.0502
 3846SOL     OW12753   0.632   6.557   6.825  0.1694  0.3087  0.1277
 3846SOL    HW112754   0.666   6.561   6.914 -0.4031 -0.2475  0.3775
 3846SOL    HW212755   0.613   6.649   6.803  2.4415  0.7442 -0.2984
 3847SOL     OW12756   0.205   6.320   6.866  0.3161 -0.1693 -0.1757
 3847SOL    HW112757   0.183   6.393   6.924 -1.0455  0.5945 -1.5959
 3847SOL    HW212758   0.285   6.348   6.822 -0.3935  0.6450 -0.9752
 3848SOL     OW12759   8.786   5.715   7.157  0.1174 -0.0855 -0.2399
 3848SOL    HW112760   8.866   5.748   7.197  1.0474 -1.0577 -1.2276
 3848SOL    HW212761   8.815   5.641   7.104 -1.4494 -0.4760 -0.5888
 3849SOL     OW12762   1.624   6.791   8.067  0.3209  0.4262  0.4739
 3849SOL    HW112763   1.666   6.804   7.982  1.8821 -0.6354  1.0318
 3849SOL    HW212764   1.639   6.873   8.114 -2.4931  1.9124 -0.9624
 3850SOL     OW12765   0.989   6.178   6.205 -0.5221  0.0704 -0.1703
 3850SOL    HW112766   0.942   6.210   6.128 -0.3109  0.5932 -0.0838
 3850SOL    HW212767   0.983   6.250   6.268  0.9164  0.3935 -0.3695
 3851SOL     OW12768   1.383   6.145   7.001  0.4374  0.9022  0.5921
 3851SOL    HW112769   1.447   6.074   6.997 -1.8878 -1.3678  1.0077
 3851SOL    HW212770   1.435   6.225   6.992  3.7161 -0.5565  4.1009
 3852SOL     OW12771   0.281   6.804   7.244 -0.0911 -0.3216 -0.3265
 3852SOL    HW112772   0.242   6.765   7.322  0.8178  2.3778  1.6280
 3852SOL    HW212773   0.359   6.752   7.228 -0.5097 -1.1785  0.2864
 3853SOL     OW12774   0.631   5.927   6.697 -0.4561 -0.2297  0.3447
 3853SOL    HW112775   0.593   5.921   6.610  0.6261 -0.8252 -0.1102
 3853SOL    HW212776   0.640   6.021   6.713  3.1558  0.0391 -2.0118
 3854SOL     OW12777   0.899   7.247   7.340 -0.3777 -0.4046  0.0683
 3854SOL    HW112778   0.970   7.311   7.331  0.1336 -0.9191  0.3935
 3854SOL    HW212779   0.835   7.273   7.273 -1.2554  1.7968  1.6510
 3855SOL     OW12780   0.625   6.143   6.078  0.0157  0.5278 -0.2601
 3855SOL    HW112781   0.532   6.128   6.057  0.2032 -0.3701 -0.5131
 3855SOL    HW212782   0.671   6.072   6.033  0.6787  0.0137  1.1655
 3856SOL     OW12783   8.600   6.747   6.746 -0.2030  0.3482 -0.1712
 3856SOL    HW112784   8.602   6.657   6.713 -1.1001  0.0031  0.6619
 3856SOL    HW212785   8.690   6.778   6.737  0.0088 -0.4504 -0.9592
 3857SOL     OW12786   1.112   6.558   6.963 -0.2828 -0.8219 -0.2533
 3857SOL    HW112787   1.116   6.649   6.993 -0.2110 -1.5077  1.9233
 3857SOL    HW212788   1.019   6.540   6.952 -0.2606 -0.1607 -1.9195
 3858SOL     OW12789   1.695   6.583   6.275 -0.2898 -0.4480 -0.1096
 3858SOL    HW112790   1.770   6.604   6.331 -0.0654 -1.3701 -0.0535
 3858SOL    HW212791   1.734   6.557   6.192 -0.6051  0.4253 -0.5397
 3859SOL     OW12792   1.988   7.488   6.525  0.7532 -0.2184 -0.1786
 3859SOL    HW112793   2.028   7.405   6.503 -0.0933 -0.6210 -0.2226
 3859SOL    HW212794   1.950   7.474   6.612 -1.5371 -0.6877 -1.1758
 3860SOL     OW12795   1.412   7.010   7.083  0.1774 -0.3615  0.4389
 3860SOL    HW112796   1.479   7.008   7.152  0.6638  0.6838  0.0232
 3860SOL    HW212797   1.369   7.094   7.094 -0.3734 -0.5909  0.0439
 3861SOL     OW12798   8.778   6.779   6.520 -0.7910  0.2265 -0.4477
 3861SOL    HW112799   8.810   6.709   6.576 -1.7546  1.1510  1.3714
 3861SOL    HW212800   8.733   6.735   6.448  0.3995 -1.0040 -0.4642
 3862SOL     OW12801   0.553   7.133   7.636 -0.7677 -0.2274  0.3268
 3862SOL    HW112802   0.577   7.070   7.569 -3.6555 -0.9266 -0.1814
 3862SOL    HW212803   0.515   7.206   7.587  0.8941  1.1786  1.0217
 3863SOL     OW12804   1.624   5.690   6.106 -0.4424 -0.1075 -0.7518
 3863SOL    HW112805   1.656   5.778   6.127  0.6073 -0.6707  0.0428
 3863SOL    HW212806   1.703   5.640   6.085 -0.9316 -1.1163 -0.2505
 3864SOL     OW12807   1.509   7.466   6.286 -0.0808  0.3336 -0.6220
 3864SOL    HW112808   1.454   7.418   6.224 -0.0906 -1.2198  0.5235
 3864SOL    HW212809   1.464   7.456   6.370  1.1817  0.2913  0.0710
 3865SOL     OW12810   8.773   6.834   7.877 -0.1421 -0.3512 -0.3308
 3865SOL    HW112811   8.702   6.781   7.914  0.1554 -1.3230 -1.1340
 3865SOL    HW212812   8.775   6.810   7.785  1.4354 -0.5603 -0.2582
 3866SOL     OW12813   1.445   6.815   5.967  0.3305 -0.1642 -0.2454
 3866SOL    HW112814   1.362   6.846   6.005  0.4213 -1.5499  1.1780
 3866SOL    HW212815   1.449   6.722   5.990  1.5108 -0.5298 -1.7511
 3867SOL     OW12816   0.839   6.782   7.279  0.2914 -0.1680 -0.2184
 3867SOL    HW112817   0.849   6.777   7.374 -2.7758 -2.0714  0.1350
 3867SOL    HW212818   0.815   6.873   7.262 -1.3701 -0.2957  1.1858
 3868SOL     OW12819   0.808   6.979   6.104 -0.5759  0.0142  0.3158
 3868SOL    HW112820   0.753   6.942   6.035 -1.0455  0.0257  0.6786
 3868SOL    HW212821   0.845   7.058   6.065 -2.9079  1.5002  0.9102
 3869SOL     OW12822   1.889   7.183   7.033  0.0862  0.0286 -0.6497
 3869SOL    HW112823   1.930   7.116   7.089 -1.2408  0.3938  0.8353
 3869SOL    HW212824   1.797   7.184   7.060 -0.4632  0.7251 -2.3979
 3870SOL     OW12825   1.621   5.687   6.630  0.1414  0.3430 -0.3479
 3870SOL    HW112826   1.606   5.595   6.608  0.4733  0.5755 -1.6449
 3870SOL    HW212827   1.563   5.735   6.572 -1.7480  0.9316  1.9055
 3871SOL     OW12828   0.151   5.323   6.190 -0.2042 -0.1394  0.3876
 3871SOL    HW112829   0.228   5.376   6.208  1.9272 -2.3667 -1.4726
 3871SOL    HW212830   0.168   5.283   6.105 -3.2502 -1.1023  0.0901
 3872SOL     OW12831   1.305   7.375   6.138  0.0048  0.0302  0.2653
 3872SOL    HW112832   1.269   7.457   6.171 -0.5958 -0.5807  1.1942
 3872SOL    HW212833   1.266   7.308   6.195 -0.3181 -0.9896 -1.1105
 3873SOL     OW12834   0.796   6.590   7.088 -0.0259 -0.1503  0.4171
 3873SOL    HW112835   0.817   6.512   7.139  2.3032 -0.4586 -0.8900
 3873SOL    HW212836   0.837   6.662   7.135  1.8238 -0.3880 -0.7621
 3874SOL     OW12837   1.243   6.625   5.810  0.0824  0.1339 -0.0939
 3874SOL    HW112838   1.286   6.600   5.728 -0.1929  0.1598 -0.2506
 3874SOL    HW212839   1.314   6.637   5.872  0.2262 -0.9765 -0.0300
 3875SOL     OW12840   1.296   7.498   5.844  0.2970 -0.2208  0.2889
 3875SOL    HW112841   1.213   7.546   5.846  0.1682 -0.4146 -0.2411
 3875SOL    HW212842   1.295   7.445   5.923 -0.4765 -0.8574 -0.1276
 3876SOL     OW12843   0.541   6.718   7.295 -0.3088  0.0494  0.1809
 3876SOL    HW112844   0.574   6.629   7.284  0.9802  0.4706  0.4831
 3876SOL    HW212845   0.607   6.773   7.254 -0.5159  0.9447  1.0255
 3877SOL     OW12846   1.549   6.742   7.063 -0.3550 -0.0895 -0.1509
 3877SOL    HW112847   1.518   6.680   7.130  0.9475  0.4803  1.0099
 3877SOL    HW212848   1.475   6.801   7.049 -1.0453 -0.9167 -0.0833
 3878SOL     OW12849   1.379   6.775   6.312 -0.1152 -0.5303  0.1919
 3878SOL    HW112850   1.362   6.741   6.224 -0.6277 -2.3559  0.9418
 3878SOL    HW212851   1.358   6.701   6.370  0.4533  0.5498  1.8274
 3879SOL     OW12852   1.065   5.360   6.513 -0.3900 -0.2657  0.1877
 3879SOL    HW112853   1.095   5.444   6.479 -1.0785 -0.3275 -0.5862
 3879SOL    HW212854   0.996   5.382   6.575 -0.6337 -0.2646 -0.0839
 3880SOL     OW12855   0.656   7.111   6.301 -0.4447  0.0882  0.2823
 3880SOL    HW112856   0.581   7.057   6.276 -0.1500 -1.0614  1.7585
 3880SOL    HW212857   0.725   7.085   6.241 -0.7121 -0.1219  0.0626
 3881SOL     OW12858   1.817   5.829   7.102  0.3997 -0.1734  0.7359
 3881SOL    HW112859   1.735   5.793   7.067 -0.0969  1.6742 -0.1433
 3881SOL    HW212860   1.886   5.790   7.049  0.0252 -1.0774  0.9010
 3882SOL     OW12861   0.637   6.948   5.868 -0.4792 -0.1741 -0.0164
 3882SOL    HW112862   0.631   7.044   5.868 -0.1782 -0.1376 -1.2903
 3882SOL    HW212863   0.629   6.924   5.776 -0.2664 -1.3657  0.2670
 3883SOL     OW12864   0.648   6.547   8.004  1.0327  0.6428 -0.2770
 3883SOL    HW112865   0.700   6.620   8.038  0.0898  0.7242  1.0900
 3883SOL    HW212866   0.703   6.470   8.017  1.6630  0.9885 -0.8570
 3884SOL     OW12867   0.090   5.942   7.299  0.0011 -0.5492  0.5049
 3884SOL    HW112868   0.149   5.866   7.299  1.2794  0.3662  2.3414
 3884SOL    HW212869   0.111   5.988   7.380 -1.1328  1.4776 -0.2954
 3885SOL     OW12870   8.785   6.103   5.816  0.0073  0.4920  0.0350
 3885SOL    HW112871   8.744   6.143   5.892  0.0725  1.5431 -0.4675
 3885SOL    HW212872   8.771   6.009   5.828  0.3756  0.6104  1.5419
 3886SOL     OW12873   1.278   6.421   7.121 -0.6321 -0.3323  0.0071
 3886SOL    HW112874   1.210   6.469   7.073  0.1149  1.7090  0.8895
 3886SOL    HW212875   1.344   6.401   7.055 -1.0402 -0.3037 -0.4162
 3887SOL     OW12876   0.016   5.862   6.255  0.1694  0.1757 -0.1610
 3887SOL    HW112877   0.000   5.780   6.301 -0.1203  0.6229  0.5480
 3887SOL    HW212878   0.108   5.857   6.229  0.5069  0.1663  0.9877
 3888SOL     OW12879   1.221   6.917   6.053  0.5562 -0.0849  0.1907
 3888SOL    HW112880   1.173   6.856   6.110 -0.4763 -2.0488 -2.5471
 3888SOL    HW212881   1.202   7.003   6.089 -2.1308 -1.0297  1.3368
 3889SOL     OW12882   0.567   6.448   7.289 -0.0288 -0.2473  0.2630
 3889SOL    HW112883   0.640   6.414   7.237  0.4380  1.0655  0.0183
 3889SOL    HW212884   0.491   6.399   7.258  0.5850 -0.9435 -0.1803
 3890SOL     OW12885   1.811   7.330   7.323  0.4380  0.3050  0.3857
 3890SOL    HW112886   1.735   7.297   7.276  0.8187  0.4261 -0.3212
 3890SOL    HW212887   1.825   7.418   7.288  0.7282  0.3937  0.7222
 3891SOL     OW12888   1.030   6.312   7.302  0.1567  0.6612  0.5419
 3891SOL    HW112889   1.061   6.281   7.387  2.0250 -0.6730 -0.5756
 3891SOL    HW212890   1.091   6.275   7.239 -0.6739  2.3338 -1.3390
 3892SOL     OW12891   1.482   6.540   7.263  0.1604 -0.3694  0.0498
 3892SOL    HW112892   1.409   6.500   7.215  0.4114  1.8602 -2.3596
 3892SOL    HW212893   1.556   6.481   7.248 -0.1050 -0.4059 -1.1767
 3893SOL     OW12894   0.412   7.071   7.274 -0.7980 -0.2945 -0.4672
 3893SOL    HW112895   0.488   7.088   7.218 -0.0275  3.7384  1.4435
 3893SOL    HW212896   0.399   6.976   7.269  2.4734 -0.7844 -3.1934
 3894SOL     OW12897   1.504   6.374   6.962  0.3703 -0.4070 -0.0679
 3894SOL    HW112898   1.576   6.377   7.025  0.4906  0.3708 -0.2266
 3894SOL    HW212899   1.543   6.405   6.880  0.2697 -1.6197 -0.5871
 3895SOL     OW12900   1.222   5.985   6.428 -0.0327 -0.1183  0.0130
 3895SOL    HW112901   1.159   5.913   6.422  0.3685 -0.4193 -0.7587
 3895SOL    HW212902   1.232   6.000   6.522  0.2132 -1.3828  0.2152
 3896SOL     OW12903   0.668   6.195   6.671 -0.2593 -0.2602 -0.1346
 3896SOL    HW112904   0.678   6.197   6.576  2.2704 -2.8862 -0.0678
 3896SOL    HW212905   0.740   6.247   6.705 -0.5713 -0.1309  0.3524
 3897SOL     OW12906   1.659   5.508   7.254 -0.3356  0.1837 -0.1083
 3897SOL    HW112907   1.665   5.577   7.320  0.7864 -1.5023  1.6627
 3897SOL    HW212908   1.607   5.439   7.295 -1.7885  0.0688 -1.9858
 3898SOL     OW12909   1.702   6.329   7.208 -0.0625  0.0059  0.1426
 3898SOL    HW112910   1.786   6.358   7.173 -0.8505  0.1914 -1.6805
 3898SOL    HW212911   1.714   6.235   7.222  0.6744  0.1608  0.6158
 3899SOL     OW12912   0.801   7.396   5.914 -0.0021  0.1112  0.4202
 3899SOL    HW112913   0.777   7.390   5.822  0.5419  0.4748  0.2488
 3899SOL    HW212914   0.718   7.409   5.960 -0.0840  2.6772 -0.2810
 3900SOL     OW12915   0.801   7.481   6.895  0.6705  0.1909  0.5155
 3900SOL    HW112916   0.812   7.568   6.857  0.9373 -0.1769 -0.2585
 3900SOL    HW212917   0.732   7.440   6.843  1.4824 -0.5487 -0.0013
 3901SOL     OW12918   0.960   6.729   6.525 -0.0564  0.4055 -0.2750
 3901SOL    HW112919   0.879   6.708   6.571  0.8154 -1.3178  0.5956
 3901SOL    HW212920   0.934   6.740   6.433 -1.2214 -0.4629 -0.0688
 3902SOL     OW12921   1.111   6.349   5.674 -0.3767 -0.0942  0.4320
 3902SOL    HW112922   1.176   6.284   5.701  0.9800  1.5943  1.4415
 3902SOL    HW212923   1.128   6.364   5.581 -1.6520 -2.1387 -0.2130
 3903SOL     OW12924   1.745   7.380   6.360 -0.1333  0.0996  0.6417
 3903SOL    HW112925   1.745   7.429   6.443  1.9651 -0.3313  0.9632
 3903SOL    HW212926   1.657   7.390   6.326 -0.9619  0.5823  2.7712
 3904SOL     OW12927   0.166   6.656   7.475 -0.3275 -0.2896 -0.0272
 3904SOL    HW112928   0.113   6.590   7.432 -1.7523 -0.8794  2.4219
 3904SOL    HW212929   0.220   6.607   7.537  0.0437  0.6778  0.4404
 3905SOL     OW12930   0.453   7.006   6.144 -0.6727  0.2285 -0.1211
 3905SOL    HW112931   0.466   6.965   6.058 -0.5612  0.5157 -0.2393
 3905SOL    HW212932   0.379   7.065   6.131 -1.2740 -0.4322  0.2201
 3906SOL     OW12933   0.865   6.997   7.482 -0.7290  0.2716 -0.4019
 3906SOL    HW112934   0.783   6.968   7.442 -0.7265 -1.5766  0.8030
 3906SOL    HW212935   0.877   7.086   7.451 -2.0886 -0.1534 -2.3238
 3907SOL     OW12936   1.857   5.512   7.052 -0.0274  0.4168  0.2085
 3907SOL    HW112937   1.808   5.460   6.988  0.8315 -1.9408  1.3413
 3907SOL    HW212938   1.794   5.534   7.120  0.3190 -2.6762  1.7077
 3908SOL     OW12939   0.310   5.847   6.277 -0.3728 -0.2875 -0.2443
 3908SOL    HW112940   0.338   5.777   6.218 -1.1501  0.9297 -2.1709
 3908SOL    HW212941   0.389   5.870   6.326  0.1945 -1.6426 -0.4793
 3909SOL     OW12942   1.618   7.226   7.108 -0.6121  0.2225  0.3555
 3909SOL    HW112943   1.578   7.163   7.168 -0.1411  0.2277  0.6793
 3909SOL    HW212944   1.605   7.187   7.021 -1.7185  0.4438  0.4051
 3910SOL     OW12945   0.223   6.086   7.071  0.9015  0.1400 -0.1997
 3910SOL    HW112946   0.176   6.037   7.139  1.9617 -2.1735 -1.0070
 3910SOL    HW212947   0.170   6.164   7.057 -0.4247 -0.2951  1.8319
 3911SOL     OW12948   0.738   7.373   6.479 -0.1437 -0.3136  0.1723
 3911SOL    HW112949   0.697   7.401   6.561 -0.4767  0.2166 -0.1678
 3911SOL    HW212950   0.689   7.295   6.453 -0.9799  0.3425 -0.2557
 3912SOL     OW12951   1.196   5.659   6.715 -0.0094 -0.4724 -1.1170
 3912SOL    HW112952   1.227   5.589   6.772 -0.8392  0.2865  0.3309
 3912SOL    HW212953   1.192   5.619   6.628  1.3766 -1.6448 -0.6860
 3913SOL     OW12954   0.801   5.743   6.791 -0.9503 -0.4321  0.7871
 3913SOL    HW112955   0.736   5.811   6.774  0.9398  1.4166  0.5014
 3913SOL    HW212956   0.803   5.735   6.887  0.6694  1.9625  1.0306
 3914SOL     OW12957   0.936   7.169   5.939  0.2128 -0.0267 -0.1851
 3914SOL    HW112958   0.886   7.250   5.933  0.4261  0.3120  2.0198
 3914SOL    HW212959   0.972   7.157   5.851 -1.3046  1.2670 -1.0406
 3915SOL     OW12960   0.729   7.369   7.166  0.3579  0.0287  0.3428
 3915SOL    HW112961   0.635   7.371   7.148 -0.0279  0.9309  2.1987
 3915SOL    HW212962   0.769   7.414   7.091 -0.5182 -1.4459 -1.0876
 3916SOL     OW12963   1.257   5.922   5.794 -0.1081 -0.3951  0.4083
 3916SOL    HW112964   1.205   5.845   5.771 -1.7696  0.8907 -0.3861
 3916SOL    HW212965   1.256   5.923   5.890 -1.2535 -0.6082  0.4133
 3917SOL     OW12966   1.011   5.857   6.685  0.3051 -0.0038  0.3848
 3917SOL    HW112967   1.080   5.796   6.711 -1.0471 -2.9606 -2.3128
 3917SOL    HW212968   0.934   5.827   6.733  0.1199  1.2088  0.8853
 3918SOL     OW12969   1.234   5.569   6.440 -0.5345 -0.1558 -0.5137
 3918SOL    HW112970   1.215   5.641   6.379 -1.0310 -1.3241 -1.8002
 3918SOL    HW212971   1.320   5.537   6.414 -0.4694 -0.2459 -0.1877
 3919SOL     OW12972   8.679   6.619   5.831  0.0221  0.6220  0.4429
 3919SOL    HW112973   8.634   6.577   5.904  2.1222 -0.0946  1.4003
 3919SOL    HW212974   8.753   6.664   5.871  0.2624  1.6660 -1.0728
 3920SOL     OW12975   0.927   7.585   6.371  0.4632  0.4496 -0.8202
 3920SOL    HW112976   0.911   7.651   6.439  1.4877  0.1727 -0.2834
 3920SOL    HW212977   0.906   7.502   6.414  0.7349  0.3044 -0.9662
 3921SOL     OW12978   0.044   6.483   7.773 -0.3385  0.3440  0.0105
 3921SOL    HW112979   0.102   6.509   7.702  1.7805  1.5033  2.0125
 3921SOL    HW212980  -0.043   6.477   7.733  0.8504  0.2442 -2.7663
 3922SOL     OW12981   8.750   5.886   7.986 -0.0792 -0.0821  0.4850
 3922SOL    HW112982   8.749   5.812   7.925 -0.6409  0.7196 -0.5014
 3922SOL    HW212983   8.843   5.909   7.994  0.0153 -0.3203  0.1011
 3923SOL     OW12984   8.667   5.452   7.605  0.7751  0.2527 -0.0891
 3923SOL    HW112985   8.685   5.534   7.560 -0.8437  0.2749 -0.7755
 3923SOL    HW212986   8.736   5.392   7.575  0.4426  0.6196 -1.6731
 3924SOL     OW12987   0.424   6.723   8.491  0.6300 -0.1427 -0.0982
 3924SOL    HW112988   0.487   6.746   8.560  0.3226 -1.0413  0.4954
 3924SOL    HW212989   0.338   6.743   8.529  0.4769 -0.2883 -0.3644
 3925SOL     OW12990   1.519   7.363   8.463 -0.0843  0.2517  0.2411
 3925SOL    HW112991   1.481   7.426   8.524 -0.8834  0.4641 -0.4657
 3925SOL    HW212992   1.512   7.404   8.377 -0.9668 -0.9293 -0.2878
 3926SOL     OW12993   1.041   6.546   8.752 -0.0300  0.3661 -0.1454
 3926SOL    HW112994   1.000   6.583   8.830  3.9998  0.9041  1.9769
 3926SOL    HW212995   1.026   6.611   8.683 -2.0701  0.7551  0.5990
 3927SOL     OW12996   1.800   5.876   7.669 -0.5483  0.0466 -0.1087
 3927SOL    HW112997   1.721   5.840   7.707 -0.5959  0.5311  0.2639
 3927SOL    HW212998   1.869   5.858   7.733 -0.8602  1.9761  0.8421
 3928SOL     OW12999   0.631   6.570   8.711 -0.2497  0.4028  0.0708
 3928SOL    HW113000   0.702   6.509   8.687  0.8266  1.1887  1.1311
 3928SOL    HW213001   0.568   6.516   8.758 -0.7822 -0.4743 -1.5613
 3929SOL     OW13002   0.502   6.520   8.331 -0.6389  0.1772  0.3872
 3929SOL    HW113003   0.501   6.607   8.369 -2.0317 -0.2804  1.4585
 3929SOL    HW213004   0.415   6.510   8.291 -0.0922 -0.3048 -0.7225
 3930SOL     OW13005   0.279   7.109   0.088  0.5360 -0.3088 -0.2385
 3930SOL    HW113006   0.279   7.043   0.157  1.0330 -0.3933 -0.3174
 3930SOL    HW213007   0.368   7.108   0.054  0.2065 -0.5237 -1.1261
 3931SOL     OW13008   0.786   5.233   0.252 -0.3999  0.0441 -0.3012
 3931SOL    HW113009   0.757   5.142   0.259 -1.7550  0.4399 -0.6217
 3931SOL    HW213010   0.706   5.284   0.247  0.3447  1.2631 -0.2546
 3932SOL     OW13011   1.315   5.910   7.989  0.0036  0.3510  0.0285
 3932SOL    HW113012   1.363   5.923   8.071 -0.7051  0.0876  0.4968
 3932SOL    HW213013   1.225   5.891   8.016  0.0333 -1.0533 -0.7584
 3933SOL     OW13014   8.664   7.611   8.259 -0.3796  0.5718 -0.4264
 3933SOL    HW113015   8.577   7.596   8.296 -1.0013  1.9667 -1.2471
 3933SOL    HW213016   8.647   7.645   8.171  1.0213  0.0770 -0.9121
 3934SOL     OW13017   0.004   6.937   8.186  0.5860 -0.3751  0.0254
 3934SOL    HW113018  -0.011   6.844   8.167  0.6815 -0.3069 -0.3893
 3934SOL    HW213019  -0.081   6.978   8.168 -0.2559 -0.7394  2.6960
 3935SOL     OW13020   0.042   6.572   8.434 -0.2759  0.2190  0.1392
 3935SOL    HW113021  -0.006   6.645   8.394  0.7506  0.2461 -1.0967
 3935SOL    HW213022   0.108   6.614   8.488  0.4906  0.2380 -0.7839
 3936SOL     OW13023   0.935   7.562   0.093  0.2975  0.7367  0.0244
 3936SOL    HW113024   0.902   7.650   0.075 -1.1313  0.1973 -0.1040
 3936SOL    HW213025   0.972   7.568   0.181 -0.1351  1.3721  0.1707
 3937SOL     OW13026   0.678   6.342   8.206  0.3937 -0.1564  1.1498
 3937SOL    HW113027   0.626   6.412   8.247  0.8499  0.2945  0.9711
 3937SOL    HW213028   0.769   6.368   8.222  0.6299  0.6433 -1.1293
 3938SOL     OW13029   8.743   6.354   8.121 -0.7307 -0.6646 -0.0450
 3938SOL    HW113030   8.691   6.353   8.201  0.2527 -0.6327  0.6083
 3938SOL    HW213031   8.751   6.447   8.099 -1.0242 -0.6751 -0.2034
 3939SOL     OW13032   2.006   7.038   7.805  0.1789 -0.1529 -0.4685
 3939SOL    HW113033   2.050   7.120   7.827 -0.1120  0.0297 -0.5689
 3939SOL    HW213034   2.024   6.981   7.879  0.3424  0.0179 -0.3761
 3940SOL     OW13035   8.408   6.802   7.635 -0.2994  0.4528 -0.2045
 3940SOL    HW113036   8.456   6.848   7.566 -0.2694  1.9841  0.8039
 3940SOL    HW213037   8.370   6.871   7.688 -3.8361 -0.6253 -1.0367
 3941SOL     OW13038   1.577   6.118   7.695 -0.5493  0.2810 -0.3864
 3941SOL    HW113039   1.599   6.179   7.766 -2.6609 -1.1189  1.5824
 3941SOL    HW213040   1.622   6.037   7.718  1.0082  0.5262 -2.2113
 3942SOL     OW13041   1.780   6.891   7.851  0.3068  0.3029  0.1381
 3942SOL    HW113042   1.845   6.942   7.899  0.0750  2.3120 -1.5137
 3942SOL    HW213043   1.830   6.836   7.793  0.5697  0.8271 -0.1411
 3943SOL     OW13044   0.766   6.897   8.366 -0.2750  0.2565 -0.0760
 3943SOL    HW113045   0.687   6.879   8.315 -1.0943  1.3401  0.7561
 3943SOL    HW213046   0.805   6.973   8.324 -0.6420  0.7998  0.5476
 3944SOL     OW13047   1.115   5.515   7.987 -0.1596 -0.1781 -0.1168
 3944SOL    HW113048   1.209   5.501   7.980 -0.0905  0.1814  0.0975
 3944SOL    HW213049   1.085   5.517   7.896  0.2345  1.0157 -0.2383
 3945SOL     OW13050   0.213   7.010   8.353 -0.1885  0.2081 -0.2527
 3945SOL    HW113051   0.169   7.034   8.435 -0.0972  0.1089 -0.1741
 3945SOL    HW213052   0.145   6.966   8.301  0.1188 -1.0454  0.3612
 3946SOL     OW13053   1.789   6.395   7.535  0.1183  0.2403 -0.6151
 3946SOL    HW113054   1.820   6.305   7.548  1.0280  0.6226 -0.0057
 3946SOL    HW213055   1.748   6.419   7.618 -1.7695 -0.2036 -1.3582
 3947SOL     OW13056   1.424   6.315   7.888  0.1962 -1.0529 -0.7073
 3947SOL    HW113057   1.405   6.360   7.970  0.5543 -1.0074 -0.6486
 3947SOL    HW213058   1.350   6.254   7.877  1.2792 -2.7920  0.8861
 3948SOL     OW13059   2.150   7.349   8.450 -0.0477  0.6803 -0.6314
 3948SOL    HW113060   2.122   7.320   8.537  0.0797  0.7249 -0.5763
 3948SOL    HW213061   2.228   7.297   8.432  0.1814  0.9951 -0.5331
 3949SOL     OW13062   0.415   6.447   7.889  0.2062  0.2895  0.7126
 3949SOL    HW113063   0.500   6.491   7.887 -0.8926  2.5297 -0.6194
 3949SOL    HW213064   0.371   6.483   7.966 -0.3468  0.8583  0.1454
 3950SOL     OW13065   1.132   5.673   8.411  0.0412  0.1353 -0.8801
 3950SOL    HW113066   1.052   5.649   8.457  1.3905 -2.3654  0.3536
 3950SOL    HW213067   1.136   5.613   8.337  2.3804 -2.2740  1.0015
 3951SOL     OW13068   0.469   6.039   8.708  0.0794  0.1312 -0.3762
 3951SOL    HW113069   0.496   6.038   8.616 -0.0529 -1.3111 -0.4164
 3951SOL    HW213070   0.420   5.957   8.720  0.2485  0.2067  1.0241
 3952SOL     OW13071   1.234   6.115   8.546 -0.5910  0.0098  0.7212
 3952SOL    HW113072   1.311   6.063   8.568  0.2995  0.8874 -0.1930
 3952SOL    HW213073   1.202   6.147   8.630 -0.1411 -0.6010  1.1393
 3953SOL     OW13074   0.930   6.441   8.157 -0.1334 -0.6475  0.1951
 3953SOL    HW113075   0.993   6.495   8.108  0.3835 -0.9265  0.5457
 3953SOL    HW213076   0.966   6.437   8.245 -0.7894 -0.5904  0.4687
 3954SOL     OW13077   0.059   6.243   7.913  0.2493 -0.1933  0.5996
 3954SOL    HW113078   0.072   6.284   7.828  0.3704  0.1095  0.7638
 3954SOL    HW213079   0.010   6.308   7.964  0.7684 -0.0953  0.9826
 3955SOL     OW13080   0.445   7.588   0.792 -0.4175  0.0567  0.1743
 3955SOL    HW113081   0.508   7.614   0.860 -0.5619 -0.5878  0.5640
 3955SOL    HW213082   0.435   7.666   0.738  0.6559  0.1991  0.1556
 3956SOL     OW13083   0.998   5.748   7.750  0.3937 -0.2555 -0.1760
 3956SOL    HW113084   1.020   5.829   7.797  3.0422 -0.0699 -1.5303
 3956SOL    HW213085   0.903   5.740   7.758 -0.0084  3.1480 -0.2204
 3957SOL     OW13086   1.342   6.790   8.096  0.3305 -0.1481 -0.2483
 3957SOL    HW113087   1.322   6.838   8.015  0.3203 -1.2017 -0.8877
 3957SOL    HW213088   1.436   6.774   8.092  0.3220 -0.2429 -0.0773
 3958SOL     OW13089   0.689   5.546   8.035  0.3661 -0.2370 -0.5356
 3958SOL    HW113090   0.684   5.460   8.076 -0.5319 -0.1256 -0.3952
 3958SOL    HW213091   0.764   5.589   8.078 -1.2987  0.3678  1.9947
 3959SOL     OW13092   1.250   7.050   8.237 -0.2312 -0.4969 -0.5647
 3959SOL    HW113093   1.310   7.124   8.232  1.3326 -1.2448  3.3977
 3959SOL    HW213094   1.301   6.976   8.203  0.3398 -0.6890  0.6305
 3960SOL     OW13095   0.403   7.524   8.688 -0.4843  0.4610  0.1668
 3960SOL    HW113096   0.317   7.526   8.728 -2.0141  0.9277 -2.8553
 3960SOL    HW213097   0.438   7.612   8.701 -0.4836  0.3184  1.2413
 3961SOL     OW13098   1.855   6.389   8.326 -0.4802 -0.1800 -0.2098
 3961SOL    HW113099   1.916   6.455   8.292 -1.1177  0.5153 -0.0335
 3961SOL    HW213100   1.790   6.440   8.374  1.3667 -1.1653  3.7461
 3962SOL     OW13101   0.483   6.216   8.081  1.1088  0.1460  0.1575
 3962SOL    HW113102   0.556   6.266   8.116  0.7174  1.6171 -1.0187
 3962SOL    HW213103   0.405   6.259   8.116  0.7823 -0.5876  0.3495
 3963SOL     OW13104   0.963   6.256   8.416  0.3142 -0.2520 -0.2769
 3963SOL    HW113105   0.924   6.174   8.444 -0.5010  0.3939  0.5422
 3963SOL    HW213106   1.058   6.241   8.423  0.1727 -1.1252 -0.1722
 3964SOL     OW13107   1.332   7.708   7.988 -0.5989 -0.0776 -0.5966
 3964SOL    HW113108   1.279   7.674   8.060  0.8086 -0.7111  0.1702
 3964SOL    HW213109   1.369   7.630   7.947  0.8781  0.4183 -0.2344
 3965SOL     OW13110   1.910   6.765   7.629  0.1697 -0.7650  0.2071
 3965SOL    HW113111   1.890   6.712   7.552 -0.2811 -0.5526  0.1782
 3965SOL    HW213112   1.979   6.717   7.674 -1.0795 -2.0303  0.8431
 3966SOL     OW13113   0.604   7.109   8.124 -0.1960 -1.0804  0.7887
 3966SOL    HW113114   0.607   7.071   8.212 -2.2184  1.0585  1.8832
 3966SOL    HW213115   0.521   7.078   8.087 -0.3425 -0.3171  0.4600
 3967SOL     OW13116   1.434   5.567   7.629  0.3156 -0.2788 -0.4771
 3967SOL    HW113117   1.353   5.588   7.582  0.1209  2.3526  0.8388
 3967SOL    HW213118   1.406   5.512   7.702 -0.3119  0.5171 -0.0987
 3968SOL     OW13119   0.192   7.609   8.805  0.4328  0.0711 -0.0378
 3968SOL    HW113120   0.148   7.691   8.781 -2.4276 -1.4167 -0.3754
 3968SOL    HW213121   0.174   7.599   8.898 -0.8942 -0.9959 -0.3652
 3969SOL     OW13122   0.850   7.236   8.518  0.1574 -0.3669 -0.4388
 3969SOL    HW113123   0.823   7.275   8.435 -0.0953 -0.5003 -0.4190
 3969SOL    HW213124   0.944   7.219   8.507  0.2637  0.1968 -0.4653
 3970SOL     OW13125   0.402   5.903   8.053 -0.6915 -0.3745 -0.4583
 3970SOL    HW113126   0.413   5.847   7.976 -1.8131  1.3294 -1.9302
 3970SOL    HW213127   0.432   5.990   8.024 -0.5627  0.1929  1.2362
 3971SOL     OW13128   0.680   5.640   7.294  0.2803  0.1360 -0.4365
 3971SOL    HW113129   0.657   5.612   7.383  0.3156 -1.5215 -0.9195
 3971SOL    HW213130   0.724   5.724   7.306  1.0840 -0.4812  1.2084
 3972SOL     OW13131   0.839   7.012   8.844  0.4146 -0.1816 -0.4063
 3972SOL    HW113132   0.798   6.984   8.925 -2.0054  0.3003 -1.3583
 3972SOL    HW213133   0.834   6.936   8.786 -2.4931  0.8166 -1.6633
 3973SOL     OW13134   0.810   6.549   0.098 -0.3957  0.3131  0.7047
 3973SOL    HW113135   0.842   6.616   0.158 -1.5494  1.2801  0.2924
 3973SOL    HW213136   0.714   6.556   0.103 -0.5298  0.3923 -1.1995
 3974SOL     OW13137   0.804   6.002   8.566 -0.0940  0.4916 -0.0710
 3974SOL    HW113138   0.710   5.993   8.549 -0.1421  2.3973 -1.1257
 3974SOL    HW213139   0.847   5.956   8.495 -0.1869 -0.9496  0.7693
 3975SOL     OW13140   0.613   5.588   7.532 -0.0833  0.5380 -0.0310
 3975SOL    HW113141   0.631   5.669   7.578 -0.2047 -0.2167  1.4217
 3975SOL    HW213142   0.521   5.569   7.552 -0.0732  0.0759 -0.3956
 3976SOL     OW13143   1.539   6.793   7.492 -0.1046 -0.5123  0.2530
 3976SOL    HW113144   1.583   6.755   7.416 -0.9062 -0.2592 -0.3548
 3976SOL    HW213145   1.520   6.718   7.549 -0.3823 -0.8354 -0.2589
 3977SOL     OW13146   0.007   5.415   7.404 -0.0577  0.1921 -0.3166
 3977SOL    HW113147   0.060   5.337   7.418  0.5380  0.6083 -0.2596
 3977SOL    HW213148   0.052   5.484   7.452 -2.1692 -0.0215  2.2451
 3978SOL     OW13149   0.920   5.643   8.136  0.2913  0.2686  0.3548
 3978SOL    HW113150   0.974   5.614   8.062 -0.0378  1.3706 -0.3366
 3978SOL    HW213151   0.964   5.720   8.170 -0.4692  0.7789  0.2100
 3979SOL     OW13152   1.132   7.107   8.496  0.3295  0.1721  0.5234
 3979SOL    HW113153   1.209   7.161   8.512 -0.9700  2.9298 -1.5629
 3979SOL    HW213154   1.131   7.095   8.401 -0.4961 -1.9926  0.7523
 3980SOL     OW13155   0.152   6.376   8.607 -0.2724 -0.2476  0.4934
 3980SOL    HW113156   0.122   6.431   8.534  1.0661  0.0472  0.1326
 3980SOL    HW213157   0.117   6.418   8.685 -0.1432  0.5276  0.1455
 3981SOL     OW13158   1.159   7.591   8.157  0.3407  0.8712 -0.6016
 3981SOL    HW113159   1.148   7.501   8.127  1.4106  0.9138 -1.1634
 3981SOL    HW213160   1.137   7.588   8.250  0.0805  0.0958 -0.6834
 3982SOL     OW13161   0.644   5.927   7.631  0.2175  0.0363  0.1385
 3982SOL    HW113162   0.661   6.018   7.658 -0.0241  0.1585 -0.1208
 3982SOL    HW213163   0.705   5.912   7.559  0.6382 -0.1870  0.5327
 3983SOL     OW13164   0.587   5.575   8.784 -0.4278 -0.2000  0.1847
 3983SOL    HW113165   0.665   5.521   8.797  0.1511  0.7090  0.4978
 3983SOL    HW213166   0.589   5.597   8.691 -0.2627 -0.1077  0.2093
 3984SOL     OW13167   0.549   5.772   8.281  0.2055 -0.0558  0.1928
 3984SOL    HW113168   0.500   5.807   8.207  1.8936  0.0350 -0.9370
 3984SOL    HW213169   0.583   5.849   8.326 -0.9959 -0.1024  1.2323
 3985SOL     OW13170   1.381   5.144   8.005  0.9887 -0.2934 -0.9864
 3985SOL    HW113171   1.338   5.163   7.921 -0.0613 -0.0035 -0.4043
 3985SOL    HW213172   1.388   5.049   8.008 -1.8306 -0.5623 -0.0841
 3986SOL     OW13173   1.455   6.490   8.229  0.0575  0.0531 -0.5181
 3986SOL    HW113174   1.408   6.538   8.298  1.1806 -1.2751  1.2743
 3986SOL    HW213175   1.399   6.415   8.210  0.8158 -0.8808  0.7528
 3987SOL     OW13176   1.314   6.470   8.756  0.2671 -0.2005 -0.0742
 3987SOL    HW113177   1.221   6.487   8.772  0.9728  1.8848  2.6917
 3987SOL    HW213178   1.328   6.381   8.786 -0.9081 -0.7640 -1.1041
 3988SOL     OW13179   1.836   5.936   8.089  0.1781 -0.2272 -0.0145
 3988SOL    HW113180   1.790   5.854   8.106 -0.3229 -0.1831 -1.0627
 3988SOL    HW213181   1.872   5.962   8.173  0.3236 -1.5124  0.3285
 3989SOL     OW13182   0.591   6.915   7.494  0.4160 -0.0390  0.3968
 3989SOL    HW113183   0.531   6.891   7.424 -0.9588  1.0794  1.1278
 3989SOL    HW213184   0.576   6.849   7.562 -1.2505  1.1278  1.2387
 3990SOL     OW13185   1.515   7.124   8.046 -0.0829  0.4523  0.0451
 3990SOL    HW113186   1.575   7.076   8.103  0.0050  0.0658 -0.3692
 3990SOL    HW213187   1.476   7.191   8.103 -0.3080 -0.1866  0.6606
 3991SOL     OW13188   1.296   6.088   7.789  0.2654  0.0813 -0.2770
 3991SOL    HW113189   1.320   6.021   7.853 -0.3786 -0.6526 -0.7707
 3991SOL    HW213190   1.365   6.084   7.723 -0.1679 -0.6730 -0.7083
 3992SOL     OW13191   0.738   5.643   7.786 -0.2918 -0.0453  0.3933
 3992SOL    HW113192   0.788   5.581   7.733 -0.9702 -0.8457  0.6642
 3992SOL    HW213193   0.726   5.599   7.870 -3.3992 -0.9316 -0.3878
 3993SOL     OW13194   1.953   6.509   8.824  0.1881  0.3221 -0.5567
 3993SOL    HW113195   2.038   6.500   8.868  0.0474 -0.6075 -0.4513
 3993SOL    HW213196   1.952   6.599   8.792  0.2853  1.0436  1.3647
 3994SOL     OW13197   1.466   6.817   8.748 -0.3172 -0.2442  0.3453
 3994SOL    HW113198   1.405   6.832   8.676 -0.8873  0.9337  1.0434
 3994SOL    HW213199   1.411   6.821   8.826  0.6387  0.8024  0.9910
 3995SOL     OW13200   1.743   6.815   8.480 -0.1538 -0.0372 -0.5110
 3995SOL    HW113201   1.709   6.866   8.553 -0.1430 -0.4719 -0.2003
 3995SOL    HW213202   1.719   6.724   8.501 -1.4639 -0.0213 -1.7427
 3996SOL     OW13203   0.702   6.136   7.911 -0.6017 -0.2505 -0.0503
 3996SOL    HW113204   0.618   6.158   7.950 -0.0177  1.0515  0.5186
 3996SOL    HW213205   0.690   6.152   7.817 -1.0361 -0.2675  0.0006
 3997SOL     OW13206   0.537   7.014   0.063 -0.3815  0.0138 -0.6033
 3997SOL    HW113207   0.596   7.009   0.139 -1.3363 -1.5816  0.0843
 3997SOL    HW213208   0.589   6.980  -0.010  0.4056  1.1472 -0.5946
 3998SOL     OW13209   1.470   6.038   8.682 -0.1159 -0.3215  0.0635
 3998SOL    HW113210   1.503   5.962   8.730 -0.3171 -0.4534 -0.0054
 3998SOL    HW213211   1.460   6.106   8.748 -1.9966 -0.9982  0.5402
 3999SOL     OW13212   0.055   7.166   8.800  0.5342 -0.1691  0.2314
 3999SOL    HW113213   0.028   7.214   8.879 -0.7912  0.9118 -0.8268
 3999SOL    HW213214   0.135   7.121   8.826  1.3524  1.8921  1.5902
 4000SOL     OW13215   0.399   6.295   8.493 -0.6423 -0.0851  0.1256
 4000SOL    HW113216   0.419   6.377   8.447 -0.7122 -0.0247  0.2026
 4000SOL    HW213217   0.312   6.309   8.529 -0.1760  0.2545  1.1535
 4001SOL     OW13218   0.495   6.318   8.782  0.0476 -0.5667  0.0038
 4001SOL    HW113219   0.486   6.295   8.689 -1.8140  1.0476 -0.2773
 4001SOL    HW213220   0.497   6.234   8.828 -0.9855 -1.3586 -1.3384
 4002SOL     OW13221   1.339   7.291   8.175 -0.2890  0.3149 -0.0063
 4002SOL    HW113222   1.248   7.297   8.146 -0.3264 -1.6706 -0.4621
 4002SOL    HW213223   1.370   7.382   8.178 -2.6254  1.1327  1.3540
 4003SOL     OW13224   1.554   7.349   8.830 -0.7722  0.0873  0.7665
 4003SOL    HW113225   1.487   7.287   8.802  0.2388  0.0760 -1.9128
 4003SOL    HW213226   1.597   7.307   8.904 -0.2608 -2.3647 -0.8230
 4004SOL     OW13227   1.073   5.903   8.121  0.0135  0.4317 -0.7695
 4004SOL    HW113228   1.054   5.910   8.214  0.2523 -1.1100 -0.5857
 4004SOL    HW213229   1.033   5.982   8.083 -0.8967  0.6229  0.5002
 4005SOL     OW13230   0.616   7.323   0.077 -0.4213  0.3344  0.0306
 4005SOL    HW113231   0.542   7.325   0.138  0.5309 -0.4709  1.2710
 4005SOL    HW213232   0.589   7.381   0.006 -1.5872  1.3237  1.1955
 4006SOL     OW13233   0.512   6.048   8.456  0.2104  0.6893  0.0940
 4006SOL    HW113234   0.455   6.119   8.425 -1.1502 -1.3162 -2.3827
 4006SOL    HW213235   0.582   6.043   8.391 -0.9167 -1.5480 -1.0533
 4007SOL     OW13236   1.384   6.624   8.443 -0.1784 -0.5476  0.0654
 4007SOL    HW113237   1.346   6.571   8.512 -1.1081 -0.3979 -0.3157
 4007SOL    HW213238   1.346   6.711   8.456 -0.8683 -0.6636 -0.9945
 4008SOL     OW13239   0.935   6.127   8.045 -0.1208 -0.6994 -0.1751
 4008SOL    HW113240   0.849   6.131   8.004 -0.6097  0.1124  0.8732
 4008SOL    HW213241   0.962   6.218   8.055  0.2062 -0.8835  0.8003
 4009SOL     OW13242   0.349   5.661   8.462  0.2567  0.0994  0.2741
 4009SOL    HW113243   0.381   5.659   8.372  0.8649  0.0915  0.4842
 4009SOL    HW213244   0.361   5.571   8.494 -0.8438 -0.1355  0.0714
 4010SOL     OW13245   8.639   7.060   8.725  0.5596 -0.0495  0.1513
 4010SOL    HW113246   8.580   7.133   8.745  0.2227 -0.0236 -0.8536
 4010SOL    HW213247   8.727   7.097   8.738  0.4173  0.8160 -1.1448
 4011SOL     OW13248   0.904   6.000   8.820 -0.1858 -0.0798 -0.0757
 4011SOL    HW113249   0.845   6.012   8.747  1.2877  0.3614 -1.2379
 4011SOL    HW213250   0.847   5.981   8.895 -1.7098 -0.7017 -1.3516
 4012SOL     OW13251   0.232   5.395   7.800  0.5891 -0.2968 -0.5907
 4012SOL    HW113252   0.305   5.393   7.738  0.2236 -0.9873 -1.0221
 4012SOL    HW213253   0.256   5.460   7.865  1.8730 -0.9460 -0.3831
 4013SOL     OW13254   1.529   5.799   7.776 -0.3849 -0.0355  0.3516
 4013SOL    HW113255   1.513   5.708   7.752 -0.4033 -0.0595  0.4564
 4013SOL    HW213256   1.479   5.813   7.856  1.3268 -0.5628  1.5692
 4014SOL     OW13257   0.835   6.390   8.638  0.3703  0.4451 -0.4606
 4014SOL    HW113258   0.919   6.419   8.674  1.3667 -1.5490 -1.0402
 4014SOL    HW213259   0.858   6.342   8.558 -1.6537  3.3709 -3.0122
 4015SOL     OW13260   1.904   5.757   7.357 -0.3973  0.1438 -0.3711
 4015SOL    HW113261   1.838   5.746   7.425 -0.1242  0.1012 -0.1083
 4015SOL    HW213262   1.855   5.779   7.278 -0.6729  0.9322  0.0102
 4016SOL     OW13263   1.042   6.395   7.830 -0.0530  0.4969  0.1647
 4016SOL    HW113264   1.076   6.334   7.766 -1.3786 -0.7141  0.5532
 4016SOL    HW213265   1.085   6.478   7.810  3.9765 -1.0840  1.3399
 4017SOL     OW13266   1.191   6.829   8.556 -0.4624 -0.2111  0.1286
 4017SOL    HW113267   1.125   6.797   8.494  0.5989  0.3235 -1.3255
 4017SOL    HW213268   1.183   6.924   8.552 -1.4502 -0.1817  2.0432
 4018SOL     OW13269   0.116   6.237   8.271  0.7106  0.2127  0.2872
 4018SOL    HW113270   0.037   6.256   8.220  1.8505  2.0981 -0.8850
 4018SOL    HW213271   0.084   6.220   8.359 -1.0506  0.3118 -0.2841
 4019SOL     OW13272   0.150   5.964   8.179  0.2085  0.2205  0.2696
 4019SOL    HW113273   0.238   5.969   8.215 -0.5565  0.6963  2.1693
 4019SOL    HW213274   0.147   6.035   8.115  1.5127 -0.4923 -0.6468
 4020SOL     OW13275   1.774   5.754   0.174  0.0118  0.3504 -0.2082
 4020SOL    HW113276   1.854   5.715   0.208 -0.9841 -0.1375  1.7473
 4020SOL    HW213277   1.760   5.832   0.229 -1.2461 -0.0133  0.0380
 4021SOL     OW13278   8.765   6.621   8.111 -0.1212 -0.1795 -0.5156
 4021SOL    HW113279   8.733   6.659   8.029 -1.1476  2.7880  1.0873
 4021SOL    HW213280   8.698   6.645   8.176  1.4021 -1.0455  1.4907
 4022SOL     OW13281   8.724   7.842   8.554  0.1634 -0.4676 -0.4161
 4022SOL    HW113282   8.734   7.762   8.503  1.7109 -0.9797  0.6473
 4022SOL    HW213283   8.811   7.861   8.588 -0.3813  1.1016  0.2109
 4023SOL     OW13284   0.661   7.018   8.606  0.3564 -0.7364  0.7416
 4023SOL    HW113285   0.603   7.075   8.557 -2.0395 -2.7344  1.0619
 4023SOL    HW213286   0.703   6.964   8.539  1.1281  0.0265  0.5874
 4024SOL     OW13287   1.471   6.237   0.031  0.0222 -0.1001  0.0858
 4024SOL    HW113288   1.414   6.214   0.103  0.3877  1.9942  1.1089
 4024SOL    HW213289   1.544   6.284   0.072  1.3916 -0.8139 -1.4109
 4025SOL     OW13290   8.597   5.857   8.222  0.4580 -0.0716  0.0698
 4025SOL    HW113291   8.659   5.864   8.149  2.4118 -1.3055  1.5149
 4025SOL    HW213292   8.648   5.882   8.299 -0.1662 -3.1245  1.6150
 4026SOL     OW13293   0.374   6.184   7.735  0.1771 -0.0647 -0.5743
 4026SOL    HW113294   0.382   6.252   7.802  0.0835 -2.1344  1.6571
 4026SOL    HW213295   0.418   6.221   7.658 -0.6787  2.8518  0.2193
 4027SOL     OW13296   1.791   6.145   8.627 -0.3330  0.3844  0.5825
 4027SOL    HW113297   1.757   6.132   8.715 -1.1994 -0.5790  0.1243
 4027SOL    HW213298   1.723   6.194   8.581 -0.7534 -0.7874 -0.0845
 4028SOL     OW13299   0.697   5.862   0.133  0.1710 -0.0830  0.7080
 4028SOL    HW113300   0.684   5.792   0.069 -0.4447  0.5832  0.0855
 4028SOL    HW213301   0.678   5.821   0.217 -1.8533 -0.2697  0.2124
 4029SOL     OW13302   1.134   7.263   0.295  0.2197  0.1736 -0.3348
 4029SOL    HW113303   1.173   7.329   0.238 -0.1891  1.9450  1.3439
 4029SOL    HW213304   1.043   7.290   0.305 -0.4563 -1.6674 -0.9843
 4030SOL     OW13305   0.479   5.764   7.811 -0.3200  0.2561  0.1704
 4030SOL    HW113306   0.552   5.704   7.821 -0.0097  0.8672  1.9371
 4030SOL    HW213307   0.516   5.840   7.767 -0.3197 -0.1434 -0.5301
 4031SOL     OW13308   0.259   6.867   0.263 -0.3667  0.4191 -0.6215
 4031SOL    HW113309   0.178   6.842   0.309  1.1923 -1.9641  1.0750
 4031SOL    HW213310   0.255   6.819   0.180 -0.9945  0.8538 -0.8473
 4032SOL     OW13311   1.677   6.525   8.456 -0.0298 -0.5132 -0.2585
 4032SOL    HW113312   1.648   6.480   8.535  0.2823 -0.1553  0.0697
 4032SOL    HW213313   1.597   6.560   8.417 -0.2004 -0.8141 -0.1742
 4033SOL     OW13314   1.667   6.111   7.958  0.1201 -0.1042  0.5610
 4033SOL    HW113315   1.594   6.125   8.018 -0.2461 -0.2089  0.1466
 4033SOL    HW213316   1.724   6.049   8.003 -0.1678 -0.2039  0.7894
 4034SOL     OW13317   1.943   6.992   8.637 -0.4858  0.2050  0.4046
 4034SOL    HW113318   1.968   6.988   8.545 -0.4886 -1.2486  0.4430
 4034SOL    HW213319   1.886   7.068   8.643 -0.1498  0.5651 -0.7063
 4035SOL     OW13320   1.274   7.425   0.100  0.2517 -0.3389  0.3564
 4035SOL    HW113321   1.341   7.482   0.136 -0.3036  0.2432  0.4874
 4035SOL    HW213322   1.291   7.423   0.006  2.0348 -2.2859  0.6449
 4036SOL     OW13323   8.359   6.954   8.670  0.3403  0.2997  0.4358
 4036SOL    HW113324   8.452   6.974   8.661  0.5277 -0.4174  0.7649
 4036SOL    HW213325   8.349   6.923   8.760 -0.0627 -0.4412  0.1409
 4037SOL     OW13326   2.008   5.778   7.835  0.0273 -0.1017  0.0695
 4037SOL    HW113327   1.964   5.698   7.862 -0.7009  0.8554  1.9119
 4037SOL    HW213328   2.086   5.748   7.788 -0.4549 -1.8786  0.3343
 4038SOL     OW13329   1.502   7.519   8.207  0.3241 -0.4024  0.7636
 4038SOL    HW113330   1.572   7.492   8.148  0.1338 -0.2033  0.4474
 4038SOL    HW213331   1.491   7.612   8.191 -0.6222 -0.6085  0.1682
 4039SOL     OW13332   0.988   6.715   8.415  0.0845  0.1261  0.0855
 4039SOL    HW113333   1.035   6.694   8.334 -1.9509 -1.6664 -0.7268
 4039SOL    HW213334   0.921   6.777   8.388  0.9708  1.4956  0.9390
 4040SOL     OW13335   0.888   6.812   8.036 -0.2644 -0.3924  0.7939
 4040SOL    HW113336   0.951   6.815   7.964  1.3109 -0.0235  2.1166
 4040SOL    HW213337   0.802   6.820   7.994  0.5882 -0.3380 -1.0271
 4041SOL     OW13338   2.051   5.676   8.193 -0.2842 -0.2083  0.0437
 4041SOL    HW113339   2.114   5.688   8.122 -1.1151 -1.2605 -0.9038
 4041SOL    HW213340   2.021   5.765   8.213 -0.4406  0.0699 -1.3126
 4042SOL     OW13341   0.126   5.688   7.507 -0.5455 -0.3257 -0.9113
 4042SOL    HW113342   0.123   5.727   7.594 -0.9636 -0.9496 -0.6392
 4042SOL    HW213343   0.194   5.737   7.461 -1.1657  0.8462 -0.6435
 4043SOL     OW13344   1.184   6.595   7.744 -0.4072 -0.7261  0.2464
 4043SOL    HW113345   1.277   6.604   7.725 -0.2477 -2.5124 -0.0536
 4043SOL    HW213346   1.141   6.654   7.682  0.4580 -1.3338 -0.9823
 4044SOL     OW13347   1.456   6.530   0.275 -0.0332 -0.2913  0.4212
 4044SOL    HW113348   1.440   6.481   0.356 -4.9302 -1.4631 -0.9027
 4044SOL    HW213349   1.512   6.472   0.222  0.0366 -1.2531  1.5075
 4045SOL     OW13350   0.963   7.008   8.203 -0.4274 -0.7400 -0.3075
 4045SOL    HW113351   0.940   6.930   8.152 -0.4218 -2.2221  1.8216
 4045SOL    HW213352   1.057   7.022   8.186  0.2085 -2.7620  1.1337
 4046SOL     OW13353   1.766   7.141   7.594 -0.1704 -0.0257 -0.2519
 4046SOL    HW113354   1.691   7.159   7.651  0.2596 -0.1870  0.3801
 4046SOL    HW213355   1.777   7.221   7.543  0.5650  0.8350  1.2054
 4047SOL     OW13356   2.225   6.762   0.003  0.0764  0.2246  0.5168
 4047SOL    HW113357   2.186   6.838   0.047 -0.5652 -0.5781  1.3620
 4047SOL    HW213358   2.208   6.689   0.062  0.5047 -0.6158 -0.3852
 4048SOL     OW13359   1.370   6.787   0.162  0.6924  0.1491  0.0660
 4048SOL    HW113360   1.291   6.809   0.211 -1.1290 -0.4700 -2.3736
 4048SOL    HW213361   1.401   6.705   0.200  1.5711  1.4913  2.4973
 4049SOL     OW13362   0.833   5.792   8.364 -0.7017  0.4824  0.5089
 4049SOL    HW113363   0.784   5.751   8.293  0.4796 -0.1349  0.0087
 4049SOL    HW213364   0.857   5.718   8.421  0.2158  0.6528  0.3666
 4050SOL     OW13365   0.514   6.852   8.254 -0.7490  0.0345 -0.9960
 4050SOL    HW113366   0.443   6.821   8.198 -1.3006 -0.2458 -0.1474
 4050SOL    HW213367   0.486   6.831   8.343 -0.6973  2.0548 -0.4519
 4051SOL     OW13368   1.951   5.918   8.692 -0.1263 -0.4664  0.3380
 4051SOL    HW113369   1.912   5.832   8.707  0.2329 -1.2240 -2.5250
 4051SOL    HW213370   1.878   5.972   8.659  0.5446 -1.1251 -2.4566
 4052SOL     OW13371   0.421   6.990   7.831 -0.0014  0.3511  0.0852
 4052SOL    HW113372   0.330   7.018   7.825 -0.2785 -0.7136 -0.8610
 4052SOL    HW213373   0.466   7.039   7.762 -0.3860 -1.0975 -1.2230
 4053SOL     OW13374   1.329   5.731   8.796 -0.1983 -0.1361  0.5425
 4053SOL    HW113375   1.395   5.765   8.856  0.6548 -2.1221  0.8117
 4053SOL    HW213376   1.360   5.643   8.773 -2.1141 -0.6467 -0.3247
 4054SOL     OW13377   8.708   5.694   7.445 -0.3855  0.0890 -0.1608
 4054SOL    HW113378   8.804   5.692   7.453 -0.3746 -0.7679 -0.4532
 4054SOL    HW213379   8.691   5.686   7.351 -0.7428  0.7845 -0.1659
 4055SOL     OW13380   8.627   5.343   7.861 -0.2742 -0.1704  0.3257
 4055SOL    HW113381   8.575   5.286   7.804 -2.6515  2.5564 -0.4341
 4055SOL    HW213382   8.642   5.422   7.810  1.2206  0.7227  2.0083
 4056SOL     OW13383   1.307   6.978   7.901 -0.8555 -0.4146  0.0817
 4056SOL    HW113384   1.364   6.981   7.825 -1.9601  0.5637 -0.7533
 4056SOL    HW213385   1.343   7.044   7.961 -1.2869  0.4627 -0.5954
 4057SOL     OW13386   0.846   6.274   0.206 -0.1240 -0.0965 -0.5593
 4057SOL    HW113387   0.844   6.222   0.126  1.7366 -1.8147  0.4336
 4057SOL    HW213388   0.812   6.360   0.180 -0.1001 -0.7730 -3.0281
 4058SOL     OW13389   1.341   7.216   8.653 -0.7659  0.8582 -0.0364
 4058SOL    HW113390   1.315   7.307   8.663 -1.1205  0.7204  0.3228
 4058SOL    HW213391   1.267   7.166   8.688  0.3148  0.4749  1.7979
 4059SOL     OW13392   0.565   7.648   0.118  0.0965 -0.2858 -0.7758
 4059SOL    HW113393   0.640   7.695   0.081 -0.3726  0.9591 -0.1861
 4059SOL    HW213394   0.605   7.579   0.173  0.8555  0.9614  0.3045
 4060SOL     OW13395   1.576   6.311   8.597 -0.3482 -0.5445 -0.6088
 4060SOL    HW113396   1.518   6.246   8.558  1.2783 -2.2801 -0.2852
 4060SOL    HW213397   1.539   6.326   8.685 -1.1593 -0.4240 -0.9587
 4061SOL     OW13398   1.052   6.016   7.827  0.7937  0.4613 -0.3664
 4061SOL    HW113399   1.139   6.056   7.828  0.6258  0.8406  0.8932
 4061SOL    HW213400   1.006   6.055   7.901  0.0847 -0.9015 -0.0445
 4062SOL     OW13401   0.689   6.072   8.269  0.0096 -0.3353 -0.2128
 4062SOL    HW113402   0.770   6.039   8.231  0.5700 -0.4348  1.0387
 4062SOL    HW213403   0.680   6.160   8.233 -0.2185 -0.9243 -1.6610
 4063SOL     OW13404   1.804   6.527   0.381 -0.0196  0.2685 -0.5466
 4063SOL    HW113405   1.763   6.614   0.380  0.8011  0.7325  1.1417
 4063SOL    HW213406   1.733   6.467   0.400 -0.3519  0.7743 -0.1568
 4064SOL     OW13407   0.650   6.857   7.928 -0.1920 -0.0091  0.4541
 4064SOL    HW113408   0.604   6.868   8.011 -0.1880 -2.0114  0.7560
 4064SOL    HW213409   0.583   6.870   7.862 -0.5678 -0.0995  0.8141
 4065SOL     OW13410   0.640   7.405   8.637 -0.0560 -0.2611  0.3129
 4065SOL    HW113411   0.544   7.414   8.634 -0.0014  0.3345  0.2812
 4065SOL    HW213412   0.672   7.480   8.588  0.3911 -1.4676 -1.3149
 4066SOL     OW13413   0.875   6.786   8.676  0.0455  0.2841  0.2792
 4066SOL    HW113414   0.802   6.725   8.662  1.5308 -1.5403  0.2354
 4066SOL    HW213415   0.923   6.787   8.594  1.3829 -0.3592  1.0181
 4067SOL     OW13416   1.103   6.693   8.175 -0.0845  0.1077  0.0091
 4067SOL    HW113417   1.032   6.725   8.119  1.0042 -0.5352 -1.8283
 4067SOL    HW213418   1.182   6.738   8.142  0.6642 -0.6405  0.7240
 4068SOL     OW13419   1.766   7.236   8.376  0.0137  0.1205 -0.5469
 4068SOL    HW113420   1.701   7.263   8.441  0.5501 -1.1906  0.6053
 4068SOL    HW213421   1.760   7.301   8.307 -1.3547  0.9568  0.3123
 4069SOL     OW13422   0.126   7.341   8.282  0.7787 -0.1040 -0.2078
 4069SOL    HW113423   0.189   7.345   8.354 -0.2385 -1.1622  0.7979
 4069SOL    HW213424   0.043   7.317   8.324  0.1935 -0.9314 -1.7472
 4070SOL     OW13425   1.689   5.710   8.407  0.1003 -0.0522 -0.1680
 4070SOL    HW113426   1.718   5.668   8.488  0.1518 -0.5288 -0.4320
 4070SOL    HW213427   1.597   5.731   8.423  0.2999  0.5146  0.2808
 4071SOL     OW13428   0.166   5.736   7.780  0.1991  0.0031  0.4009
 4071SOL    HW113429   0.237   5.722   7.843 -0.0213 -0.0742  0.6295
 4071SOL    HW213430   0.131   5.823   7.802  1.0547  0.6134 -0.5216
 4072SOL     OW13431   1.550   7.043   8.537 -0.4042  0.6517  0.0428
 4072SOL    HW113432   1.610   7.116   8.526 -0.4279  0.6977  0.2314
 4072SOL    HW213433   1.474   7.080   8.582 -1.4211  1.0397 -1.8897
 4073SOL     OW13434   0.406   6.480   0.132 -0.2372 -0.0079 -0.2921
 4073SOL    HW113435   0.321   6.447   0.161  0.4656  0.2011  2.2572
 4073SOL    HW213436   0.443   6.409   0.081 -1.3786 -0.6396 -0.2693
 4074SOL     OW13437   0.458   7.142   8.433 -0.5782 -0.0345 -0.1485
 4074SOL    HW113438   0.424   7.230   8.449 -0.8229 -0.1049 -0.2775
 4074SOL    HW213439   0.383   7.093   8.402 -0.9200 -0.8389  1.8406
 4075SOL     OW13440   1.417   5.708   8.465  0.4259 -0.0091 -0.1838
 4075SOL    HW113441   1.384   5.738   8.549 -0.6059  1.1032 -0.9504
 4075SOL    HW213442   1.340   5.704   8.409  0.8898 -1.8918 -0.7898
 4076SOL     OW13443   0.799   5.435   0.019 -0.1286  0.2482 -0.0995
 4076SOL    HW113444   0.805   5.385   0.100 -1.3800  1.1678  0.6006
 4076SOL    HW213445   0.888   5.436  -0.015  0.1051 -1.5758  0.3709
 4077SOL     OW13446   0.320   6.793   8.052  0.1597  0.3802 -0.2094
 4077SOL    HW113447   0.235   6.758   8.025 -0.0069  0.9616 -0.4563
 4077SOL    HW213448   0.339   6.862   7.988  1.1041 -0.1550 -0.5209
 4078SOL     OW13449   1.634   5.698   7.468  0.2509  0.0442 -0.7635
 4078SOL    HW113450   1.581   5.764   7.422 -0.6454 -1.3030 -1.7411
 4078SOL    HW213451   1.574   5.658   7.530  0.4547 -0.6541 -1.0103
 4079SOL     OW13452   1.063   5.952   8.425  0.0891 -1.2559 -0.1032
 4079SOL    HW113453   1.103   6.008   8.492  0.1180 -0.7087 -0.5800
 4079SOL    HW213454   1.097   5.864   8.446  1.0543 -0.9023 -0.1186
 4080SOL     OW13455   1.466   5.948   8.202  0.2395  0.0712 -0.6340
 4080SOL    HW113456   1.530   5.880   8.184 -0.9058 -1.7752  1.5952
 4080SOL    HW213457   1.514   6.013   8.253  1.0015  0.2126 -1.5094
 4081SOL     OW13458   0.301   6.472   7.645  0.5191  0.4239  0.4814
 4081SOL    HW113459   0.332   6.471   7.735  0.0501 -0.3643  0.6373
 4081SOL    HW213460   0.369   6.428   7.595  1.8933  2.8410  0.0496
 4082SOL     OW13461   1.049   7.328   8.092 -0.1850 -0.3868 -0.2867
 4082SOL    HW113462   1.016   7.287   8.012 -1.1939 -0.4861  0.1575
 4082SOL    HW213463   1.011   7.276   8.163 -3.2563  2.4166  0.3690
 4083SOL     OW13464   8.570   8.619   0.560  0.2142 -0.3119  0.0192
 4083SOL    HW113465   8.503   8.676   0.599 -0.2006 -0.4094 -0.5287
 4083SOL    HW213466   8.651   8.669   0.567 -0.1132  0.2746 -0.2822
 4084SOL     OW13467   0.088   7.493   1.231  0.6277  0.2406  0.2423
 4084SOL    HW113468   0.113   7.523   1.144  1.7800 -1.4864 -0.0769
 4084SOL    HW213469   0.013   7.435   1.216 -1.6295  2.7980  0.8572
 4085SOL     OW13470   8.756   7.605   0.420 -0.1286 -0.2399  0.2819
 4085SOL    HW113471   8.664   7.599   0.448  0.4675  0.2529  2.5726
 4085SOL    HW213472   8.806   7.594   0.501  1.8141  0.6818 -0.7328
 4086SOL     OW13473   0.208   8.836   1.054  0.6772 -0.3642  0.0068
 4086SOL    HW113474   0.232   8.927   1.073 -0.9875  0.1364 -0.1226
 4086SOL    HW213475   0.160   8.807   1.132 -0.8108 -0.3497 -0.8698
 4087SOL     OW13476   1.500   8.685   0.551  0.1826 -0.1036  0.0987
 4087SOL    HW113477   1.554   8.761   0.574 -0.4733  0.1007  1.0371
 4087SOL    HW213478   1.413   8.707   0.586 -0.0286 -1.2591  0.3170
 4088SOL     OW13479   1.272   8.464   0.787  0.0724 -0.0254 -0.2493
 4088SOL    HW113480   1.278   8.559   0.794  0.2754 -0.1414  1.5519
 4088SOL    HW213481   1.352   8.438   0.742  0.3008  0.6019 -0.2100
 4089SOL     OW13482   2.103   7.840   0.093 -0.1170 -0.1636 -0.1597
 4089SOL    HW113483   2.170   7.800   0.039 -0.5284  0.3847 -1.1134
 4089SOL    HW213484   2.032   7.860   0.032 -0.8848 -0.1585  0.7120
 4090SOL     OW13485   0.500   8.279   1.028 -0.5577  0.2804  0.1696
 4090SOL    HW113486   0.528   8.360   1.072  0.1746  0.0310  0.1890
 4090SOL    HW213487   0.500   8.214   1.098  3.4007 -0.7850 -0.5803
 4091SOL     OW13488   0.724   8.147   1.858 -0.0371  0.3260 -0.4999
 4091SOL    HW113489   0.789   8.087   1.896  0.7082  1.3132 -0.1691
 4091SOL    HW213490   0.768   8.183   1.780 -1.5233 -1.6380 -2.3707
 4092SOL     OW13491   0.500   8.720   0.652  0.3275 -0.1095  0.0971
 4092SOL    HW113492   0.515   8.631   0.684  0.6793 -0.2841 -0.5502
 4092SOL    HW213493   0.540   8.722   0.566 -0.0797  0.5445 -0.0843
 4093SOL     OW13494   0.352   8.383   1.702 -0.4229  0.2909 -0.5400
 4093SOL    HW113495   0.388   8.381   1.790  0.4840  0.0606 -0.9075
 4093SOL    HW213496   0.427   8.368   1.645 -1.0768 -0.0190 -1.3328
 4094SOL     OW13497   0.564   0.211   0.963  0.8384  0.0904  0.2812
 4094SOL    HW113498   0.627   0.140   0.955 -0.2651 -0.8452 -0.6370
 4094SOL    HW213499   0.541   0.234   0.873 -1.3676 -0.7941  0.5380
 4095SOL     OW13500   0.317   7.308   1.200 -0.3822  0.3863 -0.0848
 4095SOL    HW113501   0.232   7.343   1.226 -0.5777  0.4092 -0.7281
 4095SOL    HW213502   0.302   7.214   1.191 -1.5336  0.7504 -4.2929
 4096SOL     OW13503   1.536   8.018   0.558  0.6734  0.0309  0.2226
 4096SOL    HW113504   1.592   8.062   0.494 -0.7608  0.3705 -0.8575
 4096SOL    HW213505   1.595   7.961   0.606  1.8752  0.0500 -1.1509
 4097SOL     OW13506   1.002   8.518   1.855  0.6707  0.6837 -0.3367
 4097SOL    HW113507   1.059   8.592   1.833 -1.0423  2.0660 -0.3358
 4097SOL    HW213508   0.978   8.480   1.771  0.5259  0.9356 -0.4099
 4098SOL     OW13509   8.674   8.314   1.073  0.6084  0.2614 -0.6538
 4098SOL    HW113510   8.646   8.232   1.114 -0.6724  0.2384 -1.5038
 4098SOL    HW213511   8.612   8.380   1.106  2.0661  1.0613  0.5923
 4099SOL     OW13512   0.119   8.495   0.946 -0.3153  0.0391  0.3162
 4099SOL    HW113513   0.100   8.402   0.950 -2.2473  0.3804  0.1185
 4099SOL    HW213514   0.212   8.502   0.971  0.4698 -2.0954 -1.6403
 4100SOL     OW13515   1.221   7.416   1.455 -0.1358  0.4030 -0.1208
 4100SOL    HW113516   1.243   7.413   1.361  0.5532 -1.3372  0.0596
 4100SOL    HW213517   1.287   7.362   1.497  0.0313  1.7832  1.5063
 4101SOL     OW13518   8.509   8.038   0.708 -0.4060 -0.2875 -0.2211
 4101SOL    HW113519   8.546   8.127   0.711 -2.4141  0.6106 -0.2177
 4101SOL    HW213520   8.446   8.036   0.780 -0.8992 -1.4829 -0.6702
 4102SOL     OW13521   1.411   8.278   0.364  0.2387 -0.2511  0.4076
 4102SOL    HW113522   1.470   8.346   0.396 -0.2601  0.1978  0.3756
 4102SOL    HW213523   1.389   8.226   0.441  0.1134  0.0105  0.5488
 4103SOL     OW13524   1.593   8.702   0.890 -0.2398 -0.1803  0.2619
 4103SOL    HW113525   1.676   8.712   0.843  0.6210 -0.0673  1.7387
 4103SOL    HW213526   1.528   8.691   0.821  0.8883  0.4885 -0.9702
 4104SOL     OW13527   8.829   8.448   1.459 -0.0611  0.9552  0.4407
 4104SOL    HW113528   8.815   8.451   1.554 -0.9829  0.5092  0.3282
 4104SOL    HW213529   8.881   8.369   1.445  0.5949  1.3478  0.6304
 4105SOL     OW13530   0.799   8.427   0.609 -0.0765 -0.0987 -0.2660
 4105SOL    HW113531   0.873   8.394   0.660  0.3860  1.4180  0.1060
 4105SOL    HW213532   0.724   8.421   0.669  0.2949  0.8645  0.3209
 4106SOL     OW13533   0.944   8.611   1.463  0.2438  0.4095 -0.4388
 4106SOL    HW113534   0.975   8.528   1.499 -0.0371  0.0912 -0.9238
 4106SOL    HW213535   0.972   8.677   1.527 -0.5116 -0.1726  0.5138
 4107SOL     OW13536   0.723   7.727   0.664 -0.4159 -0.6921  0.1853
 4107SOL    HW113537   0.784   7.800   0.660  0.1724 -1.1913  0.0174
 4107SOL    HW213538   0.673   7.742   0.745  1.0484 -1.1674  1.2117
 4108SOL     OW13539   8.840   8.642   1.134 -0.0087 -0.1049 -0.3165
 4108SOL    HW113540   8.800   8.570   1.183 -0.8695  0.0411 -0.7888
 4108SOL    HW213541   8.872   8.601   1.054  0.5441 -0.1690 -0.0666
 4109SOL     OW13542   0.991   8.712   0.186  0.2648 -0.2211 -0.4155
 4109SOL    HW113543   1.014   8.620   0.196  0.5621 -0.2653 -1.4181
 4109SOL    HW213544   1.070   8.760   0.212  0.0404 -0.2296  0.3134
 4110SOL     OW13545   8.820   7.778   1.971  0.0674  0.0106  0.5783
 4110SOL    HW113546   8.796   7.705   2.029 -0.2153 -1.2706 -1.0684
 4110SOL    HW213547   8.916   7.774   1.966  0.0681 -0.1083  0.6791
 4111SOL     OW13548   1.396   0.148   0.877  0.2129 -0.7339 -0.4837
 4111SOL    HW113549   1.484   0.156   0.912  0.8163 -1.4518 -1.7571
 4111SOL    HW213550   1.393   0.208   0.803 -0.5426 -0.3410 -0.1512
 4112SOL     OW13551   0.170   8.473   0.679 -0.2218 -0.1386 -0.2375
 4112SOL    HW113552   0.149   8.490   0.771  0.2454 -1.3539  0.1195
 4112SOL    HW213553   0.223   8.393   0.682  0.0238 -0.0310 -1.5444
 4113SOL     OW13554   1.279   7.960   0.623 -0.0126  0.6177  0.1049
 4113SOL    HW113555   1.285   7.902   0.699 -1.9729 -0.8178 -0.7668
 4113SOL    HW213556   1.369   7.962   0.588  0.3579 -0.9093  0.8683
 4114SOL     OW13557   1.016   7.988   1.289 -0.4257 -0.3523 -0.7475
 4114SOL    HW113558   0.923   8.002   1.305 -0.3782  0.5408 -1.1836
 4114SOL    HW213559   1.018   7.937   1.208 -0.5464 -0.9540 -0.3769
 4115SOL     OW13560   1.500   7.860   2.015  0.0766  0.2357 -0.5998
 4115SOL    HW113561   1.536   7.809   2.087  1.0622 -0.3605 -1.4876
 4115SOL    HW213562   1.438   7.920   2.057 -0.4306 -1.0475  0.5735
 4116SOL     OW13563   0.952   8.006   1.954  0.5009  0.3078 -0.5610
 4116SOL    HW113564   1.036   8.049   1.969  0.7663 -0.3163 -0.2261
 4116SOL    HW213565   0.973   7.928   1.902  0.3536 -0.7126  0.8599
 4117SOL     OW13566   1.008   7.868   1.715 -0.4698  0.3540  0.1451
 4117SOL    HW113567   1.071   7.846   1.646 -1.0076 -0.7918 -0.0055
 4117SOL    HW213568   0.935   7.908   1.668  0.3150  2.1719  0.3726
 4118SOL     OW13569   1.167   8.455   0.461  0.1992 -0.3684 -0.8403
 4118SOL    HW113570   1.170   8.367   0.499 -0.8117  0.3778  1.1354
 4118SOL    HW213571   1.167   8.514   0.537 -2.2754  1.2432 -1.9497
 4119SOL     OW13572   7.970   8.323   0.852 -0.6947 -0.0676 -0.4883
 4119SOL    HW113573   8.013   8.395   0.897 -0.0282 -0.8082  0.0793
 4119SOL    HW213574   7.968   8.252   0.916 -2.4285 -0.1856 -0.6265
 4120SOL     OW13575   0.846   8.094   0.166 -0.0999  0.0070 -0.4443
 4120SOL    HW113576   0.926   8.120   0.211 -1.6968  0.8859  2.1014
 4120SOL    HW213577   0.857   8.127   0.077  1.8597  1.1490  0.1484
 4121SOL     OW13578   2.056   7.702   1.903  0.2667 -0.4083 -0.1714
 4121SOL    HW113579   2.084   7.772   1.845  0.7900 -0.5134 -0.0491
 4121SOL    HW213580   1.971   7.675   1.868  1.5759 -2.0796 -2.3556
 4122SOL     OW13581   1.529   8.422   0.644 -0.0638 -0.3258  0.8214
 4122SOL    HW113582   1.613   8.377   0.651  0.6037  0.9881  1.6729
 4122SOL    HW213583   1.548   8.502   0.594 -0.5124  0.5925  2.0623
 4123SOL     OW13584   0.309   7.835   1.093 -0.0563 -0.2254 -0.3149
 4123SOL    HW113585   0.378   7.779   1.128 -1.3745 -1.5605  0.3094
 4123SOL    HW213586   0.293   7.900   1.162  1.3422  0.8501 -0.9570
 4124SOL     OW13587   1.731   8.268   0.750  0.0298  0.1265 -0.5290
 4124SOL    HW113588   1.805   8.327   0.766 -0.8857  1.4890 -1.0853
 4124SOL    HW213589   1.741   8.241   0.659  0.2940 -0.3682 -0.3566
 4125SOL     OW13590   0.109   8.458   0.357  0.2150 -0.3265 -0.5941
 4125SOL    HW113591   0.091   8.365   0.345 -0.1480 -0.1720 -1.3036
 4125SOL    HW213592   0.120   8.468   0.452  0.7282 -1.1707 -0.5534
 4126SOL     OW13593   1.519   8.160   0.894  0.1198  0.1647 -0.1392
 4126SOL    HW113594   1.591   8.205   0.849  1.6391 -1.0642  1.0049
 4126SOL    HW213595   1.536   8.067   0.880 -0.7114 -0.1711  0.9865
 4127SOL     OW13596   0.402   8.305   1.364  0.2222 -0.2304  0.7637
 4127SOL    HW113597   0.472   8.330   1.424  0.0145  3.1100 -0.1398
 4127SOL    HW213598   0.357   8.388   1.345 -0.7991 -1.4103 -2.6127
 4128SOL     OW13599   0.121   7.879   1.707  0.4441  0.0322  0.2216
 4128SOL    HW113600   0.171   7.959   1.720  0.8817 -0.1414 -0.3738
 4128SOL    HW213601   0.145   7.824   1.782 -1.8304  1.3950  2.1195
 4129SOL     OW13602   1.644   0.019   0.078 -0.7915 -0.2539  0.2514
 4129SOL    HW113603   1.552  -0.004   0.092 -1.1876  0.7430 -0.5561
 4129SOL    HW213604   1.640   0.102   0.031  0.5257 -0.4266 -0.1855
 4130SOL     OW13605   1.421   7.598   0.304 -0.2242 -0.0630  0.6130
 4130SOL    HW113606   1.473   7.547   0.366 -2.3393 -1.7493  1.1107
 4130SOL    HW213607   1.342   7.623   0.353 -1.7047 -0.9773 -1.1679
 4131SOL     OW13608   0.355   8.224   0.610  0.2971  0.3099 -0.2092
 4131SOL    HW113609   0.386   8.213   0.520  0.9710 -0.1698  0.0679
 4131SOL    HW213610   0.305   8.144   0.627  0.3490  0.3024 -0.0917
 4132SOL     OW13611   1.402   7.315   1.916  0.2779  0.2400  0.5338
 4132SOL    HW113612   1.309   7.306   1.899  0.4553 -0.7418 -0.0071
 4132SOL    HW213613   1.434   7.369   1.844  0.4828 -1.2932 -0.5920
 4133SOL     OW13614   0.259   7.479   1.823  0.1435  0.2387 -0.2465
 4133SOL    HW113615   0.212   7.432   1.893  0.6379  0.4215  0.2122
 4133SOL    HW213616   0.241   7.428   1.744  0.4666 -0.5880  0.2020
 4134SOL     OW13617   1.566   7.748   1.635 -0.0915  0.2000 -1.1109
 4134SOL    HW113618   1.640   7.805   1.613  0.0906 -0.9082 -3.8987
 4134SOL    HW213619   1.506   7.759   1.561 -1.7641 -0.4493  0.1081
 4135SOL     OW13620   1.139   8.194   0.592  0.3596  0.0142 -0.5402
 4135SOL    HW113621   1.068   8.196   0.656  0.6490  0.3339 -0.2230
 4135SOL    HW213622   1.187   8.113   0.611  1.2391  0.7473  0.5404
 4136SOL     OW13623   0.572   7.623   0.449 -0.5663  0.3847  0.2002
 4136SOL    HW113624   0.629   7.623   0.526  0.9909 -0.0138 -0.9016
 4136SOL    HW213625   0.508   7.692   0.466  0.4082  1.0362  1.3712
 4137SOL     OW13626   1.473   0.283   8.810 -0.1935 -0.0274 -0.2524
 4137SOL    HW113627   1.443   0.279   8.901  0.2342  1.8866  0.0201
 4137SOL    HW213628   1.399   0.319   8.762  0.7278  2.4090  0.0100
 4138SOL     OW13629   0.988   7.605   0.357  0.9950  0.9590 -0.1717
 4138SOL    HW113630   1.066   7.603   0.413  0.3567  2.0817  0.8139
 4138SOL    HW213631   0.946   7.688   0.378 -0.5240  0.3305 -0.6021
 4139SOL     OW13632   1.196   8.203   1.430  0.0047  0.5784 -0.2493
 4139SOL    HW113633   1.221   8.183   1.520 -1.1578 -1.1239 -0.2668
 4139SOL    HW213634   1.139   8.131   1.404 -0.4726  1.5391 -2.0303
 4140SOL     OW13635   1.108   8.643   0.669  0.0120 -0.3562  0.4253
 4140SOL    HW113636   1.048   8.654   0.742  0.5190  0.2835  0.7524
 4140SOL    HW213637   1.162   8.722   0.669  2.0385 -1.6628  1.2408
 4141SOL     OW13638   0.773   8.647   0.759  0.1769 -0.0735 -0.3335
 4141SOL    HW113639   0.702   8.599   0.803 -0.1455  0.3053 -0.4320
 4141SOL    HW213640   0.792   8.596   0.681 -0.6488  0.3199 -0.8069
 4142SOL     OW13641   1.342   7.999   8.819  0.0490 -0.1731 -0.3089
 4142SOL    HW113642   1.396   7.991   8.898  1.1248 -1.3304 -1.1176
 4142SOL    HW213643   1.307   7.911   8.804  0.6242 -0.2158 -1.6032
 4143SOL     OW13644   8.814   7.928   1.077  0.0236 -0.4312 -0.0267
 4143SOL    HW113645   8.820   7.928   1.173  2.1175  1.1158 -0.0963
 4143SOL    HW213646   8.830   7.837   1.053  1.8947 -0.4439  1.0399
 4144SOL     OW13647   0.530   7.722   1.231  0.0211 -0.0459  0.2245
 4144SOL    HW113648   0.526   7.627   1.219  0.1255  0.0008 -0.2044
 4144SOL    HW213649   0.525   7.734   1.326  2.3322 -0.6177  0.4807
 4145SOL     OW13650   1.047   8.151   0.319 -0.0264 -0.0042 -0.0702
 4145SOL    HW113651   1.131   8.156   0.274  0.0053  1.2888  0.1057
 4145SOL    HW213652   1.067   8.177   0.409 -1.0877  3.5192 -0.7038
 4146SOL     OW13653   1.213   7.661   0.490  0.2690 -0.3054  0.4146
 4146SOL    HW113654   1.242   7.633   0.576 -0.7490  0.9762  1.2097
 4146SOL    HW213655   1.245   7.750   0.481 -0.2517 -0.1720 -0.2412
 4147SOL     OW13656   1.710   0.013   0.574 -0.1780  0.5059 -0.2899
 4147SOL    HW113657   1.735   0.078   0.640  1.5081 -0.3033 -0.0724
 4147SOL    HW213658   1.788   0.005   0.519  0.2481 -2.3711  0.5820
 4148SOL     OW13659   1.665   8.360   1.228  0.3847  0.1298  0.1592
 4148SOL    HW113660   1.698   8.341   1.316  1.4900 -1.6100 -0.5738
 4148SOL    HW213661   1.580   8.316   1.224  0.1181  0.6120  0.5083
 4149SOL     OW13662   1.677   8.489   0.280  0.0182 -0.4291  0.1788
 4149SOL    HW113663   1.745   8.556   0.273 -0.4062 -0.0817 -0.8352
 4149SOL    HW213664   1.596   8.534   0.255  0.0482 -1.7963 -2.7734
 4150SOL     OW13665   1.964   8.754   0.493 -0.0815  0.1867 -0.6468
 4150SOL    HW113666   1.975   8.660   0.509 -2.7443  0.0302  0.7714
 4150SOL    HW213667   1.930   8.759   0.404  1.5048 -0.0169 -1.3034
 4151SOL     OW13668   1.802   8.011   8.561 -0.2041 -0.0787  0.5627
 4151SOL    HW113669   1.711   7.992   8.581 -0.2948  0.9939  1.2503
 4151SOL    HW213670   1.813   8.103   8.586  0.8065  0.0833 -0.4177
 4152SOL     OW13671   0.603   7.912   0.280  0.1277  0.0448 -0.1552
 4152SOL    HW113672   0.548   7.901   0.203 -1.0476 -0.5651  0.7292
 4152SOL    HW213673   0.652   7.831   0.287 -0.8153 -0.4892  0.5073
 4153SOL     OW13674   1.295   8.688   1.553  0.6368 -0.3669  0.0293
 4153SOL    HW113675   1.298   8.651   1.465  0.0256 -1.6001  0.5008
 4153SOL    HW213676   1.207   8.725   1.561  1.2656  1.3254 -0.4627
 4154SOL     OW13677   0.731   0.704   1.730 -0.1831 -0.2184  0.6187
 4154SOL    HW113678   0.808   0.661   1.693 -0.5138  0.2949 -0.7220
 4154SOL    HW213679   0.657   0.667   1.683 -0.4275  2.3345 -1.2287
 4155SOL     OW13680   1.432   0.202   1.242  0.1975 -0.1206  0.2623
 4155SOL    HW113681   1.470   0.288   1.259  0.7488 -0.4724  0.8440
 4155SOL    HW213682   1.505   0.148   1.214 -0.2018 -0.3308 -0.4049
 4156SOL     OW13683   1.813   8.187   1.004  0.0695  0.4276  0.9549
 4156SOL    HW113684   1.771   8.198   0.919  0.5590 -0.7566  0.5373
 4156SOL    HW213685   1.778   8.258   1.058 -0.0482  1.3589 -0.3059
 4157SOL     OW13686   0.818   7.439   1.277 -0.4104 -0.3040 -0.2153
 4157SOL    HW113687   0.831   7.363   1.220 -2.9237 -0.9766 -0.0028
 4157SOL    HW213688   0.750   7.412   1.338 -1.7312  2.2805 -0.4125
 4158SOL     OW13689   1.151   8.225   1.968 -0.2769 -0.9294 -0.1783
 4158SOL    HW113690   1.166   8.308   1.922 -0.5159 -0.6693  0.2101
 4158SOL    HW213691   1.087   8.246   2.036  1.4967 -0.8483  1.5433
 4159SOL     OW13692   0.857   8.426   0.299 -0.1103  0.0394 -0.2487
 4159SOL    HW113693   0.944   8.422   0.259  0.2152 -1.4726  0.5465
 4159SOL    HW213694   0.872   8.412   0.392 -1.2619 -0.9999 -0.1940
 4160SOL     OW13695   0.671   8.537   1.030  0.1518  0.2362 -0.0474
 4160SOL    HW113696   0.758   8.504   1.008 -0.2770  0.1423 -1.7485
 4160SOL    HW213697   0.687   8.603   1.098  1.7244  1.1970 -1.2709
 4161SOL     OW13698   1.118   7.801   1.474 -0.0907 -0.5076  0.7130
 4161SOL    HW113699   1.065   7.726   1.450  0.2621 -0.7980  0.8427
 4161SOL    HW213700   1.087   7.872   1.417  0.4047 -1.0596 -0.2623
 4162SOL     OW13701   0.326   0.211   1.136 -0.0004  0.4690  0.1951
 4162SOL    HW113702   0.417   0.205   1.106  0.1930  0.7602  0.7027
 4162SOL    HW213703   0.294   0.293   1.099  0.0081  0.4651  0.1792
 4163SOL     OW13704   0.756   0.024   0.931  0.6016  0.2017  0.0539
 4163SOL    HW113705   0.766  -0.045   0.866 -0.0861 -0.4290  0.5967
 4163SOL    HW213706   0.841   0.068   0.933  0.9587 -0.4440 -0.5008
 4164SOL     OW13707   0.904   7.931   0.667  0.0656  0.1754  0.1689
 4164SOL    HW113708   0.851   7.971   0.598 -1.2450 -0.6022  0.6744
 4164SOL    HW213709   0.927   8.004   0.725  0.2546  0.6579 -0.5007
 4165SOL     OW13710   1.268   8.798   0.209 -0.2514 -0.1038  0.2115
 4165SOL    HW113711   1.305   8.719   0.249  0.4686  0.2467  0.2434
 4165SOL    HW213712   1.281   8.867   0.274  0.5556  0.3856 -0.4444
 4166SOL     OW13713   1.764   7.987   0.388  0.0795  0.4478  0.2320
 4166SOL    HW113714   1.859   7.994   0.386  0.1418 -0.4696 -0.1094
 4166SOL    HW213715   1.742   7.926   0.318 -0.7210  0.2094  0.6726
 4167SOL     OW13716   0.585   8.077   1.395  0.3372  0.1804  0.7988
 4167SOL    HW113717   0.518   8.048   1.456 -0.0215 -1.3358 -0.2672
 4167SOL    HW213718   0.550   8.157   1.357 -0.6110 -0.2584  0.7116
 4168SOL     OW13719   1.483   7.969   1.747 -0.7114 -0.6062  0.1515
 4168SOL    HW113720   1.533   7.969   1.829 -1.0438  0.1399  0.3552
 4168SOL    HW213721   1.493   7.879   1.714  0.9720 -0.4291  0.0566
 4169SOL     OW13722   1.042   7.609   1.816  0.5699 -0.1685  0.4324
 4169SOL    HW113723   1.014   7.690   1.775 -0.6523 -0.3548  0.8493
 4169SOL    HW213724   1.020   7.620   1.909  0.4938 -0.9259  0.5113
 4170SOL     OW13725   0.229   7.208   2.151  0.2803  0.1031 -0.4003
 4170SOL    HW113726   0.251   7.202   2.244  0.4989  0.0688 -0.4522
 4170SOL    HW213727   0.313   7.228   2.109  0.2956 -0.4832 -0.6543
 4171SOL     OW13728   0.978   8.606   1.126 -0.2049 -0.1607 -0.5773
 4171SOL    HW113729   1.000   8.586   1.217 -1.4012  1.2791  0.0647
 4171SOL    HW213730   1.002   8.698   1.115  0.8068 -0.5611 -2.0379
 4172SOL     OW13731   1.407   8.254   1.234  0.6618 -0.1690 -0.1362
 4172SOL    HW113732   1.367   8.284   1.152  0.2511  0.3875  0.2620
 4172SOL    HW213733   1.333   8.222   1.286  1.1652 -2.7908 -0.8892
 4173SOL     OW13734   1.174   8.335   8.719 -0.5359  0.0707  0.1798
 4173SOL    HW113735   1.258   8.329   8.763  1.1270 -1.0992 -2.8812
 4173SOL    HW213736   1.150   8.428   8.724  0.6563  0.3342  1.5177
 4174SOL     OW13737   0.430   7.805   1.497 -0.1957 -0.7338 -0.0269
 4174SOL    HW113738   0.342   7.773   1.478  0.0485 -3.5568  2.7609
 4174SOL    HW213739   0.416   7.884   1.549 -1.1043 -1.2770  0.5844
 4175SOL     OW13740   0.261   8.526   1.266  0.1079  0.3375  0.4299
 4175SOL    HW113741   0.334   8.559   1.214 -0.7542 -0.3198 -1.2838
 4175SOL    HW213742   0.194   8.595   1.259  0.1084  0.4017  0.9909
 4176SOL     OW13743   0.701   8.030   0.888  0.1342  0.0649 -0.2157
 4176SOL    HW113744   0.748   8.010   0.970  0.0129 -1.6974 -0.5328
 4176SOL    HW213745   0.612   8.049   0.916 -0.4222 -2.4645 -0.0105
 4177SOL     OW13746   1.599   8.219   1.668  0.3734 -0.8804  0.6873
 4177SOL    HW113747   1.573   8.130   1.643 -1.9177 -0.1431  0.1711
 4177SOL    HW213748   1.650   8.207   1.748  1.7652 -2.7723 -0.3931
 4178SOL     OW13749   0.206   7.614   1.440  0.1243 -0.4552 -0.2566
 4178SOL    HW113750   0.159   7.567   1.509  0.5214  0.4619  0.6583
 4178SOL    HW213751   0.186   7.565   1.360 -1.3391 -0.8265  0.3040
 4179SOL     OW13752   1.243   8.173   0.143 -0.1020 -1.1092  0.2091
 4179SOL    HW113753   1.327   8.212   0.169 -0.6403 -0.5668  1.1791
 4179SOL    HW213754   1.264   8.120   0.066  1.0682 -0.7129  0.2403
 4180SOL     OW13755   0.934   8.186   0.800  0.3723 -0.1078  0.2126
 4180SOL    HW113756   0.839   8.174   0.804  0.1378  0.7908 -1.6440
 4180SOL    HW213757   0.950   8.267   0.848  0.3803 -0.8709  1.5488
 4181SOL     OW13758   1.812   8.721   1.249  0.2307  0.4322 -0.6488
 4181SOL    HW113759   1.822   8.696   1.340  2.4195  0.7371 -0.7558
 4181SOL    HW213760   1.722   8.699   1.228  0.4551 -2.2218  0.8021
 4182SOL     OW13761   0.458   8.039   1.648  0.1369 -0.0144  0.5722
 4182SOL    HW113762   0.485   8.017   1.737 -0.1492 -0.1150  0.6375
 4182SOL    HW213763   0.406   8.119   1.658  0.5444  0.2678  0.4296
 4183SOL     OW13764   1.515   7.553   0.545 -0.1197 -0.3532 -0.5777
 4183SOL    HW113765   1.606   7.556   0.575 -0.1665  1.5434 -0.5238
 4183SOL    HW213766   1.468   7.513   0.618  0.5309 -0.4984 -0.2223
 4184SOL     OW13767   0.913   8.190   8.763  0.2216 -0.7100 -0.5104
 4184SOL    HW113768   0.861   8.264   8.731  1.0644 -0.0818 -0.4407
 4184SOL    HW213769   1.004   8.218   8.754  0.5385 -0.5128  2.2796
 4185SOL     OW13770   0.277   8.284   0.879  0.3715 -0.6071  0.5957
 4185SOL    HW113771   0.359   8.284   0.929  0.8019 -1.1302 -0.0991
 4185SOL    HW213772   0.257   8.192   0.867  1.6675 -0.5987 -2.4370
 4186SOL     OW13773   0.229   7.979   0.845 -0.8781  0.2114  0.2679
 4186SOL    HW113774   0.191   7.906   0.795  0.0196  0.0399 -0.1856
 4186SOL    HW213775   0.271   7.937   0.920 -2.1786  0.4654  1.1610
 4187SOL     OW13776   1.050   7.702   2.078  0.1885 -0.8693 -0.1462
 4187SOL    HW113777   1.115   7.632   2.081  1.1488 -0.1741 -2.3331
 4187SOL    HW213778   1.091   7.775   2.124 -0.1031 -1.1957  0.6446
 4188SOL     OW13779   1.449   7.446   1.682 -0.2578 -0.5957 -0.2507
 4188SOL    HW113780   1.459   7.535   1.650 -0.0249 -0.7366 -0.5751
 4188SOL    HW213781   1.473   7.391   1.607  1.6948 -0.9386  0.5605
 4189SOL     OW13782   0.178   8.809   0.079  0.0466  0.1657 -0.1750
 4189SOL    HW113783   0.136   8.876   0.133 -2.7495 -2.6839  1.5866
 4189SOL    HW213784   0.164   8.837  -0.011  1.1471  3.0247  0.4500
 4190SOL     OW13785   0.831   7.897   1.111  0.1160  0.3661  0.2918
 4190SOL    HW113786   0.863   7.807   1.111 -1.6169 -0.5632 -4.2957
 4190SOL    HW213787   0.743   7.892   1.148  0.0411  0.1266  0.0852
 4191SOL     OW13788   8.807   8.256   0.629  0.1065 -0.2022  0.3250
 4191SOL    HW113789   8.831   8.347   0.646 -1.8316  0.1855  1.1991
 4191SOL    HW213790   8.810   8.214   0.714 -0.4070 -0.6060  0.1496
 4192SOL     OW13791   8.832   8.011   1.338 -0.1814  0.7423  0.0686
 4192SOL    HW113792   8.832   8.079   1.271 -0.1825  0.7876  0.1149
 4192SOL    HW213793   8.844   8.058   1.421  0.7659  0.6027  0.0191
 4193SOL     OW13794   1.322   8.411   1.803 -0.2976 -0.1988 -0.1595
 4193SOL    HW113795   1.375   8.453   1.871 -1.1301  0.2966  0.2068
 4193SOL    HW213796   1.354   8.321   1.798 -0.3546 -0.2971  1.0344
 4194SOL     OW13797   1.387   8.586   0.327  0.2880  0.1589  1.1829
 4194SOL    HW113798   1.321   8.536   0.375  0.6564 -0.7861  0.7233
 4194SOL    HW213799   1.439   8.629   0.395 -0.8973  1.0814  1.5499
 4195SOL     OW13800   1.381   7.768   1.421  0.0126  0.0262  0.6217
 4195SOL    HW113801   1.294   7.794   1.450 -0.4833 -1.0388  0.1329
 4195SOL    HW213802   1.379   7.777   1.326 -0.6268 -2.9470  0.2747
 4196SOL     OW13803   0.804   7.932   1.517 -0.7432  0.8036  0.6536
 4196SOL    HW113804   0.777   7.842   1.499  0.2323  0.8829 -1.5739
 4196SOL    HW213805   0.737   7.986   1.475  0.6858  1.0164 -1.5400
 4197SOL     OW13806   0.406   7.827   0.620 -0.7246 -1.0461  0.1944
 4197SOL    HW113807   0.443   7.915   0.629  0.9847 -1.8111  1.1848
 4197SOL    HW213808   0.313   7.842   0.600 -0.1089  0.9566 -1.4547
 4198SOL     OW13809   0.282   8.079   1.287  0.0104 -0.2014  0.3651
 4198SOL    HW113810   0.228   8.121   1.221  0.6364 -0.1545 -0.1249
 4198SOL    HW213811   0.316   8.151   1.340  0.6691 -0.1167 -0.1584
 4199SOL     OW13812   1.115   8.410   1.584 -0.1866  0.0935 -0.2386
 4199SOL    HW113813   1.155   8.349   1.523  1.4542  0.0345  0.8326
 4199SOL    HW213814   1.187   8.441   1.638 -1.4042  0.9531  0.9722
 4200SOL     OW13815   1.397   8.485   0.063  0.5903  0.0864  0.0393
 4200SOL    HW113816   1.407   8.571   0.024 -2.1577  0.7405  0.5975
 4200SOL    HW213817   1.371   8.502   0.154  0.1405 -1.3178  0.1972
 4201SOL     OW13818   8.740   0.046   1.164  0.5524 -0.4795  0.0044
 4201SOL    HW113819   8.645   0.044   1.174  0.7578 -0.9621  2.1236
 4201SOL    HW213820   8.764  -0.042   1.137  0.4375 -0.4255 -0.2809
 4202SOL     OW13821   1.031   7.772   0.856  0.2551  0.3345  0.4824
 4202SOL    HW113822   1.018   7.814   0.771  1.2688  0.5634  0.4276
 4202SOL    HW213823   1.085   7.834   0.905 -0.5347  0.3225  1.3966
 4203SOL     OW13824   1.659   7.623   8.839  0.0793  0.9035  0.4179
 4203SOL    HW113825   1.599   7.660   8.774  1.0346  0.8498 -0.5231
 4203SOL    HW213826   1.634   7.531   8.845 -0.7914  1.1711  1.0341
 4204SOL     OW13827   1.276   8.763   0.887  0.1752  0.1364  0.4334
 4204SOL    HW113828   1.289   8.766   0.982  3.6569  0.0581  0.0573
 4204SOL    HW213829   1.300   8.850   0.856  1.0887 -0.4529 -0.5607
 4205SOL     OW13830   0.594   8.766   1.184 -0.0136  0.0006  0.2251
 4205SOL    HW113831   0.632   8.851   1.163  1.6720 -0.0657  2.6020
 4205SOL    HW213832   0.576   8.770   1.278  2.3949 -3.0180  0.9835
 4206SOL     OW13833   1.977   7.820   0.536  0.2808 -0.1472 -0.3680
 4206SOL    HW113834   1.997   7.875   0.461  2.0868  0.4528  0.5010
 4206SOL    HW213835   1.966   7.732   0.499  1.7142  0.0292 -1.2873
 4207SOL     OW13836   0.060   7.906   0.493 -0.0988  0.3609 -0.7533
 4207SOL    HW113837   0.077   7.976   0.430 -0.2490  1.5965  0.5442
 4207SOL    HW213838  -0.035   7.906   0.503 -0.2096 -0.7949 -1.5598
 4208SOL     OW13839   0.796   8.436   2.052 -0.2861 -0.3682  0.5408
 4208SOL    HW113840   0.886   8.423   2.024 -1.0519 -2.0581 -1.3575
 4208SOL    HW213841   0.766   8.512   2.002 -0.4368 -0.9177 -0.2217
 4209SOL     OW13842   0.829   0.061   0.616  0.3070 -0.2314 -0.1710
 4209SOL    HW113843   0.882   0.095   0.688 -0.8760  1.3770  0.0022
 4209SOL    HW213844   0.849  -0.033   0.614  1.1284 -0.1411  1.5964
 4210SOL     OW13845   0.610   8.362   1.552 -0.1243 -0.3360 -0.0876
 4210SOL    HW113846   0.637   8.453   1.565  0.2646 -0.2479 -1.3547
 4210SOL    HW213847   0.687   8.310   1.575 -0.1529 -0.3067  0.0711
 4211SOL     OW13848   1.558   8.612   1.180 -0.0383  0.8006  0.2543
 4211SOL    HW113849   1.601   8.526   1.181 -1.1584  0.2230  1.6861
 4211SOL    HW213850   1.558   8.638   1.088 -0.2635 -1.0236 -0.2844
 4212SOL     OW13851   0.870   0.086   1.305  0.7647 -0.1722  0.6640
 4212SOL    HW113852   0.876   0.143   1.381 -1.7920 -1.3115  1.8376
 4212SOL    HW213853   0.887  -0.002   1.338  1.5525 -0.4866 -0.4916
 4213SOL     OW13854   1.299   7.757   1.162 -0.0015  0.0514  0.4469
 4213SOL    HW113855   1.230   7.690   1.156  0.5244 -0.3360 -2.8126
 4213SOL    HW213856   1.254   7.839   1.143  0.1524  0.0177 -0.0622
 4214SOL     OW13857   1.908   7.623   1.583  1.3815  0.1962  0.5396
 4214SOL    HW113858   1.894   7.717   1.593 -0.1486  0.4425 -2.6318
 4214SOL    HW213859   1.997   7.616   1.548  1.7645  0.3640  1.4449
 4215SOL     OW13860   0.216   8.139   1.727 -0.1438 -0.2172 -0.1769
 4215SOL    HW113861   0.222   8.142   1.823 -0.5267  2.2450 -0.1546
 4215SOL    HW213862   0.242   8.227   1.699  1.0460 -1.1882 -2.4419
 4216SOL     OW13863   0.727   7.658   1.444 -0.3146  0.0106 -0.1317
 4216SOL    HW113864   0.811   7.638   1.404 -0.8214 -0.8823 -0.7772
 4216SOL    HW213865   0.678   7.576   1.442 -0.7427  0.1891  1.4069
 4217SOL     OW13866   8.650   7.698   0.128 -0.5489 -0.6380 -0.0768
 4217SOL    HW113867   8.560   7.731   0.121 -0.3745  0.8646  2.8050
 4217SOL    HW213868   8.674   7.716   0.219  2.4148 -1.7315 -0.5386
 4218SOL     OW13869   1.553   8.484   1.550  0.5880 -0.4515 -0.3529
 4218SOL    HW113870   1.575   8.408   1.604  0.2681  0.4640  1.1297
 4218SOL    HW213871   1.459   8.474   1.532 -0.2981  1.2101  2.6899
 4219SOL     OW13872   0.150   7.773   0.713  0.5704 -0.1755  0.0804
 4219SOL    HW113873   0.117   7.814   0.633 -1.3930 -0.0125  0.9137
 4219SOL    HW213874   0.092   7.698   0.727  2.1295 -1.3627  0.3056
 4220SOL     OW13875   0.858   8.223   1.603  0.3249  0.6366  0.5655
 4220SOL    HW113876   0.864   8.152   1.540 -2.3609  3.0973 -2.8887
 4220SOL    HW213877   0.939   8.273   1.591  0.5075  0.2491  0.1765
 4221SOL     OW13878   0.577   7.698   1.719 -0.2021  0.1497 -0.1488
 4221SOL    HW113879   0.483   7.688   1.732  0.0755 -1.7279  0.7881
 4221SOL    HW213880   0.587   7.718   1.626 -1.4356 -1.2864 -0.6197
 4222SOL     OW13881   1.331   8.742   1.841  1.0439 -0.0491 -0.4851
 4222SOL    HW113882   1.351   8.658   1.881  0.6051 -0.2036 -0.5834
 4222SOL    HW213883   1.327   8.724   1.747 -0.8064 -0.2982 -0.3843
 4223SOL     OW13884   1.807   7.885   1.617 -0.6192 -0.1406  0.1562
 4223SOL    HW113885   1.853   7.962   1.650  1.0607 -1.5023  1.1408
 4223SOL    HW213886   1.791   7.904   1.525  0.0969  1.2131  0.2864
 4224SOL     OW13887   1.235   7.754   8.791 -0.3908 -0.0791 -0.0818
 4224SOL    HW113888   1.208   7.676   8.838 -0.5476 -1.2271 -1.9602
 4224SOL    HW213889   1.239   7.727   8.699 -1.0256  2.2514 -0.8911
 4225SOL     OW13890   0.561   8.423   0.754 -1.1517  0.7656  0.1539
 4225SOL    HW113891   0.563   8.421   0.850 -0.8181 -1.6744  0.1778
 4225SOL    HW213892   0.516   8.342   0.730 -0.8981  1.1477 -1.7606
 4226SOL     OW13893   1.771   7.719   1.875  0.1736  0.1135 -0.3673
 4226SOL    HW113894   1.695   7.672   1.910 -1.4656  1.1539 -2.3474
 4226SOL    HW213895   1.754   7.727   1.782  2.4754  0.8996 -0.7886
 4227SOL     OW13896   2.277   7.964   1.181  0.1502 -0.1910  0.0275
 4227SOL    HW113897   2.184   7.984   1.181  0.1832 -0.0148 -0.7759
 4227SOL    HW213898   2.307   7.990   1.094  0.9242 -0.3591  0.2394
 4228SOL     OW13899   0.993   8.420   0.903 -0.4020  0.2543 -0.3369
 4228SOL    HW113900   1.003   8.481   0.976  1.2674  0.8176 -0.9935
 4228SOL    HW213901   1.070   8.435   0.848 -1.3316 -0.5486 -1.9324
 4229SOL     OW13902   0.777   8.039   0.471 -0.4957  0.0794 -0.2836
 4229SOL    HW113903   0.825   8.073   0.395  0.3576 -0.8754 -0.1971
 4229SOL    HW213904   0.697   8.003   0.434  0.1754 -0.9086 -0.8461
 4230SOL     OW13905   0.106   8.548   1.805 -0.3298  0.5512 -0.4046
 4230SOL    HW113906   0.125   8.561   1.898  0.8869  2.1821 -0.8405
 4230SOL    HW213907   0.140   8.460   1.786  1.0231  0.8947  0.3077
 4231SOL     OW13908   8.840   8.682   0.607 -0.1738  0.5834 -0.5225
 4231SOL    HW113909   8.879   8.601   0.639 -1.5795  0.1407  0.1123
 4231SOL    HW213910   8.861   8.747   0.674  0.6561  0.6811 -0.8652
 4232SOL     OW13911   0.669   8.630   1.898 -0.3588 -0.0994  0.0330
 4232SOL    HW113912   0.616   8.670   1.967  0.4686  0.0556  0.6041
 4232SOL    HW213913   0.660   8.689   1.823  0.4674  0.9500  0.7167
 4233SOL     OW13914   2.032   7.535   0.999  0.0529  0.5444  0.3240
 4233SOL    HW113915   2.060   7.444   1.008 -0.2352  0.0746 -2.5254
 4233SOL    HW213916   2.049   7.574   1.085  1.6178 -1.7858  1.1763
 4234SOL     OW13917   0.080   7.665   1.016 -0.0756  0.0563 -0.0278
 4234SOL    HW113918   0.146   7.726   1.049 -1.2605  1.9580 -0.9428
 4234SOL    HW213919   0.128   7.606   0.958  1.0416  0.4228  0.4876
 4235SOL     OW13920   1.625   0.068   1.094 -0.0664  0.1911  0.3243
 4235SOL    HW113921   1.605  -0.008   1.040 -0.0302 -0.6007  1.3855
 4235SOL    HW213922   1.717   0.056   1.118 -0.1538  0.3792  0.7714
 4236SOL     OW13923   0.544   8.000   1.110  0.3305 -0.2250  0.3121
 4236SOL    HW113924   0.556   8.012   1.204 -1.7838  0.3780  0.5382
 4236SOL    HW213925   0.454   7.971   1.100  0.3121  0.3182 -1.5858
 4237SOL     OW13926   1.578   7.809   1.131 -0.0954 -0.2265  0.2052
 4237SOL    HW113927   1.588   7.854   1.047 -0.3744  1.1513  0.8917
 4237SOL    HW213928   1.489   7.774   1.129 -0.2460  0.1579  0.0896
 4238SOL     OW13929   0.999   7.562   1.424 -0.2454  0.0634  0.0600
 4238SOL    HW113930   0.949   7.503   1.367  1.6475 -0.5979 -1.0079
 4238SOL    HW213931   1.084   7.520   1.433  0.5381  1.7234  0.8421
 4239SOL     OW13932   1.042   0.038   1.107 -0.0924 -0.3700  0.5263
 4239SOL    HW113933   0.988   0.070   1.180 -1.0594 -1.1156  0.1664
 4239SOL    HW213934   1.131   0.044   1.140 -0.3683  0.9652  1.1215
 4240SOL     OW13935   1.824   7.495   0.181 -0.1576  0.7049 -0.2483
 4240SOL    HW113936   1.787   7.419   0.136  2.1199 -0.2515 -0.6408
 4240SOL    HW213937   1.835   7.560   0.112  0.3854  0.3844 -0.4759
 4241SOL     OW13938   1.259   8.237   0.978 -0.3414 -0.5425 -0.0653
 4241SOL    HW113939   1.234   8.312   0.924  0.3037  0.6988  1.3085
 4241SOL    HW213940   1.342   8.207   0.940 -1.0259 -1.1269 -1.1426
 4242SOL     OW13941   2.096   7.719   1.220 -0.1675  0.1385  0.1030
 4242SOL    HW113942   2.059   7.767   1.294 -1.0743  0.1054 -0.3141
 4242SOL    HW213943   2.182   7.690   1.250 -0.9687 -0.8535  1.5685
 4243SOL     OW13944   8.644   8.636   0.015  0.2891 -0.1297  0.5028
 4243SOL    HW113945   8.651   8.713  -0.042 -0.4053  0.5327  1.2871
 4243SOL    HW213946   8.711   8.650   0.082  0.1995 -0.2402  0.6137
 4244SOL     OW13947   8.706   8.107   1.711 -0.0585 -0.1486 -0.6012
 4244SOL    HW113948   8.660   8.030   1.678 -2.2545  1.0082 -0.3676
 4244SOL    HW213949   8.739   8.080   1.797  0.7278 -1.3299 -1.2282
 4245SOL     OW13950   0.296   7.328   2.797  0.7649 -0.1357 -0.1058
 4245SOL    HW113951   0.329   7.415   2.817  1.8375 -0.6088  0.2394
 4245SOL    HW213952   0.374   7.272   2.795  0.2859 -0.8345 -1.7459
 4246SOL     OW13953   8.557   7.832   1.848 -0.1033 -0.3252 -0.5578
 4246SOL    HW113954   8.649   7.830   1.874 -0.2331  0.8358  0.0947
 4246SOL    HW213955   8.508   7.829   1.931 -0.5743  1.3212 -0.7280
 4247SOL     OW13956   0.253   8.485   2.804  0.6507 -0.0244 -0.9100
 4247SOL    HW113957   0.172   8.503   2.852  0.5971 -1.2090 -0.5347
 4247SOL    HW213958   0.247   8.542   2.727  0.3684  1.3184  0.0535
 4248SOL     OW13959   1.524   0.072   2.791  0.0391 -0.1140  0.2832
 4248SOL    HW113960   1.529   0.134   2.718  1.9858 -1.2810 -0.6685
 4248SOL    HW213961   1.441   0.027   2.779  0.1079  0.0426 -0.9624
 4249SOL     OW13962   1.062   8.150   2.430  0.5348 -0.7121 -0.0370
 4249SOL    HW113963   0.978   8.193   2.449  1.2366  0.3518  0.7678
 4249SOL    HW213964   1.116   8.169   2.506  1.3567 -1.8166 -0.3277
 4250SOL     OW13965   1.943   7.422   1.775 -0.2995 -0.6340 -0.2474
 4250SOL    HW113966   1.885   7.348   1.757  0.0811 -0.9963 -0.0067
 4250SOL    HW213967   1.912   7.491   1.716 -2.6640  0.1085  1.6945
 4251SOL     OW13968   0.457   8.668   2.987  0.6224  0.2386 -0.3823
 4251SOL    HW113969   0.434   8.580   3.017 -1.7448  1.3237  1.3168
 4251SOL    HW213970   0.550   8.677   3.006  1.1735 -2.1811 -1.5121
 4252SOL     OW13971   1.040   8.099   4.058  0.2698  0.1171 -0.0378
 4252SOL    HW113972   1.052   8.048   3.979  0.6512 -0.0631  0.1344
 4252SOL    HW213973   1.001   8.038   4.121 -1.1164  0.5567 -0.4265
 4253SOL     OW13974   0.526   8.848   2.393 -0.0933  0.0253 -0.5708
 4253SOL    HW113975   0.448   8.839   2.338 -1.3264 -0.6660  1.1976
 4253SOL    HW213976   0.513   8.784   2.463  2.0185 -0.0003 -0.1466
 4254SOL     OW13977   0.400   8.563   3.820 -0.5805  0.6065 -0.0726
 4254SOL    HW113978   0.416   8.622   3.746 -0.1612  1.0583  0.3716
 4254SOL    HW213979   0.449   8.484   3.798  0.2683  1.0651  0.1214
 4255SOL     OW13980   0.139   0.061   2.766 -0.0914  0.2882  0.6196
 4255SOL    HW113981   0.164  -0.010   2.707 -0.6616  1.0414 -0.5680
 4255SOL    HW213982   0.161   0.141   2.718 -0.8215  0.9286  1.3208
 4256SOL     OW13983   0.765   7.951   3.821  0.0801 -0.3573  0.4738
 4256SOL    HW113984   0.774   7.912   3.734  0.8823 -1.0380  0.8530
 4256SOL    HW213985   0.678   7.924   3.850  0.5560 -1.7441  0.6628
 4257SOL     OW13986   1.162   7.672   2.419 -0.5882 -0.0634  0.6529
 4257SOL    HW113987   1.231   7.642   2.359 -1.1098  0.7210 -0.3611
 4257SOL    HW213988   1.149   7.764   2.397 -2.8324 -0.4938 -0.0357
 4258SOL     OW13989   0.735   8.445   3.430  0.3882  0.1594  0.3696
 4258SOL    HW113990   0.788   8.505   3.378  0.2892  2.1681  2.4272
 4258SOL    HW213991   0.660   8.424   3.373  0.5612  1.8087 -0.5277
 4259SOL     OW13992   0.511   8.616   2.563  0.5769  0.2847 -0.4630
 4259SOL    HW113993   0.564   8.593   2.640 -1.1376 -0.7207  0.4668
 4259SOL    HW213994   0.540   8.555   2.495  0.6526 -0.2139  0.0091
 4260SOL     OW13995   0.301   8.815   2.274 -0.0113  0.1164  0.1451
 4260SOL    HW113996   0.238   8.760   2.320 -0.2348  1.3356  1.3462
 4260SOL    HW213997   0.253   8.896   2.256  0.4400  0.1134 -1.2431
 4261SOL     OW13998   1.256   7.796   3.450  0.5325 -0.1114 -0.2322
 4261SOL    HW113999   1.279   7.863   3.514 -1.5215 -0.9018  1.4747
 4261SOL    HW214000   1.204   7.842   3.384 -0.3823  0.1065  0.6240
 4262SOL     OW14001   8.689   8.181   2.333 -0.1811  0.0997 -0.4087
 4262SOL    HW114002   8.780   8.209   2.323  0.0958 -0.8355 -0.6285
 4262SOL    HW214003   8.644   8.257   2.370  1.0558 -0.0082  1.4342
 4263SOL     OW14004   1.841   7.874   2.097 -0.1792 -0.1522  0.1037
 4263SOL    HW114005   1.821   7.813   2.025  0.9399 -1.1676  0.6115
 4263SOL    HW214006   1.927   7.910   2.074  0.9982 -1.7628  1.6972
 4264SOL     OW14007   1.696   8.585   2.103 -0.6259 -0.0479 -0.1314
 4264SOL    HW114008   1.758   8.620   2.167 -1.0336  1.3502 -0.4464
 4264SOL    HW214009   1.743   8.513   2.061 -0.2835 -0.8756  1.5843
 4265SOL     OW14010   0.213   8.141   3.998  0.4753 -0.4260 -0.3326
 4265SOL    HW114011   0.215   8.062   4.053 -0.4289  0.0812  0.4480
 4265SOL    HW214012   0.130   8.136   3.952 -0.9890  1.4602  1.8833
 4266SOL     OW14013   0.258   8.704   2.624 -0.0075 -0.2089  0.4992
 4266SOL    HW114014   0.354   8.706   2.632 -0.0077  0.8672  0.3476
 4266SOL    HW214015   0.242   8.665   2.538  0.2776 -0.7661  0.6936
 4267SOL     OW14016   1.317   8.602   3.031 -0.1825 -0.1959  0.2298
 4267SOL    HW114017   1.272   8.683   3.004  1.0498 -0.0127 -1.4876
 4267SOL    HW214018   1.301   8.541   2.958  1.9179 -0.2540 -0.2452
 4268SOL     OW14019   0.491   7.341   2.581 -0.7303  0.3880 -0.5130
 4268SOL    HW114020   0.559   7.393   2.622 -2.7984  1.9921  1.1232
 4268SOL    HW214021   0.484   7.262   2.635  0.4445 -0.2669 -1.2801
 4269SOL     OW14022   0.336   8.160   3.114  0.1294 -0.0919  0.0181
 4269SOL    HW114023   0.375   8.127   3.195  1.3622 -2.8965 -1.5578
 4269SOL    HW214024   0.284   8.087   3.081 -1.1059  1.3139 -1.2836
 4270SOL     OW14025   1.575   8.189   2.140  0.1065  0.4738 -0.0040
 4270SOL    HW114026   1.578   8.263   2.200 -0.0149  0.3695  0.1321
 4270SOL    HW214027   1.636   8.125   2.178  1.9812  1.3750 -1.2995
 4271SOL     OW14028   0.078   7.625   4.099  0.7441 -0.0987  0.1623
 4271SOL    HW114029   0.100   7.591   4.012  0.6720 -0.1130  0.1496
 4271SOL    HW214030   0.032   7.553   4.142  1.1177 -0.2232  0.3494
 4272SOL     OW14031   1.167   8.605   2.607 -0.4204 -0.0392 -0.0475
 4272SOL    HW114032   1.236   8.542   2.585 -0.4173  0.3005 -1.0763
 4272SOL    HW214033   1.117   8.614   2.526 -1.8582 -0.4874  0.7597
 4273SOL     OW14034   0.499   8.398   2.313 -0.5582  0.2060 -0.4074
 4273SOL    HW114035   0.590   8.417   2.288 -0.9344  1.8173 -0.6305
 4273SOL    HW214036   0.506   8.325   2.374  0.7786 -0.5232 -1.3674
 4274SOL     OW14037   1.077   7.870   2.934  0.2857 -0.4345  0.0102
 4274SOL    HW114038   1.006   7.807   2.947  0.4786 -1.6167 -3.5826
 4274SOL    HW214039   1.157   7.819   2.948  0.4602 -0.0270  0.5411
 4275SOL     OW14040   0.425   7.847   3.041 -0.2862  0.0309 -0.2493
 4275SOL    HW114041   0.444   7.886   3.126  2.4266 -1.5594  0.0126
 4275SOL    HW214042   0.394   7.759   3.061  3.9414 -1.8352 -0.6599
 4276SOL     OW14043   1.655   8.243   3.816 -0.3141  0.3357 -0.5286
 4276SOL    HW114044   1.726   8.178   3.810 -1.8583 -1.3556 -1.2663
 4276SOL    HW214045   1.604   8.217   3.892  1.6477  3.5953  2.2256
 4277SOL     OW14046   0.850   8.427   3.045  0.1961 -0.0782  0.2110
 4277SOL    HW114047   0.928   8.459   3.092  0.3852  0.8986 -0.7405
 4277SOL    HW214048   0.877   8.342   3.010  0.6560  0.0070  0.3440
 4278SOL     OW14049   1.102   7.902   3.255 -0.5272 -0.4861  0.7176
 4278SOL    HW114050   1.014   7.937   3.240 -0.5965 -0.7920  0.4055
 4278SOL    HW214051   1.129   7.869   3.169 -0.2497 -0.7117  0.8926
 4279SOL     OW14052   0.285   7.904   2.508 -0.5797 -0.4795 -0.3407
 4279SOL    HW114053   0.299   7.818   2.548 -1.1112 -0.4825 -0.1472
 4279SOL    HW214054   0.303   7.890   2.415  1.3254 -0.3215 -0.0380
 4280SOL     OW14055   0.129   8.211   2.254 -0.5929 -0.2674 -0.1364
 4280SOL    HW114056   0.198   8.231   2.190  0.1919  0.0232  0.7709
 4280SOL    HW214057   0.177   8.192   2.335 -1.5908 -0.0216  0.5271
 4281SOL     OW14058   0.063   7.925   2.272  0.2800 -1.0613 -0.3842
 4281SOL    HW114059   0.060   8.007   2.224 -0.1739 -0.5694  0.4575
 4281SOL    HW214060   0.154   7.914   2.297  0.0632  0.1642  1.1034
 4282SOL     OW14061   2.034   8.202   3.980  0.5110  0.6088  0.4269
 4282SOL    HW114062   1.991   8.243   4.055 -0.7562  1.4634 -0.7100
 4282SOL    HW214063   1.968   8.142   3.945  0.5196  1.3047 -0.8507
 4283SOL     OW14064   1.387   8.473   2.584  0.2242  0.1217 -0.2688
 4283SOL    HW114065   1.445   8.429   2.646 -0.9951 -2.7872 -1.0288
 4283SOL    HW214066   1.443   8.492   2.508  0.5410 -1.2761 -0.4029
 4284SOL     OW14067   0.725   7.486   2.976 -0.2020  0.2055 -0.0770
 4284SOL    HW114068   0.674   7.406   2.987 -1.0816  0.6712 -0.6203
 4284SOL    HW214069   0.719   7.530   3.061 -0.1373 -0.0754  0.0719
 4285SOL     OW14070   1.766   8.455   2.686  0.9522  0.7557 -0.1839
 4285SOL    HW114071   1.836   8.430   2.747 -0.0076 -0.7465  0.3666
 4285SOL    HW214072   1.686   8.419   2.725  0.1774  0.5428 -1.8751
 4286SOL     OW14073   0.038   8.190   1.532  0.0537 -0.0801 -0.3615
 4286SOL    HW114074   0.113   8.164   1.585  1.3179  2.1993 -0.9060
 4286SOL    HW214075  -0.036   8.188   1.593  0.8614 -0.6796  0.6337
 4287SOL     OW14076   1.323   8.119   3.009 -0.2109  0.0331 -0.5162
 4287SOL    HW114077   1.418   8.116   3.000 -0.1490  1.8070 -0.7987
 4287SOL    HW214078   1.290   8.070   2.935  0.4791 -0.6302 -0.3978
 4288SOL     OW14079   0.394   8.413   3.032  0.6134 -0.4758  0.3434
 4288SOL    HW114080   0.359   8.330   3.065  2.7764 -1.3524  0.6033
 4288SOL    HW214081   0.340   8.433   2.956 -1.3279 -0.9767  1.5143
 4289SOL     OW14082   0.349   7.983   3.538  0.5222  0.1299 -0.1851
 4289SOL    HW114083   0.274   8.021   3.583  0.4096 -0.4482  0.1271
 4289SOL    HW214084   0.424   8.002   3.595  0.3868 -0.5614  0.2380
 4290SOL     OW14085   1.058   8.580   2.305  0.0768 -0.5713  0.5410
 4290SOL    HW114086   0.990   8.625   2.255  1.0267  0.3284  0.0239
 4290SOL    HW214087   1.128   8.645   2.315  0.8429 -1.4548  1.0999
 4291SOL     OW14088   1.525   7.269   2.397  0.1699  0.0903  0.0561
 4291SOL    HW114089   1.456   7.231   2.452 -1.0793  3.5935  1.2126
 4291SOL    HW214090   1.487   7.273   2.310 -0.7599  1.0879  0.4859
 4292SOL     OW14091   0.271   8.055   2.013 -0.5301 -0.3670 -0.0388
 4292SOL    HW114092   0.344   7.995   2.001 -0.3868 -0.4622  1.1891
 4292SOL    HW214093   0.308   8.130   2.061 -0.8338  0.4462 -1.0381
 4293SOL     OW14094   1.545   8.131   3.596  0.4199  0.3837 -0.5319
 4293SOL    HW114095   1.585   8.169   3.674 -0.3160 -2.1100  1.1579
 4293SOL    HW214096   1.592   8.049   3.582 -0.9190 -0.2721 -1.3855
 4294SOL     OW14097   0.345   7.877   2.250 -0.9416  0.8937  0.1775
 4294SOL    HW114098   0.436   7.897   2.228 -0.9734  0.0485 -0.7752
 4294SOL    HW214099   0.325   7.799   2.199 -2.2786  1.2123  0.1932
 4295SOL     OW14100   0.989   7.617   3.115  0.0962 -0.6033 -0.0850
 4295SOL    HW114101   0.947   7.647   3.034  0.5582 -1.2396 -0.5704
 4295SOL    HW214102   0.947   7.533   3.134  0.0247 -0.4797  0.3140
 4296SOL     OW14103   1.200   8.161   3.293 -0.2930  0.1958 -0.1666
 4296SOL    HW114104   1.268   8.179   3.229  0.5974 -0.7661  0.4800
 4296SOL    HW214105   1.166   8.075   3.268  0.5594 -0.5199  1.0420
 4297SOL     OW14106   0.465   7.685   2.572 -0.4313  0.4115  0.5799
 4297SOL    HW114107   0.455   7.733   2.654 -1.1501  0.9794  0.1786
 4297SOL    HW214108   0.468   7.593   2.598  2.1648  0.6616  1.4714
 4298SOL     OW14109   0.129   7.524   2.322 -0.0957 -0.5068 -0.3257
 4298SOL    HW114110   0.076   7.479   2.386  0.7253 -1.7267 -0.4679
 4298SOL    HW214111   0.219   7.497   2.342  0.3277  0.3516 -0.9925
 4299SOL     OW14112   1.441   8.531   2.021 -0.0791  0.3820  0.3031
 4299SOL    HW114113   1.535   8.545   2.028  0.0018  0.1888 -0.2851
 4299SOL    HW214114   1.408   8.538   2.110  0.3343  1.5759  0.3848
 4300SOL     OW14115   8.705   7.497   1.843  0.3483  0.0963 -0.2062
 4300SOL    HW114116   8.778   7.495   1.905 -0.6287 -0.9897  0.9580
 4300SOL    HW214117   8.746   7.523   1.760  1.5643  2.4167  1.0108
 4301SOL     OW14118   0.830   7.527   2.354 -0.1107  0.6750 -0.4486
 4301SOL    HW114119   0.768   7.590   2.317  0.4159  1.3364 -0.2298
 4301SOL    HW214120   0.904   7.580   2.383  0.0606  0.0235  0.3494
 4302SOL     OW14121   1.102   8.476   3.172  0.5656 -0.2553 -0.2767
 4302SOL    HW114122   1.143   8.533   3.107  0.4153  0.7588  0.4999
 4302SOL    HW214123   1.171   8.413   3.195  0.5663 -0.7376 -1.5212
 4303SOL     OW14124   1.252   0.036   2.070 -0.3742 -0.4411 -0.0823
 4303SOL    HW114125   1.216   0.120   2.043  0.1772 -0.2525 -0.2358
 4303SOL    HW214126   1.269  -0.010   1.988 -1.2294 -0.9484  0.0083
 4304SOL     OW14127   0.786   8.811   2.798  0.2141 -0.0645 -0.0521
 4304SOL    HW114128   0.749   8.897   2.820  1.4450  0.0099  1.8400
 4304SOL    HW214129   0.765   8.756   2.873 -0.8593 -1.5721 -1.3884
 4305SOL     OW14130   0.752   7.700   2.113  0.0366  0.4443 -0.0933
 4305SOL    HW114131   0.731   7.793   2.116  1.1801  0.7150 -0.0040
 4305SOL    HW214132   0.842   7.697   2.080  0.6185 -0.5309  1.4947
 4306SOL     OW14133   0.472   7.961   3.274  0.4300  0.7569  0.0746
 4306SOL    HW114134   0.433   7.948   3.361  0.1007  0.4863 -0.1110
 4306SOL    HW214135   0.556   8.003   3.292  0.5698  0.2903  0.5571
 4307SOL     OW14136   0.640   7.653   3.269 -0.0548  0.2373  0.3258
 4307SOL    HW114137   0.618   7.678   3.358 -0.7753 -1.8456  0.7930
 4307SOL    HW214138   0.560   7.668   3.219  0.0529  0.5182  0.2399
 4308SOL     OW14139   0.377   7.572   2.864 -0.1778 -0.7250 -0.5449
 4308SOL    HW114140   0.432   7.649   2.848  1.1713 -1.8514 -1.4646
 4308SOL    HW214141   0.353   7.579   2.957  0.2901  0.5498 -0.5046
 4309SOL     OW14142   0.870   7.698   2.871 -0.5973  0.2052  0.3774
 4309SOL    HW114143   0.797   7.640   2.889  0.3030 -1.0958  0.0072
 4309SOL    HW214144   0.887   7.687   2.777 -0.2921  0.9358  0.3379
 4310SOL     OW14145   1.231   8.380   2.909  0.6304  0.5352 -0.2908
 4310SOL    HW114146   1.228   8.297   2.956 -0.9477  0.9810  0.4522
 4310SOL    HW214147   1.177   8.365   2.831  1.3481  0.5060 -0.7914
 4311SOL     OW14148   1.579   8.239   3.115  0.1424  0.4390  0.4641
 4311SOL    HW114149   1.642   8.243   3.186 -0.2817  0.7533  0.8231
 4311SOL    HW214150   1.499   8.277   3.151 -0.1065  0.5011 -0.1432
 4312SOL     OW14151   2.312   7.679   1.784 -0.4600  0.3630 -0.2329
 4312SOL    HW114152   2.392   7.655   1.831 -0.3510  2.0610  0.5350
 4312SOL    HW214153   2.242   7.635   1.831 -0.0934 -0.1437 -0.1530
 4313SOL     OW14154   1.841   8.438   2.432  0.0296 -0.0293 -0.0689
 4313SOL    HW114155   1.822   8.438   2.526 -0.9701 -2.1503 -0.2270
 4313SOL    HW214156   1.883   8.354   2.416  2.3178  1.2349 -1.1855
 4314SOL     OW14157   1.326   8.072   2.120 -0.2197  0.1342 -0.1751
 4314SOL    HW114158   1.303   8.121   2.041 -0.1623 -0.0131 -0.2817
 4314SOL    HW214159   1.403   8.117   2.154 -1.5672  1.6462  1.0771
 4315SOL     OW14160   0.067   7.387   1.986 -0.1583 -0.3062  1.0819
 4315SOL    HW114161   0.080   7.380   2.080  0.9064 -0.6000  0.9248
 4315SOL    HW214162   0.019   7.308   1.962  0.4715 -0.7525  1.2405
 4316SOL     OW14163   2.052   8.163   3.263  0.2244 -0.3983  0.1493
 4316SOL    HW114164   2.123   8.225   3.277  1.5357 -2.2725  2.8139
 4316SOL    HW214165   2.091   8.077   3.281 -2.7324 -1.4920  2.3176
 4317SOL     OW14166   1.042   8.658   2.872 -0.5402  0.1342  0.1453
 4317SOL    HW114167   0.978   8.708   2.821 -2.2461 -1.4886  0.5595
 4317SOL    HW214168   1.097   8.616   2.806  0.1194  1.5216 -0.2216
 4318SOL     OW14169   0.847   8.304   2.530  0.2151  0.4470 -0.7649
 4318SOL    HW114170   0.819   8.374   2.470  0.0308  1.3140  0.3067
 4318SOL    HW214171   0.765   8.261   2.554 -0.0246  1.6244  0.6953
 4319SOL     OW14172   1.621   8.665   2.881 -0.1214 -0.0154  0.8273
 4319SOL    HW114173   1.601   8.748   2.839  0.8160  0.1446  0.6973
 4319SOL    HW214174   1.574   8.600   2.828  0.5395  0.2454 -0.1049
 4320SOL     OW14175   1.266   7.291   3.198 -0.0223  0.1360  0.2144
 4320SOL    HW114176   1.360   7.283   3.215  0.7031  1.8193 -2.3720
 4320SOL    HW214177   1.228   7.212   3.235  2.6214 -1.3581  0.0030
 4321SOL     OW14178   0.578   8.384   3.757 -0.2649 -0.5618  0.1079
 4321SOL    HW114179   0.628   8.311   3.793  0.2205  0.3748  1.4177
 4321SOL    HW214180   0.645   8.440   3.716 -0.3457  0.1473  0.9082
 4322SOL     OW14181   0.754   8.746   2.302 -0.0615 -0.5385 -0.1419
 4322SOL    HW114182   0.676   8.801   2.314  0.2999 -0.2382  0.9770
 4322SOL    HW214183   0.809   8.766   2.378  2.2198  1.0931 -2.0651
 4323SOL     OW14184   0.128   8.305   3.250  0.2422 -0.1176  0.4518
 4323SOL    HW114185   0.076   8.261   3.317  0.9456 -2.1485 -0.2783
 4323SOL    HW214186   0.198   8.244   3.229  0.8555  1.0524 -1.1590
 4324SOL     OW14187   1.897   8.235   3.567  0.3138 -0.7982  0.3927
 4324SOL    HW114188   1.990   8.240   3.541 -0.2951 -0.4116 -1.9400
 4324SOL    HW214189   1.888   8.147   3.604  2.2827  0.2889  3.8613
 4325SOL     OW14190   8.792   0.001   3.265 -0.2471  0.0757 -0.4137
 4325SOL    HW114191   8.709   0.047   3.281  0.2601  0.9478 -0.2245
 4325SOL    HW214192   8.774  -0.090   3.288 -0.9064  0.4200  0.4874
 4326SOL     OW14193   0.189   0.219   2.364  0.1176 -0.0462 -0.0633
 4326SOL    HW114194   0.204   0.221   2.459  1.5711  0.5506 -0.2711
 4326SOL    HW214195   0.121   0.284   2.350 -0.0516 -0.0755  0.5651
 4327SOL     OW14196   8.749   7.701   2.270  0.0796  0.0166  0.4954
 4327SOL    HW114197   8.812   7.629   2.281 -0.4020 -0.5149 -0.1628
 4327SOL    HW214198   8.800   7.780   2.289  0.6944 -0.4675  0.9380
 4328SOL     OW14199   0.749   8.482   2.324 -0.1180  0.1081  0.6085
 4328SOL    HW114200   0.757   8.458   2.232 -1.4926 -1.0232  0.7536
 4328SOL    HW214201   0.745   8.578   2.324 -0.7000  0.0996 -0.5633
 4329SOL     OW14202   1.711   7.985   2.288  0.2777  0.1475  0.3374
 4329SOL    HW114203   1.665   7.913   2.332 -0.1540 -0.6151 -1.2805
 4329SOL    HW214204   1.761   7.942   2.218  0.8517  1.3167  0.0087
 4330SOL     OW14205   0.681   8.104   3.331 -0.1836  0.2191 -0.2381
 4330SOL    HW114206   0.765   8.144   3.308 -0.1780 -0.3272 -1.2443
 4330SOL    HW214207   0.672   8.119   3.425  0.6143  1.0748 -0.2795
 4331SOL     OW14208   2.176   8.142   3.565  0.0311 -0.3712  0.1091
 4331SOL    HW114209   2.186   8.201   3.639  0.9493  0.1745 -0.4292
 4331SOL    HW214210   2.182   8.054   3.602  1.3124 -0.0984  0.5755
 4332SOL     OW14211   1.044   8.011   3.575 -0.5223 -0.3298  0.0184
 4332SOL    HW114212   1.137   8.024   3.556 -0.3413 -1.5893 -0.0089
 4332SOL    HW214213   1.000   8.073   3.517  0.2863  0.0936 -0.1608
 4333SOL     OW14214   0.350   7.744   3.906 -0.0981  0.1395  0.8184
 4333SOL    HW114215   0.380   7.708   3.823 -1.0498 -1.0672  0.9574
 4333SOL    HW214216   0.392   7.689   3.973 -2.8828 -2.0439  1.0102
 4334SOL     OW14217   0.594   8.355   2.632 -0.4961 -0.2274  0.3344
 4334SOL    HW114218   0.534   8.295   2.587 -2.8069  0.2485  2.5144
 4334SOL    HW214219   0.587   8.330   2.724  0.5330  1.6908  0.9764
 4335SOL     OW14220   0.725   7.997   2.707  0.2810 -0.3754  0.1368
 4335SOL    HW114221   0.690   8.061   2.769 -1.4340 -3.6595  2.8771
 4335SOL    HW214222   0.817   8.022   2.696 -0.9174  4.3166 -1.6170
 4336SOL     OW14223   0.606   7.958   2.191  0.3517 -0.2281  0.7314
 4336SOL    HW114224   0.619   7.957   2.286  0.0482  0.9591  0.8026
 4336SOL    HW214225   0.660   8.031   2.161 -0.2732 -0.0129  0.1093
 4337SOL     OW14226   0.557   7.307   3.061  0.4020 -0.0863  0.2068
 4337SOL    HW114227   0.541   7.264   2.977 -1.4212  1.5064 -0.3360
 4337SOL    HW214228   0.537   7.240   3.126 -1.4100 -0.4020 -0.6197
 4338SOL     OW14229   0.001   8.302   2.994  0.0286 -0.6310  0.0582
 4338SOL    HW114230   0.051   8.298   3.075 -1.1116 -3.0628  0.7162
 4338SOL    HW214231   0.062   8.273   2.926  0.3767 -0.6236  0.3640
 4339SOL     OW14232   0.531   7.805   2.815 -0.2914  0.1622 -0.0583
 4339SOL    HW114233   0.598   7.870   2.791 -0.1867  0.6514  1.4547
 4339SOL    HW214234   0.495   7.838   2.897 -1.6978 -0.6349 -0.3392
 4340SOL     OW14235   1.555   8.393   3.466 -0.2758  0.2909 -0.0453
 4340SOL    HW114236   1.643   8.432   3.471 -0.9078  1.6938  0.3996
 4340SOL    HW214237   1.571   8.298   3.474  1.4233  0.2670 -2.6385
 4341SOL     OW14238   0.116   7.359   2.540 -0.0671  0.1917 -0.0626
 4341SOL    HW114239   0.100   7.280   2.488 -0.6679  0.4066 -0.2186
 4341SOL    HW214240   0.174   7.330   2.610 -0.5119 -0.4656  0.0506
 4342SOL     OW14241   1.552   7.750   2.268 -0.3966 -0.1776  0.2233
 4342SOL    HW114242   1.639   7.711   2.258 -0.6540 -0.3696 -1.6531
 4342SOL    HW214243   1.493   7.675   2.275 -0.8070 -0.2350 -2.6190
 4343SOL     OW14244   0.579   7.911   2.465 -0.3890  0.5232 -0.2051
 4343SOL    HW114245   0.642   7.940   2.531  1.8529 -2.5063 -0.8007
 4343SOL    HW214246   0.554   7.823   2.493  0.4596 -0.7641 -3.1239
 4344SOL     OW14247   1.401   8.818   3.226  0.0868  0.3093  0.0747
 4344SOL    HW114248   1.317   8.829   3.270 -0.2905 -0.5851 -0.3986
 4344SOL    HW214249   1.390   8.739   3.173  0.9959  0.5819 -0.5360
 4345SOL     OW14250   0.406   8.146   3.806  0.6462  0.0853  0.6356
 4345SOL    HW114251   0.318   8.143   3.842  0.4099 -2.0076  0.0246
 4345SOL    HW214252   0.428   8.239   3.801 -0.7870  0.5671  2.5283
 4346SOL     OW14253   1.318   7.602   1.904  0.2916  0.1235  0.0206
 4346SOL    HW114254   1.386   7.658   1.865 -1.3099  2.4383  0.3162
 4346SOL    HW214255   1.248   7.601   1.839  1.0653 -3.4823 -0.9530
 4347SOL     OW14256   1.256   8.111   1.683 -0.1818 -0.5803  0.1264
 4347SOL    HW114257   1.186   8.067   1.731  0.1247 -2.1049 -0.7447
 4347SOL    HW214258   1.337   8.074   1.720  0.1685  0.7840  0.7737
 4348SOL     OW14259   0.216   8.265   2.510 -0.0621  0.2811 -0.6000
 4348SOL    HW114260   0.251   8.310   2.587 -0.7819  0.2832 -0.2603
 4348SOL    HW214261   0.128   8.303   2.498 -0.9346 -1.4364  0.0496
 4349SOL     OW14262   0.278   8.009   2.769 -0.0105 -0.1397  0.2370
 4349SOL    HW114263   0.370   8.003   2.795  0.2167  1.6067 -0.0485
 4349SOL    HW214264   0.278   7.996   2.675 -0.1398 -0.7160  0.3115
 4350SOL     OW14265   1.145   7.556   3.343  0.5670 -0.0441 -0.2048
 4350SOL    HW114266   1.188   7.640   3.350 -0.1844  0.3268  0.1129
 4350SOL    HW214267   1.097   7.560   3.260 -1.2361  0.7213  0.8053
 4351SOL     OW14268   1.234   7.344   3.513 -0.0093  0.3054  0.1848
 4351SOL    HW114269   1.217   7.255   3.481  0.2346 -0.8097  2.8373
 4351SOL    HW214270   1.198   7.402   3.446 -2.0515 -1.8040 -0.6806
 4352SOL     OW14271   8.810   0.453   2.278  0.1118  0.2560 -0.4501
 4352SOL    HW114272   8.772   0.428   2.362 -3.4479  2.8042 -1.0700
 4352SOL    HW214273   8.768   0.395   2.214  1.2012 -0.2525 -0.7329
 4353SOL     OW14274   0.598   8.215   2.859  0.2275 -0.1977 -0.5327
 4353SOL    HW114275   0.533   8.241   2.924  0.2213 -1.5214  0.0212
 4353SOL    HW214276   0.680   8.207   2.909  0.3550 -0.6039 -0.8030
 4354SOL     OW14277   0.139   7.990   2.990  1.0320  0.1842  0.1510
 4354SOL    HW114278   0.186   7.945   2.920  1.4184  1.1444 -0.2312
 4354SOL    HW214279   0.051   8.004   2.955  0.7263 -0.7783  0.5023
 4355SOL     OW14280   8.781   8.110   3.971 -0.0712 -0.5550  0.7090
 4355SOL    HW114281   8.761   8.203   3.967  0.4449 -0.4481  0.5226
 4355SOL    HW214282   8.726   8.070   3.903  1.9287  0.0282 -1.3623
 4356SOL     OW14283   0.850   8.587   3.639  0.1033 -0.4799 -0.1669
 4356SOL    HW114284   0.945   8.583   3.628  0.0217 -0.5105 -0.9113
 4356SOL    HW214285   0.816   8.518   3.582 -0.2703 -1.9017  1.6868
 4357SOL     OW14286   0.032   8.038   2.600  0.2067  1.0656  0.0940
 4357SOL    HW114287   0.078   8.052   2.683 -0.7925  0.1016  0.8422
 4357SOL    HW214288   0.088   7.978   2.551 -0.1232  0.0331  0.9277
 4358SOL     OW14289   1.695   7.831   3.279  0.1015  0.5123 -0.4074
 4358SOL    HW114290   1.739   7.903   3.235 -0.8055  0.9364 -0.6581
 4358SOL    HW214291   1.643   7.874   3.348 -0.9552  0.1773 -0.9750
 4359SOL     OW14292   0.836   7.922   3.173  0.5114 -0.1184 -0.1258
 4359SOL    HW114293   0.814   7.829   3.175 -0.0933  0.0248 -0.0964
 4359SOL    HW214294   0.767   7.964   3.224  1.7630  0.1523  1.4087
 4360SOL     OW14295   0.484   7.906   1.947  0.0119 -0.0959 -0.5129
 4360SOL    HW114296   0.527   7.922   2.031 -0.4422 -0.6059 -0.1759
 4360SOL    HW214297   0.550   7.858   1.896 -0.1832 -0.9765  0.0431
 4361SOL     OW14298   0.180   8.579   3.229  0.0150 -0.6849  0.2533
 4361SOL    HW114299   0.241   8.641   3.268  0.6634 -1.1527 -0.0080
 4361SOL    HW214300   0.176   8.506   3.292 -0.7236 -0.4081  0.5483
 4362SOL     OW14301   1.001   8.059   2.726  0.0666  0.2984 -0.1053
 4362SOL    HW114302   1.052   7.985   2.757  0.1461 -0.1879 -1.3264
 4362SOL    HW214303   1.066   8.120   2.691  0.0266  1.1102  1.2001
 4363SOL     OW14304   1.054   8.313   2.192  0.4452 -0.4297 -0.3008
 4363SOL    HW114305   1.074   8.264   2.272  1.8244 -1.0327 -0.9727
 4363SOL    HW214306   1.043   8.403   2.222 -1.2731 -0.9635  0.8386
 4364SOL     OW14307   8.813   8.451   2.559 -0.0354  0.1301 -0.0938
 4364SOL    HW114308   8.783   8.448   2.650 -0.1217  1.8030 -0.0295
 4364SOL    HW214309   8.732   8.459   2.508  0.0926  1.6390 -0.1194
 4365SOL     OW14310   1.783   7.590   2.269  0.4878  0.3340 -0.8438
 4365SOL    HW114311   1.802   7.517   2.210 -1.3458  0.3202 -1.4912
 4365SOL    HW214312   1.783   7.550   2.356 -0.6961 -0.5164 -1.2105
 4366SOL     OW14313   1.253   8.160   2.641  0.0829  0.3465  0.0642
 4366SOL    HW114314   1.330   8.126   2.595  0.7390  1.9720 -0.1169
 4366SOL    HW214315   1.266   8.255   2.643 -2.5163  0.8113 -1.0424
 4367SOL     OW14316   0.733   8.677   3.033  0.0841 -0.5039 -0.0182
 4367SOL    HW114317   0.797   8.733   3.076  0.4232 -0.1924 -0.9125
 4367SOL    HW214318   0.762   8.588   3.054  1.3402 -0.3895 -1.1320
 4368SOL     OW14319   1.436   8.040   2.497 -0.2014 -0.2050  0.3474
 4368SOL    HW114320   1.402   7.956   2.465 -1.6492 -0.1393  1.5516
 4368SOL    HW214321   1.511   8.059   2.441  0.3988 -2.4744  0.2719
 4369SOL     OW14322   8.685   7.388   2.572  0.1955 -0.5765  0.6786
 4369SOL    HW114323   8.670   7.304   2.616  0.1592 -1.4297 -0.8749
 4369SOL    HW214324   8.780   7.393   2.561  0.2697  0.0015  1.5134
 4370SOL     OW14325   0.865   8.091   2.944  0.9981  0.3686  0.4504
 4370SOL    HW114326   0.883   8.026   3.012 -1.0303 -1.2418 -0.4452
 4370SOL    HW214327   0.922   8.067   2.871  1.0372  0.2918  0.5063
 4371SOL     OW14328   0.799   8.132   2.144  0.0312  0.3357  0.0858
 4371SOL    HW114329   0.830   8.110   2.056 -0.1571 -0.4778  0.2154
 4371SOL    HW214330   0.853   8.206   2.171  2.0754 -1.1917  0.4207
 4372SOL     OW14331   8.575   8.511   3.559 -0.1328  0.3371 -0.0501
 4372SOL    HW114332   8.500   8.475   3.607  0.4656 -1.0847 -0.1300
 4372SOL    HW214333   8.538   8.539   3.475 -0.6130 -0.1678 -0.0137
 4373SOL     OW14334   1.377   8.581   3.562  0.1936 -0.5310  0.5571
 4373SOL    HW114335   1.427   8.510   3.521  1.8187  1.3929 -0.9407
 4373SOL    HW214336   1.423   8.597   3.645  0.7122 -0.2567  0.2187
 4374SOL     OW14337   0.887   0.200   2.315 -0.1830  0.1974 -0.2456
 4374SOL    HW114338   0.835   0.191   2.235 -0.2135 -1.1702 -0.1125
 4374SOL    HW214339   0.843   0.143   2.378 -0.2575  1.3834  0.8079
 4375SOL     OW14340   1.366   7.475   2.979  0.4100  0.1594 -0.5786
 4375SOL    HW114341   1.455   7.444   2.961  0.0671 -0.5802 -1.0748
 4375SOL    HW214342   1.355   7.460   3.073  1.1498  1.1917 -0.3108
 4376SOL     OW14343   1.638   7.881   3.551  0.2179 -0.3874  0.1909
 4376SOL    HW114344   1.712   7.857   3.608 -0.9355 -0.3804  1.7538
 4376SOL    HW214345   1.573   7.813   3.567 -0.2603 -0.2050 -0.9099
 4377SOL     OW14346   0.151   8.461   3.611 -0.0999  0.0539  0.5720
 4377SOL    HW114347   0.202   8.516   3.671  0.9544  0.9211 -1.0072
 4377SOL    HW214348   0.218   8.420   3.555 -1.0397 -0.1996 -0.3978
 4378SOL     OW14349   1.161   7.169   2.919 -0.1430 -0.7926 -0.3154
 4378SOL    HW114350   1.095   7.151   2.985 -0.5650  0.8870 -0.2444
 4378SOL    HW214351   1.242   7.135   2.957 -0.3284  0.3396  1.1925
 4379SOL     OW14352   0.218   7.730   1.895 -0.3109  0.1719  0.0968
 4379SOL    HW114353   0.220   7.644   1.852  0.2369 -0.4600  1.3414
 4379SOL    HW214354   0.283   7.723   1.964 -1.5687  0.9654  1.3934
 4380SOL     OW14355   1.397   8.403   3.228 -0.6125  0.0264  0.0485
 4380SOL    HW114356   1.383   8.484   3.180  2.5146 -0.6718 -2.3752
 4380SOL    HW214357   1.441   8.430   3.309  1.2723  0.8053 -1.1624
 4381SOL     OW14358   8.530   7.899   1.581 -0.1292  0.1932 -0.1058
 4381SOL    HW114359   8.602   7.844   1.552  0.8333  1.6944 -0.6711
 4381SOL    HW214360   8.524   7.883   1.676 -0.2518 -1.2596 -0.3364
 4382SOL     OW14361   0.531   8.464   3.262 -0.0630  0.2545 -0.0936
 4382SOL    HW114362   0.484   8.423   3.189  1.4265  1.3695 -1.7677
 4382SOL    HW214363   0.530   8.557   3.243 -0.9553  0.7866  2.1800
 4383SOL     OW14364   0.923   8.232   3.388 -0.5666  0.3129 -0.0083
 4383SOL    HW114365   0.889   8.300   3.445 -0.3324  1.1893 -0.8890
 4383SOL    HW214366   0.997   8.273   3.343  1.2933 -1.3110  1.3528
 4384SOL     OW14367   1.059   8.261   3.737 -0.2978  0.0051 -0.3995
 4384SOL    HW114368   1.113   8.250   3.658 -0.6847  0.4427 -0.7332
 4384SOL    HW214369   1.097   8.200   3.801 -0.4861 -0.9660 -1.1825
 4385SOL     OW14370   1.509   8.358   2.814  0.1695 -0.2018 -0.0321
 4385SOL    HW114371   1.438   8.373   2.876  2.1760  2.0905  1.8949
 4385SOL    HW214372   1.556   8.282   2.849  0.2068 -0.0739  0.1953
 4386SOL     OW14373   1.028   7.189   2.406  0.4969 -0.6385  0.8979
 4386SOL    HW114374   0.937   7.204   2.432  0.4311  2.7173 -0.6562
 4386SOL    HW214375   1.042   7.250   2.333  3.7963 -1.5773  0.5918
 4387SOL     OW14376   0.481   8.164   2.460 -0.1603  0.0655 -0.7229
 4387SOL    HW114377   0.387   8.161   2.480 -0.2370 -1.5247 -1.1737
 4387SOL    HW214378   0.514   8.078   2.488  1.5409  1.2400  1.1220
 4388SOL     OW14379   1.808   8.036   3.826 -0.5098 -0.0812  0.2125
 4388SOL    HW114380   1.874   7.996   3.770  0.2141  0.1425  0.8823
 4388SOL    HW214381   1.767   7.962   3.871 -0.2919 -0.1828  0.2444
 4389SOL     OW14382   1.747   8.180   2.886 -0.0515 -0.4264  0.7638
 4389SOL    HW114383   1.687   8.182   2.961 -0.6212  0.1255  0.3100
 4389SOL    HW214384   1.830   8.211   2.920 -1.1058  3.0747  0.5144
 4390SOL     OW14385   1.055   8.784   1.672 -0.0561  0.4698 -0.0546
 4390SOL    HW114386   1.059   8.859   1.613  0.6084 -0.2496 -0.9554
 4390SOL    HW214387   0.995   8.811   1.741 -2.2180  0.7524 -1.9032
 4391SOL     OW14388   0.879   8.809   2.534 -0.1427 -0.3447 -0.4079
 4391SOL    HW114389   0.806   8.826   2.594 -0.4412  0.5213 -0.9867
 4391SOL    HW214390   0.957   8.810   2.589 -0.4058  0.5145 -0.0424
 4392SOL     OW14391   0.513   8.347   1.918  0.2573 -0.5161  0.1331
 4392SOL    HW114392   0.574   8.421   1.923 -1.1390  0.7931 -1.0432
 4392SOL    HW214393   0.566   8.274   1.886  1.6021  0.0401  1.0060
 4393SOL     OW14394   0.010   0.327   3.426 -0.0805 -0.3213 -0.0950
 4393SOL    HW114395   0.054   0.292   3.348 -1.0624 -0.4571 -0.6056
 4393SOL    HW214396   0.042   0.417   3.434  1.8874 -1.0471  0.7862
 4394SOL     OW14397   8.577   8.432   2.414  0.2786  0.0211  0.7022
 4394SOL    HW114398   8.547   8.421   2.324  0.6229 -3.5048  0.8811
 4394SOL    HW214399   8.518   8.498   2.451 -0.4857  0.8534 -1.7927
 4395SOL     OW14400   0.360   8.713   3.371  0.1377 -0.9266 -0.1045
 4395SOL    HW114401   0.358   8.724   3.466 -2.1641  0.1337 -0.2103
 4395SOL    HW214402   0.452   8.725   3.347  0.3911  1.4809  1.7246
 4396SOL     OW14403   1.706   7.759   2.956 -0.2185 -0.0236  0.3677
 4396SOL    HW114404   1.645   7.814   2.906  0.5262 -0.2508 -0.8283
 4396SOL    HW214405   1.753   7.821   3.012 -0.7061  0.3078  0.4208
 4397SOL     OW14406   0.000   8.044   1.960  0.0603  0.4993  0.2694
 4397SOL    HW114407   0.079   8.065   2.011  0.2396  3.9808 -1.1923
 4397SOL    HW214408  -0.003   7.949   1.960  1.8236  0.2546  4.0126
 4398SOL     OW14409   1.547   0.225   3.209  0.2050  0.0338 -0.1890
 4398SOL    HW114410   1.477   0.161   3.198 -0.2688  0.7072 -1.2516
 4398SOL    HW214411   1.619   0.192   3.156 -0.4275  0.9001 -1.6521
 4399SOL     OW14412   0.400   7.555   3.146 -0.3131  0.4606  0.3741
 4399SOL    HW114413   0.372   7.541   3.237 -0.6221  0.6293  0.3044
 4399SOL    HW214414   0.427   7.468   3.116  1.1621  0.6476  1.0793
 4400SOL     OW14415   1.430   7.732   3.251 -0.4851  0.7111 -0.6102
 4400SOL    HW114416   1.524   7.741   3.270 -0.2369 -1.3893 -0.6589
 4400SOL    HW214417   1.387   7.757   3.333  0.2404 -0.6714  0.2231
 4401SOL     OW14418   1.308   7.743   3.001 -0.0257 -0.1377  0.2752
 4401SOL    HW114419   1.332   7.651   2.990  1.2711  0.0648  1.1906
 4401SOL    HW214420   1.357   7.771   3.078 -2.5369  0.5965  1.7272
 4402SOL     OW14421   0.536   0.020   2.060 -0.5540  0.0223 -0.4770
 4402SOL    HW114422   0.527  -0.062   2.109 -1.1937 -0.0127 -0.6501
 4402SOL    HW214423   0.596   0.073   2.113 -0.7401 -0.2606  0.0243
 4403SOL     OW14424   1.412   7.234   2.167  0.4281  0.2706 -0.3129
 4403SOL    HW114425   1.409   7.139   2.178 -2.3534  0.3577  0.2690
 4403SOL    HW214426   1.416   7.247   2.072 -2.9793 -0.5091 -0.6714
 4404SOL     OW14427   1.107   7.938   2.214 -0.1565 -0.3427 -0.6334
 4404SOL    HW114428   1.178   7.974   2.160 -0.7184 -0.8691 -1.7516
 4404SOL    HW214429   1.089   8.007   2.278 -0.9556  1.2628 -2.4720
 4405SOL     OW14430   1.390   7.536   2.192 -0.3555  0.5006  0.1408
 4405SOL    HW114431   1.394   7.577   2.106  1.9468  0.3683  0.1273
 4405SOL    HW214432   1.411   7.444   2.176  1.9498  0.8199  0.9906
 4406SOL     OW14433   0.097   8.629   2.410 -0.2648 -0.0022  0.7699
 4406SOL    HW114434   0.038   8.653   2.339  0.7171  0.2980  0.0329
 4406SOL    HW214435   0.044   8.574   2.468 -1.6330  1.2986  0.8152
 4407SOL     OW14436   0.382   8.366   4.111 -0.0249  0.1659  0.3457
 4407SOL    HW114437   0.302   8.316   4.128 -0.0755  0.2608  0.3872
 4407SOL    HW214438   0.366   8.409   4.027  0.1465 -0.1453  0.1536
 4408SOL     OW14439   8.652   8.101   4.656 -0.1243  0.1879  0.4181
 4408SOL    HW114440   8.680   8.160   4.586  0.2463 -2.8009 -2.1673
 4408SOL    HW214441   8.559   8.120   4.668  0.1135  1.6479  0.0837
 4409SOL     OW14442   8.694   7.771   4.497  0.5303  0.7301  0.5706
 4409SOL    HW114443   8.635   7.807   4.431 -0.1147  0.7536  1.1553
 4409SOL    HW214444   8.692   7.677   4.483  0.0881  0.7024  0.8046
 4410SOL     OW14445   0.634   8.655   4.712  0.3159  0.3201 -0.3767
 4410SOL    HW114446   0.597   8.633   4.626  0.2828  1.2345 -0.6106
 4410SOL    HW214447   0.709   8.596   4.722  1.0303  0.9952 -1.5667
 4411SOL     OW14448   2.172   0.512   4.183 -0.1597 -0.0917  0.2758
 4411SOL    HW114449   2.119   0.556   4.116 -0.8053 -0.4816  0.5233
 4411SOL    HW214450   2.257   0.555   4.177 -0.2059 -0.1130 -0.7890
 4412SOL     OW14451   0.783   8.155   5.068 -0.3093  0.1917 -0.0245
 4412SOL    HW114452   0.872   8.122   5.054 -0.5490 -0.8026  0.6544
 4412SOL    HW214453   0.775   8.230   5.009  0.9777  0.2934 -0.0918
 4413SOL     OW14454   1.869   8.343   4.176 -0.4063  0.4673  0.6153
 4413SOL    HW114455   1.911   8.360   4.261  0.3760  1.2932  0.0858
 4413SOL    HW214456   1.807   8.272   4.193  0.2173  0.1720  1.7336
 4414SOL     OW14457   0.744   0.274   4.455 -0.1677 -0.1156  0.1969
 4414SOL    HW114458   0.703   0.226   4.382  0.8474 -0.3697 -0.2162
 4414SOL    HW214459   0.835   0.246   4.454  0.5392  2.0221 -0.2333
 4415SOL     OW14460   0.669   8.225   6.317  0.1176  0.1401 -0.2189
 4415SOL    HW114461   0.712   8.195   6.236 -0.2184  0.0400 -0.3633
 4415SOL    HW214462   0.712   8.308   6.337  0.1259  0.2240 -0.5664
 4416SOL     OW14463   1.228   8.650   4.665  0.1959 -0.0349  0.6709
 4416SOL    HW114464   1.280   8.583   4.621 -1.0308 -0.7259  0.2151
 4416SOL    HW214465   1.236   8.727   4.610  1.7259  0.2572  1.2667
 4417SOL     OW14466   0.557   8.771   5.866  0.7418  0.7452  0.4495
 4417SOL    HW114467   0.559   8.816   5.951  2.4580 -0.0002  0.8440
 4417SOL    HW214468   0.555   8.842   5.802  0.4072  1.3261  1.0834
 4418SOL     OW14469   0.441   8.728   4.905 -0.0706 -0.2787  0.3121
 4418SOL    HW114470   0.449   8.647   4.955  1.6144 -0.6429 -0.4715
 4418SOL    HW214471   0.524   8.736   4.858 -1.0875  0.7112 -1.4328
 4419SOL     OW14472   0.448   8.102   5.556  0.1614  0.1559 -0.7919
 4419SOL    HW114473   0.439   8.158   5.478  1.6903  0.5037 -0.7450
 4419SOL    HW214474   0.440   8.013   5.522 -1.6607  0.3417 -0.9579
 4420SOL     OW14475   1.230   7.617   4.390 -0.1453 -0.2680  0.0521
 4420SOL    HW114476   1.284   7.619   4.468 -3.4201 -0.5727  2.5447
 4420SOL    HW214477   1.198   7.527   4.385 -2.5112  0.4857  0.3472
 4421SOL     OW14478   0.886   8.662   5.460 -0.1747  0.1119  0.0293
 4421SOL    HW114479   0.868   8.657   5.554 -2.1191 -0.2032 -0.3083
 4421SOL    HW214480   0.914   8.573   5.437 -0.8367 -0.1397  0.1406
 4422SOL     OW14481   0.702   0.098   4.194  0.4398  0.2477 -0.1404
 4422SOL    HW114482   0.737   0.014   4.223  0.8695  0.6533  0.5278
 4422SOL    HW214483   0.779   0.147   4.166  0.0133 -0.4250 -2.8741
 4423SOL     OW14484   0.861   8.135   4.471  0.3889 -0.0000  0.1119
 4423SOL    HW114485   0.807   8.198   4.423 -1.0337 -2.5364 -1.8822
 4423SOL    HW214486   0.865   8.170   4.560 -1.0652  2.4063 -0.6602
 4424SOL     OW14487   1.788   7.656   5.548 -0.3846  0.6703  0.7917
 4424SOL    HW114488   1.707   7.643   5.598 -0.5085 -1.7158  0.1148
 4424SOL    HW214489   1.759   7.693   5.465 -0.7521  0.1431  0.6802
 4425SOL     OW14490   8.815   8.594   4.191 -0.3879 -0.2580  0.6115
 4425SOL    HW114491   8.759   8.518   4.181 -0.7941  0.1329 -0.1628
 4425SOL    HW214492   8.889   8.577   4.132  0.6585 -1.0543  2.0745
 4426SOL     OW14493   1.613   8.328   4.449 -0.3719 -0.2988  0.1905
 4426SOL    HW114494   1.595   8.270   4.375  0.5458 -0.4726  0.0919
 4426SOL    HW214495   1.677   8.390   4.415 -1.6204  1.0317  0.1808
 4427SOL     OW14496   1.401   8.467   3.919 -0.5481  0.2490  0.3597
 4427SOL    HW114497   1.338   8.507   3.980 -0.9950 -0.1652  0.1775
 4427SOL    HW214498   1.481   8.458   3.971 -0.8108  0.2445  0.7757
 4428SOL     OW14499   0.228   8.411   5.287  0.5084  0.0736 -0.6725
 4428SOL    HW114500   0.211   8.374   5.200  0.2066 -0.8758 -0.2195
 4428SOL    HW214501   0.151   8.389   5.338  0.0215  1.9353 -0.5560
 4429SOL     OW14502   0.998   0.212   4.445 -0.0905  0.2930 -0.0324
 4429SOL    HW114503   1.036   0.132   4.480  0.6247  0.1059 -1.1923
 4429SOL    HW214504   1.049   0.231   4.367 -0.7700  1.4433 -0.2256
 4430SOL     OW14505   1.242   8.658   5.493  0.5184  0.4619  0.2530
 4430SOL    HW114506   1.311   8.593   5.506  0.5062  0.1948 -0.8951
 4430SOL    HW214507   1.215   8.647   5.402 -2.6503 -1.0360  1.2089
 4431SOL     OW14508   1.040   7.551   4.155  0.4883  0.4067  0.1768
 4431SOL    HW114509   0.974   7.618   4.171  0.0812  0.0909 -0.1499
 4431SOL    HW214510   1.015   7.478   4.211  0.4494  0.2167 -0.0842
 4432SOL     OW14511   8.752   8.226   5.020  0.6633 -0.0708 -0.0816
 4432SOL    HW114512   8.759   8.164   4.947  0.3065  0.5520 -0.6578
 4432SOL    HW214513   8.685   8.288   4.992  0.0072 -0.2178  1.0827
 4433SOL     OW14514   1.184   8.333   4.160 -0.2717 -0.0589  1.2203
 4433SOL    HW114515   1.113   8.270   4.149 -1.7701  1.7148 -0.0462
 4433SOL    HW214516   1.264   8.281   4.156 -1.4428 -1.8961  0.6220
 4434SOL     OW14517   0.778   7.727   5.828 -0.4105  0.1294  0.0971
 4434SOL    HW114518   0.800   7.702   5.917  0.5591 -1.5787 -0.5608
 4434SOL    HW214519   0.695   7.775   5.835  0.4930  1.5251  2.0530
 4435SOL     OW14520   1.062   0.006   5.011  0.1139  0.5706 -0.1012
 4435SOL    HW114521   1.066   0.091   5.055 -2.2747  0.6140  0.1607
 4435SOL    HW214522   1.027  -0.053   5.078 -0.2842 -0.1366 -0.9167
 4436SOL     OW14523   0.775   8.250   4.118 -0.3119 -0.0141 -0.1469
 4436SOL    HW114524   0.869   8.236   4.108 -0.3021 -0.0071 -0.0644
 4436SOL    HW214525   0.745   8.273   4.030 -0.0437  1.0976  0.0258
 4437SOL     OW14526   1.377   8.060   5.118 -0.1377 -0.3118  0.4290
 4437SOL    HW114527   1.288   8.025   5.116  0.4575 -1.9519  1.1730
 4437SOL    HW214528   1.433   7.983   5.123  1.2968  0.7187  0.8438
 4438SOL     OW14529   0.400   7.900   4.836 -0.3415 -0.1348 -0.7082
 4438SOL    HW114530   0.448   7.821   4.813  0.8906  0.0937  0.9358
 4438SOL    HW214531   0.446   7.971   4.792 -0.6682 -0.1833 -1.1320
 4439SOL     OW14532   1.187   7.848   5.633  0.0173 -0.0432 -0.2125
 4439SOL    HW114533   1.221   7.772   5.679 -2.2058  0.2135  2.1140
 4439SOL    HW214534   1.261   7.909   5.629  0.8615 -0.9160  1.1927
 4440SOL     OW14535   0.771   8.322   5.707  0.2468  0.9622  0.3580
 4440SOL    HW114536   0.701   8.268   5.746 -0.1936  0.1467 -1.4386
 4440SOL    HW214537   0.767   8.405   5.755 -2.0203  0.9609  0.2797
 4441SOL     OW14538   1.140   7.943   5.075 -0.3361  0.3224 -0.2806
 4441SOL    HW114539   1.136   7.926   5.169 -0.7262 -2.6226 -0.7196
 4441SOL    HW214540   1.062   7.900   5.039 -0.6277  2.0746 -1.8821
 4442SOL     OW14541   1.170   7.878   4.378 -0.0217  0.6149 -0.5602
 4442SOL    HW114542   1.180   7.787   4.351  0.7029  0.3955  0.4207
 4442SOL    HW214543   1.151   7.874   4.472  0.0077  1.4783 -0.5060
 4443SOL     OW14544   0.403   8.426   4.600 -0.1108 -0.2948 -0.2120
 4443SOL    HW114545   0.358   8.423   4.685 -1.7030 -0.0662 -1.0124
 4443SOL    HW214546   0.380   8.343   4.558  0.2285 -0.1731 -0.6498
 4444SOL     OW14547   0.569   7.908   4.249 -0.7324  0.7247  0.1731
 4444SOL    HW114548   0.572   7.911   4.153 -0.4644  0.1016  0.1597
 4444SOL    HW214549   0.520   7.986   4.274 -1.0181  0.7583 -0.4864
 4445SOL     OW14550   1.674   7.938   5.747 -0.5671  0.1854  0.2934
 4445SOL    HW114551   1.682   7.897   5.833 -0.7317 -1.0933 -0.2842
 4445SOL    HW214552   1.605   8.004   5.758 -1.2805 -0.6475  0.8815
 4446SOL     OW14553   1.739   8.656   4.590  0.0219 -0.1639 -0.3681
 4446SOL    HW114554   1.711   8.576   4.633  1.1933 -0.6848 -0.5226
 4446SOL    HW214555   1.668   8.718   4.604  1.3161  0.6244  4.6474
 4447SOL     OW14556   0.583   8.070   4.730 -0.2286 -0.4746  1.1241
 4447SOL    HW114557   0.630   8.019   4.664 -1.1462 -1.4450  1.1943
 4447SOL    HW214558   0.645   8.139   4.755  0.7354 -1.0538  0.4246
 4448SOL     OW14559   1.752   0.015   4.847 -0.0829 -0.4690 -0.0604
 4448SOL    HW114560   1.794   0.087   4.799 -0.2235 -0.3317  0.0220
 4448SOL    HW214561   1.825  -0.036   4.882  0.0527 -1.2279 -1.3752
 4449SOL     OW14562   0.666   8.658   4.013 -0.0203 -0.0710  0.1382
 4449SOL    HW114563   0.650   8.682   4.104 -1.6009  2.6781 -0.7321
 4449SOL    HW214564   0.579   8.635   3.979  0.7186 -2.2086 -0.4451
 4450SOL     OW14565   1.730   8.055   4.508 -0.1984 -0.1110 -0.1411
 4450SOL    HW114566   1.664   7.986   4.516  0.8811 -1.2939 -1.0070
 4450SOL    HW214567   1.679   8.136   4.508 -1.5400 -0.9094  0.5215
 4451SOL     OW14568   0.449   8.585   5.346 -0.4095  0.2073  0.3196
 4451SOL    HW114569   0.516   8.544   5.291  1.4144 -1.2976  3.3886
 4451SOL    HW214570   0.372   8.530   5.336 -0.0385 -0.1721 -0.5192
 4452SOL     OW14571   0.181   7.733   4.935 -0.1702 -0.2997  0.1031
 4452SOL    HW114572   0.130   7.773   4.864 -0.2471  1.0197  0.8687
 4452SOL    HW214573   0.268   7.773   4.927  0.0139 -0.6480  0.3447
 4453SOL     OW14574   1.118   8.550   3.657 -0.2515  0.1184 -0.1116
 4453SOL    HW114575   1.209   8.554   3.628  0.4077  2.7324  1.9342
 4453SOL    HW214576   1.111   8.466   3.703  0.9927 -0.2755 -0.5935
 4454SOL     OW14577   1.690   7.792   3.918 -0.1262 -0.1287 -0.0860
 4454SOL    HW114578   1.615   7.749   3.878  0.7494 -0.2424 -1.6750
 4454SOL    HW214579   1.762   7.730   3.907  0.5205  0.5527  0.1746
 4455SOL     OW14580   0.537   8.203   4.247  0.0697 -0.1953  0.8338
 4455SOL    HW114581   0.477   8.262   4.202 -0.3258 -1.4041 -0.3091
 4455SOL    HW214582   0.623   8.223   4.211  0.4231  1.5642  2.4995
 4456SOL     OW14583   1.914   7.619   5.787  0.3432  0.2436 -0.0468
 4456SOL    HW114584   1.890   7.631   5.695 -0.5277 -0.3719  0.0872
 4456SOL    HW214585   1.831   7.603   5.831  0.8596 -0.5265  0.6722
 4457SOL     OW14586   0.970   7.702   3.838  0.2339 -1.1130 -0.0020
 4457SOL    HW114587   1.003   7.634   3.780  1.1384  2.1687 -3.7163
 4457SOL    HW214588   0.880   7.718   3.808  0.7682  0.7599 -0.7302
 4458SOL     OW14589   0.906   7.619   5.613 -0.7905  0.7175  0.6005
 4458SOL    HW114590   0.853   7.651   5.686 -1.0745  0.6333  0.4338
 4458SOL    HW214591   0.861   7.540   5.584 -2.0963  2.0678 -1.2529
 4459SOL     OW14592   0.938   8.399   5.346  0.0899 -0.4029  0.1910
 4459SOL    HW114593   0.856   8.352   5.365  0.8806 -2.0817 -0.2913
 4459SOL    HW214594   1.001   8.364   5.409  0.1745  1.8351  1.4357
 4460SOL     OW14595   0.828   7.716   4.115 -0.1688 -0.5905  0.1546
 4460SOL    HW114596   0.883   7.752   4.045 -2.1087  1.0732 -0.6190
 4460SOL    HW214597   0.798   7.792   4.163 -1.2867 -1.4831  0.9272
 4461SOL     OW14598   0.695   7.472   4.084 -0.3237  0.1919 -0.1502
 4461SOL    HW114599   0.729   7.561   4.083  0.2708 -0.0069  0.9850
 4461SOL    HW214600   0.771   7.416   4.070 -0.5982 -0.1582 -0.2635
 4462SOL     OW14601   1.179   8.774   3.406 -0.4366 -0.0515 -0.2325
 4462SOL    HW114602   1.111   8.817   3.459  1.1725  0.2353  1.6962
 4462SOL    HW214603   1.234   8.729   3.470  1.7445  0.5023 -1.6219
 4463SOL     OW14604   0.638   7.656   3.788 -0.4119 -0.1718  0.1900
 4463SOL    HW114605   0.619   7.601   3.863  1.3668  0.4323  1.1518
 4463SOL    HW214606   0.681   7.598   3.725  1.6952  0.0975  1.3064
 4464SOL     OW14607   0.776   8.225   3.820 -0.0517  0.2547  0.2819
 4464SOL    HW114608   0.772   8.131   3.833 -2.5650  0.0077 -1.4396
 4464SOL    HW214609   0.868   8.244   3.800 -0.0197 -2.4112 -2.7967
 4465SOL     OW14610   0.998   8.236   5.579  0.3405  0.3919  0.4222
 4465SOL    HW114611   0.938   8.297   5.621  1.3019  0.3593  1.9127
 4465SOL    HW214612   0.966   8.149   5.604  0.7644  0.3665  0.8987
 4466SOL     OW14613   1.632   0.237   5.026 -0.3938  0.1085 -0.5527
 4466SOL    HW114614   1.581   0.311   4.995 -1.1201  0.2134  0.8053
 4466SOL    HW214615   1.720   0.272   5.041 -0.8597  0.8371  0.5613
 4467SOL     OW14616   0.843   8.451   4.402 -0.5271 -0.4832  0.4662
 4467SOL    HW114617   0.751   8.479   4.393  0.0552  1.4851 -0.0258
 4467SOL    HW214618   0.890   8.506   4.340  0.6762 -3.5026 -1.5109
 4468SOL     OW14619   1.271   8.195   3.562 -0.4811  0.0132  0.1810
 4468SOL    HW114620   1.367   8.188   3.560 -0.1267  3.3290 -1.4250
 4468SOL    HW214621   1.245   8.192   3.470 -2.1232 -1.8809  0.6398
 4469SOL     OW14622   0.168   8.004   5.203 -0.2548  0.3534  0.2566
 4469SOL    HW114623   0.191   8.082   5.253  0.0461  0.8628 -0.6596
 4469SOL    HW214624   0.169   8.033   5.111  1.5486 -1.1214 -0.2383
 4470SOL     OW14625   0.177   8.051   4.927 -0.3571  0.4736 -0.5745
 4470SOL    HW114626   0.252   7.992   4.923 -1.2468 -0.9881  1.9301
 4470SOL    HW214627   0.127   8.031   4.848  0.4962 -0.5303 -0.8843
 4471SOL     OW14628   0.938   7.963   4.275  0.1453 -0.4670  0.2346
 4471SOL    HW114629   0.902   8.024   4.339 -0.7765 -0.8754  0.1232
 4471SOL    HW214630   1.026   7.945   4.306 -0.5826 -1.3568  1.9193
 4472SOL     OW14631   1.175   7.247   4.184 -0.4042 -0.2816  0.1358
 4472SOL    HW114632   1.200   7.285   4.267  1.2421  2.1604 -1.3556
 4472SOL    HW214633   1.177   7.320   4.122 -0.8545 -2.1111 -2.1992
 4473SOL     OW14634   1.471   0.063   4.866  0.0486  0.0692  0.1577
 4473SOL    HW114635   1.445   0.085   4.956 -0.1105  2.6920 -0.4472
 4473SOL    HW214636   1.567   0.068   4.867  0.0267  0.5105  0.0911
 4474SOL     OW14637   1.466   7.976   4.816 -0.0490  0.2911  0.1702
 4474SOL    HW114638   1.541   7.926   4.783  0.7485  1.1403  0.6250
 4474SOL    HW214639   1.404   7.910   4.846  0.4634 -0.4382 -0.3375
 4475SOL     OW14640   2.048   8.620   3.986  0.0450 -0.6779 -0.3748
 4475SOL    HW114641   2.113   8.559   3.951 -1.0075 -1.8906 -0.2739
 4475SOL    HW214642   2.040   8.598   4.078 -3.1469 -3.1604 -1.0522
 4476SOL     OW14643   1.499   0.043   4.335 -0.2877  0.3131 -0.5427
 4476SOL    HW114644   1.419   0.034   4.284 -0.3056  0.5985 -0.5638
 4476SOL    HW214645   1.567   0.003   4.280  0.3312  3.4872 -2.3085
 4477SOL     OW14646   1.632   8.165   4.204  0.0517 -0.0610  0.0609
 4477SOL    HW114647   1.582   8.182   4.124 -0.0016  1.1456  0.3437
 4477SOL    HW214648   1.651   8.071   4.200 -1.8162 -0.4753 -0.2991
 4478SOL     OW14649   0.530   7.933   3.959 -0.1138  0.0288  0.0178
 4478SOL    HW114650   0.450   7.883   3.944 -0.0094 -0.1635  0.0995
 4478SOL    HW214651   0.508   8.022   3.931 -0.5045  0.0827  0.4719
 4479SOL     OW14652   1.727   8.352   5.390  0.5137 -0.5502 -0.0293
 4479SOL    HW114653   1.715   8.350   5.485 -0.5116 -1.6408 -0.1756
 4479SOL    HW214654   1.816   8.318   5.377  0.6111 -0.5202  0.5139
 4480SOL     OW14655   0.929   8.748   5.199 -0.3730 -0.1580  0.2132
 4480SOL    HW114656   0.853   8.801   5.221  2.3538  4.1687  0.5283
 4480SOL    HW214657   0.964   8.720   5.283  0.6183  1.6228  0.4586
 4481SOL     OW14658   1.138   8.487   5.088  0.0833  0.3157  0.4154
 4481SOL    HW114659   1.081   8.538   5.030  0.7759  0.0684 -0.5221
 4481SOL    HW214660   1.082   8.416   5.119 -0.1566  0.1195 -0.4241
 4482SOL     OW14661   1.626   8.490   4.777 -0.4789  0.1703 -0.5807
 4482SOL    HW114662   1.586   8.403   4.778  0.8606 -0.4896  0.7015
 4482SOL    HW214663   1.576   8.539   4.842 -1.5325  0.5349 -1.6324
 4483SOL     OW14664   0.858   7.774   5.012  0.0261 -0.1021 -0.2365
 4483SOL    HW114665   0.824   7.825   5.085  0.3826  1.5020 -1.1392
 4483SOL    HW214666   0.822   7.817   4.934 -0.2187 -1.6695 -1.0113
 4484SOL     OW14667   0.876   8.733   5.727 -0.6956  0.6273  0.2453
 4484SOL    HW114668   0.950   8.761   5.781  0.5290  0.1369 -1.1209
 4484SOL    HW214669   0.817   8.688   5.788  1.8274 -2.1669  0.8216
 4485SOL     OW14670   0.992   8.162   4.831  0.2366  0.1978 -0.1646
 4485SOL    HW114671   1.080   8.181   4.862  0.2465  0.5025 -0.3816
 4485SOL    HW214672   0.966   8.239   4.781 -0.2077  0.1734  0.0156
 4486SOL     OW14673   0.099   8.339   4.624  0.1949 -0.2320  0.0769
 4486SOL    HW114674   0.140   8.402   4.684  0.3608  0.8894 -1.1576
 4486SOL    HW214675   0.140   8.255   4.646 -0.2941 -0.0236  2.0225
 4487SOL     OW14676   1.164   7.849   5.341  0.3441 -0.2441 -0.3720
 4487SOL    HW114677   1.241   7.792   5.343 -1.1859 -2.5081 -1.4380
 4487SOL    HW214678   1.146   7.868   5.433  1.5274 -0.5848 -0.0454
 4488SOL     OW14679   0.117   0.205   5.050  0.4628 -0.7079 -0.2091
 4488SOL    HW114680   0.114   0.114   5.023  2.0319 -0.8306 -0.0785
 4488SOL    HW214681   0.179   0.246   4.989  0.8989 -0.0749  0.6231
 4489SOL     OW14682   0.587   8.549   4.452 -0.0491  0.6044 -0.0252
 4489SOL    HW114683   0.546   8.572   4.368 -1.4439 -1.7818 -0.0811
 4489SOL    HW214684   0.526   8.487   4.491  1.8461 -0.3094  1.5925
 4490SOL     OW14685   0.193   8.087   4.321 -0.3945 -0.0184 -0.1722
 4490SOL    HW114686   0.245   8.148   4.373 -0.0610  0.2414 -0.7961
 4490SOL    HW214687   0.252   8.015   4.302 -0.3749  0.0932 -0.5533
 4491SOL     OW14688   1.209   8.803   3.729  0.1357 -0.3419 -0.1216
 4491SOL    HW114689   1.164   8.719   3.725  0.3707 -0.4855  0.1748
 4491SOL    HW214690   1.286   8.786   3.784 -0.2797  0.2774  0.6696
 4492SOL     OW14691   1.463   8.079   3.985 -0.2107  0.3980 -0.2261
 4492SOL    HW114692   1.418   8.058   4.067 -0.9135  0.8018 -0.5022
 4492SOL    HW214693   1.423   8.022   3.920  1.9714 -1.6455  0.1175
 4493SOL     OW14694   0.556   8.194   5.804  0.0544 -0.2926  0.2565
 4493SOL    HW114695   0.527   8.132   5.737  0.5830 -2.4441  1.8695
 4493SOL    HW214696   0.484   8.255   5.814 -0.4434 -0.5406 -1.5317
 4494SOL     OW14697   1.683   8.109   5.131 -0.0673  0.2994 -0.7030
 4494SOL    HW114698   1.745   8.161   5.081 -0.4767 -0.8368 -2.4561
 4494SOL    HW214699   1.597   8.139   5.102 -0.3673  0.9565  0.7593
 4495SOL     OW14700   1.056   7.568   5.965 -0.6124  0.4279 -0.3275
 4495SOL    HW114701   1.005   7.488   5.953  1.3233 -1.3359  2.2215
 4495SOL    HW214702   0.999   7.626   6.015 -1.1899 -0.3113 -0.1107
 4496SOL     OW14703   0.733   7.393   5.657  0.5599 -0.4133 -0.1885
 4496SOL    HW114704   0.668   7.461   5.637  0.3675 -0.7415 -0.6822
 4496SOL    HW214705   0.703   7.316   5.609  0.1411 -1.2003  1.2583
 4497SOL     OW14706   0.799   8.383   4.922  0.3233 -0.1481 -0.5053
 4497SOL    HW114707   0.857   8.427   4.860 -0.8480 -0.6292 -1.9803
 4497SOL    HW214708   0.749   8.454   4.963 -0.3443  0.0398 -1.6195
 4498SOL     OW14709   1.354   8.029   4.221  0.2406 -0.0722 -1.1221
 4498SOL    HW114710   1.272   7.984   4.241  0.8710 -0.9762 -0.5054
 4498SOL    HW214711   1.411   8.011   4.295  1.5112 -0.7264 -2.2033
 4499SOL     OW14712   1.337   7.944   3.655  0.0987 -0.1503 -0.4495
 4499SOL    HW114713   1.391   8.023   3.649  1.1269 -0.8924 -1.3010
 4499SOL    HW214714   1.284   7.958   3.733  0.9662  0.9515 -0.0190
 4500SOL     OW14715   0.069   8.009   4.686  0.3773 -0.3987 -0.0821
 4500SOL    HW114716   0.075   7.913   4.681 -0.5343 -0.3911 -2.2470
 4500SOL    HW214717  -0.021   8.029   4.660  0.2477  1.0321  1.3085
 4501SOL     OW14718   0.023   8.624   4.566 -0.0243  0.3376  0.4879
 4501SOL    HW114719  -0.016   8.710   4.585 -0.3174  0.5260 -0.8363
 4501SOL    HW214720   0.007   8.572   4.645 -1.8723  0.8073  0.4666
 4502SOL     OW14721   1.100   7.934   4.647  0.3363 -0.1790 -0.3990
 4502SOL    HW114722   1.141   7.927   4.733 -0.1689  0.0675 -0.1310
 4502SOL    HW214723   1.096   8.028   4.629  0.7831 -0.2434 -0.8673
 4503SOL     OW14724   1.264   8.239   5.703  0.3538 -0.1247  0.3337
 4503SOL    HW114725   1.201   8.219   5.634 -0.5083 -1.1990  1.4056
 4503SOL    HW214726   1.219   8.302   5.759  0.5047 -0.3459  0.7072
 4504SOL     OW14727   0.125   7.337   4.405 -0.0059  0.5816  0.1867
 4504SOL    HW114728   0.141   7.246   4.380  0.2393  0.8128 -0.5276
 4504SOL    HW214729   0.173   7.349   4.486 -2.3058 -0.7185  1.8550
 4505SOL     OW14730   1.668   7.848   4.202 -0.9318 -0.4344  0.1437
 4505SOL    HW114731   1.707   7.764   4.227 -0.8669 -0.3511  0.3230
 4505SOL    HW214732   1.663   7.845   4.107  1.9784  0.6348 -0.1390
 4506SOL     OW14733   0.515   8.174   5.069 -0.0857 -0.3116  0.0963
 4506SOL    HW114734   0.608   8.158   5.083  0.1422  0.8046 -0.0590
 4506SOL    HW214735   0.495   8.128   4.987  0.8498  1.2071 -1.0363
 4507SOL     OW14736   1.676   0.164   5.421 -0.5656  0.0254 -0.1240
 4507SOL    HW114737   1.667   0.105   5.346 -0.4690 -1.0610  0.6856
 4507SOL    HW214738   1.760   0.141   5.460  0.0354  1.5318 -0.4518
 4508SOL     OW14739   0.740   8.546   5.872  0.4846  0.9512 -0.2272
 4508SOL    HW114740   0.805   8.544   5.942 -0.9146  0.5874  1.1061
 4508SOL    HW214741   0.689   8.625   5.889 -0.1659  0.6118 -0.5630
 4509SOL     OW14742   1.502   7.651   3.589 -0.2145  0.4350 -0.5555
 4509SOL    HW114743   1.412   7.620   3.579 -0.5511  1.1026  0.2241
 4509SOL    HW214744   1.517   7.651   3.684  0.1366  1.5973 -0.5876
 4510SOL     OW14745   1.165   8.455   4.443 -0.3860  0.1180 -0.1403
 4510SOL    HW114746   1.258   8.437   4.459 -0.3637 -0.1774 -0.5636
 4510SOL    HW214747   1.149   8.419   4.355 -0.0329  3.1971 -1.6150
 4511SOL     OW14748   0.471   8.463   5.058  0.4308 -0.3272 -0.1566
 4511SOL    HW114749   0.561   8.475   5.086  0.5628  0.2208 -0.7910
 4511SOL    HW214750   0.465   8.370   5.035  0.2898 -0.8294  1.6994
 4512SOL     OW14751   8.814   8.201   4.236 -0.7700 -0.3233 -0.6585
 4512SOL    HW114752   8.875   8.141   4.278  0.2098  1.5379  0.7392
 4512SOL    HW214753   8.858   8.227   4.154  1.1150  2.0264  0.9425
 4513SOL     OW14754   0.691   8.317   5.410  0.4062  0.9485  0.0708
 4513SOL    HW114755   0.620   8.259   5.382 -1.0119  3.0050 -0.7944
 4513SOL    HW214756   0.686   8.316   5.506 -0.4091  0.5964  0.0386
 4514SOL     OW14757   0.942   7.955   5.685  0.4920  0.7392 -0.5246
 4514SOL    HW114758   0.894   7.876   5.713  2.5872  0.1733  1.7961
 4514SOL    HW214759   1.031   7.924   5.668  0.7189  2.1974 -2.2442
 4515SOL     OW14760   0.168   0.167   3.242 -0.0917  0.8084 -0.4543
 4515SOL    HW114761   0.248   0.127   3.207  0.2178 -0.8363  1.9197
 4515SOL    HW214762   0.106   0.094   3.249 -0.8820  1.5289  0.2745
 4516SOL     OW14763   0.667   8.839   5.247 -0.0203 -0.1772  0.1202
 4516SOL    HW114764   0.618   8.791   5.314 -0.9436 -0.8674 -1.0261
 4516SOL    HW214765   0.617   8.827   5.167  1.7070 -0.4214 -0.9750
 4517SOL     OW14766   8.738   7.811   4.990  0.6343  0.3168 -0.4935
 4517SOL    HW114767   8.813   7.852   5.034  2.0636 -1.7755 -0.8332
 4517SOL    HW214768   8.704   7.749   5.055 -0.7265  1.1097 -0.4181
 4518SOL     OW14769   0.603   7.401   4.916 -0.0087  0.2942 -0.4129
 4518SOL    HW114770   0.589   7.372   4.827  0.6692  1.4434 -0.9206
 4518SOL    HW214771   0.627   7.494   4.908 -0.9303  0.7035  1.0296
 4519SOL     OW14772   1.483   8.146   5.364 -0.6666 -0.3241 -0.6649
 4519SOL    HW114773   1.413   8.113   5.306 -0.2501  1.1155 -2.0590
 4519SOL    HW214774   1.553   8.173   5.304  0.4902 -0.3609  0.6305
 4520SOL     OW14775   1.098   7.969   3.824  0.1356  1.1414  0.1202
 4520SOL    HW114776   1.034   7.901   3.845  2.6665 -2.1131 -1.7092
 4520SOL    HW214777   1.092   7.979   3.729  1.9458  1.0609 -0.0435
 4521SOL     OW14778   1.581   8.222   4.804  0.5563 -0.3081 -0.1574
 4521SOL    HW114779   1.665   8.219   4.849  0.6230 -0.4518 -0.2908
 4521SOL    HW214780   1.553   8.131   4.796  0.3889 -0.2621 -0.1156
 4522SOL     OW14781   0.820   7.676   4.437 -0.4308 -0.6115 -0.5613
 4522SOL    HW114782   0.860   7.731   4.369 -0.9694 -1.1909 -1.3628
 4522SOL    HW214783   0.747   7.633   4.393 -0.5135 -1.3416  0.2748
 4523SOL     OW14784   0.218   7.863   4.107 -0.4782 -0.4260 -0.0967
 4523SOL    HW114785   0.168   7.795   4.154  0.6597 -0.9376  0.4049
 4523SOL    HW214786   0.239   7.822   4.023 -1.3187 -0.0204 -0.5179
 4524SOL     OW14787   0.321   8.794   4.654 -0.0963 -0.0534  0.0573
 4524SOL    HW114788   0.276   8.716   4.623  0.4067  0.2893 -1.6295
 4524SOL    HW214789   0.345   8.774   4.744  0.3824 -2.0039 -0.4698
 4525SOL     OW14790   1.447   8.370   5.061 -0.1479  0.0629  0.0813
 4525SOL    HW114791   1.384   8.442   5.051 -1.5617 -0.8527  1.6812
 4525SOL    HW214792   1.394   8.291   5.052  1.2952 -0.8151 -1.2091
 4526SOL     OW14793   1.650   8.477   4.051  0.1623 -0.6172  0.2557
 4526SOL    HW114794   1.686   8.545   3.995  1.3975 -0.9817  0.5807
 4526SOL    HW214795   1.719   8.458   4.115 -0.2343 -2.0026  0.3175
 4527SOL     OW14796   0.097   0.071   4.319  0.7549 -0.2377 -0.3993
 4527SOL    HW114797   0.109  -0.021   4.292 -0.1074 -0.0077 -1.6543
 4527SOL    HW214798   0.006   0.089   4.300  1.2264  1.2618 -1.3729
 4528SOL     OW14799   2.065   7.727   4.371  0.7777 -0.0772 -0.0656
 4528SOL    HW114800   2.097   7.650   4.324  3.0549  2.0473 -2.2697
 4528SOL    HW214801   2.105   7.721   4.458  2.8706 -0.2261 -0.9989
 4529SOL     OW14802   1.129   8.734   4.391 -0.5583 -0.5459 -0.1923
 4529SOL    HW114803   1.170   8.742   4.305  1.5098  0.5311  0.8253
 4529SOL    HW214804   1.139   8.642   4.414  0.0864 -0.5646 -0.5262
 4530SOL     OW14805   0.751   8.532   5.133 -0.5615 -0.1962  0.0440
 4530SOL    HW114806   0.775   8.464   5.197 -0.9569  0.5830  1.0548
 4530SOL    HW214807   0.802   8.608   5.160  0.5225 -0.2924 -1.5885
 4531SOL     OW14808   1.806   7.418   4.546  0.4648  0.0123 -0.2760
 4531SOL    HW114809   1.732   7.359   4.531 -0.0398  0.3570  0.7709
 4531SOL    HW214810   1.779   7.501   4.507 -0.1074  0.4024  0.9067
 4532SOL     OW14811   0.236   7.804   4.489  0.2197 -0.0055  0.2028
 4532SOL    HW114812   0.232   7.900   4.486  0.3645 -0.0131 -0.4557
 4532SOL    HW214813   0.149   7.776   4.460  0.2112 -0.0775  0.2973
 4533SOL     OW14814   0.431   0.109   5.085  0.0227 -0.2763 -0.1498
 4533SOL    HW114815   0.400   0.183   5.032 -0.2703 -0.1950  0.1304
 4533SOL    HW214816   0.417   0.032   5.030 -0.9795 -0.2787  0.0881
 4534SOL     OW14817   1.173   8.598   4.074 -0.0068  0.1602 -0.0698
 4534SOL    HW114818   1.093   8.612   4.024 -1.5209  0.7834  2.3739
 4534SOL    HW214819   1.175   8.504   4.092 -0.8282  0.3108  0.8416
 4535SOL     OW14820   0.179   8.619   5.096 -0.3252 -0.3409  0.0626
 4535SOL    HW114821   0.249   8.554   5.108 -1.4745 -1.6176  0.0684
 4535SOL    HW214822   0.098   8.568   5.099 -1.2061  0.8807 -1.6352
 4536SOL     OW14823   1.385   8.663   4.903 -0.2891 -0.9644 -0.1067
 4536SOL    HW114824   1.413   8.752   4.882  0.0558 -0.4438  2.3248
 4536SOL    HW214825   1.315   8.645   4.840  0.0220  0.7785 -1.0257
 4537SOL     OW14826   1.033   8.626   4.862  1.0248 -0.4451 -0.4746
 4537SOL    HW114827   1.047   8.708   4.910 -0.5360  0.1037 -0.9206
 4537SOL    HW214828   1.087   8.634   4.784  0.1249  0.6155 -1.0082
 4538SOL     OW14829   1.281   7.773   4.846 -0.6705  0.4204  0.2239
 4538SOL    HW114830   1.263   7.810   4.933  0.3111  1.7425 -0.0869
 4538SOL    HW214831   1.209   7.713   4.829  0.1436 -1.4285  2.7975
 4539SOL     OW14832   1.754   7.941   5.335 -0.0515 -0.1139  0.2043
 4539SOL    HW114833   1.734   8.008   5.270  0.8195  1.1141  1.1442
 4539SOL    HW214834   1.720   7.860   5.298 -3.3716  1.1932  0.0996
 4540SOL     OW14835   8.847   8.358   5.403  0.0293  0.6530  0.4213
 4540SOL    HW114836   8.795   8.282   5.427  0.2600 -0.3955 -2.1413
 4540SOL    HW214837   8.831   8.421   5.474 -0.0608 -1.7624  2.7008
 4541SOL     OW14838   0.547   7.805   5.423  0.0760 -0.2468 -0.4997
 4541SOL    HW114839   0.590   7.759   5.495 -0.6520 -0.3533 -0.1238
 4541SOL    HW214840   0.456   7.775   5.426 -0.0938  0.1797 -1.1127
 4542SOL     OW14841   8.741   7.852   4.035  0.7657 -0.0949  0.0443
 4542SOL    HW114842   8.815   7.819   4.086  1.7326  0.9180 -0.6640
 4542SOL    HW214843   8.760   7.945   4.023 -0.8376  0.2730  0.1974
 4543SOL     OW14844   2.010   8.166   5.404  0.8948  0.2873  0.0682
 4543SOL    HW114845   1.966   8.121   5.477  2.2234  0.5376  1.0414
 4543SOL    HW214846   2.028   8.096   5.341  3.2627 -0.6942  1.7244
 4544SOL     OW14847   0.451   7.664   4.601  0.5910  0.3285 -0.4642
 4544SOL    HW114848   0.491   7.621   4.525  1.0878  0.8029 -0.4804
 4544SOL    HW214849   0.366   7.695   4.569 -0.5462 -2.0622 -0.0100
 4545SOL     OW14850   0.425   8.228   5.332  0.1325  0.1452  0.4384
 4545SOL    HW114851   0.358   8.294   5.319  0.0471 -0.1178 -0.5567
 4545SOL    HW214852   0.458   8.209   5.244  1.6817  0.4418  0.9213
 4546SOL     OW14853   0.681   7.922   6.140 -0.3777  0.2418  0.6112
 4546SOL    HW114854   0.605   7.974   6.114 -0.5414  0.2997  1.2046
 4546SOL    HW214855   0.755   7.982   6.129 -0.3663  0.0782 -0.3012
 4547SOL     OW14856   1.268   8.698   5.196 -0.1582  0.3060 -0.0038
 4547SOL    HW114857   1.245   8.610   5.165 -2.0554  0.2675  1.3205
 4547SOL    HW214858   1.217   8.756   5.139  0.3168  0.5046 -0.2282
 4548SOL     OW14859   2.175   8.768   5.170 -0.0185  0.7495 -0.3486
 4548SOL    HW114860   2.226   8.826   5.226 -0.5723  1.4026 -0.5117
 4548SOL    HW214861   2.096   8.748   5.222 -0.5369  1.3640 -0.8879
 4549SOL     OW14862   1.292   7.641   4.119 -0.4416 -0.0588 -0.0627
 4549SOL    HW114863   1.212   7.600   4.085  0.9049 -1.5032 -1.6868
 4549SOL    HW214864   1.267   7.676   4.204 -3.6130  2.3467 -1.7896
 4550SOL     OW14865   0.391   8.168   4.515 -0.6897 -0.1488  0.4484
 4550SOL    HW114866   0.442   8.101   4.560 -0.4994  0.5291  1.2622
 4550SOL    HW214867   0.454   8.215   4.460 -0.7098 -0.2435  0.3443
 4551SOL     OW14868   1.762   7.652   5.269 -1.0330 -0.4796 -0.0853
 4551SOL    HW114869   1.853   7.629   5.246 -0.9142 -0.9209  0.7639
 4551SOL    HW214870   1.712   7.631   5.191 -0.3698  0.0050 -0.6549
 4552SOL     OW14871   1.430   7.968   5.579  0.8400  0.2558  0.4985
 4552SOL    HW114872   1.455   8.014   5.499  1.7055  0.7843  1.0567
 4552SOL    HW214873   1.471   8.018   5.649 -0.6337  0.3201  1.3613
 4553SOL     OW14874   0.915   8.595   3.916  0.1418 -0.3808 -0.4177
 4553SOL    HW114875   0.828   8.615   3.950 -0.0863 -2.1188  0.1332
 4553SOL    HW214876   0.902   8.581   3.823  0.0472  0.4752 -0.5405
 4554SOL     OW14877   0.734   8.788   4.963  0.9034  0.5389  0.1360
 4554SOL    HW114878   0.745   8.693   4.960 -0.3896  0.3705  0.0165
 4554SOL    HW214879   0.820   8.822   4.986  1.6032 -0.6117 -0.6927
 4555SOL     OW14880   0.951   8.393   4.657 -0.1147 -0.1008  0.1112
 4555SOL    HW114881   0.940   8.403   4.562 -0.4820  2.4391  0.3334
 4555SOL    HW214882   1.027   8.447   4.677  0.8712 -1.8115  1.1116
 4556SOL     OW14883   1.040   0.058   5.978 -0.2575  0.5232  0.4649
 4556SOL    HW114884   0.985   0.136   5.983  1.1993  1.5449  1.4360
 4556SOL    HW214885   1.082   0.064   5.892 -0.1314  0.8288  0.5464
 4557SOL     OW14886   0.489   8.834   4.445 -0.1344  0.1084  0.1794
 4557SOL    HW114887   0.556   8.867   4.504 -0.4248  0.9776  0.0280
 4557SOL    HW214888   0.419   8.804   4.502  0.8564 -1.9949  0.4144
 4558SOL     OW14889   0.654   0.250   4.697  0.1575 -0.0413  0.1893
 4558SOL    HW114890   0.680   0.274   4.608  0.0089 -2.1076 -0.4570
 4558SOL    HW214891   0.580   0.307   4.716 -1.1636 -0.9462 -1.8610
 4559SOL     OW14892   1.679   7.788   4.669  0.4170 -0.7154  0.1737
 4559SOL    HW114893   1.760   7.792   4.720  0.3418 -0.6382  0.2850
 4559SOL    HW214894   1.704   7.741   4.589  1.5549  2.6024 -1.6094
 4560SOL     OW14895   0.684   7.944   4.522 -0.7383  0.5108 -0.0192
 4560SOL    HW114896   0.733   8.002   4.464  0.7131 -0.3704  0.2882
 4560SOL    HW214897   0.674   7.863   4.472  2.3656 -1.0369  1.5822
 4561SOL     OW14898   1.431   8.508   4.517 -0.0104 -0.2018 -0.6965
 4561SOL    HW114899   1.470   8.595   4.528 -2.9938  1.1711  0.1315
 4561SOL    HW214900   1.504   8.452   4.491  2.3777  2.1663  0.4070
 4562SOL     OW14901   0.184   8.316   5.036  0.5360 -0.0592  0.8225
 4562SOL    HW114902   0.209   8.238   4.986  0.6533  0.6752 -0.3050
 4562SOL    HW214903   0.088   8.316   5.034  0.5097  1.0029 -1.1716
 4563SOL     OW14904   1.596   7.619   4.995 -0.1387 -0.1132  0.5857
 4563SOL    HW114905   1.573   7.530   4.970  0.3514  0.0660 -0.5729
 4563SOL    HW214906   1.640   7.655   4.918  1.3976  0.5068  1.6930
 4564SOL     OW14907   1.056   7.619   4.853  0.0782  0.1226  0.3335
 4564SOL    HW114908   1.084   7.536   4.890 -2.1764 -1.6278 -1.5549
 4564SOL    HW214909   0.987   7.650   4.913  0.3216  0.1977  0.5761
 4565SOL     OW14910   0.855   8.773   4.369  0.0179 -0.3409 -0.2757
 4565SOL    HW114911   0.837   8.803   4.458 -1.4611  2.7008 -1.4308
 4565SOL    HW214912   0.951   8.768   4.364  0.1337 -0.3603  1.4093
 4566SOL     OW14913   1.444   7.664   3.863 -0.6778  0.3659  0.3182
 4566SOL    HW114914   1.459   7.570   3.871  0.6707  0.6253  1.1978
 4566SOL    HW214915   1.363   7.680   3.911 -1.3953 -0.4423 -0.5625
 4567SOL     OW14916   0.969   7.499   4.613 -0.4200  0.5938 -0.4541
 4567SOL    HW114917   0.934   7.581   4.577 -1.1343  0.8387  0.7215
 4567SOL    HW214918   0.991   7.521   4.703  0.8369 -0.1267 -0.5720
 4568SOL     OW14919   1.497   7.915   4.429 -0.4960  0.4019 -0.0228
 4568SOL    HW114920   1.555   7.881   4.361  0.0817  1.7793 -0.2409
 4568SOL    HW214921   1.450   7.838   4.462 -0.2959 -0.3774 -1.5094
 4569SOL     OW14922   8.609   8.372   4.196  0.0596 -0.5412  0.2311
 4569SOL    HW114923   8.686   8.315   4.185 -1.7353 -3.0118 -0.4493
 4569SOL    HW214924   8.544   8.316   4.237 -1.9169  0.9743 -0.6893
 4570SOL     OW14925   0.491   7.829   5.852  0.1829 -0.2878  0.3087
 4570SOL    HW114926   0.421   7.852   5.790  1.2111  2.8675  0.1437
 4570SOL    HW214927   0.465   7.872   5.934 -0.5498 -3.3986  1.8423
 4571SOL     OW14928   0.264   7.714   6.604  0.0313  0.4396 -0.2356
 4571SOL    HW114929   0.299   7.783   6.548 -1.1019  0.5088 -0.8886
 4571SOL    HW214930   0.191   7.755   6.650 -0.1256 -0.0944 -0.0034
 4572SOL     OW14931   8.516   7.935   5.891  0.1842  0.3229 -0.2960
 4572SOL    HW114932   8.538   7.956   5.982 -0.2358  2.0254 -0.5439
 4572SOL    HW214933   8.440   7.878   5.896  0.4148  0.0764  0.4310
 4573SOL     OW14934   0.288   8.238   7.278  0.2669 -0.3814  0.5678
 4573SOL    HW114935   0.292   8.173   7.348 -0.4765 -2.2590 -1.0603
 4573SOL    HW214936   0.239   8.196   7.208  1.1199  1.3558 -1.1810
 4574SOL     OW14937   1.586   0.196   6.180 -0.0570 -0.6169 -0.0386
 4574SOL    HW114938   1.615   0.106   6.163  0.3811 -0.7389  1.2822
 4574SOL    HW214939   1.639   0.226   6.253  0.5578  1.1327 -1.1433
 4575SOL     OW14940   1.279   8.379   6.598  0.5945  0.1494  0.4854
 4575SOL    HW114941   1.215   8.447   6.580  0.4386  0.2620  1.4493
 4575SOL    HW214942   1.263   8.352   6.688  0.7085 -1.1099  0.1580
 4576SOL     OW14943   1.978   8.291   5.911 -0.3127  0.7053  0.1587
 4576SOL    HW114944   2.053   8.331   5.954  0.2985 -0.9600  0.7195
 4576SOL    HW214945   1.985   8.318   5.820  1.3492  0.0804  0.0670
 4577SOL     OW14946   0.574   8.307   7.245 -0.1164 -0.1402  0.0801
 4577SOL    HW114947   0.493   8.256   7.253 -0.0577 -0.2348  0.0654
 4577SOL    HW214948   0.560   8.384   7.300 -0.4998  0.1984 -0.4714
 4578SOL     OW14949   1.082   8.098   7.439  0.2140 -0.6103 -0.1626
 4578SOL    HW114950   1.089   8.161   7.511 -0.2473 -1.1578  0.3829
 4578SOL    HW214951   1.009   8.129   7.386  0.8794  0.0749 -0.6854
 4579SOL     OW14952   0.613   8.148   6.848 -0.5041 -0.3476  0.4914
 4579SOL    HW114953   0.651   8.198   6.775 -2.4814 -0.2760 -0.5630
 4579SOL    HW214954   0.683   8.090   6.876  1.3081  1.7659  0.5982
 4580SOL     OW14955   0.603   8.559   7.441 -0.3224 -0.2005 -0.0075
 4580SOL    HW114956   0.519   8.605   7.441 -0.6089 -0.6793  1.4423
 4580SOL    HW214957   0.668   8.629   7.448 -0.5187  0.2247 -1.7813
 4581SOL     OW14958   0.472   7.997   7.099  0.0465 -0.0370  0.1755
 4581SOL    HW114959   0.520   7.914   7.100  0.5610  0.2600  0.7879
 4581SOL    HW214960   0.536   8.060   7.065 -0.1416  0.2263  0.3118
 4582SOL     OW14961   0.396   7.868   7.434 -0.8541  0.1994  0.2862
 4582SOL    HW114962   0.359   7.894   7.349 -0.8719 -1.1809 -0.1487
 4582SOL    HW214963   0.319   7.851   7.488 -0.8570 -0.6998  0.0072
 4583SOL     OW14964   1.813   8.155   6.313  0.1205  0.0201 -0.3262
 4583SOL    HW114965   1.829   8.113   6.228 -3.0745  0.3012 -1.1825
 4583SOL    HW214966   1.865   8.235   6.309 -0.4793  0.3806 -2.3459
 4584SOL     OW14967   1.170   0.229   7.630 -0.4530  0.4670 -0.1171
 4584SOL    HW114968   1.153   0.170   7.703  1.1059 -0.2438 -0.2889
 4584SOL    HW214969   1.087   0.233   7.583 -1.0853 -0.1660  0.9135
 4585SOL     OW14970   0.210   8.366   6.567 -0.5392  0.9314  0.3302
 4585SOL    HW114971   0.176   8.363   6.478 -0.8052 -2.2834  0.4115
 4585SOL    HW214972   0.305   8.355   6.557 -0.6354 -0.0403  0.4509
 4586SOL     OW14973   0.925   8.626   6.031 -0.3539  0.2677 -0.2172
 4586SOL    HW114974   0.976   8.708   6.030  0.1280 -0.0337 -1.4910
 4586SOL    HW214975   0.920   8.603   6.124 -1.2646  2.2008  0.2713
 4587SOL     OW14976   1.901   7.562   7.041  0.0879 -0.1627  0.2459
 4587SOL    HW114977   1.864   7.515   6.966  0.1849 -1.5734  1.0345
 4587SOL    HW214978   1.895   7.654   7.018 -3.1526 -0.3395 -0.0448
 4588SOL     OW14979   0.134   8.256   5.915  0.0100  0.0538  0.7865
 4588SOL    HW114980   0.151   8.198   5.989 -0.4317 -1.0531  0.0573
 4588SOL    HW214981   0.049   8.295   5.934 -0.2834 -0.5256  0.7046
 4589SOL     OW14982   1.875   8.504   6.335  0.4178  0.0054  0.3346
 4589SOL    HW114983   1.829   8.541   6.410 -0.4496  2.0463 -1.1043
 4589SOL    HW214984   1.968   8.523   6.352  0.1354  1.4079  0.4426
 4590SOL     OW14985   1.692   8.659   5.900  0.3356 -0.0409  0.0672
 4590SOL    HW114986   1.671   8.646   5.808 -0.9280 -0.8967  0.4461
 4590SOL    HW214987   1.660   8.580   5.944 -0.0649  0.8046  1.3749
 4591SOL     OW14988   0.221   8.138   7.524 -0.2102  0.5023 -0.1315
 4591SOL    HW114989   0.158   8.210   7.520  1.1155  1.7632  0.9385
 4591SOL    HW214990   0.281   8.161   7.595  0.6562 -1.3416 -0.1900
 4592SOL     OW14991   1.069   8.554   6.587  0.2340 -0.0037 -0.6140
 4592SOL    HW114992   1.011   8.543   6.662  1.1826 -0.0775  0.1254
 4592SOL    HW214993   1.012   8.587   6.517 -0.8522 -0.8781 -0.1649
 4593SOL     OW14994   0.492   0.143   7.058  0.5425 -0.2560  0.1913
 4593SOL    HW114995   0.450   0.146   7.144 -0.9821  1.6839 -0.5395
 4593SOL    HW214996   0.459   0.063   7.017 -1.8562  0.7702 -0.0204
 4594SOL     OW14997   0.991   7.489   6.659  0.5705  0.4558  0.2329
 4594SOL    HW114998   1.082   7.477   6.633  0.5784  0.1520  0.3960
 4594SOL    HW214999   0.964   7.403   6.693 -0.0457  0.2845 -0.6422
 4595SOL     OW15000   8.378   8.618   7.216  0.2047 -0.7954  0.2709
 4595SOL    HW115001   8.424   8.691   7.175  0.6647  0.4435  2.7680
 4595SOL    HW215002   8.358   8.558   7.144 -2.1383  2.7248 -2.3194
 4596SOL     OW15003   1.517   8.258   6.052 -0.1419 -0.1048 -0.6153
 4596SOL    HW115004   1.525   8.208   5.970  0.4084 -0.1693 -0.5212
 4596SOL    HW215005   1.599   8.307   6.059 -0.0543 -0.3383  0.0582
 4597SOL     OW15006   0.153   7.063   7.910  0.1668 -0.0509  0.4249
 4597SOL    HW115007   0.087   7.005   7.949 -0.3986 -0.2342 -0.7745
 4597SOL    HW215008   0.203   7.095   7.985 -0.6858 -0.6446  1.2765
 4598SOL     OW15009   1.487   0.068   6.497  0.0414  0.4500  0.1071
 4598SOL    HW115010   1.536  -0.001   6.452  0.5591  0.1985  1.0425
 4598SOL    HW215011   1.395   0.041   6.488 -0.0186  1.1197 -1.9785
 4599SOL     OW15012   0.447   8.053   6.092  0.1145 -0.1119 -0.2639
 4599SOL    HW115013   0.357   8.042   6.120  0.0472 -0.2868 -0.5441
 4599SOL    HW215014   0.450   8.140   6.052  0.0062 -0.2160 -0.4987
 4600SOL     OW15015   1.617   8.276   7.068  0.5150  0.1392  0.3046
 4600SOL    HW115016   1.651   8.344   7.009 -0.9540  1.6073  1.0839
 4600SOL    HW215017   1.616   8.317   7.154 -2.0640 -0.2101  0.5064
 4601SOL     OW15018   0.654   7.974   7.464 -0.6110  0.4897  0.0163
 4601SOL    HW115019   0.710   7.899   7.445  0.2196  0.9326  0.6293
 4601SOL    HW215020   0.565   7.942   7.453 -0.2476 -0.3933 -0.4024
 4602SOL     OW15021   1.413   7.735   7.227 -0.8037 -0.1941  0.6628
 4602SOL    HW115022   1.443   7.805   7.169 -1.6908  0.8817  1.4582
 4602SOL    HW215023   1.378   7.668   7.168  1.5106 -0.7295 -0.1900
 4603SOL     OW15024   0.825   8.171   7.397 -0.2555  0.4790 -0.4385
 4603SOL    HW115025   0.755   8.111   7.423 -0.1684  0.4670 -0.2281
 4603SOL    HW215026   0.807   8.251   7.446 -1.4378  1.2970 -2.0881
 4604SOL     OW15027   0.877   7.694   7.129  0.1078 -0.1087  0.4493
 4604SOL    HW115028   0.899   7.624   7.069 -0.6202 -0.3724  0.4829
 4604SOL    HW215029   0.787   7.718   7.107 -0.2502 -0.3575  1.5694
 4605SOL     OW15030   1.366   7.988   6.679 -0.6157 -0.0435  0.0475
 4605SOL    HW115031   1.381   7.990   6.584  2.2530  0.2313  0.4238
 4605SOL    HW215032   1.424   7.918   6.711 -1.2374  0.1412  1.6555
 4606SOL     OW15033   8.702   8.284   6.265 -0.5534 -0.2078 -0.0562
 4606SOL    HW115034   8.702   8.245   6.352 -0.5664 -1.2382 -0.5011
 4606SOL    HW215035   8.668   8.372   6.278  0.2137 -0.0531  1.1039
 4607SOL     OW15036   1.189   7.515   6.452  0.2111  0.4465  0.4235
 4607SOL    HW115037   1.184   7.419   6.447  0.7275  0.4783 -0.9923
 4607SOL    HW215038   1.106   7.545   6.413  0.1200  0.5917  0.7208
 4608SOL     OW15039   1.552   7.470   7.301  0.1946 -0.0508  0.1389
 4608SOL    HW115040   1.540   7.554   7.346 -3.7261  0.1515 -0.8474
 4608SOL    HW215041   1.537   7.491   7.208  3.0671 -1.2961 -0.7205
 4609SOL     OW15042   1.508   8.176   5.767  0.1708  0.1415 -0.4896
 4609SOL    HW115043   1.557   8.255   5.746 -0.9198  0.6693 -1.1236
 4609SOL    HW215044   1.417   8.199   5.751 -0.3836 -0.6110  1.2680
 4610SOL     OW15045   0.570   7.735   7.053  0.0474  0.1710 -0.0212
 4610SOL    HW115046   0.536   7.650   7.081  0.0616 -0.0712 -0.7154
 4610SOL    HW215047   0.558   7.736   6.958 -0.5358  1.2054  0.0405
 4611SOL     OW15048   1.653   8.669   6.660  0.3557  0.2075 -0.1943
 4611SOL    HW115049   1.618   8.711   6.581  0.0560  1.2461  0.4698
 4611SOL    HW215050   1.580   8.670   6.722 -0.5037 -3.5357 -0.8720
 4612SOL     OW15051   0.171   8.447   5.714  0.2196 -0.1669  0.3361
 4612SOL    HW115052   0.160   8.391   5.791 -0.9092 -0.1077  0.2368
 4612SOL    HW215053   0.264   8.470   5.714  0.5535 -1.4566  0.7713
 4613SOL     OW15054   1.580   8.107   6.451 -0.1227  0.3281 -0.7205
 4613SOL    HW115055   1.573   8.179   6.514  0.6403 -0.2577  0.0636
 4613SOL    HW215056   1.655   8.131   6.396 -1.0135  1.0168 -1.6704
 4614SOL     OW15057   0.818   8.787   7.112  0.0053 -0.2039 -0.2211
 4614SOL    HW115058   0.858   8.867   7.145  1.0930 -0.7371 -0.1914
 4614SOL    HW215059   0.748   8.767   7.174  0.9592 -0.3001  0.8444
 4615SOL     OW15060   0.389   7.653   7.783  0.0248  0.1577 -0.0625
 4615SOL    HW115061   0.361   7.632   7.872  0.7057 -1.1867 -0.1450
 4615SOL    HW215062   0.483   7.639   7.784 -0.0419 -0.4379 -1.1490
 4616SOL     OW15063   1.495   8.547   5.683  0.2564 -0.5234 -0.2915
 4616SOL    HW115064   1.467   8.564   5.773  1.6529 -1.0622  0.2705
 4616SOL    HW215065   1.424   8.495   5.646 -1.7305  2.0950 -0.4778
 4617SOL     OW15066   1.892   7.502   6.133 -0.1270 -0.4160 -0.3997
 4617SOL    HW115067   1.860   7.444   6.202  0.6593  0.2354  0.5595
 4617SOL    HW215068   1.906   7.586   6.178  1.5680 -0.3089 -1.0691
 4618SOL     OW15069   0.171   8.080   6.143 -0.0248 -0.9750 -0.8639
 4618SOL    HW115070   0.117   8.005   6.165  0.1361 -0.7145  0.5120
 4618SOL    HW215071   0.145   8.148   6.206  1.4494 -0.6428 -0.5761
 4619SOL     OW15072   1.513   6.932   7.719 -0.4981 -0.6982  0.3593
 4619SOL    HW115073   1.519   6.879   7.640  0.9101 -2.2754  1.4435
 4619SOL    HW215074   1.603   6.935   7.753 -0.8705  0.8753  1.3384
 4620SOL     OW15075   0.549   7.601   5.639  0.0048  0.1366 -0.3058
 4620SOL    HW115076   0.554   7.643   5.725 -1.1541 -1.8311  0.7939
 4620SOL    HW215077   0.458   7.573   5.631  0.4540 -1.0848 -1.4907
 4621SOL     OW15078   0.796   7.403   7.664 -0.2186 -0.3196 -0.0502
 4621SOL    HW115079   0.765   7.437   7.580 -1.7280  1.7583  1.2387
 4621SOL    HW215080   0.753   7.318   7.673 -0.6774 -0.2004 -1.0229
 4622SOL     OW15081   1.870   7.637   7.308  0.5379  0.1781 -0.0046
 4622SOL    HW115082   1.905   7.610   7.223  0.0850 -0.0125 -0.1310
 4622SOL    HW215083   1.889   7.731   7.312  1.5683 -0.0220  0.1750
 4623SOL     OW15084   1.185   7.769   6.810 -0.3095 -0.4961  0.3483
 4623SOL    HW115085   1.225   7.756   6.724 -2.0839 -0.7490 -0.4978
 4623SOL    HW215086   1.137   7.852   6.801  0.2306 -0.0482  1.4176
 4624SOL     OW15087   0.621   7.862   6.490  0.0684  0.2963  0.1586
 4624SOL    HW115088   0.628   7.793   6.424 -1.7827 -0.1419  0.3464
 4624SOL    HW215089   0.687   7.926   6.465  0.6898 -0.7473 -1.0121
 4625SOL     OW15090   1.353   8.391   5.456 -0.1453 -0.5387 -0.4388
 4625SOL    HW115091   1.438   8.405   5.414  0.4263  0.5688  0.9835
 4625SOL    HW215092   1.338   8.297   5.449  1.0253 -0.6981 -1.0479
 4626SOL     OW15093   0.542   7.397   6.041 -0.6988 -0.5464 -0.3003
 4626SOL    HW115094   0.518   7.321   5.988  0.0358 -0.8415 -0.2269
 4626SOL    HW215095   0.508   7.377   6.128 -0.7166 -0.6888 -0.3390
 4627SOL     OW15096   1.282   7.277   6.548  0.0643 -0.3575  0.3519
 4627SOL    HW115097   1.281   7.278   6.644 -1.3157  0.8132  0.3520
 4627SOL    HW215098   1.371   7.250   6.525  0.8168  0.6260  1.9611
 4628SOL     OW15099   1.329   8.051   7.304 -0.3410 -0.1695  0.2047
 4628SOL    HW115100   1.250   8.063   7.358 -1.3347  0.7369 -1.3887
 4628SOL    HW215101   1.297   8.009   7.224  0.6075  1.0760 -0.8779
 4629SOL     OW15102   1.850   0.140   5.785  0.5549  0.5233 -0.1169
 4629SOL    HW115103   1.923   0.202   5.790  0.5812  0.3827  2.6807
 4629SOL    HW215104   1.880   0.063   5.834 -0.2950 -0.8757 -1.6873
 4630SOL     OW15105   0.500   8.343   6.542  0.4827  0.1680  0.2119
 4630SOL    HW115106   0.468   8.261   6.504  0.1911  0.3017  0.1708
 4630SOL    HW215107   0.591   8.324   6.565  0.1083 -0.4974  1.1861
 4631SOL     OW15108   0.805   8.151   5.997 -0.6522  0.2281 -0.1638
 4631SOL    HW115109   0.867   8.107   5.940  0.3024  1.2849  0.0373
 4631SOL    HW215110   0.730   8.170   5.941  0.0936  0.8612 -0.9525
 4632SOL     OW15111   0.232   7.707   7.572  0.1758  0.3761 -0.2866
 4632SOL    HW115112   0.290   7.673   7.641 -0.1469 -2.0752 -1.1301
 4632SOL    HW215113   0.173   7.767   7.618  1.8678  1.1514  1.0016
 4633SOL     OW15114   0.523   7.834   6.786 -0.2060 -0.1441 -0.5381
 4633SOL    HW115115   0.463   7.903   6.813  0.1842 -0.2476  0.6527
 4633SOL    HW215116   0.537   7.849   6.692 -2.3182 -0.3244 -0.9354
 4634SOL     OW15117   0.833   7.741   6.747  0.5287  0.2923  0.1238
 4634SOL    HW115118   0.904   7.701   6.697  0.9690  1.4967 -0.2711
 4634SOL    HW215119   0.795   7.805   6.687 -0.5124  0.0733  0.5356
 4635SOL     OW15120   1.452   7.377   6.838  0.2743  0.0730 -0.2276
 4635SOL    HW115121   1.360   7.362   6.819 -0.1145  0.0642  1.5631
 4635SOL    HW215122   1.492   7.290   6.835  0.0890 -0.0112 -0.2630
 4636SOL     OW15123   1.474   8.476   6.277 -0.1742 -0.4115 -0.2190
 4636SOL    HW115124   1.387   8.514   6.267  0.1136 -0.0819 -1.6450
 4636SOL    HW215125   1.475   8.402   6.216 -0.3430 -2.0762  1.6992
 4637SOL     OW15126   1.412   8.146   6.900 -0.2804  0.1111  0.2425
 4637SOL    HW115127   1.416   8.114   6.810  0.4854  1.1297 -0.1029
 4637SOL    HW215128   1.501   8.175   6.920 -0.3666 -0.3787  1.4439
 4638SOL     OW15129   1.748   8.409   6.076 -0.6233  0.6187  0.2201
 4638SOL    HW115130   1.789   8.440   6.157 -0.0966  1.8026 -0.4731
 4638SOL    HW215131   1.821   8.379   6.023 -0.8965  0.5171 -0.0999
 4639SOL     OW15132   1.900   8.600   6.606 -0.2899 -0.6374  0.1835
 4639SOL    HW115133   1.969   8.641   6.659  0.9149 -1.7735 -0.4295
 4639SOL    HW215134   1.823   8.655   6.620  1.2842  2.0263 -0.8140
 4640SOL     OW15135   1.417   7.852   6.006 -0.4105  0.4436 -0.1483
 4640SOL    HW115136   1.412   7.922   6.072 -0.3224 -3.0548  3.9941
 4640SOL    HW215137   1.510   7.830   6.000 -0.3360  1.0646 -2.0303
 4641SOL     OW15138   0.558   7.601   6.349  0.2089  0.3474  0.4433
 4641SOL    HW115139   0.642   7.561   6.327 -0.0721  0.1861 -0.3566
 4641SOL    HW215140   0.517   7.620   6.265 -0.1287  1.3469  0.8213
 4642SOL     OW15141   1.507   8.691   6.901  0.0627 -0.2825  0.4438
 4642SOL    HW115142   1.510   8.787   6.902 -0.8080 -0.2501  0.4979
 4642SOL    HW215143   1.513   8.665   6.993  4.1677 -0.4669  0.3169
 4643SOL     OW15144   0.930   8.464   6.792  0.3548  0.3782 -0.1167
 4643SOL    HW115145   0.915   8.541   6.847  0.4214  0.0034  0.4422
 4643SOL    HW215146   0.959   8.396   6.854 -1.5786 -0.6733 -0.2940
 4644SOL     OW15147   1.577   8.394   6.511  0.1100  0.9210 -0.1118
 4644SOL    HW115148   1.547   8.437   6.431 -0.7989  0.1873 -0.1812
 4644SOL    HW215149   1.497   8.375   6.560  0.4944 -0.3994  0.0536
 4645SOL     OW15150   1.719   8.324   6.721 -0.4176  0.0555  0.4977
 4645SOL    HW115151   1.739   8.392   6.785 -0.9996  0.1797  0.5444
 4645SOL    HW215152   1.692   8.371   6.642  0.7996 -0.0803 -0.0235
 4646SOL     OW15153   1.074   7.463   7.280 -0.6145  0.1651  0.3780
 4646SOL    HW115154   1.100   7.519   7.353  0.1943  0.0740  0.1692
 4646SOL    HW215155   1.086   7.517   7.202 -1.9486  0.4299  0.3239
 4647SOL     OW15156   1.137   8.280   7.610 -0.0155 -0.0533 -0.0331
 4647SOL    HW115157   1.112   8.365   7.574 -2.6844 -0.7775 -0.0698
 4647SOL    HW215158   1.232   8.278   7.602  0.0980  2.7469 -0.3911
 4648SOL     OW15159   0.775   8.295   6.620 -0.8460  0.7434  0.0165
 4648SOL    HW115160   0.832   8.349   6.673  0.3642  0.2313 -0.7182
 4648SOL    HW215161   0.824   8.280   6.539 -1.9268  0.0941 -0.5496
 4649SOL     OW15162   8.673   7.792   7.233  0.4475  0.4007 -0.3579
 4649SOL    HW115163   8.619   7.871   7.241 -0.0314  0.0413  0.1007
 4649SOL    HW215164   8.714   7.783   7.319  1.0855  0.5527 -0.6387
 4650SOL     OW15165   1.395   7.553   7.027 -0.6390  0.3831  0.2520
 4650SOL    HW115166   1.302   7.532   7.028 -0.9998  1.7526 -1.1381
 4650SOL    HW215167   1.431   7.497   6.958 -0.0201 -1.5628  2.0740
 4651SOL     OW15168   8.736   0.296   7.077  0.6160  0.1278  0.2881
 4651SOL    HW115169   8.652   0.253   7.058  0.7884 -0.2743  0.4235
 4651SOL    HW215170   8.777   0.307   6.992  0.2566  0.6798  0.1836
 4652SOL     OW15171   0.457   8.411   6.153  0.2154 -0.0262 -0.3330
 4652SOL    HW115172   0.489   8.348   6.218 -0.3693 -1.4421 -1.3686
 4652SOL    HW215173   0.384   8.455   6.197  1.3731  0.8091  0.8261
 4653SOL     OW15174   0.145   7.954   6.778  0.0342  0.3891 -0.3296
 4653SOL    HW115175   0.144   8.043   6.811  0.9407  0.6495 -0.9633
 4653SOL    HW215176   0.147   7.899   6.856 -1.1829  0.8868  0.0765
 4654SOL     OW15177   1.136   8.441   5.848  0.0396 -0.1860 -0.3769
 4654SOL    HW115178   1.092   8.416   5.929  1.2929  0.9706  0.7121
 4654SOL    HW215179   1.100   8.527   5.826  0.2670 -0.1549 -0.6350
 4655SOL     OW15180   1.375   8.039   6.216  0.3256 -0.0777  0.0606
 4655SOL    HW115181   1.394   7.999   6.301  1.2357 -0.3016 -0.2401
 4655SOL    HW215182   1.438   8.111   6.209  1.2450 -0.9519 -1.0394
 4656SOL     OW15183   0.832   8.228   7.777  0.5074  0.2895 -0.4315
 4656SOL    HW115184   0.880   8.286   7.717  0.1499 -2.2887 -3.4744
 4656SOL    HW215185   0.871   8.142   7.763 -2.1379 -1.1057  0.2222
 4657SOL     OW15186   1.587   8.064   7.443  0.0305  0.5041 -0.5780
 4657SOL    HW115187   1.581   8.012   7.523  0.9260  0.4184 -0.5612
 4657SOL    HW215188   1.510   8.039   7.392 -0.9017  1.0280  0.5198
 4658SOL     OW15189   1.030   7.223   7.791 -0.3318 -0.0784 -0.4173
 4658SOL    HW115190   0.949   7.263   7.760  0.0501  0.8767 -0.2370
 4658SOL    HW215191   1.098   7.266   7.739  0.2192  0.6518  0.8640
 4659SOL     OW15192   0.338   7.262   7.492 -0.3744 -0.4963 -0.2623
 4659SOL    HW115193   0.269   7.235   7.552 -0.1668 -0.0785  0.1681
 4659SOL    HW215194   0.344   7.190   7.429  0.4882 -1.6782  1.1174
 4660SOL     OW15195   0.095   8.084   7.084  0.4739 -0.4610  0.4250
 4660SOL    HW115196   0.023   8.142   7.108  1.2415  1.4434 -1.5866
 4660SOL    HW215197   0.053   8.012   7.037 -0.2064  0.1447  0.0882
 4661SOL     OW15198   1.238   8.356   6.861 -0.5530 -0.0169 -0.0814
 4661SOL    HW115199   1.156   8.316   6.891  0.4867 -0.9054  1.6832
 4661SOL    HW215200   1.306   8.293   6.883  0.7014  0.9856 -0.9305
 4662SOL     OW15201   1.108   8.093   6.243  0.1074  0.3605 -0.0367
 4662SOL    HW115202   1.202   8.075   6.242 -0.1648 -1.2137 -0.9527
 4662SOL    HW215203   1.067   8.006   6.249 -1.2858  1.0848  2.2358
 4663SOL     OW15204   0.418   7.275   6.969  0.4139  0.6287  0.1132
 4663SOL    HW115205   0.467   7.300   6.891 -0.9219  1.5848 -0.4446
 4663SOL    HW215206   0.394   7.184   6.955  1.4318  0.3520  0.0920
 4664SOL     OW15207   8.801   0.121   7.266 -0.1410  0.6576  0.1025
 4664SOL    HW115208   8.822   0.175   7.342 -0.6717  2.0038 -0.6889
 4664SOL    HW215209   8.781   0.183   7.196 -0.7646 -0.5527 -0.8400
 4665SOL     OW15210   1.015   8.227   6.946  0.2803  0.0619 -0.0423
 4665SOL    HW115211   1.017   8.139   6.908  0.0445  0.7944 -1.8750
 4665SOL    HW215212   0.951   8.222   7.017 -1.0287 -0.8322 -1.2409
 4666SOL     OW15213   2.218   8.573   7.385  0.1573  0.1684 -0.1632
 4666SOL    HW115214   2.206   8.635   7.313  3.7127  2.1116  0.6979
 4666SOL    HW215215   2.203   8.626   7.464 -1.5656 -1.3972  0.6407
 4667SOL     OW15216   0.275   7.789   6.233  0.2394 -0.6095  0.1762
 4667SOL    HW115217   0.341   7.793   6.163 -0.5690 -0.0219 -0.5635
 4667SOL    HW215218   0.314   7.839   6.304 -0.2025  1.4439 -0.9609
 4668SOL     OW15219   1.638   7.701   6.260 -0.4681 -0.6444  0.2430
 4668SOL    HW115220   1.726   7.695   6.298 -0.2306  0.4569 -0.1130
 4668SOL    HW215221   1.593   7.623   6.293 -0.2277  0.1617  2.6873
 4669SOL     OW15222   1.281   7.948   7.038  0.3249  0.1637  0.0913
 4669SOL    HW115223   1.329   8.015   6.989  1.2021  0.2928  1.0794
 4669SOL    HW215224   1.271   7.875   6.977  0.2494  0.8162 -0.6794
 4670SOL     OW15225   1.768   0.046   7.176  0.0202  0.3451  0.1891
 4670SOL    HW115226   1.794   0.129   7.137  1.0690  0.6771  1.5119
 4670SOL    HW215227   1.690   0.067   7.228 -1.2688 -0.0618 -1.4826
 4671SOL     OW15228   0.380   8.110   7.929 -0.0616 -0.5994  0.3545
 4671SOL    HW115229   0.426   8.113   7.845 -1.2059 -2.7820 -0.4237
 4671SOL    HW215230   0.289   8.092   7.907 -0.6566  0.0804  2.0287
 4672SOL     OW15231   1.481   7.861   6.403  0.4504  0.3881 -0.3248
 4672SOL    HW115232   1.543   7.823   6.341  0.9738  0.2341  0.2802
 4672SOL    HW215233   1.527   7.937   6.439  0.4601  0.0469  0.4151
 4673SOL     OW15234   1.049   8.311   6.075 -0.3859  0.5186  0.2828
 4673SOL    HW115235   1.090   8.245   6.130 -0.1427  0.3839 -0.0543
 4673SOL    HW215236   0.960   8.280   6.062 -0.8523  1.2071  1.6611
 4674SOL     OW15237   0.079   8.223   6.779 -0.5095  0.0598 -0.2940
 4674SOL    HW115238   0.077   8.271   6.861 -0.6608  3.0803 -1.9458
 4674SOL    HW215239   0.139   8.271   6.723 -1.3892 -1.1288 -2.4047
 4675SOL     OW15240   8.748   7.632   6.676 -0.9604 -0.5762  0.4667
 4675SOL    HW115241   8.695   7.711   6.685 -0.0228  0.0370  0.7187
 4675SOL    HW215242   8.814   7.639   6.745 -1.4545 -2.0738  1.1407
 4676SOL     OW15243   1.219   7.596   7.504  0.1600 -0.0667 -0.0042
 4676SOL    HW115244   1.165   7.670   7.534  0.6162  0.4759 -0.5066
 4676SOL    HW215245   1.308   7.631   7.500  0.1023 -0.0387 -2.2289
 4677SOL     OW15246   1.428   7.247   7.436  0.1193 -0.3230  0.4831
 4677SOL    HW115247   1.452   7.337   7.413  0.8797 -0.7956 -0.6245
 4677SOL    HW215248   1.473   7.193   7.372 -2.2832 -1.3716 -0.4244
 4678SOL     OW15249   0.439   8.442   5.881 -0.4150  0.4459  0.0285
 4678SOL    HW115250   0.460   8.443   5.974  0.6552 -1.7454 -0.1245
 4678SOL    HW215251   0.506   8.497   5.840  0.5051 -0.4085  0.3505
 4679SOL     OW15252   1.020   7.945   7.088  0.0101 -0.3444 -0.6952
 4679SOL    HW115253   1.113   7.965   7.096 -0.1232 -0.1062  0.4626
 4679SOL    HW215254   1.010   7.858   7.126 -0.4938  0.3664  0.8856
 4680SOL     OW15255   8.849   7.903   6.535 -0.6563  0.6730 -0.2056
 4680SOL    HW115256   8.898   7.958   6.595  0.3035  0.1952 -0.5222
 4680SOL    HW215257   8.815   7.832   6.590 -1.5786  1.3547  0.1327
 4681SOL     OW15258   0.404   7.579   7.379 -0.4120 -0.4931  0.6493
 4681SOL    HW115259   0.440   7.665   7.402  1.3185 -0.7821 -0.8114
 4681SOL    HW215260   0.333   7.566   7.442  1.2430  0.6546  2.9388
 4682SOL     OW15261   1.910   8.598   7.366 -0.4167 -0.1726 -0.0278
 4682SOL    HW115262   1.982   8.654   7.338  0.8279 -1.7012 -0.0673
 4682SOL    HW215263   1.846   8.658   7.404 -0.1745  1.4906 -2.0518
 4683SOL     OW15264   1.184   7.817   6.343  0.1462 -0.3905  0.2972
 4683SOL    HW115265   1.199   7.770   6.261  0.0796  0.2024 -0.0646
 4683SOL    HW215266   1.271   7.833   6.378  0.1756 -0.6399  0.3375
 4684SOL     OW15267   1.766   8.051   7.037 -0.0305  0.3736  0.0155
 4684SOL    HW115268   1.694   8.112   7.053  0.7107  0.9636  1.2129
 4684SOL    HW215269   1.780   8.055   6.942 -1.6670  0.1195 -0.2659
 4685SOL     OW15270   0.804   7.963   6.944 -0.3368  0.2109 -0.1271
 4685SOL    HW115271   0.870   7.969   7.014 -2.0863 -0.2072  1.6489
 4685SOL    HW215272   0.837   7.896   6.885  0.7561 -0.1072  0.8066
 4686SOL     OW15273   0.487   7.661   6.085  0.0196  0.8450  0.1514
 4686SOL    HW115274   0.521   7.696   6.004  0.2848  1.1380  0.3893
 4686SOL    HW215275   0.479   7.567   6.069  0.5885  0.8267 -0.0272
 4687SOL     OW15276   8.749   8.271   7.115 -0.4666  0.2168  0.0240
 4687SOL    HW115277   8.782   8.339   7.056 -2.5059  1.5732  0.3417
 4687SOL    HW215278   8.740   8.316   7.199  3.0724 -1.8457  1.7208
 4688SOL     OW15279   1.240   8.552   7.103  0.4364  0.0177  0.3843
 4688SOL    HW115280   1.252   8.488   7.033  0.1997  0.7986 -0.3944
 4688SOL    HW215281   1.151   8.536   7.135  0.0344  0.5488 -0.4385
 4689SOL     OW15282   0.976   8.264   6.441 -0.1250 -0.1996 -0.1483
 4689SOL    HW115283   1.017   8.351   6.436 -0.2911 -0.1070  0.0752
 4689SOL    HW215284   1.027   8.210   6.381  0.3295 -0.0838  0.1220
 4690SOL     OW15285   0.035   8.498   7.013 -0.6294  0.0795 -0.1878
 4690SOL    HW115286  -0.008   8.546   6.942  2.2822  1.4296 -1.2160
 4690SOL    HW215287   0.025   8.553   7.090 -1.0201  0.2081 -0.3323
 4691SOL     OW15288   1.667   7.772   5.997 -0.1244 -0.1623 -0.1785
 4691SOL    HW115289   1.669   7.682   5.963  0.9391 -0.7604  1.3408
 4691SOL    HW215290   1.674   7.761   6.092  5.0697  1.5716 -0.0524
 4692SOL     OW15291   1.238   8.606   6.250 -0.1317  0.0254 -0.3661
 4692SOL    HW115292   1.248   8.662   6.173  0.8550  0.3292 -0.0241
 4692SOL    HW215293   1.145   8.612   6.272 -0.8223 -1.4073 -2.5532
 4693SOL     OW15294   1.068   8.466   7.432 -0.2868  0.3123  0.0390
 4693SOL    HW115295   1.031   8.428   7.353 -2.1747  0.0225  1.0041
 4693SOL    HW215296   1.092   8.555   7.407 -1.9021  0.6029 -0.6231
 4694SOL     OW15297   2.331   8.001   6.703 -0.0206  0.4988 -0.4923
 4694SOL    HW115298   2.362   7.914   6.727 -1.8958 -0.3714 -1.0662
 4694SOL    HW215299   2.273   7.986   6.628 -0.0548  2.2901 -0.8708
 4695SOL     OW15300   0.356   7.930   6.479  0.0710  1.0093 -0.0377
 4695SOL    HW115301   0.350   7.977   6.562 -0.8766 -1.0451  1.1365
 4695SOL    HW215302   0.449   7.909   6.470  0.3643  2.2479 -0.1330
 4696SOL     OW15303   0.815   8.427   7.581 -0.5014  0.3812  0.7421
 4696SOL    HW115304   0.759   8.503   7.564  1.9526  2.0073 -0.8814
 4696SOL    HW215305   0.901   8.453   7.546  0.6358 -2.9245  0.7426
 4697SOL     OW15306   0.949   7.830   6.483 -0.2399 -0.1987 -0.6787
 4697SOL    HW115307   1.016   7.811   6.417  0.2494 -0.9599  0.0262
 4697SOL    HW215308   0.990   7.894   6.540 -0.7939  0.7295 -1.3026
 4698SOL     OW15309   0.328   8.460   7.043 -0.2132 -0.2914 -0.1880
 4698SOL    HW115310   0.244   8.415   7.053  0.3808 -1.3548  0.2549
 4698SOL    HW215311   0.386   8.394   7.006  0.2654  0.6401 -1.1480
 4699SOL     OW15312   1.263   8.630   6.810 -0.4840  0.5640 -0.2356
 4699SOL    HW115313   1.233   8.547   6.847 -1.1781  0.3041 -1.3294
 4699SOL    HW215314   1.355   8.635   6.835  0.0105 -1.3017 -1.4643
 4700SOL     OW15315   0.954   8.624   6.349 -0.1528 -0.3488  0.2455
 4700SOL    HW115316   0.942   8.708   6.305 -1.5655 -0.5667  0.1952
 4700SOL    HW215317   0.868   8.600   6.381  0.2084 -1.8211  0.1979
 4701SOL     OW15318   1.127   7.555   6.996 -0.1074  0.6410 -0.1506
 4701SOL    HW115319   1.128   7.476   6.941  0.1103 -0.1330  0.9252
 4701SOL    HW215320   1.143   7.627   6.935  3.1909 -0.4093 -0.7692
 4702SOL     OW15321   1.950   7.816   7.017  0.3456 -0.0698 -0.1973
 4702SOL    HW115322   2.030   7.868   7.024 -0.0903  0.6310 -0.2706
 4702SOL    HW215323   1.880   7.881   7.014 -0.1157 -0.5827 -1.9974
 4703SOL     OW15324   0.044   8.432   7.501 -0.0969 -0.6498 -0.4757
 4703SOL    HW115325   0.009   8.519   7.519 -0.5675 -0.9215 -0.0422
 4703SOL    HW215326  -0.018   8.393   7.440 -0.8463 -1.3030  0.6518
 4704SOL     OW15327   0.809   7.727   7.405  0.0249 -0.0151 -0.4021
 4704SOL    HW115328   0.829   7.732   7.311  2.2046  0.9153  0.0480
 4704SOL    HW215329   0.757   7.647   7.414  1.7324 -1.4364 -2.1219
 4705SOL     OW15330   0.366   7.328   5.086  0.5948 -0.0994  0.2393
 4705SOL    HW115331   0.359   7.240   5.048  2.6286 -0.5523  0.7948
 4705SOL    HW215332   0.417   7.378   5.022  0.1391  0.4444  0.2979
 4706SOL     OW15333   1.811   7.933   7.295  0.4175  0.1544 -0.3247
 4706SOL    HW115334   1.793   7.964   7.207  0.9099 -0.4156 -0.6355
 4706SOL    HW215335   1.737   7.964   7.347  0.9376  1.9436 -0.5748
 4707SOL     OW15336   0.206   7.875   5.756 -0.2612  0.1714  0.3110
 4707SOL    HW115337   0.159   7.851   5.835  0.5941  0.6970  0.9983
 4707SOL    HW215338   0.166   7.957   5.728  1.7476  1.9685  2.2846
 4708SOL     OW15339   0.517   8.109   7.692 -0.1375 -0.0892 -0.0158
 4708SOL    HW115340   0.518   8.197   7.656 -1.3096 -1.0712 -2.7111
 4708SOL    HW215341   0.567   8.057   7.630 -0.8304 -1.6003  0.6287
 4709SOL     OW15342   0.686   7.477   7.420  0.0910  0.0767  0.4100
 4709SOL    HW115343   0.710   7.421   7.346  1.0563 -0.7956  1.3456
 4709SOL    HW215344   0.591   7.464   7.431 -0.0916  0.3340 -0.7373
 4710SOL     OW15345   0.991   8.491   7.142  0.4763 -0.0428 -0.9592
 4710SOL    HW115346   0.933   8.416   7.131  1.4536 -0.6123 -2.6274
 4710SOL    HW215347   0.936   8.567   7.120  0.2218 -0.5506 -2.1920
 4711SOL     OW15348   2.237   8.240   6.771 -0.4572 -0.0081 -0.2318
 4711SOL    HW115349   2.275   8.155   6.748  1.7529  0.7744  0.2813
 4711SOL    HW215350   2.196   8.225   6.856 -0.2591 -0.6041 -0.2304
 4712SOL     OW15351   1.341   7.693   6.607 -0.3298  0.2635  0.1608
 4712SOL    HW115352   1.299   7.626   6.554  0.3288 -0.0527  0.0320
 4712SOL    HW215353   1.387   7.748   6.544 -0.1838  0.3457  0.3407
 4713SOL     OW15354   1.068   8.023   6.706  0.1296  0.2222 -0.2061
 4713SOL    HW115355   1.158   8.054   6.719  0.4970 -0.6993 -0.4292
 4713SOL    HW215356   1.016   8.103   6.701  0.8104  0.7608  0.7778
 4714SOL     OW15357   1.624   7.720   7.032 -0.4688  0.1552  0.1767
 4714SOL    HW115358   1.674   7.691   7.108 -1.2165  1.3704  1.1685
 4714SOL    HW215359   1.552   7.657   7.024  1.1577 -1.6310 -1.2897
 4715SOL     OW15360   1.960   8.290   7.094  0.3244 -0.6405 -0.0314
 4715SOL    HW115361   1.982   8.220   7.156 -2.7931 -1.0844  0.7942
 4715SOL    HW215362   1.876   8.263   7.057  0.4177  1.3178 -1.8717
 4716SOL     OW15363   1.173   8.715   5.749  0.3845  0.2097 -0.5085
 4716SOL    HW115364   1.259   8.714   5.793 -0.0759  1.4190  0.4822
 4716SOL    HW215365   1.190   8.677   5.663  1.8956  0.3075 -0.2881
 4717SOL     OW15366   0.817   8.284   7.131  0.0519  0.0088  0.0909
 4717SOL    HW115367   0.846   8.268   7.220  3.8965  1.7450 -0.6565
 4717SOL    HW215368   0.724   8.304   7.139  0.1619 -0.3282  3.6012
 4718SOL     OW15369   1.714   8.377   5.667  0.0760 -0.2556  0.1620
 4718SOL    HW115370   1.670   8.461   5.667  0.6117  0.0430  1.0707
 4718SOL    HW215371   1.805   8.397   5.688  0.2759 -1.0256  0.0738
 4719SOL     OW15372   0.484   8.355   7.607  0.2719 -0.5813  0.1597
 4719SOL    HW115373   0.517   8.409   7.536 -2.4618  0.6181 -0.3180
 4719SOL    HW215374   0.426   8.412   7.657  2.1233 -1.3407  3.5284
 4720SOL     OW15375   8.753   8.383   6.015  0.8255 -0.3796 -0.3445
 4720SOL    HW115376   8.758   8.325   6.091 -1.1284 -1.2104 -0.7682
 4720SOL    HW215377   8.659   8.387   5.995  1.0234  1.9745 -1.0940
 4721SOL     OW15378   0.852   8.706   7.434  0.0553 -0.3415  0.3656
 4721SOL    HW115379   0.917   8.742   7.374 -0.5314  0.1012 -0.0231
 4721SOL    HW215380   0.889   8.720   7.521  0.8838 -0.9314  0.1115
 4722SOL     OW15381   2.693   7.613   6.991  0.0119  0.0092  0.8490
 4722SOL    HW115382   2.690   7.591   7.084 -0.4130 -1.0504  0.5931
 4722SOL    HW215383   2.766   7.561   6.956 -0.3466 -0.2233  0.4373
 4723SOL     OW15384   8.833   7.851   6.242  0.4776 -0.3420 -0.1287
 4723SOL    HW115385   8.891   7.775   6.244  0.0184 -0.6810  0.4975
 4723SOL    HW215386   8.812   7.868   6.334  0.8606  0.7645 -0.2290
 4724SOL     OW15387   1.574   0.146   6.731 -0.2938 -0.5415  0.6380
 4724SOL    HW115388   1.531   0.113   6.652  0.9001 -0.6737  0.0168
 4724SOL    HW215389   1.557   0.240   6.730  1.8953 -0.0698 -1.2566
 4725SOL     OW15390   0.256   7.824   6.993  0.0135  0.6269  0.2737
 4725SOL    HW115391   0.296   7.907   7.018 -1.9402  1.3634  1.1701
 4725SOL    HW215392   0.319   7.757   7.020  0.2559  1.6704  2.4733
 4726SOL     OW15393   1.791   7.421   6.816  0.3447  0.2930 -0.1435
 4726SOL    HW115394   1.741   7.463   6.746 -0.3254  1.1259  0.8144
 4726SOL    HW215395   1.746   7.338   6.832 -1.3284  1.4156  1.3117
 4727SOL     OW15396   1.189   7.303   6.856 -0.1136  0.8156 -0.2017
 4727SOL    HW115397   1.114   7.247   6.836  0.8474  0.3701 -2.8478
 4727SOL    HW215398   1.203   7.290   6.950 -2.1833 -0.5028 -0.0005
 4728SOL     OW15399   0.970   0.030   6.232  0.6018 -0.0050  0.1519
 4728SOL    HW115400   0.904   0.099   6.239  2.5874  1.9129  1.2760
 4728SOL    HW215401   1.025   0.056   6.158  1.4887 -0.2282  0.7077
 4729SOL     OW15402   0.863   7.710   6.136  0.1193  0.1366  0.6543
 4729SOL    HW115403   0.781   7.755   6.157  1.1407  1.6629  1.6046
 4729SOL    HW215404   0.888   7.666   6.218  0.6326  0.3332  0.6097
 4730SOL     OW15405   1.569   7.855   6.796  0.5585  0.1316 -0.6323
 4730SOL    HW115406   1.651   7.905   6.791  0.5457  0.1297 -0.8639
 4730SOL    HW215407   1.591   7.779   6.849  0.6459  0.2516 -0.4921
 4731SOL     OW15408   1.791   7.731   6.544  0.6114 -0.0589  0.0605
 4731SOL    HW115409   1.815   7.822   6.525 -0.7605  0.3070 -0.0560
 4731SOL    HW215410   1.875   7.685   6.548  1.3214  1.1399 -0.2102
 4732SOL     OW15411   8.816   8.667   5.945  0.9210 -0.7790 -0.3569
 4732SOL    HW115412   8.729   8.706   5.935  0.8733  0.3071  3.0666
 4732SOL    HW215413   8.804   8.576   5.919 -0.7495 -0.2108 -1.7772
 4733SOL     OW15414   0.748   7.842   8.079  0.3981  0.2817  0.1019
 4733SOL    HW115415   0.723   7.914   8.022  0.8820  0.2961 -0.0967
 4733SOL    HW215416   0.705   7.862   8.163  0.3318  0.6678 -0.0215
 4734SOL     OW15417   0.516   8.170   8.786 -0.0976  0.5561 -0.0004
 4734SOL    HW115418   0.442   8.176   8.847  0.4010 -0.5023  0.7389
 4734SOL    HW215419   0.579   8.235   8.818 -0.7721  1.6218 -0.7651
 4735SOL     OW15420   8.755   8.335   8.254  0.0294 -0.2710 -0.2418
 4735SOL    HW115421   8.689   8.361   8.318  0.1912 -0.6790  0.0954
 4735SOL    HW215422   8.821   8.288   8.305  0.6533  0.2519 -0.5537
 4736SOL     OW15423   0.561   0.221   8.766 -0.0113 -0.1916  0.1389
 4736SOL    HW115424   0.585   0.199   8.676  1.0369 -1.1644  0.6386
 4736SOL    HW215425   0.525   0.309   8.760  0.3285 -0.1207 -1.1814
 4737SOL     OW15426   1.479   8.792   8.276  0.3231 -0.2645  0.0166
 4737SOL    HW115427   1.505   8.703   8.301  0.8554 -0.1892 -0.2494
 4737SOL    HW215428   1.558   8.830   8.238 -0.5537 -0.5099 -2.1798
 4738SOL     OW15429   1.215   8.247   8.059  0.5321  0.4433 -0.8702
 4738SOL    HW115430   1.257   8.203   8.133 -0.3953  1.7890  0.4998
 4738SOL    HW215431   1.284   8.302   8.021  0.7999  0.3628 -0.4988
 4739SOL     OW15432   1.500   7.686   7.485  0.1645  0.0863 -0.0135
 4739SOL    HW115433   1.471   7.737   7.410  1.0452 -0.7742 -0.9895
 4739SOL    HW215434   1.533   7.750   7.548  0.2431  0.7762 -0.7526
 4740SOL     OW15435   0.859   0.155   8.164 -1.0520 -0.1656 -0.4956
 4740SOL    HW115436   0.920   0.183   8.096 -1.0878 -0.5342 -0.6769
 4740SOL    HW215437   0.785   0.216   8.156 -0.6955  0.3114 -0.2458
 4741SOL     OW15438   0.557   8.383   8.232 -0.0972  0.1539  0.1016
 4741SOL    HW115439   0.527   8.375   8.322 -0.8799  1.2271 -0.0518
 4741SOL    HW215440   0.610   8.305   8.217 -0.8435 -0.5694  1.1477
 4742SOL     OW15441   0.569   0.469   8.237  0.5962  0.2384  0.0075
 4742SOL    HW115442   0.617   0.546   8.204 -0.2583 -0.3237 -2.8400
 4742SOL    HW215443   0.494   0.505   8.283  0.4288  1.1491 -0.9392
 4743SOL     OW15444   0.658   8.374   0.070 -0.5715  0.2467  0.1383
 4743SOL    HW115445   0.579   8.412   0.108 -1.7230 -1.9333  0.0549
 4743SOL    HW215446   0.719   8.368   0.144 -0.1312  2.6176  0.0539
 4744SOL     OW15447   1.777   7.985   8.290 -0.1338  0.4633  0.4596
 4744SOL    HW115448   1.797   7.985   8.384 -0.5934  2.1081  0.5794
 4744SOL    HW215449   1.737   8.070   8.274 -2.1121 -0.6320 -0.8072
 4745SOL     OW15450   0.690   0.297   8.420 -0.6339 -0.2775 -0.2019
 4745SOL    HW115451   0.770   0.350   8.417  0.1890 -1.4818 -0.7913
 4745SOL    HW215452   0.636   0.329   8.348  0.9761 -1.8415 -2.2456
 4746SOL     OW15453   0.403   0.287   7.863  0.3567  0.2815 -0.1045
 4746SOL    HW115454   0.415   0.373   7.825  0.9036  1.1862  1.9525
 4746SOL    HW215455   0.435   0.226   7.797  1.6836  1.7719 -0.8839
 4747SOL     OW15456   0.680   7.594   8.451 -0.7342 -0.0322  0.9154
 4747SOL    HW115457   0.716   7.679   8.426 -0.3175 -0.1036  1.2603
 4747SOL    HW215458   0.620   7.571   8.380  0.9466 -0.5449 -0.3893
 4748SOL     OW15459   1.747   8.446   7.975 -0.0513 -0.1690 -0.0562
 4748SOL    HW115460   1.663   8.469   8.014  0.3407 -0.0564  0.7432
 4748SOL    HW215461   1.726   8.424   7.884 -0.9467 -0.2010  0.1484
 4749SOL     OW15462   2.174   8.096   7.736  0.4244 -0.2615  0.7455
 4749SOL    HW115463   2.203   8.052   7.815  1.0773  2.1652  1.9536
 4749SOL    HW215464   2.122   8.170   7.767 -1.6689 -0.7843 -1.2000
 4750SOL     OW15465   0.988   8.715   7.986 -0.1614  0.3907 -0.0743
 4750SOL    HW115466   0.895   8.734   7.999  0.5776  3.1008  2.6544
 4750SOL    HW215467   1.016   8.677   8.070  1.2806 -0.0747 -0.7325
 4751SOL     OW15468   0.524   7.543   8.253  0.8898  0.3657  0.2044
 4751SOL    HW115469   0.526   7.471   8.190 -0.1873 -1.4500  2.1333
 4751SOL    HW215470   0.449   7.596   8.227 -0.1410 -0.9112  0.4886
 4752SOL     OW15471   0.570   0.025   0.328 -0.4143 -0.1559  0.0381
 4752SOL    HW115472   0.484  -0.018   0.332 -1.0755  0.8311 -2.1547
 4752SOL    HW215473   0.631  -0.044   0.303 -0.2349 -1.1763  2.9246
 4753SOL     OW15474   1.461   8.337   7.920  0.3586 -0.3373 -0.5040
 4753SOL    HW115475   1.432   8.422   7.887  0.9955 -0.0796 -0.4104
 4753SOL    HW215476   1.537   8.314   7.866 -1.4376 -2.2072 -2.4810
 4754SOL     OW15477   1.495   8.529   8.430  0.1201  0.1156  0.2739
 4754SOL    HW115478   1.406   8.564   8.421  0.3756  1.2841  1.8392
 4754SOL    HW215479   1.500   8.502   8.522  0.6143 -2.2837 -0.3699
 4755SOL     OW15480   0.639   8.048   7.948  0.1900 -0.1246  0.2428
 4755SOL    HW115481   0.547   8.073   7.962 -0.1202 -0.7524 -0.5737
 4755SOL    HW215482   0.660   8.079   7.861  0.6746 -0.2242  0.3221
 4756SOL     OW15483   1.415   7.812   8.410 -0.6460 -0.5412 -0.1074
 4756SOL    HW115484   1.339   7.756   8.430 -2.4970  1.6646 -0.5840
 4756SOL    HW215485   1.391   7.857   8.329  0.3360  1.5970  0.7177
 4757SOL     OW15486   0.801   8.105   8.461 -0.2355 -0.0089  0.1985
 4757SOL    HW115487   0.757   8.127   8.379  0.2293 -0.0819 -0.0764
 4757SOL    HW215488   0.803   8.187   8.510  0.0799  0.1969 -0.1515
 4758SOL     OW15489   1.208   8.114   8.592  0.0376  0.7582 -0.3806
 4758SOL    HW115490   1.190   8.207   8.603  0.9797  0.9269 -0.1929
 4758SOL    HW215491   1.252   8.089   8.673  0.7320  0.3933 -0.8675
 4759SOL     OW15492   1.061   7.830   7.489 -0.8484  0.1237  0.1075
 4759SOL    HW115493   0.975   7.807   7.454  0.0137 -0.5117 -1.7120
 4759SOL    HW215494   1.077   7.919   7.456 -0.0384 -0.4726 -1.1948
 4760SOL     OW15495   0.133   8.496   8.811  0.0978 -0.0213  0.3534
 4760SOL    HW115496   0.098   8.416   8.850 -1.2155  1.4912  2.5323
 4760SOL    HW215497   0.208   8.518   8.866  1.2425 -0.3669 -1.0107
 4761SOL     OW15498   0.525   7.385   8.037  0.0310  0.0165 -0.9793
 4761SOL    HW115499   0.588   7.412   7.971  0.3093 -0.7042 -1.0147
 4761SOL    HW215500   0.541   7.292   8.049 -0.1017  0.1104  0.0087
 4762SOL     OW15501   1.679   8.403   7.713  0.2539 -0.2406  0.5553
 4762SOL    HW115502   1.645   8.430   7.628  0.4458 -0.5637  0.3691
 4762SOL    HW215503   1.707   8.312   7.699 -0.0404 -0.4145  1.0586
 4763SOL     OW15504   0.745   7.975   8.741 -0.0061 -0.0607 -0.2283
 4763SOL    HW115505   0.808   8.046   8.730  1.2197 -1.2442 -1.0556
 4763SOL    HW215506   0.660   8.017   8.728  0.4979  1.7286  1.6940
 4764SOL     OW15507   1.963   8.347   8.147 -0.6899 -0.0287  0.5974
 4764SOL    HW115508   1.938   8.398   8.070  1.8765 -0.7739 -0.8314
 4764SOL    HW215509   1.882   8.304   8.175 -1.9591  1.3117 -0.8365
 4765SOL     OW15510   0.707   8.445   7.853  0.0978  0.1147 -0.3602
 4765SOL    HW115511   0.729   8.493   7.773  1.5007 -1.1553 -0.7880
 4765SOL    HW215512   0.714   8.353   7.828 -0.2900 -0.3112  1.0085
 4766SOL     OW15513   1.718   8.246   8.288 -0.0741  0.4226 -0.2295
 4766SOL    HW115514   1.677   8.326   8.256  0.5806  0.8746  0.0576
 4766SOL    HW215515   1.670   8.225   8.369 -1.3517 -0.4118 -1.1653
 4767SOL     OW15516   1.463   8.785   7.461  0.0891  0.6927  0.1028
 4767SOL    HW115517   1.405   8.852   7.425  0.6228  0.5391 -1.1010
 4767SOL    HW215518   1.430   8.703   7.424  0.2037  0.4452  0.5486
 4768SOL     OW15519   1.791   7.371   8.145  0.2715  0.9961  0.0581
 4768SOL    HW115520   1.838   7.289   8.159 -0.4228  0.4796 -0.5983
 4768SOL    HW215521   1.817   7.400   8.058 -2.0532 -0.3082 -1.1670
 4769SOL     OW15522   0.210   8.253   8.341 -0.0272 -0.1106 -0.0078
 4769SOL    HW115523   0.258   8.312   8.400 -0.2620  1.0370 -0.9298
 4769SOL    HW215524   0.245   8.272   8.254 -1.2036 -0.2255 -0.5212
 4770SOL     OW15525   0.807   7.323   8.207  0.3540 -0.0738 -0.2350
 4770SOL    HW115526   0.826   7.376   8.129 -0.6488  0.8570  0.1265
 4770SOL    HW215527   0.755   7.250   8.174 -0.8288  0.7835 -0.3501
 4771SOL     OW15528   1.037   7.900   8.166  0.8137 -0.0797  0.2207
 4771SOL    HW115529   0.986   7.962   8.115  0.1071  1.6369  2.7968
 4771SOL    HW215530   1.015   7.814   8.129 -2.7525  0.7038  0.1831
 4772SOL     OW15531   0.342   7.390   8.442  0.4920 -0.3404  0.8975
 4772SOL    HW115532   0.343   7.444   8.522 -2.6788  2.6387 -0.8142
 4772SOL    HW215533   0.375   7.449   8.374 -1.4299 -1.0952 -0.7739
 4773SOL     OW15534   1.323   8.585   7.899 -0.4098 -0.3241  0.2774
 4773SOL    HW115535   1.270   8.599   7.977 -1.2552 -0.4483 -0.2696
 4773SOL    HW215536   1.264   8.543   7.836  0.3956 -0.6956 -0.2563
 4774SOL     OW15537   0.218   7.618   8.155 -0.3158  0.3909  0.0915
 4774SOL    HW115538   0.160   7.563   8.209 -0.5651  0.9192  0.3691
 4774SOL    HW215539   0.206   7.706   8.189  1.7312  0.3386  1.1150
 4775SOL     OW15540   0.683   7.206   7.867  0.0264 -0.1551 -0.6042
 4775SOL    HW115541   0.648   7.184   7.781  1.2542 -2.4623 -0.5821
 4775SOL    HW215542   0.645   7.142   7.927  0.2725  0.5456  0.3422
 4776SOL     OW15543   1.520   0.501   7.967 -0.1850 -0.3823  0.2752
 4776SOL    HW115544   1.537   0.414   7.932 -0.8669 -0.3234 -0.2168
 4776SOL    HW215545   1.560   0.561   7.904  0.6844 -0.3444  0.8485
 4777SOL     OW15546   0.421   8.834   8.643  0.0531 -0.0701 -0.9219
 4777SOL    HW115547   0.504   8.880   8.658 -0.0820 -0.1776  0.3011
 4777SOL    HW215548   0.410   8.780   8.722 -0.3008 -1.4210 -1.8640
 4778SOL     OW15549   1.467   8.283   7.338  0.8951 -0.2340  0.6001
 4778SOL    HW115550   1.427   8.211   7.288  1.5322 -1.1965  1.4362
 4778SOL    HW215551   1.511   8.240   7.411  0.6255  1.0821  1.5764
 4779SOL     OW15552   0.557   7.784   8.652  0.2996 -0.0655  0.1367
 4779SOL    HW115553   0.614   7.751   8.583  0.3093 -0.1091  0.1646
 4779SOL    HW215554   0.611   7.847   8.700  0.0867  0.4393 -0.2837
 4780SOL     OW15555   0.657   7.663   7.901  0.4196 -0.5597 -0.3553
 4780SOL    HW115556   0.719   7.683   7.832  0.4192 -2.8147 -1.0788
 4780SOL    HW215557   0.690   7.712   7.977  2.2249 -0.5325 -1.0988
 4781SOL     OW15558   0.954   7.563   8.346 -0.2531 -0.3894  0.0770
 4781SOL    HW115559   0.873   7.563   8.397 -0.2527 -3.4718  0.2599
 4781SOL    HW215560   0.931   7.519   8.264  0.2881  2.5264 -1.7822
 4782SOL     OW15561   0.960   8.563   8.290 -0.2189 -0.2772 -0.0023
 4782SOL    HW115562   0.881   8.613   8.309  0.3153  1.2502 -1.4349
 4782SOL    HW215563   0.939   8.473   8.314 -1.3033  0.5670  2.5301
 4783SOL     OW15564   1.548   7.951   8.629  0.0282  0.0156 -0.4422
 4783SOL    HW115565   1.503   7.908   8.556  2.0364  0.0573 -1.7774
 4783SOL    HW215566   1.479   7.964   8.694 -1.8569 -0.0857 -2.2707
 4784SOL     OW15567   1.884   7.525   7.551  0.2988  0.5436 -0.1897
 4784SOL    HW115568   1.796   7.492   7.567  0.0522  0.8075 -0.9975
 4784SOL    HW215569   1.880   7.566   7.465  1.2129  0.5487 -0.2420
 4785SOL     OW15570   1.907   0.047   8.115 -0.5244 -0.5718 -0.2780
 4785SOL    HW115571   1.999   0.056   8.139 -0.6008  0.7622 -0.4050
 4785SOL    HW215572   1.903  -0.035   8.065  1.0498  0.4678 -2.2655
 4786SOL     OW15573   1.672   7.757   7.866 -0.1229  0.0374 -0.5332
 4786SOL    HW115574   1.686   7.663   7.877  0.8779 -0.1290 -2.7208
 4786SOL    HW215575   1.657   7.790   7.955  1.4268 -1.8770  0.5194
 4787SOL     OW15576   0.244   7.443   7.948 -0.0809  0.3695  0.0030
 4787SOL    HW115577   0.211   7.474   8.032  1.4423 -0.0308  0.7796
 4787SOL    HW215578   0.317   7.385   7.970  0.9533  0.9789 -1.6175
 4788SOL     OW15579   1.937   8.671   8.845  0.2494 -0.0290 -0.3982
 4788SOL    HW115580   1.988   8.590   8.835 -1.0060 -0.9978  0.7924
 4788SOL    HW215581   2.003   8.740   8.847  1.3202 -0.9147 -2.1269
 4789SOL     OW15582   0.700   0.694   8.818 -0.7784  0.3876 -0.2731
 4789SOL    HW115583   0.618   0.689   8.769 -0.8326 -3.7860 -0.1465
 4789SOL    HW215584   0.768   0.689   8.751 -0.8422 -2.6681 -0.2796
 4790SOL     OW15585   0.757   8.775   8.316  0.1492  0.1894  0.0992
 4790SOL    HW115586   0.802   8.854   8.285 -1.5467  1.1192 -0.1560
 4790SOL    HW215587   0.681   8.767   8.258  1.1972 -2.7234 -1.0598
 4791SOL     OW15588   1.530   8.432   8.674  0.3201 -0.1544  0.6005
 4791SOL    HW115589   1.589   8.502   8.702 -1.1860  0.2834  2.9697
 4791SOL    HW215590   1.486   8.404   8.755 -0.0473 -3.0020 -0.4672
 4792SOL     OW15591   0.734   8.661   8.005  0.3086  0.3142 -0.6983
 4792SOL    HW115592   0.671   8.622   8.065  1.0767  0.7782  0.4493
 4792SOL    HW215593   0.765   8.587   7.952  0.3064 -0.2874  0.1187
 4793SOL     OW15594   0.723   8.655   0.252 -0.0625  0.3630 -0.2502
 4793SOL    HW115595   0.798   8.704   0.219 -0.4767  1.0391 -0.2120
 4793SOL    HW215596   0.759   8.570   0.278  0.9968  1.2165  1.2670
 4794SOL     OW15597   1.501   8.030   0.193  0.0378  0.1554  0.5999
 4794SOL    HW115598   1.489   8.058   0.284 -1.4883  1.6080  0.0103
 4794SOL    HW215599   1.592   8.000   0.188 -0.0542 -0.6312  2.7608
 4795SOL     OW15600   8.545   8.821   0.292  0.1051 -1.0470  0.0130
 4795SOL    HW115601   8.607   8.764   0.247  0.0850 -0.2239 -1.1129
 4795SOL    HW215602   8.571   8.910   0.266 -0.1557 -0.5670  1.3445
 4796SOL     OW15603   0.072   8.532   8.124  0.1034 -0.0722  0.5187
 4796SOL    HW115604   0.149   8.476   8.111 -0.2267 -0.7124  1.2119
 4796SOL    HW215605   0.005   8.472   8.157 -0.3145  0.7040  1.1004
 4797SOL     OW15606   0.379   8.411   0.161  0.7569  0.2490  0.8388
 4797SOL    HW115607   0.321   8.462   0.217 -0.1208  0.5510 -0.3187
 4797SOL    HW215608   0.383   8.325   0.204 -1.9473 -0.3459  0.0904
 4798SOL     OW15609   1.509   8.776   7.770  0.0561 -0.5155 -0.2153
 4798SOL    HW115610   1.465   8.708   7.820  1.4164 -1.8684 -0.7845
 4798SOL    HW215611   1.503   8.747   7.679  3.0052 -1.3703 -0.2419
 4799SOL     OW15612   1.893   8.001   7.894  0.5426  0.0865  0.2265
 4799SOL    HW115613   1.930   7.984   7.981  0.2253  0.7731  0.5039
 4799SOL    HW215614   1.801   8.022   7.911  0.3198 -0.4154 -0.3412
 4800SOL     OW15615   0.817   8.673   8.723 -0.3828 -0.5008 -0.0062
 4800SOL    HW115616   0.731   8.631   8.732 -0.2312 -0.6508  0.8611
 4800SOL    HW215617   0.798   8.760   8.689 -0.8588 -0.6299 -0.0803
 4801SOL     OW15618   0.829   8.380   8.608  0.2972  0.1867 -0.1234
 4801SOL    HW115619   0.909   8.429   8.588  0.1075  1.1345  1.2889
 4801SOL    HW215620   0.777   8.440   8.661 -0.5216 -1.1006  0.5759
 4802SOL     OW15621   0.938   7.950   7.719 -0.0030 -0.2933  0.2689
 4802SOL    HW115622   0.994   7.938   7.642 -0.9594 -1.0835 -0.3248
 4802SOL    HW215623   0.909   7.861   7.741 -0.9960  0.0991  0.5802
 4803SOL     OW15624   0.339   7.803   0.162  0.1559  0.3398  0.0676
 4803SOL    HW115625   0.415   7.746   0.150  0.1039 -0.3095  2.4799
 4803SOL    HW215626   0.264   7.743   0.165 -0.5038  0.9594 -2.1160
 4804SOL     OW15627   0.534   8.635   8.191  0.7605  1.0709 -0.1799
 4804SOL    HW115628   0.552   8.549   8.231  1.1027  0.9324 -0.6294
 4804SOL    HW215629   0.477   8.679   8.255  0.3615  0.4092 -0.0651
 4805SOL     OW15630   1.026   7.921   8.516 -0.3780  0.6667 -1.0816
 4805SOL    HW115631   1.066   7.997   8.560 -1.9254 -0.5376  2.8110
 4805SOL    HW215632   0.932   7.939   8.519 -0.9050 -1.8991  1.2398
 4806SOL     OW15633   8.837   7.610   8.481 -0.4914  0.0786  0.1357
 4806SOL    HW115634   8.796   7.591   8.397 -1.1711 -0.5928  0.6088
 4806SOL    HW215635   8.924   7.644   8.458 -0.2295 -1.1633 -0.8189
 4807SOL     OW15636   1.296   7.847   7.717 -0.4077  0.4723 -0.0962
 4807SOL    HW115637   1.206   7.854   7.685 -0.7860 -0.4175  0.7429
 4807SOL    HW215638   1.288   7.835   7.811  0.6074  0.5428  0.0130
 4808SOL     OW15639   1.402   7.945   8.124  0.5191  0.8346 -0.3934
 4808SOL    HW115640   1.366   7.869   8.078  0.6499  0.1154  0.6322
 4808SOL    HW215641   1.330   7.977   8.178  1.0175  0.1829  0.6922
 4809SOL     OW15642   1.347   7.426   7.890  0.2116 -0.1526  0.2677
 4809SOL    HW115643   1.413   7.358   7.882  1.1148  0.7947 -0.5574
 4809SOL    HW215644   1.287   7.411   7.816  0.3100 -0.1654  0.1905
 4810SOL     OW15645   1.362   8.562   7.359 -0.3502 -0.3701 -0.3288
 4810SOL    HW115646   1.405   8.478   7.378 -0.6867 -0.4410  0.1127
 4810SOL    HW215647   1.340   8.556   7.266 -1.4452 -1.2714 -0.0352
 4811SOL     OW15648   0.455   8.702   0.049  0.3922  0.3632 -0.1672
 4811SOL    HW115649   0.395   8.746   0.111 -1.1823  0.5688 -1.7639
 4811SOL    HW215650   0.529   8.675   0.103 -0.7108  0.9317  1.7312
 4812SOL     OW15651   0.065   8.258   0.090  0.1257  0.0492 -0.4965
 4812SOL    HW115652   0.119   8.187   0.057  1.5421  1.3122 -1.0096
 4812SOL    HW215653   0.075   8.253   0.185  0.5419 -0.2024 -0.5504
 4813SOL     OW15654   1.540   7.618   8.581  0.0356 -0.6384  0.2785
 4813SOL    HW115655   1.630   7.597   8.554 -1.0725 -3.6790 -1.5139
 4813SOL    HW215656   1.517   7.696   8.529  1.0864 -0.8282 -0.5072
 4814SOL     OW15657   8.808   8.733   7.751  0.6764 -0.4472  0.4100
 4814SOL    HW115658   8.717   8.750   7.773  0.8371  0.0322  0.7211
 4814SOL    HW215659   8.856   8.749   7.833  1.1748  0.4531 -0.0366
 4815SOL     OW15660   1.223   8.056   8.326 -0.3975 -0.2233  0.5315
 4815SOL    HW115661   1.214   8.056   8.422 -1.8512 -1.4849  0.4146
 4815SOL    HW215662   1.154   7.998   8.295  1.4284 -1.6157 -1.1669
 4816SOL     OW15663   8.482   8.263   0.284  0.2430  0.0077  0.1293
 4816SOL    HW115664   8.420   8.237   0.352  1.6696  1.7648  2.2361
 4816SOL    HW215665   8.479   8.359   0.285  1.4931  0.0782 -1.1485
 4817SOL     OW15666   0.842   7.679   7.695  0.4995 -0.3288  0.6943
 4817SOL    HW115667   0.846   7.584   7.681  3.0336 -0.3680  1.2855
 4817SOL    HW215668   0.831   7.715   7.607  0.6822 -1.1228  0.3336
 4818SOL     OW15669   2.052   8.239   8.525  0.4755 -0.1727 -0.0452
 4818SOL    HW115670   2.061   8.331   8.501 -0.1444  0.3145  1.5321
 4818SOL    HW215671   1.991   8.238   8.598  0.5774 -1.8286  0.0575
 4819SOL     OW15672   0.495   8.167   0.330 -0.2565 -0.6633 -0.1193
 4819SOL    HW115673   0.568   8.218   0.365  0.0871 -1.2183 -0.0173
 4819SOL    HW215674   0.532   8.081   0.310 -0.3673 -0.2753 -2.1642
 4820SOL     OW15675   8.664   7.086   7.825  0.9078 -0.0378  0.3497
 4820SOL    HW115676   8.719   7.138   7.884 -0.4495  0.0407  1.6008
 4820SOL    HW215677   8.699   6.997   7.831  1.3010  0.1368  0.6334
 4821SOL     OW15678   0.502   0.240   0.178  0.0594 -0.0080 -0.3296
 4821SOL    HW115679   0.537   0.165   0.225 -1.9755 -0.9642 -0.2328
 4821SOL    HW215680   0.527   0.226   0.087 -1.2601 -1.4454 -0.5060
 4822SOL     OW15681   1.165   8.590   8.762 -0.0269 -0.0186  0.3806
 4822SOL    HW115682   1.092   8.651   8.752  1.8342  2.3401  0.3441
 4822SOL    HW215683   1.177   8.581   8.857 -0.1146 -0.1120  0.3828
 4823SOL     OW15684   1.553   7.896   7.654 -0.4592 -0.7890 -0.8161
 4823SOL    HW115685   1.612   7.843   7.707  1.6013 -0.8576 -3.0034
 4823SOL    HW215686   1.466   7.880   7.691  0.5214 -2.9347  0.7570
 4824SOL     OW15687   0.118   0.019   8.611  0.3129 -0.5377  0.8769
 4824SOL    HW115688   0.106  -0.076   8.599 -1.3610 -0.4475  1.5713
 4824SOL    HW215689   0.211   0.033   8.594  0.4783 -2.2125  0.1586
 4825SOL     OW15690   2.215   7.280   7.815 -0.3868 -0.3979  0.1420
 4825SOL    HW115691   2.254   7.358   7.853  1.0920 -0.7124 -0.6683
 4825SOL    HW215692   2.244   7.209   7.872  1.2765 -0.7825 -1.1035
 4826SOL     OW15693   1.671   8.521   8.239  0.1523  0.0681 -0.2467
 4826SOL    HW115694   1.741   8.569   8.283 -0.2584  0.0129  0.4798
 4826SOL    HW215695   1.603   8.511   8.305 -1.3396  1.7091 -1.4622
 4827SOL     OW15696   0.342   8.769   0.301 -0.2790  0.4581 -0.2869
 4827SOL    HW115697   0.306   8.766   0.390 -2.1020  3.9149 -0.7226
 4827SOL    HW215698   0.265   8.781   0.244  0.9926  0.3426 -2.1174
 4828SOL     OW15699   1.957   7.519   8.335  0.6104  0.5589  0.4671
 4828SOL    HW115700   1.986   7.430   8.353  0.8920  0.5802  0.1564
 4828SOL    HW215701   1.897   7.510   8.261 -0.6519  0.4514  1.4779
 4829SOL     OW15702   0.771   7.853   8.353  0.1597  0.5743  0.8342
 4829SOL    HW115703   0.855   7.858   8.309 -1.4413  0.7640 -2.4692
 4829SOL    HW215704   0.761   7.937   8.397  1.4603  0.7312  0.8527
 4830SOL     OW15705   0.791   0.297   0.090  0.2794  0.4144 -0.3277
 4830SOL    HW115706   0.730   0.341   0.149  0.8381  2.2838 -1.0585
 4830SOL    HW215707   0.737   0.266   0.018 -0.1399 -0.2516  0.2543
 4831SOL     OW15708   0.959   8.120   8.047  0.4925  0.0700  0.2420
 4831SOL    HW115709   0.912   8.178   7.988  0.6053 -0.8219 -0.7514
 4831SOL    HW215710   1.046   8.159   8.054  0.6537 -0.1044 -0.6398
 4832SOL     OW15711   0.638   0.570   0.189  0.3991  0.2630 -0.5259
 4832SOL    HW115712   0.686   0.626   0.128  1.5805 -0.3735 -0.2168
 4832SOL    HW215713   0.557   0.548   0.142 -0.3061  2.5161 -0.4888
 4833SOL     OW15714   1.688   8.626   8.746  0.3616  0.1857  0.1209
 4833SOL    HW115715   1.629   8.684   8.793  0.5831 -0.4469  1.2287
 4833SOL    HW215716   1.775   8.649   8.779  0.4828 -0.5296  0.3139
 4834SOL     OW15717   1.015   8.291   8.351 -0.0424  0.0266 -0.2521
 4834SOL    HW115718   1.023   8.217   8.292 -0.1300  0.5549 -0.9302
 4834SOL    HW215719   1.104   8.307   8.382  0.1300  0.2597 -0.8688
 4835SOL     OW15720   1.142   7.668   8.493 -0.2563 -0.1506  0.0335
 4835SOL    HW115721   1.113   7.759   8.488  0.2874 -0.0072 -0.6720
 4835SOL    HW215722   1.073   7.618   8.449 -1.3071 -0.2716  1.7652
 4836SOL     OW15723   1.900   7.838   8.744 -0.1529  0.0277  0.9314
 4836SOL    HW115724   1.811   7.812   8.769  0.0404  0.8087  2.5567
 4836SOL    HW215725   1.888   7.918   8.693 -0.5437 -1.5033 -1.5439
 4837SOL     OW15726   0.807   7.814   0.101 -0.0712  0.2823  0.0094
 4837SOL    HW115727   0.789   7.858   0.018 -0.1844 -0.1579 -0.2074
 4837SOL    HW215728   0.848   7.880   0.156  0.7329  0.3645 -0.6714
 4838SOL     OW15729   0.198   7.882   8.313 -0.2408  0.6188 -0.2329
 4838SOL    HW115730   0.158   7.967   8.294 -0.7934  0.5383  0.5185
 4838SOL    HW215731   0.237   7.893   8.399 -1.2214 -0.1828  0.3426
 4839SOL     OW15732   8.645   7.710   8.004  0.2890  0.5512  0.1912
 4839SOL    HW115733   8.626   7.630   7.955  2.4292 -1.6392  2.6481
 4839SOL    HW215734   8.725   7.745   7.964  0.8402 -0.0321  0.7838
 4840SOL     OW15735   1.115   8.428   0.191  0.5792  0.0762 -0.3291
 4840SOL    HW115736   1.162   8.352   0.156  3.3988  1.2683  0.6004
 4840SOL    HW215737   1.135   8.428   0.285 -0.0315  1.5368 -0.1694
 4841SOL     OW15738   2.044   8.470   8.373 -0.0402  0.2646  0.0784
 4841SOL    HW115739   1.969   8.518   8.410 -0.5277 -1.5107  1.5567
 4841SOL    HW215740   2.017   8.448   8.284 -0.9752  0.2817  0.3463
 4842SOL     OW15741   1.637   7.785   8.158 -0.0640 -0.6602  0.1249
 4842SOL    HW115742   1.681   7.850   8.213  1.6959 -2.2045  0.6556
 4842SOL    HW215743   1.560   7.830   8.125 -0.7334  0.6608  3.1335
 4843SOL     OW15744   0.558   8.533   8.716  0.3253 -0.2318  0.5151
 4843SOL    HW115745   0.491   8.601   8.715  0.2940 -0.2283 -1.6620
 4843SOL    HW215746   0.546   8.488   8.799 -0.5810  1.5055  1.3782
 4844SOL     OW15747   1.829   8.678   8.413 -0.1381 -0.2557 -0.2230
 4844SOL    HW115748   1.771   8.720   8.476  1.4348  0.2130  0.9804
 4844SOL    HW215749   1.882   8.749   8.378  1.7858 -1.0140  0.9901
 4845SOL     OW15750   0.504   0.222   7.603 -0.1825 -0.3263 -0.5880
 4845SOL    HW115751   0.575   0.285   7.615 -0.0400 -0.3872 -1.1214
 4845SOL    HW215752   0.545   0.146   7.563 -0.7035 -0.0071 -1.7793
 4846SOL     OW15753   0.722   8.166   8.180 -0.1675  0.2063  0.0841
 4846SOL    HW115754   0.678   8.137   8.100 -1.1947 -1.3002  1.1377
 4846SOL    HW215755   0.815   8.152   8.162 -0.4635 -1.2757 -0.4315
 4847SOL     OW15756   1.230   8.571   7.617  0.1314  0.1079  0.2499
 4847SOL    HW115757   1.175   8.647   7.602 -0.1528  0.0634  1.0297
 4847SOL    HW215758   1.271   8.554   7.532 -1.9429 -0.5733 -0.6733
 4848SOL     OW15759   0.302   8.645   8.325  0.0589 -0.1289  0.3896
 4848SOL    HW115760   0.257   8.616   8.246 -0.1527 -0.3916  0.6025
 4848SOL    HW215761   0.246   8.615   8.396  0.5025 -0.3466  0.6560
 4849SOL     OW15762   2.137   7.190   8.698  0.4136  0.2527 -0.5529
 4849SOL    HW115763   2.153   7.206   8.791 -0.7064 -0.9656 -0.1175
 4849SOL    HW215764   2.120   7.096   8.692  0.4259  0.3161 -1.9901
 4850SOL     OW15765   0.494   8.342   8.509  0.2864 -0.4175  0.1172
 4850SOL    HW115766   0.518   8.412   8.570  0.9053 -0.0637 -0.5232
 4850SOL    HW215767   0.521   8.262   8.554 -0.1560 -0.2333  0.7281
 4851SOL     OW15768   1.414   8.772   8.805  0.1850 -0.1084 -0.4055
 4851SOL    HW115769   1.394   8.787   8.713  2.8284  0.4889 -0.9785
 4851SOL    HW215770   1.380   8.849   8.850  2.0585  1.4177 -1.4646
 4852SOL     OW15771   8.518   8.343   0.627 -0.3031 -0.2048 -0.4994
 4852SOL    HW115772   8.608   8.322   0.654 -0.4750  2.0161  2.3243
 4852SOL    HW215773   8.522   8.436   0.602 -1.8804  0.1334  0.3535
 4853SOL     OW15774   1.815   7.654   8.530  0.3559  0.6405 -0.3564
 4853SOL    HW115775   1.865   7.719   8.579  0.4211  1.0659 -0.9775
 4853SOL    HW215776   1.877   7.620   8.465 -0.2533  1.4679 -1.4011
 4854SOL     OW15777   0.963   7.354   8.776  0.0950 -0.1334 -0.1889
 4854SOL    HW115778   0.965   7.437   8.824  0.3499 -0.5146  0.4822
 4854SOL    HW215779   1.054   7.326   8.774 -0.2888 -1.9645  2.4627
 4855SOL     OW15780   1.279   0.124   7.367 -0.1077 -0.4885 -0.4500
 4855SOL    HW115781   1.282   0.180   7.289 -0.2023 -1.4506 -1.1595
 4855SOL    HW215782   1.229   0.175   7.431 -1.0418 -0.1655 -1.4091
 4856SOL     OW15783   1.549   7.226   7.798 -0.0041 -0.2944 -0.3912
 4856SOL    HW115784   1.520   7.146   7.753 -1.0114 -0.1137 -0.1018
 4856SOL    HW215785   1.548   7.202   7.891 -2.1113  0.5394 -0.1313
 4857SOL     OW15786   1.620   8.102   7.989  0.4300  0.1456 -0.0779
 4857SOL    HW115787   1.535   8.062   8.006  0.1272  0.7503 -0.1234
 4857SOL    HW215788   1.627   8.173   8.053  0.6890  0.3983 -0.3778
 4858SOL     OW15789   1.878   7.466   7.887  0.1044 -0.1773 -0.3613
 4858SOL    HW115790   1.960   7.513   7.881 -0.2256  0.3133 -1.1936
 4858SOL    HW215791   1.858   7.441   7.797 -1.2379  0.7292 -0.3482
 4859SOL     OW15792   8.499   8.301   7.945 -0.8242  0.4029 -0.0349
 4859SOL    HW115793   8.535   8.360   7.879 -0.6843  0.1588 -0.1808
 4859SOL    HW215794   8.494   8.353   8.025 -1.7144  0.9225 -0.4239
 4860SOL     OW15795   1.855   0.431   8.585 -0.0436  0.3494 -0.2656
 4860SOL    HW115796   1.925   0.496   8.575  1.1308 -0.8339  0.0735
 4860SOL    HW215797   1.842   0.423   8.679  0.9616 -1.0557 -0.2159
 4861SOL     OW15798   2.306   0.058   0.962  0.3038 -0.7682 -0.1371
 4861SOL    HW115799   2.286  -0.035   0.971 -0.4203 -0.4729  1.7916
 4861SOL    HW215800   2.227   0.097   0.925 -0.0770 -0.6785  0.7399
 4862SOL     OW15801   1.748   0.310   0.252 -0.4589  0.9623 -0.1440
 4862SOL    HW115802   1.673   0.251   0.249 -2.3443  3.1216  0.6394
 4862SOL    HW215803   1.718   0.383   0.307  3.1296  0.7801  2.3833
 4863SOL     OW15804   1.932   1.436   1.065 -0.4837 -0.1658 -0.2870
 4863SOL    HW115805   1.945   1.504   0.999  1.7776 -0.5399 -0.3124
 4863SOL    HW215806   1.979   1.360   1.031  2.3973  0.1558  2.4414
 4864SOL     OW15807   3.648   1.804   0.626 -0.1075 -0.2629 -0.0737
 4864SOL    HW115808   3.553   1.802   0.637 -0.1242 -0.9442 -0.2947
 4864SOL    HW215809   3.675   1.713   0.639  0.4670 -0.1419 -0.4022
 4865SOL     OW15810   2.905   0.759   0.354  0.2564 -0.0882  0.1892
 4865SOL    HW115811   2.905   0.699   0.280 -0.9986 -0.5003  0.5051
 4865SOL    HW215812   2.950   0.711   0.424 -2.6168 -1.6272  1.1407
 4866SOL     OW15813   3.899   0.764   0.414  0.3292  0.1848  0.2527
 4866SOL    HW115814   3.875   0.671   0.409 -0.6586  0.4803 -1.1848
 4866SOL    HW215815   3.839   0.801   0.479  0.1935 -0.0442  0.2594
 4867SOL     OW15816   2.599   1.089   1.077 -0.4728 -0.2902  0.4099
 4867SOL    HW115817   2.538   1.022   1.109 -1.5496 -0.0704 -1.0717
 4867SOL    HW215818   2.572   1.104   0.986  2.5728 -1.1039 -0.7631
 4868SOL     OW15819   2.489   0.526   1.805 -0.3439 -0.2766 -0.4542
 4868SOL    HW115820   2.400   0.489   1.803 -0.7855  0.3693  2.7821
 4868SOL    HW215821   2.475   0.621   1.803  0.4032 -0.1667 -1.2664
 4869SOL     OW15822   3.080   0.816   0.649  0.2510 -0.1297 -0.0931
 4869SOL    HW115823   3.105   0.733   0.607 -1.9787 -1.6274  1.3522
 4869SOL    HW215824   3.120   0.811   0.736  0.6137  0.6269 -0.2099
 4870SOL     OW15825   2.088   1.035   1.762 -0.1258 -0.0759 -0.3882
 4870SOL    HW115826   2.135   1.079   1.692 -0.1844  1.0326  0.2502
 4870SOL    HW215827   2.032   1.102   1.799 -0.1929 -0.6781  0.6352
 4871SOL     OW15828   2.142   1.603   0.923 -0.0187  0.5514 -0.0199
 4871SOL    HW115829   2.144   1.636   0.833 -1.7537  2.4609  0.5800
 4871SOL    HW215830   2.232   1.610   0.953  0.2452  1.7258 -1.0030
 4872SOL     OW15831   3.383   1.407   1.368  0.6181  0.1570 -0.0809
 4872SOL    HW115832   3.457   1.352   1.342  1.4701  0.2898  1.8555
 4872SOL    HW215833   3.307   1.350   1.364  1.0347 -0.3702 -0.7364
 4873SOL     OW15834   2.036   0.203   1.363 -0.3377  0.0171 -0.0015
 4873SOL    HW115835   1.962   0.250   1.402  0.5039  0.7012  0.8113
 4873SOL    HW215836   2.042   0.122   1.413 -1.7537 -1.0022 -1.3663
 4874SOL     OW15837   3.436   0.722   8.632  0.2906  0.4716 -0.2698
 4874SOL    HW115838   3.470   0.811   8.622 -1.5227  1.2179 -0.2696
 4874SOL    HW215839   3.503   0.666   8.593  0.7373  1.9771 -1.7972
 4875SOL     OW15840   2.463   1.354   0.708  0.0088  0.1348  0.5568
 4875SOL    HW115841   2.375   1.358   0.671 -0.4425 -0.8351  1.4939
 4875SOL    HW215842   2.505   1.281   0.661  0.5354  0.9617 -0.3048
 4876SOL     OW15843   3.287   1.264   1.738 -0.1803  0.2296  0.4088
 4876SOL    HW115844   3.237   1.240   1.816 -1.7970  0.7661 -0.4090
 4876SOL    HW215845   3.321   1.351   1.758  0.2955 -0.0649  0.9061
 4877SOL     OW15846   1.842   1.244   0.829  0.1883 -0.4333 -0.2976
 4877SOL    HW115847   1.914   1.205   0.878  0.2814 -0.2352 -0.2768
 4877SOL    HW215848   1.854   1.212   0.739  0.2953 -0.4067 -0.2922
 4878SOL     OW15849   2.369   0.930   1.202  0.0997  0.0140 -0.0556
 4878SOL    HW115850   2.329   0.866   1.143 -1.1668  0.0399  0.7453
 4878SOL    HW215851   2.296   0.977   1.242  0.8502 -0.5401  2.1478
 4879SOL     OW15852   2.193   1.923   1.549 -0.0256 -0.1393  0.3607
 4879SOL    HW115853   2.208   2.009   1.511 -0.8313  0.4929  1.4169
 4879SOL    HW215854   2.268   1.910   1.607 -0.8122  0.7037  1.6236
 4880SOL     OW15855   2.182   0.747   8.808  0.1926 -0.3215 -0.2616
 4880SOL    HW115856   2.263   0.771   8.853 -0.7673  0.3104  1.2377
 4880SOL    HW215857   2.171   0.814   8.741 -0.0481  0.7489  0.8104
 4881SOL     OW15858   2.888   8.702   1.005  0.1692 -0.0316  0.2082
 4881SOL    HW115859   2.863   8.785   0.965 -0.9746 -0.7568 -0.6678
 4881SOL    HW215860   2.854   8.636   0.944  0.3129 -1.1486  1.3092
 4882SOL     OW15861   1.869   0.512   0.623  0.0040 -0.4439  0.6297
 4882SOL    HW115862   1.854   0.429   0.669  3.2755 -0.8377  1.1940
 4882SOL    HW215863   1.958   0.505   0.589 -0.1466  2.3118 -0.5749
 4883SOL     OW15864   3.554   2.165   0.108 -0.3450  0.1737 -0.6790
 4883SOL    HW115865   3.643   2.144   0.136 -0.4537  0.9692  0.3330
 4883SOL    HW215866   3.519   2.082   0.076 -0.3422 -0.9418  1.9728
 4884SOL     OW15867   1.923   1.250   0.359 -0.4693  0.0402 -0.1516
 4884SOL    HW115868   2.017   1.233   0.358 -0.3168  0.6137 -2.6330
 4884SOL    HW215869   1.897   1.240   0.450  1.4541 -3.0436  0.1926
 4885SOL     OW15870   3.350   0.960   0.231  0.0100 -0.2955 -0.0638
 4885SOL    HW115871   3.402   0.960   0.311  1.7323  2.0372 -1.0812
 4885SOL    HW215872   3.395   1.020   0.173 -0.6412 -2.5985 -3.2078
 4886SOL     OW15873   3.433   1.262   0.273 -0.2993 -0.1131  0.0397
 4886SOL    HW115874   3.470   1.180   0.305 -2.2373 -1.7973 -1.7141
 4886SOL    HW215875   3.403   1.308   0.352  2.5273 -0.0931  1.2213
 4887SOL     OW15876   2.083   0.950   1.212 -0.3326 -0.2595 -0.3530
 4887SOL    HW115877   2.037   0.945   1.296 -0.1713 -0.6950 -0.2890
 4887SOL    HW215878   2.023   0.908   1.150  0.5394 -2.1116 -0.0213
 4888SOL     OW15879   2.323   1.326   1.192 -0.1033 -0.6440  0.1419
 4888SOL    HW115880   2.323   1.402   1.133 -0.0250 -1.2453 -0.6589
 4888SOL    HW215881   2.329   1.251   1.133  1.7601 -1.2094  0.9739
 4889SOL     OW15882   2.801   1.332   1.548  0.7670 -0.1551 -0.7730
 4889SOL    HW115883   2.809   1.242   1.516  1.5453  0.1466 -1.4617
 4889SOL    HW215884   2.797   1.323   1.643  1.5532 -0.8843 -0.7932
 4890SOL     OW15885   2.668   8.778   0.164 -0.4508  0.0182 -0.2469
 4890SOL    HW115886   2.618   8.858   0.151 -0.3381  0.3144  0.9472
 4890SOL    HW215887   2.754   8.796   0.125 -0.9091 -0.0891 -1.3212
 4891SOL     OW15888   1.950   1.411   1.534 -0.5859 -0.0725  0.2592
 4891SOL    HW115889   2.032   1.449   1.502  0.0482 -1.4698  0.1544
 4891SOL    HW215890   1.900   1.392   1.455 -0.9170  0.5254  0.3134
 4892SOL     OW15891   3.481   1.067   8.848  0.5903 -0.6312 -0.3120
 4892SOL    HW115892   3.540   0.994   8.825  0.6739 -0.8630  0.5891
 4892SOL    HW215893   3.540   1.141   8.862  0.6928 -0.8644  0.5942
 4893SOL     OW15894   2.945   1.850   1.772  0.0204 -0.1561 -0.7032
 4893SOL    HW115895   2.917   1.759   1.766  1.6089 -0.5725 -2.6820
 4893SOL    HW215896   3.018   1.849   1.834 -0.6577  0.0003  0.1265
 4894SOL     OW15897   1.859   0.097   1.772 -0.1695  0.2245  0.5088
 4894SOL    HW115898   1.822   0.141   1.696  0.2270  0.4420  0.4424
 4894SOL    HW215899   1.784   0.085   1.831 -0.1473  1.7192  0.8827
 4895SOL     OW15900   3.607   1.568   0.407  0.0581 -0.1462 -0.2497
 4895SOL    HW115901   3.532   1.509   0.417  0.2455 -0.2402  0.6834
 4895SOL    HW215902   3.658   1.556   0.487  1.0698 -0.0692 -0.8577
 4896SOL     OW15903   3.658   1.989   0.931  0.1970 -0.0875 -0.2008
 4896SOL    HW115904   3.619   2.071   0.900 -0.3919 -0.1941  0.2343
 4896SOL    HW215905   3.618   1.922   0.875  1.9682  0.0560 -1.7247
 4897SOL     OW15906   2.909   0.384   0.227  0.1010  0.0752 -0.1550
 4897SOL    HW115907   2.899   0.381   0.132  2.8264  0.2361 -0.5131
 4897SOL    HW215908   2.963   0.461   0.244 -0.0607 -0.1389  1.5150
 4898SOL     OW15909   2.984   0.228   0.422 -0.0760  0.5518  0.0813
 4898SOL    HW115910   2.990   0.134   0.408 -0.6144  0.2889  1.4174
 4898SOL    HW215911   2.940   0.262   0.344  0.8114 -0.1816 -0.7648
 4899SOL     OW15912   3.330   1.889   0.408  0.1449 -0.0888 -0.3705
 4899SOL    HW115913   3.265   1.826   0.441 -0.6951 -1.4475 -4.1492
 4899SOL    HW215914   3.280   1.968   0.391 -0.4660 -0.8484 -2.4288
 4900SOL     OW15915   2.370   0.431   1.506  0.0895  0.1565  0.0747
 4900SOL    HW115916   2.305   0.402   1.570 -2.7703  3.4514 -1.0261
 4900SOL    HW215917   2.383   0.524   1.526  0.7037  0.7537 -2.7504
 4901SOL     OW15918   2.782   0.791   1.771  0.2374  0.2938  0.0176
 4901SOL    HW115919   2.836   0.870   1.782  0.0006  0.3265  1.0793
 4901SOL    HW215920   2.836   0.720   1.805  0.4601 -0.0291 -0.9632
 4902SOL     OW15921   2.677   1.233   1.848 -0.1506  0.2532  0.6061
 4902SOL    HW115922   2.607   1.190   1.799  0.7243  1.0098 -1.4338
 4902SOL    HW215923   2.636   1.260   1.930 -1.4678 -1.8273  0.7236
 4903SOL     OW15924   2.585   8.587   1.496 -0.2550 -0.1887 -0.1043
 4903SOL    HW115925   2.499   8.564   1.530  0.0912 -0.8574  0.3363
 4903SOL    HW215926   2.624   8.503   1.470 -0.4189  0.2573 -1.9719
 4904SOL     OW15927   3.099   0.568   0.213 -0.3124  0.1061 -0.4757
 4904SOL    HW115928   3.147   0.622   0.151 -3.0013  1.0606 -1.9029
 4904SOL    HW215929   3.158   0.495   0.233  1.7092  1.2346 -1.9600
 4905SOL     OW15930   2.213   0.764   0.988  0.0098  0.2286 -0.3087
 4905SOL    HW115931   2.157   0.743   0.913  1.2606  0.0259 -1.2064
 4905SOL    HW215932   2.250   0.681   1.015  1.3231  0.5870 -0.9197
 4906SOL     OW15933   1.966   2.407   1.612 -0.1925  0.2556  0.0103
 4906SOL    HW115934   1.873   2.384   1.618  0.1979 -1.3758  0.2396
 4906SOL    HW215935   1.976   2.441   1.524 -0.6678 -1.3654 -0.7179
 4907SOL     OW15936   2.826   0.080   0.009  0.2034  0.2736  0.1988
 4907SOL    HW115937   2.876   0.049  -0.066  0.0369 -1.4292  0.7609
 4907SOL    HW215938   2.758   0.136  -0.028 -0.6969 -1.5903 -1.0708
 4908SOL     OW15939   3.720   0.468   1.758 -0.3112 -0.2617 -0.3107
 4908SOL    HW115940   3.795   0.430   1.802  0.5636  0.4820 -1.1083
 4908SOL    HW215941   3.758   0.531   1.697 -1.5581 -0.1946 -1.0502
 4909SOL     OW15942   3.122   1.302   0.524  0.3497 -0.0696 -0.0626
 4909SOL    HW115943   3.121   1.242   0.449  3.6624  1.0618 -1.2199
 4909SOL    HW215944   3.091   1.385   0.489  1.1993  0.2749 -0.0328
 4910SOL     OW15945   2.525   0.220   0.675  0.2495  0.8487  0.1299
 4910SOL    HW115946   2.446   0.188   0.633  0.7223  0.9091 -0.8500
 4910SOL    HW215947   2.553   0.149   0.732 -0.7499  1.0085  0.8465
 4911SOL     OW15948   2.826   1.632   0.518 -0.6294  0.2616 -0.2061
 4911SOL    HW115949   2.748   1.624   0.464  0.1582 -0.9887 -1.2355
 4911SOL    HW215950   2.804   1.588   0.600 -0.8752 -0.4591 -0.6538
 4912SOL     OW15951   2.403   1.575   1.009  0.7420  0.0046  0.4162
 4912SOL    HW115952   2.453   1.561   0.929 -0.4100 -0.0137 -0.3319
 4912SOL    HW215953   2.432   1.659   1.042 -0.6753  1.3436 -1.5281
 4913SOL     OW15954   3.399   1.106   0.945 -0.1745  0.5620 -0.9705
 4913SOL    HW115955   3.491   1.130   0.932 -0.3248  0.9385 -1.3673
 4913SOL    HW215956   3.354   1.144   0.870 -0.6415  0.2933 -0.8277
 4914SOL     OW15957   3.178   1.204   1.507 -0.0157 -0.0481  0.0712
 4914SOL    HW115958   3.115   1.273   1.486 -0.8997 -0.6305  0.7401
 4914SOL    HW215959   3.207   1.224   1.596  0.5250  0.0551 -0.1278
 4915SOL     OW15960   1.962   0.856   0.097  0.0041  0.7747  0.0472
 4915SOL    HW115961   2.033   0.805   0.056 -1.4746  0.0314 -1.7090
 4915SOL    HW215962   2.002   0.941   0.117  1.9609 -0.3129  1.1050
 4916SOL     OW15963   3.192   1.219   0.788  0.0129  0.0413  0.3315
 4916SOL    HW115964   3.140   1.230   0.708 -0.4056 -5.8709 -0.6718
 4916SOL    HW215965   3.146   1.271   0.854 -1.3989  2.7337 -2.4871
 4917SOL     OW15966   1.927   0.953   1.559 -0.0603 -0.0174 -0.7078
 4917SOL    HW115967   2.021   0.967   1.569  0.2159 -1.0469 -1.5443
 4917SOL    HW215968   1.889   0.974   1.644  0.8920  0.6579 -0.4407
 4918SOL     OW15969   3.291   1.378   0.059  0.2734 -0.5650  0.0355
 4918SOL    HW115970   3.346   1.341   0.128  1.0850  0.4284 -0.0645
 4918SOL    HW215971   3.201   1.368   0.092  0.7075  1.8652  2.2804
 4919SOL     OW15972   1.459   0.096   1.520  0.0095  0.3398  0.2979
 4919SOL    HW115973   1.452   0.001   1.511 -2.6823  0.2318  2.4313
 4919SOL    HW215974   1.441   0.130   1.432  1.6078 -1.0701 -0.6278
 4920SOL     OW15975   3.772   2.012   0.237  0.4678 -0.3583  0.3141
 4920SOL    HW115976   3.700   1.956   0.264 -0.3270  0.6909  0.4584
 4920SOL    HW215977   3.826   2.021   0.315  1.9569 -2.7983 -0.3122
 4921SOL     OW15978   2.145   1.137   0.516 -0.4628 -0.2251 -0.0301
 4921SOL    HW115979   2.217   1.077   0.536  0.8568  1.6345  1.0633
 4921SOL    HW215980   2.179   1.224   0.537 -2.5080  0.8809 -0.9898
 4922SOL     OW15981   2.672   0.308   8.690 -0.3809 -0.2885 -0.3135
 4922SOL    HW115982   2.584   0.291   8.723  0.8144 -1.0112  3.0042
 4922SOL    HW215983   2.685   0.243   8.621 -1.9855 -1.0496  0.0546
 4923SOL     OW15984   1.816   1.376   1.314 -0.0094 -0.1749  0.3086
 4923SOL    HW115985   1.862   1.399   1.233  0.4766  0.7479  0.8364
 4923SOL    HW215986   1.725   1.400   1.296 -0.4678 -2.4875 -0.9275
 4924SOL     OW15987   2.832   1.666   1.384 -0.3875  0.1260  0.4270
 4924SOL    HW115988   2.912   1.613   1.388 -0.1621  0.4263  0.0278
 4924SOL    HW215989   2.777   1.622   1.319 -0.6316 -0.1857  0.8365
 4925SOL     OW15990   2.110   0.525   0.504 -0.1917  0.2820 -0.8022
 4925SOL    HW115991   2.102   0.456   0.438  1.5779 -0.0922 -0.6612
 4925SOL    HW215992   2.182   0.581   0.473  0.1758  0.5260  0.4278
 4926SOL     OW15993   2.996   8.845   1.511 -0.0080 -0.0989  0.2244
 4926SOL    HW115994   3.025   8.935   1.501 -1.0709  0.1382 -1.0726
 4926SOL    HW215995   2.931   8.833   1.441  0.2810 -1.9346  0.2234
 4927SOL     OW15996   2.396   0.277   0.003  0.0187 -0.7374 -0.5429
 4927SOL    HW115997   2.378   0.367  -0.023 -0.3742 -0.9105 -0.8775
 4927SOL    HW215998   2.355   0.224  -0.065  0.5794 -1.1632 -0.5595
 4928SOL     OW15999   2.591   0.097   2.005  0.8444 -0.1757  0.1770
 4928SOL    HW116000   2.634   0.012   1.995  1.0468 -0.2778  1.7039
 4928SOL    HW216001   2.637   0.154   1.943  0.7891 -1.1301 -0.7755
 4929SOL     OW16002   2.874   1.903   1.524  0.9641 -0.7645  0.4165
 4929SOL    HW116003   2.859   1.826   1.469  0.6803 -1.4781  1.4714
 4929SOL    HW216004   2.908   1.868   1.606  1.6520  0.3097  0.6065
 4930SOL     OW16005   2.795   0.759   1.496  0.0485  0.3928  0.2512
 4930SOL    HW116006   2.811   0.802   1.580  0.8098  0.6339 -0.0188
 4930SOL    HW216007   2.868   0.785   1.441 -0.1478 -0.2306 -0.3114
 4931SOL     OW16008   2.775   1.236   1.220 -0.1331  0.7252 -0.3216
 4931SOL    HW116009   2.710   1.182   1.175 -0.1258  0.2803  0.1897
 4931SOL    HW216010   2.841   1.254   1.153  0.3136 -0.6486 -0.2722
 4932SOL     OW16011   2.857   0.136   0.930 -0.0490  0.7206  0.0094
 4932SOL    HW116012   2.890   0.146   0.841 -1.3152 -0.4990 -0.6157
 4932SOL    HW216013   2.804   0.215   0.945 -1.3959  0.0467 -1.0395
 4933SOL     OW16014   2.380   8.836   0.284  0.2148 -0.0408  0.8790
 4933SOL    HW116015   2.440   8.764   0.303  0.1407  0.0247  1.3859
 4933SOL    HW216016   2.437   8.912   0.271  0.2543 -0.0287  1.1199
 4934SOL     OW16017   3.048   1.525   0.402  0.2952 -0.0345 -0.5792
 4934SOL    HW116018   2.970   1.577   0.424 -0.0202 -0.5064 -0.5830
 4934SOL    HW216019   3.121   1.583   0.424 -0.0452  1.0959 -2.1807
 4935SOL     OW16020   2.488   8.580   0.086  0.0429 -0.5004  0.5612
 4935SOL    HW116021   2.497   8.660   0.139 -0.0741 -0.3812  0.4038
 4935SOL    HW216022   2.455   8.611   0.002 -2.2470 -0.9323  1.2202
 4936SOL     OW16023   2.848   8.541   0.071  0.1407 -0.2658 -0.1875
 4936SOL    HW116024   2.774   8.587   0.111 -0.5610 -1.4431 -0.0869
 4936SOL    HW216025   2.922   8.560   0.128 -0.2637  0.2634  0.1677
 4937SOL     OW16026   2.632   0.423   1.357 -0.9458 -0.0085  0.5594
 4937SOL    HW116027   2.541   0.394   1.361 -0.6652 -0.8371  1.2983
 4937SOL    HW216028   2.656   0.442   1.448  0.9719 -4.2599  1.1644
 4938SOL     OW16029   2.907   1.469   1.020  0.4682 -1.3493 -0.2676
 4938SOL    HW116030   2.881   1.550   0.976  1.5599 -2.1535 -2.5357
 4938SOL    HW216031   2.947   1.499   1.102  0.9863  0.4542 -1.1207
 4939SOL     OW16032   2.818   0.856   0.819  0.5751 -0.0950  0.0356
 4939SOL    HW116033   2.814   0.918   0.747  1.0676  0.1094  0.1778
 4939SOL    HW216034   2.890   0.797   0.795  1.8632  0.9611  1.1191
 4940SOL     OW16035   3.443   1.589   0.759  0.0039 -0.0199 -0.0580
 4940SOL    HW116036   3.491   1.630   0.831  1.4189 -2.2795  0.3743
 4940SOL    HW216037   3.363   1.557   0.800  1.5827 -2.8904  1.0936
 4941SOL     OW16038   3.297   0.720   0.077 -0.4764  0.0491  0.1828
 4941SOL    HW116039   3.356   0.719   0.001  0.1511 -0.4401  0.6641
 4941SOL    HW216040   3.345   0.768   0.144 -1.9631  2.5685 -0.4107
 4942SOL     OW16041   2.200   0.759   1.400 -0.0445  0.1450 -0.3122
 4942SOL    HW116042   2.252   0.800   1.330 -0.5518  2.7938  0.7278
 4942SOL    HW216043   2.264   0.732   1.465  0.2730 -0.2365 -0.7765
 4943SOL     OW16044   2.268   8.638   1.007  0.6748 -0.7931 -0.4434
 4943SOL    HW116045   2.186   8.603   1.041  0.3886  0.3261  0.0481
 4943SOL    HW216046   2.329   8.632   1.081 -0.5157  3.6909  1.2549
 4944SOL     OW16047   2.630   0.350   0.400  0.3196  0.3786  0.3797
 4944SOL    HW116048   2.626   0.386   0.488 -1.0671 -0.4869  0.7108
 4944SOL    HW216049   2.723   0.352   0.376  0.7564  0.3015  1.9937
 4945SOL     OW16050   2.718   0.410   0.664  0.3888  0.3215  0.2834
 4945SOL    HW116051   2.720   0.452   0.750  2.5599 -2.0105  1.4752
 4945SOL    HW216052   2.651   0.342   0.671 -1.1065  1.6049 -0.7274
 4946SOL     OW16053   2.942   0.993   0.499  0.7877 -0.8609 -0.3220
 4946SOL    HW116054   2.993   0.936   0.557  2.8711  0.6559 -0.5228
 4946SOL    HW216055   2.911   0.935   0.430  1.2547 -2.0795  0.4562
 4947SOL     OW16056   3.378   0.578   0.494  0.1663  0.2479 -0.4040
 4947SOL    HW116057   3.412   0.649   0.440  0.4150  0.1251 -0.4125
 4947SOL    HW216058   3.451   0.556   0.553 -0.8316  1.9337  1.5655
 4948SOL     OW16059   3.676   0.875   0.142  0.2818  0.4334 -0.5897
 4948SOL    HW116060   3.764   0.860   0.176 -0.9554 -2.1760  1.8048
 4948SOL    HW216061   3.688   0.880   0.047  2.7853 -2.0208 -0.5238
 4949SOL     OW16062   2.440   1.359   0.296 -0.0520 -0.2452  0.6728
 4949SOL    HW116063   2.388   1.302   0.240  1.4629 -2.4801  1.3777
 4949SOL    HW216064   2.510   1.302   0.330  0.9906  1.8103  2.2321
 4950SOL     OW16065   3.582   1.818   0.308  0.0920  0.6371 -0.2646
 4950SOL    HW116066   3.595   1.731   0.346  2.9695  1.1354  0.0922
 4950SOL    HW216067   3.500   1.849   0.348 -0.3006 -1.3525  0.6118
 4951SOL     OW16068   3.395   0.409   8.817  0.1651 -0.4444 -0.2811
 4951SOL    HW116069   3.303   0.428   8.801  0.3618 -0.8610 -2.1668
 4951SOL    HW216070   3.414   0.451   8.901 -1.7649 -0.5000  0.2249
 4952SOL     OW16071   2.549   0.172   0.207  0.1779  0.3288  0.5225
 4952SOL    HW116072   2.551   0.244   0.270 -3.7261 -0.8179  2.3223
 4952SOL    HW216073   2.503   0.208   0.131  3.0451  1.1039 -1.0031
 4953SOL     OW16074   3.411   0.751   1.543 -0.4148 -0.4973  0.3270
 4953SOL    HW116075   3.466   0.762   1.465 -1.1529 -0.4973 -0.2081
 4953SOL    HW216076   3.456   0.800   1.611  0.3401 -0.6437 -0.0532
 4954SOL     OW16077   3.003   1.501   1.565 -0.1348  0.1085 -0.3594
 4954SOL    HW116078   2.924   1.450   1.582  1.7432 -2.8971  0.0304
 4954SOL    HW216079   3.052   1.499   1.647  1.2755  0.0902 -1.1608
 4955SOL     OW16080   3.633   1.596   1.994 -0.5371 -0.1945 -0.4587
 4955SOL    HW116081   3.697   1.662   1.969 -0.6552 -0.5019 -1.6933
 4955SOL    HW216082   3.685   1.517   2.010 -0.4970 -0.1221 -0.2421
 4956SOL     OW16083   3.033   1.377   1.315  0.6166  0.0227 -0.3865
 4956SOL    HW116084   3.038   1.429   1.395  0.0404  2.4391 -1.8357
 4956SOL    HW216085   2.948   1.333   1.321  0.1698  0.9003 -0.0669
 4957SOL     OW16086   3.247   1.003   1.325 -0.2587 -0.4620  0.0326
 4957SOL    HW116087   3.223   1.069   1.389  1.0873 -0.0521  0.1552
 4957SOL    HW216088   3.199   1.027   1.246 -0.9154 -0.2072  0.5037
 4958SOL     OW16089   2.696   0.489   1.622 -0.1779  0.4373 -0.4912
 4958SOL    HW116090   2.641   0.500   1.700 -0.6787  3.1438 -1.1292
 4958SOL    HW216091   2.728   0.577   1.603  1.5496 -0.4882 -2.2197
 4959SOL     OW16092   2.828   1.053   1.544  0.1556 -0.0198  0.0146
 4959SOL    HW116093   2.798   1.058   1.634  0.5362  0.4785  0.1169
 4959SOL    HW216094   2.922   1.038   1.550  0.4623  1.6536 -0.2822
 4960SOL     OW16095   2.648   0.883   0.229 -0.2927  0.2932  0.2518
 4960SOL    HW116096   2.719   0.825   0.254 -1.9970 -2.0874 -0.0936
 4960SOL    HW216097   2.687   0.942   0.163  1.6603  0.0469  1.1255
 4961SOL     OW16098   2.265   0.548   1.153  0.1670 -0.0409 -0.5765
 4961SOL    HW116099   2.274   0.601   1.233 -1.9172 -0.1167 -0.2509
 4961SOL    HW216100   2.269   0.458   1.184  1.7790 -0.1262 -0.9059
 4962SOL     OW16101   2.674   0.326   0.955  0.3980 -0.3035 -0.1350
 4962SOL    HW116102   2.697   0.406   1.002 -0.5962  1.3106 -2.2000
 4962SOL    HW216103   2.585   0.306   0.984 -0.4635  1.0563 -1.6384
 4963SOL     OW16104   1.790   1.574   1.736  0.1652  0.4373  0.9862
 4963SOL    HW116105   1.867   1.565   1.792  0.9169  3.5870  0.6730
 4963SOL    HW216106   1.812   1.528   1.655  0.7420 -0.6624  1.7496
 4964SOL     OW16107   2.236   0.934   0.290 -0.6336 -0.1205 -0.5490
 4964SOL    HW116108   2.188   0.944   0.207 -1.4494 -0.2150 -0.1009
 4964SOL    HW216109   2.206   1.007   0.344  1.0505  0.8510 -0.8471
 4965SOL     OW16110   2.577   0.042   0.869 -0.1121 -0.2480 -0.4479
 4965SOL    HW116111   2.638   0.075   0.935  0.5886 -0.4686 -0.9690
 4965SOL    HW216112   2.491   0.049   0.909  0.1762  0.8473 -0.0050
 4966SOL     OW16113   3.383   1.392   0.503 -0.3381 -0.2528 -0.9079
 4966SOL    HW116114   3.432   1.356   0.578  0.5112  1.6424 -0.5021
 4966SOL    HW216115   3.291   1.375   0.525 -0.0550 -0.5565  0.1072
 4967SOL     OW16116   3.269   1.604   1.147 -0.1003 -0.2504  0.6774
 4967SOL    HW116117   3.332   1.587   1.217 -0.6106 -0.5056  1.0807
 4967SOL    HW216118   3.193   1.642   1.192  0.7567  2.6749 -0.0857
 4968SOL     OW16119   3.287   0.996   0.662  0.3739  0.1120  0.0063
 4968SOL    HW116120   3.248   1.073   0.705 -0.1248 -0.1640  0.0590
 4968SOL    HW216121   3.213   0.936   0.650  0.7227 -0.2717 -0.2255
 4969SOL     OW16122   2.091   1.706   1.173 -0.1603  0.4845 -0.0452
 4969SOL    HW116123   2.120   1.648   1.103  0.3434  0.8103 -0.1089
 4969SOL    HW216124   2.112   1.660   1.254  0.6649  0.7740 -0.0874
 4970SOL     OW16125   1.813   0.428   1.468 -0.1832  0.2693 -0.4127
 4970SOL    HW116126   1.747   0.475   1.518 -0.6584 -0.1632 -0.6297
 4970SOL    HW216127   1.860   0.496   1.420 -0.8420  0.5278 -0.6996
 4971SOL     OW16128   3.226   0.598   1.694  0.0087  0.4071 -0.3635
 4971SOL    HW116129   3.280   0.652   1.635  1.0820 -0.7940 -0.5252
 4971SOL    HW216130   3.288   0.568   1.761 -0.4001 -1.2107 -0.6880
 4972SOL     OW16131   2.758   0.241   1.699  0.1599  0.1499  0.3163
 4972SOL    HW116132   2.722   0.329   1.687 -1.4848 -0.7076 -1.6612
 4972SOL    HW216133   2.758   0.203   1.611  6.4398  0.0750 -0.1053
 4973SOL     OW16134   2.248   8.583   1.627  0.2113  0.4931  0.4403
 4973SOL    HW116135   2.292   8.642   1.689  0.9202 -2.5641  3.1365
 4973SOL    HW216136   2.155   8.606   1.634  0.4619  1.2751  1.4503
 4974SOL     OW16137   3.018   0.801   1.345 -0.5031 -0.4151  0.2592
 4974SOL    HW116138   3.084   0.742   1.309 -1.3154 -2.6743  2.2166
 4974SOL    HW216139   2.981   0.845   1.268 -0.3847 -3.0604 -1.4468
 4975SOL     OW16140   2.764   0.592   0.874 -0.3234  0.7558  0.6681
 4975SOL    HW116141   2.753   0.593   0.970 -1.1579  0.4957  0.5905
 4975SOL    HW216142   2.764   0.684   0.849 -1.6109  0.8115  0.7883
 4976SOL     OW16143   3.134   0.480   8.717 -0.0957 -0.1657 -0.6764
 4976SOL    HW116144   3.125   0.496   8.623 -0.9441 -0.7318 -0.7056
 4976SOL    HW216145   3.045   0.485   8.751  0.1384 -0.4882  0.0083
 4977SOL     OW16146   2.088   8.612   1.243 -0.0881  0.5000  0.0560
 4977SOL    HW116147   1.998   8.642   1.243 -0.2863  0.0024  1.6610
 4977SOL    HW216148   2.136   8.679   1.293  0.2422  0.3011  0.0145
 4978SOL     OW16149   1.286   1.647   1.072  0.0951 -0.1910 -0.1162
 4978SOL    HW116150   1.228   1.572   1.081 -1.0940  0.5785 -1.0865
 4978SOL    HW216151   1.228   1.723   1.070  1.2196  0.7079  0.1449
 4979SOL     OW16152   2.438   0.277   1.067 -0.1900  0.1375 -0.0270
 4979SOL    HW116153   2.393   0.296   1.149  0.5791  1.3982  0.1286
 4979SOL    HW216154   2.406   0.190   1.042 -0.5952 -0.1876  1.4897
 4980SOL     OW16155   3.687   1.265   1.506 -0.1830 -0.0013  0.0924
 4980SOL    HW116156   3.643   1.228   1.429 -1.9772  1.1487  0.5268
 4980SOL    HW216157   3.660   1.210   1.579  1.1879 -0.8327  0.0256
 4981SOL     OW16158   2.308   0.154   0.506 -0.3076  0.2868 -0.6680
 4981SOL    HW116159   2.218   0.152   0.537  0.2911 -0.6451  1.1463
 4981SOL    HW216160   2.311   0.089   0.436 -1.1605  0.7478 -1.1456
 4982SOL     OW16161   3.273   0.381   0.288  0.5081  0.3998 -0.0936
 4982SOL    HW116162   3.275   0.373   0.383  0.5017 -1.1174 -0.1878
 4982SOL    HW216163   3.365   0.375   0.262  0.5682  1.4706 -0.1533
 4983SOL     OW16164   3.144   0.570   1.217 -0.5898 -0.5838 -0.3259
 4983SOL    HW116165   3.117   0.532   1.300  2.0278  0.0041  0.9028
 4983SOL    HW216166   3.103   0.514   1.151 -0.2148 -3.0506  1.3724
 4984SOL     OW16167   3.437   1.933   1.319  0.0164 -0.2575  0.1181
 4984SOL    HW116168   3.515   1.981   1.290 -0.7799  0.0874 -1.5814
 4984SOL    HW216169   3.471   1.851   1.353  1.1612  0.0207 -0.2908
 4985SOL     OW16170   3.930   1.318   1.406 -0.2222 -0.7405 -0.5268
 4985SOL    HW116171   4.001   1.313   1.470  0.5271  0.3505 -1.2364
 4985SOL    HW216172   3.851   1.294   1.456  0.4817 -0.9333  0.5322
 4986SOL     OW16173   2.082   1.038   2.161  0.2750 -0.3626 -0.4650
 4986SOL    HW116174   2.141   0.973   2.123  0.8560  0.1955 -0.5323
 4986SOL    HW216175   2.104   1.040   2.254 -0.5335 -1.0830 -0.2456
 4987SOL     OW16176   3.516   8.702   8.678  0.0202  0.0833  0.1371
 4987SOL    HW116177   3.470   8.656   8.748 -0.8501  0.5334 -0.1217
 4987SOL    HW216178   3.492   8.654   8.598  0.2133  0.1657  0.0294
 4988SOL     OW16179   3.210   1.105   8.725 -0.5256 -0.0580 -0.4226
 4988SOL    HW116180   3.285   1.107   8.785 -0.3255  0.8459 -0.6824
 4988SOL    HW216181   3.247   1.072   8.643 -0.6694 -0.7081 -0.2356
 4989SOL     OW16182   2.943   1.190   0.932  0.6131  0.1247 -0.5611
 4989SOL    HW116183   2.879   1.167   0.865  0.1521  0.4943 -0.2612
 4989SOL    HW216184   2.929   1.284   0.947  1.2717  0.2262 -0.5327
 4990SOL     OW16185   2.165   0.612   0.751 -0.5588 -0.7591  0.1485
 4990SOL    HW116186   2.137   0.579   0.665 -0.0281  0.0101 -0.3427
 4990SOL    HW216187   2.240   0.557   0.774  1.8075  1.3856 -1.7397
 4991SOL     OW16188   2.332   0.385   0.822 -0.1329 -0.2479  0.3574
 4991SOL    HW116189   2.356   0.350   0.908  1.0856 -0.9492 -0.2521
 4991SOL    HW216190   2.409   0.370   0.767 -1.5035 -1.4218 -1.3502
 4992SOL     OW16191   3.163   0.251   1.418  0.0759 -0.1986 -0.2243
 4992SOL    HW116192   3.118   0.331   1.443  0.5468 -0.0041  0.0186
 4992SOL    HW216193   3.161   0.251   1.322 -0.1450 -0.0206 -0.2187
 4993SOL     OW16194   2.708   0.161   1.396 -0.4478  0.3757 -0.1944
 4993SOL    HW116195   2.720   0.249   1.358 -0.1763  0.6412  0.4863
 4993SOL    HW216196   2.773   0.107   1.351 -0.0936  0.6972 -0.0727
 4994SOL     OW16197   1.637   1.675   0.832 -0.3651 -0.3324  0.4369
 4994SOL    HW116198   1.592   1.652   0.914 -0.7242 -0.2183  0.2740
 4994SOL    HW216199   1.585   1.747   0.796  0.5199  0.4741  0.7397
 4995SOL     OW16200   2.264   1.411   1.457  0.2403 -0.4812 -0.1330
 4995SOL    HW116201   2.261   1.503   1.432 -1.2754 -0.6672 -0.7078
 4995SOL    HW216202   2.285   1.365   1.376 -1.4635 -0.8180 -0.4184
 4996SOL     OW16203   2.703   0.542   1.136 -0.1797 -0.1465 -0.2537
 4996SOL    HW116204   2.692   0.635   1.154  1.7061  0.0040  0.2718
 4996SOL    HW216205   2.669   0.498   1.214 -0.3296  0.1287 -0.1642
 4997SOL     OW16206   2.059   0.485   1.009  0.7799 -0.5132  0.2584
 4997SOL    HW116207   2.032   0.409   1.061 -1.9756  0.0400 -0.1994
 4997SOL    HW216208   2.130   0.525   1.060  1.2866 -2.5504  1.2380
 4998SOL     OW16209   2.014   8.838   1.597 -0.5124  0.5552  0.2149
 4998SOL    HW116210   1.973   8.855   1.682 -1.0263 -2.8023  0.7530
 4998SOL    HW216211   1.940   8.830   1.536 -0.2860  0.4112 -0.0427
 4999SOL     OW16212   3.083   0.936   1.584  0.1867 -0.4581 -0.4043
 4999SOL    HW116213   3.063   0.891   1.502  1.5881 -0.1662 -0.9205
 4999SOL    HW216214   3.151   0.998   1.561 -0.9095  1.1553  0.5403
 5000SOL     OW16215   3.119   8.697   0.111 -0.1283 -0.1442 -0.3109
 5000SOL    HW116216   3.143   8.787   0.088  2.4180 -0.4341  0.8919
 5000SOL    HW216217   3.152   8.644   0.038  0.0156 -0.2701 -0.1537
 5001SOL     OW16218   3.569   0.604   0.888  0.0822 -0.4137  0.2974
 5001SOL    HW116219   3.646   0.571   0.935  0.1265  0.0017  0.5213
 5001SOL    HW216220   3.501   0.608   0.956  0.1678  0.2643  0.3423
 5002SOL     OW16221   1.676   1.337   1.890 -0.0043  0.3510 -0.1287
 5002SOL    HW116222   1.691   1.368   1.980 -2.4533 -0.6751  0.7269
 5002SOL    HW216223   1.655   1.417   1.841  0.1912  0.7944  0.4943
 5003SOL     OW16224   2.266   0.310   1.289 -0.2222  0.1984  0.3034
 5003SOL    HW116225   2.183   0.273   1.319 -0.6201 -0.1357 -1.1521
 5003SOL    HW216226   2.304   0.349   1.368 -0.4255 -2.1110  1.6503
 5004SOL     OW16227   3.002   2.150   1.479 -0.0483 -0.2467  0.1001
 5004SOL    HW116228   2.976   2.059   1.494 -0.0237 -0.6454 -2.0173
 5004SOL    HW216229   3.096   2.145   1.463  0.0182  0.2001  0.3550
 5005SOL     OW16230   2.519   0.991   8.703 -0.3556  0.3092 -0.3308
 5005SOL    HW116231   2.483   1.064   8.753  0.2794  1.4635 -1.4892
 5005SOL    HW216232   2.608   1.019   8.681 -0.7537  0.0650 -2.4712
 5006SOL     OW16233   1.575   1.143   2.115 -0.0072 -0.5485  0.4098
 5006SOL    HW116234   1.571   1.049   2.103 -1.2564 -0.4766  0.1863
 5006SOL    HW216235   1.485   1.173   2.106  0.5336  0.8293 -0.9161
 5007SOL     OW16236   3.147   1.052   1.060  0.2336 -0.3080  0.3211
 5007SOL    HW116237   3.223   1.066   1.004  0.3552 -1.3228  0.2127
 5007SOL    HW216238   3.074   1.089   1.011  0.5747  0.2040  0.1923
 5008SOL     OW16239   3.100   1.134   0.324 -0.5077 -0.4504 -0.4598
 5008SOL    HW116240   3.071   1.069   0.388  2.0555  0.2893  1.6197
 5008SOL    HW216241   3.172   1.091   0.277  0.5521  0.5051  0.2515
 5009SOL     OW16242   3.651   1.878   1.546 -0.0529 -0.1250  0.0504
 5009SOL    HW116243   3.721   1.926   1.590  0.5470 -0.3804 -0.6049
 5009SOL    HW216244   3.647   1.916   1.458 -1.0413  0.1831  0.2242
 5010SOL     OW16245   3.073   1.632   0.786  0.0482 -0.5250 -0.2518
 5010SOL    HW116246   2.990   1.672   0.812  0.1856 -0.7952  0.6207
 5010SOL    HW216247   3.099   1.579   0.861  0.1474 -1.8132 -1.1581
 5011SOL     OW16248   1.680   1.100   1.340  0.9139  0.1559  0.4798
 5011SOL    HW116249   1.637   1.075   1.258  1.2577 -0.6419  0.5345
 5011SOL    HW216250   1.732   1.177   1.316 -2.0079  2.4346  0.8502
 5012SOL     OW16251   2.738   1.575   1.962  0.6282 -0.1767  0.1004
 5012SOL    HW116252   2.674   1.505   1.974  1.0504 -0.4133  1.1105
 5012SOL    HW216253   2.686   1.651   1.936 -0.1884 -0.1431  1.7035
 5013SOL     OW16254   2.390   0.070   8.640  0.8199 -0.7216  0.3001
 5013SOL    HW116255   2.436   0.073   8.557  0.0552  0.1950 -0.1068
 5013SOL    HW216256   2.411  -0.016   8.677  2.3399 -0.5654 -0.1507
 5014SOL     OW16257   3.775   0.279   0.285 -0.0963  0.0976 -0.2003
 5014SOL    HW116258   3.792   0.205   0.344  0.8620  0.9848  0.6713
 5014SOL    HW216259   3.785   0.243   0.197  1.3802 -0.5815  0.2226
 5015SOL     OW16260   3.091   1.975   0.778 -0.1915  0.1373 -0.1668
 5015SOL    HW116261   3.114   1.904   0.718 -2.8200 -1.0901  0.1386
 5015SOL    HW216262   3.051   2.041   0.721  0.1446  0.3701 -0.1386
 5016SOL     OW16263   2.402   1.611   2.082 -0.2073 -0.6271  0.2417
 5016SOL    HW116264   2.457   1.611   2.160  0.3670 -0.1835 -0.1574
 5016SOL    HW216265   2.387   1.518   2.064  2.3485 -0.8876 -0.9697
 5017SOL     OW16266   2.883   1.286   8.809  0.1562  0.8283  0.3107
 5017SOL    HW116267   2.969   1.307   8.844  1.0840  0.7256 -1.7928
 5017SOL    HW216268   2.848   1.370   8.778 -0.2959  0.7833  0.6790
 5018SOL     OW16269   2.593   1.578   1.600 -0.3093  0.1198  0.3332
 5018SOL    HW116270   2.655   1.518   1.559 -1.8208 -1.6874  0.5111
 5018SOL    HW216271   2.580   1.647   1.535  1.7579  0.5001  0.2700
 5019SOL     OW16272   2.240   1.396   0.537  0.0181  0.1104 -0.0813
 5019SOL    HW116273   2.178   1.458   0.577  1.1168  0.4917  1.0750
 5019SOL    HW216274   2.271   1.441   0.458  1.3115  1.3768  1.0925
 5020SOL     OW16275   3.495   1.651   1.371  0.3734  0.1452  0.5282
 5020SOL    HW116276   3.459   1.564   1.391 -0.2125  0.5997  1.4938
 5020SOL    HW216277   3.586   1.633   1.347  0.3565 -0.7152  1.0432
 5021SOL     OW16278   3.621   0.413   0.612 -0.2150 -0.0965 -0.4247
 5021SOL    HW116279   3.570   0.340   0.578  1.3116 -1.0340 -0.8103
 5021SOL    HW216280   3.659   0.381   0.694 -1.3009  1.0551  0.5665
 5022SOL     OW16281   2.009   0.173   0.528  0.3622 -0.1015 -0.0098
 5022SOL    HW116282   2.012   0.200   0.620 -4.1536 -0.2294  0.4007
 5022SOL    HW216283   2.003   0.078   0.530 -1.1609 -0.0345 -0.2812
 5023SOL     OW16284   3.593   1.464   0.150  0.0009  0.0456 -0.0812
 5023SOL    HW116285   3.609   1.522   0.224  1.4336  1.9905 -1.7879
 5023SOL    HW216286   3.540   1.394   0.186  1.7958  0.1158  3.1052
 5024SOL     OW16287   2.159   1.167   1.513 -0.8648 -0.2365  0.0508
 5024SOL    HW116288   2.194   1.256   1.508 -0.5231 -0.4102 -0.5820
 5024SOL    HW216289   2.093   1.163   1.444 -0.5484 -0.6221 -0.2336
 5025SOL     OW16290   2.811   1.072   0.117 -0.2594  0.2397 -0.3471
 5025SOL    HW116291   2.896   1.029   0.128 -0.0154  0.8970  0.4047
 5025SOL    HW216292   2.825   1.134   0.046 -0.5360 -0.7054 -1.2469
 5026SOL     OW16293   3.507   1.887   0.023  0.4647 -0.3147 -0.1007
 5026SOL    HW116294   3.526   1.833   0.101  0.0706 -0.7336 -0.2924
 5026SOL    HW216295   3.468   1.826  -0.039 -0.0363  0.2057 -0.3039
 5027SOL     OW16296   2.391   1.399   1.696  0.3633  0.2464 -0.2535
 5027SOL    HW116297   2.450   1.471   1.670  0.6729  0.2006  0.3056
 5027SOL    HW216298   2.330   1.390   1.622 -0.6669  2.1214  0.3009
 5028SOL     OW16299   3.297   1.405   0.981 -0.6193 -0.1004  0.1567
 5028SOL    HW116300   3.281   1.323   1.028 -0.5286 -0.3338 -0.2163
 5028SOL    HW216301   3.269   1.474   1.042 -4.3146 -0.4799 -0.9043
 5029SOL     OW16302   2.888   0.870   1.097  0.1778 -0.2851  0.4304
 5029SOL    HW116303   2.846   0.848   1.013  3.6951  0.8196 -1.8074
 5029SOL    HW216304   2.910   0.963   1.090  1.9253 -0.5265  1.9377
 5030SOL     OW16305   2.759   8.758   0.709 -0.0410  0.2755 -0.2402
 5030SOL    HW116306   2.761   8.813   0.631 -0.0723  2.0209  0.9281
 5030SOL    HW216307   2.709   8.809   0.773 -0.9925 -1.5864  0.5941
 5031SOL     OW16308   2.775   1.119   0.672  0.5084  0.0592 -0.2438
 5031SOL    HW116309   2.799   1.102   0.581  0.1884  0.6453 -0.4398
 5031SOL    HW216310   2.680   1.109   0.674  0.5583 -0.3696  0.1186
 5032SOL     OW16311   3.403   0.642   1.162  0.3325  0.7974 -0.0805
 5032SOL    HW116312   3.403   0.736   1.145  0.4050  1.0507  1.1983
 5032SOL    HW216313   3.311   0.617   1.160  0.3372  0.8300 -0.7469
 5033SOL     OW16314   2.094   1.086   0.097 -0.2207  0.4345 -0.3940
 5033SOL    HW116315   2.169   1.143   0.079 -0.3089  1.0004  0.8873
 5033SOL    HW216316   2.030   1.107   0.028  0.6059  0.2843 -1.2192
 5034SOL     OW16317   1.459   1.161   1.832  0.2493  0.0990 -0.0284
 5034SOL    HW116318   1.443   1.084   1.887  0.9066 -0.1190 -0.1337
 5034SOL    HW216319   1.536   1.202   1.870  0.4900  0.1519 -0.5639
 5035SOL     OW16320   2.248   8.772   1.382 -0.3499 -0.1632  0.1700
 5035SOL    HW116321   2.261   8.736   1.469 -0.7923 -1.0379 -0.1102
 5035SOL    HW216322   2.336   8.791   1.350 -0.0268 -1.8514 -0.0056
 5036SOL     OW16323   2.109   8.819   0.211  0.2668 -0.4249  0.1698
 5036SOL    HW116324   2.202   8.798   0.219  0.5440  0.1925 -1.2200
 5036SOL    HW216325   2.107   8.908   0.175 -0.8321 -0.9541 -1.1700
 5037SOL     OW16326   3.121   0.778   0.916  1.0872 -0.1314  0.1553
 5037SOL    HW116327   3.125   0.699   0.971 -0.3923  0.2234  0.8118
 5037SOL    HW216328   3.114   0.850   0.978  3.3130  0.6331 -0.4145
 5038SOL     OW16329   1.833   8.735   0.258 -0.2908  0.3520  0.6372
 5038SOL    HW116330   1.923   8.737   0.226 -0.0356 -2.9986  0.7918
 5038SOL    HW216331   1.781   8.767   0.184  0.8871  0.7565 -0.0510
 5039SOL     OW16332   3.210   1.709   0.552 -0.3048  0.6874 -0.0633
 5039SOL    HW116333   3.156   1.668   0.619 -0.5527 -0.8555 -1.1547
 5039SOL    HW216334   3.299   1.702   0.586 -0.3306 -0.8852 -0.2494
 5040SOL     OW16335   2.457   0.735   1.525 -0.1943  0.1274  0.2561
 5040SOL    HW116336   2.539   0.756   1.481 -0.6401  1.2190 -0.0838
 5040SOL    HW216337   2.469   0.767   1.615  0.0208 -0.4173  0.4314
 5041SOL     OW16338   3.756   1.541   1.310 -0.2279  0.2234 -0.2621
 5041SOL    HW116339   3.805   1.483   1.368  1.3725  1.3536 -0.4163
 5041SOL    HW216340   3.814   1.556   1.235 -0.7575  1.6778 -0.4276
 5042SOL     OW16341   2.226   0.513   1.852 -0.0588  0.1883 -0.5693
 5042SOL    HW116342   2.199   0.605   1.852  1.7068  0.7812 -2.6014
 5042SOL    HW216343   2.146   0.464   1.833 -0.4901  1.5794 -2.6923
 5043SOL     OW16344   3.804   1.160   1.857 -0.2299 -0.1856 -0.6360
 5043SOL    HW116345   3.842   1.074   1.877  0.5974 -0.0098 -1.4222
 5043SOL    HW216346   3.713   1.153   1.887  0.0012 -1.1218 -0.1179
 5044SOL     OW16347   1.894   1.934   1.550  0.7478 -0.8865 -0.8472
 5044SOL    HW116348   1.835   1.911   1.622  1.5168  0.5509  0.2986
 5044SOL    HW216349   1.981   1.916   1.583  1.1985  0.9499 -0.8976
 5045SOL     OW16350   3.063   0.485   1.508 -0.7503 -0.2142  0.0698
 5045SOL    HW116351   2.980   0.528   1.531 -0.1534  0.7177  0.5555
 5045SOL    HW216352   3.128   0.527   1.564 -0.2030 -2.1471  0.9418
 5046SOL     OW16353   3.194   0.344   0.604 -0.0536  0.0407 -0.1145
 5046SOL    HW116354   3.176   0.274   0.542  0.5491 -0.8971  0.7427
 5046SOL    HW216355   3.112   0.392   0.611 -0.7356 -1.1156 -0.0522
 5047SOL     OW16356   2.328   0.673   0.441  0.3158 -0.8215 -0.0640
 5047SOL    HW116357   2.376   0.624   0.374 -1.6987 -2.3997 -0.4501
 5047SOL    HW216358   2.381   0.666   0.520  0.5833 -2.7874 -0.3871
 5048SOL     OW16359   3.442   0.187   1.855  0.1103 -0.4992 -0.2176
 5048SOL    HW116360   3.468   0.243   1.928  1.2695 -0.1092 -0.9017
 5048SOL    HW216361   3.399   0.246   1.794 -0.5727 -0.7672 -0.0056
 5049SOL     OW16362   3.426   0.545   1.852  0.2653  0.1298 -0.1472
 5049SOL    HW116363   3.499   0.592   1.811  0.9511 -1.4113 -0.7718
 5049SOL    HW216364   3.468   0.488   1.917 -0.5037  0.0374  0.2777
 5050SOL     OW16365   2.628   1.144   0.338 -0.7385 -0.4692  0.0971
 5050SOL    HW116366   2.617   1.052   0.316  0.0684 -0.2599 -1.2409
 5050SOL    HW216367   2.713   1.168   0.300  0.7084 -0.0208  3.2726
 5051SOL     OW16368   2.473   1.670   1.284 -0.2961  0.4713  0.5167
 5051SOL    HW116369   2.456   1.736   1.216  0.5873  0.1195 -0.0577
 5051SOL    HW216370   2.542   1.615   1.248  0.4110  0.4547  1.8248
 5052SOL     OW16371   2.537   0.648   0.627 -0.0110  0.3369 -0.1203
 5052SOL    HW116372   2.630   0.629   0.613 -0.4110 -0.3436 -2.4524
 5052SOL    HW216373   2.529   0.666   0.720  2.6555  1.6288 -0.0542
 5053SOL     OW16374   3.068   0.909   0.031 -0.0028 -0.1879 -0.0922
 5053SOL    HW116375   3.121   0.972  -0.017 -1.3080 -1.4021 -3.4274
 5053SOL    HW216376   3.130   0.844   0.063  0.9666  0.8331  0.1306
 5054SOL     OW16377   4.118   1.838   0.889 -0.5356  0.0197 -0.2219
 5054SOL    HW116378   4.133   1.766   0.949  0.3282  0.1754 -0.2422
 5054SOL    HW216379   4.190   1.900   0.906 -0.8215  0.5106 -0.7398
 5055SOL     OW16380   2.184   1.379   1.901 -0.1622 -0.0469 -0.2240
 5055SOL    HW116381   2.117   1.332   1.851  0.6356 -0.7361 -0.6829
 5055SOL    HW216382   2.245   1.410   1.834  0.6361 -0.5042  0.2870
 5056SOL     OW16383   2.258   0.989   0.836  0.2775  0.2850 -0.1449
 5056SOL    HW116384   2.260   0.912   0.893  0.6613  0.7055  0.4137
 5056SOL    HW216385   2.229   0.954   0.751 -1.1318 -0.2023  0.5082
 5057SOL     OW16386   3.053   1.507   1.827  0.6767 -0.1199  0.7317
 5057SOL    HW116387   3.121   1.520   1.893  0.5746 -0.1617  0.8448
 5057SOL    HW216388   2.972   1.496   1.877  0.3840  1.1283  0.5715
 5058SOL     OW16389   3.131   0.251   1.142 -0.3405 -0.1122  0.0112
 5058SOL    HW116390   3.161   0.218   1.058 -2.3551 -2.6062  0.1525
 5058SOL    HW216391   3.047   0.293   1.124 -1.3415 -1.6571  0.8569
 5059SOL     OW16392   2.010   0.345   0.334 -0.1940 -0.4543 -0.1896
 5059SOL    HW116393   2.031   0.268   0.386  1.0385 -0.4127 -0.5960
 5059SOL    HW216394   1.918   0.333   0.310 -0.1410 -1.5894  0.1064
 5060SOL     OW16395   3.448   1.761   1.001 -0.1000 -0.3884  0.2121
 5060SOL    HW116396   3.480   1.842   1.040 -0.9944  1.2667 -2.2329
 5060SOL    HW216397   3.369   1.740   1.051 -1.1295  1.5550 -0.4935
 5061SOL     OW16398   2.504   8.810   1.320 -0.3500 -0.2311  0.4660
 5061SOL    HW116399   2.540   8.762   1.394  0.2742 -0.1243  0.2300
 5061SOL    HW216400   2.558   8.888   1.312  0.2433 -0.7336 -0.7437
 5062SOL     OW16401   2.673   1.488   1.207 -0.6737 -0.6548  0.1849
 5062SOL    HW116402   2.717   1.406   1.232 -0.1571 -0.3478  0.2966
 5062SOL    HW216403   2.633   1.468   1.122 -0.6939 -1.0739  0.2874
 5063SOL     OW16404   3.012   0.466   1.013 -0.2318  0.0167  0.0109
 5063SOL    HW116405   3.072   0.427   0.950 -0.8448 -1.4279  0.2911
 5063SOL    HW216406   2.940   0.500   0.961 -0.9730 -1.5994 -0.0826
 5064SOL     OW16407   2.915   0.229   0.677 -0.2203  0.8661 -0.4412
 5064SOL    HW116408   2.929   0.228   0.583 -0.6625  0.5081 -0.5047
 5064SOL    HW216409   2.858   0.304   0.692  1.6790  2.3529 -0.1774
 5065SOL     OW16410   2.512   1.021   0.705  0.2958 -0.7118 -0.1429
 5065SOL    HW116411   2.486   0.972   0.626 -1.5029 -0.3601  0.1914
 5065SOL    HW216412   2.430   1.035   0.752  1.3442 -0.9727  1.8529
 5066SOL     OW16413   2.234   1.683   1.418  0.4253 -0.4134 -0.7344
 5066SOL    HW116414   2.233   1.758   1.478  1.2133  0.1051 -1.3465
 5066SOL    HW216415   2.323   1.681   1.384  0.0936 -0.9389 -1.5885
 5067SOL     OW16416   3.578   0.097   8.615  0.6044 -0.2293  0.3970
 5067SOL    HW116417   3.545   0.074   8.528 -1.4023  0.1779  1.0009
 5067SOL    HW216418   3.562   0.019   8.668  0.1729  0.1423  0.8188
 5068SOL     OW16419   3.115   0.590   0.507  0.0532 -0.0691 -0.3331
 5068SOL    HW116420   3.114   0.586   0.412  0.0815 -0.0699 -0.3332
 5068SOL    HW216421   3.207   0.580   0.531  0.0567  0.0232 -0.3095
 5069SOL     OW16422   3.478   0.141   0.575  0.2144 -0.6984  0.2377
 5069SOL    HW116423   3.431   0.108   0.499  0.6816 -0.3429 -0.2167
 5069SOL    HW216424   3.411   0.187   0.627  0.0299 -0.3106 -0.3314
 5070SOL     OW16425   2.232   0.879   0.589 -0.2082  0.0647  0.0016
 5070SOL    HW116426   2.264   0.856   0.502 -0.2100  0.7797 -0.1942
 5070SOL    HW216427   2.198   0.797   0.624  1.7333 -0.7010  0.1890
 5071SOL     OW16428   2.593   1.582   0.424  0.0735 -0.2319  0.2752
 5071SOL    HW116429   2.535   1.631   0.483 -1.0066 -0.5118 -0.5135
 5071SOL    HW216430   2.533   1.526   0.374  1.1835 -1.7345  0.5620
 5072SOL     OW16431   2.004   0.436   1.703 -0.2115  0.2528 -0.5067
 5072SOL    HW116432   1.942   0.438   1.630 -1.0241 -2.1790  0.0167
 5072SOL    HW216433   1.952   0.464   1.779 -0.6319 -1.4001 -0.1401
 5073SOL     OW16434   2.017   8.374   2.794  0.2531  0.4493 -0.3981
 5073SOL    HW116435   2.069   8.309   2.746 -1.2949 -0.9847 -0.2620
 5073SOL    HW216436   2.025   8.348   2.886 -0.5933  0.2710 -0.3685
 5074SOL     OW16437   1.504   0.223   2.546 -0.2314  0.3007  0.0376
 5074SOL    HW116438   1.556   0.300   2.524  0.7506 -0.0280  1.1153
 5074SOL    HW216439   1.415   0.245   2.517 -0.0900  2.0713  0.8148
 5075SOL     OW16440   2.574   1.005   2.711  0.2714 -0.4103  0.0333
 5075SOL    HW116441   2.601   0.993   2.802 -1.1454 -0.8963  0.4095
 5075SOL    HW216442   2.536   0.922   2.686 -2.3649  0.6948  0.0912
 5076SOL     OW16443   4.151   1.632   2.427 -0.1069 -0.3928 -0.3801
 5076SOL    HW116444   4.099   1.573   2.372  0.6621 -0.9704 -0.5084
 5076SOL    HW216445   4.090   1.702   2.451 -1.7980 -2.4259  1.7384
 5077SOL     OW16446   3.313   0.408   2.200 -0.1991  0.3759  0.1913
 5077SOL    HW116447   3.321   0.435   2.291  3.2062 -0.4524  0.2783
 5077SOL    HW216448   3.224   0.432   2.175 -1.0291  1.2109  3.5126
 5078SOL     OW16449   3.746   1.077   2.164  0.4582  0.1160  0.2008
 5078SOL    HW116450   3.803   1.004   2.140 -0.2792 -0.6333  0.6622
 5078SOL    HW216451   3.717   1.056   2.253  0.8306  1.3645  0.6375
 5079SOL     OW16452   2.473   1.291   3.047 -0.7771  0.5475  0.9559
 5079SOL    HW116453   2.397   1.292   3.105 -1.8286 -0.2430 -0.3713
 5079SOL    HW216454   2.445   1.242   2.970 -0.1159  3.2300 -1.1798
 5080SOL     OW16455   2.379   1.293   3.583  0.7177  0.4512 -0.0687
 5080SOL    HW116456   2.319   1.352   3.537  0.9732  1.4294  0.8155
 5080SOL    HW216457   2.405   1.229   3.516 -1.3779 -0.0973 -0.4554
 5081SOL     OW16458   2.718   1.202   2.268 -0.0902  0.1930  0.3730
 5081SOL    HW116459   2.688   1.115   2.243 -5.6603  1.9139 -0.2738
 5081SOL    HW216460   2.699   1.209   2.361 -0.1242  0.8499  0.3224
 5082SOL     OW16461   2.769   1.338   3.792  0.2266  0.1182  0.8091
 5082SOL    HW116462   2.791   1.418   3.840 -1.2837  0.8316  0.3905
 5082SOL    HW216463   2.692   1.304   3.837 -0.4397  0.0914 -0.3054
 5083SOL     OW16464   2.007   1.339   3.289 -0.5277  0.4726  0.6507
 5083SOL    HW116465   1.921   1.339   3.247 -0.0567  1.7978 -0.3568
 5083SOL    HW216466   2.069   1.357   3.219  0.3476  2.0178  1.7610
 5084SOL     OW16467   3.184   1.550   3.266  0.2674  0.4657  0.3027
 5084SOL    HW116468   3.174   1.597   3.183  2.2206  1.7046  0.7186
 5084SOL    HW216469   3.118   1.588   3.323 -0.9457 -0.2391 -0.5959
 5085SOL     OW16470   2.365   0.025   2.950 -0.5160 -0.2788 -0.1379
 5085SOL    HW116471   2.386   0.100   3.006  0.5077 -0.1763 -0.6336
 5085SOL    HW216472   2.284  -0.011   2.986 -0.5621  0.5671  0.6102
 5086SOL     OW16473   2.934   0.341   2.546 -0.2932 -0.5766 -0.2194
 5086SOL    HW116474   2.900   0.266   2.498  0.2697 -0.4222 -0.8675
 5086SOL    HW216475   2.888   0.417   2.509 -1.4871 -0.6582  1.0065
 5087SOL     OW16476   1.611   1.587   2.409  0.0749  0.3215  0.2558
 5087SOL    HW116477   1.520   1.608   2.428  0.1817  2.2408 -1.1342
 5087SOL    HW216478   1.647   1.559   2.493 -1.3401  1.2618  1.2136
 5088SOL     OW16479   3.057   1.282   3.419  0.2522 -0.8573  0.1948
 5088SOL    HW116480   3.035   1.272   3.327  0.1009 -1.8556  0.3265
 5088SOL    HW216481   2.978   1.320   3.459  1.0625  1.6819 -0.4334
 5089SOL     OW16482   1.685   1.060   2.976  0.6005 -0.2552 -0.3535
 5089SOL    HW116483   1.642   0.981   3.008  3.7735 -1.1261  2.2958
 5089SOL    HW216484   1.753   1.028   2.916  1.8767  0.3888  0.6994
 5090SOL     OW16485   2.304   0.833   2.771  0.0157 -0.6345 -0.1782
 5090SOL    HW116486   2.347   0.774   2.833 -0.2204 -1.1531 -0.5143
 5090SOL    HW216487   2.211   0.822   2.788 -0.0052  0.5454  0.6028
 5091SOL     OW16488   1.834   1.747   3.107 -0.3171  0.6371 -0.3089
 5091SOL    HW116489   1.889   1.807   3.057 -1.3840  2.2712  0.3730
 5091SOL    HW216490   1.751   1.747   3.061 -0.5368  0.2101  0.0814
 5092SOL     OW16491   2.445   0.960   1.991  0.5976 -0.0423 -0.0461
 5092SOL    HW116492   2.381   0.908   2.038  1.2368 -0.5097  0.3243
 5092SOL    HW216493   2.401   1.042   1.972  0.0289 -0.2071  0.5514
 5093SOL     OW16494   3.111   8.743   3.570  0.2661  0.6007 -0.1286
 5093SOL    HW116495   3.206   8.754   3.558  0.5693 -1.4082  0.1414
 5093SOL    HW216496   3.072   8.791   3.497  1.4538  1.9108  0.0585
 5094SOL     OW16497   2.184   0.162   2.192  0.2998  0.0677 -0.1434
 5094SOL    HW116498   2.108   0.134   2.141 -0.2237  1.4272 -0.1486
 5094SOL    HW216499   2.217   0.239   2.145  1.3216 -0.1419  0.1978
 5095SOL     OW16500   3.809   1.808   1.929  0.6269  0.1995 -0.4206
 5095SOL    HW116501   3.888   1.753   1.932 -1.1027 -2.4744 -0.8891
 5095SOL    HW216502   3.827   1.870   1.858  2.4320 -0.1278 -0.3110
 5096SOL     OW16503   1.748   1.468   2.151  0.7169  0.1501  0.2162
 5096SOL    HW116504   1.707   1.425   2.226  2.3869 -1.4105  0.3198
 5096SOL    HW216505   1.694   1.545   2.135 -1.0385 -0.7174  1.5446
 5097SOL     OW16506   3.353   0.914   2.378 -0.2409  0.2501 -0.3131
 5097SOL    HW116507   3.367   0.961   2.460  1.5010  0.3132 -0.6174
 5097SOL    HW216508   3.265   0.877   2.387 -0.0926  0.2527  1.5754
 5098SOL     OW16509   3.682   1.441   2.360  0.3908 -0.7932  0.2491
 5098SOL    HW116510   3.666   1.533   2.342  2.4643 -0.1540  1.3475
 5098SOL    HW216511   3.659   1.396   2.278 -2.5659  0.3686  0.3271
 5099SOL     OW16512   1.944   1.037   3.277 -0.1098 -0.1077 -0.0546
 5099SOL    HW116513   1.901   1.013   3.359  0.2883  1.7105  0.7400
 5099SOL    HW216514   1.893   1.112   3.245  1.2162  0.7561 -0.1865
 5100SOL     OW16515   2.461   1.395   2.508  0.2155  0.1042 -0.0254
 5100SOL    HW116516   2.494   1.313   2.473  0.3067  0.4324 -0.7129
 5100SOL    HW216517   2.372   1.402   2.475 -0.0264 -0.0382  0.5801
 5101SOL     OW16518   2.996   1.247   3.155 -0.7418  0.3640  0.5572
 5101SOL    HW116519   2.926   1.292   3.108 -1.7685 -0.4602  1.2734
 5101SOL    HW216520   3.072   1.254   3.097 -1.4910  0.9771 -0.3780
 5102SOL     OW16521   2.631   8.532   2.271 -0.0492 -0.3867  0.2881
 5102SOL    HW116522   2.645   8.458   2.330 -0.8616 -0.4533  0.4078
 5102SOL    HW216523   2.566   8.586   2.315  2.5422  1.9238  1.5891
 5103SOL     OW16524   2.149   0.732   3.497 -0.0936  0.2218 -0.5123
 5103SOL    HW116525   2.241   0.750   3.517 -0.1366 -1.3210  1.3512
 5103SOL    HW216526   2.146   0.726   3.402  2.0837 -1.3639 -0.5504
 5104SOL     OW16527   3.549   0.893   1.735 -0.0001 -0.7832  0.3651
 5104SOL    HW116528   3.537   0.987   1.745  0.3060 -0.7518  0.4654
 5104SOL    HW216529   3.552   0.859   1.825 -0.8854 -0.9968  0.3226
 5105SOL     OW16530   3.355   1.454   3.465 -0.0597 -0.4404  0.6480
 5105SOL    HW116531   3.275   1.468   3.414 -0.0589 -1.3157  0.3900
 5105SOL    HW216532   3.326   1.455   3.556  0.1615  2.6965  0.7944
 5106SOL     OW16533   2.349   0.322   3.640  0.0734 -0.5229  0.6203
 5106SOL    HW116534   2.278   0.385   3.648  0.4303 -0.1971  1.3313
 5106SOL    HW216535   2.389   0.320   3.727  0.0974 -1.6993  0.6014
 5107SOL     OW16536   3.861   1.347   2.551  0.4551 -0.8486  0.1222
 5107SOL    HW116537   3.784   1.381   2.506  0.0591 -0.9884  0.6860
 5107SOL    HW216538   3.826   1.291   2.620  1.0111  0.4516  1.5032
 5108SOL     OW16539   3.514   1.809   2.619 -0.1694 -0.1051 -0.4458
 5108SOL    HW116540   3.485   1.878   2.678  1.6284  0.9001 -0.6475
 5108SOL    HW216541   3.434   1.768   2.587 -1.2217  0.7204  1.0568
 5109SOL     OW16542   2.303   0.395   2.085  0.9371 -0.4960 -0.2926
 5109SOL    HW116543   2.286   0.415   1.993 -1.8373 -1.7271 -0.1602
 5109SOL    HW216544   2.387   0.349   2.084  1.9884  1.2975 -1.8863
 5110SOL     OW16545   2.953   0.760   2.927 -0.4756  0.6787  0.2251
 5110SOL    HW116546   2.946   0.710   2.845 -0.5366  1.0904 -0.0210
 5110SOL    HW216547   3.012   0.707   2.981 -2.5184 -0.9706  0.9495
 5111SOL     OW16548   3.401   1.898   2.058  0.3967  0.4060  0.4157
 5111SOL    HW116549   3.432   1.986   2.035  1.2647  0.1677  0.6328
 5111SOL    HW216550   3.480   1.843   2.055  0.4941  0.2273  3.2817
 5112SOL     OW16551   2.607   0.747   2.978  0.1659  0.2066 -0.4953
 5112SOL    HW116552   2.579   0.694   2.903 -0.6685 -0.1666  0.0601
 5112SOL    HW216553   2.678   0.697   3.017 -0.0920 -0.1152 -0.4336
 5113SOL     OW16554   3.190   0.399   3.604 -0.1122 -0.4753  0.2015
 5113SOL    HW116555   3.242   0.361   3.533 -1.0842 -2.9877  0.7186
 5113SOL    HW216556   3.117   0.338   3.615 -0.9631  0.8066  2.1809
 5114SOL     OW16557   2.581   1.353   3.335  0.6457  0.4800  0.4551
 5114SOL    HW116558   2.551   1.444   3.338  1.2818  0.7445 -0.6684
 5114SOL    HW216559   2.555   1.323   3.247 -1.0972 -0.9860  1.4039
 5115SOL     OW16560   2.850   0.365   3.442 -0.1405 -0.1732  0.5990
 5115SOL    HW116561   2.786   0.434   3.463 -1.2263 -0.7562 -0.6528
 5115SOL    HW216562   2.908   0.405   3.377 -0.7382 -0.3907 -0.0869
 5116SOL     OW16563   2.901   0.400   2.270  0.1914 -0.0005 -0.2993
 5116SOL    HW116564   2.862   0.322   2.231  0.3009  0.0401 -0.4925
 5116SOL    HW216565   2.951   0.440   2.199 -1.0657  1.0647 -0.6213
 5117SOL     OW16566   1.931   0.654   2.382 -0.3955  0.5620  0.0271
 5117SOL    HW116567   1.915   0.586   2.447 -2.0518  1.8052  0.9907
 5117SOL    HW216568   2.005   0.622   2.331 -1.1506 -1.9708  0.4113
 5118SOL     OW16569   2.184   2.145   3.507 -0.4326  0.3271 -0.4784
 5118SOL    HW116570   2.208   2.101   3.589  1.2423  1.9599 -0.0219
 5118SOL    HW216571   2.101   2.189   3.527 -0.6623 -0.2792 -0.0587
 5119SOL     OW16572   2.821   0.280   1.999 -0.0055  0.6607  0.5050
 5119SOL    HW116573   2.849   0.314   1.914  0.0526  1.0169  0.6675
 5119SOL    HW216574   2.892   0.222   2.026 -0.1953  0.2526  0.1354
 5120SOL     OW16575   3.294   0.599   3.363  0.2346 -0.5234  0.2199
 5120SOL    HW116576   3.245   0.670   3.320 -0.3552 -0.8302  0.3679
 5120SOL    HW216577   3.285   0.525   3.303  0.3357 -0.6459  0.3576
 5121SOL     OW16578   3.230   1.215   2.235 -0.2510 -0.3326 -0.0222
 5121SOL    HW116579   3.186   1.290   2.276  1.0634 -0.3844  1.5927
 5121SOL    HW216580   3.232   1.149   2.303 -0.1849 -1.3672 -1.0033
 5122SOL     OW16581   2.778   8.830   2.666 -0.0456 -0.0085 -0.1064
 5122SOL    HW116582   2.715   8.867   2.604  1.6850  0.7885 -1.4557
 5122SOL    HW216583   2.749   8.739   2.678 -0.4200 -0.2006 -2.1048
 5123SOL     OW16584   3.127   1.460   2.287  0.1978  0.2023 -0.0111
 5123SOL    HW116585   3.201   1.509   2.251 -0.9003  1.2907 -0.8932
 5123SOL    HW216586   3.050   1.496   2.242 -0.8362 -1.1759  0.5641
 5124SOL     OW16587   2.149   1.569   2.909 -0.4093 -0.3047 -0.2075
 5124SOL    HW116588   2.127   1.527   2.826 -0.0674 -0.7361 -0.0896
 5124SOL    HW216589   2.177   1.657   2.885 -0.5364 -0.3484 -0.5244
 5125SOL     OW16590   3.280   0.997   2.631 -0.7002 -0.3129 -0.1300
 5125SOL    HW116591   3.203   1.042   2.664 -0.1831 -0.0802  0.8206
 5125SOL    HW216592   3.252   0.907   2.617 -0.7201 -0.7081  2.0164
 5126SOL     OW16593   2.982   1.640   3.410 -0.4466 -0.1244 -0.5130
 5126SOL    HW116594   2.933   1.565   3.444  0.4572  0.1752  1.5807
 5126SOL    HW216595   2.957   1.713   3.467  0.2842  0.7023 -1.2113
 5127SOL     OW16596   2.333   0.821   2.326  0.5570 -0.2041 -0.3023
 5127SOL    HW116597   2.274   0.817   2.251  0.4662 -0.0373 -0.2417
 5127SOL    HW216598   2.322   0.910   2.360  1.6947  0.2174 -0.9794
 5128SOL     OW16599   3.044   0.955   2.359 -0.0533  0.7646  0.4733
 5128SOL    HW116600   3.026   0.903   2.438 -1.8925  1.3182  0.4511
 5128SOL    HW216601   3.019   1.044   2.383  0.0568  1.0688 -0.5239
 5129SOL     OW16602   2.534   1.330   3.973 -0.4141 -0.0107  0.1310
 5129SOL    HW116603   2.539   1.236   3.989 -1.1857  0.1827  1.6923
 5129SOL    HW216604   2.440   1.350   3.977 -0.1558  1.0769  1.5115
 5130SOL     OW16605   3.089   1.780   2.448 -0.0245  0.6899 -0.0177
 5130SOL    HW116606   3.057   1.836   2.519 -0.2382 -0.0425  0.4706
 5130SOL    HW216607   3.180   1.805   2.437  0.1727  0.3982  0.9232
 5131SOL     OW16608   1.987   0.184   3.396 -0.3489  0.1911  0.0646
 5131SOL    HW116609   1.945   0.130   3.329  0.6430 -0.3539 -0.1499
 5131SOL    HW216610   2.017   0.262   3.349 -0.1894  0.0874 -0.0082
 5132SOL     OW16611   3.307   1.652   2.223  0.0768 -0.4537 -0.2061
 5132SOL    HW116612   3.249   1.724   2.245  0.4487 -0.1449 -0.2358
 5132SOL    HW216613   3.395   1.682   2.247  0.4140 -0.3475 -1.4839
 5133SOL     OW16614   1.914   1.358   2.497  0.6994  0.1763 -0.1559
 5133SOL    HW116615   1.848   1.290   2.485  0.6861  0.4881 -2.2018
 5133SOL    HW216616   1.885   1.430   2.441  2.9120  0.1847 -1.4085
 5134SOL     OW16617   3.270   0.031   2.220 -0.2999 -0.1473 -0.0905
 5134SOL    HW116618   3.301   0.101   2.278  0.7599 -0.2400 -0.5222
 5134SOL    HW216619   3.298  -0.050   2.263 -1.2446 -0.3029  0.2477
 5135SOL     OW16620   1.894   1.473   3.016 -0.1323 -0.2217  0.3088
 5135SOL    HW116621   1.975   1.524   3.011 -0.2407  0.2091  2.0682
 5135SOL    HW216622   1.892   1.422   2.935  0.8516  1.2829 -0.7100
 5136SOL     OW16623   2.942   1.610   2.708 -0.5056 -0.2684  0.3242
 5136SOL    HW116624   2.870   1.563   2.749  0.5608 -2.8215 -0.5210
 5136SOL    HW216625   3.008   1.543   2.690  0.6401  1.3422 -2.0799
 5137SOL     OW16626   2.141   0.578   2.220 -0.0553 -0.4266  0.3882
 5137SOL    HW116627   2.182   0.584   2.306  1.8188  1.7474 -0.5587
 5137SOL    HW216628   2.179   0.499   2.181  0.7385 -0.2504  0.7834
 5138SOL     OW16629   3.098   0.154   3.667 -0.0664 -0.3065  0.3296
 5138SOL    HW116630   3.136   0.088   3.610  0.0014  0.5373 -0.6336
 5138SOL    HW216631   3.079   0.108   3.748  1.7814 -1.0723  0.3778
 5139SOL     OW16632   2.624   8.764   1.718 -0.3008 -0.0095  0.3093
 5139SOL    HW116633   2.614   8.725   1.632  1.3281 -0.9053  0.4858
 5139SOL    HW216634   2.718   8.761   1.735 -0.1870  3.0851  0.7806
 5140SOL     OW16635   2.515   0.329   3.899  0.1801  0.4225 -0.1378
 5140SOL    HW116636   2.593   0.380   3.876  0.5311 -0.3737 -0.8044
 5140SOL    HW216637   2.532   0.242   3.862 -0.7881  0.0741  0.1951
 5141SOL     OW16638   2.663   1.449   2.948  0.0422 -0.0647  0.1004
 5141SOL    HW116639   2.624   1.527   2.987 -1.4161  0.9032 -2.9840
 5141SOL    HW216640   2.603   1.378   2.968 -2.9807  1.1704 -3.4944
 5142SOL     OW16641   3.010   0.562   3.267 -0.0711  0.1247 -0.1706
 5142SOL    HW116642   3.082   0.619   3.294 -0.1946 -0.9187  2.6226
 5142SOL    HW216643   3.033   0.537   3.177  2.0220  1.3896 -0.0673
 5143SOL     OW16644   2.736   1.242   2.628 -0.3657 -0.2403  0.1804
 5143SOL    HW116645   2.677   1.166   2.629 -0.9338  0.1138 -2.1455
 5143SOL    HW216646   2.681   1.314   2.658 -1.4070  0.2052 -2.5316
 5144SOL     OW16647   2.818   0.601   2.493  0.3446 -0.0153  0.0657
 5144SOL    HW116648   2.825   0.696   2.494 -0.5049  0.0843  1.9847
 5144SOL    HW216649   2.811   0.578   2.400 -0.2346  1.8633 -0.3961
 5145SOL     OW16650   2.613   0.265   2.400 -0.5593  0.5431 -0.4844
 5145SOL    HW116651   2.708   0.271   2.390 -0.5539  0.2231 -0.6229
 5145SOL    HW216652   2.592   0.175   2.375 -0.9131  0.6493 -0.5681
 5146SOL     OW16653   3.166   0.864   1.845  0.7402 -0.0439 -0.1126
 5146SOL    HW116654   3.197   0.943   1.888  0.0737  0.7236 -1.0074
 5146SOL    HW216655   3.134   0.893   1.759  1.5087 -1.4374 -0.9151
 5147SOL     OW16656   2.230   8.731   1.926 -0.3444  0.7767  0.1635
 5147SOL    HW116657   2.270   8.770   1.847  2.5252 -1.0352  0.5926
 5147SOL    HW216658   2.156   8.789   1.945  1.2595  3.6594 -1.5116
 5148SOL     OW16659   2.594   0.005   2.276 -0.0226  0.1780  0.6057
 5148SOL    HW116660   2.599   0.042   2.188 -2.4247  0.9896  0.7333
 5148SOL    HW216661   2.650  -0.073   2.273 -0.1367  0.1128 -1.6599
 5149SOL     OW16662   2.773   0.932   3.444 -0.3197  0.0427 -0.0724
 5149SOL    HW116663   2.731   0.921   3.529  1.1767 -1.0047  0.5826
 5149SOL    HW216664   2.863   0.901   3.458  0.0733  0.2379 -1.9328
 5150SOL     OW16665   3.309   1.583   2.588 -0.0046 -0.2253  0.4276
 5150SOL    HW116666   3.378   1.520   2.570  1.0960  1.1368 -0.3810
 5150SOL    HW216667   3.227   1.537   2.568  0.8170 -1.0635 -1.2148
 5151SOL     OW16668   2.171   1.065   2.677  0.0088  0.6310 -0.3838
 5151SOL    HW116669   2.171   1.107   2.763  0.1842 -0.9277  0.4087
 5151SOL    HW216670   2.235   0.994   2.685  0.3627  0.7364 -1.9471
 5152SOL     OW16671   2.831   2.127   2.603 -0.5911 -0.1300  0.2238
 5152SOL    HW116672   2.842   2.033   2.614 -0.1428 -0.1268 -0.1699
 5152SOL    HW216673   2.824   2.140   2.508  0.5542  0.3518  0.1920
 5153SOL     OW16674   2.505   0.817   1.773 -0.3149  0.4494 -0.0595
 5153SOL    HW116675   2.500   0.871   1.851  2.3592 -0.8203  1.1398
 5153SOL    HW216676   2.598   0.819   1.748 -0.1816 -2.9168 -0.3400
 5154SOL     OW16677   2.385   0.367   3.138  0.4949  0.1659  0.3737
 5154SOL    HW116678   2.479   0.372   3.121  0.3928 -0.8543 -0.6279
 5154SOL    HW216679   2.377   0.315   3.218  0.7794  0.1444  0.3880
 5155SOL     OW16680   2.484   8.619   2.888 -0.0251 -0.3448  0.0178
 5155SOL    HW116681   2.498   8.603   2.982  0.8735 -0.4282 -0.1185
 5155SOL    HW216682   2.435   8.701   2.885 -1.9224 -1.3775  0.6189
 5156SOL     OW16683   2.506   0.499   2.339  0.0068  0.7822 -0.3672
 5156SOL    HW116684   2.541   0.509   2.250  1.4564 -1.8794 -0.1909
 5156SOL    HW216685   2.545   0.418   2.371 -1.5066  0.9884  2.2508
 5157SOL     OW16686   2.694   8.696   2.030 -0.5722 -0.0297  0.3104
 5157SOL    HW116687   2.787   8.674   2.033 -0.2769  1.2290  0.9425
 5157SOL    HW216688   2.658   8.652   2.107 -0.3590  0.0573  0.4629
 5158SOL     OW16689   3.095   1.402   2.612  0.0352 -0.0595 -0.0048
 5158SOL    HW116690   3.080   1.354   2.531  1.2391 -1.4866  0.5868
 5158SOL    HW216691   3.127   1.337   2.674  2.3190  1.5583  0.6613
 5159SOL     OW16692   3.206   0.745   2.570 -0.1762 -0.1322  0.1840
 5159SOL    HW116693   3.235   0.678   2.508 -1.5190  0.8985 -1.6431
 5159SOL    HW216694   3.126   0.709   2.608 -0.2854 -0.0521  0.0330
 5160SOL     OW16695   3.554   0.917   2.008  0.4920  0.5466 -0.2042
 5160SOL    HW116696   3.535   0.846   2.070  1.6199 -0.7340 -1.2365
 5160SOL    HW216697   3.568   0.994   2.062 -1.4370  0.1554  0.9159
 5161SOL     OW16698   2.337   1.366   2.179  0.2298  0.6375  0.4325
 5161SOL    HW116699   2.280   1.378   2.255  0.9479  1.7425  0.8227
 5161SOL    HW216700   2.277   1.370   2.104 -0.2206  1.8429  0.8259
 5162SOL     OW16701   3.574   1.124   2.607 -0.2226  0.2001 -0.4009
 5162SOL    HW116702   3.612   1.101   2.692  0.2739 -0.4371 -0.7802
 5162SOL    HW216703   3.489   1.079   2.605  0.2452 -0.7075 -0.6723
 5163SOL     OW16704   3.241   0.770   2.094  0.0699 -0.1338  0.7507
 5163SOL    HW116705   3.321   0.727   2.124 -0.8629 -0.5891  2.7100
 5163SOL    HW216706   3.252   0.776   1.999  1.8480 -1.3554  0.8281
 5164SOL     OW16707   2.361   8.837   1.698 -0.5432  0.6883  0.6505
 5164SOL    HW116708   2.455   8.829   1.713 -0.2470  0.1731 -1.2675
 5164SOL    HW216709   2.350   8.920   1.652 -0.4541 -0.9908 -2.7093
 5165SOL     OW16710   3.401   1.083   3.302  0.2919  0.1718  0.3138
 5165SOL    HW116711   3.354   1.093   3.385 -1.8588 -0.3481 -0.7639
 5165SOL    HW216712   3.377   1.160   3.251  0.7392 -0.0351 -0.2138
 5166SOL     OW16713   2.220   1.376   3.124 -0.1063  0.1021  0.8104
 5166SOL    HW116714   2.259   1.441   3.183  1.4257  0.6939 -0.7790
 5166SOL    HW216715   2.213   1.420   3.040  1.5910 -1.9292 -0.4946
 5167SOL     OW16716   3.430   1.525   2.977 -0.3503 -0.0930  0.0008
 5167SOL    HW116717   3.384   1.595   2.929 -1.7974 -0.5060  0.7126
 5167SOL    HW216718   3.467   1.570   3.053 -2.1422 -0.1904  1.0093
 5168SOL     OW16719   2.907   1.328   2.897 -0.6059  0.8740  0.2674
 5168SOL    HW116720   2.919   1.276   2.819  0.2086  2.1190 -0.4744
 5168SOL    HW216721   2.820   1.367   2.887 -0.7304  0.5949  0.2583
 5169SOL     OW16722   3.060   1.129   2.749  0.5506 -0.4344  0.3759
 5169SOL    HW116723   3.104   1.134   2.834  0.4302 -0.0310  0.4200
 5169SOL    HW216724   2.975   1.090   2.767  0.0677  0.7034  0.6349
 5170SOL     OW16725   2.668   0.379   3.160  0.0109 -0.4581  0.8929
 5170SOL    HW116726   2.753   0.335   3.164  1.4227  1.8347 -1.5797
 5170SOL    HW216727   2.688   0.471   3.174 -1.9453  0.2444 -0.5859
 5171SOL     OW16728   2.809   1.406   3.512 -0.4087 -0.3180 -0.4237
 5171SOL    HW116729   2.781   1.381   3.600 -1.0212  0.1239 -0.4790
 5171SOL    HW216730   2.735   1.382   3.456 -0.9189  1.2717 -0.5123
 5172SOL     OW16731   2.630   0.929   2.307  0.9697  0.1881  0.1512
 5172SOL    HW116732   2.564   0.864   2.283  0.8862 -0.3467  1.6757
 5172SOL    HW216733   2.713   0.883   2.300  1.1820  0.7310 -1.3317
 5173SOL     OW16734   2.318   0.485   2.730  0.6949 -0.3727  0.2871
 5173SOL    HW116735   2.367   0.533   2.798  1.1334 -0.7019  0.2068
 5173SOL    HW216736   2.366   0.403   2.720  1.0447 -0.0288 -0.9303
 5174SOL     OW16737   2.677   0.126   3.458 -0.4688  0.2016 -0.2503
 5174SOL    HW116738   2.725   0.209   3.456 -0.7420  0.3510 -0.7223
 5174SOL    HW216739   2.658   0.112   3.551  1.0421 -0.1887  0.0294
 5175SOL     OW16740   1.793   1.257   3.155  0.1301 -0.0540 -0.1571
 5175SOL    HW116741   1.813   1.321   3.086 -0.4106 -1.0326 -1.2729
 5175SOL    HW216742   1.736   1.194   3.112 -0.1598 -0.7456  1.1957
 5176SOL     OW16743   2.191   1.085   2.421  0.4984  0.3141  0.2509
 5176SOL    HW116744   2.187   1.082   2.517 -2.4619  0.3208  0.2394
 5176SOL    HW216745   2.207   1.177   2.400 -2.0755  0.9887  0.8386
 5177SOL     OW16746   2.739   0.201   2.844 -0.6314  0.2948  0.5397
 5177SOL    HW116747   2.759   0.121   2.796  1.5118  0.2314  1.4170
 5177SOL    HW216748   2.712   0.171   2.931  0.0835  0.5034  0.8394
 5178SOL     OW16749   3.343   1.919   2.343 -0.1749  0.3214 -0.0067
 5178SOL    HW116750   3.400   1.985   2.383  0.6569  0.7110 -1.7313
 5178SOL    HW216751   3.369   1.918   2.251 -2.9797  0.5331 -0.9015
 5179SOL     OW16752   3.208   1.700   2.844 -0.1377  0.3742  0.4825
 5179SOL    HW116753   3.240   1.666   2.761  0.1172  1.5232  0.0958
 5179SOL    HW216754   3.206   1.795   2.833 -1.1085  0.4918  1.4313
 5180SOL     OW16755   3.502   0.741   2.208  0.1363  0.6882  0.3830
 5180SOL    HW116756   3.555   0.682   2.260 -0.3987  0.1055  0.2731
 5180SOL    HW216757   3.453   0.793   2.272 -0.4668  0.0235  0.4647
 5181SOL     OW16758   2.163   1.427   3.494  0.2768  0.4384 -0.1683
 5181SOL    HW116759   2.116   1.508   3.510 -2.8243 -1.4171  0.9367
 5181SOL    HW216760   2.124   1.391   3.415  1.8429  0.1238 -0.8418
 5182SOL     OW16761   2.361   0.627   3.030  0.0423  0.2706  0.4635
 5182SOL    HW116762   2.452   0.656   3.032  0.0667  0.1501  1.9348
 5182SOL    HW216763   2.363   0.537   3.061 -0.5432  0.1474  0.1637
 5183SOL     OW16764   3.277   0.648   3.698  0.0439  0.1952  0.2524
 5183SOL    HW116765   3.267   0.574   3.638 -1.1411  0.0971  0.5370
 5183SOL    HW216766   3.255   0.725   3.645  1.1399  0.3449 -0.0059
 5184SOL     OW16767   3.000   0.404   4.043 -0.0946 -0.1778 -0.1905
 5184SOL    HW116768   2.977   0.411   4.135 -0.5279  2.0936 -0.4349
 5184SOL    HW216769   3.095   0.415   4.041 -0.3550  2.6120 -0.1994
 5185SOL     OW16770   2.352   0.226   3.365  0.5386  0.2422  0.1839
 5185SOL    HW116771   2.262   0.213   3.392  0.4416 -0.7163 -0.5672
 5185SOL    HW216772   2.403   0.221   3.446 -0.0416  0.5207  0.5705
 5186SOL     OW16773   2.529   1.125   2.465 -0.2093 -0.2105 -0.8004
 5186SOL    HW116774   2.517   1.068   2.540 -0.2279 -0.6969 -1.1696
 5186SOL    HW216775   2.563   1.068   2.396  1.2667  0.5271 -0.7178
 5187SOL     OW16776   2.983   0.609   2.703  0.5924 -0.2619  0.2703
 5187SOL    HW116777   2.923   0.599   2.629  0.5249  0.9633  0.1438
 5187SOL    HW216778   3.033   0.527   2.704  1.0635 -0.0394 -1.5595
 5188SOL     OW16779   3.054   0.549   2.099 -0.2449 -0.2925  0.1974
 5188SOL    HW116780   3.086   0.639   2.106 -1.0311 -0.0381  0.6428
 5188SOL    HW216781   3.033   0.538   2.006 -0.1602 -0.0129  0.1444
 5189SOL     OW16782   1.990   8.580   3.219 -0.2892 -0.1394 -0.0213
 5189SOL    HW116783   1.968   8.534   3.137  0.1545 -1.2066  0.4316
 5189SOL    HW216784   2.081   8.608   3.206 -0.6783  0.9874 -0.4455
 5190SOL     OW16785   2.057   0.823   2.854  0.0018 -0.6921 -0.0156
 5190SOL    HW116786   2.070   0.739   2.809  0.2242 -0.0278 -1.2426
 5190SOL    HW216787   1.988   0.805   2.918  0.2853 -1.8907 -0.0131
 5191SOL     OW16788   2.604   0.589   2.758  0.6486 -0.1973 -0.1005
 5191SOL    HW116789   2.571   0.655   2.697 -0.7950  0.5239  1.3943
 5191SOL    HW216790   2.608   0.509   2.705 -1.4097  0.1990 -0.9780
 5192SOL     OW16791   3.724   0.890   3.628 -0.4620 -0.4875  0.2018
 5192SOL    HW116792   3.708   0.797   3.611 -3.7754 -0.0015  0.0458
 5192SOL    HW216793   3.667   0.911   3.701  1.9388  0.9993  1.7604
 5193SOL     OW16794   2.399   8.610   2.438  0.3008  0.2969 -0.4061
 5193SOL    HW116795   2.362   8.696   2.415 -2.2036 -0.6612 -0.2636
 5193SOL    HW216796   2.340   8.547   2.398  0.7282 -1.3744  1.4279
 5194SOL     OW16797   3.531   0.401   2.034 -0.4688 -0.4671 -0.0169
 5194SOL    HW116798   3.469   0.397   2.107 -1.7049 -0.2955 -1.0081
 5194SOL    HW216799   3.608   0.445   2.070 -1.2633  0.1088  1.0463
 5195SOL     OW16800   2.833   0.867   2.542 -0.1705  0.4377 -0.3170
 5195SOL    HW116801   2.861   0.902   2.626 -0.7211  3.4898 -1.2583
 5195SOL    HW216802   2.741   0.843   2.555  0.1959 -0.6430  0.3386
 5196SOL     OW16803   3.064   1.713   3.951 -0.0331  0.5040  0.3890
 5196SOL    HW116804   3.129   1.675   3.891 -1.3626  0.6362 -1.2010
 5196SOL    HW216805   2.991   1.739   3.894 -0.3073  3.0059  1.7526
 5197SOL     OW16806   3.659   1.333   2.944 -0.1411 -0.1849  0.4282
 5197SOL    HW116807   3.570   1.311   2.917 -0.5345  0.2993  1.3116
 5197SOL    HW216808   3.652   1.351   3.037  0.3724  2.4982  0.0112
 5198SOL     OW16809   2.241   0.867   3.850  0.3696 -0.1450  0.0118
 5198SOL    HW116810   2.255   0.830   3.763  0.8636 -0.8928  0.3992
 5198SOL    HW216811   2.242   0.962   3.837  0.1425 -0.2559 -0.8365
 5199SOL     OW16812   2.987   0.651   1.860  0.0342  0.1205  0.5928
 5199SOL    HW116813   3.004   0.574   1.805 -1.2115 -0.1094  0.4917
 5199SOL    HW216814   3.068   0.702   1.856  0.7341 -0.9730  0.3163
 5200SOL     OW16815   2.888   1.042   1.826 -0.1098  0.0663 -0.1184
 5200SOL    HW116816   2.828   1.103   1.868  1.5335  2.1018 -0.5900
 5200SOL    HW216817   2.954   1.024   1.893 -0.1367 -0.5795 -0.2546
 5201SOL     OW16818   3.494   1.375   2.558  0.3421 -0.0900  0.5454
 5201SOL    HW116819   3.535   1.289   2.566 -0.0055 -0.2043  1.2270
 5201SOL    HW216820   3.561   1.430   2.518 -0.0202 -1.0842 -1.5702
 5202SOL     OW16821   2.497   0.279   2.722  0.5586  0.0106  0.3301
 5202SOL    HW116822   2.572   0.255   2.776  0.1915 -0.7325  0.5168
 5202SOL    HW216823   2.489   0.208   2.659  1.3602  1.1508 -1.1307
 5203SOL     OW16824   2.113   8.829   3.028  0.6347 -0.2366  0.0662
 5203SOL    HW116825   2.057   8.855   3.101  0.3736 -1.5662  0.3654
 5203SOL    HW216826   2.062   8.849   2.949  0.4839  0.2036  0.2734
 5204SOL     OW16827   2.653   0.139   3.715  0.4633  0.5553  0.0693
 5204SOL    HW116828   2.728   0.198   3.726  0.9114 -0.0716  0.3794
 5204SOL    HW216829   2.677   0.060   3.763  0.1684 -0.1666 -0.9351
 5205SOL     OW16830   2.511   0.011   3.272  0.4468 -0.1142 -0.2493
 5205SOL    HW116831   2.433   0.063   3.288 -0.5718 -1.7039  0.2009
 5205SOL    HW216832   2.580   0.056   3.321 -0.0724  1.5090 -0.9416
 5206SOL     OW16833   1.837   1.025   2.109 -0.1685  0.3199  0.2693
 5206SOL    HW116834   1.932   1.031   2.118 -0.0090 -1.9890  0.8302
 5206SOL    HW216835   1.805   1.113   2.128  1.7476  0.7539  1.8013
 5207SOL     OW16836   1.919   1.338   2.778 -0.0354 -0.3307 -0.1436
 5207SOL    HW116837   1.955   1.249   2.773  0.4427 -0.0905 -1.1408
 5207SOL    HW216838   1.908   1.365   2.687  1.8239  1.4308  0.1018
 5208SOL     OW16839   2.189   1.135   2.950 -0.0586 -0.5436  0.5818
 5208SOL    HW116840   2.174   1.208   3.009  1.0462 -0.3340  0.6080
 5208SOL    HW216841   2.164   1.058   3.000 -0.0812 -0.2869  0.9645
 5209SOL     OW16842   2.669   1.012   3.008  0.0201  0.7898  0.3134
 5209SOL    HW116843   2.652   1.026   3.102  1.0068 -2.1573  1.0544
 5209SOL    HW216844   2.659   0.917   2.997  2.7574  0.6573 -1.9566
 5210SOL     OW16845   2.082   0.310   2.406 -0.4308  0.2051 -0.2109
 5210SOL    HW116846   2.125   0.261   2.337  0.3431 -0.0285  0.4110
 5210SOL    HW216847   2.140   0.385   2.422  0.8113 -1.1091  1.9337
 5211SOL     OW16848   2.154   0.669   3.202 -0.2807  0.0287 -0.3433
 5211SOL    HW116849   2.230   0.672   3.144  0.1122  1.2813  0.2011
 5211SOL    HW216850   2.087   0.720   3.156  0.0834  1.1602  0.3369
 5212SOL     OW16851   3.211   0.838   3.506  0.1805 -0.2365  0.4449
 5212SOL    HW116852   3.265   0.917   3.506 -1.0873  0.6731  0.7611
 5212SOL    HW216853   3.207   0.812   3.414 -0.6163  0.9758  0.1120
 5213SOL     OW16854   2.636   0.471   2.083 -0.2205  0.0133  0.0695
 5213SOL    HW116855   2.691   0.393   2.074  1.1837  0.8287  1.1596
 5213SOL    HW216856   2.609   0.491   1.994 -1.5050 -2.2821 -0.1569
 5214SOL     OW16857   3.332   0.356   2.940 -0.3025  0.4468  0.4527
 5214SOL    HW116858   3.361   0.275   2.898  0.1192  0.4028  0.8177
 5214SOL    HW216859   3.390   0.423   2.905 -0.0866  0.4443  0.7913
 5215SOL     OW16860   1.801   1.374   3.499 -0.5752  0.5026  0.0982
 5215SOL    HW116861   1.892   1.349   3.484 -0.4173  1.0809  0.0790
 5215SOL    HW216862   1.776   1.423   3.421 -1.2250 -0.5124 -0.3506
 5216SOL     OW16863   2.769   0.649   3.189  0.1353 -0.1448 -0.1995
 5216SOL    HW116864   2.849   0.616   3.228  0.1352 -0.9645 -0.8590
 5216SOL    HW216865   2.753   0.732   3.233  1.7168  0.3664 -0.5278
 5217SOL     OW16866   2.319   1.706   3.599  0.6404  0.5225  0.0999
 5217SOL    HW116867   2.310   1.746   3.685 -0.1107 -2.3130  1.4436
 5217SOL    HW216868   2.347   1.616   3.617 -0.5102 -0.4685 -2.5571
 5218SOL     OW16869   2.196   0.235   1.629 -0.3800 -0.1617  0.0338
 5218SOL    HW116870   2.129   0.303   1.638  1.8813  2.4754 -1.3201
 5218SOL    HW216871   2.147   0.155   1.611 -3.1690  1.4818 -0.2811
 5219SOL     OW16872   2.049   0.976   3.573 -0.2999  0.0759 -0.1237
 5219SOL    HW116873   2.104   1.016   3.641 -0.4974 -0.5339  0.4125
 5219SOL    HW216874   2.093   0.894   3.552 -1.4543 -0.8818  0.9878
 5220SOL     OW16875   2.854   0.959   2.812 -0.0496 -0.6864 -0.2485
 5220SOL    HW116876   2.901   0.890   2.860 -1.5893 -1.0201  0.8609
 5220SOL    HW216877   2.780   0.981   2.869 -0.0653  1.3017 -0.9753
 5221SOL     OW16878   3.156   1.164   1.971  0.1236  0.0414 -0.1141
 5221SOL    HW116879   3.177   1.220   2.046 -0.0797 -0.7156  0.5262
 5221SOL    HW216880   3.104   1.093   2.008 -2.6635  1.2360 -1.4575
 5222SOL     OW16881   3.544   1.705   3.142 -0.4419 -0.1476  0.2459
 5222SOL    HW116882   3.539   1.690   3.236  0.8403  0.5690  0.4581
 5222SOL    HW216883   3.637   1.694   3.121 -0.7209 -0.3755 -0.9522
 5223SOL     OW16884   3.012   1.558   3.015 -0.2758  0.1502  0.1608
 5223SOL    HW116885   3.074   1.596   2.952  0.6637 -0.5248  0.6569
 5223SOL    HW216886   2.968   1.488   2.966  1.5266 -1.3972  0.6136
 5224SOL     OW16887   2.053   0.564   2.777 -0.0400 -0.1091  0.0612
 5224SOL    HW116888   1.993   0.523   2.716  0.4354 -1.2575  0.3321
 5224SOL    HW216889   2.139   0.528   2.755  0.3024  0.2744  0.7090
 5225SOL     OW16890   2.045   1.671   3.461  0.2607 -0.0202  0.0660
 5225SOL    HW116891   2.081   1.759   3.451 -1.2509  0.7718  1.2172
 5225SOL    HW216892   1.994   1.675   3.542 -2.0800 -1.1524 -1.2595
 5226SOL     OW16893   3.671   0.164   2.102  0.4020  0.5101 -0.3657
 5226SOL    HW116894   3.758   0.205   2.098  0.3188  0.6311 -1.2652
 5226SOL    HW216895   3.610   0.238   2.101  0.2721  0.4067 -1.1530
 5227SOL     OW16896   3.566   1.704   2.335 -0.0458 -0.9677  0.0077
 5227SOL    HW116897   3.655   1.725   2.308 -0.3305  2.4866  1.2745
 5227SOL    HW216898   3.550   1.760   2.411 -3.4808 -1.0398 -0.4980
 5228SOL     OW16899   2.247   1.806   3.855  0.1581 -0.2950 -0.1084
 5228SOL    HW116900   2.157   1.783   3.875 -0.2582 -0.4401 -1.9480
 5228SOL    HW216901   2.245   1.899   3.833  0.6458 -0.0614  0.7769
 5229SOL     OW16902   3.525   1.166   1.786  0.3622  0.1248  1.2065
 5229SOL    HW116903   3.430   1.177   1.777  0.1710 -0.7673  2.0502
 5229SOL    HW216904   3.559   1.255   1.781 -0.4433  0.4030  0.1363
 5230SOL     OW16905   2.393   1.647   3.090 -0.0037 -0.1772  0.2433
 5230SOL    HW116906   2.376   1.692   3.007 -0.7095  0.6515  0.8196
 5230SOL    HW216907   2.440   1.712   3.143  0.7706 -0.8245  0.3777
 5231SOL     OW16908   2.408   1.139   1.753 -0.1894 -0.2453 -0.5049
 5231SOL    HW116909   2.380   1.098   1.671  0.4121  0.5416 -1.1119
 5231SOL    HW216910   2.403   1.233   1.737  2.1241 -0.0420 -0.4468
 5232SOL     OW16911   3.768   1.757   2.668  0.4210  0.0110 -0.3150
 5232SOL    HW116912   3.675   1.775   2.657 -0.1257 -1.8908  0.6855
 5232SOL    HW216913   3.771   1.677   2.721  2.6365  1.8613  2.6708
 5233SOL     OW16914   3.205   0.426   2.556  0.0167  0.4883 -0.6626
 5233SOL    HW116915   3.207   0.336   2.587 -0.6541  0.6340 -0.1585
 5233SOL    HW216916   3.116   0.438   2.522 -0.2499  1.2635  0.2542
 5234SOL     OW16917   2.319   0.002   2.373  0.3663 -0.2730  0.0292
 5234SOL    HW116918   2.395   0.059   2.363 -1.3918  2.2599  0.0475
 5234SOL    HW216919   2.254   0.039   2.313 -1.3379 -1.3889  1.1109
 5235SOL     OW16920   3.701   1.600   1.598  0.3533 -0.1177  0.2216
 5235SOL    HW116921   3.663   1.557   1.521  0.0819  0.0892  0.2414
 5235SOL    HW216922   3.704   1.693   1.575 -0.7953  0.1114  0.8926
 5236SOL     OW16923   2.218   1.066   3.360  0.6346  0.4803  0.0838
 5236SOL    HW116924   2.129   1.075   3.325  1.5616  2.5080 -1.9887
 5236SOL    HW216925   2.210   1.093   3.452 -1.3463 -2.2161  0.8395
 5237SOL     OW16926   3.043   0.963   2.094  0.4594  0.4202 -0.1193
 5237SOL    HW116927   3.098   0.886   2.079 -0.6968 -0.2061 -1.4313
 5237SOL    HW216928   3.015   0.956   2.185  1.7334  0.2232  0.2686
 5238SOL     OW16929   3.326   1.824   1.724  0.5289  0.4962 -0.4056
 5238SOL    HW116930   3.383   1.751   1.749 -1.0926 -1.2729 -1.5907
 5238SOL    HW216931   3.312   1.813   1.630 -1.0066  1.4162 -0.3266
 5239SOL     OW16932   2.078   1.385   3.746 -0.3222 -0.6952 -0.1943
 5239SOL    HW116933   2.120   1.383   3.660  0.6065 -0.6793  0.2503
 5239SOL    HW216934   1.989   1.414   3.728  0.6532  2.2308 -0.8440
 5240SOL     OW16935   3.217   1.152   2.979  0.0234  0.4610  0.2812
 5240SOL    HW116936   3.279   1.203   2.925 -0.0678  0.4979  0.2101
 5240SOL    HW216937   3.251   1.160   3.068 -0.3138  1.1406  0.3602
 5241SOL     OW16938   2.872   1.576   2.421  0.1575 -0.2529 -0.2384
 5241SOL    HW116939   2.942   1.640   2.406 -1.1981  1.3512  0.0323
 5241SOL    HW216940   2.877   1.557   2.515 -0.0535  0.1833 -0.1408
 5242SOL     OW16941   2.980   0.332   2.821  0.0873 -0.0854  0.4739
 5242SOL    HW116942   2.895   0.293   2.840  0.2464 -0.0777  1.2294
 5242SOL    HW216943   2.999   0.307   2.730 -1.0005  0.4406  0.0899
 5243SOL     OW16944   2.590   1.340   2.090  0.3314  0.0879 -0.2279
 5243SOL    HW116945   2.503   1.346   2.129  1.1331 -0.4146  1.7635
 5243SOL    HW216946   2.642   1.291   2.154  1.7433 -0.8444 -1.9803
 5244SOL     OW16947   3.274   0.383   3.203  0.1563 -0.2066 -0.1482
 5244SOL    HW116948   3.227   0.310   3.243 -0.8081  0.2691 -0.3559
 5244SOL    HW216949   3.289   0.356   3.112 -0.9055  0.1370 -0.4490
 5245SOL     OW16950   1.668   1.236   2.342 -0.2292 -0.3410  0.0265
 5245SOL    HW116951   1.587   1.265   2.383 -0.0251  0.6969 -0.2791
 5245SOL    HW216952   1.640   1.188   2.264 -0.5473  0.5226 -0.4009
 5246SOL     OW16953   2.102   1.132   3.949  0.0199 -0.0006 -0.0270
 5246SOL    HW116954   2.060   1.207   3.990  0.0960 -0.2978  0.6174
 5246SOL    HW216955   2.070   1.057   3.999 -0.5870 -0.4668 -1.0899
 5247SOL     OW16956   2.437   0.537   3.434  0.1789 -0.7334 -0.1067
 5247SOL    HW116957   2.408   0.473   3.499  0.3789 -1.4793 -0.7353
 5247SOL    HW216958   2.512   0.495   3.390  0.2043 -0.1440 -0.6482
 5248SOL     OW16959   1.651   0.027   1.913 -0.3656  0.5594 -0.2217
 5248SOL    HW116960   1.582   0.083   1.877 -1.4636  0.7514  2.0459
 5248SOL    HW216961   1.605  -0.051   1.943  1.0327 -1.2901 -2.5508
 5249SOL     OW16962   2.947   0.956   3.194 -0.1867  0.5964 -1.0240
 5249SOL    HW116963   2.967   1.047   3.169  0.8205  0.6764  0.0044
 5249SOL    HW216964   2.895   0.964   3.274  0.0567  0.2789 -0.8286
 5250SOL     OW16965   2.013   0.041   1.996 -0.1787 -0.2679  0.1579
 5250SOL    HW116966   1.969   0.052   1.912  0.0031  0.3437  0.1434
 5250SOL    HW216967   1.942   0.042   2.060 -0.1374  1.6827  0.2241
 5251SOL     OW16968   3.509   1.506   1.772  0.2078  0.3939  0.2177
 5251SOL    HW116969   3.570   1.546   1.835  0.5454  0.9024 -0.4079
 5251SOL    HW216970   3.543   1.533   1.687 -0.4761  0.0577 -0.1677
 5252SOL     OW16971   2.408   0.947   3.216 -0.2530  0.4657 -0.5095
 5252SOL    HW116972   2.335   0.971   3.272 -0.5526 -1.3410 -0.0671
 5252SOL    HW216973   2.472   1.018   3.227 -0.6694  0.5799  1.4442
 5253SOL     OW16974   3.217   1.963   2.762  0.4568  0.1129 -0.4974
 5253SOL    HW116975   3.307   1.979   2.791  0.2676  0.7941 -0.2832
 5253SOL    HW216976   3.191   2.044   2.718 -0.1744  0.0409 -0.2586
 5254SOL     OW16977   2.399   0.813   3.461 -0.9137  0.2812 -0.3545
 5254SOL    HW116978   2.404   0.718   3.450 -0.8566  0.4661 -2.1946
 5254SOL    HW216979   2.403   0.848   3.372 -0.2709  2.0542  0.3247
 5255SOL     OW16980   3.263   1.122   3.537  0.0934  0.3639 -0.6231
 5255SOL    HW116981   3.276   1.155   3.625  0.4759 -0.4552 -0.3665
 5255SOL    HW216982   3.192   1.176   3.501 -0.0574  0.7039  0.1740
 5256SOL     OW16983   2.035   1.865   3.260 -0.6274  0.0361 -0.3123
 5256SOL    HW116984   1.977   1.809   3.209 -0.6522  0.0433 -0.2918
 5256SOL    HW216985   1.977   1.920   3.311 -0.6023  0.1764 -0.4367
 5257SOL     OW16986   3.342   0.882   2.958  0.1415 -0.2393 -0.0862
 5257SOL    HW116987   3.345   0.976   2.943  2.0320  0.1304  2.0544
 5257SOL    HW216988   3.293   0.847   2.884  1.4439  2.1408 -2.1903
 5258SOL     OW16989   3.036   0.367   1.807 -0.4607  0.1429 -0.2074
 5258SOL    HW116990   2.983   0.311   1.751  1.7191  0.0164 -2.2990
 5258SOL    HW216991   3.113   0.314   1.828 -0.2201  0.9725  1.1730
 5259SOL     OW16992   2.517   0.772   2.560  0.1177 -0.3176  0.1476
 5259SOL    HW116993   2.530   0.726   2.477  2.2197 -0.0623  0.3065
 5259SOL    HW216994   2.427   0.805   2.554 -0.1402 -1.2048 -1.5647
 5260SOL     OW16995   3.611   0.025   3.005  0.1393 -1.0063  0.4317
 5260SOL    HW116996   3.586  -0.059   2.967  0.0812 -1.0402  0.5463
 5260SOL    HW216997   3.629   0.081   2.929 -1.0046 -0.7551  0.3348
 5261SOL     OW16998   3.150   0.787   3.223 -0.1982 -0.4144 -0.6655
 5261SOL    HW116999   3.203   0.843   3.166 -0.6455  0.6677 -0.0543
 5261SOL    HW217000   3.060   0.811   3.204 -0.3916 -0.8431 -0.3061
 5262SOL     OW17001   3.275   1.532   1.986  0.1773  0.2692 -0.1306
 5262SOL    HW117002   3.362   1.519   1.949  0.7004 -1.1043  1.4616
 5262SOL    HW217003   3.291   1.576   2.070 -0.7902  1.2687 -0.4408
 5263SOL     OW17004   2.946   1.884   2.672 -0.0574 -0.4971 -0.1264
 5263SOL    HW117005   2.935   1.792   2.696  2.3770 -0.7450  0.2055
 5263SOL    HW217006   3.020   1.914   2.724 -0.7028  1.6449 -0.3415
 5264SOL     OW17007   2.959   1.178   2.468  0.9360 -0.0344  0.3357
 5264SOL    HW117008   2.934   1.227   2.389  1.7672  2.1942  1.3698
 5264SOL    HW217009   2.886   1.190   2.528  0.5634 -1.2463  0.1622
 5265SOL     OW17010   2.773   0.726   2.176 -0.4443 -0.1031 -0.1351
 5265SOL    HW117011   2.857   0.697   2.140 -0.3727  0.6283 -0.5799
 5265SOL    HW217012   2.710   0.661   2.145 -0.2724  0.1357 -1.0321
 5266SOL     OW17013   3.777   1.535   2.816 -0.2513 -0.2185  0.7989
 5266SOL    HW117014   3.735   1.458   2.854  2.5461 -3.7350 -2.4248
 5266SOL    HW217015   3.867   1.533   2.849  0.3512  0.6142 -0.6426
 5267SOL     OW17016   2.272   1.384   3.945  0.4111  0.0872  0.3096
 5267SOL    HW117017   2.207   1.415   3.881  1.4540  0.1168 -0.7583
 5267SOL    HW217018   2.224   1.319   3.996 -0.1327 -0.8253 -1.2850
 5268SOL     OW17019   1.942   0.922   2.472  0.0210 -0.3060 -0.6098
 5268SOL    HW117020   2.025   0.960   2.444  0.0784 -1.1331 -1.6085
 5268SOL    HW217021   1.943   0.833   2.438 -0.2618 -1.1296  1.4049
 5269SOL     OW17022   2.340   1.638   4.046 -0.0743  0.0183 -0.3339
 5269SOL    HW117023   2.318   1.554   4.006  1.3071 -0.1062 -0.8942
 5269SOL    HW217024   2.326   1.703   3.978 -1.4934  0.3211  0.2086
 5270SOL     OW17025   3.082   0.221   3.339 -0.3950  0.0874 -0.5513
 5270SOL    HW117026   3.064   0.245   3.430  2.5655  0.4332  0.0631
 5270SOL    HW217027   3.003   0.246   3.291 -1.2524  1.8389  1.6038
 5271SOL     OW17028   2.250   0.520   2.466  0.2159  0.0492  0.0174
 5271SOL    HW117029   2.268   0.493   2.556 -0.5795 -1.7918 -0.3311
 5271SOL    HW217030   2.333   0.508   2.420 -0.0071 -1.4737 -0.0270
 5272SOL     OW17031   3.397   1.289   2.841 -0.3390  0.1946  0.4200
 5272SOL    HW117032   3.407   1.377   2.879 -1.8228  0.4617  0.2396
 5272SOL    HW217033   3.371   1.305   2.750 -2.1639 -0.3966  0.8071
 5273SOL     OW17034   2.487   0.019   2.634  0.3389  0.0039  0.2309
 5273SOL    HW117035   2.460  -0.013   2.720 -2.3415  0.1752 -0.4748
 5273SOL    HW217036   2.459  -0.048   2.573  0.8068  0.6087 -0.6704
 5274SOL     OW17037   2.646   1.587   2.608  0.0405  0.4839  0.0170
 5274SOL    HW117038   2.685   1.582   2.520 -0.4310 -0.3341 -0.1524
 5274SOL    HW217039   2.585   1.514   2.612 -0.1404  0.6685  0.9423
 5275SOL     OW17040   3.108   0.542   2.997  0.4967  0.3910 -0.1845
 5275SOL    HW117041   3.069   0.492   2.926 -0.8279  0.1872  0.6586
 5275SOL    HW217042   3.193   0.501   3.012 -0.2364 -1.1276 -0.0377
 5276SOL     OW17043   2.692   8.586   2.718 -0.0103 -0.3214 -1.4679
 5276SOL    HW117044   2.761   8.561   2.778  1.0734 -0.2732 -2.6429
 5276SOL    HW217045   2.612   8.584   2.770  0.7715 -1.0918 -0.2619
 5277SOL     OW17046   2.977   1.638   2.112 -0.0388  0.2951 -0.1455
 5277SOL    HW117047   3.016   1.724   2.099 -1.8652  1.3174  0.7955
 5277SOL    HW217048   2.895   1.641   2.063 -0.7758 -0.3985  0.9897
 5278SOL     OW17049   2.568   1.736   2.803 -0.4061  0.4941  0.0842
 5278SOL    HW117050   2.476   1.755   2.783 -0.7676 -0.5571  0.6372
 5278SOL    HW217051   2.590   1.663   2.746  0.4349  1.4047 -0.8039
 5279SOL     OW17052   3.014   0.126   2.091 -0.0636 -0.3865  0.0705
 5279SOL    HW117053   3.004   0.051   2.033 -0.1823  0.2661 -0.7671
 5279SOL    HW217054   3.082   0.099   2.153 -1.6059 -1.9946  1.1401
 5280SOL     OW17055   2.854   0.118   2.358 -0.2318  0.3848  0.0911
 5280SOL    HW117056   2.828   0.032   2.325  1.1057  0.0994 -0.2750
 5280SOL    HW217057   2.940   0.133   2.320 -0.4582  1.9100  0.1428
 5281SOL     OW17058   3.497   0.461   2.513 -0.4426  0.5071  0.0994
 5281SOL    HW117059   3.436   0.469   2.586  1.4869  2.6465  1.5988
 5281SOL    HW217060   3.584   0.454   2.554  0.6396  0.8420 -1.9787
 5282SOL     OW17061   2.225   0.796   2.069 -0.0821  0.0823 -0.0473
 5282SOL    HW117062   2.174   0.788   1.988 -0.9169 -1.4559  0.5941
 5282SOL    HW217063   2.203   0.718   2.120  0.6268  0.8757  1.5654
 5283SOL     OW17064   2.654   1.557   2.272  0.3827  0.0722  0.2482
 5283SOL    HW117065   2.673   1.513   2.189  0.2311 -0.3301  0.4242
 5283SOL    HW217066   2.739   1.567   2.314  0.7012  1.8513 -0.7160
 5284SOL     OW17067   2.153   0.518   3.662 -0.0524 -0.4575  0.3162
 5284SOL    HW117068   2.093   0.454   3.625  1.2251 -1.7970  0.5069
 5284SOL    HW217069   2.150   0.592   3.601 -1.8547 -0.4764  0.3210
 5285SOL     OW17070   1.971   8.776   4.971  0.2256  0.1523 -0.5589
 5285SOL    HW117071   2.011   8.745   4.890  0.9569  0.6802 -0.4076
 5285SOL    HW217072   2.042   8.774   5.035 -0.2146  0.2576 -0.0631
 5286SOL     OW17073   1.742   0.447   4.501  0.0553 -0.1891  0.0818
 5286SOL    HW117074   1.829   0.457   4.539 -0.3564  1.9475  0.6184
 5286SOL    HW217075   1.725   0.353   4.504  1.8128 -0.5180  1.1652
 5287SOL     OW17076   2.399   1.467   4.884 -0.3245  0.5982 -0.3988
 5287SOL    HW117077   2.377   1.462   4.791 -2.3793 -0.6566  0.0892
 5287SOL    HW217078   2.389   1.559   4.906 -1.9867  0.5923 -0.9788
 5288SOL     OW17079   3.473   1.072   4.525 -0.0763 -0.7771  0.1832
 5288SOL    HW117080   3.493   1.163   4.545 -1.7250  0.0300 -1.4680
 5288SOL    HW217081   3.397   1.051   4.579 -0.2352 -0.8718 -0.0722
 5289SOL     OW17082   3.459   0.597   4.170  0.1867 -0.2936 -0.0471
 5289SOL    HW117083   3.545   0.555   4.175  0.3771  0.2270  1.4768
 5289SOL    HW217084   3.472   0.685   4.204 -0.9636 -0.2370  0.3208
 5290SOL     OW17085   3.799   0.465   3.932 -0.1929  0.0350  0.0929
 5290SOL    HW117086   3.813   0.388   3.877  0.2695  0.2566 -0.1083
 5290SOL    HW217087   3.817   0.540   3.874 -0.3221  0.2843  0.3718
 5291SOL     OW17088   2.530   0.936   5.145  0.4990  0.2487  0.0115
 5291SOL    HW117089   2.438   0.949   5.123  0.4496  1.6425  0.9233
 5291SOL    HW217090   2.578   0.985   5.079  0.4919  1.2484  0.7302
 5292SOL     OW17091   2.595   0.698   6.195  0.3667  0.1527  0.4540
 5292SOL    HW117092   2.636   0.698   6.281  1.3220  0.3247  0.0191
 5292SOL    HW217093   2.579   0.790   6.175  1.2041  0.2112 -0.0162
 5293SOL     OW17094   2.974   1.107   4.199 -0.1115  0.3959 -0.3721
 5293SOL    HW117095   3.012   1.194   4.210  0.9494 -0.1747  0.7112
 5293SOL    HW217096   2.910   1.099   4.269 -0.6768  0.5218 -0.8605
 5294SOL     OW17097   2.646   1.198   6.008  0.4606  0.2382 -0.5269
 5294SOL    HW117098   2.702   1.138   5.960  0.8356  0.2349 -0.0926
 5294SOL    HW217099   2.651   1.280   5.958 -0.9908 -0.4078 -1.7830
 5295SOL     OW17100   2.338   1.440   4.601  0.3051 -0.6365  0.4496
 5295SOL    HW117101   2.369   1.530   4.587 -0.4065 -0.1148  1.9887
 5295SOL    HW217102   2.413   1.385   4.578  1.2081  0.4218  0.7999
 5296SOL     OW17103   3.214   1.271   5.048 -0.4332 -0.2256  0.5932
 5296SOL    HW117104   3.275   1.298   5.117 -0.6660 -1.2217  1.2083
 5296SOL    HW217105   3.179   1.354   5.014  1.0216  0.3592  0.4216
 5297SOL     OW17106   2.505   0.491   5.359 -0.5690  0.1804 -0.6084
 5297SOL    HW117107   2.529   0.541   5.281  3.3384  0.5320  0.5958
 5297SOL    HW217108   2.460   0.555   5.415  0.6432  1.2476 -0.8008
 5298SOL     OW17109   3.798   0.317   4.376  0.1125  0.3577  0.3135
 5298SOL    HW117110   3.879   0.286   4.417  0.4184  0.6619 -0.0494
 5298SOL    HW217111   3.744   0.238   4.367 -0.2934  0.3954  1.9976
 5299SOL     OW17112   2.474   1.891   4.095  0.1008 -0.1461 -0.2190
 5299SOL    HW117113   2.442   1.803   4.113 -0.1072  0.3700  2.2674
 5299SOL    HW217114   2.428   1.918   4.015 -0.5656 -1.8965 -0.4623
 5300SOL     OW17115   2.962   1.398   5.481  0.0266 -0.2502 -0.1927
 5300SOL    HW117116   2.900   1.373   5.550 -0.9196  0.5195 -0.7410
 5300SOL    HW217117   3.042   1.420   5.528 -1.0666  1.8048  0.8406
 5301SOL     OW17118   1.992   1.736   4.022 -0.5697  0.1891 -0.3007
 5301SOL    HW117119   1.922   1.682   3.983 -1.4465  0.9167  0.2223
 5301SOL    HW217120   2.022   1.686   4.097  0.2681 -0.6455 -1.1624
 5302SOL     OW17121   2.232   0.808   4.744  0.1410  0.4056 -0.0157
 5302SOL    HW117122   2.249   0.738   4.681  2.0348  1.8573 -1.2522
 5302SOL    HW217123   2.259   0.773   4.828  0.5699 -0.5146 -0.5293
 5303SOL     OW17124   2.412   1.937   5.023 -0.4284  0.0703  0.3813
 5303SOL    HW117125   2.348   1.904   5.086 -1.6353 -0.7523 -1.1746
 5303SOL    HW217126   2.470   1.862   5.007 -1.2054 -0.3169 -0.7539
 5304SOL     OW17127   2.241   1.108   3.708 -0.5813 -0.5505 -0.3487
 5304SOL    HW117128   2.294   1.177   3.668  0.8612 -1.0222  0.6607
 5304SOL    HW217129   2.198   1.151   3.783 -0.3305 -0.5604 -0.1999
 5305SOL     OW17130   3.351   0.171   5.181 -0.6413  0.6195  0.1317
 5305SOL    HW117131   3.291   0.099   5.202 -0.0424  0.3120  0.8199
 5305SOL    HW217132   3.435   0.128   5.166 -0.3723  1.1428  0.1486
 5306SOL     OW17133   1.857   0.699   4.135  0.1039  0.0289 -0.2469
 5306SOL    HW117134   1.778   0.659   4.099 -0.5262  1.4835 -0.5530
 5306SOL    HW217135   1.928   0.665   4.081 -0.3511 -0.8962 -0.2912
 5307SOL     OW17136   3.364   1.798   4.001 -0.1789  0.5709  0.9975
 5307SOL    HW117137   3.360   1.826   4.092  0.2755  0.2935  1.1043
 5307SOL    HW217138   3.455   1.808   3.976 -0.2666  0.4713  0.6260
 5308SOL     OW17139   1.831   1.520   3.889 -0.6255 -0.3156 -0.4648
 5308SOL    HW117140   1.742   1.527   3.923 -0.2331  2.0864  0.2830
 5308SOL    HW217141   1.875   1.458   3.946 -1.4070 -0.2970  0.1638
 5309SOL     OW17142   3.757   0.955   4.606 -0.0348  0.4773 -0.3211
 5309SOL    HW117143   3.759   0.860   4.596  1.5720  0.6258 -1.8167
 5309SOL    HW217144   3.665   0.979   4.595 -0.0993 -0.6457 -2.9582
 5310SOL     OW17145   3.927   0.588   4.340  0.2206  0.0522 -0.6910
 5310SOL    HW117146   4.006   0.572   4.289  0.7189  0.0875  0.0656
 5310SOL    HW217147   3.858   0.540   4.293  1.0138 -1.3944 -0.4059
 5311SOL     OW17148   1.948   0.873   5.413  0.6778 -0.6845  0.3314
 5311SOL    HW117149   2.020   0.931   5.387  0.7488 -0.9580 -0.0904
 5311SOL    HW217150   1.901   0.854   5.332 -2.1620  2.4540  1.0213
 5312SOL     OW17151   2.999   1.310   4.538  0.3705  0.2056  0.4693
 5312SOL    HW117152   2.927   1.337   4.481 -0.2615  0.5994  1.4361
 5312SOL    HW217153   3.066   1.377   4.525  0.7871 -0.4265 -0.8073
 5313SOL     OW17154   2.951   0.648   4.797 -0.7379  0.1724  0.0112
 5313SOL    HW117155   3.021   0.655   4.862  2.2059  1.3882 -2.9990
 5313SOL    HW217156   2.937   0.553   4.789  1.5593 -0.2203 -0.1791
 5314SOL     OW17157   2.272   0.119   4.379 -0.0523 -0.3705  0.0530
 5314SOL    HW117158   2.250   0.091   4.290  0.2570 -0.2953 -0.0499
 5314SOL    HW217159   2.367   0.109   4.384  0.1145  0.9383 -0.0829
 5315SOL     OW17160   2.122   1.164   4.915 -0.3069  0.6424  0.2907
 5315SOL    HW117161   2.063   1.089   4.928  1.5420 -0.7134  1.4404
 5315SOL    HW217162   2.133   1.170   4.820  0.1259 -1.1158  0.1872
 5316SOL     OW17163   3.497   0.969   3.773  0.2086 -0.1661 -0.2070
 5316SOL    HW117164   3.415   0.997   3.732  0.2770  0.3956  0.0374
 5316SOL    HW217165   3.477   0.966   3.867  0.7911  1.0947 -0.0368
 5317SOL     OW17166   2.781   1.497   5.244  0.7757 -0.4625  0.0014
 5317SOL    HW117167   2.793   1.569   5.183 -1.0311 -1.9172 -2.2304
 5317SOL    HW217168   2.869   1.479   5.278  1.7696  0.7469 -1.7877
 5318SOL     OW17169   2.509   0.672   5.147 -0.1478  0.2513  0.0291
 5318SOL    HW117170   2.569   0.633   5.083 -0.3839  1.9296 -1.2988
 5318SOL    HW217171   2.530   0.766   5.144 -2.2589  0.7736  0.1380
 5319SOL     OW17172   3.851   1.433   4.763  0.1260 -0.0945 -0.7043
 5319SOL    HW117173   3.937   1.404   4.733  0.4392  0.0938  0.0069
 5319SOL    HW217174   3.831   1.376   4.837 -1.2166 -1.4190 -2.0149
 5320SOL     OW17175   3.872   1.546   4.284  0.2203  0.2425  0.2881
 5320SOL    HW117176   3.822   1.604   4.342 -1.2791 -1.2941  0.5935
 5320SOL    HW217177   3.964   1.565   4.304 -0.2383  1.8795  0.9815
 5321SOL     OW17178   2.596   0.858   3.649 -0.2527  0.1762 -0.2393
 5321SOL    HW117179   2.539   0.865   3.572 -0.6012  0.2247  0.0195
 5321SOL    HW217180   2.568   0.931   3.705  1.4823  1.5143 -1.0276
 5322SOL     OW17181   3.156   0.824   4.379 -0.2568  0.3457  0.0912
 5322SOL    HW117182   3.090   0.813   4.446  0.6332 -0.8136  0.8232
 5322SOL    HW217183   3.119   0.781   4.302 -0.7488  0.5570  0.2053
 5323SOL     OW17184   3.561   1.378   4.028 -0.7873  0.3891  0.3278
 5323SOL    HW117185   3.642   1.422   4.055  0.1047 -0.3590 -1.0309
 5323SOL    HW217186   3.532   1.428   3.952 -2.5884  1.7063  1.7882
 5324SOL     OW17187   2.412   0.796   5.420  0.3292 -0.0287 -0.3188
 5324SOL    HW117188   2.447   0.869   5.471  0.4878  0.0266 -0.5041
 5324SOL    HW217189   2.454   0.804   5.334  0.6656 -0.5725 -0.2142
 5325SOL     OW17190   3.230   0.593   5.296  1.2333 -0.0943  0.0697
 5325SOL    HW117191   3.252   0.671   5.347  2.1905 -0.8068  0.8112
 5325SOL    HW217192   3.314   0.565   5.259  0.5687  0.3404 -1.8402
 5326SOL     OW17193   2.959   0.722   5.862 -0.3759  0.0712  0.2117
 5326SOL    HW117194   3.000   0.650   5.909 -0.1554  0.2902  0.3615
 5326SOL    HW217195   2.978   0.705   5.770  0.9197  0.6803  0.3363
 5327SOL     OW17196   2.681   0.289   5.011 -0.4744 -0.3427  0.1298
 5327SOL    HW117197   2.669   0.200   4.979 -1.0240 -0.0457 -0.5059
 5327SOL    HW217198   2.685   0.280   5.106  0.2219 -1.1277  0.0389
 5328SOL     OW17199   2.822   0.646   4.005  0.3843 -0.1692 -0.1519
 5328SOL    HW117200   2.833   0.563   3.959  0.9662  0.3006 -0.8802
 5328SOL    HW217201   2.728   0.661   4.004  0.2797 -0.7708 -0.0949
 5329SOL     OW17202   1.960   0.720   4.404 -0.1806  0.0418 -0.2540
 5329SOL    HW117203   1.976   0.629   4.431 -1.8626  0.0131  0.7707
 5329SOL    HW217204   1.920   0.711   4.317 -0.4156 -0.2117 -0.1232
 5330SOL     OW17205   2.059   1.695   5.427 -0.1560 -0.7536 -0.0351
 5330SOL    HW117206   2.093   1.660   5.344  3.0161  0.6526  0.5106
 5330SOL    HW217207   2.113   1.653   5.494 -0.2966  0.7062  1.0371
 5331SOL     OW17208   2.796   0.342   3.847 -0.1509 -0.5522 -0.1445
 5331SOL    HW117209   2.832   0.397   3.778  0.0323 -2.5083 -1.7198
 5331SOL    HW217210   2.865   0.335   3.912  0.3409 -0.0974 -0.6122
 5332SOL     OW17211   3.560   0.774   5.611  0.1597 -0.2157 -0.0391
 5332SOL    HW117212   3.552   0.819   5.695  1.5249 -0.6311  0.3376
 5332SOL    HW217213   3.548   0.682   5.632 -3.1254 -0.1115 -0.8765
 5333SOL     OW17214   3.306   1.327   4.073  0.5490 -0.0693  0.6563
 5333SOL    HW117215   3.298   1.244   4.120  1.6726  0.5477  2.0409
 5333SOL    HW217216   3.399   1.332   4.049  0.2162  0.1634 -0.6481
 5334SOL     OW17217   2.218   0.650   5.139  0.6782  0.5191 -0.3119
 5334SOL    HW117218   2.309   0.657   5.165  0.7087  1.9588 -0.7420
 5334SOL    HW217219   2.221   0.610   5.052  0.7687 -0.9671  0.3302
 5335SOL     OW17220   3.414   1.477   4.331 -0.1404 -0.3061 -0.0807
 5335SOL    HW117221   3.457   1.545   4.279 -0.0313  0.1537  0.5985
 5335SOL    HW217222   3.361   1.429   4.268  0.1122  0.1415 -0.6465
 5336SOL     OW17223   2.702   1.134   4.325  0.5066 -0.0734 -0.0568
 5336SOL    HW117224   2.673   1.131   4.416 -1.9085 -0.2765 -0.7454
 5336SOL    HW217225   2.638   1.081   4.278  0.1437  2.0982 -2.2074
 5337SOL     OW17226   3.754   1.158   4.811 -0.4930  0.1995  0.2747
 5337SOL    HW117227   3.767   1.081   4.756 -1.0348 -1.6825  2.6294
 5337SOL    HW217228   3.843   1.182   4.839 -0.3497  0.2692 -0.2233
 5338SOL     OW17229   3.000   1.315   5.232  0.2085 -0.2362 -0.4351
 5338SOL    HW117230   2.988   1.340   5.324  0.2651 -2.6504  0.2800
 5338SOL    HW217231   3.094   1.302   5.223  0.1951 -0.0637 -0.8422
 5339SOL     OW17232   2.050   0.631   3.952 -0.2554  0.0064  0.1257
 5339SOL    HW117233   2.120   0.640   3.887 -0.4705 -0.1963 -0.1346
 5339SOL    HW217234   1.989   0.570   3.913 -0.7123  0.3864  0.2391
 5340SOL     OW17235   3.299   1.099   4.724 -0.0164 -0.0860  0.9246
 5340SOL    HW117236   3.211   1.062   4.728 -0.6486  1.1110 -0.7543
 5340SOL    HW217237   3.288   1.191   4.750 -0.2982  1.5025 -3.8713
 5341SOL     OW17238   2.415   1.341   5.594  0.2580 -0.0425  0.1634
 5341SOL    HW117239   2.507   1.343   5.568  0.1375 -1.0062 -0.4093
 5341SOL    HW217240   2.371   1.299   5.520 -0.8888  1.7924 -0.2607
 5342SOL     OW17241   3.258   1.627   3.805 -0.5526  0.4262  0.1855
 5342SOL    HW117242   3.234   1.692   3.738 -0.2070 -1.6958 -2.1459
 5342SOL    HW217243   3.341   1.659   3.841 -0.4573  1.3422 -0.8031
 5343SOL     OW17244   2.185   0.344   5.422  0.3021  0.1691  0.1820
 5343SOL    HW117245   2.264   0.355   5.473  0.5082  0.0637 -0.1079
 5343SOL    HW217246   2.159   0.433   5.397 -0.4089  0.3104  1.3664
 5344SOL     OW17247   3.335   1.309   3.190  0.4986 -0.4976 -0.6843
 5344SOL    HW117248   3.267   1.361   3.234  1.9019  0.6146  0.2550
 5344SOL    HW217249   3.387   1.373   3.142  0.9100 -1.3347 -1.3823
 5345SOL     OW17250   2.573   1.955   4.456 -0.0593  0.4405 -0.0795
 5345SOL    HW117251   2.588   1.940   4.362  2.3432 -0.7772  0.3936
 5345SOL    HW217252   2.482   1.983   4.462  0.0840  1.8811 -2.8984
 5346SOL     OW17253   3.307   8.806   3.794  0.0905 -0.1958  0.4383
 5346SOL    HW117254   3.257   8.864   3.852 -0.3638 -0.2723  0.1273
 5346SOL    HW217255   3.392   8.849   3.785 -0.6502  1.1254 -0.8175
 5347SOL     OW17256   2.220   1.775   4.386 -0.0909 -0.1034 -0.1723
 5347SOL    HW117257   2.295   1.740   4.338 -0.3938  0.6468 -1.2280
 5347SOL    HW217258   2.246   1.864   4.409 -0.2763 -0.1799  0.3523
 5348SOL     OW17259   2.303   2.068   4.447  0.3842 -0.5938 -0.1075
 5348SOL    HW117260   2.282   2.139   4.386 -1.4386 -0.7418  0.2939
 5348SOL    HW217261   2.286   2.106   4.533  0.9222 -1.0466  0.2024
 5349SOL     OW17262   2.523   0.739   3.902  0.3682  0.0652 -0.2013
 5349SOL    HW117263   2.447   0.793   3.881 -0.6092 -1.5012 -0.9369
 5349SOL    HW217264   2.581   0.748   3.827  0.4526  0.4893 -0.0862
 5350SOL     OW17265   3.087   0.252   5.758  0.4412  0.6610  1.0800
 5350SOL    HW117266   3.125   0.290   5.679 -0.5867  2.4084  1.3795
 5350SOL    HW217267   3.086   0.323   5.821 -0.7660 -0.0947  1.9575
 5351SOL     OW17268   2.358   0.014   3.903  0.0477 -0.6611 -0.1367
 5351SOL    HW117269   2.340  -0.080   3.907  1.5627 -0.9492  0.9802
 5351SOL    HW217270   2.453   0.021   3.916 -0.1804  1.0790  0.9588
 5352SOL     OW17271   2.734   0.453   5.802 -0.3945  0.0433  0.1017
 5352SOL    HW117272   2.738   0.363   5.770  0.0410  0.0388  0.1600
 5352SOL    HW217273   2.742   0.445   5.897 -0.9963  0.1026  0.1613
 5353SOL     OW17274   2.582   1.266   4.647  0.0439 -0.5028 -0.6660
 5353SOL    HW117275   2.658   1.304   4.693  0.1669 -0.2164 -1.0965
 5353SOL    HW217276   2.533   1.222   4.716 -0.9903  1.8248  0.2028
 5354SOL     OW17277   2.959   0.504   5.270  0.4873 -0.1659  0.2206
 5354SOL    HW117278   2.942   0.560   5.345  0.6508  1.1033 -0.6653
 5354SOL    HW217279   3.047   0.528   5.241  0.6327 -1.0071 -0.0709
 5355SOL     OW17280   2.800   1.354   4.784  0.4493  0.6894  0.1908
 5355SOL    HW117281   2.812   1.331   4.876  0.5759  0.6807  0.1721
 5355SOL    HW217282   2.888   1.363   4.749  0.4040  1.1971  0.1952
 5356SOL     OW17283   2.553   0.351   4.607 -0.2586 -0.6327 -0.1745
 5356SOL    HW117284   2.487   0.398   4.556  0.3860  0.2373 -0.2443
 5356SOL    HW217285   2.563   0.267   4.564 -1.6277 -0.9482  0.0964
 5357SOL     OW17286   2.154   0.244   4.123  0.2696  0.0468  0.1395
 5357SOL    HW117287   2.148   0.339   4.139  0.7093 -0.0992  1.2078
 5357SOL    HW217288   2.240   0.232   4.083 -0.1579  0.1993 -0.8651
 5358SOL     OW17289   3.560   1.285   3.728 -0.1632 -0.0111 -0.0704
 5358SOL    HW117290   3.543   1.217   3.793 -0.2045 -1.2606 -1.3379
 5358SOL    HW217291   3.483   1.341   3.731  0.0937  0.2888  1.3486
 5359SOL     OW17292   2.194   0.126   3.749  0.1513  0.1760 -0.4141
 5359SOL    HW117293   2.260   0.155   3.685 -0.5948 -0.8884 -1.7214
 5359SOL    HW217294   2.245   0.078   3.814  0.9570  1.4443 -0.0681
 5360SOL     OW17295   2.875   0.304   4.563  0.3773 -0.1797 -0.0232
 5360SOL    HW117296   2.835   0.316   4.649  0.6224  0.4985  0.0006
 5360SOL    HW217297   2.954   0.357   4.566  1.8245 -2.2285  0.2744
 5361SOL     OW17298   2.806   0.843   5.023  0.1966 -0.3871 -0.0096
 5361SOL    HW117299   2.857   0.892   5.087  0.0392 -0.6507  0.3150
 5361SOL    HW217300   2.752   0.910   4.979 -1.4901 -0.4829  1.7741
 5362SOL     OW17301   3.205   1.491   4.522  0.3298  0.2177  0.7772
 5362SOL    HW117302   3.269   1.506   4.453 -0.6652 -1.7446 -0.6625
 5362SOL    HW217303   3.135   1.554   4.503 -0.0690 -0.5010 -0.2166
 5363SOL     OW17304   2.556   1.038   3.921 -0.5548 -0.0737  0.0446
 5363SOL    HW117305   2.638   0.990   3.926 -1.1388 -1.2412 -0.9938
 5363SOL    HW217306   2.511   1.018   4.003  0.3099  0.8392  0.7655
 5364SOL     OW17307   3.227   1.935   4.716  0.8155  0.3579  0.2831
 5364SOL    HW117308   3.317   1.906   4.704  0.9874  0.9139  0.2123
 5364SOL    HW217309   3.211   1.996   4.643 -0.1516 -0.9687 -0.6761
 5365SOL     OW17310   2.711   0.565   3.597  0.0616 -0.3457 -0.4235
 5365SOL    HW117311   2.688   0.657   3.585 -0.6744 -0.3549  0.7743
 5365SOL    HW217312   2.802   0.567   3.627  0.4641 -0.0969 -1.6072
 5366SOL     OW17313   2.282   0.537   5.592  0.2188 -0.3968  0.0542
 5366SOL    HW117314   2.278   0.576   5.679 -0.1594  2.1739 -1.0445
 5366SOL    HW217315   2.257   0.607   5.533  0.5362 -2.0535 -2.1612
 5367SOL     OW17316   2.533   0.244   5.449  0.3986  0.1417 -0.2907
 5367SOL    HW117317   2.629   0.247   5.447  0.4005 -0.3025 -0.9251
 5367SOL    HW217318   2.506   0.330   5.418  0.5903 -0.1233 -1.2248
 5368SOL     OW17319   2.588   0.721   4.330 -0.5624  0.3647  0.6086
 5368SOL    HW117320   2.607   0.676   4.412  0.3265 -3.3003 -1.3957
 5368SOL    HW217321   2.672   0.727   4.285 -1.4297 -0.4263 -1.2310
 5369SOL     OW17322   2.689   8.659   4.556  0.6336 -0.5242 -0.0262
 5369SOL    HW117323   2.727   8.582   4.598 -2.2017 -2.0488 -0.0329
 5369SOL    HW217324   2.720   8.654   4.465  0.2213 -1.8586 -0.1091
 5370SOL     OW17325   3.286   1.094   4.246  0.0561  0.8228 -0.3468
 5370SOL    HW117326   3.257   1.043   4.321  1.8302 -0.3003 -0.3800
 5370SOL    HW217327   3.241   1.055   4.171  0.0273  0.4591 -0.1413
 5371SOL     OW17328   3.682   0.419   4.627  0.2120  0.0379  0.2362
 5371SOL    HW117329   3.694   0.420   4.532 -0.2671  0.1566  0.1748
 5371SOL    HW217330   3.597   0.459   4.640 -1.0717 -2.5630  0.5200
 5372SOL     OW17331   3.792   0.805   4.047  0.4062 -0.2113  0.0990
 5372SOL    HW117332   3.818   0.808   4.140  1.2128  1.5345 -0.1548
 5372SOL    HW217333   3.875   0.796   4.000  0.0542 -0.3496 -0.5023
 5373SOL     OW17334   2.467   1.671   4.306 -0.0300 -0.8953 -0.0129
 5373SOL    HW117335   2.424   1.620   4.237 -0.6340  0.1175 -0.3934
 5373SOL    HW217336   2.555   1.634   4.311  0.0565 -0.9157 -1.4146
 5374SOL     OW17337   3.546   0.885   4.323 -0.1979  0.3821 -0.1127
 5374SOL    HW117338   3.511   0.956   4.376 -0.3172 -0.7179  1.3652
 5374SOL    HW217339   3.641   0.893   4.331 -0.1400  1.4783 -1.5249
 5375SOL     OW17340   3.312   0.310   3.962  0.2358  0.3951 -0.2616
 5375SOL    HW117341   3.348   0.326   4.049  0.1425  0.8037 -0.2956
 5375SOL    HW217342   3.377   0.347   3.902  0.8193 -0.8303 -0.4214
 5376SOL     OW17343   2.539   0.190   4.388 -0.4514 -0.4419 -0.0676
 5376SOL    HW117344   2.529   0.254   4.317 -0.8718 -0.1878  0.2181
 5376SOL    HW217345   2.574   0.112   4.345  1.6454  0.4903 -0.1719
 5377SOL     OW17346   3.687   1.480   5.303 -0.1248  0.6608 -0.4550
 5377SOL    HW117347   3.632   1.549   5.340 -0.3187  0.1535  0.2106
 5377SOL    HW217348   3.737   1.446   5.377 -1.8587 -1.6312 -0.2383
 5378SOL     OW17349   2.824   1.255   5.037  0.6033 -0.2079  0.0841
 5378SOL    HW117350   2.866   1.298   5.111  1.8668  0.2861 -0.8806
 5378SOL    HW217351   2.890   1.193   5.005 -0.4106 -1.3597  0.1633
 5379SOL     OW17352   3.557   1.721   5.399  0.5535 -0.2112 -0.4375
 5379SOL    HW117353   3.589   1.755   5.482  2.1530 -1.0034 -0.6882
 5379SOL    HW217354   3.489   1.783   5.372  0.8406  0.7105  0.8679
 5380SOL     OW17355   3.277   1.382   4.763  0.3201  0.7697  0.5687
 5380SOL    HW117356   3.272   1.426   4.678 -1.5219 -1.5420 -0.6184
 5380SOL    HW217357   3.200   1.412   4.810  0.3119  0.5896  0.6691
 5381SOL     OW17358   3.529   0.992   4.831 -0.1304 -0.1709 -0.1232
 5381SOL    HW117359   3.442   1.021   4.803 -0.4837  1.2507  2.2011
 5381SOL    HW217360   3.582   1.072   4.829  0.1080 -0.2313  2.0198
 5382SOL     OW17361   2.916   0.015   5.593 -0.1803  0.5871  0.4632
 5382SOL    HW117362   2.976  -0.053   5.623 -0.7664  0.6745  1.8855
 5382SOL    HW217363   2.971   0.078   5.547  0.9240  0.9615  2.2261
 5383SOL     OW17364   2.668   0.951   5.792 -0.2346 -0.3135 -0.3052
 5383SOL    HW117365   2.573   0.962   5.786 -0.2175  1.5182  1.6940
 5383SOL    HW217366   2.680   0.864   5.830 -1.0977 -0.4925 -0.4138
 5384SOL     OW17367   2.933   1.105   3.751  0.0733  0.2450  0.1033
 5384SOL    HW117368   2.896   1.193   3.746  0.0638  0.2651  0.4602
 5384SOL    HW217369   2.880   1.062   3.819  0.4509  0.1476  0.3368
 5385SOL     OW17370   2.287   0.951   5.114  0.5084  0.3780 -0.5456
 5385SOL    HW117371   2.211   0.998   5.079 -0.5276 -0.0883  0.9797
 5385SOL    HW217372   2.254   0.864   5.134  0.4175  1.1380  3.3672
 5386SOL     OW17373   2.796   0.248   5.431  0.3391  0.4171  0.2502
 5386SOL    HW117374   2.823   0.338   5.412 -0.2160 -0.0564 -3.3125
 5386SOL    HW217375   2.874   0.195   5.414  0.0762  0.0163  0.2661
 5387SOL     OW17376   2.139   1.329   5.122 -0.4190  0.8412  0.5117
 5387SOL    HW117377   2.047   1.347   5.101 -0.5648 -0.9882 -0.6258
 5387SOL    HW217378   2.160   1.249   5.073  1.8984  1.4143  0.4364
 5388SOL     OW17379   2.449   0.952   4.204  0.1354  0.5721 -0.2013
 5388SOL    HW117380   2.508   0.893   4.251  1.1141  0.6902 -1.2366
 5388SOL    HW217381   2.362   0.932   4.238  0.8845  1.3066  2.3383
 5389SOL     OW17382   2.499   0.165   4.817 -0.5478  0.0176  0.4094
 5389SOL    HW117383   2.476   0.240   4.762 -0.6509  0.1939  0.6915
 5389SOL    HW217384   2.477   0.089   4.764  1.3678  0.1521 -0.6629
 5390SOL     OW17385   3.851   1.103   4.120 -0.9404 -0.5129  0.2152
 5390SOL    HW117386   3.895   1.098   4.035 -2.3520 -0.5789 -0.5467
 5390SOL    HW217387   3.838   1.011   4.145  1.6556 -0.5798  1.7589
 5391SOL     OW17388   3.497   1.591   5.068  0.2702  0.7584  0.0785
 5391SOL    HW117389   3.477   1.683   5.087  2.9157  1.6014 -0.7727
 5391SOL    HW217390   3.548   1.561   5.143  2.6109  1.1978 -1.2523
 5392SOL     OW17391   3.604   0.688   3.841 -0.3239 -0.1116  0.7627
 5392SOL    HW117392   3.524   0.737   3.823 -0.1261  0.1837  0.6856
 5392SOL    HW217393   3.632   0.719   3.928 -0.8931 -1.0192  1.2896
 5393SOL     OW17394   1.957   1.716   5.079 -0.2815  0.4145  0.3116
 5393SOL    HW117395   1.978   1.779   5.010 -1.8587  0.3660 -0.2389
 5393SOL    HW217396   2.040   1.703   5.125  0.5938  1.1264 -1.0074
 5394SOL     OW17397   2.368   0.723   5.853 -0.4310 -0.3072 -0.0281
 5394SOL    HW117398   2.387   0.803   5.804 -0.0040  0.4754  1.3766
 5394SOL    HW217399   2.454   0.691   5.880 -0.6192 -1.1080 -0.3614
 5395SOL     OW17400   3.482   1.185   5.888 -0.0954 -0.3201  0.9797
 5395SOL    HW117401   3.564   1.231   5.909  0.0104  0.8341 -1.5801
 5395SOL    HW217402   3.413   1.247   5.911 -0.0651  0.1008 -0.0060
 5396SOL     OW17403   3.117   8.710   5.653 -0.0640 -0.1379 -0.5728
 5396SOL    HW117404   3.146   8.633   5.703 -1.0877  0.5508  1.1567
 5396SOL    HW217405   3.147   8.692   5.564  1.7377 -1.4794  0.2182
 5397SOL     OW17406   2.238   0.121   5.803  0.6802 -0.0044  0.0830
 5397SOL    HW117407   2.245   0.158   5.891  0.1507  2.1197 -0.7001
 5397SOL    HW217408   2.329   0.113   5.774  0.8531 -0.5617  0.7485
 5398SOL     OW17409   2.266   0.526   4.900 -0.5613 -0.0372 -0.4533
 5398SOL    HW117410   2.359   0.510   4.886 -0.4675 -2.2100  1.8020
 5398SOL    HW217411   2.223   0.446   4.870 -1.6956  0.8203 -1.1984
 5399SOL     OW17412   3.386   0.794   4.522  0.5171  0.0804  0.0891
 5399SOL    HW117413   3.304   0.808   4.475 -0.4552  2.6292  2.3421
 5399SOL    HW217414   3.454   0.827   4.463 -0.3306  0.3914 -0.7261
 5400SOL     OW17415   3.054   0.713   4.143 -0.4514  0.6470  0.0344
 5400SOL    HW117416   2.992   0.681   4.078 -0.3127 -2.0697  1.0633
 5400SOL    HW217417   3.138   0.677   4.115 -0.0701  0.9600  0.7388
 5401SOL     OW17418   1.969   0.235   5.304 -0.6488 -0.1963 -0.4208
 5401SOL    HW117419   1.955   0.171   5.373  0.2932 -0.0964 -0.1199
 5401SOL    HW217420   2.054   0.274   5.324 -0.4839  0.0308 -1.4743
 5402SOL     OW17421   1.908   1.174   4.606 -0.1553 -0.6038 -0.3511
 5402SOL    HW117422   1.876   1.089   4.576 -0.5079 -0.6018  0.0197
 5402SOL    HW217423   1.996   1.180   4.570 -0.0389 -1.2309 -0.1846
 5403SOL     OW17424   2.326   0.388   4.438  0.0268  0.1760  0.3908
 5403SOL    HW117425   2.302   0.296   4.451  0.7089 -0.0094  0.3608
 5403SOL    HW217426   2.362   0.391   4.349  1.0159  0.2511  0.7821
 5404SOL     OW17427   3.828   1.059   5.745 -0.0640 -0.2996 -0.6178
 5404SOL    HW117428   3.787   1.066   5.659  0.3123  0.9822 -0.7179
 5404SOL    HW217429   3.922   1.065   5.728 -0.0079  0.6318 -0.0934
 5405SOL     OW17430   2.205   0.266   4.752 -0.0332 -0.0276 -0.0513
 5405SOL    HW117431   2.166   0.235   4.671  0.1896 -0.9614  0.1898
 5405SOL    HW217432   2.219   0.187   4.805  1.8325  0.2976  0.0293
 5406SOL     OW17433   3.502   0.409   3.791  0.0889 -0.4833 -0.4215
 5406SOL    HW117434   3.550   0.473   3.843 -0.1877  0.1039 -0.8737
 5406SOL    HW217435   3.491   0.451   3.706 -1.9458 -0.2112 -0.0943
 5407SOL     OW17436   2.746   0.576   4.528 -0.0123 -0.2461 -0.2362
 5407SOL    HW117437   2.805   0.501   4.526 -0.6945 -0.8014 -0.0449
 5407SOL    HW217438   2.699   0.568   4.611  0.1136  0.5645 -0.0725
 5408SOL     OW17439   2.505   1.537   5.250 -0.0700 -0.6681 -0.5319
 5408SOL    HW117440   2.597   1.509   5.258 -0.1746 -1.6762 -2.3245
 5408SOL    HW217441   2.507   1.605   5.184 -0.4072  0.6582  0.7796
 5409SOL     OW17442   3.741   2.002   5.425  0.1136  0.1741 -0.3391
 5409SOL    HW117443   3.798   1.925   5.430 -1.3889 -1.0113 -0.8202
 5409SOL    HW217444   3.737   2.035   5.515 -0.7068 -1.4350  0.2477
 5410SOL     OW17445   2.519   0.965   6.150 -0.0632  0.2501  0.3949
 5410SOL    HW117446   2.541   1.005   6.065  0.5631 -1.5230 -0.3413
 5410SOL    HW217447   2.478   1.035   6.200 -0.6852  1.2899 -1.4673
 5411SOL     OW17448   3.155   0.109   3.951  0.7067 -0.2675  0.1003
 5411SOL    HW117449   3.197   0.194   3.938 -0.8231  0.4577 -0.3482
 5411SOL    HW217450   3.124   0.112   4.042  1.5555 -0.7900  0.4218
 5412SOL     OW17451   2.640   1.089   3.270  0.3285 -0.3825  0.0974
 5412SOL    HW117452   2.692   1.042   3.335  1.2370  0.2723 -0.1419
 5412SOL    HW217453   2.640   1.179   3.300 -1.5010 -0.5090  0.6163
 5413SOL     OW17454   3.018   1.061   4.699 -0.0677 -0.0213  0.3866
 5413SOL    HW117455   3.008   1.145   4.655 -1.0712 -0.6058 -0.5309
 5413SOL    HW217456   3.005   0.996   4.631 -1.1733 -0.9478  1.4387
 5414SOL     OW17457   2.258   0.657   4.516 -0.2552  0.1844  0.0456
 5414SOL    HW117458   2.316   0.582   4.508  0.5293  0.6111  1.3765
 5414SOL    HW217459   2.194   0.646   4.446  1.1292 -0.5585 -1.1527
 5415SOL     OW17460   1.904   0.225   4.720  0.1587  0.0784  0.4163
 5415SOL    HW117461   1.936   0.238   4.810 -0.5009 -0.0325  0.6731
 5415SOL    HW217462   1.898   0.313   4.684  2.1109  0.0302 -0.1341
 5416SOL     OW17463   3.554   0.387   5.470  0.4855  0.3727  0.1059
 5416SOL    HW117464   3.519   0.424   5.389  0.6541  0.4307  0.0596
 5416SOL    HW217465   3.649   0.392   5.460  0.5354  1.9610  0.9932
 5417SOL     OW17466   3.095   0.163   5.404 -0.9398  0.7816 -0.9619
 5417SOL    HW117467   3.178   0.173   5.451 -0.9995 -0.7795 -0.4737
 5417SOL    HW217468   3.094   0.236   5.342  0.7222  0.9255 -0.8763
 5418SOL     OW17469   1.555   1.394   3.637 -0.3212 -0.1696  0.5606
 5418SOL    HW117470   1.631   1.373   3.583 -1.6087 -1.6769 -0.7635
 5418SOL    HW217471   1.591   1.410   3.724  1.7627  1.6805 -0.5462
 5419SOL     OW17472   2.048   1.599   4.290  0.5590  0.0680 -0.4478
 5419SOL    HW117473   1.965   1.589   4.337  1.4333 -1.6403  0.8288
 5419SOL    HW217474   2.095   1.665   4.340  1.1851 -1.2100  0.7225
 5420SOL     OW17475   2.705   1.629   4.708 -0.2670 -0.1900  0.1462
 5420SOL    HW117476   2.681   1.537   4.720  0.3856 -0.6229 -1.5966
 5420SOL    HW217477   2.640   1.664   4.647  0.7198 -0.0980 -0.8842
 5421SOL     OW17478   2.800   0.586   5.079  0.1729  0.4847  0.8145
 5421SOL    HW117479   2.861   0.543   5.139 -0.0551 -0.1229  0.6239
 5421SOL    HW217480   2.825   0.678   5.081  3.0752 -0.0974 -1.5252
 5422SOL     OW17481   1.833   0.775   5.187 -0.1785  0.0959  0.2781
 5422SOL    HW117482   1.782   0.733   5.257 -0.1385  0.9076  0.8066
 5422SOL    HW217483   1.846   0.706   5.122  0.2611 -0.8240  1.3215
 5423SOL     OW17484   2.036   0.764   5.859  0.2402  0.2943  0.3307
 5423SOL    HW117485   2.072   0.686   5.902 -1.9078 -0.7523  0.3742
 5423SOL    HW217486   1.972   0.729   5.797  0.3064  1.9917 -0.7507
 5424SOL     OW17487   3.029   0.909   5.198 -0.0081 -0.1524  0.2066
 5424SOL    HW117488   3.021   0.967   5.122 -0.7081 -0.1040  0.3152
 5424SOL    HW217489   3.121   0.883   5.198 -0.2506 -1.1497 -1.4063
 5425SOL     OW17490   2.970   0.536   3.721  0.3411 -0.0491 -0.3520
 5425SOL    HW117491   2.994   0.620   3.683 -0.6361  0.2302 -0.3949
 5425SOL    HW217492   3.041   0.477   3.695  0.3388  0.4324 -1.5432
 5426SOL     OW17493   3.537   0.031   4.756  0.5010  0.3661 -0.7099
 5426SOL    HW117494   3.541   0.015   4.662  3.6837 -1.8408 -0.3541
 5426SOL    HW217495   3.612   0.088   4.774  0.2694  0.2945  0.5652
 5427SOL     OW17496   2.197   1.624   5.212  0.2665  0.1291 -0.4469
 5427SOL    HW117497   2.281   1.664   5.234 -0.2353  1.1486 -0.3546
 5427SOL    HW217498   2.220   1.545   5.162  1.4241 -1.5930  2.5516
 5428SOL     OW17499   2.547   0.490   4.854  0.3107 -0.5347 -0.4214
 5428SOL    HW117500   2.570   0.439   4.776  1.5695 -0.9894  0.2237
 5428SOL    HW217501   2.592   0.445   4.926 -1.6546 -0.7582  0.7488
 5429SOL     OW17502   2.366   1.800   5.316 -0.0298  0.1253  0.3786
 5429SOL    HW117503   2.377   1.789   5.410  1.4641  1.3173  0.3805
 5429SOL    HW217504   2.281   1.843   5.307  0.1993  0.7866  1.2526
 5430SOL     OW17505   2.455   0.376   4.191 -0.2373  0.2129  0.4630
 5430SOL    HW117506   2.461   0.471   4.180  0.7772  0.2624  1.3913
 5430SOL    HW217507   2.470   0.341   4.103 -0.4853  0.8966  0.1409
 5431SOL     OW17508   1.963   0.942   4.983 -0.0919  0.5675  0.0375
 5431SOL    HW117509   1.894   0.899   5.033  1.8523 -1.1828  1.3862
 5431SOL    HW217510   1.948   0.914   4.892  0.4339 -2.2241  0.7068
 5432SOL     OW17511   3.023   1.080   4.972 -0.2876 -0.0677  0.5533
 5432SOL    HW117512   3.024   1.070   4.877  1.6653 -1.1186  0.6176
 5432SOL    HW217513   3.100   1.134   4.991  0.5746 -1.5854  1.6189
 5433SOL     OW17514   3.266   0.676   3.955 -0.2263  0.1664  0.0737
 5433SOL    HW117515   3.283   0.637   3.869 -2.2510  1.1817 -0.8605
 5433SOL    HW217516   3.336   0.643   4.011  0.6099 -1.2782 -1.7301
 5434SOL     OW17517   3.852   1.706   4.790 -0.1526  0.2322 -0.8108
 5434SOL    HW117518   3.809   1.668   4.867  0.4049  2.0887  0.4906
 5434SOL    HW217519   3.889   1.631   4.744  0.2251 -0.8971  1.1987
 5435SOL     OW17520   2.968   2.007   4.859 -0.2019  0.4931  0.5647
 5435SOL    HW117521   3.041   1.960   4.818 -0.5916 -0.0086  0.4380
 5435SOL    HW217522   2.891   1.977   4.812 -0.1941  3.8867 -1.9870
 5436SOL     OW17523   2.661   0.943   4.595  0.4764  0.3128 -0.1967
 5436SOL    HW117524   2.730   0.997   4.633  1.1698 -0.3204 -0.5391
 5436SOL    HW217525   2.657   0.866   4.651  1.0254 -0.3039 -0.9763
 5437SOL     OW17526   2.371   1.738   5.581 -0.2741  0.0075 -0.5161
 5437SOL    HW117527   2.314   1.661   5.588  0.3336 -0.3299  1.4025
 5437SOL    HW217528   2.460   1.702   5.588  0.0039  0.8901  0.7669
 5438SOL     OW17529   3.329   8.819   4.421  0.2929  0.4237  0.5362
 5438SOL    HW117530   3.414   8.792   4.456  1.6194  2.8261 -0.5522
 5438SOL    HW217531   3.274   8.832   4.498  1.0408 -0.6732  1.2866
 5439SOL     OW17532   3.589   1.303   4.644 -0.3943 -0.3935 -0.0275
 5439SOL    HW117533   3.570   1.383   4.692  0.6062  0.6475 -1.2940
 5439SOL    HW217534   3.666   1.267   4.687  0.2267  0.2969 -0.5289
 5440SOL     OW17535   1.887   1.580   5.606  0.6161  1.0444 -0.2001
 5440SOL    HW117536   1.933   1.641   5.548  1.9783 -0.1217 -0.4174
 5440SOL    HW217537   1.822   1.633   5.651 -0.6554  1.9707 -2.9432
 5441SOL     OW17538   3.170   0.951   4.032 -0.2026  0.5003  0.1023
 5441SOL    HW117539   3.224   0.874   4.016 -0.0351  0.6774 -0.1951
 5441SOL    HW217540   3.108   0.923   4.099  1.9260  1.0520  2.4266
 5442SOL     OW17541   2.409   1.183   4.902 -0.1785  0.7153 -0.2352
 5442SOL    HW117542   2.387   1.276   4.907 -0.6417  0.5668  0.7783
 5442SOL    HW217543   2.328   1.138   4.925  0.4727  0.1178  1.0161
 5443SOL     OW17544   2.462   1.493   3.738 -0.0608 -0.2846  0.1754
 5443SOL    HW117545   2.423   1.415   3.697 -1.4150  0.0422  0.7821
 5443SOL    HW217546   2.460   1.474   3.832 -1.2883  0.8394  0.4012
 5444SOL     OW17547   3.901   1.440   5.144 -0.4779  0.2416 -0.6346
 5444SOL    HW117548   3.918   1.356   5.187 -1.0644  0.9688  1.1041
 5444SOL    HW217549   3.824   1.475   5.188 -0.2443  1.6994 -1.3178
 5445SOL     OW17550   3.639   8.807   4.502  0.6371 -0.0375  0.0953
 5445SOL    HW117551   3.729   8.804   4.469  0.8986 -1.2871  0.8441
 5445SOL    HW217552   3.624   8.720   4.538 -0.4464  0.5354  1.1077
 5446SOL     OW17553   1.479   8.781   4.577 -0.3275  1.1910  0.4078
 5446SOL    HW117554   1.465   8.843   4.649 -1.0544  2.5584 -0.8553
 5446SOL    HW217555   1.498   8.836   4.501 -0.3742 -0.1757 -0.6350
 5447SOL     OW17556   3.617   1.325   3.459  0.1312 -0.0609  0.0821
 5447SOL    HW117557   3.533   1.365   3.434  0.9969  2.6241  1.1146
 5447SOL    HW217558   3.612   1.316   3.554  0.4901 -1.2873  0.0024
 5448SOL     OW17559   2.651   1.065   4.939  0.0240  0.0452 -0.3563
 5448SOL    HW117560   2.712   1.129   4.977  1.1400 -0.7960 -0.7055
 5448SOL    HW217561   2.569   1.114   4.929  0.2433  0.8352  1.3207
 5449SOL     OW17562   2.816   0.926   3.989 -0.0731 -0.4720 -0.3760
 5449SOL    HW117563   2.805   0.834   4.014  1.1308 -0.3663  0.6621
 5449SOL    HW217564   2.873   0.962   4.057 -1.1379  1.2459 -0.3507
 5450SOL     OW17565   3.798   1.586   3.498  0.0968 -0.1915 -0.4058
 5450SOL    HW117566   3.850   1.661   3.467 -1.0787  1.5469  1.5225
 5450SOL    HW217567   3.714   1.595   3.452  0.1374 -0.6475 -0.5689
 5451SOL     OW17568   2.388   1.307   5.301 -0.1204  0.0283  0.0209
 5451SOL    HW117569   2.417   1.398   5.296 -0.8689  0.2146 -1.4603
 5451SOL    HW217570   2.342   1.292   5.219 -0.5152 -1.5250  0.4930
 5452SOL     OW17571   3.666   1.179   5.215 -0.2733 -0.2839 -0.0418
 5452SOL    HW117572   3.732   1.172   5.145 -2.4119 -0.1986 -2.1973
 5452SOL    HW217573   3.651   1.273   5.223 -1.5559 -0.3775 -1.0497
 5453SOL     OW17574   2.963   0.789   4.579 -0.1107 -0.1648  0.2051
 5453SOL    HW117575   2.987   0.755   4.665  0.1245 -0.9044 -0.1374
 5453SOL    HW217576   2.884   0.739   4.555 -0.2671  0.1480  0.0575
 5454SOL     OW17577   2.457   8.818   4.626  0.4357 -0.6305 -0.1410
 5454SOL    HW117578   2.527   8.759   4.600  1.8641  1.1305 -0.5121
 5454SOL    HW217579   2.425   8.855   4.544  0.8667  0.4891  0.1714
 5455SOL     OW17580   2.843   1.372   4.333 -0.3054  0.5051 -0.2151
 5455SOL    HW117581   2.774   1.307   4.348 -2.8368  3.1625  0.5958
 5455SOL    HW217582   2.844   1.385   4.238  1.5614 -1.9186 -0.6208
 5456SOL     OW17583   3.898   0.467   5.385  0.2074 -0.4212  0.1094
 5456SOL    HW117584   3.959   0.526   5.341  0.0667  0.0084  0.4801
 5456SOL    HW217585   3.863   0.412   5.315  1.7937 -1.3965  0.0321
 5457SOL     OW17586   2.112   1.319   4.237 -1.0337 -0.2734 -0.3372
 5457SOL    HW117587   2.200   1.304   4.271  0.1337  0.7465 -2.6852
 5457SOL    HW217588   2.091   1.408   4.264 -1.1117 -0.3110 -0.2724
 5458SOL     OW17589   2.195   0.981   5.404 -0.5796  0.3689 -0.6913
 5458SOL    HW117590   2.261   1.005   5.339  1.1263  1.8397  1.4462
 5458SOL    HW217591   2.236   0.910   5.454 -0.5990  1.2867  0.6538
 5459SOL     OW17592   2.793   0.535   5.506 -0.5224 -0.4730  0.3466
 5459SOL    HW117593   2.704   0.523   5.472 -0.0425  0.3023 -1.2999
 5459SOL    HW217594   2.787   0.511   5.598 -2.5633  0.0933  0.4099
 5460SOL     OW17595   2.086   0.409   3.273  0.3327  0.3402  0.2028
 5460SOL    HW117596   2.105   0.366   3.190  0.3373 -0.5554  0.6609
 5460SOL    HW217597   2.121   0.498   3.262  0.5677  0.1506 -0.6530
 5461SOL     OW17598   3.177   0.621   4.972 -0.4152  0.6736  0.1437
 5461SOL    HW117599   3.229   0.675   5.031 -0.4854  0.6535  0.2245
 5461SOL    HW217600   3.197   0.531   4.998 -0.0974  0.6513 -0.1627
 5462SOL     OW17601   1.961   0.046   3.629  0.2000 -0.5262 -0.0033
 5462SOL    HW117602   1.961   0.076   3.539  2.3523 -2.0695 -0.5988
 5462SOL    HW217603   2.034   0.091   3.670  0.1388 -0.9275  0.5698
 5463SOL     OW17604   3.279   1.376   3.738 -0.2143  0.0405 -0.2280
 5463SOL    HW117605   3.241   1.453   3.780 -0.1655 -0.7473  1.3431
 5463SOL    HW217606   3.242   1.302   3.787  0.0013 -0.9264 -1.4776
 5464SOL     OW17607   2.381   1.009   5.711 -0.5175  0.2556 -0.1879
 5464SOL    HW117608   2.286   1.008   5.718 -0.5162 -1.3045  0.0088
 5464SOL    HW217609   2.398   1.021   5.617 -0.8975  0.6233 -0.2127
 5465SOL     OW17610   3.477   1.875   5.108  0.5789 -0.0721  0.3438
 5465SOL    HW117611   3.485   1.913   5.020 -0.2796 -1.8161 -0.5387
 5465SOL    HW217612   3.494   1.948   5.167  0.2149  1.3765 -1.2594
 5466SOL     OW17613   2.625   0.716   5.910  0.0714  0.1688  0.4425
 5466SOL    HW117614   2.643   0.689   6.000  0.1147  0.3604  0.4918
 5466SOL    HW217615   2.688   0.666   5.857 -1.3305 -1.5426  0.3012
 5467SOL     OW17616   3.456   0.994   5.310  0.1502  0.9535  0.3212
 5467SOL    HW117617   3.515   1.053   5.265  0.7465  0.0848 -0.0666
 5467SOL    HW217618   3.421   1.045   5.383  1.9579  1.2772  1.0149
 5468SOL     OW17619   2.398   1.793   5.857  0.0822  0.1585  0.0969
 5468SOL    HW117620   2.477   1.845   5.842 -0.4564  0.5708 -1.6041
 5468SOL    HW217621   2.355   1.791   5.771 -0.2389 -2.5949  0.2374
 5469SOL     OW17622   3.377   0.803   5.100  0.2560 -0.0169  0.0691
 5469SOL    HW117623   3.379   0.863   5.174 -0.6519  1.0078 -0.7017
 5469SOL    HW217624   3.468   0.797   5.071  0.7899 -1.1793  1.8030
 5470SOL     OW17625   3.339   0.521   4.420 -0.2203 -0.0022 -0.2193
 5470SOL    HW117626   3.332   0.596   4.479  0.8574 -0.3213  0.3268
 5470SOL    HW217627   3.320   0.558   4.333  0.3755  0.9234  0.0300
 5471SOL     OW17628   2.407   0.628   4.149 -0.2512  0.3399  0.1834
 5471SOL    HW117629   2.448   0.680   4.219 -0.8755 -0.4284  1.1403
 5471SOL    HW217630   2.454   0.654   4.069  1.8821 -0.2462  1.1748
 5472SOL     OW17631   3.396   0.520   5.670  0.0049 -0.1463 -0.1516
 5472SOL    HW117632   3.444   0.458   5.616 -0.1885 -0.5796  0.1689
 5472SOL    HW217633   3.309   0.524   5.631 -0.4970 -1.3294  0.7751
 5473SOL     OW17634   3.633   0.801   5.354  0.9837 -0.2766  0.4855
 5473SOL    HW117635   3.621   0.776   5.446  1.4643 -1.8341  0.1618
 5473SOL    HW217636   3.574   0.875   5.341  1.1184  0.1629  2.1221
 5474SOL     OW17637   2.978   1.487   4.080  0.3481 -0.0911  0.3559
 5474SOL    HW117638   3.047   1.423   4.065  0.1880 -0.0223 -0.7600
 5474SOL    HW217639   3.010   1.568   4.040 -0.2562  0.0135  0.0644
 5475SOL     OW17640   2.346   1.199   4.315  0.1133 -0.0929 -0.6558
 5475SOL    HW117641   2.401   1.150   4.254 -0.4691  1.4806 -2.5850
 5475SOL    HW217642   2.359   1.157   4.400  1.5659 -1.9156 -1.7171
 5476SOL     OW17643   2.663   0.718   4.770 -0.7045 -0.2779  0.2705
 5476SOL    HW117644   2.622   0.644   4.815 -0.1606  0.1135  1.4494
 5476SOL    HW217645   2.740   0.738   4.823  0.2464 -0.1015 -1.1153
 5477SOL     OW17646   2.968   0.799   3.602  0.1544  0.2077  0.6083
 5477SOL    HW117647   2.962   0.830   3.692 -0.0275  0.6177  0.4579
 5477SOL    HW217648   3.054   0.828   3.572 -0.4726  1.6187  0.0905
 5478SOL     OW17649   4.260   1.126   4.760 -0.0947 -0.4567  0.0854
 5478SOL    HW117650   4.215   1.095   4.681  1.3237  0.3232 -1.0604
 5478SOL    HW217651   4.190   1.164   4.813 -0.9607 -0.2042 -1.1855
 5479SOL     OW17652   2.085   1.274   5.447 -0.5765 -0.1238 -0.3752
 5479SOL    HW117653   2.084   1.306   5.357  0.9290 -0.6959 -0.6229
 5479SOL    HW217654   2.103   1.181   5.439 -0.7123 -0.2373  0.5215
 5480SOL     OW17655   2.395   1.032   4.539  0.0696 -0.0684  0.6033
 5480SOL    HW117656   2.487   1.033   4.565  0.7446 -0.9081 -1.5571
 5480SOL    HW217657   2.370   0.940   4.546  0.0644 -0.2063 -0.8488
 5481SOL     OW17658   2.533   1.032   5.477 -0.3936  0.3779 -0.5042
 5481SOL    HW117659   2.534   1.098   5.407 -1.3381  0.2090 -0.6908
 5481SOL    HW217660   2.618   1.041   5.519 -0.8729  2.4178  0.1422
 5482SOL     OW17661   3.518   0.593   5.250  0.4816  0.4388 -1.1806
 5482SOL    HW117662   3.519   0.598   5.154  0.5313  1.3626 -1.1347
 5482SOL    HW217663   3.571   0.667   5.279  0.6088  0.0649 -0.4375
 5483SOL     OW17664   1.921   0.382   3.559 -0.0764  0.6754 -0.1124
 5483SOL    HW117665   1.911   0.302   3.507 -0.0996  0.5627  0.0653
 5483SOL    HW217666   1.845   0.435   3.536 -0.1331  0.5880 -0.1262
 5484SOL     OW17667   4.056   1.675   5.066 -0.2944 -0.0148  0.0475
 5484SOL    HW117668   4.047   1.580   5.076  0.7512 -0.1606 -0.3255
 5484SOL    HW217669   3.966   1.707   5.073 -0.6809 -1.0364  0.0859
 5485SOL     OW17670   1.970   0.569   4.871 -0.2292  0.0521  0.1627
 5485SOL    HW117671   1.882   0.564   4.907 -0.2818  0.2266  0.0618
 5485SOL    HW217672   2.025   0.598   4.944 -0.1571 -0.6280  0.3802
 5486SOL     OW17673   2.982   1.638   4.415 -0.2329 -0.1245 -0.1273
 5486SOL    HW117674   2.995   1.708   4.351 -1.6078  0.5076  0.2616
 5486SOL    HW217675   2.930   1.572   4.369 -1.4446  0.4455  0.3842
 5487SOL     OW17676   3.524   0.335   4.995  0.0134 -0.8727 -0.4608
 5487SOL    HW117677   3.546   0.276   4.923 -0.6177  1.3292 -2.5939
 5487SOL    HW217678   3.463   0.285   5.049  0.0180 -2.3915 -1.7877
 5488SOL     OW17679   2.773   8.819   4.843  0.3873  0.1511  0.1620
 5488SOL    HW117680   2.743   8.836   4.753  0.5645  2.0494  0.4301
 5488SOL    HW217681   2.722   8.743   4.871 -1.6579  1.1658 -0.6178
 5489SOL     OW17682   3.203   1.132   3.839  0.4090 -0.0904 -0.0280
 5489SOL    HW117683   3.109   1.140   3.823  0.5173  2.1998  0.2432
 5489SOL    HW217684   3.211   1.060   3.901 -0.9957 -1.3894 -1.2621
 5490SOL     OW17685   1.665   1.825   4.886  0.2234 -0.8837 -0.4365
 5490SOL    HW117686   1.655   1.918   4.867  0.6952 -0.5786  0.7362
 5490SOL    HW217687   1.745   1.819   4.938 -1.0156 -1.6323  1.4863
 5491SOL     OW17688   3.454   0.008   4.143 -0.1099 -0.1889 -0.0041
 5491SOL    HW117689   3.444  -0.077   4.099 -0.6231 -0.0631 -0.1347
 5491SOL    HW217690   3.388   0.008   4.212  0.7366 -0.4156  0.8391
 5492SOL     OW17691   3.513   0.649   4.716  0.1028  0.2885  0.0339
 5492SOL    HW117692   3.474   0.718   4.661 -0.0566  0.2358  0.0783
 5492SOL    HW217693   3.437   0.605   4.754  0.2234  0.5482  0.5747
 5493SOL     OW17694   3.580   0.149   4.339 -0.0446  0.0849 -0.1080
 5493SOL    HW117695   3.559   0.101   4.259  0.4489  0.4719 -0.4712
 5493SOL    HW217696   3.602   0.081   4.403 -3.8016 -0.4949  0.7751
 5494SOL     OW17697   2.186   0.910   4.297  0.5615 -0.0921 -0.2596
 5494SOL    HW117698   2.124   0.843   4.328  0.2017  0.0441 -0.6678
 5494SOL    HW217699   2.147   0.993   4.326  0.5699 -0.0094 -0.4820
 5495SOL     OW17700   3.003   1.810   4.202 -0.2394  0.4623  0.4097
 5495SOL    HW117701   3.001   1.797   4.107  2.3694 -2.0966  0.5625
 5495SOL    HW217702   3.032   1.901   4.212 -2.2826  1.3593 -1.1615
 5496SOL     OW17703   1.926   0.564   5.680 -0.3312 -0.2730 -0.7195
 5496SOL    HW117704   1.934   0.548   5.586  2.4481 -1.1485 -0.4149
 5496SOL    HW217705   1.999   0.515   5.719 -0.3377  1.4970  1.7263
 5497SOL     OW17706   2.239   0.702   6.695  0.0368 -0.6750  0.1686
 5497SOL    HW117707   2.162   0.653   6.665  0.2180 -0.8417 -0.0225
 5497SOL    HW217708   2.237   0.783   6.643 -0.7262 -0.0927  1.0566
 5498SOL     OW17709   1.735   0.464   6.519  0.5340 -0.1652 -0.1975
 5498SOL    HW117710   1.744   0.371   6.497 -1.5240 -0.4064 -0.1944
 5498SOL    HW217711   1.725   0.508   6.435  2.2777  0.2075 -0.2565
 5499SOL     OW17712   2.304   1.503   6.811  0.0863 -0.0254 -1.0144
 5499SOL    HW117713   2.319   1.572   6.747  0.6850 -0.1713 -1.0356
 5499SOL    HW217714   2.360   1.431   6.782  0.5559 -0.0048 -0.1863
 5500SOL     OW17715   3.224   1.887   6.456 -0.1468 -0.1509 -0.1176
 5500SOL    HW117716   3.190   1.806   6.494  0.1490 -0.3393 -0.2478
 5500SOL    HW217717   3.194   1.886   6.366  0.0293 -0.2185 -0.1767
 5501SOL     OW17718   3.143   1.148   6.527 -0.2382 -0.0833 -0.0782
 5501SOL    HW117719   3.080   1.220   6.535  0.3887  0.4569  0.1014
 5501SOL    HW217720   3.198   1.172   6.452 -0.2787 -0.5809 -0.2729
 5502SOL     OW17721   3.766   0.546   5.605  0.3018 -0.0705 -0.5500
 5502SOL    HW117722   3.819   0.502   5.538  1.7596  0.7926 -0.0240
 5502SOL    HW217723   3.774   0.639   5.584  0.4316  0.1870  0.5614
 5503SOL     OW17724   2.057   1.247   6.937  0.2673 -0.3060 -0.2292
 5503SOL    HW117725   2.013   1.201   6.866 -0.1843  1.3443 -1.0636
 5503SOL    HW217726   1.992   1.250   7.008 -1.0535  2.0541 -1.4238
 5504SOL     OW17727   2.886   1.148   7.404 -0.8266 -0.1098 -0.3065
 5504SOL    HW117728   2.817   1.085   7.423 -1.1485  0.3971  0.2285
 5504SOL    HW217729   2.840   1.228   7.380 -0.4318  0.4013  0.6028
 5505SOL     OW17730   2.951   0.813   6.227 -0.4386  0.0656 -0.4016
 5505SOL    HW117731   2.881   0.756   6.258 -1.4329  0.9437 -0.9958
 5505SOL    HW217732   2.938   0.895   6.275  0.0351  0.3217 -0.7007
 5506SOL     OW17733   2.692   1.686   7.304 -0.1903  0.3827 -0.0077
 5506SOL    HW117734   2.704   1.781   7.302  0.0189  0.3903  1.0520
 5506SOL    HW217735   2.601   1.673   7.281 -1.1923  1.0984  3.0526
 5507SOL     OW17736   2.120   1.697   6.440  0.2931 -0.1424 -0.1941
 5507SOL    HW117737   2.051   1.649   6.485  0.1885  0.8778  0.7714
 5507SOL    HW217738   2.110   1.673   6.348  0.3803 -2.1186  0.2635
 5508SOL     OW17739   3.052   1.778   6.775 -0.2697 -0.2622  0.3724
 5508SOL    HW117740   3.105   1.700   6.790 -1.1333 -0.5481  2.1712
 5508SOL    HW217741   2.996   1.754   6.700  0.5325 -0.7798 -0.0765
 5509SOL     OW17742   2.315   0.771   7.429  0.3020 -0.4492  0.3528
 5509SOL    HW117743   2.241   0.716   7.403 -0.5223  0.0874  1.5080
 5509SOL    HW217744   2.327   0.752   7.522  1.2573 -0.0969  0.3079
 5510SOL     OW17745   3.858   0.577   6.248 -0.2005  0.7383 -0.0941
 5510SOL    HW117746   3.917   0.642   6.286 -0.1008  0.7998 -0.3523
 5510SOL    HW217747   3.819   0.533   6.323 -0.1493  0.9897  0.0804
 5511SOL     OW17748   2.352   1.944   6.255 -0.1202  0.0157  0.3808
 5511SOL    HW117749   2.385   1.854   6.262  0.2085  0.2328  1.9437
 5511SOL    HW217750   2.275   1.936   6.199  0.6747 -1.0186 -0.6205
 5512SOL     OW17751   2.925   1.737   7.111 -0.3864  0.6455  0.0216
 5512SOL    HW117752   2.918   1.829   7.087 -2.5923  0.8125  1.0638
 5512SOL    HW217753   2.974   1.739   7.194  1.1278  0.6634 -0.8235
 5513SOL     OW17754   2.296   1.782   6.681  0.2675  0.5725 -0.4369
 5513SOL    HW117755   2.245   1.747   6.608 -0.3774 -0.1321  0.3337
 5513SOL    HW217756   2.380   1.806   6.642 -0.2432  0.6821 -1.5016
 5514SOL     OW17757   2.384   1.341   6.456 -0.2904  0.3309  0.2304
 5514SOL    HW117758   2.402   1.252   6.426  0.2351  0.5180 -0.0061
 5514SOL    HW217759   2.364   1.390   6.376  0.0598  0.5779  0.2916
 5515SOL     OW17760   2.277   1.862   7.183 -0.3349 -0.5265 -0.3278
 5515SOL    HW117761   2.320   1.816   7.111  1.5501  0.4393  0.1182
 5515SOL    HW217762   2.340   1.928   7.210 -1.5942  0.0854  1.2710
 5516SOL     OW17763   2.910   1.060   5.891  0.2606 -0.7074 -0.5160
 5516SOL    HW117764   2.854   1.007   5.834  1.0698 -1.7707 -0.3421
 5516SOL    HW217765   2.981   1.002   5.916  0.5802  0.1337  0.5911
 5517SOL     OW17766   3.658   0.173   6.862 -0.2069  0.3115 -0.2262
 5517SOL    HW117767   3.692   0.167   6.951  1.5306  0.4149 -0.8444
 5517SOL    HW217768   3.576   0.124   6.864 -0.7066  1.1552  1.6503
 5518SOL     OW17769   2.113   1.016   5.719 -0.9552  0.1933  0.0434
 5518SOL    HW117770   2.032   1.055   5.684 -1.2292  0.3669  0.8606
 5518SOL    HW217771   2.083   0.946   5.776 -0.4990 -0.2129 -0.2080
 5519SOL     OW17772   3.575   1.894   6.219  0.1354 -0.0896 -0.4716
 5519SOL    HW117773   3.612   1.944   6.292  0.3479 -1.6810  0.5833
 5519SOL    HW217774   3.586   1.950   6.143  1.1541  1.0844  0.4970
 5520SOL     OW17775   1.988   1.369   5.735 -0.0024 -0.2188 -0.2587
 5520SOL    HW117776   1.969   1.458   5.703 -0.7181 -0.2959 -0.0722
 5520SOL    HW217777   1.998   1.317   5.656  2.2556  0.3639 -0.4274
 5521SOL     OW17778   3.624   0.865   6.196 -0.2069 -0.3222  0.2514
 5521SOL    HW117779   3.629   0.897   6.106  1.7332 -0.9307  0.1062
 5521SOL    HW217780   3.587   0.938   6.245 -0.4706  0.3326 -0.8827
 5522SOL     OW17781   3.246   1.507   6.313 -0.4716 -0.6359 -0.3265
 5522SOL    HW117782   3.316   1.442   6.305  1.8685  1.7326 -0.1541
 5522SOL    HW217783   3.285   1.589   6.282 -1.8485  1.6537  3.3488
 5523SOL     OW17784   2.229   0.507   6.917 -0.3645 -0.2915  0.1334
 5523SOL    HW117785   2.254   0.573   6.852 -0.9159  0.5841  0.7777
 5523SOL    HW217786   2.156   0.460   6.876  1.2013 -1.7926 -1.0939
 5524SOL     OW17787   3.059   1.453   5.911 -0.3689 -0.2838 -0.0547
 5524SOL    HW117788   2.986   1.507   5.942 -0.7237 -0.9984  0.3924
 5524SOL    HW217789   3.088   1.495   5.831  1.3240  2.3064  1.7685
 5525SOL     OW17790   3.507   1.689   7.030  0.5584 -0.9144  0.0295
 5525SOL    HW117791   3.531   1.625   7.097 -0.5093  0.0377  1.3855
 5525SOL    HW217792   3.475   1.636   6.957 -0.3619 -1.9700  1.1397
 5526SOL     OW17793   2.684   0.147   6.139 -0.2941  0.0956  0.0832
 5526SOL    HW117794   2.662   0.107   6.055 -2.8685  1.0932  0.1817
 5526SOL    HW217795   2.713   0.236   6.116  1.0583 -0.3062  0.1547
 5527SOL     OW17796   1.874   1.413   7.189 -0.6027 -0.6243 -0.2538
 5527SOL    HW117797   1.875   1.440   7.097  2.6964  1.0999  0.1344
 5527SOL    HW217798   1.857   1.493   7.238  1.0247 -0.8180  0.7029
 5528SOL     OW17799   3.206   0.930   5.686  0.1663  0.2728  0.7457
 5528SOL    HW117800   3.178   1.016   5.717 -0.0591 -0.0939  1.5853
 5528SOL    HW217801   3.132   0.872   5.708 -0.0745  0.0303 -0.6404
 5529SOL     OW17802   3.109   2.213   7.241  0.2013  0.2336 -0.0137
 5529SOL    HW117803   3.130   2.267   7.317 -0.1047 -1.1571  1.1019
 5529SOL    HW217804   3.193   2.180   7.211  0.2890  0.5183 -0.0914
 5530SOL     OW17805   1.725   8.782   7.467  0.3836 -0.5570  0.3958
 5530SOL    HW117806   1.746   8.874   7.480  2.6289 -0.7501 -1.2576
 5530SOL    HW217807   1.629   8.779   7.467  0.2415  1.8565 -0.1245
 5531SOL     OW17808   3.412   1.877   6.722  0.5848 -0.0691  0.2702
 5531SOL    HW117809   3.412   1.932   6.800  0.6511 -1.7652  1.5219
 5531SOL    HW217810   3.328   1.894   6.680  0.7751  1.2586  0.4009
 5532SOL     OW17811   3.764   2.081   6.103 -0.1589 -0.0885  0.0902
 5532SOL    HW117812   3.817   2.094   6.181 -0.6773  1.3168  0.2306
 5532SOL    HW217813   3.828   2.059   6.035  0.4559  0.1457  0.5769
 5533SOL     OW17814   2.375   0.924   6.494  0.0035  0.0024  0.2276
 5533SOL    HW117815   2.386   0.964   6.408  2.7297 -2.0248 -0.4953
 5533SOL    HW217816   2.440   0.966   6.549 -0.9567  0.4721  1.0418
 5534SOL     OW17817   3.075   0.325   6.771 -0.3012  0.3184 -0.1672
 5534SOL    HW117818   2.982   0.345   6.766 -0.5505 -0.4991  0.7841
 5534SOL    HW217819   3.119   0.408   6.751 -1.2468  0.9398  0.2680
 5535SOL     OW17820   3.304   1.733   6.154 -0.5411 -0.2201 -0.1328
 5535SOL    HW117821   3.384   1.785   6.165 -0.1512 -0.9826  0.8843
 5535SOL    HW217822   3.257   1.775   6.082  0.6124  0.4469 -0.5203
 5536SOL     OW17823   2.865   0.708   6.915  0.1447 -0.0315  0.0098
 5536SOL    HW117824   2.881   0.764   6.991 -1.0029 -1.6185  1.4913
 5536SOL    HW217825   2.947   0.662   6.901  0.2547  0.0081  0.5222
 5537SOL     OW17826   3.418   0.698   6.647  0.0863 -0.2862 -0.4119
 5537SOL    HW117827   3.395   0.741   6.729  0.4143 -0.3023 -0.3076
 5537SOL    HW217828   3.349   0.722   6.586 -1.1128 -1.6803  0.3298
 5538SOL     OW17829   3.109   1.212   6.825  0.7254 -0.0598  0.2242
 5538SOL    HW117830   3.052   1.139   6.800  3.2096 -2.1046  0.0070
 5538SOL    HW217831   3.158   1.232   6.746  1.6976  0.2191  0.8721
 5539SOL     OW17832   3.153   0.339   6.381  0.0845  0.1827 -0.1350
 5539SOL    HW117833   3.196   0.425   6.379  1.0150 -0.2855 -0.7454
 5539SOL    HW217834   3.197   0.291   6.451 -0.9689  0.4547  0.7445
 5540SOL     OW17835   3.149   0.626   6.363 -0.0129 -0.0259  0.2444
 5540SOL    HW117836   3.213   0.697   6.356 -0.8943  0.6553 -1.3114
 5540SOL    HW217837   3.077   0.652   6.307 -0.8013 -1.7170  0.3986
 5541SOL     OW17838   1.528   0.917   6.709  0.1398  0.0185 -0.0362
 5541SOL    HW117839   1.592   0.986   6.726 -0.5031  0.2239  1.7889
 5541SOL    HW217840   1.526   0.909   6.614  1.6658  1.1372 -0.2007
 5542SOL     OW17841   2.135   1.977   7.387  0.1497  0.1801  0.3303
 5542SOL    HW117842   2.165   1.914   7.322  1.0406  0.5562  0.3575
 5542SOL    HW217843   2.189   2.055   7.371  0.1866  0.3733  1.3337
 5543SOL     OW17844   2.985   0.728   5.601  0.1699  0.1750  0.2700
 5543SOL    HW117845   2.992   0.801   5.540  0.3918 -0.5157 -0.5420
 5543SOL    HW217846   2.925   0.667   5.559  1.0016 -0.7028  0.3228
 5544SOL     OW17847   3.620   0.407   7.270 -0.2312 -0.3467  0.4566
 5544SOL    HW117848   3.673   0.476   7.309  0.4019 -0.3150 -0.4373
 5544SOL    HW217849   3.682   0.335   7.257 -0.7893 -0.9335  0.9721
 5545SOL     OW17850   3.519   1.631   6.511 -0.0816  0.0021  0.1178
 5545SOL    HW117851   3.489   1.700   6.452 -1.6737  0.2660  1.1859
 5545SOL    HW217852   3.594   1.669   6.557  0.5172  0.1571 -0.9474
 5546SOL     OW17853   2.679   0.078   6.749  0.0414  0.2061  0.2805
 5546SOL    HW117854   2.590   0.087   6.716  0.1790  0.1509 -0.1128
 5546SOL    HW217855   2.669   0.032   6.832 -0.4617  1.8787  1.1929
 5547SOL     OW17856   2.669   1.919   5.934 -0.4594 -0.5106  0.2064
 5547SOL    HW117857   2.672   2.012   5.908  0.8386  0.2823  2.8323
 5547SOL    HW217858   2.643   1.920   6.026  1.2064 -2.5900  0.7970
 5548SOL     OW17859   1.968   1.956   6.730  0.3294 -0.4288  0.8718
 5548SOL    HW117860   1.943   2.042   6.763 -0.4971 -0.0839 -0.5760
 5548SOL    HW217861   2.058   1.944   6.762  1.1551  1.7728 -0.3944
 5549SOL     OW17862   3.859   1.154   6.114  0.0110 -0.2701  0.0130
 5549SOL    HW117863   3.932   1.214   6.102 -0.1898 -0.2038 -1.0000
 5549SOL    HW217864   3.784   1.198   6.074 -0.4436 -0.5944  0.4982
 5550SOL     OW17865   3.443   2.009   6.980  0.1667 -0.2396 -0.3731
 5550SOL    HW117866   3.424   2.053   7.063 -1.1473  0.3186 -0.9441
 5550SOL    HW217867   3.471   1.921   7.005  2.3424  0.7142  0.7634
 5551SOL     OW17868   2.279   0.759   6.134 -0.5173  0.4568 -0.3181
 5551SOL    HW117869   2.273   0.729   6.044 -3.4712  0.9514 -0.3795
 5551SOL    HW217870   2.356   0.816   6.136  0.8656 -1.2193 -1.9430
 5552SOL     OW17871   2.876   1.090   6.745 -0.4194  0.1630  0.0498
 5552SOL    HW117872   2.795   1.099   6.796  0.2586  1.0953  1.0154
 5552SOL    HW217873   2.866   1.153   6.673  0.1251  1.5725  1.1459
 5553SOL     OW17874   2.419   1.531   7.193  0.4641 -0.2038  0.4332
 5553SOL    HW117875   2.473   1.515   7.115 -0.0437 -0.2587  0.0883
 5553SOL    HW217876   2.360   1.456   7.198  0.2226 -0.0016  0.6419
 5554SOL     OW17877   2.911   1.840   5.808 -0.0217 -0.2803 -0.2232
 5554SOL    HW117878   2.825   1.871   5.836 -0.3666 -1.5288  0.1986
 5554SOL    HW217879   2.899   1.817   5.715  0.7015  2.3749 -1.0598
 5555SOL     OW17880   1.782   0.182   7.552 -0.0048 -0.2540 -0.6642
 5555SOL    HW117881   1.821   0.256   7.506 -2.8493  1.6821 -0.2325
 5555SOL    HW217882   1.737   0.222   7.627  0.8549 -2.8100  1.3990
 5556SOL     OW17883   3.582   1.794   5.699  0.2341  0.3196 -0.3512
 5556SOL    HW117884   3.633   1.782   5.779 -0.2496  2.2690  0.3067
 5556SOL    HW217885   3.549   1.884   5.705 -3.6874 -0.9465 -0.5189
 5557SOL     OW17886   2.399   1.523   5.959  0.0704  0.0410  0.4554
 5557SOL    HW117887   2.370   1.462   5.891 -0.0218  0.4825  0.0949
 5557SOL    HW217888   2.386   1.609   5.920 -0.5632  0.3157  1.2699
 5558SOL     OW17889   3.348   0.687   6.030  0.3065  0.5939 -0.2205
 5558SOL    HW117890   3.259   0.697   5.996  0.0984 -2.2400 -0.8017
 5558SOL    HW217891   3.400   0.750   5.980 -0.8220 -0.1337 -2.4612
 5559SOL     OW17892   1.759   1.802   6.775  0.0098 -0.5118 -0.2816
 5559SOL    HW117893   1.705   1.800   6.695 -1.1014  2.7755  0.2133
 5559SOL    HW217894   1.836   1.854   6.750 -0.0131 -0.0563  0.5675
 5560SOL     OW17895   2.617   2.006   6.213  0.0167 -0.3853 -0.3432
 5560SOL    HW117896   2.627   2.090   6.259 -0.4070 -0.8247  0.5708
 5560SOL    HW217897   2.530   1.976   6.238 -0.1405 -0.7408 -1.2838
 5561SOL     OW17898   2.107   0.907   6.294  0.0282 -0.6975 -0.0859
 5561SOL    HW117899   2.165   0.851   6.243  0.8608  0.0173  0.0611
 5561SOL    HW217900   2.020   0.870   6.280  0.3497 -1.0038 -1.3515
 5562SOL     OW17901   3.193   0.967   7.313  0.4006  0.2623  0.1009
 5562SOL    HW117902   3.254   0.972   7.387 -1.3731  1.4492  1.6006
 5562SOL    HW217903   3.175   1.059   7.292 -1.6854 -0.0182  0.4752
 5563SOL     OW17904   2.442   0.490   6.110 -0.0496 -0.4843 -0.2931
 5563SOL    HW117905   2.352   0.518   6.092  0.4731  1.2469 -0.3749
 5563SOL    HW217906   2.482   0.565   6.154  0.9893 -1.7176  0.9538
 5564SOL     OW17907   2.611   0.306   7.695  0.0856  0.9275  0.2371
 5564SOL    HW117908   2.629   0.356   7.616 -2.1354  1.7631  0.1783
 5564SOL    HW217909   2.589   0.373   7.761  1.1582  0.2131  1.3656
 5565SOL     OW17910   2.555   1.490   6.952  0.4633 -0.4297 -0.2735
 5565SOL    HW117911   2.534   1.447   6.869 -1.2507  0.5471 -0.3929
 5565SOL    HW217912   2.647   1.516   6.943  0.5011 -0.9463 -1.5846
 5566SOL     OW17913   3.139   0.767   6.609 -0.1001 -0.2274 -0.1282
 5566SOL    HW117914   3.055   0.789   6.649 -0.0983 -0.0124 -0.2377
 5566SOL    HW217915   3.116   0.714   6.533 -0.0853 -0.9286  0.3422
 5567SOL     OW17916   2.960   1.736   6.515 -0.0093 -0.3563  0.0596
 5567SOL    HW117917   2.894   1.804   6.505  0.2284 -0.3176 -1.4981
 5567SOL    HW217918   2.953   1.683   6.435  0.7941 -1.2718  0.5706
 5568SOL     OW17919   2.782   0.338   6.738 -0.0483  0.0980 -0.2755
 5568SOL    HW117920   2.762   0.389   6.816 -1.2724  1.1079 -1.2006
 5568SOL    HW217921   2.759   0.248   6.761  4.8717 -0.7903  2.4128
 5569SOL     OW17922   2.711   0.422   6.093 -0.3569 -0.1416 -0.2859
 5569SOL    HW117923   2.618   0.444   6.104  0.2120  2.4316  0.0030
 5569SOL    HW217924   2.755   0.470   6.162  1.4023  0.5133 -1.7921
 5570SOL     OW17925   3.054   1.464   4.945 -0.5114 -0.3486 -0.0870
 5570SOL    HW117926   3.069   1.559   4.943 -0.3770 -0.3454 -2.2857
 5570SOL    HW217927   2.986   1.451   5.011 -0.7421  1.3142  0.0496
 5571SOL     OW17928   2.092   0.493   5.999 -0.1073  0.2094 -0.5573
 5571SOL    HW117929   2.112   0.431   5.930  0.1484 -0.3880  0.0402
 5571SOL    HW217930   2.015   0.456   6.043 -2.0588  1.9901 -2.2326
 5572SOL     OW17931   2.965   0.127   6.381  0.3323 -0.5204 -0.2196
 5572SOL    HW117932   2.927   0.150   6.296  0.6087 -0.7941 -0.4172
 5572SOL    HW217933   2.975   0.211   6.426  0.5053 -0.3417 -0.5879
 5573SOL     OW17934   3.310   0.785   6.901  0.0035  0.1007 -0.4229
 5573SOL    HW117935   3.238   0.821   6.952  1.0307  0.1818  1.0486
 5573SOL    HW217936   3.374   0.756   6.967  1.5702  0.5832 -1.6687
 5574SOL     OW17937   2.812   1.621   5.941 -0.1988  0.0073 -0.0647
 5574SOL    HW117938   2.820   1.691   5.876 -1.2317 -0.7140 -1.0041
 5574SOL    HW217939   2.832   1.664   6.025  0.8120  1.0322 -0.7997
 5575SOL     OW17940   2.771   1.060   6.338  0.1081 -0.3821 -0.0437
 5575SOL    HW117941   2.714   1.131   6.310  0.6333 -0.5835 -1.8011
 5575SOL    HW217942   2.717   1.006   6.396 -0.2371  1.5101  1.4796
 5576SOL     OW17943   2.699   2.206   5.895  0.2208  0.4209 -0.4598
 5576SOL    HW117944   2.706   2.280   5.956  0.4001 -0.8664  1.1661
 5576SOL    HW217945   2.775   2.214   5.838 -1.0711  2.8573 -1.9719
 5577SOL     OW17946   3.131   0.490   5.536 -0.3861  0.1408  0.2375
 5577SOL    HW117947   3.146   0.484   5.441 -2.4385  1.8816 -0.2784
 5577SOL    HW217948   3.115   0.583   5.551 -2.1752 -0.4025  1.9467
 5578SOL     OW17949   1.696   0.572   7.028 -0.1972 -0.4669  0.6023
 5578SOL    HW117950   1.712   0.570   6.934  1.6059  1.6579  0.7883
 5578SOL    HW217951   1.620   0.628   7.039  0.8236  1.0119  0.4658
 5579SOL     OW17952   2.907   0.484   7.244 -0.0801 -0.3868  0.2596
 5579SOL    HW117953   2.988   0.479   7.192 -1.2862  1.8826 -2.0959
 5579SOL    HW217954   2.851   0.416   7.207 -0.1994 -0.1394 -0.0230
 5580SOL     OW17955   2.798   0.418   6.486  0.0157  0.1763  0.1906
 5580SOL    HW117956   2.728   0.362   6.453 -0.2028 -0.0690  1.0669
 5580SOL    HW217957   2.815   0.387   6.575 -0.1619  1.5353  0.7262
 5581SOL     OW17958   2.538   0.016   6.397 -0.9539  0.6450  0.2919
 5581SOL    HW117959   2.630   0.000   6.419 -0.5075 -0.8940 -2.2596
 5581SOL    HW217960   2.527   0.111   6.408  1.0245  0.9219  0.3138
 5582SOL     OW17961   2.862   1.278   6.553 -0.4136  0.1464  0.2164
 5582SOL    HW117962   2.774   1.310   6.571 -0.8325 -1.0314  0.3354
 5582SOL    HW217963   2.877   1.300   6.461 -0.3436  1.4345  0.5208
 5583SOL     OW17964   3.439   0.393   6.580  0.0975 -0.7389  0.3772
 5583SOL    HW117965   3.430   0.432   6.667  1.2628  0.4421 -0.0048
 5583SOL    HW217966   3.370   0.327   6.577 -0.7646  0.0415  1.7334
 5584SOL     OW17967   3.646   0.939   5.912 -0.5448 -0.4661  0.0862
 5584SOL    HW117968   3.552   0.952   5.901 -0.2475  1.0372 -1.0649
 5584SOL    HW217969   3.686   0.997   5.846  1.1735 -1.5561  0.1145
 5585SOL     OW17970   2.719   1.358   5.604  0.4650 -0.0132 -0.1809
 5585SOL    HW117971   2.741   1.273   5.566  1.2018  0.5697 -1.1104
 5585SOL    HW217972   2.719   1.343   5.698  3.4903 -0.4571 -0.1555
 5586SOL     OW17973   3.484   1.351   6.354 -0.1233 -0.4566  0.2969
 5586SOL    HW117974   3.463   1.367   6.446 -1.1514  0.1001 -0.0215
 5586SOL    HW217975   3.548   1.419   6.333  2.1381 -2.1382  1.2580
 5587SOL     OW17976   3.398   0.925   5.865 -0.2625  0.1041 -0.6181
 5587SOL    HW117977   3.342   0.917   5.788 -0.1401  0.1370 -0.7120
 5587SOL    HW217978   3.399   1.019   5.884  1.0687  0.3376 -1.6125
 5588SOL     OW17979   2.389   0.646   6.447 -0.6038  0.7454 -0.3617
 5588SOL    HW117980   2.396   0.736   6.481  2.3851  0.2580  0.5741
 5588SOL    HW217981   2.455   0.641   6.378  0.0518 -1.0171  0.3502
 5589SOL     OW17982   3.799   1.313   6.796 -0.0359  0.9502 -0.4240
 5589SOL    HW117983   3.856   1.390   6.797 -0.2366  1.1009  0.4765
 5589SOL    HW217984   3.797   1.283   6.887 -0.5265  0.3017 -0.6386
 5590SOL     OW17985   3.223   1.552   6.827 -0.0049  0.6803 -0.1174
 5590SOL    HW117986   3.283   1.506   6.886 -0.4834 -0.4513 -0.4810
 5590SOL    HW217987   3.246   1.521   6.740  0.6831  2.3234 -0.5668
 5591SOL     OW17988   3.672   1.738   7.276  0.0717 -0.3516 -0.2754
 5591SOL    HW117989   3.710   1.728   7.188  0.9025  1.8419 -0.2134
 5591SOL    HW217990   3.669   1.649   7.310  0.3505 -1.1900 -2.2703
 5592SOL     OW17991   2.681   1.616   6.620  0.2183 -0.1866  0.3060
 5592SOL    HW117992   2.742   1.620   6.547  0.2104 -2.9114  0.0549
 5592SOL    HW217993   2.736   1.624   6.698  0.4314  0.9280  0.0596
 5593SOL     OW17994   2.971   1.438   6.844 -0.6429 -0.3297  0.0872
 5593SOL    HW117995   3.059   1.476   6.849 -0.6000 -0.5247  0.9348
 5593SOL    HW217996   2.985   1.344   6.854 -0.9475 -0.3587  0.2449
 5594SOL     OW17997   2.498   0.225   7.473  0.1016 -0.1783  0.0565
 5594SOL    HW117998   2.493   0.184   7.560  0.5475 -0.8089 -0.2015
 5594SOL    HW217999   2.474   0.316   7.488  0.2826 -0.2518  0.8673
 5595SOL     OW18000   2.700   1.196   7.127  0.9097  0.3159  0.0640
 5595SOL    HW118001   2.719   1.244   7.208  0.9580  1.2904 -0.5065
 5595SOL    HW218002   2.606   1.209   7.114  1.1027  1.1072 -0.6118
 5596SOL     OW18003   3.075   0.887   6.017  0.8617  0.2607  0.0356
 5596SOL    HW118004   3.041   0.863   6.103  0.9298 -2.7142 -0.6432
 5596SOL    HW218005   3.026   0.832   5.956  4.0611 -1.3884 -1.3275
 5597SOL     OW18006   2.185   0.721   7.063 -0.3262 -1.0474  0.1235
 5597SOL    HW118007   2.207   0.633   7.033  0.5744 -1.0731  0.7987
 5597SOL    HW218008   2.250   0.777   7.022 -1.0281 -0.6648 -0.4697
 5598SOL     OW18009   3.100   0.602   6.841 -0.2626  0.0872  0.0404
 5598SOL    HW118010   3.153   0.674   6.806  0.5866  0.7676  2.4858
 5598SOL    HW218011   3.139   0.583   6.926 -1.2407 -2.4843  0.0069
 5599SOL     OW18012   2.037   2.005   6.420 -0.6472 -0.2331 -0.6330
 5599SOL    HW118013   2.028   2.005   6.515 -0.6884  0.7864 -0.6286
 5599SOL    HW218014   2.088   1.926   6.401 -4.3174 -2.9647 -0.1838
 5600SOL     OW18015   2.607   1.269   6.257 -0.1344 -0.3072 -0.5225
 5600SOL    HW118016   2.632   1.251   6.166 -0.2093  0.9529 -0.8024
 5600SOL    HW218017   2.548   1.344   6.252  1.0209  0.7465  0.6699
 5601SOL     OW18018   2.018   0.227   6.607  0.7189  0.5091  0.1061
 5601SOL    HW118019   2.022   0.143   6.562 -0.4092  1.6559 -2.3765
 5601SOL    HW218020   2.071   0.285   6.552  2.2499  1.2637  2.2724
 5602SOL     OW18021   3.402   1.528   5.789 -0.4999  0.3803  0.0031
 5602SOL    HW118022   3.436   1.616   5.805  3.0284 -0.9678  0.7819
 5602SOL    HW218023   3.435   1.475   5.861  0.9257 -2.3573 -2.4690
 5603SOL     OW18024   3.282   2.144   6.547 -0.9068  0.2989 -0.1524
 5603SOL    HW118025   3.209   2.185   6.500 -3.1099 -1.6277  1.3332
 5603SOL    HW218026   3.265   2.050   6.538  1.3989 -0.2150  0.3304
 5604SOL     OW18027   3.975   0.916   6.043 -0.7268  0.3433  0.2036
 5604SOL    HW118028   3.925   0.838   6.067  0.1933 -0.5457 -0.6772
 5604SOL    HW218029   3.915   0.989   6.060 -1.9927 -0.6171  0.0316
 5605SOL     OW18030   2.638   1.874   6.925 -0.2925 -0.1887  0.5306
 5605SOL    HW118031   2.688   1.803   6.885 -1.4537 -1.1511  0.7590
 5605SOL    HW218032   2.585   1.832   6.992 -0.3654  1.0252  1.2661
 5606SOL     OW18033   2.111   1.078   7.255  0.0866  0.4511 -0.0702
 5606SOL    HW118034   2.198   1.070   7.294  0.1572  0.7987 -0.1544
 5606SOL    HW218035   2.053   1.032   7.316  0.3132  0.3101  0.0393
 5607SOL     OW18036   3.733   0.749   6.469 -0.2231 -0.4591  0.5443
 5607SOL    HW118037   3.723   0.769   6.376  0.6583 -2.2760  0.0042
 5607SOL    HW218038   3.748   0.834   6.511 -0.5589  0.3772 -0.9694
 5608SOL     OW18039   3.012   0.554   7.593 -0.3888 -0.5594  0.0331
 5608SOL    HW118040   3.017   0.635   7.543  0.1290 -0.8618 -0.4222
 5608SOL    HW218041   3.067   0.492   7.544  1.3820 -0.4591  1.7459
 5609SOL     OW18042   2.097   0.036   7.694 -0.1605  0.0313  0.2909
 5609SOL    HW118043   2.032   0.001   7.633  2.1071 -0.2576 -2.1029
 5609SOL    HW218044   2.086  -0.017   7.773 -1.5995 -1.1929 -0.6689
 5610SOL     OW18045   2.288   1.165   6.833 -0.1423 -0.0757 -0.1210
 5610SOL    HW118046   2.355   1.187   6.898  0.6188 -1.5063 -0.3890
 5610SOL    HW218047   2.205   1.182   6.878  0.3872  0.0818  0.8180
 5611SOL     OW18048   2.719   0.481   6.953  0.1661  0.6281  0.1987
 5611SOL    HW118049   2.628   0.495   6.925 -0.4793 -0.8640  1.3739
 5611SOL    HW218050   2.761   0.566   6.943 -1.9012  1.8789  1.4772
 5612SOL     OW18051   3.080   0.466   5.956  0.0438  0.5524 -0.2461
 5612SOL    HW118052   3.174   0.479   5.967  0.5392 -1.5103 -1.5036
 5612SOL    HW218053   3.058   0.393   6.014 -0.5322  0.2404 -0.8392
 5613SOL     OW18054   2.161   0.309   7.575 -1.1256 -0.3568  0.2563
 5613SOL    HW118055   2.187   0.230   7.528 -1.0729 -1.3543  1.8706
 5613SOL    HW218056   2.065   0.309   7.571 -1.2080 -1.3234  1.4318
 5614SOL     OW18057   1.906   0.859   6.638 -0.0418 -0.0605  0.1806
 5614SOL    HW118058   1.995   0.893   6.634  0.4509 -1.3214  0.1300
 5614SOL    HW218059   1.851   0.937   6.646  1.0104  0.7747 -0.5163
 5615SOL     OW18060   2.547   1.112   6.615  0.5578 -0.3810  0.2137
 5615SOL    HW118061   2.501   1.186   6.653 -1.7400 -1.4619 -0.2774
 5615SOL    HW218062   2.596   1.074   6.687 -0.2796  0.1367  1.0719
 5616SOL     OW18063   3.815   1.272   7.076  0.7522  0.7319  0.0522
 5616SOL    HW118064   3.856   1.273   7.162 -2.4047  1.1630  1.6940
 5616SOL    HW218065   3.758   1.196   7.077  3.5657 -1.7960 -3.3665
 5617SOL     OW18066   1.965   0.379   6.200 -0.0913  0.0969  0.3017
 5617SOL    HW118067   1.907   0.451   6.227  0.2623  1.0003 -1.2373
 5617SOL    HW218068   2.053   0.416   6.205  0.1297 -0.3679 -0.1057
 5618SOL     OW18069   2.807   0.819   6.666  0.3182  0.0174  0.0569
 5618SOL    HW118070   2.811   0.762   6.743  0.1381 -1.0832 -0.7199
 5618SOL    HW218071   2.786   0.905   6.701 -0.2129 -0.5509  1.1995
 5619SOL     OW18072   3.001   2.071   6.831  0.0894 -0.2519  0.4837
 5619SOL    HW118073   3.038   2.150   6.791 -0.6261  0.5666  1.3688
 5619SOL    HW218074   3.052   1.999   6.794  0.3255  0.5635 -0.8646
 5620SOL     OW18075   3.975   1.079   6.786  0.4269  0.0646  1.0872
 5620SOL    HW118076   4.057   1.105   6.743 -0.8941 -0.5645 -2.1208
 5620SOL    HW218077   3.917   1.154   6.774 -0.2438 -0.4553  1.0205
 5621SOL     OW18078   2.370   1.021   7.345 -0.3392  0.0484 -0.0280
 5621SOL    HW118079   2.342   0.930   7.357 -1.4804  0.5706  1.7294
 5621SOL    HW218080   2.409   1.045   7.430  0.9295  0.8924 -0.8137
 5622SOL     OW18081   2.920   0.496   6.271  0.3656  0.3580 -0.1172
 5622SOL    HW118082   2.873   0.465   6.348  0.8795 -1.5234 -0.5141
 5622SOL    HW218083   3.013   0.484   6.294  0.5705  1.0854 -0.5232
 5623SOL     OW18084   3.269   0.766   5.488  0.3891 -0.0309 -0.0666
 5623SOL    HW118085   3.358   0.745   5.517  0.7608  1.3227 -0.1396
 5623SOL    HW218086   3.237   0.828   5.554 -0.1997  0.0943 -0.4684
 5624SOL     OW18087   2.756   1.875   6.414 -0.2137 -0.3680  0.2047
 5624SOL    HW118088   2.712   1.882   6.329 -1.2930 -1.3080  0.6539
 5624SOL    HW218089   2.785   1.964   6.433 -0.8590  0.0546 -0.6894
 5625SOL     OW18090   2.317   1.122   6.283  0.1160 -0.3872  0.1122
 5625SOL    HW118091   2.290   1.183   6.215 -2.3129 -0.9613  0.4365
 5625SOL    HW218092   2.246   1.058   6.286  0.1982 -0.4659  3.0651
 5626SOL     OW18093   2.140   1.006   6.654  0.0764  0.5399  0.0974
 5626SOL    HW118094   2.211   0.986   6.593 -1.1566  0.6788 -1.4337
 5626SOL    HW218095   2.173   1.080   6.706  1.2796  0.1986 -0.1625
 5627SOL     OW18096   3.003   0.799   7.435  0.0740  0.0594 -0.0203
 5627SOL    HW118097   3.078   0.841   7.394  0.2870  0.5857  0.8759
 5627SOL    HW218098   2.983   0.855   7.510  0.2451 -1.3329  1.0909
 5628SOL     OW18099   3.420   0.520   7.135 -0.1968 -0.0554  1.0950
 5628SOL    HW118100   3.490   0.470   7.178 -1.1072 -0.1943  2.4459
 5628SOL    HW218101   3.455   0.608   7.127  1.0293 -0.6175 -0.3813
 5629SOL     OW18102   1.577   1.255   6.073  0.2213  0.1574  0.3385
 5629SOL    HW118103   1.614   1.283   5.990  0.2605  0.2115  0.3737
 5629SOL    HW218104   1.483   1.260   6.060  0.1652 -1.9482 -0.4255
 5630SOL     OW18105   1.627   2.048   6.490 -0.2766  0.3935 -0.0688
 5630SOL    HW118106   1.691   1.977   6.493  0.7963  1.3593  0.8490
 5630SOL    HW218107   1.578   2.033   6.409  0.4075 -0.9648 -0.2555
 5631SOL     OW18108   2.525   1.403   6.679  0.0647  0.2340 -0.3140
 5631SOL    HW118109   2.578   1.476   6.646  2.1048 -0.7158  0.7388
 5631SOL    HW218110   2.461   1.388   6.609 -0.4539  2.9919 -0.5805
 5632SOL     OW18111   2.349   0.896   6.880 -0.5681  0.6121 -0.3319
 5632SOL    HW118112   2.305   0.981   6.883 -1.8001  0.0031 -0.7004
 5632SOL    HW218113   2.427   0.908   6.934  0.0141  2.3818 -1.4815
 5633SOL     OW18114   1.747   0.632   6.735 -0.6020  0.2264  0.6719
 5633SOL    HW118115   1.741   0.711   6.682 -2.1409 -0.1274  0.2597
 5633SOL    HW218116   1.760   0.561   6.672 -0.3389  0.0270  0.9449
 5634SOL     OW18117   1.958   0.908   7.123 -0.3138  0.4869  0.0983
 5634SOL    HW118118   2.000   0.992   7.139  0.4406 -0.0340  1.0299
 5634SOL    HW218119   2.029   0.851   7.093 -0.8435  0.2108 -0.6700
 5635SOL     OW18120   3.286   1.224   7.038 -0.1070 -0.0660  0.0784
 5635SOL    HW118121   3.242   1.255   7.117  0.7773  2.0570 -0.1928
 5635SOL    HW218122   3.214   1.204   6.978 -0.7666  0.6448  0.6080
 5636SOL     OW18123   2.221   0.404   6.484 -0.0360  0.5583 -0.3226
 5636SOL    HW118124   2.280   0.477   6.503  0.6514  0.8633 -3.0859
 5636SOL    HW218125   2.184   0.425   6.398  0.8736 -2.6947 -1.6952
 5637SOL     OW18126   1.964   1.589   7.430  0.0659  0.0389 -0.3017
 5637SOL    HW118127   1.888   1.604   7.375  1.0677 -0.5082 -1.9173
 5637SOL    HW218128   2.039   1.606   7.373  1.1630 -0.7418  0.8355
 5638SOL     OW18129   2.516   0.629   6.824  0.5175 -0.4528 -0.0114
 5638SOL    HW118130   2.474   0.582   6.751 -0.6949 -0.5789  0.7469
 5638SOL    HW218131   2.476   0.716   6.823 -1.7817 -1.3473  2.2758
 5639SOL     OW18132   2.749   2.080   6.720 -0.1765 -0.5879 -0.0913
 5639SOL    HW118133   2.688   2.030   6.775 -0.0990 -0.0398  0.5088
 5639SOL    HW218134   2.834   2.070   6.764 -0.7862  3.3088  2.4244
 5640SOL     OW18135   2.120   0.579   6.302 -0.0033 -0.2574  0.1859
 5640SOL    HW118136   2.103   0.622   6.386  0.0407  0.9904 -0.4313
 5640SOL    HW218137   2.158   0.647   6.247  0.4085 -1.1825 -0.7119
 5641SOL     OW18138   1.701   0.888   6.997  0.2342 -0.5119 -0.0706
 5641SOL    HW118139   1.721   0.830   6.923 -0.0312  0.2540 -0.7588
 5641SOL    HW218140   1.783   0.894   7.046  1.3279  1.3267 -1.9592
 5642SOL     OW18141   3.510   1.079   6.333  0.0452  0.4167  0.0926
 5642SOL    HW118142   3.533   1.171   6.349 -0.3616  0.7372 -1.0516
 5642SOL    HW218143   3.447   1.082   6.261 -0.2877 -0.7395  0.3099
 5643SOL     OW18144   3.446   1.316   5.490 -0.3896  0.3168  0.4773
 5643SOL    HW118145   3.420   1.340   5.579  1.6010 -0.7213  1.4237
 5643SOL    HW218146   3.541   1.329   5.489 -0.1301 -1.3160 -0.9416
 5644SOL     OW18147   3.830   1.814   6.870 -0.3147 -0.1836  0.5715
 5644SOL    HW118148   3.822   1.736   6.925 -0.7105  0.1955  1.0581
 5644SOL    HW218149   3.921   1.811   6.839  0.0949 -0.1209  1.6875
 5645SOL     OW18150   2.949   1.707   6.182 -0.5831 -0.0114 -0.3956
 5645SOL    HW118151   3.038   1.673   6.195 -0.6287  0.0150 -0.0124
 5645SOL    HW218152   2.953   1.798   6.211 -1.0623 -0.3864  0.9538
 5646SOL     OW18153   2.115   1.343   6.410  0.7011 -0.0801  0.2235
 5646SOL    HW118154   2.183   1.280   6.434 -0.9617 -1.5585  1.3980
 5646SOL    HW218155   2.076   1.369   6.493 -1.2335 -0.5991 -0.4567
 5647SOL     OW18156   2.801   1.928   7.322 -0.6045 -0.4954 -0.4316
 5647SOL    HW118157   2.777   2.000   7.380 -1.1206  0.5640 -1.8943
 5647SOL    HW218158   2.833   1.971   7.243  1.6558 -1.8782 -0.3714
 5648SOL     OW18159   3.563   0.416   5.849 -0.4352  0.1248  0.4623
 5648SOL    HW118160   3.566   0.332   5.802 -1.1194  0.4703 -0.2219
 5648SOL    HW218161   3.483   0.458   5.817 -0.3943  0.7935  1.2279
 5649SOL     OW18162   3.185   1.833   5.942  0.0410  0.5623  0.0043
 5649SOL    HW118163   3.215   1.922   5.927 -0.5893  0.7696 -0.0452
 5649SOL    HW218164   3.111   1.822   5.882  0.7405 -0.3300 -0.7298
 5650SOL     OW18165   2.038   1.818   7.581 -0.1767  0.5676 -0.3083
 5650SOL    HW118166   2.018   1.737   7.533 -1.1851  1.0781 -0.7903
 5650SOL    HW218167   2.078   1.875   7.515 -0.3569  0.7977 -0.2215
 5651SOL     OW18168   3.281   1.064   6.145  0.0632 -0.0227 -0.0625
 5651SOL    HW118169   3.224   1.009   6.090  0.3599 -0.3376 -0.0600
 5651SOL    HW218170   3.251   1.154   6.128 -1.1207 -0.2413  0.7317
 5652SOL     OW18171   2.785   1.592   6.930  0.1861  0.1850  1.0364
 5652SOL    HW118172   2.826   1.653   6.991  1.3891  1.8511 -1.3024
 5652SOL    HW218173   2.856   1.535   6.901 -0.7917 -2.0663  2.6990
 5653SOL     OW18174   2.813   1.785   5.555  0.0430  0.2092  0.1769
 5653SOL    HW118175   2.869   1.761   5.481  1.1387  0.1107  1.0020
 5653SOL    HW218176   2.738   1.727   5.549  0.8580 -0.8612 -0.0033
 5654SOL     OW18177   3.706   2.264   7.001 -0.0745 -0.2510  0.3654
 5654SOL    HW118178   3.684   2.343   7.050  0.1343 -0.2218  0.4130
 5654SOL    HW218179   3.703   2.291   6.909  0.5486 -0.0444  0.4023
 5655SOL     OW18180   3.244   0.207   6.604  0.4717  0.5927  0.0763
 5655SOL    HW118181   3.228   0.113   6.616  1.2309  0.4476  0.0141
 5655SOL    HW218182   3.193   0.249   6.673  0.3008  0.1208  0.2409
 5656SOL     OW18183   1.922   0.036   6.419 -0.0515 -0.4121 -0.2980
 5656SOL    HW118184   1.977  -0.043   6.421  1.2724  0.4825  1.3822
 5656SOL    HW218185   1.930   0.067   6.329  0.7281 -1.3193 -0.5680
 5657SOL     OW18186   2.604   1.597   5.539  0.8065 -1.1179 -0.2625
 5657SOL    HW118187   2.632   1.516   5.581 -0.4483 -1.3169  0.2090
 5657SOL    HW218188   2.588   1.571   5.448  2.0684 -1.0110 -0.5309
 5658SOL     OW18189   3.314   1.468   6.584 -0.2736 -0.2988 -0.1326
 5658SOL    HW118190   3.396   1.513   6.606 -0.7042 -0.2976  1.5814
 5658SOL    HW218191   3.280   1.516   6.508  0.9372  0.1484 -0.4135
 5659SOL     OW18192   3.159   1.204   5.739  0.2161  0.2872 -0.2857
 5659SOL    HW118193   3.125   1.250   5.816 -1.4025  0.2512 -0.9428
 5659SOL    HW218194   3.208   1.271   5.691  0.1945  0.6223  0.1534
 5660SOL     OW18195   3.144   1.660   5.440  0.1088  0.3006 -0.0610
 5660SOL    HW118196   3.169   1.751   5.448 -2.3960  1.1697 -0.9872
 5660SOL    HW218197   3.131   1.646   5.346  1.8012 -1.4549 -0.0970
 5661SOL     OW18198   2.229   1.344   7.188  0.2790  0.1247  0.0803
 5661SOL    HW118199   2.162   1.279   7.208  0.1221  0.4910  0.7811
 5661SOL    HW218200   2.185   1.407   7.130 -0.4665  1.1911  1.7393
 5662SOL     OW18201   3.705   1.241   6.546  0.6681  0.1699  0.0079
 5662SOL    HW118202   3.693   1.282   6.632 -1.0830 -0.7692  0.2685
 5662SOL    HW218203   3.796   1.260   6.522  1.0333  0.8966  1.8192
 5663SOL     OW18204   2.977   1.418   6.338  0.4077 -0.4289  0.1088
 5663SOL    HW118205   3.068   1.445   6.347  0.2162  0.2461  0.0802
 5663SOL    HW218206   2.976   1.360   6.262  0.4782  1.1709 -1.1553
 5664SOL     OW18207   2.464   0.257   6.485 -0.1274  0.6086 -0.0145
 5664SOL    HW118208   2.385   0.312   6.487 -0.5120  0.0804 -0.4543
 5664SOL    HW218209   2.450   0.192   6.554  0.9233  1.8371  1.4297
 5665SOL     OW18210   2.746   1.569   6.307  0.0670  0.3232 -0.2089
 5665SOL    HW118211   2.801   1.493   6.328 -0.4122  0.1906  0.6403
 5665SOL    HW218212   2.801   1.625   6.252  0.2019 -0.9489 -1.4204
 5666SOL     OW18213   3.670   0.600   6.765 -0.5356 -0.4198 -0.4586
 5666SOL    HW118214   3.729   0.674   6.778 -0.5324 -0.9311  3.4103
 5666SOL    HW218215   3.583   0.640   6.759 -0.2480  0.0491 -2.1283
 5667SOL     OW18216   2.640   1.415   5.883 -0.1755 -0.4574  0.1298
 5667SOL    HW118217   2.557   1.452   5.912  0.7962 -0.7067  3.6886
 5667SOL    HW218218   2.704   1.486   5.896  0.5748 -1.1015  0.0689
 5668SOL     OW18219   1.490   0.793   7.261 -0.4414  0.2735 -0.7288
 5668SOL    HW118220   1.578   0.795   7.224  0.1102  1.0209  0.5398
 5668SOL    HW218221   1.447   0.719   7.218  0.9132 -0.3030 -1.1460
 5669SOL     OW18222   2.908   0.558   7.850  0.4908  0.2179  0.1675
 5669SOL    HW118223   2.970   0.542   7.921  0.8641  0.8851 -0.0043
 5669SOL    HW218224   2.956   0.536   7.770 -0.3579 -1.8664  0.1645
 5670SOL     OW18225   2.064   0.609   5.379  0.6052 -0.3020  0.4217
 5670SOL    HW118226   2.117   0.616   5.300  0.0141  0.2222  0.0728
 5670SOL    HW218227   2.018   0.693   5.386  1.4665  0.0793  1.9100
 5671SOL     OW18228   3.326   0.972   6.667  0.1289  0.1223 -0.0306
 5671SOL    HW118229   3.254   0.909   6.674  0.1636 -0.0798 -1.2019
 5671SOL    HW218230   3.284   1.052   6.636 -0.3410  1.5511  3.7397
 5672SOL     OW18231   2.075   0.346   5.697  0.0567 -0.1596 -0.1453
 5672SOL    HW118232   2.136   0.400   5.646 -0.6047  0.8752  0.1453
 5672SOL    HW218233   2.124   0.266   5.714  1.6625  0.9535  0.7574
 5673SOL     OW18234   3.195   1.471   5.635 -0.0564 -0.0743  0.6549
 5673SOL    HW118235   3.278   1.496   5.676  0.3487 -0.7685  0.2844
 5673SOL    HW218236   3.178   1.539   5.571 -0.1701  0.4823  1.2699
 5674SOL     OW18237   2.378   1.133   7.096 -0.1062  0.0146 -0.4151
 5674SOL    HW118238   2.396   1.088   7.179  0.5663 -0.2977 -0.7221
 5674SOL    HW218239   2.314   1.200   7.119 -2.9184 -2.5093 -0.3660
 5675SOL     OW18240   3.442   2.230   6.792  0.1863  0.0845 -0.0873
 5675SOL    HW118241   3.466   2.169   6.862 -0.8483 -0.0995  0.1200
 5675SOL    HW218242   3.387   2.179   6.733 -0.3860  0.7157 -0.1065
 5676SOL     OW18243   2.737   0.734   7.303  0.4757 -0.8539 -0.1419
 5676SOL    HW118244   2.774   0.818   7.328 -1.4312  0.2135 -0.6786
 5676SOL    HW218245   2.813   0.675   7.296  1.7750  0.6141  0.9245
 5677SOL     OW18246   3.479   1.403   6.932 -0.3052 -0.2615  0.3854
 5677SOL    HW118247   3.522   1.343   6.871  0.3634  0.2980  0.2986
 5677SOL    HW218248   3.428   1.346   6.989  1.0241 -1.0030  0.8775
 5678SOL     OW18249   2.368   1.755   6.945 -0.0333  0.6588  0.6512
 5678SOL    HW118250   2.345   1.760   6.853  0.3617 -0.7714  0.4366
 5678SOL    HW218251   2.378   1.661   6.962  0.5476  0.9285  1.9800
 5679SOL     OW18252   3.554   0.607   6.262  0.6287 -0.7765  0.4272
 5679SOL    HW118253   3.574   0.700   6.254 -0.0693 -0.3710  2.7568
 5679SOL    HW218254   3.476   0.596   6.207  1.0633 -0.1255 -0.3425
 5680SOL     OW18255   3.339   0.847   6.346  0.2048  0.3808 -0.2237
 5680SOL    HW118256   3.394   0.905   6.399  0.0463  0.8484 -0.5625
 5680SOL    HW218257   3.346   0.882   6.257  0.2899 -0.2627 -0.4718
 5681SOL     OW18258   2.735   0.690   6.436  0.0181  0.4130 -0.2517
 5681SOL    HW118259   2.727   0.596   6.452 -1.1446  0.2935 -1.4073
 5681SOL    HW218260   2.740   0.729   6.523 -0.4259 -0.6447  0.2618
 5682SOL     OW18261   3.856   0.800   6.825 -0.4277  0.2642  0.2996
 5682SOL    HW118262   3.852   0.879   6.771 -2.8080  0.9233  1.3375
 5682SOL    HW218263   3.820   0.827   6.909 -2.0961 -2.1104  0.4324
 5683SOL     OW18264   3.531   0.986   6.862 -0.1550 -0.0071  0.1230
 5683SOL    HW118265   3.582   0.913   6.828 -0.0864 -0.1666  0.5573
 5683SOL    HW218266   3.451   0.986   6.810  0.5970  0.7234 -1.0892
 5684SOL     OW18267   2.765   1.110   5.560  0.0714  0.0635  0.4983
 5684SOL    HW118268   2.769   1.074   5.648 -0.1033  0.3951  0.6443
 5684SOL    HW218269   2.830   1.060   5.510  1.0193  0.6520  1.1068
 5685SOL     OW18270   2.465   2.589   6.491 -0.0997 -0.7855  0.3946
 5685SOL    HW118271   2.468   2.673   6.446 -0.4193 -0.6010  0.7134
 5685SOL    HW218272   2.425   2.529   6.427 -3.8117  0.2339  1.5523
 5686SOL     OW18273   2.645   1.073   6.861  0.0618  0.1335  0.1664
 5686SOL    HW118274   2.648   1.138   6.931  1.7077 -0.0901  0.3521
 5686SOL    HW218275   2.621   0.991   6.905  0.1655  0.1809  0.3126
 5687SOL     OW18276   2.970   0.961   5.439  0.4874  0.6657 -0.3188
 5687SOL    HW118277   2.974   0.940   5.345  0.3185  0.7236 -0.3402
 5687SOL    HW218278   3.047   1.015   5.455  1.2922 -0.5149 -0.1211
 5688SOL     OW18279   3.817   1.489   6.335  0.2808 -0.0281 -0.5662
 5688SOL    HW118280   3.814   1.569   6.387  2.5704  0.2383 -0.7298
 5688SOL    HW218281   3.858   1.425   6.392 -1.9232 -1.2753 -0.2848
 5689SOL     OW18282   2.141   1.652   7.249  0.1092  0.2567 -0.0461
 5689SOL    HW118283   2.141   1.592   7.174  1.6981 -2.5331  1.9780
 5689SOL    HW218284   2.179   1.733   7.216 -1.0124 -0.2034 -2.6570
 5690SOL     OW18285   2.193   1.233   6.069  0.0442 -0.7910 -0.1768
 5690SOL    HW118286   2.240   1.252   5.988  0.1177 -0.4365 -0.0544
 5690SOL    HW218287   2.107   1.202   6.040  0.2051 -1.0314 -0.3953
 5691SOL     OW18288   2.965   1.716   7.396  0.3051 -0.0426  0.2937
 5691SOL    HW118289   2.885   1.742   7.351  0.4188 -2.9894 -1.9455
 5691SOL    HW218290   2.936   1.651   7.461  0.7473 -0.4423  0.1007
 5692SOL     OW18291   3.410   8.846   6.859  0.3655 -0.1555  0.2060
 5692SOL    HW118292   3.412   8.828   6.765  0.7712  0.6590  0.0545
 5692SOL    HW218293   3.322   8.821   6.886  0.3583 -0.7329 -0.3183
 5693SOL     OW18294   2.010   0.609   6.574 -0.3298  0.2835  0.8024
 5693SOL    HW118295   1.941   0.564   6.525  0.2838  0.5244 -0.3046
 5693SOL    HW218296   1.970   0.690   6.604 -0.6451  0.2401  0.5032
 5694SOL     OW18297   3.667   1.901   6.669 -0.6122  0.5282  0.6062
 5694SOL    HW118298   3.706   1.869   6.750 -1.4390  0.8425  1.1344
 5694SOL    HW218299   3.574   1.882   6.678 -0.3293 -3.9969 -2.3205
 5695SOL     OW18300   2.591   0.840   7.000 -0.3370  0.4635 -0.2919
 5695SOL    HW118301   2.582   0.756   6.956 -0.4414 -0.0292  0.6541
 5695SOL    HW218302   2.608   0.818   7.092  1.3467  1.4428 -0.3214
 5696SOL     OW18303   2.253   2.452   6.353  0.0283 -0.5507  0.6866
 5696SOL    HW118304   2.177   2.446   6.410 -1.1060  0.4660 -0.6730
 5696SOL    HW218305   2.226   2.411   6.271  0.9955 -0.3017  0.2222
 5697SOL     OW18306   3.459   0.397   6.851  0.5119  0.2608  0.0251
 5697SOL    HW118307   3.555   0.391   6.854  0.4191 -1.2898  0.8688
 5697SOL    HW218308   3.434   0.434   6.935  0.3549  0.6295 -0.1801
 5698SOL     OW18309   2.350   0.336   7.107  0.1600  0.1790  0.3933
 5698SOL    HW118310   2.308   0.389   7.039  0.1111  1.0989  1.1164
 5698SOL    HW218311   2.422   0.390   7.139  0.4880 -0.4434  0.7351
 5699SOL     OW18312   2.920   1.243   6.143  0.1107  0.4054 -0.2017
 5699SOL    HW118313   2.873   1.168   6.179  4.4605 -2.6445 -0.0734
 5699SOL    HW218314   2.910   1.235   6.048 -0.8808  0.7769 -0.1375
 5700SOL     OW18315   2.434   2.072   6.865  0.0095  0.5292 -0.0763
 5700SOL    HW118316   2.446   2.007   6.796  0.0851 -2.1290  2.2734
 5700SOL    HW218317   2.522   2.087   6.901 -0.2061  0.8489  0.3361
 5701SOL     OW18318   3.249   8.727   6.050 -0.1575 -0.3742  0.0563
 5701SOL    HW118319   3.320   8.680   6.094  0.0667 -0.0225  0.0743
 5701SOL    HW218320   3.284   8.746   5.963  0.4028  1.2450  0.6090
 5702SOL     OW18321   3.380   0.418   6.056 -0.4932 -0.4499  0.7369
 5702SOL    HW118322   3.372   0.513   6.057 -0.8877 -0.4445 -0.7986
 5702SOL    HW218323   3.465   0.401   6.014 -1.2415 -0.7703 -0.7204
 5703SOL     OW18324   3.157   0.232   6.118 -0.0039  0.6390  0.4508
 5703SOL    HW118325   3.156   0.241   6.213  2.0064 -1.0327  0.7174
 5703SOL    HW218326   3.242   0.268   6.092 -0.6958  1.4475 -0.7883
 5704SOL     OW18327   1.853   1.098   5.623  0.0045 -0.4701  0.0541
 5704SOL    HW118328   1.838   1.039   5.549 -0.2483 -0.8921  0.4415
 5704SOL    HW218329   1.766   1.125   5.650  0.1221  0.1800 -0.1943
 5705SOL     OW18330   2.176   1.858   6.052 -0.5677  0.2508 -0.1816
 5705SOL    HW118331   2.260   1.834   6.012  0.4704  1.3396  1.2643
 5705SOL    HW218332   2.150   1.937   6.005 -0.0217  0.7706  0.3852
 5706SOL     OW18333   1.933   0.817   7.377  0.2395 -0.2046  0.0654
 5706SOL    HW118334   1.960   0.727   7.363  1.1832  0.0897 -0.1000
 5706SOL    HW218335   1.920   0.852   7.289  0.4293 -0.0260  0.1071
 5707SOL     OW18336   2.048   0.064   8.421  0.2410 -0.2475  0.8147
 5707SOL    HW118337   2.038   0.155   8.394  1.6020  0.1015  1.4273
 5707SOL    HW218338   2.016   0.062   8.511  0.5597 -0.2968  0.9267
 5708SOL     OW18339   2.019   0.492   8.158 -0.1335 -0.3981  0.4575
 5708SOL    HW118340   2.034   0.429   8.087  1.6501 -0.6935  1.0406
 5708SOL    HW218341   2.002   0.438   8.235 -0.1397 -0.1384  0.6391
 5709SOL     OW18342   2.294   1.223   8.633 -0.3024  0.2336 -0.0901
 5709SOL    HW118343   2.224   1.228   8.569 -1.2001  2.4826  0.9480
 5709SOL    HW218344   2.367   1.269   8.592 -0.3286  0.2296 -0.1406
 5710SOL     OW18345   3.132   1.493   8.441  0.0078 -0.6849 -0.3981
 5710SOL    HW118346   3.208   1.547   8.421  0.2558 -0.8993 -0.0437
 5710SOL    HW218347   3.162   1.432   8.508 -0.6894 -0.2635  0.3164
 5711SOL     OW18348   2.844   1.009   8.024 -0.0025  0.3605  0.1732
 5711SOL    HW118349   2.846   1.004   8.120  2.5346 -0.3510  0.1542
 5711SOL    HW218350   2.798   0.929   7.997 -0.5484  0.4651  0.7654
 5712SOL     OW18351   3.378   0.677   7.413  0.1379  0.2559 -0.2379
 5712SOL    HW118352   3.365   0.767   7.440 -0.6810  0.1304 -0.1791
 5712SOL    HW218353   3.400   0.682   7.320  3.0272  0.6934  0.3604
 5713SOL     OW18354   2.662   1.776   8.324  0.0562 -0.1886  0.5270
 5713SOL    HW118355   2.651   1.710   8.256  0.0669  1.2382 -0.9140
 5713SOL    HW218356   2.742   1.750   8.370  0.0616 -1.1610 -0.0201
 5714SOL     OW18357   2.423   1.134   7.632 -0.5403  0.0971  1.3271
 5714SOL    HW118358   2.407   1.154   7.725  0.3432  1.7989  1.1521
 5714SOL    HW218359   2.368   1.196   7.585  0.7665  0.8475  0.7385
 5715SOL     OW18360   1.932   1.545   8.473 -0.2363  0.6430  0.1431
 5715SOL    HW118361   1.906   1.459   8.505  0.1806 -0.4203 -2.1560
 5715SOL    HW218362   1.951   1.595   8.552 -1.7490 -0.9324  1.6124
 5716SOL     OW18363   2.153   0.211   0.124 -0.1041  0.1344 -0.0906
 5716SOL    HW118364   2.120   0.284   0.177  1.4713  0.6524  0.2172
 5716SOL    HW218365   2.231   0.246   0.081 -0.3692 -0.8197 -1.4041
 5717SOL     OW18366   3.289   0.809   7.910 -0.4514  0.2712  0.1388
 5717SOL    HW118367   3.228   0.736   7.921 -1.0524  0.2332 -2.6456
 5717SOL    HW218368   3.232   0.885   7.900  0.1245  0.8693  1.2716
 5718SOL     OW18369   1.722   2.002   8.116  0.1962  0.1517 -0.1763
 5718SOL    HW118370   1.642   1.997   8.169  0.0998  1.1452 -0.2070
 5718SOL    HW218371   1.773   2.072   8.157  1.1017 -0.5353 -0.0986
 5719SOL     OW18372   1.905   1.577   7.943  0.3579 -0.3410 -0.3843
 5719SOL    HW118373   1.929   1.659   7.900 -0.7140 -1.0738 -2.4700
 5719SOL    HW218374   1.809   1.580   7.948  0.2488 -1.8040 -1.2307
 5720SOL     OW18375   2.153   1.301   8.389 -0.1415 -0.1250  0.0120
 5720SOL    HW118376   2.128   1.393   8.392  1.1125  0.3475 -1.9649
 5720SOL    HW218377   2.103   1.265   8.316  0.3322 -0.6736 -0.0467
 5721SOL     OW18378   2.159   1.712   0.676  0.3751 -0.0040  0.6226
 5721SOL    HW118379   2.143   1.658   0.599  0.1897 -0.7842  1.1995
 5721SOL    HW218380   2.102   1.787   0.664  0.1495 -0.2458  0.1324
 5722SOL     OW18381   2.266   1.316   7.505  0.0641 -0.4900 -0.4154
 5722SOL    HW118382   2.191   1.347   7.556  0.1041 -0.6590 -0.2523
 5722SOL    HW218383   2.265   1.370   7.426  2.0041  2.2270  1.2143
 5723SOL     OW18384   1.982   0.750   8.266 -0.6759 -0.4557 -0.0405
 5723SOL    HW118385   1.908   0.736   8.325  0.3424 -1.4244  1.0545
 5723SOL    HW218386   2.002   0.663   8.231  0.5122 -0.3611  0.3776
 5724SOL     OW18387   3.654   1.734   7.977 -0.0455 -0.2637  0.0426
 5724SOL    HW118388   3.609   1.720   7.893  1.3049  1.0119 -0.9353
 5724SOL    HW218389   3.602   1.801   8.022  0.6638  1.0132 -0.9695
 5725SOL     OW18390   1.743   1.863   7.608 -0.3545  0.3610 -0.5068
 5725SOL    HW118391   1.830   1.879   7.572 -0.5962 -1.3639 -1.9471
 5725SOL    HW218392   1.758   1.849   7.702  0.7056  1.4959 -0.4764
 5726SOL     OW18393   3.609   1.287   8.600 -0.5620  0.3543 -0.3420
 5726SOL    HW118394   3.651   1.352   8.543 -1.4606  1.3798  0.1202
 5726SOL    HW218395   3.585   1.215   8.541  0.9144  0.1901 -0.7798
 5727SOL     OW18396   3.745   1.186   8.204  0.1920  0.1565  0.2089
 5727SOL    HW118397   3.828   1.175   8.157 -0.1825 -0.4788 -0.3222
 5727SOL    HW218398   3.706   1.265   8.167  0.8898  0.8778  0.9755
 5728SOL     OW18399   2.612   1.597   8.101 -0.2517  0.3167 -0.4689
 5728SOL    HW118400   2.520   1.573   8.096 -0.3654  0.4883  0.5758
 5728SOL    HW218401   2.649   1.569   8.017 -1.0399 -0.6323 -0.5132
 5729SOL     OW18402   2.598   8.740   7.919  0.7692  0.2691 -0.1343
 5729SOL    HW118403   2.530   8.807   7.916  1.3714  0.9448  0.7585
 5729SOL    HW218404   2.551   8.658   7.911 -0.2296  0.6871  1.1376
 5730SOL     OW18405   2.267   0.850   8.365 -0.5994  0.0903 -0.1615
 5730SOL    HW118406   2.265   0.755   8.360  0.6853 -0.0765  1.6765
 5730SOL    HW218407   2.181   0.877   8.332 -1.0280 -1.6858 -0.6118
 5731SOL     OW18408   3.475   1.262   7.478 -0.1080 -0.3712 -0.1912
 5731SOL    HW118409   3.467   1.167   7.491  0.8937 -0.6898 -1.6237
 5731SOL    HW218410   3.435   1.301   7.556  1.8346 -1.9903  1.7430
 5732SOL     OW18411   3.521   1.097   8.335  0.7673 -0.5388 -0.5628
 5732SOL    HW118412   3.574   1.167   8.296 -2.6773  1.5708 -1.8709
 5732SOL    HW218413   3.501   1.038   8.262  0.3111 -0.6405 -0.3582
 5733SOL     OW18414   4.050   1.755   7.783 -0.3918 -0.5768 -0.4105
 5733SOL    HW118415   3.978   1.710   7.738 -0.8793  1.0926 -1.3733
 5733SOL    HW218416   4.112   1.685   7.805 -0.6869 -1.6352 -2.6587
 5734SOL     OW18417   2.741   0.722   7.954  0.8281 -0.3498  0.1819
 5734SOL    HW118418   2.806   0.665   7.913 -0.0134 -1.7444  0.7289
 5734SOL    HW218419   2.680   0.662   7.996 -2.0322  0.8136 -2.0130
 5735SOL     OW18420   3.277   0.242   8.591  0.1064  0.4534 -0.5861
 5735SOL    HW118421   3.239   0.219   8.506  0.7335  1.6200 -1.1957
 5735SOL    HW218422   3.217   0.308   8.627 -1.3121 -1.4876  0.8579
 5736SOL     OW18423   3.543   1.526   7.783  0.1523  0.2323 -0.5639
 5736SOL    HW118424   3.469   1.522   7.842  0.7430  0.7129  0.2267
 5736SOL    HW218425   3.530   1.607   7.733 -0.5654 -0.3878 -1.4025
 5737SOL     OW18426   2.686   0.657   8.843 -0.0967 -0.1102  0.2815
 5737SOL    HW118427   2.659   0.676   8.752 -0.9481 -1.3767  0.2485
 5737SOL    HW218428   2.617   0.697   8.896 -0.3751 -0.6128  0.3066
 5738SOL     OW18429   2.865   0.445   8.803  0.5426  0.0856 -0.3549
 5738SOL    HW118430   2.802   0.388   8.759  0.7228 -1.4646  1.2924
 5738SOL    HW218431   2.815   0.522   8.829 -0.4262 -0.6625  0.0311
 5739SOL     OW18432   3.021   1.233   7.646  0.1787 -0.5189 -0.1218
 5739SOL    HW118433   2.961   1.212   7.718 -3.2271  0.7633 -2.3271
 5739SOL    HW218434   2.995   1.175   7.575  0.6642  0.9618 -1.5764
 5740SOL     OW18435   1.960   1.230   8.165  0.4847 -0.4313 -0.6509
 5740SOL    HW118436   1.909   1.238   8.246 -0.0740  0.8435 -1.0950
 5740SOL    HW218437   1.958   1.137   8.144 -0.1898 -0.6430  0.2849
 5741SOL     OW18438   1.906   1.548   0.290 -0.2432  0.2543  0.3840
 5741SOL    HW118439   1.899   1.453   0.291 -0.3212  0.2350  2.9978
 5741SOL    HW218440   1.878   1.572   0.201  1.2221 -2.1917 -0.8601
 5742SOL     OW18441   2.202   0.409   7.848 -0.2671  0.0620 -0.6102
 5742SOL    HW118442   2.143   0.353   7.898  0.0448 -0.3070 -0.6570
 5742SOL    HW218443   2.227   0.357   7.773 -0.0257  0.2893 -0.6880
 5743SOL     OW18444   3.122   0.994   8.242 -0.1478 -0.3598 -0.5447
 5743SOL    HW118445   3.141   1.081   8.278  0.6470 -0.7362 -0.0020
 5743SOL    HW218446   3.205   0.966   8.202 -0.2232 -1.0954 -0.2037
 5744SOL     OW18447   2.482   0.456   7.896  0.5022  0.0096 -0.7324
 5744SOL    HW118448   2.389   0.453   7.874  0.6579  1.2339 -1.6611
 5744SOL    HW218449   2.488   0.519   7.968  0.5701 -0.4480 -0.3264
 5745SOL     OW18450   3.297   1.489   7.947 -0.0363  0.0633  0.1812
 5745SOL    HW118451   3.235   1.538   8.001 -0.8450  0.2387 -0.8747
 5745SOL    HW218452   3.263   1.400   7.947  0.1760 -0.0173  0.2769
 5746SOL     OW18453   2.139   2.214   8.266  0.2146  0.4745 -0.2565
 5746SOL    HW118454   2.173   2.127   8.244  0.7256 -0.0415  2.2756
 5746SOL    HW218455   2.199   2.247   8.333 -1.3007  1.7687  0.5350
 5747SOL     OW18456   3.594   1.418   8.076  0.2547 -0.0485  0.2310
 5747SOL    HW118457   3.651   1.494   8.081 -1.3754  1.2349  0.1589
 5747SOL    HW218458   3.550   1.427   7.991  0.8048 -1.6717 -0.2609
 5748SOL     OW18459   2.014   1.106   7.641  0.2863  0.3424  0.2540
 5748SOL    HW118460   1.956   1.031   7.626  0.1659  0.8028 -1.9309
 5748SOL    HW218461   1.988   1.170   7.574  0.2694  2.4483  2.1673
 5749SOL     OW18462   3.378   0.870   8.167 -0.0699  0.6346  0.0184
 5749SOL    HW118463   3.344   0.823   8.091  0.8889  0.1895 -0.1535
 5749SOL    HW218464   3.396   0.801   8.231  0.5643  0.8479  0.0775
 5750SOL     OW18465   3.575   1.783   7.675  0.0374  0.2887  0.6871
 5750SOL    HW118466   3.528   1.808   7.596 -0.8798 -3.3555 -0.1272
 5750SOL    HW218467   3.591   1.865   7.722 -1.6306  2.2963 -2.0240
 5751SOL     OW18468   3.108   1.212   7.270  0.0200  0.0804  0.6817
 5751SOL    HW118469   3.033   1.179   7.319  1.9812 -1.1946  3.0256
 5751SOL    HW218470   3.107   1.307   7.287 -0.0496 -0.1714  2.2104
 5752SOL     OW18471   2.058   1.447   7.630 -0.3655  0.0516 -0.1485
 5752SOL    HW118472   2.094   1.506   7.697 -0.9505  0.8805 -0.5455
 5752SOL    HW218473   2.028   1.506   7.560 -1.2162 -0.7042 -0.4372
 5753SOL     OW18474   2.886   8.708   7.906  0.2244  0.1891  0.4032
 5753SOL    HW118475   2.805   8.657   7.902  0.0333  0.4917  0.4144
 5753SOL    HW218476   2.860   8.797   7.882  0.5329  0.3109  0.5143
 5754SOL     OW18477   2.393   1.520   8.359 -0.6067 -0.3952  0.1412
 5754SOL    HW118478   2.391   1.567   8.275  0.2397 -1.8513 -0.7461
 5754SOL    HW218479   2.302   1.501   8.378 -0.7144 -1.9364 -1.6129
 5755SOL     OW18480   2.930   1.857   8.215  0.4568  0.1366 -0.0920
 5755SOL    HW118481   2.943   1.763   8.204  1.9780  0.4708 -1.7005
 5755SOL    HW218482   2.894   1.886   8.131 -0.1653  0.9789  0.4476
 5756SOL     OW18483   2.481   0.712   8.082  0.2789  0.2502  0.3804
 5756SOL    HW118484   2.526   0.784   8.127 -0.3324  1.8276 -1.4172
 5756SOL    HW218485   2.421   0.755   8.022 -3.2393 -1.7461  2.1374
 5757SOL     OW18486   2.812   0.126   7.745  0.5589  1.0739  0.0972
 5757SOL    HW118487   2.750   0.194   7.721 -0.3572  0.9336  1.9092
 5757SOL    HW218488   2.786   0.050   7.693 -1.0308  0.9220  1.0584
 5758SOL     OW18489   2.862   1.720   8.569  0.1920  0.4104 -1.4047
 5758SOL    HW118490   2.900   1.634   8.589 -0.2715  0.0264 -2.1524
 5758SOL    HW218491   2.793   1.731   8.634  0.1307  0.1385 -1.4216
 5759SOL     OW18492   2.444   1.934   8.444 -0.0046  0.3351 -0.1996
 5759SOL    HW118493   2.393   1.972   8.373  0.6447 -0.6023 -1.2274
 5759SOL    HW218494   2.497   1.866   8.401 -0.1856 -0.8348  1.3131
 5760SOL     OW18495   3.128   0.699   8.225 -0.6783  0.7726  0.7402
 5760SOL    HW118496   3.081   0.781   8.235 -0.7877  0.9767 -1.2058
 5760SOL    HW218497   3.199   0.705   8.289 -0.6515  2.4024  0.6000
 5761SOL     OW18498   2.662   0.756   7.587  0.2623 -0.2701  0.2141
 5761SOL    HW118499   2.669   0.681   7.645  2.6064 -0.1796  0.1224
 5761SOL    HW218500   2.688   0.723   7.501 -2.7318 -0.3033 -0.8248
 5762SOL     OW18501   2.948   1.031   7.011  0.2852 -0.0074  0.3391
 5762SOL    HW118502   2.910   1.020   6.924 -1.6097  1.0498  0.9875
 5762SOL    HW218503   2.913   1.114   7.042  1.0016 -0.3215  2.0810
 5763SOL     OW18504   2.429   0.006   7.635  0.0987 -0.7596 -0.3400
 5763SOL    HW118505   2.335  -0.009   7.623 -0.1381  0.3866  0.0246
 5763SOL    HW218506   2.469  -0.039   7.561 -0.7737 -0.8041 -0.8019
 5764SOL     OW18507   2.560   0.951   7.853 -0.0262  0.2743 -0.1604
 5764SOL    HW118508   2.470   0.932   7.878 -0.5029  1.9024 -0.5278
 5764SOL    HW218509   2.608   0.870   7.871 -1.6117 -0.7200 -0.2678
 5765SOL     OW18510   2.921   1.572   8.302 -0.0154 -0.2159 -0.4296
 5765SOL    HW118511   2.887   1.581   8.391 -1.1026 -1.8590 -0.6384
 5765SOL    HW218512   3.013   1.546   8.314  0.0215  0.1933  0.1978
 5766SOL     OW18513   2.482   1.074   8.331  0.4771  0.1445  0.1539
 5766SOL    HW118514   2.482   1.163   8.367  0.1127  0.2997 -0.2110
 5766SOL    HW218515   2.389   1.050   8.328  0.4426  0.3527 -1.1661
 5767SOL     OW18516   3.427   1.955   7.851 -0.2506  0.0290  0.8622
 5767SOL    HW118517   3.449   1.972   7.943  1.2213 -1.0943  0.7574
 5767SOL    HW218518   3.346   1.904   7.854 -0.1740 -0.0630  1.5362
 5768SOL     OW18519   2.931   0.923   7.667 -0.5677 -0.7131 -0.4727
 5768SOL    HW118520   2.864   0.856   7.680  0.3855 -1.3522  1.4359
 5768SOL    HW218521   2.883   1.006   7.675 -1.0857 -1.1557  1.4312
 5769SOL     OW18522   2.375   0.216   8.131 -0.7305 -0.4319 -0.1616
 5769SOL    HW118523   2.387   0.184   8.041 -0.8747 -0.2759 -0.2345
 5769SOL    HW218524   2.464   0.241   8.159 -0.9375  1.2035 -0.8872
 5770SOL     OW18525   2.806   0.427   8.232  0.2624 -0.1260  0.3922
 5770SOL    HW118526   2.813   0.523   8.233  1.1477 -0.1901  1.0638
 5770SOL    HW218527   2.890   0.396   8.265  0.3808 -1.1725 -0.8188
 5771SOL     OW18528   2.654   8.690   8.187  0.1258  0.2572 -0.4423
 5771SOL    HW118529   2.651   8.708   8.093 -0.6393  1.4210 -0.2266
 5771SOL    HW218530   2.589   8.621   8.201 -0.2867  0.5935 -0.6758
 5772SOL     OW18531   3.112   1.262   8.287  0.2642  0.4371 -0.2794
 5772SOL    HW118532   3.145   1.235   8.201  0.1546  0.4543 -0.3270
 5772SOL    HW218533   3.090   1.354   8.276  0.1107  0.4012 -0.2739
 5773SOL     OW18534   3.337   0.678   8.389 -0.1026  0.4150 -0.6065
 5773SOL    HW118535   3.365   0.706   8.476 -1.9118  1.9052 -0.4380
 5773SOL    HW218536   3.329   0.583   8.396  0.5912  0.4287  0.5885
 5774SOL     OW18537   3.758   0.894   8.346  0.6872 -0.5837  0.6517
 5774SOL    HW118538   3.692   0.963   8.344 -0.7078 -1.7829  2.0502
 5774SOL    HW218539   3.842   0.939   8.336  0.0193  1.5733  3.5469
 5775SOL     OW18540   2.131   1.123   7.884 -0.1514 -0.1792 -0.4021
 5775SOL    HW118541   2.052   1.172   7.906 -1.7305 -2.9879  0.6218
 5775SOL    HW218542   2.115   1.089   7.796  0.6327  0.5024 -0.8249
 5776SOL     OW18543   3.869   1.292   7.894  0.5007  0.1841  0.1404
 5776SOL    HW118544   3.928   1.230   7.935  3.1713  0.3110 -3.1072
 5776SOL    HW218545   3.885   1.375   7.939  1.4911 -0.1754  0.4578
 5777SOL     OW18546   3.093   0.834   7.109  0.2141  0.4699 -0.8006
 5777SOL    HW118547   3.128   0.870   7.190 -0.4157  0.2560 -0.4299
 5777SOL    HW218548   3.043   0.906   7.070  0.4671  0.5545 -0.9695
 5778SOL     OW18549   2.252   8.748   7.918  0.6255 -0.3189 -0.5566
 5778SOL    HW118550   2.216   8.749   8.007  1.6071 -1.2140 -0.1233
 5778SOL    HW218551   2.277   8.838   7.902  2.6994 -0.5375  1.0627
 5779SOL     OW18552   4.035   1.443   0.441  0.4581  0.1902 -0.0056
 5779SOL    HW118553   4.007   1.372   0.385  1.8900  1.4612 -2.4915
 5779SOL    HW218554   4.131   1.445   0.433  0.7250  0.5781  2.3570
 5780SOL     OW18555   2.875   1.768   0.045 -0.4507 -0.0903  0.0854
 5780SOL    HW118556   2.916   1.685   0.070 -0.6548 -0.0443  0.5819
 5780SOL    HW218557   2.946   1.832   0.052 -0.4902 -0.0896  0.4828
 5781SOL     OW18558   3.307   1.376   8.602 -0.5380 -0.1258 -0.1089
 5781SOL    HW118559   3.398   1.367   8.574 -0.4458  0.8164 -0.1539
 5781SOL    HW218560   3.309   1.361   8.697 -0.3416 -0.1654 -0.1198
 5782SOL     OW18561   2.605   1.536   7.602  0.1215 -0.1675  0.0576
 5782SOL    HW118562   2.619   1.629   7.622  0.6766 -0.8056  3.1514
 5782SOL    HW218563   2.510   1.527   7.601  0.0477  0.1338  1.6770
 5783SOL     OW18564   2.292   1.279   0.044 -0.1861  0.2910  0.0060
 5783SOL    HW118565   2.326   1.369   0.043  0.4441  0.0561 -0.5602
 5783SOL    HW218566   2.308   1.246  -0.044  0.5672 -0.7344  0.5019
 5784SOL     OW18567   3.099   0.493   8.455  0.2678  0.1438 -0.9408
 5784SOL    HW118568   3.049   0.565   8.416  0.4517 -0.5560 -2.5488
 5784SOL    HW218569   3.054   0.414   8.425  1.4393 -0.4578 -1.1561
 5785SOL     OW18570   2.152   1.621   0.409  0.1995 -0.1919  0.1061
 5785SOL    HW118571   2.081   1.606   0.347 -0.2822 -1.2141  0.8691
 5785SOL    HW218572   2.229   1.637   0.354 -0.2137 -1.0419 -0.7540
 5786SOL     OW18573   1.897   1.288   7.916  0.3559 -0.0729  0.2712
 5786SOL    HW118574   1.921   1.378   7.893  3.5182 -1.1001 -1.1184
 5786SOL    HW218575   1.901   1.284   8.011 -2.0853  1.6981  0.5381
 5787SOL     OW18576   2.570   0.665   8.376 -0.6639  0.0995  0.4316
 5787SOL    HW118577   2.610   0.725   8.314  0.0113 -0.8391 -0.0613
 5787SOL    HW218578   2.481   0.653   8.345 -1.6115  2.6562  1.8567
 5788SOL     OW18579   3.204   1.666   7.578  0.0254 -0.1776 -0.0492
 5788SOL    HW118580   3.189   1.758   7.558  0.1455  0.5009  2.6174
 5788SOL    HW218581   3.140   1.646   7.647  1.4665 -1.4278  1.0000
 5789SOL     OW18582   3.043   1.357   0.164  0.2447 -0.0671 -0.6758
 5789SOL    HW118583   3.032   1.281   0.221  1.2514  0.5522  0.3952
 5789SOL    HW218584   3.033   1.433   0.222  1.3296  0.5829 -1.2878
 5790SOL     OW18585   3.370   0.994   7.542  0.0745 -0.5358  0.3578
 5790SOL    HW118586   3.451   0.973   7.589  0.2382  0.9831  0.7967
 5790SOL    HW218587   3.301   0.976   7.605  0.2826  1.2848  1.1799
 5791SOL     OW18588   2.530   1.618   8.621  0.0608  0.1439 -0.1458
 5791SOL    HW118589   2.526   1.628   8.526  1.5449  1.0114 -0.1519
 5791SOL    HW218590   2.557   1.705   8.653  1.7493 -0.6957  0.8644
 5792SOL     OW18591   2.424   0.769   0.120 -0.3464  0.1550  0.4068
 5792SOL    HW118592   2.351   0.773   0.182  0.3204 -1.8348  1.4073
 5792SOL    HW218593   2.484   0.838   0.148  0.1416 -0.9806  2.2945
 5793SOL     OW18594   2.857   1.000   8.334  0.3946  0.1423  0.5296
 5793SOL    HW118595   2.847   0.996   8.429 -0.1408  0.4957  0.4971
 5793SOL    HW218596   2.946   0.969   8.317 -0.2843 -2.2024  0.9473
 5794SOL     OW18597   3.097   0.990   7.893 -0.3592  0.1764 -0.4042
 5794SOL    HW118598   3.033   0.974   7.962  0.5945  0.1782  0.5016
 5794SOL    HW218599   3.057   0.952   7.814 -0.3321 -2.2244  0.6568
 5795SOL     OW18600   1.949   0.126   8.708 -0.1832  0.1906 -0.0939
 5795SOL    HW118601   1.862   0.163   8.690 -0.8131 -0.7849  0.7668
 5795SOL    HW218602   1.943   0.096   8.799  1.2172  0.5190  0.1185
 5796SOL     OW18603   1.950   1.063   8.717  0.1991  0.1495 -0.0808
 5796SOL    HW118604   2.018   1.013   8.672 -0.0740 -1.1822  0.9275
 5796SOL    HW218605   1.888   0.997   8.748  0.2093  1.0119  1.9549
 5797SOL     OW18606   2.511   0.731   8.643  0.3855  0.5297 -0.4339
 5797SOL    HW118607   2.528   0.718   8.550 -0.6271 -0.3506 -0.5222
 5797SOL    HW218608   2.497   0.825   8.653 -2.5734  0.3438 -1.7642
 5798SOL     OW18609   2.400   0.133   7.869  0.2166 -0.1221 -0.5127
 5798SOL    HW118610   2.453   0.212   7.857  1.1271 -0.6487 -0.0705
 5798SOL    HW218611   2.391   0.096   7.781  0.6510 -0.0659 -0.5826
 5799SOL     OW18612   3.746   1.057   7.453 -0.2009  0.1747  0.7609
 5799SOL    HW118613   3.772   0.967   7.434 -0.8698 -0.0526  0.8777
 5799SOL    HW218614   3.757   1.067   7.547  2.0319  0.9443  0.4699
 5800SOL     OW18615   2.824   1.039   8.615  0.8732  0.1409  0.0765
 5800SOL    HW118616   2.853   0.954   8.648  1.6210  1.0934  2.0082
 5800SOL    HW218617   2.904   1.084   8.590  0.4045 -0.0973 -2.0421
 5801SOL     OW18618   3.526   0.928   7.297 -0.2996 -0.3478 -0.1022
 5801SOL    HW118619   3.546   0.984   7.222  0.1559 -0.4495 -0.0625
 5801SOL    HW218620   3.586   0.958   7.365 -1.4861  0.5076  0.5999
 5802SOL     OW18621   3.555   1.124   7.100  0.4687  0.1723 -0.2490
 5802SOL    HW118622   3.571   1.087   7.013  0.2986  1.4528 -0.8467
 5802SOL    HW218623   3.465   1.154   7.097  0.3897  0.0220  0.4639
 5803SOL     OW18624   2.806   1.392   8.133 -0.0161  0.1361  0.6592
 5803SOL    HW118625   2.741   1.456   8.105  0.5439  0.3284 -0.2502
 5803SOL    HW218626   2.864   1.440   8.192 -0.3906  0.1056  1.0498
 5804SOL     OW18627   2.494   1.306   8.510  0.1871 -0.1561 -0.2648
 5804SOL    HW118628   2.579   1.285   8.471  1.2647  0.1232  1.8340
 5804SOL    HW218629   2.475   1.395   8.479  0.5764 -0.2618 -0.8308
 5805SOL     OW18630   2.008   0.364   8.379  0.1622 -0.0794  0.1321
 5805SOL    HW118631   1.948   0.352   8.452  0.9610 -0.9361  0.6894
 5805SOL    HW218632   2.092   0.384   8.421 -0.0739  2.9956 -0.6685
 5806SOL     OW18633   3.249   8.779   8.528  0.1785  0.0207  0.1757
 5806SOL    HW118634   3.256   8.793   8.434 -0.7496 -1.7106 -0.1898
 5806SOL    HW218635   3.298   8.852   8.567  1.4726  0.1891 -1.6415
 5807SOL     OW18636   1.839   1.208   7.396 -0.0012 -0.1510 -0.1736
 5807SOL    HW118637   1.857   1.273   7.328  0.9107  0.9527  1.0683
 5807SOL    HW218638   1.750   1.178   7.378  0.6405 -0.8458 -2.5788
 5808SOL     OW18639   2.102   1.729   8.322 -0.4375 -0.3084 -0.5847
 5808SOL    HW118640   2.131   1.673   8.249  0.8819 -2.2632  1.3139
 5808SOL    HW218641   2.018   1.691   8.349 -1.0176  0.5305 -1.1773
 5809SOL     OW18642   2.321   1.632   8.110  0.3046 -0.6561  0.5321
 5809SOL    HW118643   2.245   1.576   8.096 -0.5837  0.7890 -0.7471
 5809SOL    HW218644   2.358   1.644   8.022  1.5730 -0.6917  1.0307
 5810SOL     OW18645   2.739   1.271   8.364 -0.2500  0.1562  0.3248
 5810SOL    HW118646   2.773   1.308   8.283  0.5853 -1.4634 -0.0996
 5810SOL    HW218647   2.769   1.181   8.364  1.4524  0.5773  3.3439
 5811SOL     OW18648   1.690   0.352   8.372 -0.0167 -0.4025  0.4807
 5811SOL    HW118649   1.728   0.379   8.455  1.2948  0.0977 -0.2516
 5811SOL    HW218650   1.658   0.433   8.332 -1.3683 -0.7394  0.8212
 5812SOL     OW18651   2.638   1.028   7.533  0.0696 -0.1113 -0.4787
 5812SOL    HW118652   2.615   0.936   7.544 -0.6615  0.1994  0.8431
 5812SOL    HW218653   2.561   1.076   7.566  1.4365  0.9714  1.3276
 5813SOL     OW18654   2.921   0.778   8.703  0.0684  0.3475 -0.1063
 5813SOL    HW118655   2.974   0.835   8.759 -0.2875  0.2190  0.3628
 5813SOL    HW218656   2.904   0.701   8.756  0.7731 -0.3299 -0.8360
 5814SOL     OW18657   2.846   0.661   8.391  0.0691  0.2518  0.2870
 5814SOL    HW118658   2.755   0.658   8.422 -0.2462 -0.3688 -0.6699
 5814SOL    HW218659   2.891   0.717   8.455 -1.2401  1.5464  0.1338
 5815SOL     OW18660   2.650   1.842   8.760 -0.0135  0.3418 -0.5216
 5815SOL    HW118661   2.655   1.931   8.726 -0.9278  0.9843  0.8944
 5815SOL    HW218662   2.730   1.831   8.812 -0.6898  0.9812  0.6872
 5816SOL     OW18663   2.087   0.690   7.934  0.3161  0.5833  0.3470
 5816SOL    HW118664   2.093   0.632   8.010 -1.8835 -0.4777 -0.1749
 5816SOL    HW218665   2.039   0.638   7.869  2.8519  1.1152 -2.1329
 5817SOL     OW18666   2.376   0.514   8.735  0.2904  0.4858 -0.2519
 5817SOL    HW118667   2.430   0.589   8.707 -0.3732  0.6339 -1.1633
 5817SOL    HW218668   2.299   0.554   8.774 -0.5849  0.3184 -1.7294
 5818SOL     OW18669   3.023   1.177   8.535 -0.0962 -0.8923  0.9226
 5818SOL    HW118670   3.092   1.163   8.599  0.5834 -2.8838 -0.1684
 5818SOL    HW218671   3.069   1.211   8.458 -0.5969 -0.5791  0.7551
 5819SOL     OW18672   3.283   1.333   7.667  0.2052  0.1222 -0.0157
 5819SOL    HW118673   3.204   1.285   7.644  1.5728 -1.9077 -0.7897
 5819SOL    HW218674   3.285   1.332   7.763 -0.1025 -0.8930 -0.0100
 5820SOL     OW18675   3.428   1.606   8.795  0.3321  0.7362 -0.1965
 5820SOL    HW118676   3.518   1.577   8.780  0.3362  1.1161 -0.9579
 5820SOL    HW218677   3.385   1.531   8.835  0.6905  0.1476 -0.8890
 5821SOL     OW18678   2.848   1.435   8.581 -0.0233  0.5851 -1.0247
 5821SOL    HW118679   2.930   1.389   8.598 -1.2900 -1.0469  1.1509
 5821SOL    HW218680   2.808   1.387   8.509  0.6186  1.0221 -1.6915
 5822SOL     OW18681   2.087   1.499   8.122 -0.4359  0.2992 -0.8353
 5822SOL    HW118682   2.026   1.542   8.061  0.9615  1.8004 -1.2642
 5822SOL    HW218683   2.055   1.409   8.129 -0.9324  0.1918 -3.4497
 5823SOL     OW18684   3.653   0.632   7.474 -0.6596 -0.0300 -0.0395
 5823SOL    HW118685   3.618   0.604   7.558  0.2076  1.4820  0.8613
 5823SOL    HW218686   3.575   0.653   7.422 -1.3154 -3.0802 -0.4736
 5824SOL     OW18687   3.327   1.619   8.292  0.3767  0.4062  0.0378
 5824SOL    HW118688   3.285   1.649   8.211  1.4290 -1.5667 -1.3228
 5824SOL    HW218689   3.401   1.679   8.304 -0.4668  1.4463  0.2440
 5825SOL     OW18690   3.472   1.058   7.993  0.3890 -0.2421 -0.1701
 5825SOL    HW118691   3.497   1.015   7.911  1.1549 -0.7789  0.3339
 5825SOL    HW218692   3.454   0.986   8.053 -1.4525  0.1306 -0.2163
 5826SOL     OW18693   2.756   1.838   7.648 -0.1138 -0.1412  0.1806
 5826SOL    HW118694   2.662   1.854   7.643 -0.0893  0.5451  1.4513
 5826SOL    HW218695   2.789   1.861   7.561 -1.1091 -0.3588 -0.2686
 5827SOL     OW18696   3.620   0.586   8.276  0.3239 -0.6006 -0.6493
 5827SOL    HW118697   3.573   0.554   8.353  1.0363  0.9999  0.4958
 5827SOL    HW218698   3.707   0.608   8.308  0.7679 -0.2430 -2.0117
 5828SOL     OW18699   2.167   0.043   8.169 -0.6117  0.3394  0.5189
 5828SOL    HW118700   2.144   0.040   8.261  0.4928 -0.7532  0.7886
 5828SOL    HW218701   2.237   0.109   8.163 -1.0184  0.7606  0.3775
 5829SOL     OW18702   2.801   1.392   7.316  0.0113 -0.3612 -0.1389
 5829SOL    HW118703   2.837   1.444   7.387 -2.1386 -0.3683  1.0110
 5829SOL    HW218704   2.768   1.455   7.253 -0.8584 -0.3137  0.3497
 5830SOL     OW18705   2.470   1.482   0.018  0.6778  0.6649 -0.4052
 5830SOL    HW118706   2.550   1.437   0.043  0.0833 -0.3220 -0.2346
 5830SOL    HW218707   2.490   1.518  -0.069  0.3851 -2.1318 -1.7665
 5831SOL     OW18708   2.528   1.204   7.952 -0.1185  0.0685  1.0054
 5831SOL    HW118709   2.558   1.116   7.930  0.7683  0.4393  0.7041
 5831SOL    HW218710   2.556   1.217   8.043  0.7990  0.4733  0.6744
 5832SOL     OW18711   3.380   1.409   7.273  0.6601  0.0979  0.2514
 5832SOL    HW118712   3.291   1.434   7.299 -0.3142 -1.6770 -1.1213
 5832SOL    HW218713   3.410   1.351   7.343  0.3845  0.0034  0.2930
 5833SOL     OW18714   4.039   1.503   8.788 -0.0828 -0.3019 -0.1225
 5833SOL    HW118715   3.980   1.454   8.731 -0.7177  0.2318  0.0623
 5833SOL    HW218716   3.990   1.514   8.869 -0.4741  1.7010 -0.5787
 5834SOL     OW18717   3.237   1.221   7.986  0.1833  0.3975  0.3275
 5834SOL    HW118718   3.333   1.211   7.986  0.2963  1.3870  0.0950
 5834SOL    HW218719   3.204   1.134   7.965  1.0802  0.3302 -0.8980
 5835SOL     OW18720   2.839   0.051   8.248 -0.4220  0.2506 -0.1025
 5835SOL    HW118721   2.828   0.098   8.166  1.1830  0.8537 -0.0261
 5835SOL    HW218722   2.773  -0.018   8.247 -2.6350  2.2591 -0.3826
 5836SOL     OW18723   2.629   1.455   7.866 -0.0594  0.2999 -0.8835
 5836SOL    HW118724   2.621   1.472   7.772  0.2469  0.7465 -0.8295
 5836SOL    HW218725   2.609   1.362   7.875  3.1971 -0.6059 -1.8325
 5837SOL     OW18726   3.527   0.429   0.202  0.1293 -0.1500 -0.5196
 5837SOL    HW118727   3.513   0.508   0.254 -0.6572 -1.0874  0.7624
 5837SOL    HW218728   3.593   0.380   0.252 -1.0633 -1.3366 -0.0603
 5838SOL     OW18729   1.710   1.394   7.568  0.1313  0.9605 -0.2282
 5838SOL    HW118730   1.764   1.348   7.503  0.9524  1.2495  0.2217
 5838SOL    HW218731   1.770   1.459   7.606 -0.4431  1.0399  0.5530
 5839SOL     OW18732   1.862   0.543   7.862 -0.7964  0.1122 -0.4283
 5839SOL    HW118733   1.773   0.576   7.848 -1.5728 -1.3944  0.6977
 5839SOL    HW218734   1.853   0.448   7.864  0.7405 -0.0573  0.3221
 5840SOL     OW18735   1.930   8.656   7.974 -0.3218  0.3606  0.1620
 5840SOL    HW118736   1.860   8.603   8.012 -0.1079 -1.5077 -1.8646
 5840SOL    HW218737   1.897   8.681   7.888  0.5796  1.4807  0.1256
 5841SOL     OW18738   2.879   1.541   7.582  0.2604 -0.4247 -0.3769
 5841SOL    HW118739   2.789   1.510   7.579  0.9743 -2.6306 -1.4743
 5841SOL    HW218740   2.924   1.478   7.638  0.9881  1.1192  0.8433
 5842SOL     OW18741   2.256   0.581   8.370 -0.5077 -0.0987  0.0613
 5842SOL    HW118742   2.309   0.512   8.411 -1.8384 -0.9807  0.3609
 5842SOL    HW218743   2.242   0.550   8.280  1.6965  1.4322 -0.8989
 5843SOL     OW18744   3.678   2.423   8.021 -0.8344  0.0495  0.3242
 5843SOL    HW118745   3.603   2.483   8.020 -0.5393  0.5052  1.9382
 5843SOL    HW218746   3.728   2.450   8.098  1.2928  0.0857 -1.0037
 5844SOL     OW18747   2.347   1.662   0.215 -0.0061  0.0073  0.2404
 5844SOL    HW118748   2.377   1.588   0.162 -1.3213  0.6406 -1.4548
 5844SOL    HW218749   2.379   1.739   0.168  0.4247  0.5644  1.4116
 5845SOL     OW18750   3.288   0.996   8.470 -0.7321  0.6921 -0.2353
 5845SOL    HW118751   3.255   0.931   8.408 -0.4055  0.4252 -0.1300
 5845SOL    HW218752   3.335   1.060   8.416 -0.1397  0.2680 -0.2302
 5846SOL     OW18753   2.850   0.210   8.020 -0.5276 -0.5159 -0.1078
 5846SOL    HW118754   2.820   0.301   8.029  0.0642 -0.3052 -0.1752
 5846SOL    HW218755   2.851   0.194   7.926  1.0882  0.0265 -0.2182
 5847SOL     OW18756   2.631   0.878   8.245 -0.1334 -0.1959 -0.9916
 5847SOL    HW118757   2.565   0.943   8.268  0.2935  0.0197 -0.3326
 5847SOL    HW218758   2.714   0.920   8.269  0.1517 -0.9353 -0.6632
 5848SOL     OW18759   3.939   1.222   0.289  0.5067  0.4065 -0.1383
 5848SOL    HW118760   3.917   1.196   0.200  0.3480 -1.2392  0.3544
 5848SOL    HW218761   3.877   1.174   0.345  1.9444 -0.2558  0.9617
 5849SOL     OW18762   2.436   1.775   7.892  0.0844  0.3901 -0.8096
 5849SOL    HW118763   2.474   1.792   7.806 -0.4317 -0.8764 -1.3128
 5849SOL    HW218764   2.445   1.858   7.939  3.2872  0.2584 -0.9454
 5850SOL     OW18765   2.740   2.027   8.338  0.3972  0.1783 -0.0718
 5850SOL    HW118766   2.831   2.027   8.306  0.0468  1.2836 -1.1474
 5850SOL    HW218767   2.709   1.938   8.320  1.1021 -0.0568 -0.1708
 5851SOL     OW18768   2.787   1.136   7.744 -0.1722  0.0007 -0.0806
 5851SOL    HW118769   2.751   1.150   7.832 -1.5655  0.3970 -0.6797
 5851SOL    HW218770   2.714   1.099   7.694  0.6232 -0.3042 -1.0552
 5852SOL     OW18771   3.147   1.450   7.408  0.2790 -0.0462 -0.1052
 5852SOL    HW118772   3.147   1.545   7.414  1.7246 -0.0326  0.0138
 5852SOL    HW218773   3.163   1.420   7.497  0.9226 -0.3704 -0.3275
 5853SOL     OW18774   3.536   1.481   8.368 -0.4001 -0.2459  0.2227
 5853SOL    HW118775   3.454   1.528   8.376 -0.4293 -0.3576  0.5880
 5853SOL    HW218776   3.533   1.443   8.280 -0.8195 -0.4000  0.3016
 5854SOL     OW18777   1.941   0.979   8.137  0.6202  0.2149 -0.2735
 5854SOL    HW118778   1.914   0.946   8.051  1.6060 -0.7382 -0.2345
 5854SOL    HW218779   1.956   0.901   8.189 -1.9034  0.7521  1.4377
 5855SOL     OW18780   3.907   1.074   0.069  0.3193 -0.2725 -0.4825
 5855SOL    HW118781   3.824   1.120   0.056  1.6934  2.2279 -0.9290
 5855SOL    HW218782   3.900   0.997   0.012 -1.1512  0.6204 -1.5752
 5856SOL     OW18783   2.292   0.670   7.678 -0.2837 -0.0711 -0.3072
 5856SOL    HW118784   2.302   0.749   7.732 -0.6785  0.5925 -1.1867
 5856SOL    HW218785   2.251   0.606   7.737  0.5629  0.1835  0.5803
 5857SOL     OW18786   3.688   1.630   8.712  0.0977  0.3552 -0.4104
 5857SOL    HW118787   3.667   1.723   8.706  0.2167  0.4953  1.0343
 5857SOL    HW218788   3.722   1.618   8.801 -1.2521 -1.3248 -0.0712
 5858SOL     OW18789   2.188   0.242   8.620  0.1985  0.2630  0.3700
 5858SOL    HW118790   2.103   0.216   8.656 -0.4464  0.5746 -0.8768
 5858SOL    HW218791   2.240   0.161   8.623 -0.4654 -0.1818  0.2268
 5859SOL     OW18792   2.770   1.918   7.978 -0.0483  0.0797 -0.1037
 5859SOL    HW118793   2.735   1.983   7.917  0.1886  1.7734  1.5047
 5859SOL    HW218794   2.694   1.891   8.030  0.2064  0.4543  0.4631
 5860SOL     OW18795   3.282   8.692   8.265  0.3073 -0.0554 -0.4812
 5860SOL    HW118796   3.349   8.630   8.237  0.2404 -0.4788  0.2723
 5860SOL    HW218797   3.199   8.652   8.239  0.3806  1.1867 -2.8173
 5861SOL     OW18798   2.362   0.388   8.488  0.3617  0.2077  0.5051
 5861SOL    HW118799   2.325   0.306   8.521  0.6212  0.0294  0.3529
 5861SOL    HW218800   2.378   0.440   8.567 -1.7452  0.9619  0.5046
 5862SOL     OW18801   2.336   1.362   7.816 -0.0152 -0.4138 -0.3023
 5862SOL    HW118802   2.260   1.309   7.792 -0.0609  0.0571 -1.2583
 5862SOL    HW218803   2.391   1.304   7.869 -1.1754 -0.6651  0.6789
 5863SOL     OW18804   2.419   1.843   0.022 -0.1041 -0.1361  0.0451
 5863SOL    HW118805   2.496   1.842  -0.035  0.0626  2.5444  0.0753
 5863SOL    HW218806   2.358   1.903  -0.022 -0.8690  0.2602  1.5761
 5864SOL     OW18807   2.741   8.246   7.717  0.1818 -0.2117  0.2984
 5864SOL    HW118808   2.834   8.255   7.693  1.0248 -2.2819  2.4203
 5864SOL    HW218809   2.705   8.189   7.649  1.3231 -2.0115  1.1171
 5865SOL     OW18810   3.016   0.267   8.324  0.2712  1.0691  0.4902
 5865SOL    HW118811   3.099   0.221   8.314  0.7045  2.3093 -3.1499
 5865SOL    HW218812   2.950   0.206   8.289  0.1578  1.3394  0.2220
 5866SOL     OW18813   3.263   0.174   8.326  0.3240  0.3678 -0.0499
 5866SOL    HW118814   3.246   0.142   8.237  2.1141  1.2299 -0.7416
 5866SOL    HW218815   3.355   0.156   8.341 -0.1371 -0.5615  2.0170
 5867SOL     OW18816   1.830   0.929   7.607  0.5486 -0.0020 -0.0699
 5867SOL    HW118817   1.750   0.972   7.578  0.6769  0.1317 -0.2333
 5867SOL    HW218818   1.859   0.879   7.530  1.4639  1.2008 -0.5388
 5868SOL     OW18819   3.144   1.654   8.068  0.0726  0.3137  0.2374
 5868SOL    HW118820   3.054   1.636   8.041  0.2250  1.9645 -1.6182
 5868SOL    HW218821   3.140   1.742   8.106  0.7220 -0.0794  1.2550
 5869SOL     OW18822   2.125   2.602   8.809  0.0896  0.2291  0.8978
 5869SOL    HW118823   2.077   2.642   8.737  2.1328  1.0085 -0.1129
 5869SOL    HW218824   2.057   2.571   8.869 -1.7161 -0.9057 -1.5591
 5870SOL     OW18825   2.012   2.507   1.080 -0.2001 -0.0396 -0.6276
 5870SOL    HW118826   2.032   2.597   1.104 -1.8478  1.0024 -2.7838
 5870SOL    HW218827   1.923   2.510   1.046 -0.3460 -2.5231 -0.6798
 5871SOL     OW18828   1.777   2.518   0.426  0.2553  0.1644  0.2691
 5871SOL    HW118829   1.847   2.457   0.451 -2.0307 -3.2499 -0.8830
 5871SOL    HW218830   1.703   2.494   0.482 -0.6333  2.3065  0.1141
 5872SOL     OW18831   2.226   3.391   1.516 -0.1310 -0.4549 -0.3342
 5872SOL    HW118832   2.171   3.375   1.440 -1.4877 -0.3175  0.5787
 5872SOL    HW218833   2.168   3.435   1.578  1.1427  0.0830  0.5008
 5873SOL     OW18834   2.981   3.551   0.840  0.3706 -0.0928  0.4869
 5873SOL    HW118835   2.934   3.634   0.838  0.4704 -0.0466 -0.0132
 5873SOL    HW218836   3.061   3.567   0.789  0.1416 -0.6377 -0.0497
 5874SOL     OW18837   3.071   2.377   0.884  0.0884 -0.2469 -0.2296
 5874SOL    HW118838   3.141   2.428   0.924  0.7653 -0.4593 -1.1167
 5874SOL    HW218839   3.006   2.366   0.954  0.2523  1.2181  0.1727
 5875SOL     OW18840   3.883   2.802   0.002  0.2233  0.2786 -0.3997
 5875SOL    HW118841   3.852   2.737   0.065 -0.7635  0.5128 -0.6278
 5875SOL    HW218842   3.959   2.841   0.044 -0.3649  0.3599  0.6213
 5876SOL     OW18843   2.257   3.082   1.145  0.2647  0.1949 -0.3208
 5876SOL    HW118844   2.297   3.024   1.080  0.2146  1.3918 -1.4643
 5876SOL    HW218845   2.312   3.160   1.144 -0.6930  0.8905 -0.1312
 5877SOL     OW18846   2.931   2.786   2.054  0.6146 -0.0127  0.4722
 5877SOL    HW118847   3.024   2.785   2.031  0.4500  0.0625 -0.2479
 5877SOL    HW218848   2.891   2.842   1.987 -0.2139 -1.4513 -0.2993
 5878SOL     OW18849   2.688   2.872   0.823  0.6472 -0.4530  0.1375
 5878SOL    HW118850   2.766   2.895   0.773  0.1881  0.2066 -0.2883
 5878SOL    HW218851   2.616   2.908   0.772  0.0851 -0.7866  0.6883
 5879SOL     OW18852   1.879   2.837   1.893 -0.0172  0.0530  0.0620
 5879SOL    HW118853   1.961   2.790   1.879  1.4192  1.3519  3.1289
 5879SOL    HW218854   1.817   2.770   1.922  0.8164 -0.5532  0.4910
 5880SOL     OW18855   1.980   3.201   1.032 -0.2054  0.0135 -0.1595
 5880SOL    HW118856   1.928   3.278   1.053  0.1347 -0.0773  1.0687
 5880SOL    HW218857   2.017   3.220   0.946 -2.1540  0.1212 -1.0248
 5881SOL     OW18858   3.213   3.803   1.383 -0.0956  0.4650  0.2434
 5881SOL    HW118859   3.145   3.869   1.393 -0.8430  0.3579 -3.1317
 5881SOL    HW218860   3.293   3.854   1.368 -0.3538  0.6281 -0.6284
 5882SOL     OW18861   2.233   2.356   1.601  0.0159 -0.0461  0.0257
 5882SOL    HW118862   2.159   2.413   1.620  1.1624  1.5683 -0.1306
 5882SOL    HW218863   2.307   2.397   1.645  0.8240 -1.6622  0.2431
 5883SOL     OW18864   3.571   2.237   0.773  0.3524  0.3534  0.2972
 5883SOL    HW118865   3.567   2.319   0.723 -1.1656  0.1538  0.0463
 5883SOL    HW218866   3.550   2.169   0.709 -0.2690 -0.0337  0.8964
 5884SOL     OW18867   1.950   3.415   0.648 -0.1554 -0.5282 -0.0758
 5884SOL    HW118868   1.868   3.417   0.696 -0.5493  0.7103 -0.7450
 5884SOL    HW218869   1.933   3.359   0.572 -0.3086 -0.4551 -0.0947
 5885SOL     OW18870   2.742   2.978   1.928  0.0038 -0.1278  0.5096
 5885SOL    HW118871   2.699   3.063   1.931  0.0837 -0.0008 -1.2693
 5885SOL    HW218872   2.671   2.915   1.936 -0.1497  0.0835  0.8717
 5886SOL     OW18873   1.819   2.999   0.603 -0.3548  0.2609  0.3185
 5886SOL    HW118874   1.757   3.064   0.636 -0.8260 -0.1788  0.3102
 5886SOL    HW218875   1.765   2.923   0.582  0.2474 -0.2814  0.7184
 5887SOL     OW18876   2.419   2.963   0.963 -0.2331  0.2000 -0.4506
 5887SOL    HW118877   2.503   2.980   1.005  0.4457 -1.1372 -1.1907
 5887SOL    HW218878   2.432   2.988   0.872 -1.4262  2.2644 -0.1187
 5888SOL     OW18879   2.426   3.683   1.749 -0.7245  0.2136  0.0260
 5888SOL    HW118880   2.487   3.755   1.736 -0.1059 -0.6470 -2.5752
 5888SOL    HW218881   2.367   3.713   1.818 -0.0655  2.9049 -0.4755
 5889SOL     OW18882   2.852   3.149   0.476  0.4208  0.3170  0.1980
 5889SOL    HW118883   2.794   3.214   0.516  1.2693 -0.5264  2.9807
 5889SOL    HW218884   2.795   3.075   0.456  0.4147 -0.6415  3.2185
 5890SOL     OW18885   3.537   2.421   1.469 -0.1588 -0.2818  0.0514
 5890SOL    HW118886   3.583   2.340   1.445  1.1381  0.4104  0.1240
 5890SOL    HW218887   3.530   2.470   1.387  1.5272  0.7225  0.4589
 5891SOL     OW18888   1.953   2.795   0.444  0.0743  0.5645 -0.5850
 5891SOL    HW118889   2.002   2.875   0.464 -1.4246  1.2664  0.4169
 5891SOL    HW218890   1.962   2.742   0.523  2.1948 -0.9206 -1.7230
 5892SOL     OW18891   3.640   3.830   1.017 -0.3069  0.3756 -0.5191
 5892SOL    HW118892   3.605   3.743   1.036  0.5844 -0.1112 -1.0070
 5892SOL    HW218893   3.584   3.864   0.947  0.8411 -0.8793 -2.1330
 5893SOL     OW18894   2.517   3.023   0.681 -0.0162 -0.2284  0.2500
 5893SOL    HW118895   2.469   3.005   0.600 -0.4421 -0.0381  0.4583
 5893SOL    HW218896   2.528   3.117   0.683 -0.6004 -0.1569  0.7355
 5894SOL     OW18897   3.627   2.521   0.896 -0.2433  0.6202  0.6086
 5894SOL    HW118898   3.666   2.607   0.880 -0.9493  0.6989 -0.9458
 5894SOL    HW218899   3.534   2.532   0.873 -1.1777  0.3265  3.7435
 5895SOL     OW18900   3.452   2.745   0.741  0.5414 -0.5067  0.0359
 5895SOL    HW118901   3.468   2.838   0.723  1.2978 -0.3402  1.4496
 5895SOL    HW218902   3.386   2.746   0.811  0.7688 -1.0297  0.2552
 5896SOL     OW18903   1.607   2.274   1.776  0.1181  0.5709  0.1494
 5896SOL    HW118904   1.640   2.226   1.700  1.3583  1.6277  0.0024
 5896SOL    HW218905   1.627   2.366   1.758  0.7834  0.8178  1.9161
 5897SOL     OW18906   2.282   3.635   0.958 -0.1042  0.4429  0.0921
 5897SOL    HW118907   2.323   3.676   1.033 -1.8548  2.9639 -0.2044
 5897SOL    HW218908   2.354   3.596   0.909  1.3050  0.6708  1.9023
 5898SOL     OW18909   3.103   3.144   1.518 -0.6289  0.2428 -0.4752
 5898SOL    HW118910   3.196   3.143   1.544 -0.7846  0.9045  0.1468
 5898SOL    HW218911   3.070   3.058   1.542 -0.7809  0.8415  1.6596
 5899SOL     OW18912   2.819   1.694   0.860  0.5857 -0.0773  0.2758
 5899SOL    HW118913   2.812   1.783   0.825 -0.2429 -0.6183 -0.9833
 5899SOL    HW218914   2.749   1.646   0.817 -0.5757 -0.7693  2.7944
 5900SOL     OW18915   1.539   2.851   1.491 -0.1999  0.2796 -0.3925
 5900SOL    HW118916   1.613   2.831   1.548 -1.8117  1.3619  2.2769
 5900SOL    HW218917   1.483   2.908   1.543 -1.7163  1.5862 -3.2170
 5901SOL     OW18918   2.912   3.381   1.052 -0.3701  0.3868  0.0490
 5901SOL    HW118919   2.932   3.418   1.137 -1.5244  2.7498 -0.6185
 5901SOL    HW218920   2.950   3.442   0.989 -2.0319  0.3166 -1.1069
 5902SOL     OW18921   3.050   4.007   1.412 -0.0185  0.1038  0.9734
 5902SOL    HW118922   3.092   4.037   1.492  0.2943 -1.3250  1.3892
 5902SOL    HW218923   2.962   4.043   1.415  0.4045  1.1395  1.3012
 5903SOL     OW18924   2.354   1.854   2.168  0.1221 -0.0745  0.0072
 5903SOL    HW118925   2.375   1.820   2.255 -2.4373  0.7238  1.0255
 5903SOL    HW218926   2.338   1.775   2.115  0.2940 -0.5395  0.6374
 5904SOL     OW18927   2.906   3.002   1.316  0.1206 -0.0767 -0.3197
 5904SOL    HW118928   2.942   3.039   1.397  0.5159 -0.3565 -0.3673
 5904SOL    HW218929   2.930   3.065   1.248 -0.8586  0.5478 -0.1217
 5905SOL     OW18930   3.461   3.959   0.847 -0.1755 -0.2172 -0.6577
 5905SOL    HW118931   3.496   3.928   0.764  0.2758 -1.4367 -0.0331
 5905SOL    HW218932   3.367   3.939   0.842 -0.3559  0.7177 -1.2957
 5906SOL     OW18933   2.641   2.383   1.045  0.4875 -0.1044  0.4335
 5906SOL    HW118934   2.596   2.455   1.000  0.9391 -0.3979 -0.5159
 5906SOL    HW218935   2.672   2.421   1.127  1.2276  0.9603 -0.3125
 5907SOL     OW18936   3.259   2.449   1.110 -0.1971 -0.1330 -0.2072
 5907SOL    HW118937   3.331   2.388   1.092 -1.6062 -1.8781 -0.3177
 5907SOL    HW218938   3.285   2.494   1.190  0.9174 -0.8984 -0.1122
 5908SOL     OW18939   3.187   3.627   0.698  0.3630 -0.3658  0.7043
 5908SOL    HW118940   3.213   3.711   0.735 -0.4688 -0.6140  1.9093
 5908SOL    HW218941   3.197   3.638   0.604  0.9951  0.8212  0.8894
 5909SOL     OW18942   2.570   2.707   1.599 -0.4453  0.0931 -0.3188
 5909SOL    HW118943   2.663   2.711   1.622 -0.0589  2.1963 -1.9073
 5909SOL    HW218944   2.558   2.618   1.566  0.8002 -0.4616  0.6421
 5910SOL     OW18945   3.172   1.902   1.930 -0.0551  0.2810 -0.3142
 5910SOL    HW118946   3.240   1.901   1.997 -0.7281  1.2718  0.4092
 5910SOL    HW218947   3.218   1.884   1.848  0.8137 -0.7285  0.3712
 5911SOL     OW18948   2.534   2.948   1.476  0.2194 -0.3960  0.5325
 5911SOL    HW118949   2.552   2.871   1.529 -0.8990  0.2370  1.8925
 5911SOL    HW218950   2.448   2.978   1.506  0.0319  0.6111 -0.9097
 5912SOL     OW18951   3.235   2.603   1.318  0.2288  0.1591 -0.5782
 5912SOL    HW118952   3.149   2.645   1.309 -0.6231 -0.9653  1.5875
 5912SOL    HW218953   3.283   2.658   1.380 -0.0567 -0.7884  0.5130
 5913SOL     OW18954   3.017   2.839   0.685 -0.1902 -0.3663  0.6940
 5913SOL    HW118955   3.011   2.768   0.749  1.2271 -0.4742  0.7414
 5913SOL    HW218956   3.016   2.795   0.600 -1.6864 -0.2510  0.6354
 5914SOL     OW18957   1.871   2.951   1.022  0.3101  0.2012 -0.3979
 5914SOL    HW118958   1.856   2.911   0.937  3.7220 -0.8639 -0.6643
 5914SOL    HW218959   1.931   3.023   1.004 -0.9256  1.6126  0.8644
 5915SOL     OW18960   1.720   3.812   1.881  0.1442  1.0993  0.3675
 5915SOL    HW118961   1.786   3.749   1.909 -1.1570 -0.8272 -0.6895
 5915SOL    HW218962   1.710   3.796   1.787 -2.0090  1.1052  0.5346
 5916SOL     OW18963   2.949   2.143   0.620  0.7880 -0.1249 -0.4065
 5916SOL    HW118964   2.950   2.120   0.527 -0.2784  0.0805 -0.4896
 5916SOL    HW218965   2.875   2.094   0.656  0.2879  0.9062  0.0203
 5917SOL     OW18966   3.580   2.419   1.825  0.7909  0.0945 -0.4819
 5917SOL    HW118967   3.571   2.491   1.887 -1.3188 -0.1425 -0.4649
 5917SOL    HW218968   3.492   2.401   1.794  1.2710 -2.2584 -0.7484
 5918SOL     OW18969   3.312   3.451   0.423  1.0928  0.2566  0.0759
 5918SOL    HW118970   3.261   3.532   0.433  0.5408  0.1876 -1.8759
 5918SOL    HW218971   3.250   3.381   0.437  1.1712  0.1736  0.0107
 5919SOL     OW18972   2.435   1.848   1.076 -0.1265  0.0133  0.6206
 5919SOL    HW118973   2.349   1.876   1.108 -0.8119 -0.7018 -0.5337
 5919SOL    HW218974   2.472   1.927   1.036  0.3064  0.6428  2.1827
 5920SOL     OW18975   2.325   3.449   0.475 -0.3665 -0.2274  0.0256
 5920SOL    HW118976   2.312   3.533   0.519 -1.1762 -0.2451 -0.1601
 5920SOL    HW218977   2.237   3.423   0.448  0.0779 -0.3688 -1.3250
 5921SOL     OW18978   2.083   3.695   1.308 -0.3396 -0.5962 -0.0782
 5921SOL    HW118979   2.157   3.635   1.317  0.5480  0.5438  0.5528
 5921SOL    HW218980   2.118   3.780   1.335 -1.4037  0.3196 -1.4679
 5922SOL     OW18981   3.650   3.030   0.709  0.5127 -0.2950 -0.2202
 5922SOL    HW118982   3.655   3.090   0.783  1.1953 -0.8876  0.2363
 5922SOL    HW218983   3.570   3.054   0.663  0.2942  0.3477  0.4800
 5923SOL     OW18984   2.982   3.283   1.725 -0.1370  0.0086  0.3827
 5923SOL    HW118985   3.046   3.254   1.661  0.1381  1.3857  0.0090
 5923SOL    HW218986   2.897   3.274   1.681 -0.0667 -0.3016  0.3090
 5924SOL     OW18987   2.436   2.603   0.623 -0.2885  0.2275  0.1559
 5924SOL    HW118988   2.379   2.540   0.580  0.0439  0.0011  0.0379
 5924SOL    HW218989   2.412   2.599   0.716  0.1879 -0.5705  0.2545
 5925SOL     OW18990   2.926   2.687   0.906 -0.0883  0.0894  0.1581
 5925SOL    HW118991   2.899   2.597   0.888  1.0587 -0.1876 -0.2552
 5925SOL    HW218992   3.022   2.682   0.916  0.2884  1.5838 -2.0026
 5926SOL     OW18993   2.244   3.154   1.886  0.4054 -0.1958  1.0765
 5926SOL    HW118994   2.279   3.164   1.974 -1.0206  0.0587  1.6460
 5926SOL    HW218995   2.260   3.239   1.845  1.4514 -0.4526  0.9313
 5927SOL     OW18996   3.155   3.670   0.435 -0.6690 -0.1444  0.4292
 5927SOL    HW118997   3.067   3.655   0.400 -1.0434 -0.3721  1.4325
 5927SOL    HW218998   3.169   3.764   0.427 -0.8932 -0.1402  0.0406
 5928SOL     OW18999   1.858   1.982   1.832  0.4100  0.3274  0.1221
 5928SOL    HW119000   1.916   2.054   1.809  0.3848 -0.1561 -1.6219
 5928SOL    HW219001   1.911   1.925   1.888  1.4258  0.2528 -0.8643
 5929SOL     OW19002   3.790   2.939   0.373 -0.5579  0.1645  0.0789
 5929SOL    HW119003   3.704   2.979   0.366 -0.3131  0.4401 -1.7764
 5929SOL    HW219004   3.786   2.862   0.315  1.2486  1.7447 -2.3581
 5930SOL     OW19005   2.073   3.403   0.347  0.1342  0.2084 -0.2928
 5930SOL    HW119006   2.043   3.313   0.348  0.2264  0.1777 -0.2072
 5930SOL    HW219007   1.996   3.455   0.368 -1.4409  0.6407 -5.6430
 5931SOL     OW19008   2.974   2.123   0.335  0.5849 -0.2129  0.9279
 5931SOL    HW119009   2.968   2.118   0.240 -1.0428  0.3501  0.9672
 5931SOL    HW219010   3.067   2.115   0.354  1.1433  1.4052 -0.8244
 5932SOL     OW19011   1.818   3.662   1.355  0.1446 -0.0744 -0.3880
 5932SOL    HW119012   1.810   3.577   1.398 -0.7304  0.1653 -0.0511
 5932SOL    HW219013   1.912   3.677   1.348  0.3229 -0.1655  1.3675
 5933SOL     OW19014   2.515   3.606   0.836 -0.0829 -0.4221 -0.5241
 5933SOL    HW119015   2.598   3.652   0.823 -0.0951  0.2606  1.5320
 5933SOL    HW219016   2.538   3.527   0.885 -0.8273  0.8795  2.1032
 5934SOL     OW19017   1.870   2.237   0.800  0.4136 -0.2174 -0.2205
 5934SOL    HW119018   1.860   2.254   0.893 -1.4950  0.0844 -0.4359
 5934SOL    HW219019   1.872   2.142   0.792  0.4134 -0.2440  0.1129
 5935SOL     OW19020   3.422   2.085   1.677  0.2223 -0.3589  0.9988
 5935SOL    HW119021   3.502   2.099   1.728  1.5863  0.1715 -1.1840
 5935SOL    HW219022   3.401   1.992   1.692  1.7118 -0.7231  0.9792
 5936SOL     OW19023   2.248   2.016   1.871  0.1994 -0.2180 -0.1109
 5936SOL    HW119024   2.202   1.953   1.927 -0.3789 -1.0604 -1.4810
 5936SOL    HW219025   2.309   1.963   1.820  0.5510  0.4931 -0.4454
 5937SOL     OW19026   2.479   3.261   1.559 -0.4660 -0.5261 -0.1477
 5937SOL    HW119027   2.389   3.271   1.529 -0.0238 -0.7762 -1.6917
 5937SOL    HW219028   2.480   3.296   1.648 -1.8522  0.4589 -0.4896
 5938SOL     OW19029   3.126   2.532   1.749 -0.0823 -0.1977 -0.3617
 5938SOL    HW119030   3.195   2.597   1.743 -0.8742  0.7781  0.7224
 5938SOL    HW219031   3.171   2.448   1.744  1.0740  0.4189 -0.5434
 5939SOL     OW19032   2.465   3.279   1.150 -0.8138 -0.0716  0.3657
 5939SOL    HW119033   2.527   3.230   1.204 -0.6579  0.8596  1.0520
 5939SOL    HW219034   2.519   3.325   1.086 -0.8148  0.5095  0.7780
 5940SOL     OW19035   2.769   2.332   1.378  0.0731  0.5825 -0.2371
 5940SOL    HW119036   2.810   2.416   1.393 -0.9250  1.0786 -0.1856
 5940SOL    HW219037   2.812   2.272   1.439  0.8242  1.0397 -0.3183
 5941SOL     OW19038   1.677   1.408   0.687  0.2847  0.2835  0.0469
 5941SOL    HW119039   1.731   1.354   0.745 -0.6915 -0.4755  0.2768
 5941SOL    HW219040   1.666   1.491   0.734 -0.0713 -0.1386  0.7178
 5942SOL     OW19041   3.171   3.209   0.180  0.0783 -0.0768  0.4889
 5942SOL    HW119042   3.093   3.261   0.160  0.2598 -0.5351 -1.6320
 5942SOL    HW219043   3.141   3.145   0.245 -1.9955 -1.6916 -1.8441
 5943SOL     OW19044   2.616   1.557   0.755  0.8094 -0.3330 -0.3837
 5943SOL    HW119045   2.572   1.472   0.756  1.4249 -0.6583  0.6243
 5943SOL    HW219046   2.567   1.609   0.691 -1.5879 -0.3767  1.3004
 5944SOL     OW19047   2.834   2.604   1.653  0.4252  0.1237  0.3377
 5944SOL    HW119048   2.861   2.552   1.578 -0.4198  0.1436  0.0230
 5944SOL    HW219049   2.916   2.621   1.700  0.7333 -1.5005  0.4671
 5945SOL     OW19050   2.769   3.758   0.792  0.0982  0.4068  0.1130
 5945SOL    HW119051   2.731   3.751   0.704  0.0245  2.2369 -0.0287
 5945SOL    HW219052   2.811   3.843   0.794 -0.1581  0.5351  1.9607
 5946SOL     OW19053   2.197   2.786   0.923  0.8519  0.3165  0.2403
 5946SOL    HW119054   2.160   2.857   0.871 -0.0210 -0.9064 -0.9068
 5946SOL    HW219055   2.283   2.817   0.949  0.3130  1.9557  0.1703
 5947SOL     OW19056   3.275   4.270   1.170  0.9990 -0.3815  0.5552
 5947SOL    HW119057   3.297   4.235   1.084  3.0139 -0.0570  0.8924
 5947SOL    HW219058   3.184   4.244   1.184  1.2929 -2.2806 -0.7456
 5948SOL     OW19059   2.695   2.307   0.309 -0.2534 -0.3561  0.1724
 5948SOL    HW119060   2.661   2.282   0.395  1.1927 -0.7162  0.6675
 5948SOL    HW219061   2.678   2.232   0.253 -2.3089  0.3376 -0.2192
 5949SOL     OW19062   1.813   2.601   1.345  0.0757  0.1288 -0.1371
 5949SOL    HW119063   1.862   2.615   1.264 -0.2975 -0.5980 -0.4951
 5949SOL    HW219064   1.840   2.673   1.403 -0.9528  1.6911 -1.5134
 5950SOL     OW19065   2.239   2.144   1.409  0.4741 -0.1427 -0.4839
 5950SOL    HW119066   2.329   2.168   1.385  0.3999  0.6972  0.0311
 5950SOL    HW219067   2.214   2.209   1.475 -1.2962  0.9753 -2.1556
 5951SOL     OW19068   2.833   2.139   1.061 -0.4897 -0.3688  0.3139
 5951SOL    HW119069   2.786   2.211   1.102 -1.4394 -0.5281 -0.4459
 5951SOL    HW219070   2.767   2.070   1.052  0.2366 -1.0927  0.4389
 5952SOL     OW19071   2.775   1.881   0.634  0.2072 -0.2189  0.1023
 5952SOL    HW119072   2.696   1.904   0.586  0.5106  0.3375 -0.1446
 5952SOL    HW219073   2.821   1.819   0.577  0.7047  0.6555 -0.4751
 5953SOL     OW19074   3.266   3.072   1.179 -0.0074 -0.0607 -0.1359
 5953SOL    HW119075   3.268   3.017   1.258 -0.6550  1.6830  1.1718
 5953SOL    HW219076   3.174   3.078   1.156  0.0061  0.7375 -0.0270
 5954SOL     OW19077   3.220   2.661   0.948 -0.0357 -0.5004 -0.4758
 5954SOL    HW119078   3.213   2.592   1.014  1.7139 -0.5132 -0.2522
 5954SOL    HW219079   3.268   2.731   0.992  0.9374 -0.4104 -1.6367
 5955SOL     OW19080   3.427   2.495   0.667  0.1042  0.0912 -0.1479
 5955SOL    HW119081   3.449   2.587   0.683  1.2317  0.0255 -1.1620
 5955SOL    HW219082   3.457   2.479   0.577  0.3118 -1.3836  0.1639
 5956SOL     OW19083   3.043   3.346   0.453 -0.2756  0.0027  0.1741
 5956SOL    HW119084   2.990   3.277   0.492 -3.0618  0.9238 -1.6859
 5956SOL    HW219085   3.011   3.352   0.363  1.7648  1.9166 -0.4979
 5957SOL     OW19086   3.373   2.874   0.977 -0.4357  0.9184  0.1867
 5957SOL    HW119087   3.331   2.948   1.022 -0.4617 -0.6677  3.0035
 5957SOL    HW219088   3.467   2.887   0.993 -0.3859  0.7557  0.0268
 5958SOL     OW19089   3.372   2.364   0.228 -0.2309  0.3852 -0.3006
 5958SOL    HW119090   3.419   2.306   0.167  0.3378  0.0718  0.4236
 5958SOL    HW219091   3.345   2.438   0.174 -2.2223 -1.1618 -1.6115
 5959SOL     OW19092   2.299   2.086   0.734  0.0564 -0.4878  0.1139
 5959SOL    HW119093   2.235   2.080   0.805 -0.9900  2.5235 -0.4185
 5959SOL    HW219094   2.268   2.024   0.668 -1.4809 -0.1827  0.5143
 5960SOL     OW19095   3.478   3.288   1.254 -0.8956  0.0007  0.2869
 5960SOL    HW119096   3.394   3.245   1.238 -2.3137  2.6645 -0.0225
 5960SOL    HW219097   3.512   3.248   1.334 -3.1965 -0.1393  1.2480
 5961SOL     OW19098   2.741   3.270   1.553 -0.5441  0.1282  0.4516
 5961SOL    HW119099   2.647   3.263   1.542 -0.3243 -0.3342 -1.2572
 5961SOL    HW219100   2.774   3.181   1.542  0.4382  0.7981 -3.0325
 5962SOL     OW19101   3.289   3.510   1.374 -0.2560 -0.1696 -0.9861
 5962SOL    HW119102   3.306   3.602   1.351 -1.3613 -0.2776 -2.3987
 5962SOL    HW219103   3.362   3.462   1.335 -0.0496  0.0398 -0.8593
 5963SOL     OW19104   2.625   3.071   1.257  0.3323  0.2030  0.4849
 5963SOL    HW119105   2.584   3.032   1.335 -1.1065 -4.5838 -2.2839
 5963SOL    HW219106   2.716   3.042   1.260  0.4369  0.5359  0.6279
 5964SOL     OW19107   3.796   3.433   1.148  0.4126 -0.4770 -0.2496
 5964SOL    HW119108   3.864   3.427   1.215 -0.0191  0.9371  0.3461
 5964SOL    HW219109   3.842   3.459   1.068  0.7901 -1.2173 -0.2829
 5965SOL     OW19110   2.529   2.290   1.641  0.0292  0.3938  0.5646
 5965SOL    HW119111   2.517   2.355   1.572  0.3262  1.8858  1.8704
 5965SOL    HW219112   2.572   2.216   1.597 -0.9130  0.7717 -1.0865
 5966SOL     OW19113   2.827   3.023   1.589  0.2419 -0.3758 -0.6616
 5966SOL    HW119114   2.892   2.956   1.611  0.4872 -0.6691 -2.1462
 5966SOL    HW219115   2.746   2.973   1.573  0.4129 -0.3373 -1.7228
 5967SOL     OW19116   2.983   3.087   0.791 -0.3872  1.0798  0.3158
 5967SOL    HW119117   2.976   3.007   0.739  1.7816  0.9564  0.1382
 5967SOL    HW219118   2.931   3.152   0.744 -1.1734  0.1123 -0.1842
 5968SOL     OW19119   1.801   2.784   1.588  0.5113 -0.4963 -0.8219
 5968SOL    HW119120   1.893   2.776   1.613  0.8469 -0.0934 -1.8751
 5968SOL    HW219121   1.778   2.874   1.608  0.9739  0.0303 -2.4835
 5969SOL     OW19122   3.565   2.521   1.215 -0.2125 -0.0821  0.0167
 5969SOL    HW119123   3.661   2.525   1.207 -0.2657  1.4421 -0.1019
 5969SOL    HW219124   3.538   2.465   1.142  0.5056  0.4616 -0.6831
 5970SOL     OW19125   1.598   3.580   1.665  0.3583  0.4531  0.1975
 5970SOL    HW119126   1.607   3.525   1.743  1.5960  0.9315  0.4102
 5970SOL    HW219127   1.655   3.541   1.600 -2.7985 -1.6667 -1.5704
 5971SOL     OW19128   2.065   3.000   0.750 -0.1397 -0.0506  0.2400
 5971SOL    HW119129   2.062   3.096   0.757  2.2459  0.2622 -1.4910
 5971SOL    HW219130   1.980   2.976   0.714 -0.3009  1.6117 -0.6224
 5972SOL     OW19131   2.648   2.275   0.781 -0.4071  0.2057 -0.1066
 5972SOL    HW119132   2.639   2.293   0.875 -1.0998 -0.7247  0.0202
 5972SOL    HW219133   2.741   2.289   0.763  0.6781 -3.3854  1.6085
 5973SOL     OW19134   2.782   3.347   0.657  0.4883 -0.2370  0.3912
 5973SOL    HW119135   2.842   3.385   0.721  0.2316 -0.1778  0.5985
 5973SOL    HW219136   2.774   3.414   0.589  2.0027 -0.9240 -0.5125
 5974SOL     OW19137   3.004   3.537   1.316  0.0075  0.1771 -0.4419
 5974SOL    HW119138   3.092   3.532   1.354  0.0225  1.8883 -0.1798
 5974SOL    HW219139   2.945   3.532   1.390 -0.0308  1.2556 -0.3846
 5975SOL     OW19140   3.785   2.669   0.334  0.4198 -0.6850 -0.0490
 5975SOL    HW119141   3.713   2.609   0.313  0.4628 -1.3985  1.6992
 5975SOL    HW219142   3.801   2.656   0.427  0.7171  1.7881  0.2937
 5976SOL     OW19143   1.774   3.436   1.510  0.8062 -0.5961  0.2473
 5976SOL    HW119144   1.733   3.372   1.452  2.0141 -0.5644 -0.6835
 5976SOL    HW219145   1.792   3.387   1.590  1.9162 -1.5040 -0.5328
 5977SOL     OW19146   2.364   2.601   1.810  0.0067  0.5694  0.0735
 5977SOL    HW119147   2.374   2.689   1.772 -0.2776  0.7206  0.3352
 5977SOL    HW219148   2.444   2.587   1.861  0.4265  0.3296 -0.6462
 5978SOL     OW19149   3.390   2.680   1.789  0.4627 -0.1072  0.9377
 5978SOL    HW119150   3.440   2.677   1.707 -0.4927  1.5139  0.2521
 5978SOL    HW219151   3.441   2.736   1.847  1.3115 -1.5296  1.6149
 5979SOL     OW19152   2.419   1.849   1.690 -0.1990 -0.1065  0.9442
 5979SOL    HW119153   2.485   1.879   1.627 -1.3044 -0.1653 -0.2985
 5979SOL    HW219154   2.469   1.802   1.756  0.9031 -1.3328 -0.6752
 5980SOL     OW19155   2.597   1.812   1.944 -0.4518 -0.4390 -0.0806
 5980SOL    HW119156   2.540   1.788   2.017  0.6077 -1.9140  0.2906
 5980SOL    HW219157   2.612   1.906   1.955 -1.5850 -0.3249  0.6559
 5981SOL     OW19158   2.658   2.704   1.018 -0.0980 -0.0840 -0.7452
 5981SOL    HW119159   2.748   2.690   1.047 -0.3971 -1.4705 -0.4477
 5981SOL    HW219160   2.666   2.771   0.949  1.5525 -2.2720 -2.8636
 5982SOL     OW19161   3.489   2.790   1.281 -0.3852 -0.0057  0.6733
 5982SOL    HW119162   3.541   2.853   1.230 -1.5705  0.5038  0.0569
 5982SOL    HW219163   3.501   2.706   1.235  1.6708 -0.4046  1.8347
 5983SOL     OW19164   2.769   2.587   0.289  0.2262  0.0411  0.0243
 5983SOL    HW119165   2.764   2.618   0.380 -0.6842 -0.3206  0.1097
 5983SOL    HW219166   2.758   2.492   0.296  2.1955 -0.2428 -0.3016
 5984SOL     OW19167   1.832   1.831   1.143  0.2560 -0.7585  0.0471
 5984SOL    HW119168   1.906   1.772   1.126  1.1215  0.2252  0.3454
 5984SOL    HW219169   1.778   1.825   1.064  0.9737 -1.0195 -0.4352
 5985SOL     OW19170   1.684   3.009   1.698 -0.4613  0.1854  0.5478
 5985SOL    HW119171   1.623   3.079   1.719  0.5420  1.3340 -0.2037
 5985SOL    HW219172   1.703   2.967   1.782 -0.8074  1.0541  1.0707
 5986SOL     OW19173   2.442   2.774   1.188 -0.0121  0.3536 -0.5126
 5986SOL    HW119174   2.508   2.843   1.199 -0.9498  1.1357  0.4676
 5986SOL    HW219175   2.486   2.707   1.137  1.2524  1.2531 -0.6608
 5987SOL     OW19176   3.625   2.942   1.657 -0.0153  0.1208  0.2579
 5987SOL    HW119177   3.619   2.853   1.623  0.0219  0.6425 -1.2013
 5987SOL    HW219178   3.571   2.942   1.736  0.0894 -1.2156  0.3443
 5988SOL     OW19179   2.133   1.991   0.924  0.5905 -0.5849  0.6793
 5988SOL    HW119180   2.143   1.978   1.018 -0.8946  0.0875  0.9571
 5988SOL    HW219181   2.041   1.972   0.907  0.4665  0.8146 -0.3720
 5989SOL     OW19182   3.556   2.378   0.444 -0.5400  0.1313  0.3875
 5989SOL    HW119183   3.498   2.367   0.368 -1.7137 -0.9338  1.4057
 5989SOL    HW219184   3.612   2.300   0.443 -0.1162  0.4322  0.2621
 5990SOL     OW19185   3.015   2.463   1.465 -0.3619  0.3144 -0.5621
 5990SOL    HW119186   3.030   2.369   1.476 -1.1790  0.3400  1.1773
 5990SOL    HW219187   3.103   2.500   1.456  0.0524 -0.4905  0.0177
 5991SOL     OW19188   2.996   3.006   1.847 -0.4507 -0.4956  1.2543
 5991SOL    HW119189   2.998   3.096   1.816  0.0060 -0.8079  0.3508
 5991SOL    HW219190   2.905   2.991   1.872 -1.2469 -0.6946 -1.4145
 5992SOL     OW19191   3.870   3.191   1.490 -0.2585 -0.2498  0.2435
 5992SOL    HW119192   3.874   3.209   1.584 -0.0004  1.0879  0.0073
 5992SOL    HW219193   3.929   3.257   1.451  0.5399 -1.5102 -0.7692
 5993SOL     OW19194   2.229   2.453   2.205 -0.2393 -0.4789  0.5343
 5993SOL    HW119195   2.316   2.419   2.183 -0.7050 -1.9388  0.8379
 5993SOL    HW219196   2.245   2.519   2.273  0.7714  0.6500 -0.7466
 5994SOL     OW19197   3.685   1.949   8.613 -0.1676  0.5807 -0.9702
 5994SOL    HW119198   3.619   1.988   8.671 -1.5567  0.3353 -2.3119
 5994SOL    HW219199   3.767   1.991   8.639 -0.6355  0.2258  1.3864
 5995SOL     OW19200   3.394   2.784   0.249 -0.5716 -0.2875 -0.4942
 5995SOL    HW119201   3.324   2.842   0.219 -3.6861 -2.2233  2.3840
 5995SOL    HW219202   3.430   2.827   0.327 -0.3465 -0.5609 -0.4443
 5996SOL     OW19203   3.001   3.108   1.064 -0.1579  0.3328 -0.2489
 5996SOL    HW119204   2.998   3.204   1.058 -1.8308  0.2921 -0.6136
 5996SOL    HW219205   2.989   3.078   0.973  0.0282 -0.2216 -0.0935
 5997SOL     OW19206   1.863   3.057   1.297 -0.1952 -0.4285 -0.2125
 5997SOL    HW119207   1.930   2.998   1.334  0.3489  1.2663  1.6567
 5997SOL    HW219208   1.898   3.081   1.211 -0.4962 -2.8705 -1.0941
 5998SOL     OW19209   1.989   2.782   1.203  0.1473  0.1922  0.4290
 5998SOL    HW119210   1.978   2.832   1.122 -0.0808  0.2097  0.4716
 5998SOL    HW219211   2.073   2.812   1.238 -0.6168  1.5514  1.1673
 5999SOL     OW19212   2.732   2.032   1.887 -0.0269  0.3626 -0.0220
 5999SOL    HW119213   2.807   1.986   1.926 -0.6269 -1.6609 -1.1457
 5999SOL    HW219214   2.737   2.120   1.924  1.9426 -0.1976  1.2116
 6000SOL     OW19215   2.672   2.053   1.608 -0.3485  0.0189  0.2963
 6000SOL    HW119216   2.689   2.049   1.702 -0.0012 -0.2210  0.2281
 6000SOL    HW219217   2.747   2.009   1.568  0.0133  1.0065 -0.1529
 6001SOL     OW19218   1.684   3.973   1.060 -0.2609  0.2282  0.7985
 6001SOL    HW119219   1.775   3.946   1.049 -0.7468 -1.1693 -0.1482
 6001SOL    HW219220   1.634   3.908   1.011 -1.6321  2.1353 -0.4941
 6002SOL     OW19221   1.861   3.442   1.069  0.3386 -0.2224 -0.4856
 6002SOL    HW119222   1.900   3.520   1.030  0.0291 -0.1789 -0.7101
 6002SOL    HW219223   1.793   3.475   1.128  1.7911 -0.2026  1.2811
 6003SOL     OW19224   3.054   2.787   1.215  0.1165 -0.1853  0.2230
 6003SOL    HW119225   3.012   2.859   1.262  2.4715  0.4767  1.4600
 6003SOL    HW219226   3.014   2.789   1.128  1.4232  3.9874 -0.5140
 6004SOL     OW19227   1.735   2.576   0.994 -0.1812  0.0595 -0.3669
 6004SOL    HW119228   1.652   2.622   1.006 -0.5266  0.2604 -2.8971
 6004SOL    HW219229   1.776   2.619   0.918  3.0141  0.9669  1.6696
 6005SOL     OW19230   2.045   2.240   2.188  0.3782 -0.1657  0.5383
 6005SOL    HW119231   2.023   2.234   2.095  0.0763 -0.4760  0.6281
 6005SOL    HW219232   2.109   2.311   2.192  0.3333 -0.0923  0.1050
 6006SOL     OW19233   3.400   2.770   2.106 -0.0597  0.2048  0.1770
 6006SOL    HW119234   3.337   2.823   2.057 -0.3866  0.3776  0.7681
 6006SOL    HW219235   3.467   2.832   2.134  0.1330  0.1042 -0.0607
 6007SOL     OW19236   2.873   2.408   0.685  0.0984 -0.1289  0.4284
 6007SOL    HW119237   2.879   2.328   0.633 -0.1747 -0.9570  1.6351
 6007SOL    HW219238   2.960   2.416   0.726 -0.0002 -0.0314  0.6206
 6008SOL     OW19239   3.811   2.638   1.132  0.3620  0.2192  0.6964
 6008SOL    HW119240   3.752   2.606   1.063  0.2795  0.0065  0.8645
 6008SOL    HW219241   3.864   2.704   1.089 -1.1655  1.6735  0.9662
 6009SOL     OW19242   2.201   3.681   1.942  0.4207 -0.1490  0.7990
 6009SOL    HW119243   2.198   3.776   1.935 -0.3192 -0.0917  1.7543
 6009SOL    HW219244   2.245   3.664   2.025  2.5294 -0.7032 -0.3420
 6010SOL     OW19245   2.473   2.302   1.307  0.3108  0.1738  0.1193
 6010SOL    HW119246   2.568   2.312   1.310  0.4950 -0.3463 -2.3242
 6010SOL    HW219247   2.457   2.239   1.237 -1.8045 -0.7118  1.2946
 6011SOL     OW19248   2.764   3.533   1.508  0.2740  0.5102  0.2763
 6011SOL    HW119249   2.775   3.442   1.535  0.9283  0.5350  0.1066
 6011SOL    HW219250   2.669   3.545   1.502  0.1740 -0.0344  0.7168
 6012SOL     OW19251   2.273   2.348   0.668 -0.2487 -0.3782  0.2615
 6012SOL    HW119252   2.291   2.257   0.693 -1.8487 -0.3738  1.5420
 6012SOL    HW219253   2.250   2.392   0.750  1.3140  1.4385 -0.1924
 6013SOL     OW19254   1.962   3.117   1.890 -0.3303  0.1906  0.2489
 6013SOL    HW119255   1.937   3.027   1.869  0.4743 -0.3672  1.5554
 6013SOL    HW219256   2.057   3.120   1.875 -0.5256  1.1572 -0.8855
 6014SOL     OW19257   3.510   3.335   0.902  0.0982  0.2184 -0.5777
 6014SOL    HW119258   3.453   3.359   0.975  1.6583  3.5887 -0.3049
 6014SOL    HW219259   3.591   3.305   0.943  0.3583  0.4484 -0.9138
 6015SOL     OW19260   3.010   2.604   0.132  0.3450 -0.3560 -0.3843
 6015SOL    HW119261   3.029   2.516   0.098  1.0034 -0.2890 -0.2048
 6015SOL    HW219262   2.955   2.588   0.209  1.6811 -0.7156  0.5344
 6016SOL     OW19263   3.363   3.531   1.019  0.1112 -0.5731  0.4733
 6016SOL    HW119264   3.278   3.541   1.062  1.0685  1.2351  2.1081
 6016SOL    HW219265   3.362   3.595   0.948  0.5577  0.4099  1.3266
 6017SOL     OW19266   2.733   3.672   1.171 -0.2031 -0.5403 -0.5372
 6017SOL    HW119267   2.774   3.625   1.244 -1.2721 -0.6361  0.0124
 6017SOL    HW219268   2.780   3.756   1.169  0.7181 -1.0445 -0.5873
 6018SOL     OW19269   1.664   3.171   1.455  0.3720 -0.1297  0.1796
 6018SOL    HW119270   1.704   3.139   1.374  1.3472  0.1953  0.5150
 6018SOL    HW219271   1.670   3.097   1.515 -2.0272 -1.0156 -0.5513
 6019SOL     OW19272   2.775   3.210   2.162 -0.0403  0.1612 -0.7451
 6019SOL    HW119273   2.711   3.146   2.132 -0.6262 -0.8608  2.3135
 6019SOL    HW219274   2.841   3.157   2.208 -0.1445  1.6181  1.2199
 6020SOL     OW19275   2.598   2.001   0.224  0.5057 -0.2257 -0.1850
 6020SOL    HW119276   2.593   2.036   0.136 -1.4723 -2.2207 -0.9658
 6020SOL    HW219277   2.640   1.916   0.214  0.6297 -0.2993  0.8564
 6021SOL     OW19278   3.421   1.984   0.721 -0.6277 -0.0485 -0.0946
 6021SOL    HW119279   3.365   2.053   0.685 -0.5562  1.3439  2.2306
 6021SOL    HW219280   3.372   1.951   0.797  0.4957 -0.7213  0.3600
 6022SOL     OW19281   3.191   3.895   0.811  0.1183 -0.1342  0.2066
 6022SOL    HW119282   3.134   3.935   0.876  0.7007  0.6298  0.2612
 6022SOL    HW219283   3.147   3.909   0.728  0.9838  1.9644  0.0357
 6023SOL     OW19284   1.933   3.613   2.022 -0.0405 -0.3029 -0.2002
 6023SOL    HW119285   2.007   3.672   2.010  0.3464 -1.2365 -3.4682
 6023SOL    HW219286   1.973   3.526   2.027 -0.8387 -0.8291 -2.1213
 6024SOL     OW19287   3.446   3.202   0.663 -0.1219 -0.3815 -0.0436
 6024SOL    HW119288   3.469   3.263   0.734 -1.7687 -0.6503  0.7711
 6024SOL    HW219289   3.362   3.164   0.690 -0.3735 -1.1350 -1.7442
 6025SOL     OW19290   2.392   3.388   1.798 -0.6643 -0.0386  0.2138
 6025SOL    HW119291   2.326   3.443   1.756  0.6025  1.2856 -0.1211
 6025SOL    HW219292   2.466   3.447   1.814 -0.6936 -0.6751  3.4313
 6026SOL     OW19293   2.502   3.320   8.770 -0.0991  0.3588 -0.6480
 6026SOL    HW119294   2.593   3.293   8.760  0.1284  0.6986  0.3505
 6026SOL    HW219295   2.485   3.378   8.695 -0.1404 -1.3058 -1.9762
 6027SOL     OW19296   3.556   3.592   1.184  0.1360  0.1371  0.2172
 6027SOL    HW119297   3.624   3.524   1.184  0.2674  0.1942  2.4173
 6027SOL    HW219298   3.484   3.554   1.134  1.2529 -0.4633 -1.0094
 6028SOL     OW19299   3.457   2.292   1.004 -0.5166 -0.2064 -0.7557
 6028SOL    HW119300   3.420   2.212   1.041 -1.1497  0.1411 -0.6295
 6028SOL    HW219301   3.487   2.266   0.917  1.0930 -1.0601  0.0121
 6029SOL     OW19302   2.221   2.518   0.881  0.1067 -0.3440  0.4601
 6029SOL    HW119303   2.188   2.470   0.957  2.3118 -0.1358  1.6476
 6029SOL    HW219304   2.212   2.610   0.905  1.4023 -0.2792  0.8147
 6030SOL     OW19305   3.558   3.111   0.365 -0.6148 -0.1863  0.1097
 6030SOL    HW119306   3.572   3.161   0.445 -0.1570 -1.1174  0.6369
 6030SOL    HW219307   3.532   3.176   0.300  2.4104  1.1452  0.0753
 6031SOL     OW19308   2.076   3.357   1.289  0.1166  0.6753 -0.2785
 6031SOL    HW119309   2.085   3.266   1.261 -0.6261 -0.2107  2.1315
 6031SOL    HW219310   1.992   3.385   1.253 -0.1713  0.0332 -0.1183
 6032SOL     OW19311   3.373   2.910   0.513 -0.4531 -0.0368  0.5606
 6032SOL    HW119312   3.426   2.988   0.495 -0.0788 -0.5227 -0.5245
 6032SOL    HW219313   3.304   2.941   0.571 -0.2248  1.0782  0.2551
 6033SOL     OW19314   3.288   3.658   0.141  0.2478  0.4189  0.3396
 6033SOL    HW119315   3.350   3.677   0.212 -0.0853  1.5635  0.3451
 6033SOL    HW219316   3.293   3.735   0.084  1.2475 -0.8979 -1.4452
 6034SOL     OW19317   1.844   3.349   1.756  0.1600 -0.0298 -0.0116
 6034SOL    HW119318   1.767   3.364   1.810  0.5988 -0.9683  0.9158
 6034SOL    HW219319   1.893   3.281   1.802  2.1194  1.3307  0.0410
 6035SOL     OW19320   3.138   3.648   1.127  0.2121  0.0103 -0.6291
 6035SOL    HW119321   3.065   3.611   1.177  1.5517  0.2785  1.6915
 6035SOL    HW219322   3.188   3.698   1.192  0.7424  2.4741 -2.7845
 6036SOL     OW19323   3.246   3.039   0.750  0.1287  0.2008  0.7022
 6036SOL    HW119324   3.160   3.075   0.772 -0.9258 -1.3138 -0.6883
 6036SOL    HW219325   3.249   2.956   0.798  0.3767 -0.2275 -0.0429
 6037SOL     OW19326   3.317   2.070   1.100 -0.2960 -0.1611  0.0379
 6037SOL    HW119327   3.224   2.055   1.089 -0.5743  0.9800  0.6937
 6037SOL    HW219328   3.339   2.026   1.182 -0.1603 -0.7561 -0.3075
 6038SOL     OW19329   2.451   3.309   0.656 -0.6117 -0.4699 -0.3626
 6038SOL    HW119330   2.387   3.354   0.601 -2.5011 -1.7803  0.6254
 6038SOL    HW219331   2.519   3.374   0.673 -1.6045  0.9520 -1.5823
 6039SOL     OW19332   3.877   2.671   1.404  0.3280  0.6520  0.4264
 6039SOL    HW119333   3.958   2.714   1.432  2.5287 -1.8148 -1.6523
 6039SOL    HW219334   3.879   2.676   1.309 -1.8828  0.2886  0.3211
 6040SOL     OW19335   2.147   3.016   0.509 -0.3770 -0.3182 -0.4482
 6040SOL    HW119336   2.238   3.041   0.499 -0.5961  0.4575 -0.5741
 6040SOL    HW219337   2.139   2.991   0.601 -0.2571  0.5642 -0.1897
 6041SOL     OW19338   1.656   3.012   1.989 -0.2359 -0.2451 -0.3051
 6041SOL    HW119339   1.735   2.961   2.006 -0.1115 -0.1819 -0.6751
 6041SOL    HW219340   1.589   2.972   2.044  0.2335  0.1934  0.6042
 6042SOL     OW19341   2.473   2.505   1.454 -0.2502 -0.1556 -0.1770
 6042SOL    HW119342   2.424   2.426   1.430 -2.0655  0.3548  1.5667
 6042SOL    HW219343   2.436   2.574   1.397  0.8933 -0.3932 -1.2534
 6043SOL     OW19344   2.445   1.748   0.593 -0.1262  0.0837 -0.0863
 6043SOL    HW119345   2.358   1.758   0.632 -0.0607  0.4364 -0.0253
 6043SOL    HW219346   2.457   1.827   0.541 -0.0525 -0.2066 -0.5147
 6044SOL     OW19347   3.354   2.839   1.512  0.6131  0.7936 -0.0146
 6044SOL    HW119348   3.370   2.924   1.553 -0.1436  0.2530  1.4812
 6044SOL    HW219349   3.408   2.840   1.433  0.9180  2.5017  0.1717
 6045SOL     OW19350   1.973   2.396   0.594 -0.2209 -0.2988  0.0113
 6045SOL    HW119351   2.036   2.339   0.551 -0.9545 -0.3360 -1.0463
 6045SOL    HW219352   1.957   2.355   0.679 -0.4600 -1.4750 -0.5891
 6046SOL     OW19353   3.420   3.294   0.225 -0.2450  0.7191 -0.2366
 6046SOL    HW119354   3.386   3.365   0.280 -1.5124  0.2735 -0.4271
 6046SOL    HW219355   3.343   3.256   0.183  0.5770  0.2833 -1.4208
 6047SOL     OW19356   2.228   2.901   1.329  0.0490  0.9357  0.1812
 6047SOL    HW119357   2.214   2.986   1.287  0.1167  1.3352  0.9478
 6047SOL    HW219358   2.305   2.864   1.284 -1.7817 -0.1343 -2.2879
 6048SOL     OW19359   2.953   3.856   1.009 -0.4595  0.2830 -0.1356
 6048SOL    HW119360   2.885   3.796   0.979  0.1234 -0.4746  0.0115
 6048SOL    HW219361   3.017   3.800   1.053 -0.3531  1.1380  0.8464
 6049SOL     OW19362   2.689   2.455   1.823 -0.2112  0.5990  0.4837
 6049SOL    HW119363   2.627   2.419   1.761  0.6730  2.3715 -1.5512
 6049SOL    HW219364   2.750   2.506   1.770  0.4005  2.5075  2.8286
 6050SOL     OW19365   3.604   3.155   1.444  0.1354  0.0758  0.2061
 6050SOL    HW119366   3.605   3.080   1.505 -0.5675 -0.7060 -0.7061
 6050SOL    HW219367   3.696   3.171   1.424  0.5643  1.5990  2.9177
 6051SOL     OW19368   2.115   3.544   1.730 -0.0765  0.0016  0.2472
 6051SOL    HW119369   2.042   3.487   1.753  1.7328 -2.2510  0.8746
 6051SOL    HW219370   2.133   3.593   1.810  1.5704 -2.4604  1.5257
 6052SOL     OW19371   3.625   2.928   1.083 -0.5579  0.1275  0.0143
 6052SOL    HW119372   3.708   2.883   1.094  0.3618  1.6905 -0.2139
 6052SOL    HW219373   3.649   3.020   1.070 -2.1733  0.3228 -2.2771
 6053SOL     OW19374   3.231   2.156   0.391  0.7077 -0.0948 -0.0324
 6053SOL    HW119375   3.241   2.189   0.480 -0.3873  1.8141 -0.5508
 6053SOL    HW219376   3.280   2.218   0.336 -0.9892  0.4638 -0.9980
 6054SOL     OW19377   3.049   1.944   1.074 -0.7740 -0.1759 -0.1539
 6054SOL    HW119378   2.985   2.015   1.075 -1.5317 -0.8380 -0.0568
 6054SOL    HW219379   3.085   1.944   0.986  0.7180  1.5964  0.4000
 6055SOL     OW19380   3.707   1.995   1.304 -0.2911 -0.5643  0.2096
 6055SOL    HW119381   3.742   2.084   1.300 -0.2501 -0.6115 -0.8393
 6055SOL    HW219382   3.730   1.957   1.219  1.2594 -2.1817  1.2937
 6056SOL     OW19383   3.628   2.680   1.592 -0.0237  0.1320 -0.2049
 6056SOL    HW119384   3.708   2.688   1.540 -0.0270 -0.7705 -0.3653
 6056SOL    HW219385   3.593   2.594   1.569  1.5870 -1.7754  3.4954
 6057SOL     OW19386   3.056   3.015   0.340  0.0073 -0.7955 -0.2660
 6057SOL    HW119387   3.012   3.088   0.384  0.5064  0.0615 -1.1521
 6057SOL    HW219388   3.054   2.943   0.404  0.7118  0.4083  1.1663
 6058SOL     OW19389   2.291   3.511   1.264  0.5605 -0.2652 -0.0567
 6058SOL    HW119390   2.364   3.449   1.257 -0.6473 -1.6314 -1.9428
 6058SOL    HW219391   2.214   3.455   1.272 -0.3881  1.1152  0.9465
 6059SOL     OW19392   2.946   2.398   1.142 -0.0017  0.2087  0.2357
 6059SOL    HW119393   2.993   2.477   1.171  0.7943  0.3182 -1.2597
 6059SOL    HW219394   2.969   2.331   1.206  3.1630 -0.0457 -1.0112
 6060SOL     OW19395   3.594   2.912   0.071  0.0184  0.0841 -0.4152
 6060SOL    HW119396   3.512   2.865   0.084  0.3135 -0.7330 -1.3750
 6060SOL    HW219397   3.655   2.846   0.037  0.8313  0.8660 -0.5282
 6061SOL     OW19398   3.472   3.583   0.746 -0.5142  0.3178  0.6036
 6061SOL    HW119399   3.519   3.517   0.796 -0.6019  0.1655  0.4841
 6061SOL    HW219400   3.389   3.542   0.723  0.5862 -0.7045 -2.0772
 6062SOL     OW19401   1.783   3.275   2.083  0.1734  0.4714 -0.0778
 6062SOL    HW119402   1.765   3.184   2.062 -1.9279  0.3123  1.9869
 6062SOL    HW219403   1.709   3.323   2.045  1.0583  1.2993 -0.8122
 6063SOL     OW19404   1.740   3.411   0.826 -0.0909  0.0987 -0.4942
 6063SOL    HW119405   1.792   3.386   0.902  0.1935  1.1901 -0.3149
 6063SOL    HW219406   1.686   3.333   0.807 -1.3977  0.3373  1.8354
 6064SOL     OW19407   2.606   3.222   1.962  0.6528 -0.1284  0.0880
 6064SOL    HW119408   2.660   3.288   2.006  1.4870  0.2740 -1.4718
 6064SOL    HW219409   2.534   3.272   1.924 -0.2249 -0.5135  1.2036
 6065SOL     OW19410   3.917   2.429   1.523 -0.0274 -0.7768 -0.2593
 6065SOL    HW119411   3.897   2.354   1.468  1.9201 -0.8849 -0.8575
 6065SOL    HW219412   3.893   2.505   1.469  1.6967 -0.8855 -1.2470
 6066SOL     OW19413   2.570   2.031   0.895 -0.1150  0.5037 -0.4167
 6066SOL    HW119414   2.488   2.064   0.858 -0.8200 -0.9059 -0.1905
 6066SOL    HW219415   2.638   2.075   0.845 -1.0233  0.0489 -2.1381
 6067SOL     OW19416   3.996   3.482   0.969  0.5947  0.5552 -0.4435
 6067SOL    HW119417   3.983   3.541   0.895  0.2294 -0.7862 -1.4681
 6067SOL    HW219418   4.079   3.510   1.007  1.0528  0.9031 -1.6775
 6068SOL     OW19419   2.060   2.907   1.581 -0.2830  0.1995 -0.0358
 6068SOL    HW119420   2.131   2.921   1.642  0.4687 -3.0368  0.0227
 6068SOL    HW219421   2.103   2.899   1.496 -1.1582  2.9937 -0.8554
 6069SOL     OW19422   2.643   3.454   1.015 -0.2096 -0.3173 -0.2045
 6069SOL    HW119423   2.666   3.529   1.070 -2.7356 -0.0451  0.6376
 6069SOL    HW219424   2.727   3.414   0.991  1.1509  2.1125  0.2378
 6070SOL     OW19425   3.266   2.102   1.439 -0.5123  0.3051  0.0781
 6070SOL    HW119426   3.299   2.067   1.522  1.6173 -1.0392 -1.2424
 6070SOL    HW219427   3.317   2.057   1.372 -2.7337  0.7103 -2.0437
 6071SOL     OW19428   3.095   1.741   1.277 -0.1739  0.2222  0.9421
 6071SOL    HW119429   3.076   1.753   1.370 -0.4278  0.0572  0.9133
 6071SOL    HW219430   3.064   1.821   1.235 -1.2046 -0.2215  0.8409
 6072SOL     OW19431   1.919   3.173   0.426  0.4976 -0.5150 -0.2609
 6072SOL    HW119432   1.843   3.129   0.463  0.0287  0.2255 -0.3448
 6072SOL    HW219433   1.994   3.122   0.459  0.0161 -0.7646  0.4713
 6073SOL     OW19434   2.478   3.578   1.517  0.2523  0.3433 -0.2459
 6073SOL    HW119435   2.451   3.615   1.600 -0.2013 -1.3726  0.4129
 6073SOL    HW219436   2.402   3.528   1.487  1.1995 -1.0111 -0.4926
 6074SOL     OW19437   3.179   1.869   0.101 -0.3152 -0.3690  0.2309
 6074SOL    HW119438   3.217   1.866   0.014  0.9784  1.4339  0.6730
 6074SOL    HW219439   3.251   1.844   0.160 -0.0853  1.8744  0.9957
 6075SOL     OW19440   3.272   2.254   0.638 -0.4317 -0.0809  0.2677
 6075SOL    HW119441   3.330   2.330   0.648 -0.4690 -0.1779  1.3757
 6075SOL    HW219442   3.202   2.270   0.701 -0.0633 -1.3759  1.0365
 6076SOL     OW19443   3.733   2.317   1.045 -0.2897  0.1864 -0.1157
 6076SOL    HW119444   3.688   2.367   0.977  0.0592 -0.5171 -0.8742
 6076SOL    HW219445   3.808   2.277   1.000 -0.2294 -0.5357  0.6119
 6077SOL     OW19446   2.306   2.652   0.147  0.4941  0.1916 -0.2733
 6077SOL    HW119447   2.231   2.657   0.087  0.3754 -1.1051 -0.2823
 6077SOL    HW219448   2.279   2.587   0.212  0.8866  1.1041  0.8153
 6078SOL     OW19449   2.616   3.768   0.552 -0.2907 -0.4322  0.0074
 6078SOL    HW119450   2.656   3.708   0.489 -1.1164 -0.9894 -0.0015
 6078SOL    HW219451   2.591   3.845   0.500  0.3065 -0.2921 -0.0752
 6079SOL     OW19452   2.040   2.186   1.891 -0.3894 -0.4027 -0.4842
 6079SOL    HW119453   2.048   2.246   1.817  2.4410 -1.1430 -0.8766
 6079SOL    HW219454   2.114   2.126   1.882  0.4294 -0.2058  3.2028
 6080SOL     OW19455   2.178   2.128   3.246 -0.6607  0.6458 -0.0020
 6080SOL    HW119456   2.141   2.044   3.274  0.6656  0.2904  0.7462
 6080SOL    HW219457   2.179   2.182   3.325  0.1864  0.7279 -0.0579
 6081SOL     OW19458   1.731   1.904   2.444  0.2340  0.5568 -0.2882
 6081SOL    HW119459   1.653   1.959   2.430  0.2213  0.1444 -2.0339
 6081SOL    HW219460   1.708   1.819   2.407  1.7590  0.6398 -1.5475
 6082SOL     OW19461   3.044   3.189   3.384 -0.2575 -0.1154 -0.8676
 6082SOL    HW119462   2.972   3.217   3.441  0.2328  2.5542 -1.4622
 6082SOL    HW219463   3.123   3.204   3.436  0.0356 -0.5368 -1.1805
 6083SOL     OW19464   3.814   3.571   2.510 -0.2512  0.2421 -0.1769
 6083SOL    HW119465   3.804   3.665   2.525 -0.8821  0.2065 -0.3352
 6083SOL    HW219466   3.724   3.537   2.511 -0.0984 -0.2103 -1.0880
 6084SOL     OW19467   3.098   2.381   2.553 -0.5060 -0.6368 -0.1665
 6084SOL    HW119468   3.061   2.456   2.599 -0.6218 -0.5949 -0.3298
 6084SOL    HW219469   3.071   2.392   2.462  1.4881  0.4094 -0.6932
 6085SOL     OW19470   3.718   2.859   1.960 -0.0703  0.4252 -0.3302
 6085SOL    HW119471   3.751   2.846   1.871  0.6933  0.2059 -0.0268
 6085SOL    HW219472   3.637   2.909   1.949 -0.4863 -0.4125 -1.2054
 6086SOL     OW19473   2.729   2.531   2.856  0.4477 -0.6029 -0.3134
 6086SOL    HW119474   2.757   2.584   2.782  0.1791  0.0722  0.0594
 6086SOL    HW219475   2.803   2.472   2.873  0.6112 -0.5868 -0.9438
 6087SOL     OW19476   3.251   2.503   3.694 -0.4492 -0.0119 -0.0987
 6087SOL    HW119477   3.214   2.519   3.607  0.1380  0.6148 -0.2485
 6087SOL    HW219478   3.239   2.586   3.740 -1.0864 -0.4573  0.5498
 6088SOL     OW19479   2.512   2.743   2.490 -0.2116 -0.1023  0.0215
 6088SOL    HW119480   2.531   2.835   2.511 -1.2159  0.2747 -0.6743
 6088SOL    HW219481   2.590   2.696   2.521  0.3946  0.9936  0.2437
 6089SOL     OW19482   2.349   2.626   4.171 -0.2787  0.6796  0.2653
 6089SOL    HW119483   2.362   2.584   4.256  0.4877 -0.9861 -0.6253
 6089SOL    HW219484   2.437   2.633   4.134 -0.7690 -0.3919 -1.1787
 6090SOL     OW19485   2.461   3.262   2.746 -0.2786 -0.3839 -0.2586
 6090SOL    HW119486   2.548   3.273   2.785 -0.8595 -1.4976  1.4532
 6090SOL    HW219487   2.416   3.345   2.765  0.5116  0.3689 -1.5362
 6091SOL     OW19488   3.529   3.409   2.950 -0.2929  0.1414  0.4450
 6091SOL    HW119489   3.623   3.419   2.934 -0.4840  3.4795  0.7397
 6091SOL    HW219490   3.517   3.437   3.041 -1.5071 -0.9228  0.6404
 6092SOL     OW19491   2.791   2.290   3.053  0.0676 -0.0098  0.8476
 6092SOL    HW119492   2.699   2.265   3.055 -0.3038  0.9543 -1.2534
 6092SOL    HW219493   2.795   2.373   3.101 -0.0548 -0.3269  1.4064
 6093SOL     OW19494   3.554   2.128   2.355  0.4035  0.1668  0.4257
 6093SOL    HW119495   3.586   2.102   2.269 -1.2458 -2.1585  0.4430
 6093SOL    HW219496   3.634   2.142   2.406  1.4476 -1.7504 -0.5651
 6094SOL     OW19497   2.612   2.998   2.541 -0.4486 -0.2337 -0.0147
 6094SOL    HW119498   2.622   3.084   2.499  0.8644  0.6428  1.9524
 6094SOL    HW219499   2.639   3.013   2.632 -2.0695 -2.2993  0.8749
 6095SOL     OW19500   3.752   3.351   3.525 -0.0080 -0.0339 -0.6154
 6095SOL    HW119501   3.812   3.425   3.531 -0.0155  0.0250 -1.2212
 6095SOL    HW219502   3.722   3.351   3.434  0.1252 -0.8879 -0.6657
 6096SOL     OW19503   2.295   3.087   2.619  0.5925 -0.7259  0.4699
 6096SOL    HW119504   2.367   3.142   2.649  1.8733 -1.7809 -0.5208
 6096SOL    HW219505   2.285   3.021   2.688  0.3008 -0.3417  0.7963
 6097SOL     OW19506   2.769   2.907   3.199 -0.4133  0.1942 -0.1772
 6097SOL    HW119507   2.699   2.868   3.146 -0.0853  0.8362 -1.1147
 6097SOL    HW219508   2.801   2.835   3.253 -0.0972 -0.7693 -1.5710
 6098SOL     OW19509   2.703   3.859   3.485  0.3121 -0.1555  0.2397
 6098SOL    HW119510   2.630   3.879   3.427  0.1982  1.1366  0.7991
 6098SOL    HW219511   2.755   3.795   3.437 -1.3793 -1.4241 -0.0088
 6099SOL     OW19512   2.317   2.958   1.732 -0.5853 -0.4384 -0.0686
 6099SOL    HW119513   2.290   3.036   1.781 -1.1277 -0.7946  0.2029
 6099SOL    HW219514   2.384   2.917   1.786  0.8038  0.6329 -0.9020
 6100SOL     OW19515   3.222   1.979   3.435 -0.1411  0.1409 -0.0913
 6100SOL    HW119516   3.130   1.985   3.409 -0.0639 -1.5142 -0.8890
 6100SOL    HW219517   3.270   2.008   3.357  0.0431  1.8734  0.6194
 6101SOL     OW19518   2.267   2.640   2.415  0.3353 -0.1964 -0.0870
 6101SOL    HW119519   2.353   2.682   2.415  0.3572  0.0657  3.5295
 6101SOL    HW219520   2.208   2.705   2.452 -0.6408 -1.5963  0.9521
 6102SOL     OW19521   3.669   3.463   2.269 -0.2530 -0.2652 -0.3780
 6102SOL    HW119522   3.740   3.510   2.313  0.3278 -1.6446  0.2331
 6102SOL    HW219523   3.605   3.531   2.247 -0.0317  0.6604  1.5548
 6103SOL     OW19524   1.824   3.374   2.328 -0.2018  0.1962 -0.0992
 6103SOL    HW119525   1.811   3.352   2.236 -1.5865 -2.8475  0.6959
 6103SOL    HW219526   1.910   3.417   2.331  0.7859 -1.3770 -2.5846
 6104SOL     OW19527   3.391   2.625   2.633 -0.4052  0.4941  0.5167
 6104SOL    HW119528   3.393   2.720   2.645 -0.8693  0.7946 -1.4351
 6104SOL    HW219529   3.298   2.603   2.629 -0.3374 -0.2719  2.2770
 6105SOL     OW19530   3.561   2.996   2.161  0.0353  0.6799 -0.0430
 6105SOL    HW119531   3.572   3.070   2.102 -1.2132  1.1795  0.3123
 6105SOL    HW219532   3.582   3.032   2.248  2.0909 -0.1074 -0.1684
 6106SOL     OW19533   1.986   2.279   3.656  0.2192  0.7013  0.8717
 6106SOL    HW119534   1.976   2.367   3.690 -1.8644  1.1872 -0.7886
 6106SOL    HW219535   1.913   2.229   3.693  1.6083 -0.4910  2.1327
 6107SOL     OW19536   2.927   3.015   3.023 -0.1505 -0.0501  0.7754
 6107SOL    HW119537   2.943   3.107   3.045 -0.9448  0.6173 -1.2092
 6107SOL    HW219538   2.871   2.983   3.093  0.2489  0.9168  1.5730
 6108SOL     OW19539   3.746   3.080   2.819 -0.1029  0.0129 -1.0690
 6108SOL    HW119540   3.767   3.173   2.808  0.0902  0.1894  0.5450
 6108SOL    HW219541   3.787   3.056   2.902 -0.3391 -1.4705 -1.3499
 6109SOL     OW19542   2.145   1.655   2.526 -0.1243  0.4931  0.1052
 6109SOL    HW119543   2.183   1.739   2.550  0.9274  0.1059 -0.1149
 6109SOL    HW219544   2.063   1.676   2.482  2.4207  1.8004 -4.6858
 6110SOL     OW19545   2.283   2.879   3.159  0.2069 -0.0409  0.7353
 6110SOL    HW119546   2.294   2.793   3.118 -0.5070 -0.1376  0.7377
 6110SOL    HW219547   2.190   2.885   3.178  0.4862  0.0850  2.1615
 6111SOL     OW19548   3.456   2.994   1.845 -0.1609  0.2938 -0.3971
 6111SOL    HW119549   3.374   2.960   1.883 -0.6820  0.3009 -1.4813
 6111SOL    HW219550   3.478   3.070   1.899 -0.6367  0.0395  0.1685
 6112SOL     OW19551   3.373   3.559   3.922  0.1311 -0.0053  0.3592
 6112SOL    HW119552   3.362   3.639   3.870 -2.1961  0.1966  1.0210
 6112SOL    HW219553   3.449   3.515   3.884 -0.4852  0.9342 -2.1294
 6113SOL     OW19554   2.521   2.158   3.887  0.1782 -0.2472 -0.2808
 6113SOL    HW119555   2.607   2.121   3.905 -0.3701 -1.6446 -0.4246
 6113SOL    HW219556   2.528   2.196   3.800  0.4261 -1.0939 -0.6357
 6114SOL     OW19557   4.007   3.329   2.757 -0.3147 -0.4962 -0.1866
 6114SOL    HW119558   3.982   3.239   2.779 -0.2163 -0.5094 -0.1262
 6114SOL    HW219559   3.953   3.383   2.815  0.2675 -0.5471  0.4093
 6115SOL     OW19560   3.445   3.599   2.129 -0.0259 -0.4373  0.1131
 6115SOL    HW119561   3.414   3.687   2.108  2.8366  0.1260 -2.3631
 6115SOL    HW219562   3.411   3.544   2.058 -0.6701 -1.1184  0.9225
 6116SOL     OW19563   2.490   2.323   2.177 -0.3557 -0.1865 -1.3024
 6116SOL    HW119564   2.569   2.269   2.188  0.2659  0.5368 -2.0627
 6116SOL    HW219565   2.447   2.286   2.100  0.7802  1.1936 -2.6551
 6117SOL     OW19566   3.311   2.242   2.736 -0.0755  0.5005 -0.1054
 6117SOL    HW119567   3.404   2.221   2.738 -0.1450  0.2263  0.3145
 6117SOL    HW219568   3.308   2.334   2.710  0.3194  0.5785  0.1253
 6118SOL     OW19569   2.930   3.482   1.907  0.1811 -0.3978  0.0141
 6118SOL    HW119570   2.949   3.419   1.837 -2.3281  0.4214 -1.5416
 6118SOL    HW219571   2.971   3.563   1.878  1.3786 -0.6703  0.8550
 6119SOL     OW19572   2.793   2.501   3.237  0.4970 -0.3541  0.1844
 6119SOL    HW119573   2.758   2.438   3.300  1.3409 -1.2549 -0.2296
 6119SOL    HW219574   2.781   2.586   3.279 -0.2437 -0.8172  0.9423
 6120SOL     OW19575   3.517   2.202   3.357  0.2323 -0.3908 -0.2459
 6120SOL    HW119576   3.543   2.156   3.437 -1.6198 -0.2760  0.4626
 6120SOL    HW219577   3.578   2.275   3.351  0.4967 -0.4835  0.9701
 6121SOL     OW19578   3.079   2.228   3.736  0.1070  0.3665  0.1650
 6121SOL    HW119579   3.151   2.284   3.766  0.9569 -0.3131 -0.5729
 6121SOL    HW219580   3.105   2.140   3.761  0.4859 -0.1376 -1.8221
 6122SOL     OW19581   2.750   2.276   2.029 -0.1017  0.0071 -0.2169
 6122SOL    HW119582   2.723   2.336   1.959 -2.6756  0.1470  0.7812
 6122SOL    HW219583   2.799   2.332   2.090  1.1995  0.1182 -1.3134
 6123SOL     OW19584   1.968   2.382   2.777 -0.3300  0.3568 -0.0064
 6123SOL    HW119585   2.005   2.304   2.738 -1.1837 -1.1401  1.9760
 6123SOL    HW219586   1.952   2.358   2.868 -2.5279  2.1706  0.1842
 6124SOL     OW19587   2.109   4.093   3.301 -0.3130 -0.5272  0.5339
 6124SOL    HW119588   2.105   4.001   3.330  0.7195 -0.5964  0.4862
 6124SOL    HW219589   2.201   4.107   3.281 -0.5924  0.3148 -0.1690
 6125SOL     OW19590   2.761   2.085   2.284  0.4878 -0.7465 -0.2027
 6125SOL    HW119591   2.771   2.002   2.330  0.6737 -0.9981 -0.6887
 6125SOL    HW219592   2.779   2.064   2.192 -0.8617 -0.4524 -0.5558
 6126SOL     OW19593   3.518   2.660   3.840  0.0470  0.0048 -0.1052
 6126SOL    HW119594   3.530   2.585   3.782 -1.4155 -1.4840  1.3951
 6126SOL    HW219595   3.424   2.679   3.835 -0.1233 -0.1881  1.7438
 6127SOL     OW19596   3.193   3.064   2.174 -0.2534  0.1471 -0.8315
 6127SOL    HW119597   3.109   3.061   2.221 -0.1528  0.7337 -0.6074
 6127SOL    HW219598   3.233   3.146   2.201 -0.7835  1.1801 -2.9583
 6128SOL     OW19599   2.282   1.811   2.827 -0.0213  0.7899 -0.2476
 6128SOL    HW119600   2.260   1.880   2.890 -1.5509  1.1118 -1.0768
 6128SOL    HW219601   2.262   1.850   2.742  0.8566 -0.0532 -0.8560
 6129SOL     OW19602   2.975   3.015   2.590 -0.0686 -0.6626  0.4111
 6129SOL    HW119603   2.892   2.993   2.632  1.8272 -4.1415  2.9071
 6129SOL    HW219604   3.030   3.047   2.662  1.0390  0.8271 -1.0157
 6130SOL     OW19605   2.370   3.511   2.512  0.0447  0.0564 -0.2197
 6130SOL    HW119606   2.365   3.510   2.607  1.0461  3.5563  0.0228
 6130SOL    HW219607   2.460   3.485   2.492 -0.0708 -0.3564 -0.2199
 6131SOL     OW19608   3.721   2.847   2.686  1.0990 -0.6180  0.4751
 6131SOL    HW119609   3.725   2.936   2.721  0.7954 -0.8467  1.0992
 6131SOL    HW219610   3.773   2.850   2.606  0.0147  0.4519 -0.2257
 6132SOL     OW19611   3.286   3.483   3.267  0.4095  0.3334 -1.0200
 6132SOL    HW119612   3.373   3.520   3.250  0.6161  0.0656 -0.5777
 6132SOL    HW219613   3.251   3.536   3.338  0.5991 -0.1415 -0.5615
 6133SOL     OW19614   2.098   2.585   1.950  0.5417  0.2247 -0.2205
 6133SOL    HW119615   2.183   2.570   1.907  1.4864 -0.2623  1.6782
 6133SOL    HW219616   2.115   2.658   2.010 -0.4799  0.3248 -0.0417
 6134SOL     OW19617   3.386   2.319   2.256 -0.1042 -0.3161 -0.5847
 6134SOL    HW119618   3.417   2.407   2.278 -3.4410  0.6383  0.8781
 6134SOL    HW219619   3.441   2.261   2.308  1.9615  0.8534 -1.3393
 6135SOL     OW19620   2.201   3.571   2.987  0.3196 -0.1685  0.4944
 6135SOL    HW119621   2.110   3.596   2.971 -0.0343 -0.6848  1.5521
 6135SOL    HW219622   2.196   3.479   3.014  1.3814 -0.8505 -1.4361
 6136SOL     OW19623   3.322   3.451   1.641  0.4480 -0.3273  0.0333
 6136SOL    HW119624   3.409   3.412   1.649 -0.0368 -1.3575  0.4512
 6136SOL    HW219625   3.316   3.479   1.550  1.2162 -0.2390  0.0039
 6137SOL     OW19626   2.459   2.141   3.481  0.2717  0.5294 -0.0908
 6137SOL    HW119627   2.374   2.174   3.510 -0.0276 -0.2139 -0.0943
 6137SOL    HW219628   2.438   2.073   3.418  0.9021  1.2458 -1.1080
 6138SOL     OW19629   3.571   3.381   1.713 -0.0194  0.1759  0.4123
 6138SOL    HW119630   3.652   3.330   1.704  0.4530  1.1875 -1.3858
 6138SOL    HW219631   3.588   3.439   1.788  1.6895  1.6695 -1.0460
 6139SOL     OW19632   2.355   3.656   2.150 -0.0056 -0.3881  0.4480
 6139SOL    HW119633   2.447   3.645   2.129  0.1013  2.2494 -0.9980
 6139SOL    HW219634   2.349   3.644   2.244  2.0750  0.6210  0.7594
 6140SOL     OW19635   3.103   2.089   2.266  0.0886 -0.2570  0.2320
 6140SOL    HW119636   3.062   2.147   2.330 -0.8377 -2.2384  1.5468
 6140SOL    HW219637   3.183   2.059   2.308  0.7585  0.3194 -0.5961
 6141SOL     OW19638   1.845   2.968   3.402 -0.0906 -0.2080  0.2767
 6141SOL    HW119639   1.806   2.906   3.464 -4.2548  0.5149 -1.2786
 6141SOL    HW219640   1.835   3.054   3.443  0.3051 -0.0378  0.0270
 6142SOL     OW19641   3.047   3.270   2.776  0.0375  0.5084 -0.0525
 6142SOL    HW119642   3.115   3.300   2.715  1.1414 -0.8231  0.4845
 6142SOL    HW219643   2.964   3.291   2.731  0.8109  0.2444 -1.6892
 6143SOL     OW19644   2.568   2.636   1.993 -0.5138 -0.2614 -0.0582
 6143SOL    HW119645   2.635   2.585   1.949 -0.4123 -0.0814 -0.1142
 6143SOL    HW219646   2.569   2.606   2.083 -0.7951 -0.7083 -0.2011
 6144SOL     OW19647   3.531   1.655   3.409 -0.0590 -0.2129 -0.1602
 6144SOL    HW119648   3.485   1.570   3.404  2.4839 -1.8261  1.5141
 6144SOL    HW219649   3.485   1.702   3.479 -1.4986 -0.1422 -1.1013
 6145SOL     OW19650   2.550   2.010   2.526  0.0234  0.3780  0.4399
 6145SOL    HW119651   2.602   1.933   2.503  1.3059  1.3030  0.1011
 6145SOL    HW219652   2.510   2.037   2.443 -0.9559 -0.2715  0.6808
 6146SOL     OW19653   2.557   2.161   3.044 -0.4476  0.0923  0.1798
 6146SOL    HW119654   2.494   2.103   3.087  0.9764 -2.2581 -0.7417
 6146SOL    HW219655   2.552   2.138   2.951  0.6704  0.9702 -0.1194
 6147SOL     OW19656   2.871   3.482   2.749  0.2861 -0.0542  0.3251
 6147SOL    HW119657   2.945   3.498   2.691 -0.1909  1.6568  0.1327
 6147SOL    HW219658   2.879   3.548   2.817 -0.5797 -0.4106  0.7960
 6148SOL     OW19659   2.827   2.713   3.385 -0.0808  0.1743  0.0210
 6148SOL    HW119660   2.896   2.671   3.436 -0.3611 -1.0424 -0.5804
 6148SOL    HW219661   2.755   2.724   3.447  0.4856  1.0730  0.5423
 6149SOL     OW19662   3.101   2.920   2.836 -0.2252 -0.7007  0.1914
 6149SOL    HW119663   3.193   2.913   2.861  0.7754  4.6400 -0.7618
 6149SOL    HW219664   3.053   2.923   2.919  0.9616  0.1400  0.8755
 6150SOL     OW19665   2.705   1.867   3.008  0.4716  0.0558  0.1314
 6150SOL    HW119666   2.744   1.809   3.074  0.6130 -0.0920 -0.0791
 6150SOL    HW219667   2.652   1.809   2.954  1.2216 -0.0143 -0.5502
 6151SOL     OW19668   2.183   1.403   2.437  0.1131  0.0748 -0.0028
 6151SOL    HW119669   2.190   1.495   2.463  0.1701  0.1094 -0.1335
 6151SOL    HW219670   2.091   1.381   2.451 -0.1332  0.4469 -0.9038
 6152SOL     OW19671   3.357   3.092   1.593 -0.3571 -0.0353  0.1053
 6152SOL    HW119672   3.430   3.136   1.551 -0.6094  0.8423  0.5711
 6152SOL    HW219673   3.389   3.067   1.680 -0.7976  0.9409  0.5643
 6153SOL     OW19674   2.429   1.726   2.402 -0.0929  0.1461  0.2322
 6153SOL    HW119675   2.482   1.646   2.396 -1.3656 -0.6789 -0.4388
 6153SOL    HW219676   2.380   1.717   2.483  2.0562  1.7694  1.8311
 6154SOL     OW19677   2.266   1.905   2.577 -0.4405 -0.5912  0.2039
 6154SOL    HW119678   2.357   1.928   2.560 -0.2700 -1.3934 -0.0356
 6154SOL    HW219679   2.215   1.960   2.518 -0.2515  1.2081  1.6356
 6155SOL     OW19680   3.055   2.214   3.276  0.1801 -0.0080 -0.3856
 6155SOL    HW119681   2.992   2.169   3.334 -0.7306  1.4188 -0.2281
 6155SOL    HW219682   3.117   2.255   3.336 -0.2358  0.7135 -0.4407
 6156SOL     OW19683   3.414   3.244   2.584 -0.3626  0.0128  0.1609
 6156SOL    HW119684   3.408   3.227   2.678 -0.6100 -0.3342  0.0853
 6156SOL    HW219685   3.358   3.177   2.544 -3.1614  2.3103 -0.0275
 6157SOL     OW19686   2.768   3.045   2.789  0.5552  0.3045 -0.1916
 6157SOL    HW119687   2.823   3.007   2.858  0.5037  2.1071  0.9091
 6157SOL    HW219688   2.758   3.137   2.814 -1.6051  0.4244 -1.2399
 6158SOL     OW19689   3.057   3.726   2.229  0.2879  0.0903 -0.0262
 6158SOL    HW119690   3.086   3.792   2.167 -0.5037 -0.5822 -1.1359
 6158SOL    HW219691   2.964   3.746   2.244  0.0292 -0.7935 -0.4168
 6159SOL     OW19692   2.787   1.854   2.440 -0.3512 -0.0668  0.0933
 6159SOL    HW119693   2.835   1.806   2.508 -1.0771  0.2106  0.8178
 6159SOL    HW219694   2.763   1.787   2.376  2.1643 -0.0084 -1.0145
 6160SOL     OW19695   2.023   2.285   3.083  0.1052  0.1756  0.1271
 6160SOL    HW119696   2.092   2.350   3.069  0.5712 -0.2026  0.6070
 6160SOL    HW219697   2.059   2.227   3.150 -1.6521  1.4197  2.3113
 6161SOL     OW19698   2.357   1.893   3.418 -0.3096 -0.2985 -0.1930
 6161SOL    HW119699   2.342   1.834   3.491 -0.2368  0.8198  0.7415
 6161SOL    HW219700   2.300   1.859   3.348 -0.4628 -1.3044  0.4023
 6162SOL     OW19701   2.473   2.403   2.813  0.1469  0.0869  0.0693
 6162SOL    HW119702   2.490   2.362   2.729  0.5269  0.9208 -0.2722
 6162SOL    HW219703   2.559   2.422   2.849 -0.0119 -0.2372  0.6384
 6163SOL     OW19704   2.515   2.028   2.794  0.5602  0.1230  0.2813
 6163SOL    HW119705   2.531   2.016   2.700 -0.1551 -0.8454  0.2621
 6163SOL    HW219706   2.561   1.955   2.835 -1.6055 -1.2720  0.4124
 6164SOL     OW19707   3.837   2.411   2.709 -0.6735 -0.7218  0.3902
 6164SOL    HW119708   3.808   2.452   2.627  2.9351  3.5971  0.8768
 6164SOL    HW219709   3.797   2.465   2.778 -0.1211 -1.4847  1.3275
 6165SOL     OW19710   3.735   2.038   2.557  0.1676 -0.0851 -0.6020
 6165SOL    HW119711   3.742   1.949   2.523  0.5683  0.4391 -1.9648
 6165SOL    HW219712   3.820   2.078   2.537 -0.7126  1.2265 -1.9386
 6166SOL     OW19713   3.614   2.612   2.015  0.0647 -0.1058 -0.5966
 6166SOL    HW119714   3.548   2.639   2.078 -0.9699  0.8487 -2.0418
 6166SOL    HW219715   3.663   2.692   1.996  0.2176 -0.3330 -1.1733
 6167SOL     OW19716   2.311   2.992   2.323  0.1475  0.0941  0.0436
 6167SOL    HW119717   2.327   3.051   2.397  1.7628 -1.3040  0.8552
 6167SOL    HW219718   2.272   3.048   2.256  1.6963  2.1240  0.7417
 6168SOL     OW19719   3.565   3.212   2.350  0.2509 -0.0276  0.0257
 6168SOL    HW119720   3.525   3.223   2.436  2.2534  3.7824  0.6831
 6168SOL    HW219721   3.604   3.297   2.330  1.8546 -1.4055 -3.6661
 6169SOL     OW19722   2.720   2.342   2.367  0.1265  0.1421  0.5570
 6169SOL    HW119723   2.724   2.252   2.336  1.3353  0.3205  0.1654
 6169SOL    HW219724   2.772   2.392   2.304  1.1586  0.7990  1.8802
 6170SOL     OW19725   2.131   1.991   2.306  0.2798 -0.1894  0.0432
 6170SOL    HW119726   2.194   1.937   2.259  0.1774 -0.9867  0.7950
 6170SOL    HW219727   2.130   2.074   2.259  1.1708 -0.5060 -0.5466
 6171SOL     OW19728   3.507   3.397   3.662 -0.1155  0.5446  0.6156
 6171SOL    HW119729   3.532   3.481   3.700  1.0354 -0.0623  1.2382
 6171SOL    HW219730   3.587   3.365   3.621 -0.1758 -0.8921  1.5877
 6172SOL     OW19731   3.286   3.234   3.132  0.1379  0.4755  0.6946
 6172SOL    HW119732   3.198   3.218   3.099  0.4534  0.0864  0.0306
 6172SOL    HW219733   3.279   3.319   3.176 -0.4526  0.6886  0.2101
 6173SOL     OW19734   3.687   3.883   3.590  0.4837  0.2823 -0.2898
 6173SOL    HW119735   3.701   3.875   3.684 -2.1567 -0.2355  0.1332
 6173SOL    HW219736   3.711   3.974   3.570 -1.1307  1.1653  1.3997
 6174SOL     OW19737   3.117   2.680   2.703 -0.1041 -0.1920  0.0487
 6174SOL    HW119738   3.065   2.716   2.631  0.4550  0.7438  0.1022
 6174SOL    HW219739   3.103   2.741   2.775  1.5364  0.3959 -0.1085
 6175SOL     OW19740   3.632   2.593   2.756  0.0783 -0.1012 -0.0943
 6175SOL    HW119741   3.669   2.678   2.735 -0.7622  1.4778  3.9320
 6175SOL    HW219742   3.557   2.584   2.698  0.7527  1.4477 -1.2586
 6176SOL     OW19743   2.788   2.039   3.212 -0.2161 -0.1299 -0.0740
 6176SOL    HW119744   2.725   1.988   3.163 -1.7813 -0.1854  1.8628
 6176SOL    HW219745   2.791   2.124   3.167 -0.9946 -0.4263 -0.7013
 6177SOL     OW19746   3.424   2.600   3.382 -0.3454  0.1899  0.0907
 6177SOL    HW119747   3.457   2.549   3.308  0.8166  0.4649  0.3954
 6177SOL    HW219748   3.404   2.686   3.344  0.3933  0.3790  0.1018
 6178SOL     OW19749   2.892   2.479   2.181  0.2584 -0.2017 -1.1310
 6178SOL    HW119750   2.879   2.543   2.111 -0.6316  0.8717 -0.0206
 6178SOL    HW219751   2.980   2.497   2.214 -0.6010  1.6861  0.3217
 6179SOL     OW19752   2.220   2.851   3.530  0.0677 -0.3800 -0.5807
 6179SOL    HW119753   2.288   2.797   3.490  0.3762 -0.1038 -0.4326
 6179SOL    HW219754   2.250   2.865   3.620 -0.2565 -0.3815 -0.4715
 6180SOL     OW19755   2.946   2.018   2.959 -0.3134  0.0814 -0.1599
 6180SOL    HW119756   2.916   2.071   2.885 -0.4619 -0.6735 -0.6535
 6180SOL    HW219757   2.882   1.947   2.965  0.0206 -0.1865  0.3365
 6181SOL     OW19758   2.883   3.353   3.566  0.8598  0.3154  0.1931
 6181SOL    HW119759   2.787   3.351   3.561  0.8780  0.0289 -0.0391
 6181SOL    HW219760   2.903   3.439   3.603  0.5361  0.6861 -0.4745
 6182SOL     OW19761   2.211   2.812   2.111 -0.1074  0.0675 -0.0072
 6182SOL    HW119762   2.154   2.872   2.159  2.0214  0.6561  1.9616
 6182SOL    HW219763   2.259   2.765   2.179  4.3883  2.1806 -1.3429
 6183SOL     OW19764   2.267   2.381   2.991  0.4143  0.0561 -0.0364
 6183SOL    HW119765   2.269   2.285   2.992  0.2926  0.0573  0.6027
 6183SOL    HW219766   2.338   2.406   2.932 -0.1077 -0.4446 -0.8898
 6184SOL     OW19767   3.209   3.117   2.476  0.0486  0.3611  0.4810
 6184SOL    HW119768   3.160   3.190   2.439  0.9164  0.7285  0.0287
 6184SOL    HW219769   3.142   3.055   2.504 -0.6723  0.8883 -0.0416
 6185SOL     OW19770   3.280   3.133   2.820 -0.1636  0.5579 -0.1747
 6185SOL    HW119771   3.278   3.215   2.870  0.4406  0.3928  0.1385
 6185SOL    HW219772   3.193   3.096   2.831 -0.1680  0.7332  0.4080
 6186SOL     OW19773   3.207   2.511   2.025  0.0138 -0.1688 -0.1409
 6186SOL    HW119774   3.155   2.502   1.944  0.4269  0.4709 -0.4802
 6186SOL    HW219775   3.243   2.599   2.021  0.4363 -0.3059  0.5131
 6187SOL     OW19776   2.598   2.760   3.034 -0.1411  0.2838  0.1615
 6187SOL    HW119777   2.531   2.712   3.083  0.2868  0.1991  0.6762
 6187SOL    HW219778   2.638   2.695   2.976 -1.1958  0.5604 -0.9025
 6188SOL     OW19779   2.468   2.730   3.379 -0.4409  0.2192  0.0628
 6188SOL    HW119780   2.465   2.660   3.445 -0.9056 -0.6710 -0.8607
 6188SOL    HW219781   2.446   2.685   3.297  1.0856  1.1003 -0.8665
 6189SOL     OW19782   3.886   2.618   3.386 -0.5355  0.4935  0.2903
 6189SOL    HW119783   3.967   2.644   3.430  0.0837  0.2302 -0.6652
 6189SOL    HW219784   3.830   2.586   3.456 -0.5976  2.5426  1.2625
 6190SOL     OW19785   2.786   1.624   3.855  0.0308  0.0128 -0.0360
 6190SOL    HW119786   2.719   1.624   3.923 -1.4916  1.3407 -1.4655
 6190SOL    HW219787   2.742   1.657   3.777  1.9148 -0.7085 -1.4941
 6191SOL     OW19788   2.632   1.720   3.654 -0.2276 -0.0028  0.1483
 6191SOL    HW119789   2.624   1.727   3.559  0.9542 -3.7714 -0.4028
 6191SOL    HW219790   2.542   1.707   3.685 -0.3922 -1.5176 -0.8655
 6192SOL     OW19791   2.083   2.626   3.027 -0.0542 -0.1886 -0.4876
 6192SOL    HW119792   2.018   2.672   2.975 -0.0724 -0.4529 -0.7017
 6192SOL    HW219793   2.108   2.551   2.974 -1.3653 -1.4747  0.6158
 6193SOL     OW19794   3.523   2.644   3.076  0.1417 -0.0541  0.2565
 6193SOL    HW119795   3.456   2.712   3.064  0.6658  0.6459  1.1279
 6193SOL    HW219796   3.516   2.589   2.999 -0.8752  0.5010 -0.0656
 6194SOL     OW19797   2.419   2.091   2.301  0.0460  1.3962  0.0609
 6194SOL    HW119798   2.391   2.177   2.269 -1.4606  0.7026 -0.5696
 6194SOL    HW219799   2.419   2.035   2.224  1.7034  0.9553  0.3330
 6195SOL     OW19800   1.662   1.596   2.985  0.2983 -0.2150  0.7509
 6195SOL    HW119801   1.603   1.523   3.005 -0.4680  0.4255  0.8880
 6195SOL    HW219802   1.750   1.562   3.001 -0.1567 -0.0018  4.6691
 6196SOL     OW19803   2.212   3.322   3.084  0.3310  0.3667  0.3028
 6196SOL    HW119804   2.166   3.323   3.168  1.4910  1.3274  0.9479
 6196SOL    HW219805   2.305   3.321   3.107  0.6701  0.1728 -0.9776
 6197SOL     OW19806   2.683   3.122   3.425  0.1729  0.2951  0.0368
 6197SOL    HW119807   2.611   3.093   3.369  1.8505 -0.1612 -2.0212
 6197SOL    HW219808   2.761   3.105   3.373  1.8956 -0.5604  2.7481
 6198SOL     OW19809   3.531   3.181   3.349  0.0748  0.6438  0.3560
 6198SOL    HW119810   3.583   3.240   3.295 -0.8732  0.6218 -0.6037
 6198SOL    HW219811   3.453   3.162   3.297  0.2109 -1.2321  0.7586
 6199SOL     OW19812   2.285   2.378   2.580 -0.3717  0.4113  0.9058
 6199SOL    HW119813   2.374   2.360   2.549  0.0692  0.5711  2.0596
 6199SOL    HW219814   2.255   2.451   2.525 -0.7579 -1.2256 -1.2008
 6200SOL     OW19815   3.108   2.191   1.813 -0.4437 -0.3206  0.0383
 6200SOL    HW119816   3.069   2.112   1.849 -0.8965 -0.0393  0.1874
 6200SOL    HW219817   3.097   2.183   1.718 -2.3921  0.4963  0.1498
 6201SOL     OW19818   3.258   2.164   2.984  0.5002  0.2911 -0.6459
 6201SOL    HW119819   3.311   2.098   3.029  0.1291  0.3273 -0.1336
 6201SOL    HW219820   3.285   2.160   2.893  1.3581  0.2875 -0.3985
 6202SOL     OW19821   3.290   3.180   3.515  0.0578  0.4850 -0.5696
 6202SOL    HW119822   3.289   3.237   3.592  2.1347  0.9198 -0.8223
 6202SOL    HW219823   3.370   3.204   3.468  0.2173 -1.6397 -1.4681
 6203SOL     OW19824   3.680   3.373   3.255 -0.3967  0.1734 -0.0801
 6203SOL    HW119825   3.774   3.386   3.237  0.2258  0.2252  2.8441
 6203SOL    HW219826   3.643   3.461   3.251 -0.6215  0.0364 -2.3886
 6204SOL     OW19827   2.672   2.690   3.614 -0.0881 -0.1229  0.0708
 6204SOL    HW119828   2.698   2.666   3.703  0.5704 -0.9115 -0.3251
 6204SOL    HW219829   2.585   2.653   3.603 -0.0406 -0.2944  0.2763
 6205SOL     OW19830   3.329   2.352   1.647 -0.4491 -0.2361 -0.1493
 6205SOL    HW119831   3.322   2.257   1.651 -0.6857 -0.2015  0.5292
 6205SOL    HW219832   3.394   2.369   1.579 -0.3244 -0.8834 -0.2003
 6206SOL     OW19833   3.071   2.883   1.598 -0.2811  0.5042  0.1049
 6206SOL    HW119834   3.085   2.895   1.692  0.3916  2.2283 -0.1759
 6206SOL    HW219835   3.140   2.823   1.570 -1.2712 -1.0939  0.8891
 6207SOL     OW19836   3.425   2.885   2.639 -0.4142 -0.7773  0.3724
 6207SOL    HW119837   3.502   2.924   2.680 -0.3647 -1.1594  0.6548
 6207SOL    HW219838   3.394   2.951   2.577 -0.1910 -0.3947  0.6641
 6208SOL     OW19839   2.360   1.990   3.101 -0.0577  0.1708  0.5190
 6208SOL    HW119840   2.299   2.024   3.166 -0.1435  1.4063 -0.1753
 6208SOL    HW219841   2.322   2.015   3.017  1.4605  1.0758  0.0774
 6209SOL     OW19842   2.252   2.095   2.872 -0.2886  0.2241 -0.5063
 6209SOL    HW119843   2.331   2.104   2.819  0.1942  2.6930  0.4827
 6209SOL    HW219844   2.182   2.130   2.817  0.2335  2.9147  0.3866
 6210SOL     OW19845   3.184   2.322   4.249  0.6773 -0.3626  0.1509
 6210SOL    HW119846   3.209   2.408   4.216  1.2958 -0.5093  0.2159
 6210SOL    HW219847   3.118   2.340   4.316  0.8718  0.0674  0.2287
 6211SOL     OW19848   2.860   1.973   3.667 -0.1143  0.0536  0.2655
 6211SOL    HW119849   2.836   2.036   3.734  1.7655 -0.9678  2.0221
 6211SOL    HW219850   2.788   1.911   3.664 -1.6083  1.7494 -0.9070
 6212SOL     OW19851   1.747   3.038   2.366 -0.2222 -0.0036 -0.0086
 6212SOL    HW119852   1.679   2.973   2.346 -0.7117  0.1955  0.9528
 6212SOL    HW219853   1.698   3.114   2.395  0.4273  0.1074  0.8050
 6213SOL     OW19854   2.365   3.414   3.400 -0.1370  0.4611 -0.4562
 6213SOL    HW119855   2.403   3.347   3.343  3.1271  1.8395 -0.1194
 6213SOL    HW219856   2.327   3.366   3.473  1.7642 -1.0652 -0.4117
 6214SOL     OW19857   2.704   3.319   2.878 -0.3362 -0.1629 -0.1345
 6214SOL    HW119858   2.708   3.342   2.971  1.3349  0.0749 -0.2317
 6214SOL    HW219859   2.767   3.378   2.837 -0.4236 -0.8571 -1.2911
 6215SOL     OW19860   3.030   2.470   3.071 -0.9112 -0.5124  0.2891
 6215SOL    HW119861   3.084   2.548   3.058 -0.7610 -0.8783 -1.6177
 6215SOL    HW219862   2.987   2.485   3.155  1.7845 -0.0032  1.7000
 6216SOL     OW19863   2.410   2.593   3.130  0.4723 -0.1195  0.2315
 6216SOL    HW119864   2.356   2.533   3.079  0.6824 -1.3513  1.3988
 6216SOL    HW219865   2.488   2.543   3.153  1.2810  1.0366  0.1261
 6217SOL     OW19866   2.535   2.343   3.244 -0.3469 -0.5589  0.0089
 6217SOL    HW119867   2.563   2.283   3.314 -0.5066  0.2884  0.8169
 6217SOL    HW219868   2.526   2.287   3.167  1.7362 -1.1903  0.1599
 6218SOL     OW19869   3.308   2.920   3.567 -0.1422  0.0712  0.3104
 6218SOL    HW119870   3.361   2.920   3.647 -1.8747  0.0322  1.5344
 6218SOL    HW219871   3.290   3.012   3.550 -1.9125  0.0138  1.5445
 6219SOL     OW19872   2.532   2.562   2.234 -0.4055 -0.0749  0.4144
 6219SOL    HW119873   2.584   2.577   2.312  1.1442 -0.5593 -0.4738
 6219SOL    HW219874   2.512   2.468   2.236 -1.5576  0.1660  0.9156
 6220SOL     OW19875   3.759   2.862   3.327  0.3510  0.4519 -0.0382
 6220SOL    HW119876   3.802   2.795   3.380 -0.2223  0.7376  0.8066
 6220SOL    HW219877   3.742   2.933   3.388 -0.8070  0.5697 -0.4805
 6221SOL     OW19878   1.076   2.909   3.532 -0.3734 -0.4348  0.2744
 6221SOL    HW119879   1.016   2.913   3.607 -1.9434  0.1180 -0.9466
 6221SOL    HW219880   1.061   2.822   3.494  0.5258 -0.7710  0.6739
 6222SOL     OW19881   2.995   2.224   2.790  1.0610 -0.1856  0.2635
 6222SOL    HW119882   3.069   2.266   2.746  0.2494  0.8320 -0.1863
 6222SOL    HW219883   2.931   2.209   2.720  1.0464 -1.5601  0.5450
 6223SOL     OW19884   3.009   3.550   3.324  0.6773 -0.3211 -0.4243
 6223SOL    HW119885   3.074   3.532   3.392  0.3452 -1.0157 -0.2802
 6223SOL    HW219886   2.999   3.645   3.324  0.1239 -0.3507  1.0297
 6224SOL     OW19887   2.371   2.254   1.958  0.0123  0.1498  0.0823
 6224SOL    HW119888   2.366   2.315   1.884 -0.0510 -1.3652 -1.2321
 6224SOL    HW219889   2.344   2.170   1.920  1.9636 -1.1055  1.3440
 6225SOL     OW19890   1.747   2.999   3.709 -0.6333  0.1380 -0.0638
 6225SOL    HW119891   1.706   2.969   3.790  0.3111 -0.3092  0.2641
 6225SOL    HW219892   1.697   3.078   3.684 -1.0141  0.2001  0.8701
 6226SOL     OW19893   3.351   2.845   2.928 -0.1107  0.0257  0.2429
 6226SOL    HW119894   3.398   2.837   2.845 -2.4492 -0.9702 -1.0990
 6226SOL    HW219895   3.381   2.928   2.965  2.2107 -0.2989 -0.7578
 6227SOL     OW19896   3.358   3.468   1.909  0.0693 -0.1780 -0.4313
 6227SOL    HW119897   3.337   3.449   1.818 -1.3716 -0.3219 -0.0938
 6227SOL    HW219898   3.273   3.469   1.953  0.8067 -1.0986  1.0962
 6228SOL     OW19899   3.534   3.479   2.529 -0.5387 -0.2310  0.7622
 6228SOL    HW119900   3.470   3.411   2.510 -1.0423  0.5998 -0.6975
 6228SOL    HW219901   3.500   3.525   2.605 -1.2684 -0.3143  0.4901
 6229SOL     OW19902   2.057   2.858   3.288 -0.2722  0.2876 -0.0179
 6229SOL    HW119903   1.994   2.908   3.339  0.1934 -1.2034  2.1898
 6229SOL    HW219904   2.134   2.850   3.345  1.1349  0.3047 -1.8145
 6230SOL     OW19905   2.984   3.581   3.684  0.2511 -0.0662  0.5040
 6230SOL    HW119906   2.991   3.649   3.751  0.4689 -0.5066  0.9303
 6230SOL    HW219907   3.074   3.562   3.659  0.1214  1.7487 -1.6211
 6231SOL     OW19908   3.599   2.159   1.908  0.2199 -0.4583 -0.1851
 6231SOL    HW119909   3.614   2.253   1.899  0.0740 -0.0162  3.0915
 6231SOL    HW219910   3.505   2.151   1.924  0.1923 -1.1917 -0.6709
 6232SOL     OW19911   3.179   3.335   2.289  0.2196 -0.2063 -0.6682
 6232SOL    HW119912   3.187   3.421   2.329 -2.1068 -0.2867  0.1180
 6232SOL    HW219913   3.190   3.350   2.195  1.9943  0.5656 -0.3774
 6233SOL     OW19914   2.740   3.571   3.388  0.0682  0.2727 -0.0558
 6233SOL    HW119915   2.828   3.532   3.393 -0.3746 -0.6083  1.6237
 6233SOL    HW219916   2.685   3.513   3.441 -1.6381  0.5962 -1.3899
 6234SOL     OW19917   3.137   2.523   2.285 -0.7425  0.1723 -0.1167
 6234SOL    HW119918   3.158   2.505   2.193  0.1176  0.5524 -0.0106
 6234SOL    HW219919   3.222   2.539   2.326 -1.2678  4.4868 -0.2249
 6235SOL     OW19920   2.967   3.263   3.144  0.8800 -0.6102  0.5070
 6235SOL    HW119921   2.984   3.357   3.152  1.3274 -0.5764 -0.6930
 6235SOL    HW219922   2.989   3.228   3.230 -0.5061  0.5480  1.3928
 6236SOL     OW19923   2.338   3.204   2.140  0.0796  0.2562  0.2751
 6236SOL    HW119924   2.432   3.220   2.151  0.4015 -2.3734  2.5455
 6236SOL    HW219925   2.297   3.259   2.206  0.1431  0.4338  0.1672
 6237SOL     OW19926   3.508   3.622   3.165 -0.1784 -0.2722  0.0072
 6237SOL    HW119927   3.588   3.660   3.201 -0.6937  0.9098 -0.0501
 6237SOL    HW219928   3.495   3.668   3.082  0.6683 -2.5279 -1.5121
 6238SOL     OW19929   3.881   1.856   2.959  0.3148  0.1799  0.4116
 6238SOL    HW119930   3.817   1.824   2.895  1.0040 -1.6689  0.5723
 6238SOL    HW219931   3.946   1.902   2.906  0.4158 -0.5569 -0.1229
 6239SOL     OW19932   1.774   1.840   2.728 -0.5010  0.9245  0.2460
 6239SOL    HW119933   1.775   1.871   2.637 -1.3587 -1.5681 -0.7205
 6239SOL    HW219934   1.702   1.777   2.731 -0.8185  1.2987  2.8372
 6240SOL     OW19935   3.103   3.622   1.734  0.1585 -0.4795 -0.1826
 6240SOL    HW119936   3.160   3.697   1.754  0.2557 -0.2605 -1.2068
 6240SOL    HW219937   3.163   3.550   1.715  0.0656 -0.7958  0.6882
 6241SOL     OW19938   3.111   2.943   3.282  0.0800  0.5422 -0.0697
 6241SOL    HW119939   3.060   3.022   3.302  0.3877  0.9186 -0.7321
 6241SOL    HW219940   3.202   2.972   3.283  0.1390  0.4646 -1.4059
 6242SOL     OW19941   3.604   2.173   2.747  0.6080 -0.3461  0.6271
 6242SOL    HW119942   3.626   2.145   2.658  3.1440  0.9579  0.7479
 6242SOL    HW219943   3.685   2.210   2.781 -0.6445  0.3860  3.0439
 6243SOL     OW19944   3.103   3.936   2.046  0.4855  0.0140 -0.0130
 6243SOL    HW119945   3.195   3.963   2.050  0.3509  0.4034  0.5744
 6243SOL    HW219946   3.053   4.016   2.064  0.0200 -0.1390 -0.5861
 6244SOL     OW19947   2.478   2.988   3.340 -0.2404 -0.4408 -0.3157
 6244SOL    HW119948   2.507   2.900   3.366  1.3604 -0.3708 -1.6962
 6244SOL    HW219949   2.397   2.972   3.292  0.8388 -1.4010 -1.9441
 6245SOL     OW19950   3.463   3.057   3.054  0.5087 -0.0571 -0.1161
 6245SOL    HW119951   3.401   3.129   3.067  0.5158 -0.3833  2.2331
 6245SOL    HW219952   3.549   3.096   3.067  0.5339 -0.3807  0.7700
 6246SOL     OW19953   3.008   2.702   2.443  0.0489 -0.3055 -0.6511
 6246SOL    HW119954   3.068   2.663   2.380  0.0312  0.5891 -1.2429
 6246SOL    HW219955   2.940   2.743   2.390 -0.6466 -0.6042 -0.0083
 6247SOL     OW19956   3.475   1.975   2.851 -0.1846 -0.3109  0.1540
 6247SOL    HW119957   3.536   2.048   2.839  0.5346 -0.6427  1.5817
 6247SOL    HW219958   3.468   1.965   2.945 -0.6449 -1.7914 -0.0133
 6248SOL     OW19959   2.583   2.997   2.215 -0.2765 -0.4214 -0.5504
 6248SOL    HW119960   2.490   2.993   2.193 -0.4059 -0.4292 -0.0118
 6248SOL    HW219961   2.585   3.018   2.309  0.2758  1.5732 -0.9617
 6249SOL     OW19962   3.676   1.973   3.506 -0.2805  0.3665  0.4565
 6249SOL    HW119963   3.701   1.925   3.427 -1.5717 -3.7789  2.2524
 6249SOL    HW219964   3.759   1.998   3.546  0.4465  0.5262 -1.0912
 6250SOL     OW19965   1.973   2.900   2.253 -0.3708 -0.3893  0.3309
 6250SOL    HW119966   1.908   2.833   2.235 -1.0566 -0.3585  2.4067
 6250SOL    HW219967   1.926   2.966   2.304  1.0440  0.1184  1.0226
 6251SOL     OW19968   1.735   2.955   3.984 -0.2922  0.4431 -0.1820
 6251SOL    HW119969   1.779   2.883   4.030  0.3202  0.9111 -0.0140
 6251SOL    HW219970   1.759   3.033   4.033  2.1020  1.2580 -2.3979
 6252SOL     OW19971   2.639   1.848   3.420 -0.4491  0.5630  0.1368
 6252SOL    HW119972   2.562   1.905   3.430  0.1192  1.6707 -1.4268
 6252SOL    HW219973   2.711   1.907   3.400  0.6314 -0.5467  0.5972
 6253SOL     OW19974   2.021   1.573   2.018 -0.2239 -0.0563 -0.1142
 6253SOL    HW119975   2.081   1.502   1.995 -0.0252 -0.5303  1.6733
 6253SOL    HW219976   1.947   1.530   2.060 -1.3991  0.6071 -1.4639
 6254SOL     OW19977   3.159   2.716   3.089  0.4954  0.0256  0.5440
 6254SOL    HW119978   3.124   2.784   3.147 -1.0458 -0.5936  0.3755
 6254SOL    HW219979   3.227   2.761   3.039  0.0984  1.2255  1.0336
 6255SOL     OW19980   2.075   1.864   2.022 -0.3585 -0.2659 -0.3816
 6255SOL    HW119981   2.114   1.777   2.017 -2.5590 -1.3125 -0.5018
 6255SOL    HW219982   2.020   1.862   2.100  0.8587  1.6513  0.6252
 6256SOL     OW19983   3.202   2.889   1.966 -0.2187  0.2116 -0.2716
 6256SOL    HW119984   3.187   2.944   2.043 -1.5941  0.2587 -0.5408
 6256SOL    HW219985   3.139   2.921   1.901 -2.2094 -2.6330  0.0812
 6257SOL     OW19986   2.839   2.335   3.672  0.1621  0.5401 -0.3678
 6257SOL    HW119987   2.847   2.427   3.695  0.5655  0.3805  0.1485
 6257SOL    HW219988   2.923   2.297   3.697  0.6376  0.3501 -2.1075
 6258SOL     OW19989   3.342   3.569   2.788 -0.7086 -0.1991 -0.0736
 6258SOL    HW119990   3.382   3.511   2.853 -0.5533 -0.9315 -0.8116
 6258SOL    HW219991   3.374   3.657   2.812 -0.4306 -0.4899  0.6636
 6259SOL     OW19992   2.971   1.941   3.404  0.5229 -0.1489 -0.3689
 6259SOL    HW119993   2.913   1.951   3.480  0.5459 -2.5121  0.0206
 6259SOL    HW219994   2.916   1.962   3.329 -0.3250 -0.5662  0.1233
 6260SOL     OW19995   3.270   3.254   3.783 -0.4353  0.1143 -0.7951
 6260SOL    HW119996   3.243   3.324   3.842 -1.8234 -0.4734 -0.6962
 6260SOL    HW219997   3.358   3.230   3.813  0.4754  2.4165 -1.4375
 6261SOL     OW19998   2.084   3.815   3.407  0.0381 -0.1826  0.3210
 6261SOL    HW119999   2.014   3.749   3.406  0.3174 -0.5875  2.7478
 6261SOL    HW220000   2.163   3.766   3.428  0.4102  0.7793  1.2600
 6262SOL     OW20001   3.388   2.912   3.299 -0.0342  0.3858  0.0543
 6262SOL    HW120002   3.408   2.894   3.391 -1.4763  0.9776  0.5104
 6262SOL    HW220003   3.459   2.969   3.270  1.4768 -1.3146  0.2212
 6263SOL     OW20004   3.338   2.168   1.999  0.1149 -0.1826 -0.9047
 6263SOL    HW120005   3.272   2.205   1.940 -0.7139 -0.6959 -0.3189
 6263SOL    HW220006   3.320   2.209   2.083  0.2441 -0.6793 -0.6325
 6264SOL     OW20007   2.410   2.700   2.763 -0.2526 -0.0973  0.1036
 6264SOL    HW120008   2.421   2.684   2.670  0.2714  0.7812  0.0093
 6264SOL    HW220009   2.455   2.627   2.805 -1.7799 -1.3283 -0.3105
 6265SOL     OW20010   3.614   2.070   3.817 -0.2885  0.1391  0.5709
 6265SOL    HW120011   3.687   2.119   3.779 -1.2817  0.3885 -1.1416
 6265SOL    HW220012   3.655   2.001   3.868  1.2478 -1.1972 -2.2248
 6266SOL     OW20013   3.246   2.312   3.447 -0.1780 -0.1471  0.0189
 6266SOL    HW120014   3.317   2.342   3.390  0.4221 -2.1240 -0.3538
 6266SOL    HW220015   3.290   2.278   3.525 -0.9546  1.7626  1.3480
 6267SOL     OW20016   2.458   2.885   1.965  0.1458 -0.3277 -0.9000
 6267SOL    HW120017   2.380   2.880   2.021 -0.2140  0.2306 -1.3303
 6267SOL    HW220018   2.504   2.803   1.979 -0.3437 -0.5165 -0.3712
 6268SOL     OW20019   2.670   3.527   2.532 -0.2744  0.2714  0.4445
 6268SOL    HW120020   2.685   3.510   2.625  0.8578 -0.4428  0.1445
 6268SOL    HW220021   2.717   3.609   2.514 -2.3849  1.6849  0.9771
 6269SOL     OW20022   2.736   2.601   2.563 -0.3624  0.0985  0.1907
 6269SOL    HW120023   2.761   2.509   2.555 -0.4286  0.0071  1.0242
 6269SOL    HW220024   2.817   2.649   2.549  0.0989 -0.1594  1.7772
 6270SOL     OW20025   2.948   3.030   2.303 -0.6265 -0.0288 -0.1199
 6270SOL    HW120026   2.942   3.052   2.396  0.9984  1.0644 -0.2202
 6270SOL    HW220027   2.908   2.944   2.296  0.8120 -0.9533  1.9184
 6271SOL     OW20028   3.996   3.375   2.473  0.1961  0.2284 -0.1397
 6271SOL    HW120029   4.008   3.339   2.561  1.2874 -0.2356 -0.4546
 6271SOL    HW220030   3.923   3.437   2.481  2.1156  2.4088  1.7439
 6272SOL     OW20031   2.621   3.357   3.532 -0.3342  0.5964 -0.8010
 6272SOL    HW120032   2.582   3.343   3.619  0.0012  0.3237 -0.6933
 6272SOL    HW220033   2.611   3.272   3.489 -0.5066  0.7339 -1.0359
 6273SOL     OW20034   2.321   2.931   2.864  0.3426  0.3153  0.6377
 6273SOL    HW120035   2.341   2.952   2.955 -1.0668 -0.7174  1.2246
 6273SOL    HW220036   2.364   2.847   2.849  0.4132  0.3928  0.4050
 6274SOL     OW20037   3.123   2.740   3.476 -0.4055 -0.3311 -0.1032
 6274SOL    HW120038   3.088   2.768   3.391 -0.4593 -0.4842 -0.1319
 6274SOL    HW220039   3.204   2.789   3.486 -0.3290 -0.4153 -0.3062
 6275SOL     OW20040   3.818   1.946   3.209  0.1514 -0.5649 -0.2459
 6275SOL    HW120041   3.812   2.041   3.202  1.1792 -0.4397  0.3406
 6275SOL    HW220042   3.825   1.915   3.119 -0.1539 -0.0817 -0.4370
 6276SOL     OW20043   2.094   2.164   2.592 -0.2027 -0.4471  0.2000
 6276SOL    HW120044   2.047   2.181   2.511  1.3214 -0.1938 -0.6756
 6276SOL    HW220045   2.169   2.224   2.590 -0.4699  0.0259  2.1161
 6277SOL     OW20046   4.051   3.050   2.727  0.6223  0.2217 -0.0595
 6277SOL    HW120047   4.105   3.023   2.653 -0.1320  1.2340 -1.0262
 6277SOL    HW220048   4.016   2.969   2.764  1.4140 -0.3243 -0.4961
 6278SOL     OW20049   2.539   2.330   3.654  0.2149  0.0512 -0.3024
 6278SOL    HW120050   2.633   2.349   3.654  0.3144 -0.2370  1.3181
 6278SOL    HW220051   2.526   2.272   3.579  1.0146  1.3995 -1.5395
 6279SOL     OW20052   2.643   3.280   2.407 -0.1915 -0.1752  0.2409
 6279SOL    HW120053   2.655   3.368   2.442 -0.1480 -0.0402 -0.1148
 6279SOL    HW220054   2.710   3.272   2.338 -0.9282 -0.0874 -0.4933
 6280SOL     OW20055   3.466   2.045   3.123 -0.1400 -0.5887  0.1455
 6280SOL    HW120056   3.481   1.955   3.151  0.3230 -0.4166  0.4773
 6280SOL    HW220057   3.498   2.098   3.196  0.1776 -0.1439 -0.3083
 6281SOL     OW20058   2.804   1.677   3.174 -0.3768 -0.0635 -0.8202
 6281SOL    HW120059   2.839   1.724   3.249  0.0334 -0.5772 -0.6844
 6281SOL    HW220060   2.879   1.630   3.137 -1.1528 -2.4330  0.3926
 6282SOL     OW20061   2.777   2.820   2.278  0.3800 -0.1143 -0.4041
 6282SOL    HW120062   2.796   2.781   2.193 -1.4705 -0.7036 -0.5853
 6282SOL    HW220063   2.710   2.885   2.260  1.1413  0.9195  0.3871
 6283SOL     OW20064   2.400   3.619   3.166  0.6653  0.6560  0.1102
 6283SOL    HW120065   2.358   3.584   3.244 -0.8917 -0.9648 -1.3891
 6283SOL    HW220066   2.335   3.612   3.097  2.9940 -1.0519 -2.1223
 6284SOL     OW20067   2.962   1.989   2.055  0.0569 -0.0052  0.3798
 6284SOL    HW120068   3.038   1.966   2.002 -1.4942 -0.7847 -1.6290
 6284SOL    HW220069   2.999   2.017   2.139  2.5387 -0.1446 -0.5879
 6285SOL     OW20070   2.570   2.311   2.577  0.5744  0.3504  0.3269
 6285SOL    HW120071   2.600   2.223   2.601  2.6476  1.2906  1.4379
 6285SOL    HW220072   2.611   2.328   2.492  2.6762  1.2819  1.4323
 6286SOL     OW20073   3.960   2.123   2.417  0.1078 -0.1979  0.1720
 6286SOL    HW120074   3.981   2.075   2.336 -1.8092 -0.8195 -0.0040
 6286SOL    HW220075   3.996   2.210   2.402  1.4311 -0.8278 -0.5612
 6287SOL     OW20076   1.711   2.624   1.951 -0.2343 -0.3491  0.2799
 6287SOL    HW120077   1.770   2.563   1.996 -0.9826 -0.2842  1.3957
 6287SOL    HW220078   1.626   2.610   1.993 -0.9288 -0.1547 -1.0288
 6288SOL     OW20079   3.121   3.332   2.033 -0.2411  0.0799  0.4601
 6288SOL    HW120080   3.104   3.249   1.988 -0.4685  0.6459 -0.5329
 6288SOL    HW220081   3.037   3.378   2.032 -0.1212  0.3197  1.0253
 6289SOL     OW20082   2.306   2.961   3.795  0.1965 -0.3493 -0.6707
 6289SOL    HW120083   2.237   3.015   3.834 -0.8666 -2.0740 -0.0321
 6289SOL    HW220084   2.365   2.942   3.868 -1.2482 -2.7451 -0.0370
 6290SOL     OW20085   1.934   2.299   4.071  0.5536 -0.0356  0.5675
 6290SOL    HW120086   1.969   2.285   4.159  1.7510  2.4600  0.5639
 6290SOL    HW220087   1.990   2.366   4.033 -0.2692 -0.6557 -1.9366
 6291SOL     OW20088   1.657   2.622   4.298  0.5301 -0.0467 -0.5984
 6291SOL    HW120089   1.660   2.526   4.306 -0.8967 -0.1576 -1.1532
 6291SOL    HW220090   1.650   2.653   4.388  0.6594 -0.4788 -0.4338
 6292SOL     OW20091   2.161   2.870   4.910  0.5817  0.1146  0.9406
 6292SOL    HW120092   2.171   2.964   4.922 -1.1404  0.2632  1.5916
 6292SOL    HW220093   2.142   2.859   4.817 -0.8728  0.6343  1.1422
 6293SOL     OW20094   3.178   3.482   4.360 -0.1709  0.5447  0.1011
 6293SOL    HW120095   3.192   3.519   4.447 -0.8566  0.5398  0.2241
 6293SOL    HW220096   3.247   3.520   4.306 -1.5842  3.0893 -0.0812
 6294SOL     OW20097   2.878   2.961   3.971 -0.1303 -0.6322 -0.1072
 6294SOL    HW120098   2.945   2.915   3.920  2.8688  1.5300  1.4981
 6294SOL    HW220099   2.833   3.016   3.906  1.6398 -0.0623 -0.9400
 6295SOL     OW20100   3.844   1.885   4.190  0.2234 -0.3483  0.0116
 6295SOL    HW120101   3.914   1.897   4.125 -0.3844 -2.3904 -1.0892
 6295SOL    HW220102   3.813   1.974   4.207  1.8475  0.4452 -0.8415
 6296SOL     OW20103   2.878   2.973   5.168  0.3344 -0.1008  0.1367
 6296SOL    HW120104   2.798   2.968   5.220  1.4287 -0.2010  1.8848
 6296SOL    HW220105   2.860   2.919   5.091 -1.8603  1.2387 -0.3755
 6297SOL     OW20106   2.693   2.461   5.643 -0.4840  0.1604 -0.3600
 6297SOL    HW120107   2.728   2.384   5.688  2.6328  1.2397 -0.6840
 6297SOL    HW220108   2.663   2.518   5.714 -1.3483 -0.6588 -0.0429
 6298SOL     OW20109   2.970   2.895   4.482 -0.2949  0.1522 -0.8928
 6298SOL    HW120110   2.956   2.976   4.433  1.7089  1.1511  0.0175
 6298SOL    HW220111   2.918   2.905   4.561  0.4934  0.9260 -0.4502
 6299SOL     OW20112   2.920   3.377   5.525  0.5551  0.2280  0.0845
 6299SOL    HW120113   2.925   3.377   5.430  1.2379  0.6679  0.1194
 6299SOL    HW220114   2.855   3.444   5.546 -0.1148 -0.3472 -0.0842
 6300SOL     OW20115   2.187   3.465   4.706 -0.0893  0.1605  0.3245
 6300SOL    HW120116   2.215   3.493   4.793  0.7866  0.6258 -0.0982
 6300SOL    HW220117   2.267   3.463   4.654 -0.4778 -0.9170 -0.2661
 6301SOL     OW20118   3.251   3.489   4.676 -0.1157 -0.0664  0.7023
 6301SOL    HW120119   3.291   3.519   4.758 -0.3265  0.9605  0.4452
 6301SOL    HW220120   3.325   3.478   4.616  0.1438 -1.7483  1.2860
 6302SOL     OW20121   2.126   2.219   5.187 -0.1139  0.3707  0.2678
 6302SOL    HW120122   2.136   2.168   5.268 -0.4077  0.2767  0.2457
 6302SOL    HW220123   2.034   2.209   5.163 -0.1935  0.9856  0.3077
 6303SOL     OW20124   3.414   2.245   4.406  0.3541  0.1285 -0.2549
 6303SOL    HW120125   3.374   2.235   4.492 -0.6785 -1.2107 -0.8524
 6303SOL    HW220126   3.343   2.278   4.351  1.1150  1.3734 -0.5305
 6304SOL     OW20127   1.906   3.931   4.351  0.1021  0.8308 -0.2160
 6304SOL    HW120128   1.965   3.907   4.279 -1.3009 -0.4949 -0.9998
 6304SOL    HW220129   1.884   4.023   4.335  0.6922  0.8717 -0.8378
 6305SOL     OW20130   3.124   3.308   5.042  0.4060  0.6276  0.0549
 6305SOL    HW120131   3.104   3.292   4.950  0.4994  0.3232  0.0870
 6305SOL    HW220132   3.147   3.401   5.046  1.8847  0.3141 -0.4917
 6306SOL     OW20133   2.224   3.486   4.304  0.1508  0.4164  0.6337
 6306SOL    HW120134   2.234   3.424   4.377 -1.0332 -1.5413 -0.7694
 6306SOL    HW220135   2.152   3.543   4.331  1.7202  1.7188  2.2527
 6307SOL     OW20136   2.164   3.138   4.900 -0.7423  0.6047 -0.0741
 6307SOL    HW120137   2.093   3.193   4.934 -0.6198  0.0795  1.0561
 6307SOL    HW220138   2.243   3.189   4.917 -0.7411  0.6527 -0.2226
 6308SOL     OW20139   2.624   4.117   5.333  0.2702  0.1947 -0.5438
 6308SOL    HW120140   2.681   4.176   5.382  0.7863 -1.1934  0.5948
 6308SOL    HW220141   2.685   4.059   5.287 -0.1626 -1.6218  1.0722
 6309SOL     OW20142   2.704   2.579   3.857  0.0126  0.0365  0.0006
 6309SOL    HW120143   2.617   2.541   3.874  0.4331 -1.2204 -0.5400
 6309SOL    HW220144   2.732   2.612   3.942 -1.2878  1.1260  0.0436
 6310SOL     OW20145   3.262   1.359   5.297 -0.0450 -0.0178  0.2620
 6310SOL    HW120146   3.234   1.450   5.307  0.6314  0.1247  0.9759
 6310SOL    HW220147   3.329   1.348   5.364  0.5203 -0.7842 -0.4173
 6311SOL     OW20148   1.825   2.905   4.472  0.0440  0.0127 -0.2802
 6311SOL    HW120149   1.743   2.860   4.452  0.0810  0.3065 -1.1706
 6311SOL    HW220150   1.859   2.861   4.550 -0.6477 -0.5209 -0.2726
 6312SOL     OW20151   2.255   3.156   3.557 -0.5231  0.5288  0.3249
 6312SOL    HW120152   2.279   3.072   3.518  0.9232  1.1259 -0.1402
 6312SOL    HW220153   2.271   3.144   3.651 -1.0413  0.0631  0.3598
 6313SOL     OW20154   3.940   2.474   4.529  0.3254 -0.0932  0.2207
 6313SOL    HW120155   4.000   2.464   4.455  0.3334  0.7066  0.1046
 6313SOL    HW220156   3.913   2.566   4.526  0.0616 -0.1313  1.0090
 6314SOL     OW20157   3.504   3.100   3.951  0.1770 -0.0427 -0.2594
 6314SOL    HW120158   3.477   3.063   4.034  0.0341  1.5223  0.4299
 6314SOL    HW220159   3.525   3.191   3.971  1.4719  0.0136 -1.6704
 6315SOL     OW20160   2.406   2.787   5.073 -0.0399 -0.0799 -0.0543
 6315SOL    HW120161   2.329   2.803   5.018  0.5531 -0.2675 -0.9439
 6315SOL    HW220162   2.475   2.761   5.012  1.5950  2.9100  0.3524
 6316SOL     OW20163   2.717   3.309   4.397  0.5336 -0.1712  0.4535
 6316SOL    HW120164   2.633   3.280   4.362  0.5872 -0.5429  0.6312
 6316SOL    HW220165   2.770   3.326   4.319  0.1551  0.4980  0.3311
 6317SOL     OW20166   3.147   2.999   5.137 -0.4951 -0.2783  0.2972
 6317SOL    HW120167   3.142   3.088   5.103  1.1661 -0.2293  0.0789
 6317SOL    HW220168   3.064   2.985   5.181 -0.1423  2.0158  1.8522
 6318SOL     OW20169   2.935   1.759   4.669  0.1976 -0.4482  0.0196
 6318SOL    HW120170   2.962   1.714   4.589 -0.7648 -1.2744  0.1429
 6318SOL    HW220171   2.842   1.736   4.680  0.4541 -0.8126  1.6769
 6319SOL     OW20172   1.988   2.797   5.123  0.4280 -0.5802  0.0361
 6319SOL    HW120173   2.033   2.801   5.039 -1.7317  0.9884 -1.1215
 6319SOL    HW220174   1.912   2.741   5.107 -0.4737  0.4282  0.6978
 6320SOL     OW20175   3.959   3.167   3.820  0.3964  0.2401  0.0874
 6320SOL    HW120176   3.930   3.255   3.843 -0.6347  0.0421 -0.3783
 6320SOL    HW220177   4.054   3.171   3.822  0.3506  1.1192  0.9828
 6321SOL     OW20178   3.033   3.841   4.892  0.2702 -0.3006  0.2156
 6321SOL    HW120179   3.084   3.787   4.952  1.8356  0.4424 -0.3918
 6321SOL    HW220180   3.070   3.929   4.902 -1.0310  0.3039 -0.1246
 6322SOL     OW20181   2.224   2.031   5.385 -0.1267  0.3008 -0.4374
 6322SOL    HW120182   2.301   2.086   5.397 -0.7959  1.1022  0.3507
 6322SOL    HW220183   2.194   2.012   5.474 -0.0086 -1.2128 -0.7032
 6323SOL     OW20184   3.581   3.476   4.710  0.1000 -0.5665 -0.2950
 6323SOL    HW120185   3.558   3.458   4.619  1.0982 -1.2133 -0.4328
 6323SOL    HW220186   3.629   3.398   4.738 -0.4933 -0.5263  0.8949
 6324SOL     OW20187   3.378   3.599   4.200 -0.0168 -0.4327  0.3295
 6324SOL    HW120188   3.388   3.545   4.121 -0.7030 -0.3474  0.1770
 6324SOL    HW220189   3.378   3.689   4.167 -2.8559 -0.4206  0.0680
 6325SOL     OW20190   2.537   2.306   4.124 -0.9930  0.2204  0.0718
 6325SOL    HW120191   2.629   2.319   4.146 -1.5634  0.9657  2.3993
 6325SOL    HW220192   2.538   2.258   4.042  1.5085 -1.8888  1.1886
 6326SOL     OW20193   2.390   1.965   4.723 -0.6037  0.0437 -0.1715
 6326SOL    HW120194   2.457   2.033   4.725  0.4060 -0.8067 -2.1228
 6326SOL    HW220195   2.309   2.010   4.747  0.5294  1.2350  1.6274
 6327SOL     OW20196   3.242   4.113   3.907  0.5186  0.1830  0.3965
 6327SOL    HW120197   3.257   4.159   3.824  1.1103  2.0132  1.4791
 6327SOL    HW220198   3.328   4.110   3.949 -0.2551  1.8391  2.2090
 6328SOL     OW20199   2.055   2.618   5.367  0.2436  0.5651  0.6530
 6328SOL    HW120200   2.020   2.695   5.323  2.0341  0.1196 -1.6980
 6328SOL    HW220201   2.122   2.584   5.308 -0.0065 -2.4263  1.9037
 6329SOL     OW20202   2.977   2.168   5.127 -0.0208  0.3899  0.2171
 6329SOL    HW120203   3.042   2.236   5.142 -0.7513  1.3159 -0.6959
 6329SOL    HW220204   3.013   2.116   5.055  0.2391  0.1916  0.4874
 6330SOL     OW20205   2.911   2.771   4.824 -0.4846 -0.3349  0.1761
 6330SOL    HW120206   2.886   2.744   4.912 -0.0998  0.0521  0.4106
 6330SOL    HW220207   3.006   2.774   4.826 -0.4955  1.2714  0.2581
 6331SOL     OW20208   2.887   2.382   4.965 -0.1752  0.0495 -0.0648
 6331SOL    HW120209   2.912   2.314   5.028 -1.8193  0.2356  0.8585
 6331SOL    HW220210   2.965   2.436   4.955  1.2130 -1.9776 -0.8771
 6332SOL     OW20211   3.537   2.702   4.111  0.4019  0.8111  0.0027
 6332SOL    HW120212   3.558   2.795   4.126 -0.1367  0.8272  0.7416
 6332SOL    HW220213   3.568   2.684   4.022 -0.2496  1.9245 -0.4661
 6333SOL     OW20214   1.951   2.787   4.722  0.2067 -0.4494  0.2399
 6333SOL    HW120215   1.928   2.706   4.767 -0.4801 -1.0221 -1.1036
 6333SOL    HW220216   2.045   2.780   4.706  0.4533 -0.2689  1.4636
 6334SOL     OW20217   2.221   3.893   5.522  0.3571 -0.5004  0.1261
 6334SOL    HW120218   2.193   3.970   5.571 -0.3402 -0.5661 -0.1593
 6334SOL    HW220219   2.172   3.821   5.560 -0.1834 -0.5539 -0.6483
 6335SOL     OW20220   2.731   1.889   4.119 -0.4248 -0.3969 -0.0271
 6335SOL    HW120221   2.644   1.861   4.093  0.0671 -1.5751 -0.4587
 6335SOL    HW220222   2.774   1.810   4.150  0.1985  0.3395  1.0584
 6336SOL     OW20223   3.527   3.050   5.468  0.1418  0.8281 -0.1379
 6336SOL    HW120224   3.452   3.031   5.410 -1.2582  1.8830  1.2374
 6336SOL    HW220225   3.544   3.143   5.455 -0.1088  1.0495  1.0057
 6337SOL     OW20226   3.170   3.013   4.021  0.2946  0.7688 -0.4575
 6337SOL    HW120227   3.169   3.109   4.024  0.2486  0.7474  0.4029
 6337SOL    HW220228   3.135   2.992   3.935  0.0290  1.5174 -0.5440
 6338SOL     OW20229   2.225   2.218   4.676  0.5085 -0.2489 -0.7356
 6338SOL    HW120230   2.188   2.302   4.651  0.5785  0.1945  0.5484
 6338SOL    HW220231   2.174   2.192   4.753  0.4214 -1.4371 -1.1703
 6339SOL     OW20232   2.449   2.900   4.005 -0.0644  0.0087 -0.2693
 6339SOL    HW120233   2.533   2.853   4.007 -0.2428 -0.3519 -0.9564
 6339SOL    HW220234   2.473   2.992   4.021  0.2109 -0.3880  1.8138
 6340SOL     OW20235   2.582   4.350   4.645 -0.1166  0.2453  0.2411
 6340SOL    HW120236   2.575   4.435   4.689 -3.7215  0.5273 -0.5468
 6340SOL    HW220237   2.582   4.372   4.552 -2.2634 -0.5314 -0.0108
 6341SOL     OW20238   3.379   2.891   4.413 -0.0319 -0.1379 -0.0982
 6341SOL    HW120239   3.305   2.866   4.468  1.0332  0.2098  1.5560
 6341SOL    HW220240   3.439   2.817   4.420 -0.1786 -0.4041 -1.4045
 6342SOL     OW20241   2.903   3.661   5.247 -0.3817  0.3637 -0.3460
 6342SOL    HW120242   2.972   3.598   5.226 -0.3076 -0.2328  1.5159
 6342SOL    HW220243   2.828   3.632   5.196  0.3878  0.3298 -1.5012
 6343SOL     OW20244   2.071   2.705   4.288 -0.1348  0.2413 -0.0152
 6343SOL    HW120245   2.098   2.773   4.227 -1.6138 -0.6032 -1.7139
 6343SOL    HW220246   2.113   2.728   4.371  1.4915  1.7415 -1.1936
 6344SOL     OW20247   4.071   2.461   4.290  0.8795  0.1877 -0.5805
 6344SOL    HW120248   4.074   2.515   4.211  0.7314 -1.2383 -1.6103
 6344SOL    HW220249   4.058   2.372   4.257  0.3262 -0.3817  1.0936
 6345SOL     OW20250   2.394   3.225   5.030  0.5322  0.4263 -0.2150
 6345SOL    HW120251   2.383   3.317   5.007 -0.0742  0.3677 -0.1704
 6345SOL    HW220252   2.448   3.227   5.109 -0.9426  0.8435  0.8227
 6346SOL     OW20253   3.231   3.490   3.611  0.4267 -0.3716  0.0444
 6346SOL    HW120254   3.311   3.438   3.620  0.9696  0.4657  0.2330
 6346SOL    HW220255   3.260   3.568   3.563 -0.6455 -0.8412 -1.4508
 6347SOL     OW20256   1.993   1.951   4.883 -0.1455  0.3857  0.1238
 6347SOL    HW120257   1.941   2.008   4.939  0.8029  1.2931  0.1121
 6347SOL    HW220258   2.080   1.992   4.880  0.3880 -0.7235 -0.3927
 6348SOL     OW20259   3.624   3.641   3.770 -0.5524 -0.2383  0.0933
 6348SOL    HW120260   3.646   3.665   3.860  0.3412 -2.3365  0.4808
 6348SOL    HW220261   3.705   3.652   3.721 -0.5883 -0.7515 -0.0877
 6349SOL     OW20262   2.347   4.088   4.128  0.7106 -1.1417 -0.5281
 6349SOL    HW120263   2.294   4.008   4.127  0.8237 -1.2395 -2.1501
 6349SOL    HW220264   2.407   4.077   4.054  1.5223 -0.0621 -0.0501
 6350SOL     OW20265   3.558   2.047   4.515  0.1096 -0.5098  0.2735
 6350SOL    HW120266   3.495   2.095   4.461  0.8536  0.7034  0.4373
 6350SOL    HW220267   3.621   2.114   4.543 -0.4120 -1.0066  2.8955
 6351SOL     OW20268   1.938   3.754   4.773  0.1933  0.0478 -0.2009
 6351SOL    HW120269   1.916   3.669   4.734  1.2129  0.3397 -1.4511
 6351SOL    HW220270   1.989   3.732   4.851  0.9097 -0.4898 -0.8080
 6352SOL     OW20271   2.939   3.286   4.764  0.0789  0.2395  0.4119
 6352SOL    HW120272   2.911   3.243   4.845  0.4230  0.3056  0.5701
 6352SOL    HW220273   2.905   3.230   4.694  0.3610 -0.1887  0.6126
 6353SOL     OW20274   1.822   2.769   4.152 -0.0654 -0.2889 -0.0710
 6353SOL    HW120275   1.907   2.744   4.190 -0.1940  1.4117  1.5184
 6353SOL    HW220276   1.757   2.728   4.210 -0.2734  1.5899  1.0868
 6354SOL     OW20277   3.078   2.065   5.532 -0.0790  0.0000 -0.5313
 6354SOL    HW120278   3.146   2.005   5.501 -0.0960 -0.5713  0.4773
 6354SOL    HW220279   3.126   2.138   5.570  0.1312 -1.5185  2.4315
 6355SOL     OW20280   2.659   1.547   4.112 -0.5013 -0.0932  0.7859
 6355SOL    HW120281   2.747   1.508   4.111 -0.0683  0.8397 -0.2526
 6355SOL    HW220282   2.604   1.482   4.069  0.4003  0.7309 -1.8688
 6356SOL     OW20283   2.281   2.595   4.849  0.5501 -0.5089 -0.0761
 6356SOL    HW120284   2.240   2.613   4.933  0.4894  0.9724 -0.3985
 6356SOL    HW220285   2.334   2.517   4.864  2.2213  0.9190  1.9174
 6357SOL     OW20286   2.504   3.650   4.593  0.7040  0.4008  0.1736
 6357SOL    HW120287   2.578   3.597   4.562 -0.7746 -1.1595 -0.8456
 6357SOL    HW220288   2.528   3.673   4.683  2.0825 -0.7378  0.1387
 6358SOL     OW20289   3.684   2.676   4.772 -0.3982  0.6091  0.2989
 6358SOL    HW120290   3.750   2.620   4.812  0.1595 -0.4736 -1.9851
 6358SOL    HW220291   3.718   2.765   4.784  1.4895  0.0899 -0.7707
 6359SOL     OW20292   2.330   3.764   4.388  0.2334 -0.7258  0.7051
 6359SOL    HW120293   2.380   3.701   4.337  1.1719 -1.3763  2.3444
 6359SOL    HW220294   2.376   3.769   4.472 -1.1772  0.3619  1.4626
 6360SOL     OW20295   2.679   2.302   4.440 -0.0032 -0.4488 -0.0008
 6360SOL    HW120296   2.771   2.324   4.455 -0.1876  1.2460 -1.0614
 6360SOL    HW220297   2.680   2.210   4.413  1.4209 -0.3284 -0.4315
 6361SOL     OW20298   2.460   1.716   4.604 -0.1560 -0.2554  0.0553
 6361SOL    HW120299   2.484   1.733   4.513 -1.9634  0.0012 -0.4083
 6361SOL    HW220300   2.440   1.802   4.641 -1.2123 -0.5379  0.1546
 6362SOL     OW20301   3.489   2.930   3.754  0.2594  0.0071 -0.2735
 6362SOL    HW120302   3.485   3.001   3.817  1.0565  0.5462 -0.8062
 6362SOL    HW220303   3.529   2.857   3.802  0.5246  0.2940 -0.0552
 6363SOL     OW20304   2.221   2.080   3.799 -0.3341  0.5135  0.2302
 6363SOL    HW120305   2.131   2.110   3.813 -0.5691  0.4159 -0.9183
 6363SOL    HW220306   2.276   2.152   3.828 -0.7603  0.4402  1.2753
 6364SOL     OW20307   3.278   1.956   4.271 -0.0383  0.1456 -0.0082
 6364SOL    HW120308   3.199   1.971   4.323  0.4877  0.2261  0.7845
 6364SOL    HW220309   3.345   1.931   4.335 -0.3524 -3.8139 -0.9791
 6365SOL     OW20310   3.328   2.586   4.696  0.1006 -0.3971  0.0619
 6365SOL    HW120311   3.418   2.620   4.697  0.1373 -0.4735  1.4489
 6365SOL    HW220312   3.275   2.660   4.668  0.1195  1.0558  3.4794
 6366SOL     OW20313   2.896   3.045   4.246  0.3089  0.0523  0.0495
 6366SOL    HW120314   2.941   3.129   4.246  0.7407 -0.1713  0.5756
 6366SOL    HW220315   2.899   3.016   4.154  1.1399  0.1015  0.0505
 6367SOL     OW20316   2.578   3.137   4.711  0.2151  0.0552 -1.0459
 6367SOL    HW120317   2.516   3.173   4.775  1.0934  1.2046 -0.8132
 6367SOL    HW220318   2.522   3.100   4.643 -0.7524  1.4596 -1.0709
 6368SOL     OW20319   3.504   3.183   4.426  0.2409  0.3305 -0.3142
 6368SOL    HW120320   3.555   3.102   4.435 -0.5100 -0.3954 -2.0539
 6368SOL    HW220321   3.538   3.223   4.346 -0.0869  1.2283 -0.0087
 6369SOL     OW20322   2.815   2.325   4.100  0.3782  0.3969  0.0343
 6369SOL    HW120323   2.821   2.252   4.161 -1.8476  0.6819  0.7003
 6369SOL    HW220324   2.898   2.372   4.110  1.0393 -0.9264  1.0398
 6370SOL     OW20325   2.180   2.492   5.087  0.3997  0.0142 -0.7250
 6370SOL    HW120326   2.260   2.487   5.139 -1.5656  0.0025  2.6059
 6370SOL    HW220327   2.151   2.401   5.079 -0.4934  0.1871  0.2717
 6371SOL     OW20328   1.930   2.295   4.816 -0.3040  0.2423  0.7192
 6371SOL    HW120329   1.982   2.354   4.762 -0.5166  0.9700  1.2979
 6371SOL    HW220330   1.875   2.247   4.754  0.3564  0.1586  0.1897
 6372SOL     OW20331   3.311   2.287   4.650  0.3551  0.6114  0.3495
 6372SOL    HW120332   3.346   2.373   4.674 -1.2096  1.7806 -1.2636
 6372SOL    HW220333   3.305   2.240   4.732  2.7792  1.4232  1.0752
 6373SOL     OW20334   3.535   1.451   4.853 -0.5049  0.0664  0.1316
 6373SOL    HW120335   3.514   1.493   4.936 -2.0467 -0.3103 -0.0400
 6373SOL    HW220336   3.465   1.386   4.840  0.0886 -0.3609 -1.1226
 6374SOL     OW20337   3.758   3.034   4.137 -0.1028 -0.1756  0.1716
 6374SOL    HW120338   3.753   3.004   4.046  2.2598 -1.1361  0.2931
 6374SOL    HW220339   3.788   3.124   4.131  0.2883 -0.3158 -0.0028
 6375SOL     OW20340   3.060   2.806   4.219  0.5148 -0.3021  0.2734
 6375SOL    HW120341   3.032   2.853   4.298 -4.7578 -1.1677 -0.6829
 6375SOL    HW220342   3.125   2.863   4.179 -1.8025  3.7883  1.7074
 6376SOL     OW20343   3.509   1.931   4.810  0.7037 -0.0905  0.1860
 6376SOL    HW120344   3.553   1.847   4.794 -0.1232 -0.6642  0.7954
 6376SOL    HW220345   3.549   1.992   4.748  0.5863 -1.1917 -1.0103
 6377SOL     OW20346   2.599   3.146   4.005 -0.2958  0.4409  0.4883
 6377SOL    HW120347   2.622   3.135   3.913  0.0456 -1.8728  0.7892
 6377SOL    HW220348   2.605   3.240   4.020  0.1237  0.8228 -1.7153
 6378SOL     OW20349   3.893   3.280   4.085 -0.2208 -0.0097  0.6376
 6378SOL    HW120350   3.898   3.341   4.012  0.4864 -0.3391  0.3991
 6378SOL    HW220351   3.881   3.335   4.162  1.9654  0.5683  0.6284
 6379SOL     OW20352   3.126   1.854   3.670 -0.1943  0.2029 -0.4012
 6379SOL    HW120353   3.038   1.892   3.659  0.0855  1.4655  1.2691
 6379SOL    HW220354   3.179   1.896   3.602 -0.8412 -0.4807 -1.3453
 6380SOL     OW20355   2.778   2.083   3.912  0.1871  0.1832  0.3306
 6380SOL    HW120356   2.786   2.031   3.992 -1.6322 -0.1174  0.3620
 6380SOL    HW220357   2.818   2.167   3.935  2.4331 -0.8703  0.5323
 6381SOL     OW20358   3.647   3.564   5.164  0.3697 -0.1027  0.1762
 6381SOL    HW120359   3.593   3.492   5.197  2.6353 -2.3472 -0.6887
 6381SOL    HW220360   3.730   3.554   5.210  1.2327  1.0180 -1.0909
 6382SOL     OW20361   3.463   2.941   5.120 -0.3905 -0.5402  0.3726
 6382SOL    HW120362   3.513   2.996   5.060 -0.3723 -0.7749  0.1713
 6382SOL    HW220363   3.373   2.969   5.109 -0.3586 -0.4238  0.4069
 6383SOL     OW20364   3.219   3.566   5.082 -0.2161  0.4712 -0.4833
 6383SOL    HW120365   3.290   3.559   5.017  0.1740 -0.7233  0.0571
 6383SOL    HW220366   3.225   3.656   5.114  1.1622  0.3447 -0.3416
 6384SOL     OW20367   3.197   3.220   4.721 -0.1244 -0.0589 -0.7321
 6384SOL    HW120368   3.244   3.303   4.723 -0.5342  0.1955 -1.5115
 6384SOL    HW220369   3.105   3.245   4.712 -0.5101 -0.5265  1.2631
 6385SOL     OW20370   3.740   3.311   4.870 -0.5484 -0.1762 -0.0218
 6385SOL    HW120371   3.711   3.278   4.955 -0.7164 -0.4946 -0.2011
 6385SOL    HW220372   3.830   3.340   4.885 -0.8299  0.4676  0.4464
 6386SOL     OW20373   2.415   2.365   4.932  0.3419  0.3837 -0.1077
 6386SOL    HW120374   2.388   2.275   4.918  2.2126 -0.1899 -0.2693
 6386SOL    HW220375   2.493   2.376   4.878  0.3236  2.0167  0.1334
 6387SOL     OW20376   3.160   3.420   5.334 -0.7768  0.4207  0.3567
 6387SOL    HW120377   3.092   3.367   5.294  0.3269 -0.3316 -0.5653
 6387SOL    HW220378   3.218   3.445   5.262  3.2505 -3.7984  1.6250
 6388SOL     OW20379   2.412   2.368   4.366  0.1143  1.2985  0.4141
 6388SOL    HW120380   2.498   2.362   4.407 -0.1070 -0.9627  0.6713
 6388SOL    HW220381   2.430   2.368   4.272  0.4154  1.1183  0.4707
 6389SOL     OW20382   2.633   2.911   5.261 -0.1792 -0.1596  0.2098
 6389SOL    HW120383   2.606   2.976   5.326 -0.8387 -0.1445 -0.0727
 6389SOL    HW220384   2.550   2.877   5.225  0.1715 -0.5674 -0.2225
 6390SOL     OW20385   2.799   1.760   5.153 -0.0427 -0.6491 -0.0592
 6390SOL    HW120386   2.733   1.740   5.087 -1.4504 -1.6545  1.5757
 6390SOL    HW220387   2.771   1.844   5.190  0.5594 -0.2462 -0.5055
 6391SOL     OW20388   1.751   3.257   4.977  0.2300 -0.3122 -0.1795
 6391SOL    HW120389   1.725   3.338   5.022  0.1760  0.0125 -0.7783
 6391SOL    HW220390   1.846   3.266   4.965  0.3744 -0.7446  0.5273
 6392SOL     OW20391   2.630   2.998   4.295  0.2408  0.2318  0.4246
 6392SOL    HW120392   2.659   2.941   4.223 -0.5367  0.1411  0.1699
 6392SOL    HW220393   2.700   3.062   4.305  0.2416  0.4153 -0.6061
 6393SOL     OW20394   2.593   2.683   4.405 -0.3719 -0.4697 -0.3648
 6393SOL    HW120395   2.668   2.645   4.451  1.1119  1.5499 -0.9914
 6393SOL    HW220396   2.628   2.761   4.363 -2.2792 -0.7726 -2.7177
 6394SOL     OW20397   3.195   3.269   4.048 -0.3845  0.2930 -0.0664
 6394SOL    HW120398   3.139   3.344   4.029 -1.2265 -0.3607 -0.1972
 6394SOL    HW220399   3.210   3.273   4.142 -3.4686 -1.3991  0.6341
 6395SOL     OW20400   3.443   3.442   4.462 -0.7182 -0.7521 -0.0671
 6395SOL    HW120401   3.464   3.349   4.452 -2.0101 -0.9632 -1.0904
 6395SOL    HW220402   3.447   3.477   4.373  0.5063  0.3686  0.3962
 6396SOL     OW20403   3.408   3.005   4.172 -0.3648 -0.2255 -0.4032
 6396SOL    HW120404   3.397   2.982   4.264  0.2592 -2.2596 -0.7777
 6396SOL    HW220405   3.318   3.013   4.139 -0.6421 -1.7009 -0.0856
 6397SOL     OW20406   2.065   3.388   5.535  0.5432 -0.2633  0.6406
 6397SOL    HW120407   2.056   3.477   5.502 -0.1328 -0.7209 -0.4918
 6397SOL    HW220408   2.078   3.398   5.629 -0.0293  1.0103  0.6052
 6398SOL     OW20409   2.561   2.163   5.155  0.2447  0.0799  0.3128
 6398SOL    HW120410   2.515   2.164   5.239 -1.8742 -0.4442 -0.7631
 6398SOL    HW220411   2.514   2.098   5.102  2.0298 -0.2164 -1.0292
 6399SOL     OW20412   3.855   2.968   5.240 -0.1602 -0.0382  0.0262
 6399SOL    HW120413   3.872   3.060   5.224 -2.9570  0.5272 -0.1654
 6399SOL    HW220414   3.852   2.960   5.336  1.2307 -0.2172  0.0759
 6400SOL     OW20415   2.840   2.116   5.378 -0.3022  0.0396 -0.0948
 6400SOL    HW120416   2.916   2.093   5.432  0.3615 -0.9156 -1.3945
 6400SOL    HW220417   2.876   2.129   5.290 -1.2528  2.2899 -0.2082
 6401SOL     OW20418   2.242   2.118   4.949  0.5193  0.4103  0.2442
 6401SOL    HW120419   2.314   2.060   4.974 -1.6129 -1.9088  1.4763
 6401SOL    HW220420   2.214   2.158   5.031  0.9626  2.0488 -0.3722
 6402SOL     OW20421   2.698   2.927   4.898  0.0796 -0.0802  0.0465
 6402SOL    HW120422   2.757   2.898   4.829  0.6522  2.3549 -0.5989
 6402SOL    HW220423   2.611   2.898   4.871  0.1316  1.7120 -2.3191
 6403SOL     OW20424   3.312   2.996   4.818  0.2102 -0.7236  0.4152
 6403SOL    HW120425   3.287   3.080   4.779  0.8353 -0.8378 -0.2515
 6403SOL    HW220426   3.408   2.998   4.817  0.2263 -1.5894  0.0906
 6404SOL     OW20427   3.475   2.088   4.144 -0.5976  0.0762 -0.1239
 6404SOL    HW120428   3.389   2.052   4.162 -1.6245  0.6754 -3.1948
 6404SOL    HW220429   3.497   2.139   4.222 -2.9684 -0.1833  0.7863
 6405SOL     OW20430   1.815   2.157   4.556 -0.6604 -0.3869 -0.1194
 6405SOL    HW120431   1.848   2.156   4.466 -1.2113  0.4382 -0.3406
 6405SOL    HW220432   1.839   2.071   4.591 -0.2952 -0.6553 -0.9988
 6406SOL     OW20433   1.907   3.059   5.152 -0.0977  0.0101  0.2219
 6406SOL    HW120434   1.902   3.036   5.059 -0.8710 -1.1229  0.5218
 6406SOL    HW220435   1.916   2.975   5.197 -0.5074  0.4858  1.2165
 6407SOL     OW20436   2.666   2.412   4.770  0.0798  0.1338 -0.0132
 6407SOL    HW120437   2.690   2.462   4.692  0.4482 -1.0836 -0.7022
 6407SOL    HW220438   2.749   2.383   4.807  0.0219  2.0490  1.7982
 6408SOL     OW20439   3.718   2.908   5.996 -0.1846 -0.1463  0.2346
 6408SOL    HW120440   3.672   2.868   6.069 -0.0955 -0.6949  0.0021
 6408SOL    HW220441   3.649   2.943   5.939 -0.3140 -0.8171 -0.0300
 6409SOL     OW20442   2.256   2.211   4.088 -0.3791 -0.1046 -0.5757
 6409SOL    HW120443   2.352   2.212   4.088 -0.3774  0.2031 -1.2669
 6409SOL    HW220444   2.231   2.303   4.085 -0.7302 -0.0752  1.4834
 6410SOL     OW20445   3.941   2.003   4.568  0.6629 -0.1108 -0.3433
 6410SOL    HW120446   4.013   2.053   4.528  1.0926 -0.1277  0.3827
 6410SOL    HW220447   3.911   2.059   4.640  1.4186 -1.0694  0.7350
 6411SOL     OW20448   2.905   2.658   4.048  0.2135  0.2487 -0.2530
 6411SOL    HW120449   2.958   2.598   3.996  0.7620  0.8080 -0.3449
 6411SOL    HW220450   2.968   2.703   4.105 -0.3072  0.0581  0.4934
 6412SOL     OW20451   3.190   3.393   5.597  0.2083  0.3747  0.0097
 6412SOL    HW120452   3.101   3.357   5.606 -0.2287  1.2709 -0.5433
 6412SOL    HW220453   3.204   3.397   5.502  1.1958 -0.5777  0.1045
 6413SOL     OW20454   3.924   3.852   5.171  0.3341 -0.2134  0.0966
 6413SOL    HW120455   3.921   3.926   5.233  1.5628  0.3721 -0.5054
 6413SOL    HW220456   3.910   3.893   5.086  0.8734 -0.6957 -0.2260
 6414SOL     OW20457   2.418   2.522   5.226 -0.5205 -0.4468 -0.1360
 6414SOL    HW120458   2.496   2.477   5.193  1.0868  0.3721  2.2711
 6414SOL    HW220459   2.409   2.598   5.169  0.3072 -0.6729 -0.5963
 6415SOL     OW20460   3.740   2.131   4.089 -0.4078  0.3866 -0.6541
 6415SOL    HW120461   3.738   2.201   4.023 -0.6257  0.1082 -0.9476
 6415SOL    HW220462   3.649   2.102   4.095 -0.4090  0.4996 -0.1318
 6416SOL     OW20463   3.785   2.485   3.602  0.4585  1.0686 -0.6006
 6416SOL    HW120464   3.785   2.567   3.652 -1.5197  0.6583  0.1432
 6416SOL    HW220465   3.694   2.457   3.602  0.8357 -0.3067 -2.2571
 6417SOL     OW20466   2.876   3.482   4.214  0.3389  0.0067 -0.6947
 6417SOL    HW120467   2.877   3.576   4.231 -1.7410  0.1271 -1.0294
 6417SOL    HW220468   2.969   3.458   4.210  0.9153  1.9247 -0.0783
 6418SOL     OW20469   2.210   2.800   4.642  0.5086 -0.4162 -0.0027
 6418SOL    HW120470   2.258   2.720   4.622 -0.1773 -0.6525 -0.7603
 6418SOL    HW220471   2.277   2.869   4.643  0.8194 -0.6774 -1.4261
 6419SOL     OW20472   2.094   2.454   4.682  0.4684  0.0244  0.5483
 6419SOL    HW120473   2.170   2.503   4.715  0.7196 -0.3153  0.4860
 6419SOL    HW220474   2.056   2.510   4.615  1.1646 -0.1656 -0.0094
 6420SOL     OW20475   3.036   2.424   5.470  0.0928  0.2046 -0.3399
 6420SOL    HW120476   2.996   2.494   5.418 -0.6484 -0.5832 -0.8614
 6420SOL    HW220477   3.118   2.405   5.426 -0.0307  0.2750 -0.6018
 6421SOL     OW20478   3.078   1.715   5.153 -0.4583 -0.1899 -0.2416
 6421SOL    HW120479   2.997   1.765   5.161 -0.9492 -1.1638  1.0979
 6421SOL    HW220480   3.112   1.740   5.067 -0.8412  2.1730  0.2255
 6422SOL     OW20481   2.236   3.073   4.344  0.0965  0.0818 -0.2104
 6422SOL    HW120482   2.160   3.127   4.325  0.8089  0.9232 -0.7340
 6422SOL    HW220483   2.227   2.998   4.285 -0.3347  0.1637 -0.2536
 6423SOL     OW20484   2.105   4.027   4.629  0.1894  0.2889  0.7862
 6423SOL    HW120485   2.110   4.081   4.709  1.8933  0.8739  0.3316
 6423SOL    HW220486   2.186   3.977   4.630  0.4047  0.5830 -0.7737
 6424SOL     OW20487   2.389   3.406   4.546 -0.2918 -0.1890  0.2427
 6424SOL    HW120488   2.433   3.491   4.544 -0.3771 -0.0813  1.9450
 6424SOL    HW220489   2.434   3.355   4.479  2.3968 -0.0490  1.8146
 6425SOL     OW20490   2.822   2.621   4.564  0.3816  0.3755  0.6943
 6425SOL    HW120491   2.906   2.621   4.518 -0.1884  1.6336 -0.4000
 6425SOL    HW220492   2.845   2.637   4.656  1.4898 -1.5733  0.8050
 6426SOL     OW20493   1.925   2.534   4.448 -0.2453 -0.2800  0.1542
 6426SOL    HW120494   1.955   2.611   4.401 -1.2083  0.0615  0.0749
 6426SOL    HW220495   1.887   2.477   4.380 -0.3132 -0.4353  0.3200
 6427SOL     OW20496   2.102   2.657   5.634 -0.0808 -0.0970  0.2613
 6427SOL    HW120497   2.189   2.681   5.603  0.4853 -0.5526  1.4597
 6427SOL    HW220498   2.052   2.642   5.553  1.5436 -1.9525 -0.4916
 6428SOL     OW20499   3.284   2.995   5.380  0.1536  0.0498  0.2222
 6428SOL    HW120500   3.249   2.954   5.300 -1.8068  0.2587  0.9066
 6428SOL    HW220501   3.206   3.021   5.429  1.3220  1.7263  1.2986
 6429SOL     OW20502   2.838   2.108   4.278 -0.3063  0.1002 -0.2054
 6429SOL    HW120503   2.932   2.106   4.259  0.0157 -1.0777  1.3465
 6429SOL    HW220504   2.801   2.039   4.223 -0.1770  0.1483 -0.3530
 6430SOL     OW20505   3.154   2.432   5.184 -0.0361  0.4339  0.2958
 6430SOL    HW120506   3.110   2.514   5.205  0.9813  0.9848  0.3678
 6430SOL    HW220507   3.237   2.459   5.145  1.2910 -0.5036  2.3056
 6431SOL     OW20508   1.482   3.399   5.441 -0.0814  0.3133  0.2196
 6431SOL    HW120509   1.549   3.383   5.375 -0.7181 -0.3030 -0.3054
 6431SOL    HW220510   1.463   3.492   5.435 -0.8125  0.1040 -1.1698
 6432SOL     OW20511   2.574   2.140   4.690 -0.4150 -0.1832  0.0282
 6432SOL    HW120512   2.577   2.236   4.681  2.4574 -0.1061  0.8358
 6432SOL    HW220513   2.615   2.107   4.610 -3.6096 -0.9794 -1.4578
 6433SOL     OW20514   2.863   3.947   5.304 -0.8464 -0.3388 -0.9233
 6433SOL    HW120515   2.854   3.852   5.316  1.1424 -0.3516  1.0779
 6433SOL    HW220516   2.911   3.956   5.222 -0.1541 -1.1292 -0.6214
 6434SOL     OW20517   1.786   2.541   3.979  0.1161 -0.2610 -0.3734
 6434SOL    HW120518   1.808   2.455   4.013  0.7759  0.0640  0.0353
 6434SOL    HW220519   1.768   2.594   4.057 -1.2445 -0.2642 -0.6492
 6435SOL     OW20520   1.736   2.882   5.383  0.2112 -0.1714 -0.1163
 6435SOL    HW120521   1.733   2.795   5.424 -0.3668 -1.2770 -2.3110
 6435SOL    HW220522   1.809   2.926   5.425 -0.4030 -1.1334  2.1299
 6436SOL     OW20523   3.202   2.816   4.586 -0.2712  0.1191 -0.1447
 6436SOL    HW120524   3.116   2.837   4.551 -1.4354 -0.6585  2.0548
 6436SOL    HW220525   3.208   2.866   4.668  0.7893 -0.8864  0.4310
 6437SOL     OW20526   3.622   2.487   4.266 -0.0436 -0.2383 -0.2826
 6437SOL    HW120527   3.609   2.418   4.201 -0.2534 -0.0498 -0.4452
 6437SOL    HW220528   3.610   2.568   4.216 -2.0040 -0.0932  0.3451
 6438SOL     OW20529   3.665   3.903   4.968  0.6069 -0.0224 -0.1403
 6438SOL    HW120530   3.706   3.820   4.944  0.3933 -0.9338  2.3559
 6438SOL    HW220531   3.584   3.905   4.917  1.9908  0.1218 -2.4628
 6439SOL     OW20532   2.756   3.548   4.552  0.0374  0.6675  0.3554
 6439SOL    HW120533   2.843   3.549   4.592  0.4772  0.7250 -0.5989
 6439SOL    HW220534   2.746   3.460   4.518 -0.9157  0.1739  1.7975
 6440SOL     OW20535   1.998   3.216   4.664 -0.2568  0.0997  0.4904
 6440SOL    HW120536   2.028   3.135   4.706  1.5440  0.8856  0.8061
 6440SOL    HW220537   2.061   3.282   4.692 -0.7443  1.2786 -1.0855
 6441SOL     OW20538   2.646   3.487   5.271  0.1249 -0.2438 -0.2749
 6441SOL    HW120539   2.698   3.548   5.325 -1.1636  0.1349  0.6039
 6441SOL    HW220540   2.560   3.529   5.265 -0.2849 -1.1776 -1.1112
 6442SOL     OW20541   3.559   1.759   4.218 -0.0814 -0.5292  0.0600
 6442SOL    HW120542   3.509   1.779   4.297 -0.6352  1.2087 -0.6711
 6442SOL    HW220543   3.643   1.805   4.232  0.6748 -1.9944  0.5323
 6443SOL     OW20544   3.235   3.223   4.313  0.3239 -0.4378  0.0394
 6443SOL    HW120545   3.222   3.313   4.344 -0.1084 -0.0905 -1.1035
 6443SOL    HW220546   3.316   3.195   4.356  0.8882  0.7702 -0.1699
 6444SOL     OW20547   1.842   3.776   5.166 -0.6776  0.4852  0.1699
 6444SOL    HW120548   1.757   3.815   5.143  0.0996  1.3011 -1.4811
 6444SOL    HW220549   1.894   3.850   5.198  0.4173  0.6681 -1.8666
 6445SOL     OW20550   3.586   3.050   4.846  0.0969 -0.5396  0.3040
 6445SOL    HW120551   3.635   3.132   4.838  0.7077 -1.0720 -1.8570
 6445SOL    HW220552   3.615   2.997   4.773  0.7023 -3.2718  2.3746
 6446SOL     OW20553   2.562   3.688   4.850  0.1476  0.3070 -0.0558
 6446SOL    HW120554   2.647   3.730   4.836 -0.7195  2.0482 -0.4414
 6446SOL    HW220555   2.583   3.602   4.886  2.1608 -0.5543 -2.9723
 6447SOL     OW20556   2.629   3.426   4.055  0.2179 -0.3581  0.3770
 6447SOL    HW120557   2.702   3.439   4.116 -1.5965 -1.2801  2.9184
 6447SOL    HW220558   2.573   3.502   4.070 -1.4134 -1.7588  1.7145
 6448SOL     OW20559   3.459   4.185   5.218 -0.3229 -0.0693  1.0602
 6448SOL    HW120560   3.490   4.158   5.131  0.3085 -0.8902  1.5260
 6448SOL    HW220561   3.529   4.242   5.251  0.5862 -1.6420  1.9691
 6449SOL     OW20562   3.573   1.671   4.670 -0.1601  0.1016 -0.0533
 6449SOL    HW120563   3.666   1.651   4.662 -0.2125  0.3038 -1.3899
 6449SOL    HW220564   3.538   1.603   4.728  0.5722 -0.7625 -0.6023
 6450SOL     OW20565   2.187   2.479   4.011 -0.0209  0.3612  0.3380
 6450SOL    HW120566   2.177   2.524   3.926 -2.4380  0.3027  0.5126
 6450SOL    HW220567   2.236   2.541   4.065  1.0589  0.6436 -0.9207
 6451SOL     OW20568   3.025   3.158   3.721  0.2636  0.2267 -0.0152
 6451SOL    HW120569   3.107   3.201   3.743 -0.2572  0.2414  2.1556
 6451SOL    HW220570   2.974   3.224   3.675  1.4566  0.1905 -1.4533
 6452SOL     OW20571   3.158   2.758   4.921  0.1098  0.1331 -0.0782
 6452SOL    HW120572   3.206   2.841   4.918  0.7855 -0.2537 -0.2171
 6452SOL    HW220573   3.156   2.734   5.014  1.0536 -0.3388 -0.1723
 6453SOL     OW20574   3.057   2.875   3.714  0.2229 -0.1067 -0.2229
 6453SOL    HW120575   3.053   2.969   3.698  3.5537  0.2028  0.0628
 6453SOL    HW220576   3.091   2.838   3.633  0.6250 -0.8184  0.2555
 6454SOL     OW20577   3.328   3.812   3.852  0.2178 -0.1430 -0.2638
 6454SOL    HW120578   3.365   3.872   3.786 -0.7282  1.2690  0.4321
 6454SOL    HW220579   3.363   3.844   3.935 -1.2876  0.2520  0.2481
 6455SOL     OW20580   2.023   3.341   5.013 -0.3706 -0.2511 -0.3235
 6455SOL    HW120581   2.029   3.436   5.006 -4.0668  0.1842  0.3574
 6455SOL    HW220582   2.043   3.322   5.105 -0.3620 -0.0695 -0.2875
 6456SOL     OW20583   3.594   3.221   5.124  0.5671 -0.6107 -0.1115
 6456SOL    HW120584   3.685   3.216   5.154  0.2174  0.0268  1.1087
 6456SOL    HW220585   3.542   3.220   5.204 -0.5251 -1.1862 -0.8028
 6457SOL     OW20586   2.695   2.812   4.061  0.2605 -0.0447  0.2464
 6457SOL    HW120587   2.754   2.742   4.091  0.8006  0.3126  0.0166
 6457SOL    HW220588   2.750   2.871   4.011 -0.4460 -0.1211 -0.6552
 6458SOL     OW20589   3.102   1.724   4.888 -0.0291 -0.2803  0.2983
 6458SOL    HW120590   3.165   1.792   4.862  0.8554 -0.7854  1.0768
 6458SOL    HW220591   3.038   1.723   4.817 -0.8294  2.2809  0.8849
 6459SOL     OW20592   2.521   3.413   3.790 -0.1512 -0.0507  0.1698
 6459SOL    HW120593   2.584   3.480   3.765 -0.3331 -0.1725 -0.6333
 6459SOL    HW220594   2.529   3.407   3.885 -1.3060  2.2786  0.4708
 6460SOL     OW20595   3.122   2.508   4.874 -0.0708  0.0244 -0.1269
 6460SOL    HW120596   3.181   2.494   4.800 -1.7629 -0.1782 -1.5037
 6460SOL    HW220597   3.147   2.593   4.909 -0.2153  0.8736 -1.9464
 6461SOL     OW20598   2.466   3.295   4.294  0.2735 -0.2536  0.1868
 6461SOL    HW120599   2.435   3.360   4.231  0.2624 -0.1904  0.2558
 6461SOL    HW220600   2.396   3.229   4.296  1.0385 -1.1489 -1.1324
 6462SOL     OW20601   2.516   3.239   5.284  0.5209 -0.5630  0.1637
 6462SOL    HW120602   2.536   3.198   5.368 -1.3448  0.4079  1.1605
 6462SOL    HW220603   2.562   3.323   5.287  0.6196 -0.6173  0.1446
 6463SOL     OW20604   2.702   1.991   4.867 -0.0491  0.3417  0.9730
 6463SOL    HW120605   2.664   2.055   4.807 -0.7113 -1.1400 -0.2674
 6463SOL    HW220606   2.732   2.042   4.942 -2.5090  1.8303  1.0204
 6464SOL     OW20607   2.252   2.656   3.808 -0.2808  0.3436  0.1467
 6464SOL    HW120608   2.161   2.655   3.779 -0.2296 -0.4983 -0.0130
 6464SOL    HW220609   2.272   2.748   3.823 -1.4688  0.4696  1.1358
 6465SOL     OW20610   2.952   2.322   4.471 -0.1371  0.1384 -0.1700
 6465SOL    HW120611   2.985   2.409   4.447  0.6630 -0.2996 -0.6971
 6465SOL    HW220612   2.963   2.317   4.566  1.3946 -0.0116 -0.3354
 6466SOL     OW20613   1.772   1.917   3.701 -0.0829  0.0263 -0.4338
 6466SOL    HW120614   1.676   1.908   3.698 -0.0651 -0.4832  0.3193
 6466SOL    HW220615   1.787   1.995   3.754 -0.0525 -1.4117  1.7834
 6467SOL     OW20616   3.112   2.501   3.969  0.1676 -0.0323 -0.3117
 6467SOL    HW120617   3.179   2.567   3.952  1.3664 -1.1599 -0.1843
 6467SOL    HW220618   3.159   2.418   3.965 -1.2512 -0.8771 -0.2785
 6468SOL     OW20619   2.781   2.707   5.081 -0.3423 -0.3565  0.5864
 6468SOL    HW120620   2.717   2.636   5.090 -0.8122 -0.3089 -1.6467
 6468SOL    HW220621   2.729   2.787   5.089 -0.5545 -0.3175 -0.9023
 6469SOL     OW20622   3.004   3.643   4.689 -0.0260  0.1316 -0.3301
 6469SOL    HW120623   3.089   3.600   4.680 -0.3101 -0.5850  0.3746
 6469SOL    HW220624   3.019   3.711   4.754  0.7667  2.0694 -2.3800
 6470SOL     OW20625   2.665   2.454   5.121  0.3866 -0.5696 -0.4511
 6470SOL    HW120626   2.628   2.368   5.140  1.7566 -1.4425 -1.4917
 6470SOL    HW220627   2.739   2.435   5.063  1.8539  1.1439  0.7633
 6471SOL     OW20628   3.646   2.810   5.266  0.6511  0.5079  0.3093
 6471SOL    HW120629   3.567   2.858   5.240 -0.1351 -0.0522  1.5467
 6471SOL    HW220630   3.718   2.865   5.238 -0.1311  0.4803 -1.9533
 6472SOL     OW20631   2.250   3.766   5.103  0.2285 -0.0830 -0.1712
 6472SOL    HW120632   2.300   3.817   5.167  0.3312 -0.4457  0.0400
 6472SOL    HW220633   2.279   3.800   5.019  0.1537  0.3424 -0.0282
 6473SOL     OW20634   3.582   2.689   4.482 -0.0466 -0.4870  0.6829
 6473SOL    HW120635   3.587   2.617   4.418  0.1430 -1.3794  1.6688
 6473SOL    HW220636   3.619   2.652   4.562 -0.7649  0.4385  1.4619
 6474SOL     OW20637   3.081   2.047   4.429 -0.0362  0.0343 -0.1481
 6474SOL    HW120638   3.042   2.134   4.443  0.7429  0.5662 -1.1708
 6474SOL    HW220639   3.013   1.986   4.456 -1.9393  0.9109 -2.5641
 6475SOL     OW20640   2.362   2.604   4.502  0.4397  0.6544 -0.0508
 6475SOL    HW120641   2.353   2.520   4.455 -1.6281  1.3975 -1.0932
 6475SOL    HW220642   2.449   2.636   4.476  1.1065 -0.9572  0.0659
 6476SOL     OW20643   3.299   2.248   5.562 -0.5980  0.3039  0.6242
 6476SOL    HW120644   3.338   2.263   5.476  1.3278  1.6473  1.6490
 6476SOL    HW220645   3.299   2.334   5.604 -4.7994  0.4270  0.7664
 6477SOL     OW20646   3.641   2.962   4.603  0.1137  0.0272 -0.1054
 6477SOL    HW120647   3.702   2.944   4.531  0.8253 -0.4315  0.6032
 6477SOL    HW220648   3.574   2.894   4.595  0.6071 -0.4956  0.1185
 6478SOL     OW20649   2.690   3.061   3.734  0.0495  0.0617  0.1909
 6478SOL    HW120650   2.641   2.984   3.706  0.0785 -0.2526  0.9762
 6478SOL    HW220651   2.738   3.089   3.656  0.2095 -0.8463 -0.0502
 6479SOL     OW20652   2.418   3.975   4.614  0.4223 -0.0170 -0.0102
 6479SOL    HW120653   2.492   3.947   4.561  0.8455 -0.5952  0.8581
 6479SOL    HW220654   2.385   4.054   4.571  1.4285  0.1371 -0.5108
 6480SOL     OW20655   2.820   3.117   4.591  0.6413  0.1900  0.1206
 6480SOL    HW120656   2.820   3.177   4.517  0.7678  0.2978  0.2079
 6480SOL    HW220657   2.731   3.124   4.628  0.8897  0.8996  0.5960
 6481SOL     OW20658   3.279   2.270   3.926  0.7961 -0.4937 -0.7139
 6481SOL    HW120659   3.350   2.287   3.864  0.0723  1.7086 -1.0606
 6481SOL    HW220660   3.276   2.175   3.934  4.2246 -0.6927 -0.1159
 6482SOL     OW20661   3.602   3.325   4.220 -0.6526  0.5627 -0.0910
 6482SOL    HW120662   3.677   3.382   4.237 -0.5487  0.1457  0.9554
 6482SOL    HW220663   3.591   3.326   4.125  0.7859  0.5000 -0.2765
 6483SOL     OW20664   2.026   2.937   5.420 -0.6221 -0.1085 -0.1119
 6483SOL    HW120665   2.090   2.884   5.372 -0.4856  1.0319 -1.2213
 6483SOL    HW220666   2.079   2.994   5.475 -0.7062  0.2297 -0.3792
 6484SOL     OW20667   1.835   3.162   4.431  0.0913  0.0604 -0.7922
 6484SOL    HW120668   1.877   3.198   4.509  0.7520 -0.2726 -0.9894
 6484SOL    HW220669   1.842   3.067   4.442 -0.0591  0.0107 -1.1244
 6485SOL     OW20670   2.729   3.479   4.887 -0.0430 -0.1256 -0.6231
 6485SOL    HW120671   2.721   3.401   4.943 -0.1850  0.4407  0.1691
 6485SOL    HW220672   2.801   3.459   4.828 -1.1377 -1.5285 -1.5636
 6486SOL     OW20673   3.488   2.031   5.338  0.1075 -0.1148 -0.4713
 6486SOL    HW120674   3.493   2.122   5.311 -2.0714  0.9362  2.2062
 6486SOL    HW220675   3.567   2.017   5.390 -1.6806  1.9552  3.2300
 6487SOL     OW20676   2.418   2.579   3.613 -0.1558  0.3371 -0.1206
 6487SOL    HW120677   2.446   2.492   3.642 -1.9403 -0.0557  0.5690
 6487SOL    HW220678   2.353   2.607   3.679 -0.4644  1.6913 -0.9507
 6488SOL     OW20679   3.407   3.875   4.807  0.2795  0.4670 -0.1339
 6488SOL    HW120680   3.419   3.927   4.728  0.1363 -0.3389 -0.6928
 6488SOL    HW220681   3.358   3.932   4.866  0.4655  1.1021 -0.5840
 6489SOL     OW20682   2.523   2.702   4.826  0.1916  0.0567  0.1191
 6489SOL    HW120683   2.432   2.677   4.815  0.2852  0.5761 -2.2337
 6489SOL    HW220684   2.571   2.619   4.823 -0.1559 -0.2269  1.4606
 6490SOL     OW20685   2.387   4.183   4.422 -0.6280  0.7518  0.0367
 6490SOL    HW120686   2.461   4.237   4.393  0.5008 -0.6508  0.1746
 6490SOL    HW220687   2.366   4.127   4.347 -0.9477  0.5199  0.2922
 6491SOL     OW20688   3.237   2.072   5.000  0.4976 -0.0058 -0.2001
 6491SOL    HW120689   3.254   2.038   4.912 -1.0142 -0.2486 -0.4233
 6491SOL    HW220690   3.311   2.130   5.017  0.9114 -0.0848 -1.5542
 6492SOL     OW20691   2.604   1.741   4.954  0.8839  0.0288 -0.0286
 6492SOL    HW120692   2.632   1.825   4.919 -1.5584  0.5783 -0.8251
 6492SOL    HW220693   2.621   1.679   4.883 -0.4506  0.4746 -0.7696
 6493SOL     OW20694   3.249   2.714   3.837  0.3265 -0.8255 -0.2610
 6493SOL    HW120695   3.266   2.782   3.903  0.5899 -2.1282  1.0834
 6493SOL    HW220696   3.175   2.747   3.787 -0.0745  0.0888  0.8849
 6494SOL     OW20697   2.336   3.513   4.981 -0.1444 -0.1346 -0.3668
 6494SOL    HW120698   2.316   3.551   5.067  1.6449 -0.1678  0.0854
 6494SOL    HW220699   2.366   3.587   4.928  1.3420 -0.5395 -0.1227
 6495SOL     OW20700   3.048   2.101   4.088  0.3740 -0.1587 -0.1324
 6495SOL    HW120701   3.105   2.160   4.138 -0.8050  2.0928 -1.2991
 6495SOL    HW220702   3.105   2.066   4.019  0.8247  0.5071 -0.1056
 6496SOL     OW20703   2.992   2.241   4.749  0.3966  0.7422  0.0901
 6496SOL    HW120704   2.986   2.154   4.788 -1.0372 -0.3395 -2.3237
 6496SOL    HW220705   2.975   2.301   4.821 -1.6677 -1.1160  1.2552
 6497SOL     OW20706   3.080   2.556   4.401 -0.5847 -0.1890  0.1333
 6497SOL    HW120707   3.155   2.606   4.368  0.2702 -2.3408 -1.4339
 6497SOL    HW220708   3.004   2.598   4.360  0.0285  0.3015 -0.5409
 6498SOL     OW20709   2.192   2.932   4.101  0.3677  0.4285  0.2680
 6498SOL    HW120710   2.179   3.010   4.047 -1.4551 -0.4810 -0.6812
 6498SOL    HW220711   2.281   2.904   4.082  0.6151  1.5551 -0.3241
 6499SOL     OW20712   3.102   3.515   4.004 -0.1837  0.0576  0.4972
 6499SOL    HW120713   3.053   3.581   3.956 -1.1131 -1.2727 -0.4321
 6499SOL    HW220714   3.192   3.548   4.003 -0.2836  0.4049 -1.5795
 6500SOL     OW20715   1.887   2.640   5.826 -0.4833 -0.2880 -0.9226
 6500SOL    HW120716   1.936   2.630   5.907 -0.8725 -2.1165 -0.8763
 6500SOL    HW220717   1.952   2.670   5.762 -0.4809  2.7561  0.3576
 6501SOL     OW20718   1.979   2.419   6.449  0.2482 -0.2841 -0.5032
 6501SOL    HW120719   1.957   2.412   6.542 -0.3213  0.3953 -0.5820
 6501SOL    HW220720   1.909   2.370   6.405  1.5503 -2.2914 -0.4914
 6502SOL     OW20721   1.486   2.532   5.891 -0.3330 -0.1500 -0.4392
 6502SOL    HW120722   1.440   2.585   5.956 -0.5092  0.0621 -0.7310
 6502SOL    HW220723   1.546   2.593   5.848  0.9461 -0.6287  0.5898
 6503SOL     OW20724   2.449   3.046   6.931 -0.6378  0.1784  0.4167
 6503SOL    HW120725   2.399   3.015   7.006 -0.8141 -0.4775  0.0354
 6503SOL    HW220726   2.498   3.121   6.964  0.3681 -0.9359  1.5726
 6504SOL     OW20727   3.337   3.308   6.564 -0.1251  0.2662  0.0477
 6504SOL    HW120728   3.298   3.386   6.525  0.2741  0.7871  0.6761
 6504SOL    HW220729   3.269   3.241   6.556 -1.9011  1.5928  2.6875
 6505SOL     OW20730   2.598   2.943   5.975  0.2138  0.3022  0.6788
 6505SOL    HW120731   2.686   2.964   5.943 -0.1231  1.0360  0.2022
 6505SOL    HW220732   2.557   3.028   5.991 -0.3653 -0.0327  1.0327
 6506SOL     OW20733   3.406   2.934   5.922 -0.7954 -0.2542  0.4505
 6506SOL    HW120734   3.386   3.005   5.983 -0.4513  1.0560 -0.9095
 6506SOL    HW220735   3.404   2.975   5.835 -1.1492 -2.0287 -0.4356
 6507SOL     OW20736   2.625   3.109   6.575 -0.2403  0.1405 -0.9899
 6507SOL    HW120737   2.531   3.094   6.585 -0.0693 -0.7859 -0.6600
 6507SOL    HW220738   2.666   3.029   6.610  0.7062  1.0457  0.0285
 6508SOL     OW20739   2.769   2.115   7.531  0.6500 -0.2660  0.0072
 6508SOL    HW120740   2.796   2.101   7.621 -0.5702 -1.0031  0.2827
 6508SOL    HW220741   2.760   2.210   7.523 -0.5221 -0.2634  1.0705
 6509SOL     OW20742   2.209   3.011   5.682 -0.1029  0.4089 -0.2300
 6509SOL    HW120743   2.285   3.020   5.739 -0.2609  0.4071 -0.0157
 6509SOL    HW220744   2.138   2.983   5.741 -0.2351  0.2798 -0.4497
 6510SOL     OW20745   3.111   3.073   7.934 -0.3698  0.0363 -0.0768
 6510SOL    HW120746   3.065   3.152   7.964 -1.4930 -0.7462  0.2988
 6510SOL    HW220747   3.078   3.003   7.990 -0.6476 -1.0173 -1.5050
 6511SOL     OW20748   2.066   3.055   6.659  0.0921 -0.1174  0.0929
 6511SOL    HW120749   2.019   3.138   6.662  1.0617  0.4973 -1.2159
 6511SOL    HW220750   2.012   2.999   6.603  1.2732  0.8779 -2.1646
 6512SOL     OW20751   3.198   3.500   7.192 -0.3227 -0.1351 -0.3737
 6512SOL    HW120752   3.197   3.440   7.118 -0.9141  0.7227 -1.0836
 6512SOL    HW220753   3.274   3.557   7.177 -0.7933  0.4334 -0.6663
 6513SOL     OW20754   2.225   2.258   7.339  0.1288 -0.5202  0.1126
 6513SOL    HW120755   2.264   2.342   7.362 -0.9347 -0.0305  0.1504
 6513SOL    HW220756   2.266   2.236   7.255  0.5096 -0.0345  0.1626
 6514SOL     OW20757   3.186   2.646   6.484  0.1548 -0.0026  0.4812
 6514SOL    HW120758   3.185   2.631   6.389  1.4308 -0.9264  0.5946
 6514SOL    HW220759   3.220   2.735   6.493 -0.3384  0.2356  0.0679
 6515SOL     OW20760   2.584   3.870   5.883 -0.3275 -0.2113  0.1337
 6515SOL    HW120761   2.541   3.784   5.889 -0.2239 -0.2344  0.5485
 6515SOL    HW220762   2.514   3.929   5.853 -0.2151 -0.5779 -0.8865
 6516SOL     OW20763   3.224   2.965   7.713  0.0484 -0.5399 -0.1491
 6516SOL    HW120764   3.294   2.927   7.767  1.0469  1.7983  0.3359
 6516SOL    HW220765   3.174   3.021   7.773  1.2725  2.2394 -1.5134
 6517SOL     OW20766   2.050   3.242   6.167 -0.5686 -0.2065 -0.1596
 6517SOL    HW120767   2.136   3.256   6.206 -1.0442 -0.7015  1.0925
 6517SOL    HW220768   2.017   3.331   6.150  0.0887 -0.0115 -0.4559
 6518SOL     OW20769   1.895   3.022   6.085  0.1430  0.5678 -0.3014
 6518SOL    HW120770   1.938   3.108   6.076 -0.3147  0.8305 -0.0224
 6518SOL    HW220771   1.902   3.002   6.179  0.0477  0.4025 -0.3306
 6519SOL     OW20772   2.436   3.651   7.038  0.2616  0.9138  0.2977
 6519SOL    HW120773   2.428   3.579   6.976  1.3284  1.8788 -1.0222
 6519SOL    HW220774   2.426   3.610   7.124  1.6875 -0.9575 -0.3526
 6520SOL     OW20775   2.612   3.118   5.509 -0.3124 -0.0770  0.7638
 6520SOL    HW120776   2.707   3.108   5.504 -0.0943  1.4708  1.3298
 6520SOL    HW220777   2.583   3.041   5.558  0.6620 -0.4584  0.7729
 6521SOL     OW20778   3.107   2.211   6.367  0.5424 -0.2860 -0.2636
 6521SOL    HW120779   3.020   2.211   6.405  0.2412 -0.3125 -0.9419
 6521SOL    HW220780   3.095   2.243   6.278  1.2791  0.0826 -0.2481
 6522SOL     OW20781   2.061   2.611   6.050 -0.5506  0.1061  1.1533
 6522SOL    HW120782   2.126   2.674   6.079  1.0165 -1.3807  1.0832
 6522SOL    HW220783   2.002   2.601   6.124 -1.2852  2.1494  0.9011
 6523SOL     OW20784   2.029   3.573   5.924 -0.2208 -0.5073 -0.1080
 6523SOL    HW120785   1.947   3.622   5.924  1.4456  2.5537  1.2128
 6523SOL    HW220786   2.052   3.566   6.017  0.9814 -1.3897 -0.4515
 6524SOL     OW20787   3.162   3.108   6.354  0.0344  0.1335 -0.5497
 6524SOL    HW120788   3.145   3.199   6.328 -0.7567  0.5439  1.2480
 6524SOL    HW220789   3.082   3.061   6.332 -0.0955  0.1834 -0.1949
 6525SOL     OW20790   3.578   2.796   6.205 -0.1862 -0.3655  0.5389
 6525SOL    HW120791   3.544   2.858   6.270  0.4729  0.6274 -0.0343
 6525SOL    HW220792   3.634   2.737   6.256 -0.9388 -0.5898  1.1154
 6526SOL     OW20793   2.251   2.868   6.821 -0.0426  0.5497 -0.0761
 6526SOL    HW120794   2.299   2.951   6.815  0.1322  0.5699  1.1770
 6526SOL    HW220795   2.160   2.893   6.803  0.4062  0.4072 -3.0551
 6527SOL     OW20796   2.541   3.209   6.047 -0.0921  1.0885 -0.2242
 6527SOL    HW120797   2.549   3.292   6.000 -1.7880  2.2156  1.3788
 6527SOL    HW220798   2.613   3.210   6.110  1.1011  0.3750 -1.5038
 6528SOL     OW20799   2.837   2.640   7.246  1.2097  0.5419  0.2405
 6528SOL    HW120800   2.814   2.704   7.179  1.0479  0.5535  0.3061
 6528SOL    HW220801   2.922   2.668   7.278  0.7610  1.2149  0.8681
 6529SOL     OW20802   2.485   2.316   6.094  0.1622  0.0271  0.3154
 6529SOL    HW120803   2.509   2.244   6.036 -0.9976 -0.3071  0.2129
 6529SOL    HW220804   2.389   2.311   6.099  0.1788  0.5658  1.5971
 6530SOL     OW20805   2.192   2.592   6.831  0.4324  0.2331 -0.1315
 6530SOL    HW120806   2.262   2.568   6.771 -0.0371  1.1750 -1.0856
 6530SOL    HW220807   2.209   2.683   6.853  0.6092 -0.1024  1.2106
 6531SOL     OW20808   3.159   3.390   5.891 -0.1545 -0.2597 -0.1699
 6531SOL    HW120809   3.168   3.479   5.927  1.1043 -0.3264 -0.2677
 6531SOL    HW220810   3.173   3.401   5.797 -2.0944 -0.2852 -0.5016
 6532SOL     OW20811   2.945   3.133   7.411 -0.7361  0.6679 -0.7660
 6532SOL    HW120812   2.986   3.105   7.330 -1.7114  0.3049 -1.1544
 6532SOL    HW220813   2.878   3.066   7.428  0.8513 -0.4540  1.4955
 6533SOL     OW20814   2.178   2.230   7.623 -0.4804  0.0178  0.1608
 6533SOL    HW120815   2.192   2.278   7.541 -1.1947 -0.2645 -0.1308
 6533SOL    HW220816   2.135   2.294   7.680 -0.5386  0.0268  0.1075
 6534SOL     OW20817   3.009   3.726   6.454  0.1603 -0.0263  0.0991
 6534SOL    HW120818   2.972   3.702   6.539 -1.1218 -0.8139 -0.6488
 6534SOL    HW220819   2.988   3.819   6.445 -1.2563 -0.3408 -0.0928
 6535SOL     OW20820   3.246   3.609   6.362  0.3520  0.2361  0.1688
 6535SOL    HW120821   3.168   3.655   6.394 -0.8079 -1.6504  0.2082
 6535SOL    HW220822   3.319   3.659   6.398 -0.8312  1.5703  0.8652
 6536SOL     OW20823   2.381   2.502   5.495 -0.3688 -0.5906  0.3858
 6536SOL    HW120824   2.401   2.491   5.402  0.7556 -0.0540  0.5426
 6536SOL    HW220825   2.363   2.595   5.505 -0.0407 -0.5666  0.7742
 6537SOL     OW20826   2.541   2.917   5.678  0.0413  0.4161  0.9522
 6537SOL    HW120827   2.546   2.921   5.773  1.3771  1.4652  0.8735
 6537SOL    HW220828   2.607   2.853   5.652 -1.7136 -1.3982  0.7946
 6538SOL     OW20829   3.478   3.394   6.092 -0.2205 -0.1519  0.3309
 6538SOL    HW120830   3.398   3.359   6.131 -0.6052  1.3659  0.9702
 6538SOL    HW220831   3.473   3.489   6.106  0.0594  0.3950 -2.6477
 6539SOL     OW20832   2.312   2.233   7.048  0.4250  0.5976  0.1386
 6539SOL    HW120833   2.383   2.296   7.057  0.2737  0.6466  1.1410
 6539SOL    HW220834   2.353   2.156   7.007  0.9062  0.8635  0.1160
 6540SOL     OW20835   3.357   2.044   7.281 -0.2879 -0.3730 -0.0319
 6540SOL    HW120836   3.283   2.020   7.336 -0.0003  1.3077  1.1615
 6540SOL    HW220837   3.431   1.996   7.318 -0.2807  0.0215  0.4775
 6541SOL     OW20838   3.026   2.656   7.763  0.3470 -0.2326  0.7023
 6541SOL    HW120839   3.080   2.675   7.687 -0.0986  1.2264  0.7049
 6541SOL    HW220840   3.062   2.712   7.832  1.4579 -2.3485  1.9142
 6542SOL     OW20841   2.646   2.367   6.742 -0.3387  0.2191  0.1952
 6542SOL    HW120842   2.657   2.345   6.649  0.9067  1.8668 -0.0876
 6542SOL    HW220843   2.654   2.283   6.787 -0.3849 -0.5317 -1.1342
 6543SOL     OW20844   2.679   2.719   5.549  1.0443 -0.5725 -0.4100
 6543SOL    HW120845   2.610   2.687   5.491 -0.7484 -0.4831  1.5523
 6543SOL    HW220846   2.730   2.641   5.571  0.9362 -0.8325 -1.0765
 6544SOL     OW20847   1.907   2.599   6.257  0.1252  0.9982  0.3015
 6544SOL    HW120848   1.935   2.556   6.337  1.9737  1.2640 -0.1421
 6544SOL    HW220849   1.831   2.549   6.227  1.7031 -1.5168  0.2085
 6545SOL     OW20850   1.992   3.716   6.896 -0.4068 -0.2559 -0.2453
 6545SOL    HW120851   2.081   3.740   6.920  0.1455 -2.2150 -0.1770
 6545SOL    HW220852   1.955   3.679   6.976 -0.4018 -1.7681 -0.8999
 6546SOL     OW20853   2.902   3.369   5.233 -0.0723  0.5002 -0.2891
 6546SOL    HW120854   2.818   3.410   5.212 -1.3369 -0.9257  1.6275
 6546SOL    HW220855   2.941   3.347   5.148 -1.8748  0.7468 -1.2179
 6547SOL     OW20856   3.831   2.617   7.524  0.4439  0.2768 -0.4630
 6547SOL    HW120857   3.885   2.679   7.574 -0.9948  0.6019  0.7439
 6547SOL    HW220858   3.884   2.537   7.521  0.9440  0.5275  0.8358
 6548SOL     OW20859   3.209   3.129   6.046  0.3720  0.0473  0.0407
 6548SOL    HW120860   3.212   3.222   6.025  0.3440  0.6894  2.5339
 6548SOL    HW220861   3.164   3.125   6.131  0.6446 -2.2053  0.1438
 6549SOL     OW20862   2.418   2.096   6.476 -0.0437  1.0291  0.3964
 6549SOL    HW120863   2.347   2.104   6.540 -0.2917 -1.4438  0.5325
 6549SOL    HW220864   2.386   2.033   6.412  0.6338  2.6465 -1.6569
 6550SOL     OW20865   2.144   3.509   6.168  0.4212 -0.3587 -0.4970
 6550SOL    HW120866   2.156   3.563   6.247  0.4819  0.1655 -0.8561
 6550SOL    HW220867   2.227   3.515   6.122  0.1062  0.0480 -1.0273
 6551SOL     OW20868   1.889   3.260   6.599  0.0436  0.1258  0.4890
 6551SOL    HW120869   1.886   3.286   6.507  1.0425 -1.1559  0.0661
 6551SOL    HW220870   1.916   3.339   6.646 -1.3323  1.0361 -0.1882
 6552SOL     OW20871   3.416   2.591   6.622  0.5053 -0.0084 -0.4197
 6552SOL    HW120872   3.346   2.593   6.557  0.6344  0.3368 -0.5496
 6552SOL    HW220873   3.465   2.671   6.607  0.1496  0.4012  0.5388
 6553SOL     OW20874   3.157   2.987   7.223  0.3525 -0.5954  0.6569
 6553SOL    HW120875   3.235   2.974   7.277  0.9106  0.4764  0.1394
 6553SOL    HW220876   3.191   3.007   7.136 -0.3419  2.7804  1.0124
 6554SOL     OW20877   2.325   2.937   5.303 -0.3981  0.3955  0.2432
 6554SOL    HW120878   2.326   3.033   5.300  1.0033  0.5617  3.0666
 6554SOL    HW220879   2.344   2.911   5.213 -1.2743  2.7279 -0.7078
 6555SOL     OW20880   2.974   2.773   6.139 -0.1235  0.0094  0.1461
 6555SOL    HW120881   3.067   2.788   6.120 -0.1156  0.7617  0.7298
 6555SOL    HW220882   2.952   2.696   6.088  0.5722  0.4029 -0.7833
 6556SOL     OW20883   2.692   2.883   7.686 -0.5903  0.0337 -0.0032
 6556SOL    HW120884   2.672   2.906   7.596  3.9192  1.9693 -0.7543
 6556SOL    HW220885   2.703   2.788   7.685  1.1236  0.1722 -2.0415
 6557SOL     OW20886   3.378   4.143   6.108 -0.1671  0.1955  0.3795
 6557SOL    HW120887   3.426   4.060   6.102  0.0756  0.3761 -0.2574
 6557SOL    HW220888   3.440   4.209   6.077 -1.0595  0.3377 -1.2404
 6558SOL     OW20889   2.155   2.007   6.948 -0.1392  0.2469  0.2240
 6558SOL    HW120890   2.179   2.081   7.003  0.4488 -0.0528  0.3781
 6558SOL    HW220891   2.230   1.947   6.954 -0.4487 -0.1896 -0.1921
 6559SOL     OW20892   3.845   3.433   5.319  0.0071  0.4159 -0.0419
 6559SOL    HW120893   3.918   3.384   5.355 -0.3221  0.2152  0.3679
 6559SOL    HW220894   3.844   3.515   5.369  0.3876  0.7308 -0.5377
 6560SOL     OW20895   2.391   3.574   6.096 -0.5672  0.1868  0.6462
 6560SOL    HW120896   2.368   3.664   6.073  0.3073  1.3859  3.9542
 6560SOL    HW220897   2.470   3.556   6.045 -1.6797  0.6069 -1.3166
 6561SOL     OW20898   3.764   2.103   5.697 -0.0786  0.8403  0.3982
 6561SOL    HW120899   3.669   2.099   5.701 -0.2106  2.5356 -0.3251
 6561SOL    HW220900   3.788   2.177   5.752  0.9167 -0.0708  1.2541
 6562SOL     OW20901   2.137   3.979   6.682  0.5801 -0.1364 -0.1046
 6562SOL    HW120902   2.150   3.940   6.768  1.3588 -1.2051 -0.6911
 6562SOL    HW220903   2.214   3.953   6.631  1.1323  2.1483 -0.5486
 6563SOL     OW20904   2.825   4.261   6.453 -0.2522 -0.1187 -0.0394
 6563SOL    HW120905   2.781   4.346   6.460  0.3971  0.2200  0.0348
 6563SOL    HW220906   2.917   4.281   6.470 -0.4398 -1.2585  2.8429
 6564SOL     OW20907   2.181   2.489   5.843 -0.0011  0.2174 -0.0752
 6564SOL    HW120908   2.159   2.543   5.919  2.1439  0.5950  0.3241
 6564SOL    HW220909   2.146   2.537   5.768  0.4327  1.3473  0.4247
 6565SOL     OW20910   3.474   1.829   7.428  0.3421 -0.1269  0.3186
 6565SOL    HW120911   3.549   1.808   7.372 -0.9924 -0.1296 -1.5875
 6565SOL    HW220912   3.418   1.752   7.423 -0.3615  0.3505  0.6745
 6566SOL     OW20913   2.611   1.987   5.479  0.1893 -0.3529 -0.2188
 6566SOL    HW120914   2.653   1.904   5.504  0.5195 -0.5266 -1.2710
 6566SOL    HW220915   2.682   2.039   5.441  0.2932  1.0023  1.6885
 6567SOL     OW20916   2.930   2.048   7.096  0.7202  0.1316  0.1824
 6567SOL    HW120917   2.972   2.121   7.143  0.4654 -0.0315  0.6716
 6567SOL    HW220918   2.980   2.040   7.015  1.6634 -0.0727  0.7601
 6568SOL     OW20919   2.386   3.399   6.910 -0.3210  0.2246 -0.0887
 6568SOL    HW120920   2.410   3.428   6.822 -1.6447 -1.2097 -0.9862
 6568SOL    HW220921   2.292   3.385   6.905 -0.0861 -2.1619  0.8148
 6569SOL     OW20922   2.974   2.396   7.091 -0.0158 -0.8351 -0.3297
 6569SOL    HW120923   2.904   2.432   7.145 -0.5121 -1.6364 -0.4192
 6569SOL    HW220924   3.023   2.339   7.150  0.0680 -0.9062 -0.4663
 6570SOL     OW20925   2.541   3.384   6.527 -0.2119  0.4751  0.2229
 6570SOL    HW120926   2.562   3.414   6.439  0.2325  0.0827  0.1955
 6570SOL    HW220927   2.483   3.309   6.514 -1.0120  1.0581  0.2879
 6571SOL     OW20928   3.007   2.620   5.903  0.0015 -0.4501 -0.0311
 6571SOL    HW120929   3.024   2.692   5.843  2.0460  0.6870  1.8202
 6571SOL    HW220930   2.914   2.601   5.891  0.6821 -2.1411 -5.4774
 6572SOL     OW20931   2.061   2.118   5.962  0.2530  0.4042 -0.1307
 6572SOL    HW120932   1.982   2.104   6.014 -0.1080  1.7488 -0.2779
 6572SOL    HW220933   2.029   2.137   5.874  0.8113 -0.4293 -0.5351
 6573SOL     OW20934   3.207   3.644   5.969 -0.2455 -0.2471  0.0278
 6573SOL    HW120935   3.269   3.650   6.041  1.0073 -0.7816 -0.9638
 6573SOL    HW220936   3.213   3.729   5.925  1.4607 -1.0051 -1.3392
 6574SOL     OW20937   2.268   1.288   5.815  0.1121 -0.6575 -0.1240
 6574SOL    HW120938   2.338   1.304   5.752 -0.7319 -0.9012 -1.1443
 6574SOL    HW220939   2.208   1.229   5.771  0.2725 -2.1074  1.4967
 6575SOL     OW20940   3.291   2.504   5.705  0.2325  0.2662 -0.0911
 6575SOL    HW120941   3.244   2.566   5.649 -0.2114  1.5110  1.5834
 6575SOL    HW220942   3.332   2.558   5.772  2.1490 -1.0283 -0.1504
 6576SOL     OW20943   3.061   2.317   6.712 -0.1535 -0.6330 -0.3696
 6576SOL    HW120944   3.134   2.341   6.654 -1.7157 -0.2383 -2.2938
 6576SOL    HW220945   3.014   2.399   6.725  0.4818 -0.5864  2.0456
 6577SOL     OW20946   2.971   3.994   6.368 -0.2424 -0.6634 -0.6910
 6577SOL    HW120947   2.931   4.038   6.442 -1.5053 -1.9242 -0.5839
 6577SOL    HW220948   3.028   4.060   6.328 -0.8521  0.5410  0.3810
 6578SOL     OW20949   2.230   2.823   6.065  0.2129  0.3038  0.0450
 6578SOL    HW120950   2.310   2.771   6.064  1.0446  1.5166 -1.4400
 6578SOL    HW220951   2.252   2.902   6.015 -1.9736  0.5858 -0.5851
 6579SOL     OW20952   2.774   3.790   6.284 -0.2225  0.1088  1.1078
 6579SOL    HW120953   2.825   3.866   6.256  1.7458 -0.0033  3.9711
 6579SOL    HW220954   2.801   3.721   6.224  2.7412  0.2083  2.1357
 6580SOL     OW20955   3.326   2.694   5.159 -0.4687 -0.3622 -0.0101
 6580SOL    HW120956   3.362   2.673   5.245  0.2290 -1.5525 -0.5706
 6580SOL    HW220957   3.400   2.731   5.111 -1.1334  1.3749  0.2329
 6581SOL     OW20958   2.113   2.609   7.114  0.3063 -0.2421  0.4798
 6581SOL    HW120959   2.127   2.592   7.021 -0.9087  1.7336 -0.1346
 6581SOL    HW220960   2.037   2.557   7.137  0.5506 -0.6590  0.3581
 6582SOL     OW20961   2.534   1.853   6.590 -0.2530 -0.3042 -0.0198
 6582SOL    HW120962   2.579   1.914   6.531  0.6383  1.2103  2.0932
 6582SOL    HW220963   2.595   1.780   6.599  0.3028  0.1674  0.1672
 6583SOL     OW20964   2.669   2.568   5.907 -0.2174 -0.2503  0.0994
 6583SOL    HW120965   2.592   2.596   5.957 -0.3413  2.2467 -1.3688
 6583SOL    HW220966   2.732   2.542   5.974 -1.6313 -0.4892  1.3978
 6584SOL     OW20967   2.873   2.442   6.097 -0.0154  0.0597 -0.0385
 6584SOL    HW120968   2.832   2.446   6.183  0.6157 -0.4679  0.2994
 6584SOL    HW220969   2.960   2.407   6.114  0.3125  0.4692 -0.8301
 6585SOL     OW20970   2.860   3.280   6.065 -0.3358 -0.3525 -0.3661
 6585SOL    HW120971   2.869   3.342   5.993  2.3394  0.8249  0.8552
 6585SOL    HW220972   2.869   3.333   6.145 -0.1465 -2.0162  0.7788
 6586SOL     OW20973   2.984   3.042   6.626  0.1872  0.0043 -0.1109
 6586SOL    HW120974   2.923   3.109   6.658 -0.6244 -0.4942 -0.5611
 6586SOL    HW220975   2.933   2.993   6.561 -0.4864 -3.2101  2.5468
 6587SOL     OW20976   3.926   3.267   5.926  0.6649  0.3456  0.0234
 6587SOL    HW120977   3.914   3.323   5.849  0.0601  1.4000  0.8635
 6587SOL    HW220978   3.908   3.324   6.000  2.4458 -0.3229  1.0272
 6588SOL     OW20979   2.168   3.655   5.680  0.2192  1.2012 -0.5806
 6588SOL    HW120980   2.132   3.642   5.768 -0.6010  1.0103 -0.9380
 6588SOL    HW220981   2.231   3.585   5.669 -0.1621  0.8274 -0.3980
 6589SOL     OW20982   3.202   3.370   6.246  0.4255  0.3718  0.3291
 6589SOL    HW120983   3.112   3.400   6.232  0.0168 -1.1358 -0.4400
 6589SOL    HW220984   3.244   3.442   6.294 -0.1844  2.6918 -2.3559
 6590SOL     OW20985   3.371   3.092   5.706 -0.2085  0.0587  0.2392
 6590SOL    HW120986   3.377   3.178   5.747 -1.2161  0.6957 -0.8781
 6590SOL    HW220987   3.447   3.087   5.649  0.3124 -0.1513  0.9474
 6591SOL     OW20988   2.450   2.194   5.407  0.4119  0.0424 -0.0784
 6591SOL    HW120989   2.495   2.132   5.464 -2.5669  0.3532  3.0060
 6591SOL    HW220990   2.480   2.280   5.437 -0.3392  0.1800  0.3235
 6592SOL     OW20991   3.095   2.726   7.285  0.2767  0.2050 -0.5460
 6592SOL    HW120992   3.149   2.657   7.248  0.3899 -0.7337  1.2466
 6592SOL    HW220993   3.131   2.808   7.250  3.2342 -0.3339  0.9864
 6593SOL     OW20994   2.896   3.237   6.870 -0.7297 -0.0546 -0.0281
 6593SOL    HW120995   2.866   3.289   6.796 -1.7532  1.0297  1.0969
 6593SOL    HW220996   2.852   3.152   6.860 -1.5308  0.3771 -0.2147
 6594SOL     OW20997   3.389   3.690   7.124  0.7455 -0.2361 -0.3701
 6594SOL    HW120998   3.363   3.736   7.044  0.6859  0.1293 -0.1435
 6594SOL    HW220999   3.373   3.753   7.195 -1.4738 -1.3412  0.2146
 6595SOL     OW21000   2.961   2.845   5.526 -0.1109  0.1292  0.0112
 6595SOL    HW121001   2.923   2.931   5.547  0.7632  0.2410  1.2260
 6595SOL    HW221002   2.886   2.793   5.498 -0.5747  1.4409 -1.3360
 6596SOL     OW21003   3.859   2.974   6.683  0.4653  0.4936 -0.0440
 6596SOL    HW121004   3.873   3.069   6.674  1.7075  0.2507 -0.9476
 6596SOL    HW221005   3.852   2.943   6.593  0.2669 -0.3018  0.2409
 6597SOL     OW21006   2.838   2.142   6.479 -0.0296 -0.0587  0.0206
 6597SOL    HW121007   2.769   2.199   6.445 -0.8273 -0.5450  0.7911
 6597SOL    HW221008   2.809   2.118   6.566  1.0300 -0.4357  0.2888
 6598SOL     OW21009   2.812   2.380   7.456 -0.0593 -0.1793 -0.0318
 6598SOL    HW121010   2.806   2.466   7.498  2.5800 -0.0691  0.3074
 6598SOL    HW221011   2.898   2.347   7.482  0.0520 -1.8225 -2.2029
 6599SOL     OW21012   2.614   3.338   5.782  0.1228  0.1876 -0.1023
 6599SOL    HW121013   2.601   3.261   5.727 -2.1394  0.6089 -0.2365
 6599SOL    HW221014   2.706   3.332   5.810  0.1378 -2.3111 -0.4454
 6600SOL     OW21015   2.173   2.722   6.394  0.1286 -0.6326 -0.2714
 6600SOL    HW121016   2.238   2.773   6.345 -0.6388 -0.0389 -0.7063
 6600SOL    HW221017   2.200   2.631   6.383  1.2698 -0.3624  0.1265
 6601SOL     OW21018   3.473   2.186   6.320 -0.3200 -0.8338 -0.0669
 6601SOL    HW121019   3.402   2.195   6.385  1.7622  1.8124  2.0589
 6601SOL    HW221020   3.535   2.126   6.362  1.1916  1.1450  0.6452
 6602SOL     OW21021   1.996   3.493   6.718 -0.0538  0.0810  0.2426
 6602SOL    HW121022   2.003   3.550   6.794  0.6989 -0.2324  0.4221
 6602SOL    HW221023   2.043   3.538   6.648 -0.7006  0.3450 -0.0320
 6603SOL     OW21024   2.248   3.017   6.284  0.3991  0.7160 -0.2417
 6603SOL    HW121025   2.155   3.010   6.308  0.8968 -2.4200  1.3027
 6603SOL    HW221026   2.249   3.001   6.190 -0.5879 -0.3167 -0.1079
 6604SOL     OW21027   2.762   2.709   6.334 -0.5940  0.2176 -0.0207
 6604SOL    HW121028   2.818   2.739   6.262  0.1641 -2.6661 -0.7751
 6604SOL    HW221029   2.823   2.677   6.400 -1.2265 -2.7614 -0.7525
 6605SOL     OW21030   2.985   3.713   6.105  0.0045 -0.2868  0.1379
 6605SOL    HW121031   3.057   3.684   6.049  0.6939 -2.0689  1.8586
 6605SOL    HW221032   2.966   3.802   6.074  1.8723 -0.3476 -1.3932
 6606SOL     OW21033   2.758   3.004   6.860 -0.3841 -0.3916 -0.4787
 6606SOL    HW121034   2.803   2.935   6.911  0.9950  0.5708 -0.3380
 6606SOL    HW221035   2.673   3.012   6.902 -0.8906 -2.5062 -0.9471
 6607SOL     OW21036   2.872   3.405   5.832  0.1551 -0.7934  1.0615
 6607SOL    HW121037   2.963   3.376   5.819  0.2334 -0.1739  0.1508
 6607SOL    HW221038   2.878   3.500   5.834 -0.5334 -0.7296  0.4607
 6608SOL     OW21039   2.206   3.624   6.550 -0.2504  0.3749 -0.0441
 6608SOL    HW121040   2.281   3.665   6.506  0.0895  0.8125  0.9280
 6608SOL    HW221041   2.226   3.629   6.643 -0.5366 -1.3744  0.1539
 6609SOL     OW21042   2.294   2.528   7.329 -0.1780 -0.7018  0.4000
 6609SOL    HW121043   2.234   2.568   7.266  1.4007  1.0722 -0.0868
 6609SOL    HW221044   2.372   2.507   7.277 -0.0224 -2.1314  1.1780
 6610SOL     OW21045   3.299   2.679   6.849 -0.4307 -0.3188 -0.1772
 6610SOL    HW121046   3.267   2.756   6.802  1.0799  0.5916  0.1882
 6610SOL    HW221047   3.335   2.622   6.781  0.3221  0.2755 -0.2994
 6611SOL     OW21048   3.134   1.933   7.410  0.2986 -0.5864 -0.0536
 6611SOL    HW121049   3.068   2.000   7.395  0.8023  0.0902  0.7221
 6611SOL    HW221050   3.087   1.850   7.397 -0.1290 -0.1062 -1.8498
 6612SOL     OW21051   2.501   1.855   7.620  0.3662  0.6948 -0.3541
 6612SOL    HW121052   2.442   1.814   7.556  3.5631  1.3717 -4.0900
 6612SOL    HW221053   2.472   1.946   7.623 -1.8724  0.0233  1.9603
 6613SOL     OW21054   2.355   3.136   6.542  0.0813 -0.5133  0.7358
 6613SOL    HW121055   2.321   3.094   6.464  0.6279 -0.0456  0.2286
 6613SOL    HW221056   2.279   3.147   6.599 -0.7768  1.0823 -0.6183
 6614SOL     OW21057   2.793   3.309   6.631  0.1164  0.2319  0.1129
 6614SOL    HW121058   2.752   3.226   6.607  0.0475  0.4036 -0.3716
 6614SOL    HW221059   2.723   3.374   6.620  0.2750  0.4048  0.1225
 6615SOL     OW21060   2.847   3.069   5.889 -0.4411  0.3728 -0.1708
 6615SOL    HW121061   2.870   3.142   5.946 -0.7203 -1.5069  2.6025
 6615SOL    HW221062   2.927   3.018   5.882 -0.9661 -0.5865  0.5067
 6616SOL     OW21063   2.239   2.210   6.731  0.3310 -0.3628  0.4939
 6616SOL    HW121064   2.271   2.298   6.753  1.4052 -0.7940  0.7069
 6616SOL    HW221065   2.265   2.155   6.805  0.9134 -1.1309 -0.2599
 6617SOL     OW21066   2.554   2.821   7.212 -0.2731  0.0699 -0.7677
 6617SOL    HW121067   2.476   2.875   7.224  0.2552  0.4650  1.3478
 6617SOL    HW221068   2.544   2.783   7.124 -2.0905  1.2705 -1.1385
 6618SOL     OW21069   2.397   2.464   6.729  0.0122  0.1837  0.0328
 6618SOL    HW121070   2.479   2.433   6.768 -0.5751  1.4488  2.4855
 6618SOL    HW221071   2.424   2.510   6.649  1.5251 -0.6123  0.0536
 6619SOL     OW21072   3.723   2.791   7.324 -0.6492 -0.3402  0.0482
 6619SOL    HW121073   3.802   2.754   7.287 -1.7756 -3.4330  0.4212
 6619SOL    HW221074   3.721   2.759   7.414 -1.7114  0.7427  0.4494
 6620SOL     OW21075   2.488   1.722   6.293  0.0325  0.5573  0.0659
 6620SOL    HW121076   2.432   1.644   6.286  0.2031  0.6159 -3.5070
 6620SOL    HW221077   2.577   1.687   6.300  0.0856  0.4067 -1.2448
 6621SOL     OW21078   3.736   2.589   5.975 -0.3372 -0.7367 -0.0487
 6621SOL    HW121079   3.786   2.669   5.955 -0.4371 -0.0822  2.0638
 6621SOL    HW221080   3.781   2.551   6.050 -0.0924 -2.9221 -1.2261
 6622SOL     OW21081   2.683   3.089   6.315  0.1444  0.1701  0.2839
 6622SOL    HW121082   2.672   3.101   6.409 -0.4060 -2.2328  0.6054
 6622SOL    HW221083   2.777   3.073   6.304  0.5190  2.2479  0.1283
 6623SOL     OW21084   2.818   3.110   7.812 -0.0627 -0.1998 -0.1496
 6623SOL    HW121085   2.751   3.043   7.806  0.8690 -1.2574  0.6338
 6623SOL    HW221086   2.901   3.061   7.806  0.6301  0.9117  0.0800
 6624SOL     OW21087   4.086   3.736   6.795  0.1041 -0.6590  0.0880
 6624SOL    HW121088   4.160   3.682   6.821  0.5679  0.3860  1.0339
 6624SOL    HW221089   4.118   3.784   6.719  0.3394 -0.3647  0.3675
 6625SOL     OW21090   2.730   2.590   7.708 -0.4800  0.0514  0.3349
 6625SOL    HW121091   2.815   2.632   7.699 -0.0594 -0.9142 -0.4213
 6625SOL    HW221092   2.683   2.613   7.628 -1.5137  1.7626  1.3638
 6626SOL     OW21093   3.109   2.266   5.839  0.2569 -0.3088  0.2705
 6626SOL    HW121094   3.170   2.304   5.776  1.4238 -0.2337  1.4165
 6626SOL    HW221095   3.023   2.296   5.809  0.6968 -0.8478 -1.6750
 6627SOL     OW21096   3.210   2.769   5.646  0.3963 -0.5205  0.1052
 6627SOL    HW121097   3.283   2.828   5.625  0.2734  0.4904  2.2256
 6627SOL    HW221098   3.135   2.805   5.600  0.4778  0.6014  0.8252
 6628SOL     OW21099   2.504   3.571   6.708 -0.2472  0.5241  0.2886
 6628SOL    HW121100   2.516   3.502   6.644 -0.1492 -0.6650  1.5325
 6628SOL    HW221101   2.554   3.645   6.675  0.8051 -0.4668 -0.3863
 6629SOL     OW21102   2.459   2.822   6.305  0.3362  0.1649  0.0990
 6629SOL    HW121103   2.390   2.888   6.310  0.0674 -0.1435  0.4501
 6629SOL    HW221104   2.540   2.873   6.309  0.1324  0.4557  0.7543
 6630SOL     OW21105   1.957   2.856   6.319  0.3056  0.3677 -0.0258
 6630SOL    HW121106   1.903   2.782   6.294 -0.5655 -0.1963  3.1457
 6630SOL    HW221107   2.041   2.817   6.343  1.2628  0.9385 -2.1931
 6631SOL     OW21108   2.681   2.405   7.228  0.2670  0.2348  0.2411
 6631SOL    HW121109   2.727   2.388   7.310 -0.0998  1.5634  0.7388
 6631SOL    HW221110   2.707   2.494   7.204 -0.3523  0.1963 -0.6025
 6632SOL     OW21111   2.714   2.211   7.000  0.0708 -0.2985  0.2882
 6632SOL    HW121112   2.768   2.132   7.008  0.7155  0.0519 -0.4834
 6632SOL    HW221113   2.768   2.281   7.036  0.2137  0.0844 -0.6310
 6633SOL     OW21114   2.032   2.935   5.869 -0.5469 -0.3033 -0.1328
 6633SOL    HW121115   2.005   2.955   5.958 -3.4125 -0.4424 -0.8459
 6633SOL    HW221116   2.048   2.841   5.869  0.3769 -0.1554  0.4144
 6634SOL     OW21117   1.744   3.736   5.947  0.0306 -0.3711 -0.0304
 6634SOL    HW121118   1.756   3.825   5.979  0.7753 -0.6198  0.4115
 6634SOL    HW221119   1.724   3.747   5.854 -2.7222  0.3908  0.5648
 6635SOL     OW21120   2.471   3.528   5.596  0.3528 -0.0075 -0.0438
 6635SOL    HW121121   2.544   3.526   5.658  0.7340 -0.4398 -0.4983
 6635SOL    HW221122   2.446   3.437   5.586 -0.6991  0.1847  0.6106
 6636SOL     OW21123   2.654   2.617   6.763 -0.0256  0.3432 -0.0424
 6636SOL    HW121124   2.684   2.526   6.757  1.2059  0.7297 -0.1355
 6636SOL    HW221125   2.610   2.633   6.679  0.4171  0.0554 -0.3347
 6637SOL     OW21126   1.804   2.862   6.591 -0.6523  0.0198 -0.1935
 6637SOL    HW121127   1.754   2.782   6.608 -3.1068  1.4616 -0.1379
 6637SOL    HW221128   1.808   2.868   6.495 -1.2588  0.2779 -0.2051
 6638SOL     OW21129   2.216   2.523   7.577 -0.4301  0.6521  0.0616
 6638SOL    HW121130   2.252   2.548   7.492  1.0687  1.6036  0.9282
 6638SOL    HW221131   2.130   2.565   7.580  1.3143  4.7537  0.8070
 6639SOL     OW21132   3.302   2.595   7.140  0.2425  0.1270  0.4976
 6639SOL    HW121133   3.367   2.641   7.192  0.1941 -0.4725  1.0915
 6639SOL    HW221134   3.330   2.609   7.049  0.4495  0.9837  0.6833
 6640SOL     OW21135   2.230   2.326   6.108 -0.3809  0.4529  0.9419
 6640SOL    HW121136   2.232   2.397   6.044  1.3774 -0.1647  0.2489
 6640SOL    HW221137   2.174   2.259   6.068  0.5374  0.1550  0.1127
 6641SOL     OW21138   2.923   2.679   6.552  0.0812  0.3366 -0.3607
 6641SOL    HW121139   3.014   2.652   6.544  0.2503  0.7623  0.1107
 6641SOL    HW221140   2.909   2.692   6.646 -0.5745 -0.0968 -0.3897
 6642SOL     OW21141   2.592   3.449   7.422 -0.1409 -0.3314  0.0597
 6642SOL    HW121142   2.554   3.362   7.421 -0.5011 -0.2410  1.9277
 6642SOL    HW221143   2.608   3.467   7.515  3.3306  0.1326 -0.4673
 6643SOL     OW21144   2.611   2.265   6.339  0.1233  0.0535 -0.3050
 6643SOL    HW121145   2.549   2.254   6.412 -0.5643  0.1789 -0.8644
 6643SOL    HW221146   2.559   2.303   6.269  0.5464 -1.0037 -1.2187
 6644SOL     OW21147   2.891   3.948   7.587  0.0851  0.7899 -0.1768
 6644SOL    HW121148   2.811   3.916   7.628  0.3985  0.6361  0.3299
 6644SOL    HW221149   2.960   3.925   7.649  0.4065  1.8406 -0.1292
 6645SOL     OW21150   2.272   2.290   5.673  0.5889 -0.3096 -0.3698
 6645SOL    HW121151   2.258   2.354   5.744  0.3831 -2.3673  1.5571
 6645SOL    HW221152   2.305   2.342   5.600 -0.2497  2.0968  0.8494
 6646SOL     OW21153   2.318   2.950   7.138  0.7257 -0.4349 -0.1537
 6646SOL    HW121154   2.295   2.971   7.229 -2.3089 -1.4001 -0.5928
 6646SOL    HW221155   2.238   2.915   7.100  1.6357  0.6684 -3.4829
 6647SOL     OW21156   2.788   2.726   6.972 -0.3462  0.1725  0.6297
 6647SOL    HW121157   2.727   2.703   6.902 -0.1369  0.2980  0.4031
 6647SOL    HW221158   2.867   2.675   6.953 -0.6023 -0.4821  1.2854
 6648SOL     OW21159   3.105   2.940   5.873  0.6512  0.5057  0.3140
 6648SOL    HW121160   3.157   3.014   5.906  2.9320 -1.2093  0.7865
 6648SOL    HW221161   3.155   2.907   5.799 -0.3533 -0.5394  0.0833
 6649SOL     OW21162   3.509   3.302   6.772 -0.0398  0.1412 -0.1264
 6649SOL    HW121163   3.543   3.373   6.718 -1.5113  3.4702  2.8589
 6649SOL    HW221164   3.423   3.281   6.735  0.1570  0.3611 -0.7075
 6650SOL     OW21165   2.860   3.500   6.999  0.0329 -0.3798 -0.1790
 6650SOL    HW121166   2.880   3.412   6.969 -1.7307 -0.7137 -0.4885
 6650SOL    HW221167   2.816   3.487   7.083  0.1887  0.2369  0.0036
 6651SOL     OW21168   1.908   2.665   6.765  0.2500 -0.0717  0.5637
 6651SOL    HW121169   1.899   2.759   6.747 -0.2062 -0.6154 -2.5276
 6651SOL    HW221170   1.992   2.657   6.810  0.0145  1.8567  1.4377
 6652SOL     OW21171   2.833   3.310   7.598  0.2545 -0.3483  0.3148
 6652SOL    HW121172   2.885   3.258   7.536  1.6495 -0.1924  1.3106
 6652SOL    HW221173   2.857   3.276   7.684  0.9173  1.6287  0.9828
 6653SOL     OW21174   3.918   2.451   5.670  0.6862  0.3055  0.0787
 6653SOL    HW121175   3.831   2.415   5.656  0.7973  0.4648 -1.1149
 6653SOL    HW221176   3.905   2.545   5.679  0.6117  0.2053  1.2321
 6654SOL     OW21177   2.948   3.482   6.256 -0.2290  0.1313 -0.3521
 6654SOL    HW121178   2.988   3.489   6.343  0.2411  0.5926 -0.5981
 6654SOL    HW221179   2.962   3.567   6.216 -2.3849  0.6628 -0.0876
 6655SOL     OW21180   1.974   3.627   7.177 -0.5675 -0.2989  0.1057
 6655SOL    HW121181   1.881   3.603   7.178 -0.6481 -0.0500  1.8004
 6655SOL    HW221182   1.976   3.714   7.215  0.1315  0.8697 -2.3827
 6656SOL     OW21183   3.465   2.647   5.864 -0.5160  0.2274 -0.0873
 6656SOL    HW121184   3.449   2.734   5.900 -0.8947  0.1363 -0.0331
 6656SOL    HW221185   3.553   2.625   5.893 -1.4261 -0.5957  2.3548
 6657SOL     OW21186   2.697   2.993   7.420  0.2002 -0.0036  0.0798
 6657SOL    HW121187   2.636   3.066   7.409  0.0061 -0.0975  0.5117
 6657SOL    HW221188   2.664   2.925   7.362  1.3729  0.8515 -1.6720
 6658SOL     OW21189   2.037   3.270   5.278 -0.6550  0.5259 -0.6625
 6658SOL    HW121190   1.990   3.187   5.274  0.5828 -0.1642 -1.8863
 6658SOL    HW221191   2.035   3.294   5.370 -0.3205 -1.3068 -0.1364
 6659SOL     OW21192   3.149   3.308   6.988  0.1349 -0.0493  0.5692
 6659SOL    HW121193   3.177   3.221   6.961 -1.3490 -0.7349  1.1384
 6659SOL    HW221194   3.058   3.314   6.959 -0.0776  0.9315  1.3909
 6660SOL     OW21195   3.665   2.059   6.442 -0.3268 -0.1563  0.3915
 6660SOL    HW121196   3.733   2.126   6.455 -0.7341  0.5133 -0.7951
 6660SOL    HW221197   3.673   2.002   6.519 -0.9141  2.0793  2.2295
 6661SOL     OW21198   1.801   2.291   6.290 -0.0769  0.1380 -0.1903
 6661SOL    HW121199   1.749   2.290   6.210 -1.7686  1.4315  0.8399
 6661SOL    HW221200   1.818   2.198   6.309 -1.8660 -0.3225 -0.6797
 6662SOL     OW21201   3.405   3.817   5.638 -0.2637  0.0694 -0.1975
 6662SOL    HW121202   3.378   3.819   5.547 -1.9542 -1.1701  0.2251
 6662SOL    HW221203   3.494   3.852   5.638  0.3162 -1.2090 -2.5127
 6663SOL     OW21204   2.635   2.660   7.469  0.3864  0.2016  0.3992
 6663SOL    HW121205   2.665   2.663   7.379  1.2455  1.9668  0.6941
 6663SOL    HW221206   2.553   2.709   7.469  0.2111 -0.0912  0.5138
 6664SOL     OW21207   2.869   3.102   5.575  0.4398  0.1493 -0.2410
 6664SOL    HW121208   2.883   3.195   5.553  0.2547 -0.2575 -2.3095
 6664SOL    HW221209   2.871   3.100   5.671 -1.9982  2.6945  0.0331
 6665SOL     OW21210   3.715   3.401   5.632  0.5346 -0.1083  0.2710
 6665SOL    HW121211   3.665   3.377   5.710 -0.0141  1.0723  0.2950
 6665SOL    HW221212   3.788   3.338   5.631  1.2129  0.5535  2.3775
 6666SOL     OW21213   2.512   3.194   7.333  0.5152 -0.6890 -0.2570
 6666SOL    HW121214   2.527   3.228   7.245  2.0181 -1.5115 -0.3468
 6666SOL    HW221215   2.457   3.117   7.320 -0.0203 -0.3002 -0.3658
 6667SOL     OW21216   3.282   3.074   6.957 -0.0220 -0.0073 -0.3687
 6667SOL    HW121217   3.374   3.064   6.982  0.3915  0.9333 -1.4057
 6667SOL    HW221218   3.275   3.028   6.873 -0.7339 -0.8469  0.1288
 6668SOL     OW21219   2.657   3.435   6.278  0.6615  0.8105  0.2813
 6668SOL    HW121220   2.634   3.445   6.185  1.7482 -0.7138 -0.1789
 6668SOL    HW221221   2.747   3.466   6.284  0.2056  2.0868  1.1184
 6669SOL     OW21222   3.087   2.279   6.103 -0.1094  1.0333 -0.1818
 6669SOL    HW121223   3.066   2.220   6.031  0.9506 -0.5922  0.7753
 6669SOL    HW221224   3.169   2.320   6.077  0.9579 -0.5161  0.5940
 6670SOL     OW21225   2.622   3.525   5.964  0.1660  0.1813 -0.3561
 6670SOL    HW121226   2.618   3.460   5.894  0.0518  1.1964 -1.3198
 6670SOL    HW221227   2.696   3.581   5.940 -0.1807  0.8330  0.0751
 6671SOL     OW21228   3.554   2.732   6.943  0.6268 -0.0146 -0.1303
 6671SOL    HW121229   3.459   2.738   6.931  0.7311 -1.0778 -1.9256
 6671SOL    HW221230   3.588   2.709   6.856  2.3994 -1.0497  0.7648
 6672SOL     OW21231   1.829   3.146   5.668 -0.1901 -0.3699  0.0988
 6672SOL    HW121232   1.818   3.234   5.631  0.1897 -1.0650 -1.7899
 6672SOL    HW221233   1.907   3.111   5.625 -1.5429 -2.4026 -0.8531
 6673SOL     OW21234   2.392   2.778   7.569  0.8118 -0.0468 -0.1725
 6673SOL    HW121235   2.347   2.694   7.567  1.1154 -0.2016 -0.5681
 6673SOL    HW221236   2.392   2.802   7.662  0.3701 -0.2861 -0.1068
 6674SOL     OW21237   2.470   2.058   7.295 -0.1808  1.0283  0.4388
 6674SOL    HW121238   2.466   2.066   7.391  0.8445  0.4588  0.5508
 6674SOL    HW221239   2.554   2.098   7.272 -0.4345  1.1800 -0.2293
 6675SOL     OW21240   2.024   2.370   5.488 -0.1974  0.2757 -0.1944
 6675SOL    HW121241   2.101   2.358   5.543  0.6138 -0.1139 -1.3838
 6675SOL    HW221242   2.045   2.445   5.432 -0.6312  0.0932 -0.6116
 6676SOL     OW21243   3.231   2.918   6.728  0.2170 -0.1562  0.6624
 6676SOL    HW121244   3.260   2.905   6.638 -2.3153  0.1218 -0.2483
 6676SOL    HW221245   3.151   2.969   6.721 -1.4206 -2.2179  2.9118
 6677SOL     OW21246   2.040   2.154   5.668  0.5381  0.2883  0.4908
 6677SOL    HW121247   2.122   2.193   5.698  0.7460 -1.2889  2.1110
 6677SOL    HW221248   2.043   2.162   5.573  1.9579  1.4045  0.5993
 6678SOL     OW21249   3.559   3.304   5.374 -0.2000  0.5709 -0.3878
 6678SOL    HW121250   3.632   3.360   5.400 -0.1851  0.1380  0.5735
 6678SOL    HW221251   3.482   3.362   5.379 -0.0592  0.7592 -0.3823
 6679SOL     OW21252   2.470   2.720   6.971 -0.0535  0.5471 -0.2395
 6679SOL    HW121253   2.441   2.807   6.942  1.2034  0.6222 -1.3808
 6679SOL    HW221254   2.500   2.677   6.891 -0.1010 -0.7207  0.4087
 6680SOL     OW21255   3.165   4.155   6.267 -0.9411  0.7098 -0.6390
 6680SOL    HW121256   3.248   4.139   6.222  0.0974  0.8145  1.1668
 6680SOL    HW221257   3.136   4.240   6.233  0.3083  1.2412 -0.4329
 6681SOL     OW21258   2.448   2.457   7.096 -0.8050  0.0799  0.0802
 6681SOL    HW121259   2.539   2.444   7.123 -1.2313  0.6709  1.9074
 6681SOL    HW221260   2.452   2.525   7.029  0.2407 -1.1273 -1.1473
 6682SOL     OW21261   3.532   2.398   7.464  0.1190  0.1168 -0.3646
 6682SOL    HW121262   3.591   2.343   7.516 -0.5774 -0.7556 -0.4681
 6682SOL    HW221263   3.554   2.487   7.489 -0.9994 -0.2749  2.3225
 6683SOL     OW21264   2.568   3.276   7.053 -0.5347  0.7332 -0.1381
 6683SOL    HW121265   2.486   3.314   7.020 -0.5121  0.6764 -0.2620
 6683SOL    HW221266   2.634   3.343   7.036 -0.5301  0.7197 -0.1739
 6684SOL     OW21267   3.528   3.066   6.602  0.2069 -0.0947 -0.4717
 6684SOL    HW121268   3.551   3.150   6.641  1.8949 -0.9563  0.5213
 6684SOL    HW221269   3.588   3.056   6.529 -0.8668  0.1128 -1.4136
 6685SOL     OW21270   3.278   2.091   5.944  0.4419 -0.0165  0.8934
 6685SOL    HW121271   3.343   2.144   5.990 -0.2542  0.9867  0.7720
 6685SOL    HW221272   3.212   2.155   5.915 -1.0954 -1.1157  1.8547
 6686SOL     OW21273   2.481   2.710   6.049 -0.5918  0.3561 -0.0281
 6686SOL    HW121274   2.535   2.782   6.017  1.5434 -0.6398  1.1225
 6686SOL    HW221275   2.481   2.722   6.144 -2.4510  0.3202  0.0011
 6687SOL     OW21276   3.722   1.996   7.423  0.2683  0.2193  0.5754
 6687SOL    HW121277   3.707   1.932   7.354  0.9131 -0.5144  1.1060
 6687SOL    HW221278   3.703   2.081   7.382  1.2376 -0.1449 -0.6716
 6688SOL     OW21279   3.182   2.625   7.541 -0.2578  0.3552  0.0774
 6688SOL    HW121280   3.127   2.569   7.486 -0.7911  0.4366  0.5231
 6688SOL    HW221281   3.187   2.707   7.492  0.6419 -0.1026 -0.6472
 6689SOL     OW21282   3.092   3.717   5.672  0.4355  1.0178  0.1998
 6689SOL    HW121283   3.170   3.666   5.695  0.5311  1.4222  0.7768
 6689SOL    HW221284   3.123   3.782   5.609  0.2738  0.2446 -0.6997
 6690SOL     OW21285   1.713   3.055   6.803 -0.3632  0.7871  0.0022
 6690SOL    HW121286   1.747   3.142   6.783  1.9566 -0.3844 -1.5804
 6690SOL    HW221287   1.693   3.017   6.717 -1.7805 -0.1065  0.6902
 6691SOL     OW21288   2.931   3.026   6.227  0.0274  0.3240  0.0380
 6691SOL    HW121289   2.935   2.942   6.181 -1.3487  0.7238 -0.8862
 6691SOL    HW221290   2.904   3.089   6.160  2.9218  1.9332  0.2497
 6692SOL     OW21291   3.001   2.627   5.263 -0.1462  0.0795 -0.0532
 6692SOL    HW121292   3.020   2.697   5.326 -2.6748 -1.2606  2.4346
 6692SOL    HW221293   2.927   2.659   5.213 -0.1099 -0.0939 -0.2192
 6693SOL     OW21294   3.690   3.773   6.220 -0.4185 -0.4870 -0.3273
 6693SOL    HW121295   3.778   3.745   6.196 -1.0089 -0.5513 -2.7407
 6693SOL    HW221296   3.674   3.850   6.165 -1.0698  0.9497  1.7456
 6694SOL     OW21297   2.374   3.105   7.701  0.0199 -0.1891 -0.1261
 6694SOL    HW121298   2.364   3.169   7.630 -2.1163  1.1340  1.2402
 6694SOL    HW221299   2.440   3.144   7.758 -0.1356  0.0404 -0.0983
 6695SOL     OW21300   1.694   3.041   5.870  0.5102 -0.1474 -0.0273
 6695SOL    HW121301   1.731   3.100   5.804  1.8230 -0.7892  0.0933
 6695SOL    HW221302   1.766   3.027   5.931 -0.4097 -0.2869  1.0567
 6696SOL     OW21303   2.781   3.397   7.248  0.6971  0.1489  0.7286
 6696SOL    HW121304   2.822   3.337   7.311 -0.1217 -1.7322 -0.4343
 6696SOL    HW221305   2.716   3.445   7.299  0.9810 -0.3718  1.5999
 6697SOL     OW21306   3.620   2.218   7.287  0.2616  0.1710  0.5462
 6697SOL    HW121307   3.623   2.243   7.195  0.8649  3.4526  1.3079
 6697SOL    HW221308   3.573   2.290   7.329  1.7877 -0.2089  3.0738
 6698SOL     OW21309   1.636   2.282   6.080 -0.3510  1.0771 -0.4798
 6698SOL    HW121310   1.686   2.271   6.000 -0.9168 -1.1152 -0.6086
 6698SOL    HW221311   1.544   2.275   6.052 -0.5853  1.0533  0.2610
 6699SOL     OW21312   3.034   3.419   6.544 -0.4898  0.1569  0.5298
 6699SOL    HW121313   2.955   3.365   6.550  0.1963 -0.7241  2.3399
 6699SOL    HW221314   3.012   3.500   6.590 -1.0013  0.8038 -0.8119
 6700SOL     OW21315   2.050   2.316   6.936 -0.5770  0.1191  0.5896
 6700SOL    HW121316   2.020   2.383   6.997  2.9838  1.8176  0.6968
 6700SOL    HW221317   2.131   2.282   6.975 -0.9113 -2.4847 -0.7366
 6701SOL     OW21318   2.139   3.280   5.826 -0.3002  0.1978 -0.4550
 6701SOL    HW121319   2.107   3.352   5.880 -1.9099 -1.0364  0.3213
 6701SOL    HW221320   2.059   3.240   5.791  0.4943 -1.6743 -0.2118
 6702SOL     OW21321   3.457   2.251   6.031  0.6070 -0.7454  0.1173
 6702SOL    HW121322   3.502   2.254   6.115 -0.7451 -1.8723  0.9260
 6702SOL    HW221323   3.422   2.339   6.019  2.2905 -0.0828 -0.1418
 6703SOL     OW21324   3.039   1.949   6.239  0.3441 -0.7719 -0.2600
 6703SOL    HW121325   3.054   2.022   6.299  1.3019 -1.7808  0.7871
 6703SOL    HW221326   3.064   1.984   6.153 -0.1242  0.4017  0.0533
 6704SOL     OW21327   2.296   3.082   5.961  0.2100 -0.2035  0.1098
 6704SOL    HW121328   2.228   3.123   5.907 -0.5124 -1.5455 -0.0425
 6704SOL    HW221329   2.357   3.153   5.980 -1.8764  1.3988  1.3338
 6705SOL     OW21330   2.264   3.694   6.811  0.3559 -0.1912  0.0856
 6705SOL    HW121331   2.259   3.718   6.904 -0.3186  0.6515 -0.1544
 6705SOL    HW221332   2.351   3.723   6.783  0.8033 -1.0082  0.5972
 6706SOL     OW21333   2.886   2.256   5.668 -0.5012 -0.5924  0.4924
 6706SOL    HW121334   2.862   2.296   5.584  0.5566 -0.5077  0.2156
 6706SOL    HW221335   2.923   2.171   5.645 -2.0144 -1.4255  1.0280
 6707SOL     OW21336   3.236   2.666   6.229  0.2892  0.1265 -0.2948
 6707SOL    HW121337   3.228   2.590   6.171  0.5136 -1.9248  2.1436
 6707SOL    HW221338   3.324   2.699   6.215  1.5397 -2.3665  1.0553
 6708SOL     OW21339   3.241   2.507   5.997 -0.0641  0.3528  0.6507
 6708SOL    HW121340   3.304   2.561   5.949  1.5376 -0.8273  1.3359
 6708SOL    HW221341   3.156   2.542   5.972  0.8745  2.7051  0.5093
 6709SOL     OW21342   1.411   3.121   5.811 -0.1221  0.9434  0.9126
 6709SOL    HW121343   1.504   3.107   5.830  0.0839  0.4568 -0.3577
 6709SOL    HW221344   1.404   3.107   5.717 -2.1114 -2.6085  1.4130
 6710SOL     OW21345   2.345   3.279   5.546 -0.5119 -0.1468  0.4040
 6710SOL    HW121346   2.329   3.276   5.452  1.1919 -0.0069  0.0763
 6710SOL    HW221347   2.274   3.227   5.585 -2.6932  1.7676 -0.7162
 6711SOL     OW21348   2.417   2.429   7.794 -0.1874 -0.2433 -0.3700
 6711SOL    HW121349   2.378   2.397   7.876 -0.1685 -0.3585 -0.4054
 6711SOL    HW221350   2.343   2.436   7.734 -0.4746  1.3673  0.1106
 6712SOL     OW21351   2.341   2.445   8.758  0.6785 -0.0927  0.0017
 6712SOL    HW121352   2.411   2.502   8.790  0.6681 -0.2112  0.2376
 6712SOL    HW221353   2.261   2.499   8.765  0.9143  0.5221 -1.5221
 6713SOL     OW21354   1.970   2.149   7.875 -0.0868 -0.0020 -0.1116
 6713SOL    HW121355   1.952   2.104   7.793  1.7334  1.4900 -1.4188
 6713SOL    HW221356   1.903   2.218   7.879 -0.5858 -0.4873  0.0152
 6714SOL     OW21357   2.594   3.178   0.206 -0.0598 -0.1328  0.1439
 6714SOL    HW121358   2.653   3.107   0.181 -0.2711 -0.5414  0.7894
 6714SOL    HW221359   2.522   3.172   0.143 -0.0421 -0.4492  0.1502
 6715SOL     OW21360   3.545   3.334   8.210 -0.0240  0.0551 -0.1025
 6715SOL    HW121361   3.538   3.427   8.234 -1.9849  0.5854 -2.3860
 6715SOL    HW221362   3.493   3.289   8.276  0.5269  0.6040  0.7353
 6716SOL     OW21363   3.263   2.762   8.484 -0.1023 -0.2440 -0.9622
 6716SOL    HW121364   3.207   2.795   8.554  0.5193 -0.6930 -0.2431
 6716SOL    HW221365   3.262   2.667   8.495  1.5022 -0.2255 -0.3686
 6717SOL     OW21366   3.959   2.517   7.872 -0.1504  0.4047 -0.2309
 6717SOL    HW121367   3.871   2.530   7.906  0.3107  0.6362  0.9181
 6717SOL    HW221368   3.961   2.425   7.844 -0.2200 -0.1370  1.4322
 6718SOL     OW21369   2.704   2.927   0.400  0.2143  0.3943  0.2135
 6718SOL    HW121370   2.736   2.841   0.426 -0.6180  0.4068  1.3817
 6718SOL    HW221371   2.620   2.909   0.357  0.1027  0.6073  0.3415
 6719SOL     OW21372   2.485   2.750   8.535  0.3260  0.1689  0.0816
 6719SOL    HW121373   2.477   2.668   8.487  2.1627 -0.4558  0.7399
 6719SOL    HW221374   2.397   2.788   8.533 -0.6716 -1.9832  0.0733
 6720SOL     OW21375   1.832   3.233   8.679 -0.5197  0.0543 -0.0698
 6720SOL    HW121376   1.832   3.139   8.664 -2.0014 -0.3382  2.0562
 6720SOL    HW221377   1.923   3.259   8.664  0.0732 -1.8342  0.0003
 6721SOL     OW21378   2.526   2.249   0.522 -0.3008 -0.0212 -0.4641
 6721SOL    HW121379   2.560   2.246   0.612  1.7319 -0.8143 -1.2254
 6721SOL    HW221380   2.490   2.338   0.514  0.4748  0.4372  0.7850
 6722SOL     OW21381   3.520   2.557   8.284 -0.1092  0.2045  0.0386
 6722SOL    HW121382   3.529   2.646   8.318 -0.8904 -0.6840  2.8204
 6722SOL    HW221383   3.430   2.551   8.254 -0.4871 -0.0439  1.1921
 6723SOL     OW21384   2.264   3.484   7.984  0.0340  0.4853  0.2301
 6723SOL    HW121385   2.239   3.569   7.946 -1.0510  1.4947  2.9807
 6723SOL    HW221386   2.182   3.445   8.013  0.7131 -0.7171  0.5961
 6724SOL     OW21387   2.133   3.593   8.316 -0.3445 -0.3487 -0.2566
 6724SOL    HW121388   2.218   3.570   8.355 -1.0692  0.0626  1.6944
 6724SOL    HW221389   2.104   3.513   8.273  0.4782 -0.8839  0.1569
 6725SOL     OW21390   2.708   3.499   8.682 -0.2610 -0.0764 -0.0683
 6725SOL    HW121391   2.775   3.508   8.750  1.2274  0.2241 -1.5233
 6725SOL    HW221392   2.637   3.556   8.711 -0.1168 -0.7430  1.7325
 6726SOL     OW21393   2.414   3.665   0.145 -0.4343 -0.1702 -0.0263
 6726SOL    HW121394   2.341   3.608   0.123 -0.3520 -0.7325  1.0941
 6726SOL    HW221395   2.483   3.605   0.174 -0.6020  0.4968  1.9071
 6727SOL     OW21396   2.945   2.997   8.129 -0.0907  0.0569  0.0092
 6727SOL    HW121397   2.924   3.064   8.194  0.0894  1.4849 -1.3541
 6727SOL    HW221398   2.862   2.976   8.087 -0.3391 -1.4019  1.1183
 6728SOL     OW21399   2.163   2.673   8.421  0.6698  0.0911  0.2805
 6728SOL    HW121400   2.088   2.718   8.382  0.0039 -1.4124 -0.2324
 6728SOL    HW221401   2.128   2.633   8.501  0.9447 -0.5367  0.0904
 6729SOL     OW21402   3.902   3.414   7.542  0.2586  0.9141 -1.1366
 6729SOL    HW121403   3.936   3.410   7.631  0.0709  2.4112 -0.9687
 6729SOL    HW221404   3.812   3.444   7.552 -0.1026  0.0966 -1.7819
 6730SOL     OW21405   2.351   3.526   7.281 -0.2267 -0.8843 -0.0006
 6730SOL    HW121406   2.273   3.529   7.336 -0.1180 -0.3433  0.1213
 6730SOL    HW221407   2.424   3.515   7.343  0.0710  1.4477  0.1230
 6731SOL     OW21408   3.388   2.764   7.965  0.3265 -0.0680 -0.1221
 6731SOL    HW121409   3.430   2.821   7.900  0.1456 -0.2354 -0.3910
 6731SOL    HW221410   3.381   2.818   8.044 -0.5428  0.5578 -0.5996
 6732SOL     OW21411   3.317   3.359   7.880 -0.2814  0.1634 -0.1028
 6732SOL    HW121412   3.268   3.324   7.805  2.8912 -1.0727 -1.7602
 6732SOL    HW221413   3.368   3.285   7.912  1.0329  1.5360  1.0985
 6733SOL     OW21414   2.879   3.382   8.489 -0.3066 -0.1451 -0.0901
 6733SOL    HW121415   2.957   3.437   8.475 -0.7102  0.5970  0.5090
 6733SOL    HW221416   2.831   3.426   8.560 -0.1095 -1.8487  1.1672
 6734SOL     OW21417   2.243   1.597   7.767  0.0123 -0.1391  0.7387
 6734SOL    HW121418   2.301   1.522   7.780  0.3716  0.0307  0.1713
 6734SOL    HW221419   2.296   1.659   7.717 -0.7984 -0.1518 -0.1513
 6735SOL     OW21420   1.982   2.877   0.189  0.4030  0.0799  0.1792
 6735SOL    HW121421   1.964   2.860   0.281  1.3678 -0.9166  0.1979
 6735SOL    HW221422   2.039   2.805   0.162  1.2950  1.1243 -0.8152
 6736SOL     OW21423   3.325   2.964   7.427  0.1506  0.9772  0.1560
 6736SOL    HW121424   3.378   3.043   7.438  1.2479  0.1510  1.0287
 6736SOL    HW221425   3.314   2.930   7.516  2.5687 -1.6759 -0.4280
 6737SOL     OW21426   3.446   3.244   8.445  0.9140 -0.0274 -0.7094
 6737SOL    HW121427   3.475   3.216   8.532  0.0872  0.6158 -0.2072
 6737SOL    HW221428   3.371   3.189   8.426 -0.1324  1.1418 -0.1279
 6738SOL     OW21429   3.340   3.503   8.538 -0.0022  1.0293 -0.3066
 6738SOL    HW121430   3.328   3.482   8.631  0.7835  0.6330 -0.2934
 6738SOL    HW221431   3.386   3.428   8.502  2.3872  2.4327 -0.3719
 6739SOL     OW21432   2.867   2.328   7.776 -0.5989  0.4532  0.2262
 6739SOL    HW121433   2.959   2.347   7.757 -0.7263  0.2572 -0.6466
 6739SOL    HW221434   2.823   2.412   7.769 -0.8019  0.2453 -1.4037
 6740SOL     OW21435   3.446   2.855   8.325 -0.4303  0.2713 -0.3012
 6740SOL    HW121436   3.392   2.930   8.304 -0.5792  0.2422 -0.0316
 6740SOL    HW221437   3.387   2.794   8.370 -0.3831 -0.1313 -0.7709
 6741SOL     OW21438   3.779   3.068   7.533 -0.0468  0.0491  0.8064
 6741SOL    HW121439   3.812   3.066   7.623 -1.0316  2.4216  1.2834
 6741SOL    HW221440   3.686   3.087   7.542  0.2725  2.7608 -0.7193
 6742SOL     OW21441   2.466   2.890   0.204  0.1667 -0.1759  0.0996
 6742SOL    HW121442   2.466   2.893   0.108 -1.8924  0.5304  0.0785
 6742SOL    HW221443   2.434   2.802   0.225 -0.6770  0.1232  0.1052
 6743SOL     OW21444   2.918   2.060   8.669 -0.0866  0.5511  0.1747
 6743SOL    HW121445   2.961   2.008   8.601  2.5040  2.3754  0.2803
 6743SOL    HW221446   2.835   2.087   8.629  0.4655 -0.0881 -1.4897
 6744SOL     OW21447   2.880   2.289   8.262 -0.1220  0.5712 -0.0398
 6744SOL    HW121448   2.902   2.247   8.178  0.0932  0.8573 -0.1267
 6744SOL    HW221449   2.865   2.216   8.322 -3.1816  0.2404 -1.0202
 6745SOL     OW21450   2.135   2.948   8.479  0.5520 -0.2139 -0.7372
 6745SOL    HW121451   2.138   3.041   8.458  1.4671  0.0145  0.3073
 6745SOL    HW221452   2.195   2.907   8.417  0.7978  0.0144 -0.6521
 6746SOL     OW21453   1.700   3.706   0.058  0.4469  0.1037  0.1914
 6746SOL    HW121454   1.771   3.768   0.043  1.3225 -1.1257 -0.9140
 6746SOL    HW221455   1.637   3.724  -0.012  1.6995 -1.5872 -1.4879
 6747SOL     OW21456   2.978   1.989   7.813  0.5195 -0.0852  0.2756
 6747SOL    HW121457   2.947   1.982   7.903 -0.5017 -3.1228 -0.1930
 6747SOL    HW221458   2.931   1.920   7.766  2.5449  0.0359 -2.1334
 6748SOL     OW21459   3.118   3.695   8.196  0.3766  0.3214 -0.1560
 6748SOL    HW121460   3.167   3.751   8.136 -0.6299 -0.1524 -1.4954
 6748SOL    HW221461   3.095   3.618   8.143 -0.2406 -0.2843  0.9578
 6749SOL     OW21462   2.677   2.157   8.552 -0.1041  0.4183 -0.3007
 6749SOL    HW121463   2.677   2.105   8.471 -0.5196 -1.4688  0.8659
 6749SOL    HW221464   2.601   2.215   8.543 -0.3498 -0.0070 -1.1091
 6750SOL     OW21465   3.083   3.482   8.032 -0.2720  0.3123  0.2651
 6750SOL    HW121466   3.152   3.447   7.975 -0.2795  0.2728  0.2804
 6750SOL    HW221467   3.013   3.416   8.029  0.2272 -0.2938  1.2984
 6751SOL     OW21468   2.296   3.651   8.570  0.5480 -0.0653  0.2119
 6751SOL    HW121469   2.374   3.598   8.553  0.3616  0.6241 -4.0070
 6751SOL    HW221470   2.321   3.740   8.544 -1.5518  0.1617 -1.3665
 6752SOL     OW21471   3.894   3.194   7.864  0.4740  0.1038  0.1725
 6752SOL    HW121472   3.883   3.247   7.943  0.4723 -0.9386  0.8866
 6752SOL    HW221473   3.982   3.215   7.832 -0.7325  3.2157 -1.6134
 6753SOL     OW21474   2.707   2.876   7.969 -0.6785 -0.0472 -0.1962
 6753SOL    HW121475   2.719   2.861   7.875 -3.9898  0.2312 -0.8019
 6753SOL    HW221476   2.676   2.792   8.003  2.0574 -0.6517  1.1165
 6754SOL     OW21477   3.252   3.010   8.184 -0.5752 -0.6170  0.0501
 6754SOL    HW121478   3.167   2.971   8.165 -1.3231  0.9066  0.1161
 6754SOL    HW221479   3.241   3.053   8.269  0.0336  0.2143 -0.2757
 6755SOL     OW21480   2.981   4.133   7.830  0.2043  0.3496 -0.6011
 6755SOL    HW121481   2.998   4.053   7.880  1.3029  1.1208  0.2969
 6755SOL    HW221482   2.939   4.102   7.749  1.0999 -1.1717 -0.5184
 6756SOL     OW21483   3.748   3.372   7.273  0.4419  0.2267  0.3803
 6756SOL    HW121484   3.690   3.447   7.263  0.6517  0.3241 -0.1533
 6756SOL    HW221485   3.705   3.302   7.223  0.8376  0.3332 -0.1159
 6757SOL     OW21486   2.029   3.350   8.104  0.1828  0.1442 -0.6319
 6757SOL    HW121487   1.999   3.261   8.086  0.7984 -0.0714 -0.5873
 6757SOL    HW221488   1.985   3.374   8.185  0.9896 -0.5938  0.0463
 6758SOL     OW21489   3.536   1.942   8.114  0.4490  0.0540 -0.1082
 6758SOL    HW121490   3.597   2.000   8.070  0.4795 -0.6229 -0.9917
 6758SOL    HW221491   3.578   1.921   8.198  0.6434  0.9210  0.0172
 6759SOL     OW21492   1.777   3.250   0.122 -0.7651 -0.1000 -0.1855
 6759SOL    HW121493   1.860   3.205   0.136 -0.3895  0.8096  0.6125
 6759SOL    HW221494   1.774   3.268   0.028 -0.8381 -1.5890 -0.4926
 6760SOL     OW21495   2.788   3.605   8.210 -1.0688  0.2311  0.2459
 6760SOL    HW121496   2.823   3.526   8.250 -0.2937  0.5517  0.2027
 6760SOL    HW221497   2.757   3.576   8.124  0.1694  0.1734 -0.1945
 6761SOL     OW21498   2.610   2.623   7.983 -0.1796  0.6962 -0.3812
 6761SOL    HW121499   2.608   2.543   8.035 -3.1159  0.5060 -0.6343
 6761SOL    HW221500   2.624   2.594   7.893  0.6054  0.6556 -0.2521
 6762SOL     OW21501   2.353   1.662   7.430 -0.7101  0.9002  0.3482
 6762SOL    HW121502   2.262   1.665   7.401 -1.4500 -2.6675  1.8201
 6762SOL    HW221503   2.402   1.627   7.356 -1.3368 -1.1479  0.8388
 6763SOL     OW21504   2.537   3.434   0.273 -0.3895  0.3635 -0.5998
 6763SOL    HW121505   2.562   3.346   0.245 -0.4448 -0.3365  1.4428
 6763SOL    HW221506   2.451   3.423   0.313 -1.7922  1.8911 -2.9211
 6764SOL     OW21507   2.759   2.980   0.124 -0.2135  0.4838 -0.0507
 6764SOL    HW121508   2.795   2.923   0.055  2.2909  2.4287 -0.4808
 6764SOL    HW221509   2.760   2.925   0.202 -2.1602 -1.4513 -1.2429
 6765SOL     OW21510   3.091   2.317   8.599 -0.3789  0.2953 -0.2096
 6765SOL    HW121511   3.022   2.371   8.560  0.2518 -0.1487 -2.0592
 6765SOL    HW221512   3.055   2.228   8.598 -0.0122  0.1482 -0.6497
 6766SOL     OW21513   2.253   1.940   8.249  0.5151  0.8534  0.0498
 6766SOL    HW121514   2.219   1.865   8.297  0.3645  0.2657 -0.9442
 6766SOL    HW221515   2.252   1.913   8.157  0.1976  2.1670 -0.3672
 6767SOL     OW21516   3.452   2.789   7.255  0.0824  0.2598 -0.3476
 6767SOL    HW121517   3.540   2.788   7.292 -0.7190 -0.9678  1.6784
 6767SOL    HW221518   3.403   2.850   7.309 -0.8955 -0.8836  0.1057
 6768SOL     OW21519   2.067   1.793   7.851  0.5816 -0.5497  0.5100
 6768SOL    HW121520   2.032   1.797   7.762  0.5255  1.2451  0.5608
 6768SOL    HW221521   2.132   1.723   7.848  0.3958 -0.6959 -0.8789
 6769SOL     OW21522   2.913   1.650   7.897  0.6880 -0.3349  0.2514
 6769SOL    HW121523   2.858   1.722   7.868  0.8704  0.3077  1.4485
 6769SOL    HW221524   2.870   1.572   7.861 -0.2146  0.2584 -0.0045
 6770SOL     OW21525   2.789   3.233   8.299 -0.1696 -0.8206  0.7034
 6770SOL    HW121526   2.703   3.200   8.326 -1.2472  0.9436 -0.3418
 6770SOL    HW221527   2.816   3.292   8.369 -2.2796  2.5957 -1.0514
 6771SOL     OW21528   2.324   2.935   8.254  0.5107 -0.0748 -0.1223
 6771SOL    HW121529   2.322   2.999   8.184 -0.6671  0.1498  0.1023
 6771SOL    HW221530   2.364   2.857   8.214  1.8599  0.7496 -0.4145
 6772SOL     OW21531   3.096   3.569   8.457  0.4842 -0.6449 -0.1793
 6772SOL    HW121532   3.179   3.547   8.499  0.5616  1.6271  1.0418
 6772SOL    HW221533   3.119   3.593   8.368  1.4606  1.4617  0.5644
 6773SOL     OW21534   2.417   2.121   7.583  0.4282  0.2949  0.3412
 6773SOL    HW121535   2.459   2.123   7.669  1.6648  0.6572 -0.2554
 6773SOL    HW221536   2.329   2.156   7.599  1.1930  1.9512  1.1629
 6774SOL     OW21537   2.192   2.267   8.621 -0.2255 -0.1840  0.3465
 6774SOL    HW121538   2.252   2.322   8.671 -1.5611 -0.9608  2.9808
 6774SOL    HW221539   2.216   2.177   8.644 -1.0796 -0.5686 -0.1909
 6775SOL     OW21540   2.868   2.464   8.491  0.0463 -0.0134  0.5090
 6775SOL    HW121541   2.872   2.544   8.439 -1.0106 -0.7269 -0.7348
 6775SOL    HW221542   2.850   2.395   8.428  2.1602 -1.4643  1.3547
 6776SOL     OW21543   3.218   1.978   8.115 -0.1114  0.1081  0.7159
 6776SOL    HW121544   3.249   2.068   8.105  1.7211 -0.6634 -1.5125
 6776SOL    HW221545   3.254   1.950   8.199  0.7426  0.9699  0.6601
 6777SOL     OW21546   3.244   3.075   8.457  0.2497  0.8062  0.2878
 6777SOL    HW121547   3.286   3.042   8.536 -1.0469  0.0188  0.6758
 6777SOL    HW221548   3.151   3.077   8.479 -0.2425 -0.3178 -1.5226
 6778SOL     OW21549   3.541   2.540   8.691  0.3006  0.0866  0.5475
 6778SOL    HW121550   3.468   2.564   8.747  0.5933  1.0513  0.5330
 6778SOL    HW221551   3.592   2.621   8.681  0.6629 -0.2496 -0.4940
 6779SOL     OW21552   3.726   2.966   7.883 -0.6513 -0.1556  0.2328
 6779SOL    HW121553   3.782   3.044   7.876 -1.7868  0.6268 -0.3645
 6779SOL    HW221554   3.741   2.934   7.972 -1.1413  1.5006  0.9471
 6780SOL     OW21555   2.123   3.423   7.719 -0.0641 -0.5164  0.4276
 6780SOL    HW121556   2.055   3.407   7.655  0.4537  0.0407 -0.2837
 6780SOL    HW221557   2.172   3.498   7.684 -0.7579  0.8969  2.2570
 6781SOL     OW21558   3.720   3.140   8.317  0.3252 -0.5274  0.7891
 6781SOL    HW121559   3.674   3.198   8.255  0.3220  0.0445  1.3158
 6781SOL    HW221560   3.795   3.107   8.267  0.8238  0.6252  0.7277
 6782SOL     OW21561   3.390   2.124   7.642 -0.4557 -0.2056 -0.0779
 6782SOL    HW121562   3.417   2.059   7.707  0.2026  1.1421  1.0618
 6782SOL    HW221563   3.440   2.102   7.564  1.5716  0.2735  1.0004
 6783SOL     OW21564   2.467   2.055   7.967 -0.0315  0.2400  0.1594
 6783SOL    HW121565   2.494   2.132   7.917 -0.0167  0.6588  0.8011
 6783SOL    HW221566   2.373   2.067   7.981  0.2337  0.9650  1.6103
 6784SOL     OW21567   3.722   3.201   0.080 -0.1441  0.2407  0.3686
 6784SOL    HW121568   3.805   3.196   0.128  1.2207 -0.8759 -1.9214
 6784SOL    HW221569   3.674   3.122   0.108 -1.0872  1.4841  2.6027
 6785SOL     OW21570   3.019   3.436   8.741 -0.4601  0.3727  0.3045
 6785SOL    HW121571   3.000   3.342   8.749  0.5822  0.2028  0.9133
 6785SOL    HW221572   3.113   3.443   8.757 -0.8084  1.7241  2.0789
 6786SOL     OW21573   3.756   3.322   8.529 -0.4359  0.5357 -0.6324
 6786SOL    HW121574   3.678   3.305   8.581  0.0873 -0.5350 -0.1604
 6786SOL    HW221575   3.740   3.276   8.446  1.0395 -2.7055  0.6987
 6787SOL     OW21576   2.839   2.672   8.310  0.3967  0.1608  0.2370
 6787SOL    HW121577   2.749   2.647   8.292  0.2746  0.0325  0.9876
 6787SOL    HW221578   2.891   2.608   8.261  0.0752 -0.3819  0.5835
 6788SOL     OW21579   2.324   3.188   0.051 -0.0197 -0.0791  0.3394
 6788SOL    HW121580   2.385   3.219  -0.016  0.6897 -1.5722  0.2587
 6788SOL    HW221581   2.284   3.110   0.014 -0.3400 -0.3719  1.2785
 6789SOL     OW21582   3.346   2.619   8.835 -0.0088  0.6624  0.2939
 6789SOL    HW121583   3.358   2.653   8.924  0.2159 -0.9629  0.9205
 6789SOL    HW221584   3.256   2.644   8.812  0.3016  2.0751  0.5045
 6790SOL     OW21585   2.038   3.142   0.110 -0.1470  0.3037 -0.3664
 6790SOL    HW121586   2.035   3.055   0.149 -0.3213  0.4233 -0.1062
 6790SOL    HW221587   2.131   3.166   0.114 -0.1574  0.3055 -0.0362
 6791SOL     OW21588   2.356   2.726   8.061 -0.0396 -0.1892 -0.0601
 6791SOL    HW121589   2.318   2.770   7.985 -1.6549  1.6457  1.6952
 6791SOL    HW221590   2.441   2.693   8.030 -0.5530  0.6403 -2.5636
 6792SOL     OW21591   2.485   2.335   8.510 -0.4093  0.5245  0.7245
 6792SOL    HW121592   2.450   2.291   8.433 -0.3983 -1.0287  1.5649
 6792SOL    HW221593   2.467   2.428   8.495 -0.7679  0.2159 -0.9417
 6793SOL     OW21594   3.434   3.614   8.023 -0.1576 -0.2085  0.6847
 6793SOL    HW121595   3.516   3.571   8.001  0.2574  0.3484  1.1166
 6793SOL    HW221596   3.366   3.557   7.986  0.3447 -1.4950  1.6861
 6794SOL     OW21597   3.295   3.451   8.800  0.1809 -0.2529  0.6041
 6794SOL    HW121598   3.287   3.513   8.873 -0.8156 -1.6813  1.7961
 6794SOL    HW221599   3.352   3.382   8.834  0.1261 -0.6769 -0.1539
 6795SOL     OW21600   3.473   2.650   7.612 -0.0477 -0.0171  0.0304
 6795SOL    HW121601   3.470   2.738   7.651 -0.3476 -0.2371  0.4964
 6795SOL    HW221602   3.386   2.637   7.574 -0.9537 -1.2060  2.3571
 6796SOL     OW21603   2.407   3.044   0.426  0.2758  0.1495 -0.3296
 6796SOL    HW121604   2.401   3.005   0.339  3.2727  1.6874 -1.3396
 6796SOL    HW221605   2.388   3.137   0.413 -1.3272  0.0840  1.0991
 6797SOL     OW21606   2.491   2.823   8.782  0.3868 -0.3892 -0.0625
 6797SOL    HW121607   2.532   2.760   8.843 -0.6918  0.0510  1.1618
 6797SOL    HW221608   2.509   2.787   8.695  3.2542 -0.2970  0.3816
 6798SOL     OW21609   3.121   2.810   8.702 -0.0958  0.3944 -0.2392
 6798SOL    HW121610   3.033   2.848   8.714 -0.5173 -0.7767  0.5354
 6798SOL    HW221611   3.167   2.830   8.784  0.8255  2.1094 -1.1222
 6799SOL     OW21612   3.110   2.142   7.663  0.0456 -0.0101  0.0146
 6799SOL    HW121613   3.202   2.114   7.663  0.0108 -0.1316 -0.2403
 6799SOL    HW221614   3.066   2.080   7.722  0.1145  0.0003  0.0768
 6800SOL     OW21615   2.570   2.152   8.832  0.6277 -0.2010 -0.4732
 6800SOL    HW121616   2.526   2.229   8.868  1.8716  1.1065 -1.6407
 6800SOL    HW221617   2.635   2.188   8.772  1.5019 -2.1653 -0.7543
 6801SOL     OW21618   1.916   2.959   8.646  0.1391  0.2440  0.2698
 6801SOL    HW121619   1.979   2.962   8.718  1.4951 -0.7837 -0.8082
 6801SOL    HW221620   1.969   2.936   8.569 -1.3944  0.4464 -0.8929
 6802SOL     OW21621   1.883   2.127   0.197  0.3377  0.1008  0.1526
 6802SOL    HW121622   1.789   2.114   0.187  0.1947  1.0857  0.1514
 6802SOL    HW221623   1.923   2.066   0.135 -0.3574  1.1080 -1.3320
 6803SOL     OW21624   2.470   2.257   8.250  0.0592 -0.2905  0.1127
 6803SOL    HW121625   2.402   2.281   8.188  0.8647 -1.4285 -1.2928
 6803SOL    HW221626   2.531   2.203   8.199 -0.3296 -3.0872  2.3607
 6804SOL     OW21627   3.697   2.047   7.684  0.3394 -0.2809 -0.1684
 6804SOL    HW121628   3.687   2.142   7.688  1.0596 -0.2417  1.9225
 6804SOL    HW221629   3.695   2.027   7.590  1.9556  1.9842 -0.7700
 6805SOL     OW21630   2.813   2.495   8.778  0.0003  0.2732 -0.5380
 6805SOL    HW121631   2.886   2.444   8.815 -0.7916 -0.4398  0.1045
 6805SOL    HW221632   2.837   2.510   8.687  0.9618  0.0773 -0.3225
 6806SOL     OW21633   3.631   1.489   7.205  0.2167  0.1052 -0.0153
 6806SOL    HW121634   3.666   1.407   7.171  1.3150  0.1615  0.9038
 6806SOL    HW221635   3.541   1.469   7.230 -0.4724 -0.0451 -2.4528
 6807SOL     OW21636   3.068   2.364   7.521 -0.0507  0.1803  0.8297
 6807SOL    HW121637   3.072   2.285   7.576 -1.3736  0.0454  0.7697
 6807SOL    HW221638   3.157   2.373   7.486  0.4043 -0.6533  1.7084
 6808SOL     OW21639   2.976   3.125   8.546 -0.9338 -0.0278  0.1444
 6808SOL    HW121640   2.906   3.089   8.602 -0.4164  0.6613  1.2740
 6808SOL    HW221641   2.948   3.215   8.528 -0.5210  0.1405  0.3197
 6809SOL     OW21642   2.840   3.218   8.849  0.2944  0.5812 -0.1830
 6809SOL    HW121643   2.796   3.190   8.769  0.1330  0.5329 -0.0768
 6809SOL    HW221644   2.822   3.148   8.912  1.5159 -0.0306 -0.4797
 6810SOL     OW21645   2.389   2.568   8.346  0.7667  0.5214  0.0856
 6810SOL    HW121646   2.385   2.573   8.250  2.0033 -0.0733 -0.0165
 6810SOL    HW221647   2.299   2.583   8.374  0.1160 -0.6403 -1.2311
 6811SOL     OW21648   3.020   2.089   0.069  0.1051  0.2949 -0.1973
 6811SOL    HW121649   3.083   2.017   0.077  2.2086  1.8382 -1.7667
 6811SOL    HW221650   2.996   2.090  -0.023 -2.2833 -0.1923  0.3351
 6812SOL     OW21651   1.639   3.280   7.782  0.4577 -0.0328  0.0076
 6812SOL    HW121652   1.607   3.267   7.871 -1.6298 -1.6573 -0.8914
 6812SOL    HW221653   1.677   3.195   7.758 -0.8254 -0.2707 -1.2961
 6813SOL     OW21654   2.088   3.676   8.810  0.5389 -0.0170  0.5483
 6813SOL    HW121655   2.144   3.666   8.733 -0.6408 -0.3381 -0.3104
 6813SOL    HW221656   2.114   3.605   8.868  1.1723 -0.0170  0.2736
 6814SOL     OW21657   2.496   3.452   8.484 -0.1945  0.2144  0.3388
 6814SOL    HW121658   2.502   3.479   8.393  1.3789  0.0516  0.3584
 6814SOL    HW221659   2.583   3.472   8.520 -0.1018 -1.6643  1.2466
 6815SOL     OW21660   3.042   2.364   0.031 -0.1604  0.2832  0.0337
 6815SOL    HW121661   3.100   2.354  -0.044 -1.6010  0.5659 -1.1454
 6815SOL    HW221662   3.040   2.277   0.071  1.1397  0.2915  0.1793
 6816SOL     OW21663   1.808   2.401   8.820  0.4791  0.2452  0.9203
 6816SOL    HW121664   1.809   2.322   8.873  0.5565 -0.5767 -0.2625
 6816SOL    HW221665   1.741   2.457   8.859  1.6803  0.4008  2.8797
 6817SOL     OW21666   2.968   2.180   8.020  0.7303  0.3591 -0.1520
 6817SOL    HW121667   2.952   2.218   7.934  1.5732 -2.2328 -1.5750
 6817SOL    HW221668   3.060   2.154   8.018  1.0326  1.0442  1.9289
 6818SOL     OW21669   3.728   2.784   8.650 -0.3486  0.0346 -0.0997
 6818SOL    HW121670   3.705   2.872   8.618  2.3579  0.5310 -0.9020
 6818SOL    HW221671   3.792   2.800   8.719  0.2999 -1.3184 -0.3713
 6819SOL     OW21672   2.603   2.567   0.056  0.4456 -0.1202  0.2432
 6819SOL    HW121673   2.644   2.600   0.136 -0.3751  1.2475  0.1400
 6819SOL    HW221674   2.676   2.541  -0.000  1.0278 -1.1629  1.4371
 6820SOL     OW21675   2.964   3.374   0.175  0.1720  0.3246  0.4559
 6820SOL    HW121676   2.906   3.347   0.104  0.6275  0.0175  0.1883
 6820SOL    HW221677   2.974   3.468   0.164  1.9033  0.0166 -1.2066
 6821SOL     OW21678   2.619   2.230   7.806  0.2464  0.1396 -0.4773
 6821SOL    HW121679   2.585   2.310   7.765  1.8195  0.5228 -1.1125
 6821SOL    HW221680   2.712   2.249   7.820  0.4545 -1.2779  0.1371
 6822SOL     OW21681   1.513   2.997   0.451 -0.1896 -0.0026  0.2506
 6822SOL    HW121682   1.418   2.991   0.459 -0.1989 -1.4567 -0.4919
 6822SOL    HW221683   1.529   3.077   0.400 -1.2349 -1.1907 -2.1301
 6823SOL     OW21684   3.193   2.922   0.129 -0.6294  0.2746 -0.0820
 6823SOL    HW121685   3.179   3.017   0.126 -0.7403  0.3338  1.3586
 6823SOL    HW221686   3.121   2.890   0.184  1.5057 -0.1380  2.7190
 6824SOL     OW21687   3.404   2.514   8.018 -0.0071 -0.0013  0.0001
 6824SOL    HW121688   3.389   2.467   7.936  1.6173 -0.5842 -0.0064
 6824SOL    HW221689   3.418   2.605   7.991 -2.1710  0.3619 -0.0775
 6825SOL     OW21690   4.252   3.947   8.702  0.8624 -0.1955 -0.4862
 6825SOL    HW121691   4.166   3.947   8.745  1.3426 -0.9805  0.5163
 6825SOL    HW221692   4.287   4.035   8.719  0.3505  0.0545 -0.7121
 6826SOL     OW21693   2.998   3.679   8.667 -0.3801  0.0588 -0.2309
 6826SOL    HW121694   2.992   3.597   8.715 -0.8390 -0.4633 -1.1431
 6826SOL    HW221695   3.017   3.652   8.577 -1.7414  0.8588 -0.8000
 6827SOL     OW21696   2.237   2.968   8.758 -0.1722  0.4407 -0.5136
 6827SOL    HW121697   2.227   2.934   8.669 -1.6158  0.1674 -0.2732
 6827SOL    HW221698   2.324   2.937   8.786  0.2682  0.4727 -1.7833
 6828SOL     OW21699   4.042   2.008   7.512 -0.0473  0.4173  0.3159
 6828SOL    HW121700   3.994   1.925   7.509  0.1954  0.2945 -0.5199
 6828SOL    HW221701   4.029   2.046   7.425  2.7892 -0.4475 -0.6093
 6829SOL     OW21702   3.205   3.255   7.651 -0.0326  0.0738  0.3993
 6829SOL    HW121703   3.187   3.309   7.574  0.0044  0.7509  0.8590
 6829SOL    HW221704   3.193   3.165   7.621 -0.6670  0.3609 -0.2243
 6830SOL     OW21705   3.288   2.376   8.383  0.8918 -0.0851 -0.0038
 6830SOL    HW121706   3.352   2.389   8.453 -0.8032  2.7062  1.1938
 6830SOL    HW221707   3.203   2.383   8.427 -0.2630 -1.3407 -1.9060
 6831SOL     OW21708   2.123   3.150   7.823 -0.2854 -0.1371 -0.1720
 6831SOL    HW121709   2.151   3.241   7.826 -2.0952  0.4371  0.5948
 6831SOL    HW221710   2.149   3.120   7.736 -0.6008  1.4351 -0.8459
 6832SOL     OW21711   3.697   2.136   7.962  0.1148 -0.3392 -0.2097
 6832SOL    HW121712   3.677   2.129   7.869  0.4867  0.3808 -0.3476
 6832SOL    HW221713   3.702   2.230   7.979  1.9816 -0.4508  0.1106
 6833SOL     OW21714   2.287   2.368   8.068 -0.0672  0.0091 -0.6341
 6833SOL    HW121715   2.251   2.457   8.065  0.5635  0.2883 -0.2023
 6833SOL    HW221716   2.223   2.318   8.119 -1.1483 -0.1483 -2.1044
 6834SOL     OW21717   2.534   3.343   7.733 -0.1928 -0.1424 -0.0341
 6834SOL    HW121718   2.475   3.416   7.756 -0.0736 -0.3487  0.9737
 6834SOL    HW221719   2.597   3.382   7.673 -0.4345  0.4640  0.0904
 6835SOL     OW21720   3.156   2.724   0.482  0.0487  0.2822  0.3086
 6835SOL    HW121721   3.168   2.682   0.397  0.6349  0.4657  0.2924
 6835SOL    HW221722   3.242   2.762   0.502  0.2746 -0.7906  1.5349
 6836SOL     OW21723   3.096   2.495   8.209  0.4123 -0.3821  0.0197
 6836SOL    HW121724   3.166   2.431   8.218  0.5286 -0.4051 -0.9829
 6836SOL    HW221725   3.053   2.473   8.127 -0.4221 -0.0206  0.3452
 6837SOL     OW21726   3.515   3.199   7.509  0.4377  0.0332  0.0870
 6837SOL    HW121727   3.499   3.282   7.555 -2.6995 -0.7466  0.6024
 6837SOL    HW221728   3.505   3.221   7.417  2.0734  0.6467  0.0119
 6838SOL     OW21729   3.925   3.070   8.646 -0.2224 -0.1809  0.3249
 6838SOL    HW121730   3.921   3.028   8.732 -0.1259  0.5144  0.6751
 6838SOL    HW221731   3.835   3.097   8.628 -0.3286 -0.7374 -0.0091
 6839SOL     OW21732   2.697   3.116   8.625 -0.4161 -0.2530 -0.3601
 6839SOL    HW121733   2.618   3.135   8.575  0.2722 -0.6015 -1.6115
 6839SOL    HW221734   2.731   3.036   8.586  0.7204  0.0596 -0.0425
 6840SOL     OW21735   3.033   2.013   8.420  0.3974  0.0635 -0.3018
 6840SOL    HW121736   3.001   1.954   8.352  2.8219 -1.5153 -0.2125
 6840SOL    HW221737   3.126   2.024   8.400  1.4826 -1.2777  3.2312
 6841SOL     OW21738   2.300   3.308   8.265  0.6093  0.5997  0.0338
 6841SOL    HW121739   2.343   3.384   8.226  0.6157 -0.2652 -1.7371
 6841SOL    HW221740   2.288   3.248   8.192 -2.4001  0.2492  0.7126
 6842SOL     OW21741   3.587   1.817   8.402 -0.1219  0.0718 -0.5919
 6842SOL    HW121742   3.626   1.855   8.480 -2.1266 -1.6361  1.4243
 6842SOL    HW221743   3.660   1.804   8.341  2.0189 -0.7478  1.9606
 6843SOL     OW21744   1.894   3.528   7.883  0.5020 -0.1657 -0.4981
 6843SOL    HW121745   1.925   3.485   7.962 -0.9607 -0.5210 -0.0836
 6843SOL    HW221746   1.948   3.491   7.813  2.7023  1.1014  0.4342
 6844SOL     OW21747   2.540   1.966   0.480  0.0659  0.6500 -0.3069
 6844SOL    HW121748   2.547   2.059   0.499  0.5998  0.7020 -0.7403
 6844SOL    HW221749   2.554   1.959   0.386 -0.9582  0.2252 -0.4474
 6845SOL     OW21750   1.885   2.124   7.591  0.0361  0.0658  0.0095
 6845SOL    HW121751   1.889   2.217   7.570  0.2965  0.1554  0.4426
 6845SOL    HW221752   1.969   2.089   7.564  0.2790  0.1343  0.6660
 6846SOL     OW21753   1.658   2.329   7.627 -0.6586 -0.0824  0.8284
 6846SOL    HW121754   1.630   2.421   7.622  0.9972  0.4667  0.7542
 6846SOL    HW221755   1.690   2.319   7.717  0.5857 -0.1054  0.4083
 6847SOL     OW21756   2.858   3.311   8.055 -0.5111 -0.0108 -0.5216
 6847SOL    HW121757   2.787   3.256   8.022 -2.3545  0.2966  2.5094
 6847SOL    HW221758   2.854   3.300   8.150  2.1706  1.7001 -0.1093
 6848SOL     OW21759   2.716   2.666   0.544  0.4206 -0.7052  0.4894
 6848SOL    HW121760   2.766   2.594   0.581  0.1531 -1.1749 -0.0336
 6848SOL    HW221761   2.625   2.645   0.564  0.4240  0.3214  1.7472
 6849SOL     OW21762   3.234   3.885   8.825 -0.5603 -0.1377  0.1753
 6849SOL    HW121763   3.213   3.975   8.801  0.3349  0.1349  0.3636
 6849SOL    HW221764   3.220   3.835   8.745 -2.3303 -0.0726  0.4030
 6850SOL     OW21765   2.245   3.886   0.264  0.3731  0.3101  0.5548
 6850SOL    HW121766   2.219   3.846   0.348 -2.7164  0.4020 -0.2450
 6850SOL    HW221767   2.288   3.815   0.217 -1.5866 -1.0551  0.6787
 6851SOL     OW21768   3.605   2.983   8.527  0.1703 -0.0216 -0.4990
 6851SOL    HW121769   3.551   2.924   8.474 -1.0753 -0.0678  0.7672
 6851SOL    HW221770   3.638   3.047   8.464  0.1227 -1.0416 -1.6106
 6852SOL     OW21771   3.386   2.408   7.768  0.0693 -0.3964  0.3169
 6852SOL    HW121772   3.396   2.332   7.710 -2.0005 -1.4851  1.2655
 6852SOL    HW221773   3.429   2.480   7.721 -0.1314 -1.5801 -1.8199
 6853SOL     OW21774   2.750   2.878   8.504  0.0685  0.2784 -0.0858
 6853SOL    HW121775   2.661   2.857   8.476  0.4027 -0.8509 -0.3744
 6853SOL    HW221776   2.806   2.829   8.443  0.9103  1.5627 -0.3941
 6854SOL     OW21777   3.379   3.034   8.690  0.1691  0.6207 -0.0344
 6854SOL    HW121778   3.409   3.093   8.759  0.2462  0.2817  0.2238
 6854SOL    HW221779   3.453   2.977   8.671 -0.0448  0.3158  0.0297
 6855SOL     OW21780   2.569   3.150   7.962 -0.5381  0.2361 -0.2335
 6855SOL    HW121781   2.590   3.187   7.876  0.1970  1.3371  0.3997
 6855SOL    HW221782   2.620   3.069   7.967 -2.0428 -0.8620 -1.5721
 6856SOL     OW21783   2.414   3.900   8.544 -0.1270  0.3513  0.1974
 6856SOL    HW121784   2.415   3.978   8.600  1.0687 -0.3433  1.2101
 6856SOL    HW221785   2.444   3.931   8.459 -0.5870  1.1747  0.3281
 6857SOL     OW21786   2.864   2.824   8.775  0.1651 -0.3062  0.1799
 6857SOL    HW121787   2.892   2.733   8.786  0.4104 -0.5548 -2.0589
 6857SOL    HW221788   2.813   2.824   8.693  1.9398  1.9155 -1.0526
 6858SOL     OW21789   3.116   2.390   7.880 -0.5263 -0.7671  0.1476
 6858SOL    HW121790   3.195   2.370   7.829  0.8015  0.6946  1.5385
 6858SOL    HW221791   3.092   2.479   7.852 -3.4023 -2.1458 -2.3016
 6859SOL     OW21792   4.052   3.138   8.257  0.3422 -0.1315  0.1145
 6859SOL    HW121793   4.125   3.103   8.206  0.9744  1.5879 -0.2034
 6859SOL    HW221794   4.003   3.193   8.195 -0.2019  0.1489  0.7808
 6860SOL     OW21795   2.103   3.208   8.451 -0.1963  0.0625  0.1498
 6860SOL    HW121796   2.167   3.251   8.394  1.0533 -1.3516  0.4200
 6860SOL    HW221797   2.019   3.223   8.408  0.5138  0.5284 -1.1484
 6861SOL     OW21798   3.310   1.918   8.406  0.3366 -0.5050  0.2794
 6861SOL    HW121799   3.401   1.894   8.392  0.3673 -1.1057  1.3886
 6861SOL    HW221800   3.290   1.887   8.494 -0.5263  0.8727  0.6144
 6862SOL     OW21801   2.674   2.448   8.194  0.6412 -0.1466 -0.1660
 6862SOL    HW121802   2.756   2.403   8.212  1.1898  0.5915 -0.7600
 6862SOL    HW221803   2.606   2.386   8.222  1.3785 -1.1001 -0.4226
 6863SOL     OW21804   3.547   3.739   8.540 -0.8035 -0.2971 -0.4937
 6863SOL    HW121805   3.570   3.734   8.447 -2.2659 -0.3277 -0.8736
 6863SOL    HW221806   3.462   3.696   8.547  0.1409 -2.0755  1.2095
 6864SOL     OW21807   2.429   2.348   0.182  0.1408 -0.3634 -0.2960
 6864SOL    HW121808   2.350   2.400   0.172 -0.5282 -1.2262  0.3899
 6864SOL    HW221809   2.501   2.411   0.171 -0.6443  0.6397  0.2314
 6865SOL     OW21810   2.311   3.145   8.064 -0.1578  0.2895  0.1750
 6865SOL    HW121811   2.273   3.149   7.976  2.0644  0.6710 -0.8214
 6865SOL    HW221812   2.405   3.149   8.050  0.3091 -0.7651  2.5342
 6866SOL     OW21813   3.699   2.376   8.400 -0.3472  0.0841 -0.0837
 6866SOL    HW121814   3.646   2.308   8.441 -1.5813  1.0755  0.0110
 6866SOL    HW221815   3.636   2.437   8.363  0.7135  1.7384  0.7459
 6867SOL     OW21816   3.224   1.737   8.618  0.1822  0.1771 -0.1215
 6867SOL    HW121817   3.161   1.690   8.563  0.9017  0.0926 -0.8919
 6867SOL    HW221818   3.258   1.670   8.677 -2.4145  0.7221  2.2544
 6868SOL     OW21819   2.524   3.132   8.350 -0.5072  0.3399  0.4052
 6868SOL    HW121820   2.467   3.061   8.319  0.6472 -0.1686 -0.6215
 6868SOL    HW221821   2.463   3.197   8.385 -1.7716 -0.0075 -1.0044
 6869SOL     OW21822   2.512   3.678   8.748 -0.0926  1.0143  0.2757
 6869SOL    HW121823   2.489   3.740   8.679  0.8910  1.3118  0.1963
 6869SOL    HW221824   2.443   3.688   8.813 -0.6294  1.2714 -0.3189
 6870SOL     OW21825   3.289   2.403   7.378  0.0762 -0.1164 -0.1526
 6870SOL    HW121826   3.310   2.415   7.285  1.9218 -2.9887 -0.2287
 6870SOL    HW221827   3.374   2.409   7.422 -0.5018 -0.8356  1.0857
 6871SOL     OW21828   3.315   2.229   8.145  0.5756 -0.4120  0.6896
 6871SOL    HW121829   3.354   2.302   8.096  0.2163  0.0611  1.0991
 6871SOL    HW221830   3.317   2.258   8.236 -0.7901 -0.3382  0.7124
 6872SOL     OW21831   3.886   2.769   8.287  0.1853 -0.3635 -0.0156
 6872SOL    HW121832   3.964   2.713   8.288 -0.1555 -0.8730 -0.7264
 6872SOL    HW221833   3.900   2.832   8.357  2.1381  0.7822 -1.3541
 6873SOL     OW21834   1.951   2.793   8.284  0.1702  0.3082 -0.1628
 6873SOL    HW121835   1.862   2.791   8.247  0.4251 -1.2651 -0.7558
 6873SOL    HW221836   1.973   2.886   8.287 -1.5219  0.7276  0.0576
 6874SOL     OW21837   3.059   3.830   7.776 -0.1568  0.6671  0.5465
 6874SOL    HW121838   3.074   3.741   7.744  0.6952  0.8828  0.3220
 6874SOL    HW221839   3.084   3.827   7.869 -1.2458  0.3973  0.8473
 6875SOL     OW21840   2.095   4.554   0.178  0.0943  0.0621 -0.3549
 6875SOL    HW121841   2.015   4.580   0.132  1.2023 -0.7482 -2.9250
 6875SOL    HW221842   2.126   4.633   0.221 -1.5924  0.5954 -0.0644
 6876SOL     OW21843   1.893   4.075   1.365  0.2889  0.4227 -0.4531
 6876SOL    HW121844   1.832   4.001   1.365 -1.2940  1.6019  1.7280
 6876SOL    HW221845   1.918   4.086   1.274 -2.4891 -0.4056 -1.4144
 6877SOL     OW21846   1.748   4.249   0.647  0.0037  0.8496 -0.2718
 6877SOL    HW121847   1.683   4.183   0.672 -1.1507  0.8276 -2.9469
 6877SOL    HW221848   1.700   4.331   0.649  0.6991  1.2572  0.3824
 6878SOL     OW21849   2.275   5.345   1.409 -0.6043  0.4572 -0.3940
 6878SOL    HW121850   2.248   5.304   1.327 -0.2855 -1.8633  0.5830
 6878SOL    HW221851   2.194   5.358   1.458 -0.7235  1.1998 -0.7756
 6879SOL     OW21852   3.423   5.056   0.868 -0.9402 -0.0676  0.2525
 6879SOL    HW121853   3.390   5.146   0.859 -0.0644  0.1376 -1.2335
 6879SOL    HW221854   3.502   5.065   0.922 -0.3089  0.2117 -0.6975
 6880SOL     OW21855   3.014   4.315   0.626  0.8093  0.3033 -0.5732
 6880SOL    HW121856   3.067   4.333   0.704 -0.9425 -1.1446  1.0428
 6880SOL    HW221857   2.924   4.316   0.657 -0.0763  1.0260 -2.9053
 6881SOL     OW21858   3.199   4.158   8.697  0.1968 -0.3750 -0.2370
 6881SOL    HW121859   3.252   4.214   8.640  0.4246  1.4013  1.6115
 6881SOL    HW221860   3.114   4.152   8.652 -0.2524  2.5370  0.0668
 6882SOL     OW21861   2.676   4.875   1.156  0.0214  0.5316  0.0645
 6882SOL    HW121862   2.698   4.904   1.067  1.0513  0.1132  0.1710
 6882SOL    HW221863   2.761   4.868   1.200 -0.2356 -1.8430  0.2827
 6883SOL     OW21864   2.306   4.545   2.064  0.4058  0.1150  0.2023
 6883SOL    HW121865   2.390   4.590   2.062  0.6626 -0.2466  1.5403
 6883SOL    HW221866   2.254   4.595   2.128 -0.8279  1.0246 -1.4297
 6884SOL     OW21867   2.463   4.452   0.605  0.3908 -0.5652 -0.3395
 6884SOL    HW121868   2.535   4.389   0.604  0.3979 -0.6056  0.8913
 6884SOL    HW221869   2.406   4.422   0.676 -0.7284 -0.3983 -1.1444
 6885SOL     OW21870   2.073   5.173   2.343  0.4265 -0.6841 -0.2337
 6885SOL    HW121871   2.029   5.106   2.396  0.3502 -1.2415 -0.9814
 6885SOL    HW221872   2.040   5.158   2.255  0.1797  0.5508 -0.3567
 6886SOL     OW21873   2.258   5.147   1.224  0.1457 -0.1916  0.9210
 6886SOL    HW121874   2.281   5.134   1.132 -0.4035  0.6478  0.6500
 6886SOL    HW221875   2.238   5.060   1.256 -0.2934 -0.4230  0.0575
 6887SOL     OW21876   3.241   5.324   1.574  0.6792 -0.4337  0.7195
 6887SOL    HW121877   3.289   5.390   1.624  2.6536 -1.1969 -0.0364
 6887SOL    HW221878   3.306   5.255   1.558 -0.4036 -1.0953 -1.1935
 6888SOL     OW21879   2.410   4.207   1.526  0.5406 -0.1705  0.2597
 6888SOL    HW121880   2.456   4.231   1.607  1.2870  1.4945 -0.6146
 6888SOL    HW221881   2.336   4.154   1.556  0.4632  0.8754  2.0843
 6889SOL     OW21882   3.259   3.970   0.537  0.5537 -0.6102 -0.4513
 6889SOL    HW121883   3.209   3.996   0.460 -2.5928  0.9063  1.8492
 6889SOL    HW221884   3.288   4.053   0.576 -3.5232 -0.4746  3.2018
 6890SOL     OW21885   2.464   5.323   0.784  0.3931  0.7136  0.0733
 6890SOL    HW121886   2.435   5.361   0.867 -0.1476  1.0143 -0.2497
 6890SOL    HW221887   2.514   5.392   0.742  0.5073  0.6251  0.0619
 6891SOL     OW21888   2.778   5.050   2.155 -0.5477  0.3631 -0.1772
 6891SOL    HW121889   2.850   5.014   2.205  0.9222  0.9093 -1.8091
 6891SOL    HW221890   2.737   5.114   2.214  0.8119  0.6405  0.5075
 6892SOL     OW21891   1.908   5.149   0.482 -0.2633  0.3120  0.4125
 6892SOL    HW121892   1.998   5.159   0.513  0.1456 -0.8512 -0.3403
 6892SOL    HW221893   1.903   5.204   0.403 -0.1298  0.1622  0.2998
 6893SOL     OW21894   2.328   4.709   1.776 -0.3507 -0.0977  0.0271
 6893SOL    HW121895   2.411   4.714   1.824 -0.9923  0.3565  1.1328
 6893SOL    HW221896   2.345   4.647   1.705  1.8155  2.1216 -1.5830
 6894SOL     OW21897   2.442   5.136   1.502 -0.4844  0.1007  0.7799
 6894SOL    HW121898   2.386   5.203   1.464 -0.1699 -0.2672 -0.3603
 6894SOL    HW221899   2.382   5.064   1.524 -0.8634  0.8144  2.2505
 6895SOL     OW21900   2.577   5.183   0.274  0.4157  0.1764  0.4874
 6895SOL    HW121901   2.628   5.256   0.240 -2.1001  1.8814  0.1612
 6895SOL    HW221902   2.546   5.212   0.360  0.1269 -0.8908  0.7695
 6896SOL     OW21903   1.991   4.278   0.537 -0.2693  0.4659  0.5236
 6896SOL    HW121904   1.996   4.373   0.545  0.9785  0.3582  1.5245
 6896SOL    HW221905   1.904   4.255   0.569 -0.1206  1.2045  1.5231
 6897SOL     OW21906   3.834   5.245   0.826  0.0110  0.2290 -0.0222
 6897SOL    HW121907   3.825   5.225   0.732  0.0023  0.3887 -0.0555
 6897SOL    HW221908   3.872   5.333   0.828 -2.2770  1.3002  0.1120
 6898SOL     OW21909   2.156   5.154   0.740 -0.0022 -0.0315  0.0339
 6898SOL    HW121910   2.128   5.063   0.743 -0.4533  0.0473 -1.0514
 6898SOL    HW221911   2.102   5.199   0.805  0.9744 -0.6996  1.3521
 6899SOL     OW21912   3.425   4.707   0.669 -0.1275  0.5260  0.8985
 6899SOL    HW121913   3.426   4.620   0.628 -1.4200  1.1893 -0.6415
 6899SOL    HW221914   3.509   4.746   0.643 -0.6272  0.6688 -0.6128
 6900SOL     OW21915   3.627   4.853   0.479 -0.4471  0.4411  0.0326
 6900SOL    HW121916   3.564   4.911   0.436  0.1484  1.9895  1.1649
 6900SOL    HW221917   3.671   4.808   0.407  0.2577  2.6531 -1.0287
 6901SOL     OW21918   1.961   4.486   2.077 -0.1775  0.2381 -0.1881
 6901SOL    HW121919   2.039   4.542   2.078 -0.3195  0.4359 -0.2624
 6901SOL    HW221920   1.892   4.541   2.039 -0.3351  0.0386 -0.1906
 6902SOL     OW21921   2.802   5.072   0.540 -0.6971 -0.0030 -0.1196
 6902SOL    HW121922   2.856   5.014   0.593  0.5238 -0.9959 -2.3174
 6902SOL    HW221923   2.856   5.150   0.528 -1.5676  0.8517  1.2424
 6903SOL     OW21924   2.653   5.234   1.639 -0.8846  0.3111 -1.1089
 6903SOL    HW121925   2.678   5.141   1.642 -0.0620  0.4300 -3.0068
 6903SOL    HW221926   2.586   5.238   1.571 -1.0026  1.0899 -0.9533
 6904SOL     OW21927   2.647   3.987   0.960  0.3050  0.2453 -0.2203
 6904SOL    HW121928   2.611   3.949   1.040  0.4936  0.5688  0.0226
 6904SOL    HW221929   2.634   3.920   0.893  0.0661  0.0077  0.0628
 6905SOL     OW21930   2.495   4.725   2.151  0.4090  0.4568  0.3478
 6905SOL    HW121931   2.568   4.668   2.128  0.2270  0.5616 -0.5300
 6905SOL    HW221932   2.497   4.729   2.247  1.7070  0.6706  0.3311
 6906SOL     OW21933   3.115   4.455   0.150 -0.1412 -0.1741 -0.1487
 6906SOL    HW121934   3.142   4.545   0.130 -1.5481  0.5711  1.0995
 6906SOL    HW221935   3.087   4.458   0.241 -0.1065 -1.9290 -0.0420
 6907SOL     OW21936   3.409   5.594   1.465  0.1365  0.1436 -0.0169
 6907SOL    HW121937   3.376   5.683   1.451 -0.1298  0.0693  0.1242
 6907SOL    HW221938   3.423   5.588   1.559 -0.7810 -0.2811  0.1005
 6908SOL     OW21939   1.759   4.189   1.968 -0.2311  0.6679  0.2029
 6908SOL    HW121940   1.791   4.103   1.997 -0.2515  0.8156  0.6744
 6908SOL    HW221941   1.812   4.210   1.891  0.2038  0.5107  0.4554
 6909SOL     OW21942   3.339   5.309   0.856  0.1937  0.2450  0.0966
 6909SOL    HW121943   3.294   5.354   0.927  1.1585  0.6839  0.4404
 6909SOL    HW221944   3.409   5.369   0.830  0.6817 -0.4914 -0.3231
 6910SOL     OW21945   3.536   5.562   0.276  0.7863  0.6802 -0.2007
 6910SOL    HW121946   3.510   5.470   0.268 -1.4821  1.1538  0.9781
 6910SOL    HW221947   3.484   5.596   0.348  0.0237  3.4296 -1.8924
 6911SOL     OW21948   2.469   4.471   0.229  0.2895 -0.3412  0.0866
 6911SOL    HW121949   2.475   4.480   0.324  1.5914 -0.9051  0.0742
 6911SOL    HW221950   2.560   4.463   0.200 -0.1653 -1.5753 -1.0673
 6912SOL     OW21951   3.399   4.017   1.336  0.6440  0.3203 -0.3490
 6912SOL    HW121952   3.380   4.110   1.341  0.6504  0.2738  0.9040
 6912SOL    HW221953   3.479   4.012   1.283  0.0356  0.9130 -1.3584
 6913SOL     OW21954   3.385   5.244   0.579  0.3089  0.5255  0.2469
 6913SOL    HW121955   3.320   5.204   0.636 -1.9268  1.2131 -1.6683
 6913SOL    HW221956   3.407   5.326   0.623 -1.7700  1.2986 -0.0142
 6914SOL     OW21957   2.620   4.569   1.694 -0.2241 -0.0314  0.1198
 6914SOL    HW121958   2.634   4.662   1.710  3.6205 -0.4375 -0.0899
 6914SOL    HW221959   2.613   4.562   1.599  0.3231 -0.0302  0.0775
 6915SOL     OW21960   3.158   4.135   1.641 -0.3681 -0.3656  0.1515
 6915SOL    HW121961   3.206   4.194   1.582 -0.2530  0.4697  1.0537
 6915SOL    HW221962   3.208   4.138   1.723 -2.5749  1.5110  1.5333
 6916SOL     OW21963   2.651   5.055   1.903 -0.3124 -0.0422  0.3676
 6916SOL    HW121964   2.697   5.045   1.986 -1.4869  1.0255  1.1804
 6916SOL    HW221965   2.701   5.121   1.855 -1.1063  1.3412  1.3702
 6917SOL     OW21966   3.037   4.089   1.150 -0.0978 -0.1982  0.0510
 6917SOL    HW121967   3.004   4.007   1.113  2.1128 -0.5879 -1.2330
 6917SOL    HW221968   3.053   4.069   1.242  0.0465 -1.1032 -0.1607
 6918SOL     OW21969   2.894   3.986   0.443  0.0899  0.5205  0.6466
 6918SOL    HW121970   2.982   3.999   0.407 -0.2876  0.0718 -0.4799
 6918SOL    HW221971   2.837   3.987   0.367 -0.3551 -4.4176  0.5705
 6919SOL     OW21972   2.105   4.523   0.911  0.1218  0.1203  0.0078
 6919SOL    HW121973   2.031   4.472   0.877  0.1133  0.2850 -0.2185
 6919SOL    HW221974   2.181   4.468   0.892 -0.0987 -0.9742  1.9772
 6920SOL     OW21975   1.791   5.573   1.437 -0.5133 -0.0730 -0.0192
 6920SOL    HW121976   1.796   5.536   1.525 -2.0591 -4.2113 -1.4147
 6920SOL    HW221977   1.876   5.553   1.398  0.2373  1.9164  0.4719
 6921SOL     OW21978   2.648   3.924   0.114 -0.6175 -0.4729  0.3288
 6921SOL    HW121979   2.723   3.948   0.060  0.0148 -0.9034  0.9962
 6921SOL    HW221980   2.576   3.912   0.052  0.5745 -3.0440 -0.6921
 6922SOL     OW21981   3.257   4.553   0.479 -0.5190 -0.4610  0.4216
 6922SOL    HW121982   3.271   4.630   0.423  0.0318 -0.9866 -0.1637
 6922SOL    HW221983   3.174   4.572   0.523 -0.8239  0.0895 -0.3590
 6923SOL     OW21984   2.403   4.134   0.779  0.6963  0.4229 -0.2399
 6923SOL    HW121985   2.429   4.050   0.817  1.9567  0.6369 -0.5827
 6923SOL    HW221986   2.340   4.111   0.710 -1.1979 -0.0041  1.5260
 6924SOL     OW21987   3.043   4.940   0.704 -0.4144  0.6019  0.1275
 6924SOL    HW121988   3.127   4.927   0.660  0.2332 -5.5189  2.2529
 6924SOL    HW221989   3.066   4.971   0.791 -0.3999 -0.2293  0.4258
 6925SOL     OW21990   2.087   5.558   1.213  0.2525 -0.0959  0.0840
 6925SOL    HW121991   2.090   5.646   1.177  0.4518 -0.2239 -0.2199
 6925SOL    HW221992   2.163   5.552   1.270  0.3688 -0.1434 -0.0735
 6926SOL     OW21993   3.645   4.926   1.159 -0.2436 -0.0267  0.3912
 6926SOL    HW121994   3.650   4.995   1.093  1.8131 -0.3481  0.1485
 6926SOL    HW221995   3.625   4.846   1.110 -0.1628 -0.0161  0.3413
 6927SOL     OW21996   2.972   5.166   1.760  0.2318 -0.4130 -0.0986
 6927SOL    HW121997   2.998   5.088   1.712 -0.8308 -0.4822 -0.5967
 6927SOL    HW221998   3.055   5.207   1.785  0.8026 -1.4110 -0.2869
 6928SOL     OW21999   1.799   4.808   0.617  0.1738  0.4024 -0.5683
 6928SOL    HW122000   1.798   4.880   0.554  1.1722  0.2165 -0.8183
 6928SOL    HW222001   1.707   4.785   0.629 -0.0047 -0.6932 -3.3070
 6929SOL     OW22002   3.252   4.543   1.075  0.5709  0.0788 -0.5782
 6929SOL    HW122003   3.266   4.460   1.122 -0.7456  1.0971  1.8160
 6929SOL    HW222004   3.291   4.609   1.132  2.9087  1.0664 -3.1350
 6930SOL     OW22005   2.021   5.170   2.071 -0.0087  0.1375 -0.1085
 6930SOL    HW122006   1.963   5.205   2.003 -0.2056  1.3185  0.6431
 6930SOL    HW222007   2.102   5.222   2.061  0.1870 -0.1142  0.1648
 6931SOL     OW22008   3.130   5.515   8.732  0.0245 -0.3629  0.3470
 6931SOL    HW122009   3.148   5.608   8.722  1.5717 -0.5918  0.8152
 6931SOL    HW222010   3.207   5.480   8.776 -0.6781 -1.8116  0.4778
 6932SOL     OW22011   2.291   3.934   1.855  0.9058  0.1302  0.3158
 6932SOL    HW122012   2.383   3.959   1.841  0.9889  0.0046  0.6220
 6932SOL    HW222013   2.265   3.983   1.933  0.7456  0.0757  0.2968
 6933SOL     OW22014   3.288   4.983   0.129 -0.8724  0.2683 -0.0220
 6933SOL    HW122015   3.229   5.052   0.160 -0.9791  0.3183 -0.3299
 6933SOL    HW222016   3.343   5.027   0.064 -0.7599  0.1256 -0.0235
 6934SOL     OW22017   2.604   5.268   0.550  0.1564  0.1431 -0.0059
 6934SOL    HW122018   2.659   5.193   0.527 -0.6677 -0.6005  0.3875
 6934SOL    HW222019   2.652   5.314   0.618  0.7130  0.0357 -0.3196
 6935SOL     OW22020   3.567   4.072   0.503  0.4587  0.7485 -0.1495
 6935SOL    HW122021   3.637   4.042   0.446 -1.2580 -0.3660 -1.7758
 6935SOL    HW222022   3.533   3.992   0.543  0.8343  1.3940  1.5664
 6936SOL     OW22023   2.295   5.997   1.585 -0.2816  0.0107  0.3615
 6936SOL    HW122024   2.337   6.071   1.629 -3.2229  2.0984 -0.0583
 6936SOL    HW222025   2.310   5.922   1.643  2.4673  0.9275  1.0005
 6937SOL     OW22026   3.008   5.434   1.162  0.2149  0.0524  0.3342
 6937SOL    HW122027   3.053   5.420   1.245  0.8611 -0.4874 -0.0952
 6937SOL    HW222028   2.987   5.346   1.131  0.8025  0.2070 -0.5186
 6938SOL     OW22029   2.126   4.839   0.342  0.4583  0.3751 -0.2395
 6938SOL    HW122030   2.034   4.862   0.334 -0.0630 -1.5147 -0.2097
 6938SOL    HW222031   2.138   4.819   0.435  0.6179 -0.4607 -0.4362
 6939SOL     OW22032   2.755   3.480   2.131  0.1438  0.1747  0.2533
 6939SOL    HW122033   2.789   3.483   2.042 -2.6559  0.9036 -0.8821
 6939SOL    HW222034   2.764   3.388   2.156 -1.2930 -0.5905 -1.7898
 6940SOL     OW22035   2.792   5.070   1.333 -0.1079  0.2491 -0.6137
 6940SOL    HW122036   2.738   5.148   1.316  0.5963  1.1337  1.0632
 6940SOL    HW222037   2.829   5.049   1.247 -0.8004  1.3716 -1.2278
 6941SOL     OW22038   2.923   4.195   1.791  0.2585  0.5174  0.2171
 6941SOL    HW122039   2.998   4.215   1.735  0.1015  0.5884  0.0325
 6941SOL    HW222040   2.878   4.123   1.746  0.2977  0.3772  0.4025
 6942SOL     OW22041   2.380   5.109   0.989 -0.0991  0.2867 -0.0030
 6942SOL    HW122042   2.344   5.023   1.015 -0.7923  0.6228  0.1855
 6942SOL    HW222043   2.328   5.134   0.913  0.3180  0.4004 -0.2523
 6943SOL     OW22044   3.010   4.242   0.893 -0.3112 -0.3224 -0.0906
 6943SOL    HW122045   3.102   4.262   0.873 -0.5821 -0.4325 -1.5563
 6943SOL    HW222046   3.010   4.219   0.986  1.1481 -0.3394 -0.0737
 6944SOL     OW22047   1.989   3.632   0.909 -0.0128 -0.0392 -0.1162
 6944SOL    HW122048   1.982   3.581   0.828 -1.3518 -0.5306  0.2776
 6944SOL    HW222049   2.082   3.652   0.917  0.0445  0.7551 -2.2075
 6945SOL     OW22050   3.490   4.843   8.679  0.2676 -0.1814 -0.3817
 6945SOL    HW122051   3.570   4.889   8.654  0.3157  0.2509  0.5269
 6945SOL    HW222052   3.509   4.807   8.766 -0.8295  0.7350  0.2814
 6946SOL     OW22053   2.754   3.559   0.393  0.3452 -0.4634 -0.1923
 6946SOL    HW122054   2.816   3.584   0.325  2.4389 -2.0572  1.0327
 6946SOL    HW222055   2.691   3.502   0.349  2.8196 -3.1433 -0.5417
 6947SOL     OW22056   2.643   4.831   1.730 -0.4216 -0.0784  0.1228
 6947SOL    HW122057   2.643   4.898   1.799  1.8491  1.4435 -1.2570
 6947SOL    HW222058   2.680   4.875   1.654  0.5338 -2.7224 -1.0359
 6948SOL     OW22059   2.925   5.180   1.062 -0.1652 -0.8643 -0.0592
 6948SOL    HW122060   2.860   5.170   0.992  1.2731 -0.5060 -1.5084
 6948SOL    HW222061   3.002   5.135   1.029  1.8933  2.6671 -0.5529
 6949SOL     OW22062   2.187   4.721   0.568 -0.2487  0.9341 -0.2064
 6949SOL    HW122063   2.282   4.714   0.558 -0.0048 -0.0652  2.2576
 6949SOL    HW222064   2.153   4.636   0.538 -0.7648  2.2007 -3.7729
 6950SOL     OW22065   3.295   4.944   0.642  0.1020 -0.0219  0.1074
 6950SOL    HW122066   3.341   4.989   0.712 -0.1811  0.4624 -0.0187
 6950SOL    HW222067   3.324   4.853   0.649  2.2160  0.5096 -0.8533
 6951SOL     OW22068   2.711   4.530   0.022 -0.3074  0.3176  0.3520
 6951SOL    HW122069   2.792   4.514  -0.026  0.0347 -0.0191  1.0235
 6951SOL    HW222070   2.739   4.580   0.099 -0.7481  0.2774  0.5419
 6952SOL     OW22071   2.218   4.903   1.339  0.3550  0.1044  0.6047
 6952SOL    HW122072   2.135   4.861   1.315 -0.4438  2.5485 -1.3154
 6952SOL    HW222073   2.213   4.913   1.434 -0.5990 -1.6066  0.7791
 6953SOL     OW22074   2.345   3.794   1.408 -0.1928 -0.5938  0.6951
 6953SOL    HW122075   2.406   3.739   1.457  0.4241  0.4959  1.1896
 6953SOL    HW222076   2.280   3.821   1.473  0.7699  1.0619  1.0104
 6954SOL     OW22077   2.901   3.976   0.722 -0.0616  0.0299 -0.2916
 6954SOL    HW122078   2.930   4.063   0.751 -0.6277  0.7180 -1.6460
 6954SOL    HW222079   2.882   3.988   0.629  0.3091 -1.6853 -0.6170
 6955SOL     OW22080   2.469   3.780   1.138  0.1827  0.4805 -0.3666
 6955SOL    HW122081   2.556   3.741   1.135 -0.3732 -0.7569 -1.2636
 6955SOL    HW222082   2.436   3.761   1.226  1.6289  2.9166  0.8136
 6956SOL     OW22083   3.121   5.022   0.951 -0.3730  0.7654 -0.3671
 6956SOL    HW122084   3.185   5.059   1.012 -1.2032  1.9104 -0.1644
 6956SOL    HW222085   3.136   4.927   0.956  1.0268  0.9748 -0.0360
 6957SOL     OW22086   3.659   4.549   0.632 -0.2351 -0.4510 -0.8394
 6957SOL    HW122087   3.739   4.548   0.684 -0.1111  0.8404 -0.9794
 6957SOL    HW222088   3.689   4.565   0.542 -0.7361  2.1993 -0.6135
 6958SOL     OW22089   3.908   4.361   0.311  0.3260  0.0509 -0.6410
 6958SOL    HW122090   3.890   4.267   0.306 -1.2332  0.2712  0.3633
 6958SOL    HW222091   3.923   4.387   0.220  1.1880 -1.2324 -0.8867
 6959SOL     OW22092   2.311   5.127   0.387  0.6908 -0.3169 -0.4908
 6959SOL    HW122093   2.283   5.055   0.331  1.2390 -0.4236 -0.6322
 6959SOL    HW222094   2.350   5.191   0.327 -2.3442  1.4659 -0.7909
 6960SOL     OW22095   3.790   4.592   0.405  0.3358 -0.5115 -0.1471
 6960SOL    HW122096   3.836   4.510   0.386  2.7606 -0.0503  2.9648
 6960SOL    HW222097   3.803   4.645   0.326 -1.0587 -2.8824 -2.1396
 6961SOL     OW22098   3.232   4.512   8.701  0.8797  0.5888  0.6860
 6961SOL    HW122099   3.315   4.555   8.680  0.6448  0.3545 -0.8388
 6961SOL    HW222100   3.197   4.561   8.775  2.7036  0.2432  1.8393
 6962SOL     OW22101   2.124   3.829   0.517 -0.3840  0.1597 -0.1120
 6962SOL    HW122102   2.191   3.777   0.561 -1.8431 -1.0330  0.7979
 6962SOL    HW222103   2.042   3.801   0.557 -1.3507  2.3240 -0.4649
 6963SOL     OW22104   3.943   5.116   1.693 -0.5311 -1.2377 -0.8756
 6963SOL    HW122105   4.016   5.176   1.678 -0.8407 -0.4709  0.5018
 6963SOL    HW222106   3.975   5.031   1.663  0.6349 -0.7643 -1.0160
 6964SOL     OW22107   2.534   4.854   1.395 -0.5238  0.0994  0.1191
 6964SOL    HW122108   2.591   4.869   1.319 -0.3945 -1.4251 -0.1090
 6964SOL    HW222109   2.517   4.942   1.430  1.1383  0.6638 -0.4073
 6965SOL     OW22110   3.686   5.670   2.018 -0.2028 -0.0564  0.0097
 6965SOL    HW122111   3.738   5.627   2.086 -0.7119  0.2393  0.5893
 6965SOL    HW222112   3.712   5.762   2.022 -0.6614  0.0676  0.2092
 6966SOL     OW22113   3.115   5.209   1.364  0.3567  0.1509  0.0901
 6966SOL    HW122114   3.136   5.241   1.452 -1.1009 -2.4642  1.5031
 6966SOL    HW222115   3.020   5.205   1.362  0.4191 -2.4966 -0.5060
 6967SOL     OW22116   3.241   4.924   1.342 -0.6089  0.8457  0.3700
 6967SOL    HW122117   3.261   4.921   1.436 -1.9994 -0.2826  0.6612
 6967SOL    HW222118   3.183   5.000   1.333  0.0709  1.3637  0.2957
 6968SOL     OW22119   2.836   4.187   1.393 -0.5138  0.0568 -0.3484
 6968SOL    HW122120   2.760   4.227   1.350 -1.3955 -1.0693  0.0913
 6968SOL    HW222121   2.891   4.261   1.419 -2.6570  1.1367  1.5310
 6969SOL     OW22122   2.580   4.841   2.420  0.2065  0.1294 -0.5933
 6969SOL    HW122123   2.610   4.787   2.493 -1.1405  1.5855  1.1313
 6969SOL    HW222124   2.658   4.888   2.390  0.7818 -0.5286 -0.1306
 6970SOL     OW22125   2.783   4.838   0.838 -0.8279  0.1545  0.0767
 6970SOL    HW122126   2.851   4.874   0.781 -0.6554 -1.0083 -0.4878
 6970SOL    HW222127   2.716   4.906   0.841 -0.0982  0.8981 -0.1905
 6971SOL     OW22128   2.289   4.451   1.294  0.5358  0.2788  0.5151
 6971SOL    HW122129   2.345   4.521   1.258 -0.2604  1.2527  1.1088
 6971SOL    HW222130   2.325   4.371   1.257 -0.6355  1.2124 -3.0556
 6972SOL     OW22131   3.099   4.502   1.721 -0.0037  0.8929  0.3327
 6972SOL    HW122132   3.186   4.489   1.760  1.7343 -2.3507 -3.8117
 6972SOL    HW222133   3.104   4.589   1.681  1.4434  0.6875  0.0122
 6973SOL     OW22134   2.043   5.333   1.584  0.0794 -0.1456 -0.1148
 6973SOL    HW122135   2.001   5.304   1.503  0.3117  1.1709 -0.7301
 6973SOL    HW222136   2.010   5.274   1.651 -3.5315  1.3685 -0.3600
 6974SOL     OW22137   1.892   4.348   0.874  0.4600  0.6303 -0.1844
 6974SOL    HW122138   1.928   4.259   0.879  0.8763  0.7172 -1.3129
 6974SOL    HW222139   1.864   4.357   0.783 -0.6496  1.2574  0.2091
 6975SOL     OW22140   2.027   4.105   0.830 -0.5362 -0.1822 -0.1965
 6975SOL    HW122141   1.956   4.050   0.798 -1.4936  0.9517 -0.0942
 6975SOL    HW222142   2.102   4.084   0.774 -0.7735 -1.7980  0.0567
 6976SOL     OW22143   3.172   5.111   0.378 -0.1879  0.3340 -0.8202
 6976SOL    HW122144   3.093   5.071   0.341  0.2769  0.6236 -2.1673
 6976SOL    HW222145   3.235   5.038   0.383 -0.1304  0.3746 -0.9540
 6977SOL     OW22146   3.105   5.514   1.408 -0.2111 -0.0836 -0.5923
 6977SOL    HW122147   3.178   5.473   1.455 -0.4991  1.5784  1.4627
 6977SOL    HW222148   3.123   5.608   1.413 -1.4149  0.2683 -1.9671
 6978SOL     OW22149   3.475   4.379   0.753  0.9527 -0.2620  0.2542
 6978SOL    HW122150   3.436   4.330   0.681  1.7153  0.6044 -0.7913
 6978SOL    HW222151   3.552   4.420   0.715  1.9899 -0.6182  1.8360
 6979SOL     OW22152   2.165   5.631   1.523 -0.3216 -0.1119  0.1545
 6979SOL    HW122153   2.242   5.602   1.573 -0.8743 -2.9984 -0.5149
 6979SOL    HW222154   2.098   5.565   1.543 -1.4114  0.1985 -2.2322
 6980SOL     OW22155   2.495   4.313   1.760 -0.0361 -0.3455 -0.2101
 6980SOL    HW122156   2.501   4.283   1.851 -1.0604 -1.2143 -0.4047
 6980SOL    HW222157   2.525   4.404   1.763  1.7898 -0.9391  0.6545
 6981SOL     OW22158   3.308   4.780   1.648 -0.1855  0.3945 -0.3173
 6981SOL    HW122159   3.360   4.759   1.726 -0.9923  0.2657  0.2038
 6981SOL    HW222160   3.318   4.704   1.592  2.5373  1.5456 -1.5625
 6982SOL     OW22161   2.922   3.758   1.575 -0.6929  0.5476  0.0219
 6982SOL    HW122162   2.993   3.705   1.610 -0.5068  0.6341 -0.2228
 6982SOL    HW222163   2.857   3.694   1.546  0.2181  0.3657 -1.7639
 6983SOL     OW22164   2.648   3.490   1.816 -0.1496  0.4217 -0.5904
 6983SOL    HW122165   2.637   3.523   1.726  1.3090  1.7922 -0.3191
 6983SOL    HW222166   2.740   3.507   1.836 -0.0496 -1.3158  0.6247
 6984SOL     OW22167   2.347   4.396   0.875 -0.0956 -0.3836  0.3530
 6984SOL    HW122168   2.371   4.309   0.843 -2.6933 -1.4945  1.1468
 6984SOL    HW222169   2.377   4.397   0.966 -0.6608 -0.7259  0.5463
 6985SOL     OW22170   3.088   4.760   0.981 -0.8497  0.0757  0.0868
 6985SOL    HW122171   3.149   4.688   0.996 -0.7901 -0.0594 -0.7734
 6985SOL    HW222172   3.049   4.776   1.067  0.0113 -0.1789  0.5408
 6986SOL     OW22173   3.226   4.184   0.156  0.3053  0.4250 -0.4611
 6986SOL    HW122174   3.204   4.170   0.063 -0.3573 -1.3072 -0.0868
 6986SOL    HW222175   3.222   4.279   0.168 -0.6445  0.6060 -1.9540
 6987SOL     OW22176   2.146   4.111   1.503  0.1416 -0.2503  0.1855
 6987SOL    HW122177   2.145   4.174   1.575  0.3508  1.2860 -1.1151
 6987SOL    HW222178   2.053   4.100   1.480  0.1647  0.3517 -0.2174
 6988SOL     OW22179   1.439   5.110   1.318 -0.0929 -0.2803 -0.1858
 6988SOL    HW122180   1.519   5.062   1.296  1.0335  1.7705 -0.9153
 6988SOL    HW222181   1.371   5.069   1.266  0.7774 -1.1536 -0.6699
 6989SOL     OW22182   2.349   3.684   0.615 -0.3001  0.3054 -0.4150
 6989SOL    HW122183   2.427   3.731   0.584 -0.2084  0.8326  0.5898
 6989SOL    HW222184   2.376   3.646   0.699 -1.2984  0.9991  0.2319
 6990SOL     OW22185   1.907   3.812   1.113 -0.7978 -0.2959  0.9228
 6990SOL    HW122186   1.931   3.754   1.040  0.7021  0.3309  0.8909
 6990SOL    HW222187   1.955   3.777   1.188 -0.9550  0.1157  1.2179
 6991SOL     OW22188   3.516   4.182   0.268  0.3322  0.0490 -0.9043
 6991SOL    HW122189   3.522   4.157   0.361  0.6322 -0.4935 -1.0629
 6991SOL    HW222190   3.428   4.154   0.242  0.5040 -0.4561 -0.9626
 6992SOL     OW22191   3.205   4.458   0.820  0.7115  0.0597  0.6920
 6992SOL    HW122192   3.292   4.432   0.790  0.9025  0.3286  1.0037
 6992SOL    HW222193   3.220   4.494   0.907  0.4558  1.1691  0.2903
 6993SOL     OW22194   2.932   5.304   2.072  0.6629 -0.1415  0.0587
 6993SOL    HW122195   2.930   5.321   1.978  2.7818 -0.4673 -0.0815
 6993SOL    HW222196   2.914   5.210   2.079 -0.8214  0.1269  0.1005
 6994SOL     OW22197   4.114   4.982   1.355 -0.2428 -0.5799  0.6612
 6994SOL    HW122198   4.081   4.964   1.443 -2.0576  0.8306  0.3410
 6994SOL    HW222199   4.044   4.951   1.297 -0.4565  1.2517 -0.1298
 6995SOL     OW22200   2.101   4.734   1.925  0.4043 -0.2403 -0.1008
 6995SOL    HW122201   2.181   4.749   1.873 -0.5174  0.9830 -1.2167
 6995SOL    HW222202   2.130   4.739   2.016  1.8142 -1.0684 -0.4660
 6996SOL     OW22203   3.663   4.198   0.033  0.1204  0.7062 -0.3269
 6996SOL    HW122204   3.636   4.121  -0.017 -0.5991  1.0844 -0.5404
 6996SOL    HW222205   3.616   4.192   0.115  1.4407 -0.0059  0.4040
 6997SOL     OW22206   3.458   4.805   8.251 -0.0444 -0.5364 -0.0991
 6997SOL    HW122207   3.384   4.785   8.194  0.8207 -1.0613 -1.0815
 6997SOL    HW222208   3.535   4.781   8.199  0.7715 -1.6555  1.5381
 6998SOL     OW22209   2.657   5.054   0.901  0.0497  0.2194 -0.5272
 6998SOL    HW122210   2.698   5.130   0.859 -0.9964  0.7887 -0.5347
 6998SOL    HW222211   2.572   5.085   0.930 -0.0285 -0.7085  0.2977
 6999SOL     OW22212   2.309   4.703   0.923 -0.0717  0.0640 -0.3916
 6999SOL    HW122213   2.350   4.695   1.010  1.2212  1.4009 -0.8531
 6999SOL    HW222214   2.237   4.639   0.925  1.9354 -2.3191  0.5018
 7000SOL     OW22215   2.034   4.129   1.098 -0.3207 -0.9026  0.5803
 7000SOL    HW122216   2.124   4.108   1.125  0.1549  1.1359  0.7610
 7000SOL    HW222217   2.032   4.106   1.005  0.0194 -1.9815  0.8121
 7001SOL     OW22218   2.913   4.059   2.251  0.2150 -0.1194  0.1823
 7001SOL    HW122219   2.949   4.018   2.329 -1.4764 -1.5269  0.2769
 7001SOL    HW222220   2.975   4.129   2.230  0.5600  0.5222  2.9420
 7002SOL     OW22221   3.021   4.399   1.464  0.3571  0.3554  0.3862
 7002SOL    HW122222   3.101   4.347   1.472  0.1053  0.0189  0.7343
 7002SOL    HW222223   3.006   4.434   1.552 -0.2375 -0.1230  0.4816
 7003SOL     OW22224   1.870   5.403   1.134 -0.9628  0.1841  0.0606
 7003SOL    HW122225   1.830   5.391   1.220 -1.6178  0.6194 -0.1713
 7003SOL    HW222226   1.947   5.457   1.150  0.0665 -1.3919  0.6410
 7004SOL     OW22227   2.807   5.270   0.788  0.0468  0.0462 -0.4314
 7004SOL    HW122228   2.821   5.361   0.815 -0.0053 -0.1175  0.1648
 7004SOL    HW222229   2.866   5.258   0.713 -0.5115  0.7896 -1.0108
 7005SOL     OW22230   2.932   4.591   1.283  0.0202  0.1666 -0.1407
 7005SOL    HW122231   2.974   4.516   1.325 -3.3982 -0.7910  1.9316
 7005SOL    HW222232   2.888   4.553   1.206 -0.2275  0.3806 -0.1053
 7006SOL     OW22233   1.552   4.415   0.683  0.1986  0.1743 -0.2569
 7006SOL    HW122234   1.506   4.361   0.747 -2.6962 -0.7617 -2.8713
 7006SOL    HW222235   1.511   4.501   0.691 -1.2760 -0.3269 -1.7051
 7007SOL     OW22236   2.298   4.296   1.990  0.1146  0.2550 -0.3968
 7007SOL    HW122237   2.387   4.273   2.016  0.2597  1.9798  0.8143
 7007SOL    HW222238   2.291   4.390   2.006 -1.8781  0.2079 -0.6357
 7008SOL     OW22239   2.946   4.695   1.537  0.1067  0.1601  0.3370
 7008SOL    HW122240   2.976   4.653   1.456 -1.2867  2.4731 -1.4950
 7008SOL    HW222241   2.852   4.681   1.538 -0.2945  2.4622  0.0552
 7009SOL     OW22242   2.519   3.964   0.399 -0.8917 -0.0053  0.1618
 7009SOL    HW122243   2.592   3.961   0.338  0.1167  1.2971  1.2378
 7009SOL    HW222244   2.443   3.940   0.347 -0.0922  1.1710 -1.6327
 7010SOL     OW22245   3.440   4.392   1.639 -0.2087  0.3376  0.3989
 7010SOL    HW122246   3.515   4.447   1.658 -0.6609  0.7966  0.9086
 7010SOL    HW222247   3.403   4.372   1.726 -1.5473  1.3759  0.0984
 7011SOL     OW22248   2.188   5.044   1.871  0.2245  0.0438 -0.1604
 7011SOL    HW122249   2.106   5.031   1.919 -0.1084  0.0562 -0.7121
 7011SOL    HW222250   2.257   5.033   1.937 -0.2396  0.6487  0.4404
 7012SOL     OW22251   2.575   4.280   1.329  0.0938 -0.8134  0.4700
 7012SOL    HW122252   2.588   4.368   1.365 -1.7737  0.3824 -1.5562
 7012SOL    HW222253   2.520   4.235   1.393 -1.9808  0.7861 -0.0988
 7013SOL     OW22254   2.870   5.392   1.471  0.0429  0.2803 -0.5630
 7013SOL    HW122255   2.958   5.429   1.465  0.1941  0.0684  0.2213
 7013SOL    HW222256   2.848   5.397   1.564  0.0097 -1.4650 -0.4390
 7014SOL     OW22257   1.678   3.712   0.381 -0.0409 -0.1724  0.0546
 7014SOL    HW122258   1.723   3.643   0.333 -2.2976 -1.9727  0.3662
 7014SOL    HW222259   1.709   3.793   0.340  1.2178 -1.4464 -1.6596
 7015SOL     OW22260   1.714   4.885   1.529 -0.0975 -0.2541 -0.8655
 7015SOL    HW122261   1.804   4.917   1.517 -0.1885  0.7345  0.7776
 7015SOL    HW222262   1.725   4.795   1.558  0.3542 -0.2320 -0.9513
 7016SOL     OW22263   2.777   4.987   1.573 -0.3757  0.1171 -0.3526
 7016SOL    HW122264   2.767   5.010   1.481 -0.6500  2.5064  0.1978
 7016SOL    HW222265   2.869   5.004   1.592  0.1335 -2.1143 -0.5551
 7017SOL     OW22266   2.743   4.611   0.298  0.3900  0.4247  0.8378
 7017SOL    HW122267   2.826   4.568   0.317  0.1064  0.5225  2.4540
 7017SOL    HW222268   2.714   4.645   0.383 -1.5559 -0.0835  0.4239
 7018SOL     OW22269   3.662   5.848   1.287  0.8201 -0.0052  0.2555
 7018SOL    HW122270   3.620   5.854   1.372  0.6184  0.2358  0.1392
 7018SOL    HW222271   3.738   5.906   1.293  1.3672 -0.7551  0.6010
 7019SOL     OW22272   3.269   5.167   1.123 -0.0387  0.2774 -0.2894
 7019SOL    HW122273   3.237   5.199   1.208 -0.1465  1.7169 -0.8513
 7019SOL    HW222274   3.362   5.190   1.123  0.2209 -0.7410 -0.1082
 7020SOL     OW22275   2.151   4.966   1.019  0.1504  0.7026  0.2953
 7020SOL    HW122276   2.124   4.935   0.932  0.8852  1.8940 -0.3953
 7020SOL    HW222277   2.125   4.897   1.079 -0.5319 -0.0751 -0.8601
 7021SOL     OW22278   2.814   5.433   1.753 -0.5301 -0.0528 -0.4200
 7021SOL    HW122279   2.797   5.339   1.744 -0.6540 -0.2837  1.6714
 7021SOL    HW222280   2.904   5.438   1.786 -0.3571  0.5958 -0.9810
 7022SOL     OW22281   2.784   4.063   8.754  0.2378  0.4849  0.1142
 7022SOL    HW122282   2.754   4.154   8.753  1.7961  1.0960  2.1255
 7022SOL    HW222283   2.817   4.048   8.665 -1.2997  1.3777 -0.6605
 7023SOL     OW22284   3.132   3.965   0.277  0.1127 -0.5028 -0.4667
 7023SOL    HW122285   3.090   3.919   0.205 -0.1964 -2.4761  0.8803
 7023SOL    HW222286   3.173   4.041   0.237 -2.8295  0.3274 -2.1960
 7024SOL     OW22287   3.483   5.486   0.691  0.1679  0.2848  0.6635
 7024SOL    HW122288   3.489   5.522   0.603 -0.2383 -0.6622  0.2303
 7024SOL    HW222289   3.569   5.504   0.730 -0.1788  2.1487  0.6743
 7025SOL     OW22290   2.033   5.516   1.909 -0.5095  0.5188  0.4792
 7025SOL    HW122291   1.989   5.547   1.830 -0.4874 -0.4184  0.0937
 7025SOL    HW222292   2.043   5.595   1.963 -0.4634  1.1810 -0.4742
 7026SOL     OW22293   3.062   4.649   0.649  0.2045 -0.0715 -0.4040
 7026SOL    HW122294   3.058   4.733   0.696 -0.1780 -0.3925  0.1530
 7026SOL    HW222295   3.102   4.589   0.712  1.6123 -0.0302 -1.2336
 7027SOL     OW22296   2.380   4.705   1.201  0.4029  0.1713  0.5835
 7027SOL    HW122297   2.342   4.772   1.257 -0.4630  0.5134 -0.3648
 7027SOL    HW222298   2.457   4.747   1.163  2.2711 -0.7756  3.0898
 7028SOL     OW22299   2.985   5.119   0.084 -0.0734 -0.2508 -0.3150
 7028SOL    HW122300   2.917   5.096   0.020  0.7575 -0.7900 -1.0143
 7028SOL    HW222301   2.989   5.043   0.142 -0.4739  0.0281  0.0824
 7029SOL     OW22302   3.464   6.030   1.852  0.5362  0.3777  0.2811
 7029SOL    HW122303   3.472   5.937   1.874  0.4052  0.2610 -0.1658
 7029SOL    HW222304   3.540   6.071   1.893  0.6769  0.0510  0.3491
 7030SOL     OW22305   3.897   3.965   1.105  0.4243 -0.2537  0.0614
 7030SOL    HW122306   3.962   3.950   1.174 -0.3573  0.8991  1.0748
 7030SOL    HW222307   3.844   3.885   1.105  1.2859 -0.8445 -0.1863
 7031SOL     OW22308   1.840   3.933   0.756  0.0130 -0.5992 -0.1765
 7031SOL    HW122309   1.750   3.963   0.740  0.1137 -0.0066  0.3214
 7031SOL    HW222310   1.852   3.861   0.695  0.3176  1.4129 -2.6508
 7032SOL     OW22311   2.882   4.730   8.571 -0.0182 -0.1058 -0.1915
 7032SOL    HW122312   2.935   4.671   8.518  0.3802  1.0828 -1.1508
 7032SOL    HW222313   2.945   4.788   8.614 -0.3570 -0.7970  1.3110
 7033SOL     OW22314   2.718   4.468   1.151 -0.1073  0.6632  0.5959
 7033SOL    HW122315   2.723   4.379   1.116 -0.8257  0.8959 -0.1147
 7033SOL    HW222316   2.712   4.524   1.074 -1.7246  1.1906  1.0752
 7034SOL     OW22317   2.954   4.528   0.429  0.3562  0.5014  0.3523
 7034SOL    HW122318   2.974   4.455   0.488  2.7416  1.0708  0.3384
 7034SOL    HW222319   2.959   4.606   0.485 -2.6925  0.7040  0.4900
 7035SOL     OW22320   3.634   5.298   0.227 -0.1694 -0.0534 -0.2694
 7035SOL    HW122321   3.679   5.250   0.157  0.7189  0.0864  0.1967
 7035SOL    HW222322   3.669   5.387   0.221 -0.7928  0.2029 -0.2387
 7036SOL     OW22323   2.242   4.941   1.629  0.7368 -0.6059 -0.9354
 7036SOL    HW122324   2.226   5.006   1.698 -2.8576 -0.6698 -1.5131
 7036SOL    HW222325   2.275   4.864   1.675 -1.1130 -0.4768  0.7353
 7037SOL     OW22326   3.404   5.054   1.568 -0.5688  0.3987 -0.3530
 7037SOL    HW122327   3.488   5.020   1.599 -0.7175  0.1154 -0.2636
 7037SOL    HW222328   3.340   5.021   1.631 -0.9928 -0.8992 -1.4196
 7038SOL     OW22329   2.765   4.579   0.894 -0.3337 -0.3665  0.1952
 7038SOL    HW122330   2.752   4.671   0.873 -1.7521 -0.8715 -1.4029
 7038SOL    HW222331   2.850   4.558   0.857  0.5064  0.5372  1.5433
 7039SOL     OW22332   2.739   4.242   0.971  0.0591  0.3272  0.0453
 7039SOL    HW122333   2.708   4.153   0.953  0.2566  0.2922 -0.1234
 7039SOL    HW222334   2.834   4.237   0.962  0.0305  0.6876 -0.5611
 7040SOL     OW22335   2.726   4.928   0.315  0.2911  0.4698  0.0807
 7040SOL    HW122336   2.672   4.869   0.367  1.3845  0.7427  1.5826
 7040SOL    HW222337   2.688   5.015   0.330  0.2926  0.4863 -0.0082
 7041SOL     OW22338   2.494   4.977   0.586  0.2114  0.0589 -0.1655
 7041SOL    HW122339   2.466   4.898   0.632  1.5001 -1.1875 -1.4646
 7041SOL    HW222340   2.589   4.972   0.584  0.4488  2.4401  1.0387
 7042SOL     OW22341   2.008   4.562   1.679  0.1518  0.0246  0.1972
 7042SOL    HW122342   2.078   4.545   1.617  0.9211  1.8245  0.5105
 7042SOL    HW222343   2.052   4.595   1.757 -0.9669  0.1648  0.7994
 7043SOL     OW22344   2.560   3.975   1.799 -0.8653  0.1486 -0.2137
 7043SOL    HW122345   2.602   4.011   1.877 -0.4564  0.0551 -0.3848
 7043SOL    HW222346   2.627   3.983   1.730 -0.4519 -1.6260 -0.0829
 7044SOL     OW22347   1.903   4.276   0.062  0.2432  0.4951 -0.7646
 7044SOL    HW122348   1.941   4.285  -0.026  0.9629 -3.8538 -1.1139
 7044SOL    HW222349   1.962   4.216   0.108 -0.9519  1.4264  2.2286
 7045SOL     OW22350   3.037   4.922   1.651  0.1244  0.0926  0.1030
 7045SOL    HW122351   3.026   4.835   1.613  2.9556 -0.8359  1.1448
 7045SOL    HW222352   3.070   4.906   1.739 -1.5808  2.2359  1.2222
 7046SOL     OW22353   1.813   3.516   0.226 -0.1784 -0.4782  0.1130
 7046SOL    HW122354   1.809   3.432   0.181 -1.7929 -1.2241  1.4929
 7046SOL    HW222355   1.774   3.579   0.165  0.2913 -0.8752 -0.6068
 7047SOL     OW22356   3.347   4.758   0.336  0.0361  0.5208 -0.0491
 7047SOL    HW122357   3.432   4.795   0.359  0.0083  0.7112 -0.2492
 7047SOL    HW222358   3.315   4.813   0.264 -1.4720  2.2274  1.7772
 7048SOL     OW22359   2.407   4.258   1.112  0.0796  0.4044  0.0719
 7048SOL    HW122360   2.492   4.242   1.153 -0.2934 -0.1418  0.6550
 7048SOL    HW222361   2.354   4.183   1.138 -0.5564  0.6982 -0.3607
 7049SOL     OW22362   3.702   5.588   0.813  1.0235  0.4685  0.1697
 7049SOL    HW122363   3.736   5.594   0.902  0.3543 -0.1083  0.4747
 7049SOL    HW222364   3.691   5.679   0.785  3.1503  0.6836 -0.0864
 7050SOL     OW22365   2.774   4.033   1.628 -0.1250 -0.1087 -0.3739
 7050SOL    HW122366   2.794   4.088   1.552  1.5501 -0.2260 -0.0590
 7050SOL    HW222367   2.774   3.944   1.593  1.1903 -0.2100 -0.1767
 7051SOL     OW22368   3.343   5.005   1.862 -0.2256  0.0908  0.3059
 7051SOL    HW122369   3.261   4.965   1.889 -1.2265  2.9011  1.8572
 7051SOL    HW222370   3.408   4.972   1.924  0.1421 -2.7814 -1.4169
 7052SOL     OW22371   2.358   5.558   1.715  0.0905  0.3667  0.0420
 7052SOL    HW122372   2.452   5.571   1.697  0.7006 -1.4284  1.5815
 7052SOL    HW222373   2.351   5.465   1.736 -1.9135  0.6388  0.7311
 7053SOL     OW22374   2.958   4.859   1.256  0.1516 -0.7455 -0.4114
 7053SOL    HW122375   2.979   4.895   1.342 -1.0762 -0.1974 -0.3135
 7053SOL    HW222376   2.946   4.765   1.271 -1.3316 -0.4756  0.3082
 7054SOL     OW22377   3.360   4.192   0.937 -0.1780  0.2825  0.0988
 7054SOL    HW122378   3.376   4.107   0.897 -0.0439  0.7926 -0.9647
 7054SOL    HW222379   3.432   4.247   0.906  0.8261  0.3158  2.2972
 7055SOL     OW22380   1.950   4.543   0.516  0.1386 -0.0993 -0.0813
 7055SOL    HW122381   1.916   4.555   0.427 -0.6076 -0.3023  0.1661
 7055SOL    HW222382   1.905   4.609   0.569 -0.4301 -0.8475  0.3902
 7056SOL     OW22383   3.366   4.593   1.446 -0.3206 -0.1073  0.1490
 7056SOL    HW122384   3.404   4.506   1.435  2.4950  1.1583 -1.0452
 7056SOL    HW222385   3.371   4.632   1.359 -0.3130  1.6853  0.9166
 7057SOL     OW22386   3.061   4.975   8.652  0.5056 -0.8776  0.0528
 7057SOL    HW122387   3.056   4.995   8.746  1.2777  1.1220 -0.2801
 7057SOL    HW222388   3.151   4.997   8.627 -0.4342  1.3416 -1.6799
 7058SOL     OW22389   2.905   5.985   0.534  0.1929 -0.0557  0.1217
 7058SOL    HW122390   2.853   5.980   0.614  0.3920  1.0251  0.3423
 7058SOL    HW222391   2.949   5.901   0.528  0.2714 -0.1038  1.2191
 7059SOL     OW22392   2.674   4.298   0.667 -0.3207  0.1294  0.0097
 7059SOL    HW122393   2.701   4.349   0.743  2.7752 -1.5184  0.1808
 7059SOL    HW222394   2.616   4.231   0.701 -1.2762  1.1060  0.3820
 7060SOL     OW22395   3.213   4.693   0.030  0.7567 -0.6370  0.1842
 7060SOL    HW122396   3.171   4.770   0.068  0.1059 -1.1912  0.6044
 7060SOL    HW222397   3.298   4.725  -0.001  0.8501  0.0707  1.1125
 7061SOL     OW22398   3.787   5.649   1.067  0.0936 -0.0405 -0.2129
 7061SOL    HW122399   3.835   5.582   1.115  1.2999  0.6891 -0.3673
 7061SOL    HW222400   3.761   5.712   1.134  0.0304 -0.0334 -0.2440
 7062SOL     OW22401   1.587   5.325   1.950  0.3715  0.1815 -0.4805
 7062SOL    HW122402   1.530   5.248   1.949 -0.1094  0.4593  1.7460
 7062SOL    HW222403   1.573   5.367   1.865 -1.8607 -0.4032 -0.4366
 7063SOL     OW22404   2.462   4.717   0.676 -0.4235  0.0405  0.0878
 7063SOL    HW122405   2.440   4.726   0.769 -1.6796  1.0133 -0.2703
 7063SOL    HW222406   2.418   4.638   0.648 -0.2314 -0.1298  0.2625
 7064SOL     OW22407   2.631   4.568   1.409  0.8522  0.0760 -0.2614
 7064SOL    HW122408   2.609   4.659   1.394 -0.2476 -0.3959 -1.7645
 7064SOL    HW222409   2.649   4.533   1.322  2.9643 -0.7602  0.4316
 7065SOL     OW22410   2.202   4.087   0.577 -0.5254 -1.5393 -0.0015
 7065SOL    HW122411   2.145   4.163   0.579 -0.0638 -1.1814  2.8053
 7065SOL    HW222412   2.154   4.022   0.525 -0.9213  0.5557 -2.4693
 7066SOL     OW22413   3.439   5.397   1.255  0.5149 -0.0439  0.1465
 7066SOL    HW122414   3.436   5.459   1.328  1.8457  1.8160 -1.2916
 7066SOL    HW222415   3.451   5.312   1.297  0.4980  0.8609  2.1183
 7067SOL     OW22416   2.269   4.041   1.224 -0.4033  0.0762 -0.3976
 7067SOL    HW122417   2.285   3.951   1.195  1.9557  0.2127  0.2853
 7067SOL    HW222418   2.286   4.040   1.318 -1.1857  1.0640 -0.2262
 7068SOL     OW22419   2.631   5.539   0.684 -0.1665 -0.4809  0.4091
 7068SOL    HW122420   2.723   5.536   0.711 -0.2728 -0.7140  0.7442
 7068SOL    HW222421   2.597   5.618   0.725 -0.1589 -0.4794  0.4124
 7069SOL     OW22422   3.271   4.281   1.453 -0.4309 -0.5167  0.2039
 7069SOL    HW122423   3.330   4.334   1.507 -1.4706  0.9236 -0.0135
 7069SOL    HW222424   3.279   4.318   1.365 -1.8756 -0.0779  0.2337
 7070SOL     OW22425   2.144   3.828   1.590 -0.2489 -0.3337  0.7251
 7070SOL    HW122426   2.056   3.811   1.625 -0.3269  0.7177  1.0646
 7070SOL    HW222427   2.179   3.897   1.646  0.3518  0.0702 -0.1252
 7071SOL     OW22428   2.978   4.910   0.270 -0.4341  0.2528  0.5346
 7071SOL    HW122429   2.999   4.820   0.293 -1.1877  0.1315  0.7612
 7071SOL    HW222430   2.884   4.918   0.285 -0.4525  0.9550  0.1034
 7072SOL     OW22431   2.562   5.205   1.224  0.0692 -0.1859 -0.7213
 7072SOL    HW122432   2.497   5.220   1.155 -0.2290 -0.6062 -0.5392
 7072SOL    HW222433   2.510   5.179   1.300  0.3052  1.3652  0.0061
 7073SOL     OW22434   3.581   3.953   8.795  0.7526 -0.0847 -0.1930
 7073SOL    HW122435   3.539   3.911   8.719  2.0925  0.4841 -1.2905
 7073SOL    HW222436   3.582   3.885   8.862 -0.3735 -0.6409 -0.7068
 7074SOL     OW22437   3.259   4.251   0.500 -0.2264  0.1074 -0.4330
 7074SOL    HW122438   3.164   4.250   0.512 -0.6336  1.5233 -2.8648
 7074SOL    HW222439   3.279   4.341   0.478  1.3177 -0.6597 -2.3996
 7075SOL     OW22440   3.606   4.045   1.175 -0.4909  0.0315  0.6000
 7075SOL    HW122441   3.670   4.109   1.145 -1.4323  0.3409 -0.8958
 7075SOL    HW222442   3.635   3.962   1.136 -0.8510  0.1333  0.0930
 7076SOL     OW22443   1.962   5.243   0.892 -0.4908  0.0494  0.3706
 7076SOL    HW122444   1.871   5.249   0.861 -0.5447 -0.3024  0.4593
 7076SOL    HW222445   1.966   5.305   0.965 -0.6486  0.0893  0.3471
 7077SOL     OW22446   3.002   5.260   0.541  0.5049 -0.8267  0.2574
 7077SOL    HW122447   3.047   5.338   0.574  0.1052  0.9179 -2.8801
 7077SOL    HW222448   3.069   5.213   0.492  0.3136 -1.5380  0.6656
 7078SOL     OW22449   2.048   3.861   2.325 -0.0111  0.0612  0.8170
 7078SOL    HW122450   1.986   3.873   2.397  1.3870  1.1632  1.9184
 7078SOL    HW222451   2.128   3.830   2.368  0.7161  0.2719 -0.3380
 7079SOL     OW22452   2.616   3.660   2.919  0.5193 -0.5279 -0.5312
 7079SOL    HW122453   2.603   3.714   2.996 -1.6553 -0.8645 -0.5962
 7079SOL    HW222454   2.701   3.618   2.933  0.8763  0.6027  0.9179
 7080SOL     OW22455   1.905   3.890   2.553 -0.0686  0.5029 -0.2294
 7080SOL    HW122456   1.812   3.906   2.539 -0.4249 -1.3182 -0.2142
 7080SOL    HW222457   1.907   3.813   2.610  1.4462  0.8741  0.2578
 7081SOL     OW22458   2.525   5.361   2.898  0.4518 -0.0748  0.5862
 7081SOL    HW122459   2.523   5.435   2.838  0.5160  1.6092  2.5493
 7081SOL    HW222460   2.434   5.352   2.927  0.1906 -1.6578 -0.6181
 7082SOL     OW22461   3.278   5.331   2.549 -0.3014 -0.6055  0.2475
 7082SOL    HW122462   3.351   5.269   2.539 -0.3609 -0.2720 -4.5450
 7082SOL    HW222463   3.320   5.415   2.565  0.0164 -1.0001  1.7361
 7083SOL     OW22464   3.364   4.234   2.992 -0.3683  0.5025 -0.0526
 7083SOL    HW122465   3.375   4.302   2.925 -1.1094 -1.2219 -2.0312
 7083SOL    HW222466   3.423   4.164   2.965 -0.8918 -0.3451  0.9500
 7084SOL     OW22467   3.528   4.143   2.041  0.3771 -0.0380 -0.0795
 7084SOL    HW122468   3.576   4.112   1.964 -0.6130  0.1512 -0.7955
 7084SOL    HW222469   3.586   4.207   2.082  1.1475 -0.5509 -0.3488
 7085SOL     OW22470   2.722   4.864   3.068 -0.3972  0.4649  0.2970
 7085SOL    HW122471   2.787   4.827   3.128 -0.5824 -0.0382  0.1958
 7085SOL    HW222472   2.708   4.795   3.003  1.2647  1.6942 -1.4842
 7086SOL     OW22473   2.846   4.957   3.583 -0.4139  0.6740 -0.1920
 7086SOL    HW122474   2.879   5.008   3.509 -0.3377  1.3467  0.2997
 7086SOL    HW222475   2.774   4.906   3.546 -1.4849  2.2503 -0.3932
 7087SOL     OW22476   2.758   4.406   3.147  0.1196 -0.3479  0.4243
 7087SOL    HW122477   2.796   4.349   3.214  1.4250 -1.6733 -1.3283
 7087SOL    HW222478   2.831   4.425   3.088 -0.9678  0.8070 -0.6100
 7088SOL     OW22479   2.632   4.646   3.680 -0.1861  0.1725  0.1969
 7088SOL    HW122480   2.590   4.674   3.598  0.1365  0.9266  0.2816
 7088SOL    HW222481   2.699   4.584   3.652  0.2525  0.7934 -0.1707
 7089SOL     OW22482   2.036   5.280   2.592 -0.3328  0.5718 -0.0413
 7089SOL    HW122483   2.101   5.261   2.659 -0.2323  2.9079  0.5989
 7089SOL    HW222484   2.086   5.294   2.512  0.0238  2.3175  0.4391
 7090SOL     OW22485   3.928   5.081   2.941 -0.1278 -0.3192  0.1628
 7090SOL    HW122486   3.969   5.162   2.969  0.7340 -1.4698  2.5005
 7090SOL    HW222487   3.994   5.013   2.958 -0.5537 -1.4806 -2.3580
 7091SOL     OW22488   2.496   4.132   3.885 -0.4259  0.3409 -0.0855
 7091SOL    HW122489   2.551   4.132   3.807 -1.7298  0.5479 -1.0480
 7091SOL    HW222490   2.529   4.205   3.938  1.4300 -0.7386  0.2910
 7092SOL     OW22491   2.168   5.551   2.229  0.1588 -0.4400 -0.1450
 7092SOL    HW122492   2.151   5.558   2.322  0.6339  1.6995 -0.1741
 7092SOL    HW222493   2.125   5.627   2.190 -0.8935 -1.8231 -1.8280
 7093SOL     OW22494   3.185   4.920   3.624 -0.1207 -0.2321 -0.3462
 7093SOL    HW122495   3.279   4.913   3.607 -0.2223 -0.1369 -0.9784
 7093SOL    HW222496   3.144   4.869   3.554 -0.4914 -1.7577  0.9206
 7094SOL     OW22497   1.627   5.318   2.219 -0.8409  0.6974  0.9327
 7094SOL    HW122498   1.630   5.223   2.223  2.5873  0.5655 -0.9456
 7094SOL    HW222499   1.610   5.338   2.127  0.1040  1.8614  0.9841
 7095SOL     OW22500   2.479   4.535   2.403  0.2299  0.0560 -0.8395
 7095SOL    HW122501   2.387   4.541   2.428  0.0298  0.7821 -1.6715
 7095SOL    HW222502   2.493   4.443   2.382 -0.5852  0.1096 -1.6788
 7096SOL     OW22503   2.204   5.391   3.195  0.1691 -0.2657  0.3899
 7096SOL    HW122504   2.243   5.335   3.262 -3.5935 -1.1201  2.1348
 7096SOL    HW222505   2.209   5.479   3.231 -0.2679 -0.4901  1.0190
 7097SOL     OW22506   2.244   4.881   2.433  0.4914  0.2238  0.2438
 7097SOL    HW122507   2.202   4.962   2.404  0.0531  0.5447  1.6912
 7097SOL    HW222508   2.336   4.904   2.442  0.2632  0.7838  1.3175
 7098SOL     OW22509   2.557   3.886   2.732  0.0147  0.1252  0.5063
 7098SOL    HW122510   2.589   3.819   2.793 -1.2335  0.0668  1.1222
 7098SOL    HW222511   2.628   3.896   2.668  0.4905 -1.3158  0.7757
 7099SOL     OW22512   3.572   5.777   2.457  0.1490  0.0411  0.3470
 7099SOL    HW122513   3.612   5.796   2.542 -2.4467 -0.3315  1.7392
 7099SOL    HW222514   3.629   5.709   2.420  1.8504  0.8411  1.3294
 7100SOL     OW22515   2.222   5.362   2.040 -0.4145  0.0150 -0.5463
 7100SOL    HW122516   2.190   5.410   2.116  2.7417  1.4778  0.0366
 7100SOL    HW222517   2.191   5.413   1.965  1.7637  2.4829  0.0335
 7101SOL     OW22518   2.393   4.203   3.367 -0.1015 -0.3667 -0.6183
 7101SOL    HW122519   2.359   4.282   3.409  0.0560 -1.4229  1.6323
 7101SOL    HW222520   2.486   4.201   3.392 -0.9927 -3.5304  3.3762
 7102SOL     OW22521   2.622   4.848   2.749 -0.2563  0.0401 -0.2669
 7102SOL    HW122522   2.717   4.842   2.758 -0.0715  1.3912 -0.9230
 7102SOL    HW222523   2.595   4.764   2.714  0.9789  0.3112 -1.9874
 7103SOL     OW22524   2.929   5.070   3.318 -0.3313 -0.2290 -0.6149
 7103SOL    HW122525   3.024   5.058   3.309 -0.5336 -1.1345 -1.6444
 7103SOL    HW222526   2.891   5.018   3.247 -1.5055  2.0315 -1.7534
 7104SOL     OW22527   2.644   3.730   2.112 -0.0116  0.5432  0.5021
 7104SOL    HW122528   2.630   3.733   2.018  1.2835  0.5956  0.2911
 7104SOL    HW222529   2.694   3.650   2.127 -0.5612  0.3126  1.2089
 7105SOL     OW22530   2.253   4.938   3.145  0.0982  0.0108 -1.1381
 7105SOL    HW122531   2.253   4.890   3.228  0.6159  2.2761  0.2640
 7105SOL    HW222532   2.343   4.932   3.114  0.9225  2.3137  0.5207
 7106SOL     OW22533   3.468   4.713   1.848 -0.1591  0.4317  0.7974
 7106SOL    HW122534   3.558   4.681   1.851 -0.6540 -1.0584  0.5475
 7106SOL    HW222535   3.459   4.765   1.928  0.5011 -0.6453  1.6073
 7107SOL     OW22536   2.788   5.297   3.387 -0.3629  0.0298 -0.3632
 7107SOL    HW122537   2.807   5.281   3.479  0.5198 -1.7073 -0.8035
 7107SOL    HW222538   2.816   5.218   3.342 -1.0692  0.7021 -2.1063
 7108SOL     OW22539   2.603   4.330   4.023 -0.1717 -0.9415  0.2479
 7108SOL    HW122540   2.686   4.290   4.049 -0.0800  0.0436  1.5644
 7108SOL    HW222541   2.622   4.424   4.020 -1.4519 -0.6215  1.4375
 7109SOL     OW22542   3.184   5.010   2.574 -0.0949  0.5453 -0.5479
 7109SOL    HW122543   3.204   4.941   2.637 -0.7944  1.6185  0.9325
 7109SOL    HW222544   3.269   5.035   2.537  0.0884 -1.5369 -1.6396
 7110SOL     OW22545   3.627   5.393   2.293  0.0634 -0.2878 -0.1822
 7110SOL    HW122546   3.673   5.477   2.288  0.1342 -0.3368 -0.3662
 7110SOL    HW222547   3.675   5.343   2.359 -0.7768  0.3039  0.9233
 7111SOL     OW22548   2.735   4.371   2.283  0.3892 -0.0701  0.2060
 7111SOL    HW122549   2.725   4.299   2.345  1.3150  0.2859  0.7876
 7111SOL    HW222550   2.801   4.428   2.322  1.4012 -0.1077 -1.3338
 7112SOL     OW22551   3.309   3.796   2.570 -0.1577 -0.3663 -0.1847
 7112SOL    HW122552   3.340   3.832   2.653  0.3913  0.8047 -0.8809
 7112SOL    HW222553   3.248   3.726   2.596  1.5274 -1.4084  1.2207
 7113SOL     OW22554   3.371   5.324   2.127  0.4209 -0.1261 -0.4080
 7113SOL    HW122555   3.446   5.329   2.187  0.3276 -0.7112 -0.2293
 7113SOL    HW222556   3.300   5.368   2.174  0.6519  0.4485 -0.5863
 7114SOL     OW22557   2.893   4.359   4.019  0.0942  0.6315  0.1500
 7114SOL    HW122558   2.873   4.448   4.048  3.0881  0.9022  1.7701
 7114SOL    HW222559   2.926   4.369   3.930 -0.5414  0.9675 -0.0582
 7115SOL     OW22560   3.513   4.021   3.785 -0.3026  0.3063 -0.1358
 7115SOL    HW122561   3.501   4.116   3.780 -0.7478  0.1957 -1.8082
 7115SOL    HW222562   3.593   4.010   3.836  0.6689  1.6591 -1.2754
 7116SOL     OW22563   3.107   4.711   3.416 -0.5710 -0.3871 -0.0332
 7116SOL    HW122564   3.140   4.626   3.445 -0.5411 -0.1870  0.5462
 7116SOL    HW222565   3.170   4.741   3.351 -0.7560 -0.9491 -0.4741
 7117SOL     OW22566   2.851   4.493   3.595  0.5283  0.0153  0.3294
 7117SOL    HW122567   2.918   4.525   3.533  0.2070  0.0790  0.0101
 7117SOL    HW222568   2.900   4.471   3.674  0.6921  1.8859  0.7924
 7118SOL     OW22569   3.018   4.120   2.617  0.0929 -0.0349 -0.4142
 7118SOL    HW122570   3.020   4.031   2.652  1.9978  0.5949  1.3160
 7118SOL    HW222571   3.053   4.113   2.528  1.0624 -0.9245  0.0175
 7119SOL     OW22572   2.312   4.376   2.613  0.9624 -0.2981  0.2625
 7119SOL    HW122573   2.398   4.354   2.577  1.3480 -1.9174  2.0384
 7119SOL    HW222574   2.261   4.295   2.605 -0.6266  0.7531 -1.2086
 7120SOL     OW22575   1.910   5.624   3.510 -0.0543 -0.0811 -0.3364
 7120SOL    HW122576   1.974   5.553   3.513  0.2706  0.1460 -1.3452
 7120SOL    HW222577   1.834   5.591   3.559  0.2992 -0.9072 -0.3390
 7121SOL     OW22578   2.739   4.052   1.996 -0.3302 -0.3123  0.0692
 7121SOL    HW122579   2.772   3.963   1.986 -0.6908 -0.4539  0.1171
 7121SOL    HW222580   2.790   4.089   2.068 -0.1121 -0.4463 -0.0164
 7122SOL     OW22581   3.125   4.642   2.528  0.2867  0.0588 -0.3121
 7122SOL    HW122582   3.034   4.670   2.523  0.6502  1.1553 -1.4150
 7122SOL    HW222583   3.162   4.693   2.600 -0.1121 -0.8808  0.5803
 7123SOL     OW22584   2.636   3.441   3.108 -0.5165  0.2767 -0.9403
 7123SOL    HW122585   2.545   3.470   3.111 -0.5349  0.1409  0.5670
 7123SOL    HW222586   2.674   3.470   3.192  1.1209  1.2483 -1.9504
 7124SOL     OW22587   3.144   5.466   2.208  0.2529 -0.4446 -0.1816
 7124SOL    HW122588   3.075   5.400   2.216  0.3568 -0.5615 -0.2461
 7124SOL    HW222589   3.129   5.525   2.282 -2.4931  1.9858 -2.4377
 7125SOL     OW22590   2.130   5.665   3.002 -0.1437 -0.4818  0.0869
 7125SOL    HW122591   2.060   5.649   3.065  0.1155 -2.1651  0.0135
 7125SOL    HW222592   2.209   5.678   3.056 -0.3612  0.6817  0.1492
 7126SOL     OW22593   3.837   4.639   2.635 -0.6707 -0.1009  0.2055
 7126SOL    HW122594   3.786   4.720   2.645 -2.3744 -0.9663 -1.0146
 7126SOL    HW222595   3.776   4.569   2.660  0.0266 -1.1465 -0.9148
 7127SOL     OW22596   3.346   5.270   2.955 -0.5908  0.1696 -0.1600
 7127SOL    HW122597   3.373   5.204   2.892  0.2386  0.4864 -0.1491
 7127SOL    HW222598   3.375   5.236   3.039 -1.9863 -0.4058  0.1045
 7128SOL     OW22599   2.386   4.298   2.261 -0.2539 -0.1362  0.0884
 7128SOL    HW122600   2.463   4.243   2.242 -0.9692 -0.9103 -0.7061
 7128SOL    HW222601   2.386   4.364   2.192  0.6019  0.8948  1.0404
 7129SOL     OW22602   2.299   4.696   4.056 -0.1057  0.0331 -0.1313
 7129SOL    HW122603   2.310   4.694   4.151  1.3341 -1.2061 -0.2836
 7129SOL    HW222604   2.215   4.654   4.040 -0.5923  0.6995  0.6017
 7130SOL     OW22605   2.834   5.758   1.981  0.3855  0.8103 -0.1506
 7130SOL    HW122606   2.920   5.736   2.016 -0.5467 -0.1308  1.7196
 7130SOL    HW222607   2.789   5.673   1.974 -0.5156  1.3173 -0.7167
 7131SOL     OW22608   2.405   3.858   3.361 -0.5757 -0.7980 -0.1470
 7131SOL    HW122609   2.384   3.939   3.408  2.8997  0.0759  0.1785
 7131SOL    HW222610   2.381   3.788   3.422 -2.1144  0.0181  0.2347
 7132SOL     OW22611   3.254   5.278   1.867  0.1372  0.1968  0.5025
 7132SOL    HW122612   3.298   5.197   1.841 -0.4926  0.5462 -1.8660
 7132SOL    HW222613   3.293   5.300   1.951  0.0845 -2.7248  1.3971
 7133SOL     OW22614   2.475   5.334   2.072 -0.1902  0.0871  0.1539
 7133SOL    HW122615   2.480   5.381   2.156 -0.0456 -0.9359  0.7374
 7133SOL    HW222616   2.382   5.330   2.052 -0.2261  0.3233  0.2701
 7134SOL     OW22617   3.446   3.863   2.030  0.2043  0.1832 -0.1663
 7134SOL    HW122618   3.529   3.816   2.040 -0.0545 -0.4666 -0.9293
 7134SOL    HW222619   3.465   3.952   2.059  0.9165 -0.1913  0.5727
 7135SOL     OW22620   1.835   5.519   3.049 -0.4420  0.3065  0.2454
 7135SOL    HW122621   1.889   5.452   3.008  1.0393  0.8921  1.1311
 7135SOL    HW222622   1.816   5.581   2.979 -1.0898 -0.5787 -0.3755
 7136SOL     OW22623   3.118   5.414   3.016 -0.1166 -0.1112 -0.3016
 7136SOL    HW122624   3.157   5.497   3.042 -1.9530  1.8601 -3.2424
 7136SOL    HW222625   3.188   5.368   2.970  0.2494  0.9478 -0.8372
 7137SOL     OW22626   2.239   4.137   2.428 -0.6163  0.3755  0.2416
 7137SOL    HW122627   2.301   4.071   2.459 -1.8386 -1.3667 -0.7715
 7137SOL    HW222628   2.291   4.195   2.372  0.9534  1.7356  2.9318
 7138SOL     OW22629   3.754   3.659   3.349 -0.5746  0.1235  0.0330
 7138SOL    HW122630   3.729   3.741   3.392  0.5822  0.1233  0.7261
 7138SOL    HW222631   3.839   3.678   3.308 -1.4635  0.0255 -2.0051
 7139SOL     OW22632   2.884   3.838   1.883  0.1730  0.0104  0.3242
 7139SOL    HW122633   2.937   3.811   1.808  0.9248 -0.4384  0.9999
 7139SOL    HW222634   2.945   3.885   1.940 -0.5317  0.8753  0.3774
 7140SOL     OW22635   2.632   3.749   3.193 -0.2155  0.1925  0.0857
 7140SOL    HW122636   2.536   3.739   3.191 -0.0212 -2.1261 -1.6839
 7140SOL    HW222637   2.663   3.673   3.242  0.7009  2.6657  3.7096
 7141SOL     OW22638   2.632   5.243   3.128  0.8229  0.2224  0.0757
 7141SOL    HW122639   2.711   5.290   3.154  0.4773  1.3623 -0.8467
 7141SOL    HW222640   2.597   5.293   3.054 -1.7569  0.8164  1.5584
 7142SOL     OW22641   3.560   4.298   3.231  0.7095 -0.1914 -0.3029
 7142SOL    HW122642   3.561   4.393   3.218 -0.7939 -0.1921 -0.5856
 7142SOL    HW222643   3.574   4.262   3.144 -3.7313 -0.1721 -1.2849
 7143SOL     OW22644   3.091   5.229   2.714  0.6501  0.1914  0.0648
 7143SOL    HW122645   3.167   5.287   2.712  0.4307  0.6148 -3.8135
 7143SOL    HW222646   3.125   5.145   2.684 -0.3654  0.4431 -1.9282
 7144SOL     OW22647   3.680   3.938   3.217  0.7130  0.7320 -0.3148
 7144SOL    HW122648   3.616   3.958   3.148  0.8919 -0.9825 -1.0364
 7144SOL    HW222649   3.764   3.966   3.182  0.8385 -0.3541 -0.9473
 7145SOL     OW22650   2.229   3.345   2.331 -0.5415  0.1199 -0.3529
 7145SOL    HW122651   2.281   3.395   2.394 -0.7286 -0.4449  0.2621
 7145SOL    HW222652   2.143   3.387   2.332 -0.2561  0.7443 -1.0006
 7146SOL     OW22653   3.583   5.317   1.917 -0.3382 -0.2882  0.3381
 7146SOL    HW122654   3.518   5.308   1.987  0.3286  1.2241  1.2224
 7146SOL    HW222655   3.636   5.238   1.923 -0.4372 -0.2928  1.4154
 7147SOL     OW22656   2.036   3.551   2.356  0.1546 -0.2559  0.7113
 7147SOL    HW122657   1.995   3.590   2.279  1.2301 -0.7161 -0.1310
 7147SOL    HW222658   2.062   3.626   2.409  0.1852  0.1035  0.2005
 7148SOL     OW22659   3.317   4.127   2.211 -0.0507  0.1764 -0.8108
 7148SOL    HW122660   3.330   4.204   2.267  0.7565 -0.8828  0.5327
 7148SOL    HW222661   3.387   4.132   2.147  1.2385 -0.4511  0.5000
 7149SOL     OW22662   3.203   4.299   3.233 -0.1101 -0.2691 -0.4714
 7149SOL    HW122663   3.236   4.269   3.148  0.7339  0.8187 -0.5566
 7149SOL    HW222664   3.273   4.277   3.295  0.3726  1.1489 -0.4822
 7150SOL     OW22665   3.014   5.283   2.411 -0.4415 -0.2914  0.0976
 7150SOL    HW122666   2.987   5.192   2.402 -1.3280  0.0752 -1.2019
 7150SOL    HW222667   3.103   5.278   2.447 -0.3938 -1.6699 -0.1569
 7151SOL     OW22668   2.387   4.891   2.893 -0.2103  0.4780  0.1969
 7151SOL    HW122669   2.380   4.799   2.918 -1.0001  1.1190  2.6071
 7151SOL    HW222670   2.475   4.898   2.855 -0.6748 -1.5116 -1.4594
 7152SOL     OW22671   2.721   5.093   2.885  0.1764 -0.0570  0.0383
 7152SOL    HW122672   2.763   5.019   2.841  2.7558  1.1211  0.3580
 7152SOL    HW222673   2.682   5.054   2.964  0.2865 -1.2879 -0.4874
 7153SOL     OW22674   2.800   4.422   1.904  0.1689 -0.2981  0.5679
 7153SOL    HW122675   2.740   4.445   1.833 -1.4900 -3.4620  0.7668
 7153SOL    HW222676   2.862   4.361   1.865  0.4175 -0.5864  1.3854
 7154SOL     OW22677   2.318   4.340   3.109 -0.3917  0.1331  0.7199
 7154SOL    HW122678   2.350   4.263   3.157 -0.9347  0.4082  1.5443
 7154SOL    HW222679   2.282   4.397   3.177  1.0844  1.6706  0.2798
 7155SOL     OW22680   2.943   3.689   2.910 -0.1833 -0.4295 -0.0361
 7155SOL    HW122681   2.999   3.701   2.987 -0.9005 -0.8005  0.5608
 7155SOL    HW222682   2.884   3.765   2.911  1.6834  1.1627 -1.9211
 7156SOL     OW22683   2.836   3.949   2.925  0.0708 -0.5908  0.1453
 7156SOL    HW122684   2.832   3.971   3.019  0.4351 -1.1606  0.2989
 7156SOL    HW222685   2.808   4.029   2.881  1.2112  0.1443  0.6938
 7157SOL     OW22686   3.151   3.998   2.392 -0.3505  0.0354 -0.1892
 7157SOL    HW122687   3.209   4.053   2.341  1.6796  0.3613  2.2619
 7157SOL    HW222688   3.205   3.924   2.419 -2.0845 -1.4878 -0.6335
 7158SOL     OW22689   3.235   4.767   2.756 -0.5341  0.2620 -0.4448
 7158SOL    HW122690   3.215   4.740   2.846 -1.1547  0.4727 -0.5101
 7158SOL    HW222691   3.330   4.774   2.753 -0.5388  0.8727  0.3838
 7159SOL     OW22692   2.654   4.615   2.585  0.1435 -0.7592 -0.3615
 7159SOL    HW122693   2.610   4.582   2.506 -1.0242 -1.6586  0.6270
 7159SOL    HW222694   2.680   4.536   2.633  1.8072 -0.2355 -0.3254
 7160SOL     OW22695   3.336   4.485   1.890 -0.8039 -0.5153 -0.6251
 7160SOL    HW122696   3.270   4.494   1.959  1.3059 -2.5789  1.8085
 7160SOL    HW222697   3.379   4.571   1.888 -0.4133 -0.6273  1.2023
 7161SOL     OW22698   2.514   4.009   2.274 -0.3591  0.3551 -0.0986
 7161SOL    HW122699   2.561   3.926   2.273 -0.5528  0.2307  0.7920
 7161SOL    HW222700   2.442   3.997   2.212 -0.8745 -0.4302  0.6319
 7162SOL     OW22701   2.857   5.227   3.674  0.5417  0.2056  0.1041
 7162SOL    HW122702   2.912   5.273   3.738  0.4264 -0.7713  0.9317
 7162SOL    HW222703   2.875   5.134   3.689 -0.6219 -0.0935 -0.2587
 7163SOL     OW22704   3.285   5.280   3.509  0.1551  0.1726 -0.1735
 7163SOL    HW122705   3.226   5.337   3.458  1.9361  1.7816 -0.5519
 7163SOL    HW222706   3.278   5.195   3.467 -2.0972  0.2136 -0.0147
 7164SOL     OW22707   3.168   5.086   3.166 -0.0875  0.5052  0.3366
 7164SOL    HW122708   3.243   5.036   3.199 -0.5959  0.7781  1.9887
 7164SOL    HW222709   3.206   5.145   3.101  1.3027  1.1477  1.6494
 7165SOL     OW22710   3.517   4.782   2.771 -0.0004  0.3054 -0.3465
 7165SOL    HW122711   3.598   4.827   2.797  0.9384 -1.4522 -0.0678
 7165SOL    HW222712   3.545   4.693   2.750 -2.0475 -0.7280  0.9985
 7166SOL     OW22713   3.238   3.698   3.430  0.3785 -0.2564  0.0607
 7166SOL    HW122714   3.307   3.764   3.430  1.0231 -0.9206 -0.3876
 7166SOL    HW222715   3.158   3.747   3.450  1.1312  0.3422  1.7554
 7167SOL     OW22716   2.925   4.777   3.217  0.3129 -0.5761  0.2909
 7167SOL    HW122717   2.959   4.693   3.187  0.4990 -0.6043  0.5722
 7167SOL    HW222718   2.962   4.788   3.305 -0.4701 -0.6419  0.6394
 7168SOL     OW22719   2.693   4.570   2.102  0.1991  0.4418 -0.0989
 7168SOL    HW122720   2.743   4.534   2.028  3.6785  2.0660  1.2044
 7168SOL    HW222721   2.693   4.499   2.167 -0.0389  0.0867 -0.4861
 7169SOL     OW22722   2.638   4.033   3.207  0.3220 -0.0561 -0.2750
 7169SOL    HW122723   2.636   3.937   3.209  1.5649 -0.0985 -0.3095
 7169SOL    HW222724   2.553   4.057   3.170 -0.7056 -1.0646  1.2981
 7170SOL     OW22725   3.692   4.116   3.424 -0.2779  0.8331 -0.1725
 7170SOL    HW122726   3.646   4.194   3.393 -0.7232  0.6022 -0.0948
 7170SOL    HW222727   3.684   4.054   3.352 -1.6266  0.1623  0.5229
 7171SOL     OW22728   2.036   5.170   3.283 -0.0709  0.0361 -0.2787
 7171SOL    HW122729   2.040   5.228   3.208 -0.1262  1.7338  0.9738
 7171SOL    HW222730   2.127   5.148   3.301 -0.0235  0.0175 -0.5358
 7172SOL     OW22731   2.160   4.680   2.228 -0.1666 -0.5995 -0.5155
 7172SOL    HW122732   2.202   4.742   2.288  0.6830  0.4392 -2.1346
 7172SOL    HW222733   2.073   4.666   2.266 -0.7731  2.3456 -0.5689
 7173SOL     OW22734   2.785   3.923   2.615 -0.1897  0.3752  0.0987
 7173SOL    HW122735   2.803   3.900   2.524 -0.1834  2.2299 -0.3994
 7173SOL    HW222736   2.866   3.901   2.662 -0.5737 -1.6334 -0.1004
 7174SOL     OW22737   2.883   4.762   2.474 -0.2917  0.0426 -0.2374
 7174SOL    HW122738   2.871   4.853   2.499 -3.2822  0.3641 -2.3315
 7174SOL    HW222739   2.806   4.717   2.509  0.4116 -1.3871 -0.4647
 7175SOL     OW22740   3.693   4.999   3.015  0.3814  0.9651  0.3847
 7175SOL    HW122741   3.772   5.017   2.964 -0.2220 -0.5354 -1.1854
 7175SOL    HW222742   3.721   4.937   3.082  0.5150  0.2570 -0.3118
 7176SOL     OW22743   2.591   5.018   3.258  0.1292 -0.2673 -0.2085
 7176SOL    HW122744   2.585   5.103   3.215 -0.4314  0.4430  1.2080
 7176SOL    HW222745   2.631   4.961   3.193  4.4103  2.0002  0.1145
 7177SOL     OW22746   2.127   4.393   3.787 -0.6200 -0.1043  0.1313
 7177SOL    HW122747   2.109   4.302   3.763 -1.6797  0.5927 -1.9571
 7177SOL    HW222748   2.158   4.388   3.877 -1.3573 -2.4597  0.3295
 7178SOL     OW22749   4.130   4.323   3.385 -0.1001  0.5848  0.3493
 7178SOL    HW122750   4.221   4.294   3.387  0.0277  0.8891 -0.6354
 7178SOL    HW222751   4.080   4.244   3.364 -0.0823  0.3880  1.0311
 7179SOL     OW22752   2.995   4.135   3.547  0.0939 -0.4823 -0.0367
 7179SOL    HW122753   3.080   4.097   3.527  0.5654  0.6579 -0.3122
 7179SOL    HW222754   2.976   4.193   3.473  0.0949  0.9062  0.9909
 7180SOL     OW22755   2.203   3.848   3.752  0.6342 -0.4702  0.1045
 7180SOL    HW122756   2.239   3.763   3.728  1.3489 -0.8542  2.3213
 7180SOL    HW222757   2.111   3.843   3.729  0.2031 -2.6391  2.0034
 7181SOL     OW22758   2.233   5.168   2.765 -0.9084 -0.2537 -0.2542
 7181SOL    HW122759   2.319   5.137   2.738 -1.3728  0.5990 -2.9855
 7181SOL    HW222760   2.251   5.250   2.812 -0.2486  0.5193 -1.7886
 7182SOL     OW22761   3.156   4.550   2.111  0.6308  0.4953 -0.5089
 7182SOL    HW122762   3.104   4.630   2.100  1.8000  1.7364  2.1015
 7182SOL    HW222763   3.117   4.507   2.187  1.1838 -0.4501 -0.7485
 7183SOL     OW22764   2.248   4.081   2.787 -0.2777  0.0643  0.1459
 7183SOL    HW122765   2.160   4.072   2.750  0.3734  2.8933 -2.5359
 7183SOL    HW222766   2.305   4.035   2.725  0.3272  0.1083  0.6587
 7184SOL     OW22767   2.960   4.212   3.279 -0.2341 -0.3709 -0.1435
 7184SOL    HW122768   2.952   4.118   3.262 -0.8020 -0.7556  1.9399
 7184SOL    HW222769   3.054   4.230   3.271  0.0803 -1.4473  0.8003
 7185SOL     OW22770   3.083   4.112   2.909  0.2644 -0.2041  0.0038
 7185SOL    HW122771   3.172   4.076   2.918  0.7163  0.1546 -2.4763
 7185SOL    HW222772   3.092   4.182   2.845 -1.5941  0.7766  0.7526
 7186SOL     OW22773   3.111   3.546   2.629  0.2128  0.2249  0.4399
 7186SOL    HW122774   3.184   3.529   2.688  1.0079  0.7800 -0.3526
 7186SOL    HW222775   3.147   3.534   2.542 -0.5494  0.8379  0.0222
 7187SOL     OW22776   3.693   3.765   2.055 -0.3187 -0.8928 -0.2787
 7187SOL    HW122777   3.701   3.684   2.005  0.4991  0.1982 -2.0343
 7187SOL    HW222778   3.761   3.759   2.122  2.2709 -0.2214 -2.6436
 7188SOL     OW22779   3.143   4.372   2.741  0.0431  0.2808  0.1863
 7188SOL    HW122780   3.230   4.392   2.774 -0.4181  2.0711  0.4392
 7188SOL    HW222781   3.132   4.430   2.666 -0.2166 -1.3191 -1.0526
 7189SOL     OW22782   2.492   5.029   3.651  0.4098 -1.0098  0.0200
 7189SOL    HW122783   2.419   4.988   3.699  0.5642 -2.0223 -0.5736
 7189SOL    HW222784   2.531   4.957   3.601  3.1036 -1.0092  1.8690
 7190SOL     OW22785   2.085   4.578   3.595 -0.1499 -0.1539 -0.5065
 7190SOL    HW122786   2.075   4.494   3.640  0.3905  0.2309  0.3535
 7190SOL    HW222787   2.010   4.582   3.535 -1.2301 -0.4128  0.7823
 7191SOL     OW22788   3.353   4.127   1.825 -0.1442  0.4204 -0.3608
 7191SOL    HW122789   3.378   4.035   1.826 -2.9965 -0.4544 -0.3082
 7191SOL    HW222790   3.371   4.158   1.914 -1.0642 -0.6965  0.2368
 7192SOL     OW22791   2.919   4.720   1.954  0.1211 -0.1688  0.1071
 7192SOL    HW122792   2.950   4.641   1.909  1.3546  0.7835 -0.8038
 7192SOL    HW222793   2.842   4.692   2.003  0.6520 -1.9757 -0.0364
 7193SOL     OW22794   3.096   5.012   2.912 -0.3035 -0.1989 -0.0111
 7193SOL    HW122795   3.111   5.035   3.004  1.0667  3.9613 -1.0533
 7193SOL    HW222796   3.180   4.976   2.882  0.1003  0.8445 -0.1814
 7194SOL     OW22797   2.738   4.383   2.717 -0.1797 -0.1209 -0.6938
 7194SOL    HW122798   2.675   4.338   2.774 -1.2413  1.1375 -0.8091
 7194SOL    HW222799   2.808   4.410   2.775 -0.8300  0.3804 -0.1187
 7195SOL     OW22800   2.194   4.373   2.879  0.0771 -0.1557 -0.5108
 7195SOL    HW122801   2.247   4.333   2.810 -0.2995 -0.2531 -0.7487
 7195SOL    HW222802   2.247   4.365   2.958  0.5043 -0.0632 -0.7829
 7196SOL     OW22803   3.231   4.042   3.438  0.3270  0.2871  0.0174
 7196SOL    HW122804   3.304   3.983   3.457  1.3062  1.5443  0.2596
 7196SOL    HW222805   3.269   4.129   3.440 -0.7370  0.8663 -2.0475
 7197SOL     OW22806   2.977   4.065   3.816  0.2858  0.4367  0.7791
 7197SOL    HW122807   3.062   4.088   3.853  2.0715 -0.5973 -2.3656
 7197SOL    HW222808   2.975   4.106   3.730 -0.4161 -3.0336 -1.0716
 7198SOL     OW22809   1.413   5.128   1.892  0.3177  0.2895  0.6950
 7198SOL    HW122810   1.475   5.124   1.819  0.8037 -0.7864  1.1455
 7198SOL    HW222811   1.345   5.064   1.869 -0.6129  1.3982  0.2433
 7199SOL     OW22812   2.039   5.543   2.510  0.4653 -0.2550 -0.1017
 7199SOL    HW122813   1.953   5.532   2.468 -0.3236  0.3400  1.2706
 7199SOL    HW222814   2.056   5.458   2.551  0.1081 -0.1153  0.3477
 7200SOL     OW22815   2.373   5.372   2.581 -0.0516 -0.4906 -0.8872
 7200SOL    HW122816   2.350   5.453   2.627 -0.1692 -0.1742 -1.5014
 7200SOL    HW222817   2.376   5.306   2.651  0.4362  0.1117 -0.3271
 7201SOL     OW22818   2.644   4.312   3.544  0.4777 -0.3973 -0.2219
 7201SOL    HW122819   2.660   4.224   3.576  2.7552 -0.6003 -1.7165
 7201SOL    HW222820   2.711   4.366   3.585 -1.4348  0.9157  1.3915
 7202SOL     OW22821   2.467   4.055   2.991 -0.0385 -0.6337  0.3231
 7202SOL    HW122822   2.377   4.033   2.966 -0.0798 -0.5325  0.3803
 7202SOL    HW222823   2.522   4.009   2.928 -0.1122 -1.2117  0.6671
 7203SOL     OW22824   2.292   4.461   3.443  0.1495  0.1198 -0.2136
 7203SOL    HW122825   2.220   4.476   3.382  0.0625 -1.5480 -0.5736
 7203SOL    HW222826   2.251   4.467   3.529 -0.5976 -1.4360 -0.4225
 7204SOL     OW22827   3.308   4.809   3.274  0.6793 -0.3137 -0.1348
 7204SOL    HW122828   3.390   4.847   3.304  1.9109 -1.4517 -1.8622
 7204SOL    HW222829   3.334   4.733   3.221 -1.5425 -1.7558  0.6831
 7205SOL     OW22830   2.633   4.182   2.457 -0.2342  0.7722  0.2776
 7205SOL    HW122831   2.675   4.143   2.534  2.0369  2.2692 -0.1016
 7205SOL    HW222832   2.600   4.107   2.407 -0.2553 -0.3176  1.8511
 7206SOL     OW22833   3.696   4.423   2.989  0.0059 -0.3659 -0.2311
 7206SOL    HW122834   3.722   4.331   2.984  1.3226 -0.0770  0.9629
 7206SOL    HW222835   3.690   4.451   2.897  1.5606 -1.1164 -0.5885
 7207SOL     OW22836   2.054   5.157   3.585 -0.5031 -0.3844 -0.2128
 7207SOL    HW122837   2.063   5.064   3.608  0.1066 -0.5344 -1.0226
 7207SOL    HW222838   2.079   5.162   3.493 -2.6224  0.2647 -0.8095
 7208SOL     OW22839   2.979   3.863   3.426  0.3771 -0.1662 -0.7259
 7208SOL    HW122840   2.986   3.885   3.333  1.0197 -0.7290 -0.8105
 7208SOL    HW222841   2.942   3.942   3.466 -0.7860 -0.2511 -1.5970
 7209SOL     OW22842   2.515   5.383   3.342 -0.7998  0.8382 -0.2261
 7209SOL    HW122843   2.532   5.398   3.249  0.1156  1.7607  0.0677
 7209SOL    HW222844   2.591   5.333   3.372 -1.2986  0.1714 -0.0573
 7210SOL     OW22845   2.557   4.248   2.027 -0.0186 -0.4634  0.2693
 7210SOL    HW122846   2.618   4.313   2.062  0.7732 -1.9593  1.7651
 7210SOL    HW222847   2.612   4.173   2.004 -0.9260 -0.6934 -1.3499
 7211SOL     OW22848   1.808   4.486   3.212  0.2569 -0.2359  0.5642
 7211SOL    HW122849   1.756   4.513   3.137 -1.2383  0.4364  1.7714
 7211SOL    HW222850   1.786   4.393   3.225 -2.6303  0.5552  2.4354
 7212SOL     OW22851   3.049   4.534   3.124 -0.0858 -0.6572  0.4151
 7212SOL    HW122852   3.122   4.580   3.082 -0.3930  0.5298  1.1311
 7212SOL    HW222853   3.090   4.462   3.171  0.2142 -2.4315 -2.3545
 7213SOL     OW22854   3.072   4.456   2.328 -0.3850  0.6779  0.1228
 7213SOL    HW122855   3.013   4.414   2.391  0.1107  0.3294  0.3577
 7213SOL    HW222856   3.121   4.520   2.378 -0.3371  0.7424 -0.0053
 7214SOL     OW22857   3.721   5.329   3.106  0.0877  0.4454  0.0863
 7214SOL    HW122858   3.659   5.257   3.093 -0.6228  0.9708  0.5107
 7214SOL    HW222859   3.799   5.287   3.143 -0.5878 -0.0165  1.0213
 7215SOL     OW22860   3.018   5.675   3.410  0.1530  0.2283 -0.8823
 7215SOL    HW122861   3.017   5.662   3.505 -0.4723  0.0693 -0.9085
 7215SOL    HW222862   3.094   5.625   3.380 -0.5232 -0.9885 -0.6322
 7216SOL     OW22863   2.170   4.820   2.741 -0.3991 -0.2987 -0.3195
 7216SOL    HW122864   2.212   4.871   2.810 -3.1989  1.4200  0.3226
 7216SOL    HW222865   2.220   4.839   2.662  0.1908  1.4174  0.4259
 7217SOL     OW22866   2.397   5.439   3.606 -0.2869 -0.4132 -0.1139
 7217SOL    HW122867   2.440   5.370   3.657 -1.0089 -1.5069 -0.9442
 7217SOL    HW222868   2.434   5.429   3.518  1.2897  1.7438  0.2219
 7218SOL     OW22869   3.875   3.695   2.246 -0.3361  0.1938 -0.0550
 7218SOL    HW122870   3.896   3.780   2.285 -1.8091  0.3853  0.3640
 7218SOL    HW222871   3.946   3.638   2.277  1.2048  1.4275 -1.1030
 7219SOL     OW22872   3.232   5.105   2.302 -0.4333 -0.0592 -0.1457
 7219SOL    HW122873   3.272   5.158   2.233  0.3091  0.7006  0.8541
 7219SOL    HW222874   3.282   5.125   2.381 -0.5318 -1.7959  0.3946
 7220SOL     OW22875   1.661   5.236   3.581 -0.6297 -0.3998  0.0410
 7220SOL    HW122876   1.718   5.180   3.633 -0.6267  0.1492  0.6465
 7220SOL    HW222877   1.611   5.176   3.526  0.3425 -0.9058 -0.3171
 7221SOL     OW22878   3.284   4.648   2.984 -0.5283 -0.3639  0.2946
 7221SOL    HW122879   3.312   4.572   2.932 -1.8711 -0.2498 -0.6487
 7221SOL    HW222880   3.365   4.698   2.999  0.1788 -1.3584 -0.0979
 7222SOL     OW22881   2.607   4.854   3.472 -0.5320 -0.0676  0.0774
 7222SOL    HW122882   2.593   4.767   3.434 -1.2476 -0.1177  0.4525
 7222SOL    HW222883   2.601   4.914   3.397  1.5592 -0.4419 -0.4769
 7223SOL     OW22884   2.332   5.290   1.746  0.3705  0.0282 -0.0839
 7223SOL    HW122885   2.388   5.213   1.737  1.1930  0.5356  0.5738
 7223SOL    HW222886   2.275   5.270   1.820  0.5066  0.0157  0.0156
 7224SOL     OW22887   3.454   5.433   3.644  0.6513  0.6730  0.0831
 7224SOL    HW122888   3.389   5.397   3.583  0.5912  0.8205  0.0592
 7224SOL    HW222889   3.401   5.469   3.715  0.7503 -2.2239  1.8050
 7225SOL     OW22890   2.179   3.704   2.533  0.1190 -0.1824  0.2275
 7225SOL    HW122891   2.254   3.647   2.545  0.8076  0.4756 -0.8265
 7225SOL    HW222892   2.111   3.667   2.589  1.1653 -0.8934  1.0571
 7226SOL     OW22893   3.065   5.471   1.833  0.3574 -0.0097  1.1073
 7226SOL    HW122894   3.116   5.392   1.815 -1.5265 -0.8430 -1.1494
 7226SOL    HW222895   3.084   5.491   1.924  0.8739 -3.1309  1.8188
 7227SOL     OW22896   2.538   4.601   3.055 -0.5572  0.1978  0.4455
 7227SOL    HW122897   2.493   4.518   3.040  2.3079 -1.5726  0.8607
 7227SOL    HW222898   2.581   4.590   3.140 -0.3568  2.2679  0.6643
 7228SOL     OW22899   2.899   4.341   2.501 -0.3033  0.0379  0.1436
 7228SOL    HW122900   2.945   4.279   2.557  1.4192  0.6549 -0.5345
 7228SOL    HW222901   2.835   4.383   2.558 -0.0030 -0.8125  1.1219
 7229SOL     OW22902   2.533   6.120   1.947  0.3870  0.3882 -0.2332
 7229SOL    HW122903   2.591   6.188   1.982  2.1287 -1.2168  0.1125
 7229SOL    HW222904   2.544   6.046   2.006 -1.3624 -0.2720 -0.6893
 7230SOL     OW22905   2.074   5.048   2.965 -0.3243  0.7592 -0.1663
 7230SOL    HW122906   2.133   5.007   3.028  0.5760 -1.3877 -2.2833
 7230SOL    HW222907   2.130   5.077   2.893 -1.6461  0.0362 -1.5474
 7231SOL     OW22908   3.472   5.115   3.154 -0.0630 -0.6364  0.4557
 7231SOL    HW122909   3.560   5.095   3.123  0.4967  1.5385  0.4570
 7231SOL    HW222910   3.464   5.067   3.236  1.5803  0.0218  1.0475
 7232SOL     OW22911   2.905   4.863   2.792  0.1589 -0.3561 -0.2252
 7232SOL    HW122912   2.967   4.927   2.828 -1.2878 -0.0205  1.8282
 7232SOL    HW222913   2.959   4.787   2.772  1.2740 -0.0688  1.4658
 7233SOL     OW22914   3.225   3.576   2.361 -0.1388  0.4963 -0.7469
 7233SOL    HW122915   3.158   3.628   2.316  0.3302  0.6962 -1.2351
 7233SOL    HW222916   3.306   3.624   2.345 -0.2244  1.7954  2.1905
 7234SOL     OW22917   3.004   4.926   2.287 -0.4706  0.2513 -0.0638
 7234SOL    HW122918   3.068   4.956   2.352 -0.0342 -0.1657 -0.2898
 7234SOL    HW222919   2.944   4.870   2.336 -0.0017 -0.2575 -0.0594
 7235SOL     OW22920   1.483   4.861   2.230  0.0772 -0.0193 -0.1635
 7235SOL    HW122921   1.468   4.825   2.143 -0.9104  0.4218 -0.1816
 7235SOL    HW222922   1.420   4.816   2.286 -0.1392  0.5954  0.0893
 7236SOL     OW22923   2.234   4.783   3.364  0.8132  0.0872  0.5230
 7236SOL    HW122924   2.229   4.688   3.358  1.9211  0.0955 -1.4449
 7236SOL    HW222925   2.226   4.802   3.457 -0.1397 -1.8640  0.8965
 7237SOL     OW22926   3.030   3.963   3.166  0.1996 -0.1820 -0.1038
 7237SOL    HW122927   3.086   3.887   3.151  0.3465 -0.1736  0.4090
 7237SOL    HW222928   3.061   4.027   3.101 -0.0029 -0.5919 -0.6159
 7238SOL     OW22929   2.135   4.278   1.719  0.5281 -0.0496 -0.2958
 7238SOL    HW122930   2.053   4.297   1.764  0.3839  0.6535 -0.8290
 7238SOL    HW222931   2.201   4.280   1.787  0.6898  3.4451 -0.3643
 7239SOL     OW22932   3.559   4.658   3.084 -0.6328 -0.6126 -0.1379
 7239SOL    HW122933   3.534   4.604   3.159 -0.3509 -0.9596 -0.2976
 7239SOL    HW222934   3.613   4.602   3.030 -0.6011 -0.2712 -0.4652
 7240SOL     OW22935   2.045   4.223   2.016 -0.1731  0.7611  0.2400
 7240SOL    HW122936   1.988   4.296   2.039  1.2348  1.7735  0.6386
 7240SOL    HW222937   2.133   4.259   2.020  0.5823 -1.0094  0.6322
 7241SOL     OW22938   3.124   4.910   1.990 -0.1911 -0.3364 -0.3275
 7241SOL    HW122939   3.099   4.940   2.077  0.0669  0.0638 -0.3929
 7241SOL    HW222940   3.059   4.842   1.969 -1.9842  1.4947 -0.9882
 7242SOL     OW22941   2.560   4.580   3.414 -0.3276  0.1636  0.3301
 7242SOL    HW122942   2.587   4.490   3.429 -1.8762 -0.1624  1.4603
 7242SOL    HW222943   2.465   4.574   3.401 -0.3374  1.5458 -0.4187
 7243SOL     OW22944   3.642   5.817   3.356 -0.1605  0.2414 -0.3518
 7243SOL    HW122945   3.651   5.779   3.269  0.5350  0.4029 -0.3547
 7243SOL    HW222946   3.690   5.757   3.413  0.4274  0.7845 -0.2668
 7244SOL     OW22947   2.582   3.772   3.920 -0.4806  0.2446  0.5628
 7244SOL    HW122948   2.620   3.860   3.921  0.2120 -0.0102  3.1432
 7244SOL    HW222949   2.617   3.732   3.840  3.0767  0.7500  1.6937
 7245SOL     OW22950   2.093   5.440   3.606 -0.3401  0.4653  0.2289
 7245SOL    HW122951   2.075   5.347   3.590 -1.5506  0.9755 -1.6889
 7245SOL    HW222952   2.188   5.447   3.604 -0.2743 -0.3418 -2.3516
 7246SOL     OW22953   3.879   4.575   3.118  0.2414  0.5920 -0.2577
 7246SOL    HW122954   3.815   4.519   3.074  0.6143 -1.2048  1.3413
 7246SOL    HW222955   3.903   4.526   3.196  1.2345  2.6673  0.8026
 7247SOL     OW22956   3.299   3.797   1.818  0.3759  0.4473 -0.0794
 7247SOL    HW122957   3.370   3.814   1.756 -0.1486  0.4186 -0.6963
 7247SOL    HW222958   3.338   3.814   1.904  1.9015 -2.1046 -0.1852
 7248SOL     OW22959   2.641   4.264   2.948  0.0287 -0.4446  0.2461
 7248SOL    HW122960   2.580   4.196   2.977 -1.1172  1.1952  1.9428
 7248SOL    HW222961   2.663   4.311   3.029 -0.2735  2.0120 -1.0188
 7249SOL     OW22962   4.238   4.472   2.992 -0.3978  0.1433 -0.6132
 7249SOL    HW122963   4.252   4.433   2.906 -1.3063  0.1036 -0.7488
 7249SOL    HW222964   4.280   4.412   3.053 -0.1599 -0.0684 -0.9844
 7250SOL     OW22965   3.527   4.577   3.345  0.6705 -0.3349  0.2443
 7250SOL    HW122966   3.546   4.660   3.389  1.3248 -0.9902  1.2620
 7250SOL    HW222967   3.570   4.511   3.400  2.8309 -1.0989 -2.1807
 7251SOL     OW22968   2.410   4.966   2.041 -0.3738  0.1263 -0.2281
 7251SOL    HW122969   2.492   4.999   2.004 -1.4396  2.9249 -0.3761
 7251SOL    HW222970   2.434   4.886   2.088  2.0447 -0.2594 -1.9432
 7252SOL     OW22971   2.500   5.142   2.712 -0.6182 -0.5346 -0.3975
 7252SOL    HW122972   2.546   5.165   2.792 -1.5921 -1.6577  0.5202
 7252SOL    HW222973   2.528   5.053   2.692  0.3811  0.0782 -1.8978
 7253SOL     OW22974   2.949   4.521   2.858 -0.4832 -0.6171  0.4028
 7253SOL    HW122975   2.985   4.546   2.943 -0.0344 -0.0191  0.0429
 7253SOL    HW222976   3.016   4.465   2.819  0.1055  0.5465 -0.2941
 7254SOL     OW22977   3.030   4.205   2.050 -0.0554 -0.5719 -0.3360
 7254SOL    HW122978   3.047   4.299   2.058 -0.1027 -0.5955  0.0667
 7254SOL    HW222979   2.987   4.196   1.965 -1.0882 -0.0690  0.1059
 7255SOL     OW22980   3.776   4.903   2.729 -0.2815  0.0925 -0.2863
 7255SOL    HW122981   3.755   4.955   2.652 -0.1537  2.4996  1.2029
 7255SOL    HW222982   3.865   4.930   2.753  0.4198 -1.9805 -0.2978
 7256SOL     OW22983   2.333   4.886   3.857  0.3188  0.1693 -0.3947
 7256SOL    HW122984   2.348   4.810   3.913 -0.5624  0.2683 -0.0172
 7256SOL    HW222985   2.256   4.929   3.894  0.0335  0.5316 -1.3780
 7257SOL     OW22986   1.767   5.226   2.589 -0.3049  0.1710 -0.2422
 7257SOL    HW122987   1.861   5.238   2.583 -0.3756  0.2721 -1.1734
 7257SOL    HW222988   1.745   5.164   2.520 -1.2455  2.0639 -1.7179
 7258SOL     OW22989   2.294   5.156   3.374 -0.1384 -0.7267 -0.3754
 7258SOL    HW122990   2.332   5.098   3.308  0.2038 -1.0771  0.1211
 7258SOL    HW222991   2.365   5.214   3.401 -0.8670  1.0069 -1.9931
 7259SOL     OW22992   2.349   3.909   2.545  0.1826  0.2488 -0.1288
 7259SOL    HW122993   2.272   3.852   2.533  0.0699  0.5679 -0.9767
 7259SOL    HW222994   2.397   3.868   2.617  0.2883 -1.1277 -0.9417
 7260SOL     OW22995   4.005   4.998   3.275  0.0891  0.1538 -0.5322
 7260SOL    HW122996   3.929   4.942   3.258 -0.0516  0.3514 -0.5526
 7260SOL    HW222997   3.977   5.085   3.249  0.1120  0.3371  0.0383
 7261SOL     OW22998   2.415   3.551   2.789 -0.2426 -0.2174 -0.2749
 7261SOL    HW122999   2.352   3.557   2.860 -0.1971  0.6767 -0.2940
 7261SOL    HW223000   2.498   3.581   2.827  0.2813 -1.7937 -0.1329
 7262SOL     OW23001   2.823   5.011   2.534 -0.0739 -0.0455 -0.2121
 7262SOL    HW123002   2.764   5.063   2.479 -0.5619 -0.0558  0.2964
 7262SOL    HW223003   2.852   5.073   2.602  2.0079  0.5120 -1.5271
 7263SOL     OW23004   3.175   3.689   3.085 -0.1662  0.3125 -0.4147
 7263SOL    HW123005   3.197   3.630   3.157 -2.2196 -1.6706 -1.2698
 7263SOL    HW223006   3.256   3.699   3.035  0.0802 -2.6802 -0.7758
 7264SOL     OW23007   3.463   3.891   3.424  0.6944  0.0501 -0.5339
 7264SOL    HW123008   3.535   3.891   3.360  1.1342 -1.6403 -0.1025
 7264SOL    HW223009   3.507   3.885   3.509  0.0653  0.0082 -0.2072
 7265SOL     OW23010   2.369   5.118   2.297  0.0413  0.2374 -0.0537
 7265SOL    HW123011   2.398   5.093   2.209  1.0876 -1.4022  0.6976
 7265SOL    HW223012   2.278   5.145   2.285  0.9448  2.7916 -2.0641
 7266SOL     OW23013   2.249   5.387   2.927 -0.0577  0.6312  0.0648
 7266SOL    HW123014   2.244   5.476   2.891 -1.2676  0.8710  0.7507
 7266SOL    HW223015   2.226   5.398   3.019 -0.0050 -0.3680  0.2024
 7267SOL     OW23016   2.789   3.839   2.338  0.1086  0.1435 -0.1646
 7267SOL    HW123017   2.808   3.925   2.301 -0.9340  0.5294  0.1533
 7267SOL    HW223018   2.734   3.796   2.272  2.6068 -1.2961 -1.4754
 7268SOL     OW23019   3.058   3.878   2.735  0.5625 -0.1382 -0.0888
 7268SOL    HW123020   3.032   3.928   2.812  0.6451  1.5664 -1.1042
 7268SOL    HW223021   3.084   3.793   2.769  0.2647  0.4466  1.7108
 7269SOL     OW23022   1.881   4.848   1.794  0.3546 -0.6170  0.2292
 7269SOL    HW123023   1.908   4.922   1.740 -0.6810  1.2597  2.1259
 7269SOL    HW223024   1.963   4.815   1.831  0.8819 -0.7962 -1.0608
 7270SOL     OW23025   2.623   5.149   2.415 -0.4714 -0.4501  0.4302
 7270SOL    HW123026   2.605   5.205   2.491 -0.3106 -0.2079  0.2911
 7270SOL    HW223027   2.538   5.133   2.376 -0.3895  0.9829 -0.4366
 7271SOL     OW23028   2.318   3.673   3.515  0.0972  0.2556 -0.4280
 7271SOL    HW123029   2.315   3.592   3.463 -1.8795  1.2994 -2.0445
 7271SOL    HW223030   2.332   3.642   3.605  0.5713 -1.7951 -1.1346
 7272SOL     OW23031   2.334   3.835   4.851 -0.8127 -0.5508  0.2128
 7272SOL    HW123032   2.415   3.784   4.850 -0.0507  0.4350  2.8643
 7272SOL    HW223033   2.344   3.897   4.779  0.0798 -1.4276 -0.4505
 7273SOL     OW23034   1.412   4.427   4.683 -0.0507 -0.6144 -0.1530
 7273SOL    HW123035   1.465   4.502   4.710 -1.3585  0.1770  0.2983
 7273SOL    HW223036   1.458   4.351   4.718  0.4611  0.0917  0.7402
 7274SOL     OW23037   1.997   4.686   5.137 -0.7033 -0.2961 -0.0400
 7274SOL    HW123038   2.008   4.754   5.204  0.2739  0.8312 -1.2732
 7274SOL    HW223039   1.923   4.634   5.167  0.5658 -0.7331  2.6420
 7275SOL     OW23040   3.230   5.432   4.389 -0.7127 -0.1935 -0.0802
 7275SOL    HW123041   3.202   5.342   4.376 -0.4349 -0.2237 -0.5144
 7275SOL    HW223042   3.324   5.431   4.371 -0.5841  0.0593  0.5539
 7276SOL     OW23043   2.622   4.668   4.400  0.2349 -0.1240  0.1023
 7276SOL    HW123044   2.709   4.693   4.369 -0.0240  1.4863  0.5972
 7276SOL    HW223045   2.587   4.747   4.441 -1.7378 -0.5360 -0.6676
 7277SOL     OW23046   2.486   4.896   4.525 -0.1381 -0.0633  0.3840
 7277SOL    HW123047   2.544   4.971   4.508 -1.6158  1.0796  0.1274
 7277SOL    HW223048   2.473   4.896   4.620  0.0757 -0.1506  0.4121
 7278SOL     OW23049   2.913   4.485   5.726 -0.6375 -0.0517 -0.1267
 7278SOL    HW123050   2.933   4.532   5.645 -1.3307 -0.5195 -0.5737
 7278SOL    HW223051   2.996   4.444   5.750  1.0714  4.0987  2.1831
 7279SOL     OW23052   2.855   4.767   4.313  0.5819 -0.5312  0.8998
 7279SOL    HW123053   2.949   4.772   4.292  0.3587  1.1175  0.1375
 7279SOL    HW223054   2.818   4.847   4.277 -1.2811 -1.5138  0.4926
 7280SOL     OW23055   3.026   4.954   5.725 -0.2783 -0.0598 -0.5429
 7280SOL    HW123056   3.036   4.911   5.640  2.4512  0.1799 -0.4416
 7280SOL    HW223057   3.116   4.965   5.757 -1.2389 -1.9316  3.3326
 7281SOL     OW23058   1.848   4.830   4.960 -1.0377  0.1926  0.6808
 7281SOL    HW123059   1.914   4.786   5.014 -1.1682  0.0696  0.7404
 7281SOL    HW223060   1.895   4.905   4.922 -0.8697  0.1192  0.7394
 7282SOL     OW23061   3.455   5.658   5.673  0.5899 -0.1309 -0.1267
 7282SOL    HW123062   3.481   5.579   5.625  1.4066  0.2370 -0.3015
 7282SOL    HW223063   3.482   5.640   5.764  0.5869 -0.1294 -0.1256
 7283SOL     OW23064   2.442   4.089   5.005  0.1853 -0.1242  0.0757
 7283SOL    HW123065   2.528   4.096   5.046 -0.0213 -1.8523  0.9203
 7283SOL    HW223066   2.438   3.999   4.972 -1.0650  0.1050 -0.4553
 7284SOL     OW23067   3.202   4.096   4.740 -0.0210 -0.0773  0.4667
 7284SOL    HW123068   3.238   4.160   4.680 -1.8279  0.7943  0.2401
 7284SOL    HW223069   3.242   4.116   4.824  0.0535  0.8328  0.2172
 7285SOL     OW23070   2.236   5.398   4.142 -0.3307  0.2490  0.2194
 7285SOL    HW123071   2.234   5.332   4.212 -0.3549 -0.0164 -0.0307
 7285SOL    HW223072   2.329   5.403   4.117 -0.2166  0.8364  0.7314
 7286SOL     OW23073   2.592   4.441   5.255  0.1440  0.3671  0.0769
 7286SOL    HW123074   2.634   4.435   5.169 -0.0443 -2.6527  0.1139
 7286SOL    HW223075   2.505   4.404   5.243 -0.1215  0.4751  1.4405
 7287SOL     OW23076   1.985   5.272   4.294 -0.5261 -0.1847  0.5660
 7287SOL    HW123077   2.038   5.349   4.317  0.3796 -1.1980  2.1187
 7287SOL    HW223078   1.935   5.298   4.217 -0.8212  2.2065  1.4966
 7288SOL     OW23079   2.026   5.023   4.852 -0.6186 -0.5126  0.5760
 7288SOL    HW123080   2.051   4.950   4.796 -2.6930  0.5879 -2.0279
 7288SOL    HW223081   2.099   5.085   4.843 -0.3539 -0.8822  0.1075
 7289SOL     OW23082   2.442   5.450   5.581  0.0224  0.5209 -0.1332
 7289SOL    HW123083   2.410   5.537   5.555  0.8410  0.6049 -0.8990
 7289SOL    HW223084   2.504   5.426   5.512  0.7186 -0.1507  0.7180
 7290SOL     OW23085   2.564   4.653   3.944  0.3924  0.5179 -0.2338
 7290SOL    HW123086   2.473   4.629   3.964  0.5615 -1.4150 -1.5719
 7290SOL    HW223087   2.575   4.632   3.852  2.9001 -1.7566  0.4709
 7291SOL     OW23088   3.562   3.831   5.216  0.5980  0.0257 -0.2779
 7291SOL    HW123089   3.589   3.849   5.126 -0.5843  0.0847 -0.6412
 7291SOL    HW223090   3.596   3.744   5.235  0.7342 -0.0449 -0.8365
 7292SOL     OW23091   1.764   4.636   4.368  0.4169  0.1491 -0.1836
 7292SOL    HW123092   1.757   4.548   4.331 -0.4702 -0.0030  0.3144
 7292SOL    HW223093   1.783   4.693   4.293 -1.7956 -0.0787 -0.9766
 7293SOL     OW23094   3.883   5.613   4.240 -0.2067 -0.0818 -0.4470
 7293SOL    HW123095   3.937   5.541   4.272 -1.2700  0.1079  2.0164
 7293SOL    HW223096   3.872   5.670   4.316 -2.5903  0.6508 -1.2527
 7294SOL     OW23097   2.044   5.237   3.846  0.2271 -0.2326  0.4513
 7294SOL    HW123098   2.052   5.203   3.756 -1.2621 -0.3437  0.3398
 7294SOL    HW223099   2.134   5.248   3.875  0.7394 -0.7273 -0.8647
 7295SOL     OW23100   1.985   4.610   5.521 -0.1413  0.4694 -1.3608
 7295SOL    HW123101   2.040   4.638   5.594  0.2697 -0.7994 -1.1717
 7295SOL    HW223102   1.978   4.688   5.466 -0.5387  1.4842  0.0589
 7296SOL     OW23103   2.120   5.495   4.476 -0.0308 -0.0253  0.0872
 7296SOL    HW123104   2.095   5.523   4.564 -1.0316  0.8662 -0.4593
 7296SOL    HW223105   2.132   5.576   4.427  2.0645 -0.4669 -0.2277
 7297SOL     OW23106   2.933   5.026   5.410  0.1833  0.1772 -0.4034
 7297SOL    HW123107   3.011   5.069   5.446  0.0069 -0.6787  1.0810
 7297SOL    HW223108   2.959   4.935   5.397 -1.3699 -0.9732  3.2241
 7298SOL     OW23109   2.563   3.663   4.173 -0.2478  0.3383  0.3429
 7298SOL    HW123110   2.556   3.715   4.093 -0.2495  2.0678  1.4164
 7298SOL    HW223111   2.648   3.687   4.209 -0.3816 -0.1799  1.0147
 7299SOL     OW23112   2.309   4.832   5.297 -0.1680 -0.1492  0.1566
 7299SOL    HW123113   2.278   4.852   5.209  0.0104  0.6663  0.2753
 7299SOL    HW223114   2.289   4.739   5.309  0.4611 -0.4339 -0.9984
 7300SOL     OW23115   2.832   5.495   5.553  0.0082 -0.6085  0.6098
 7300SOL    HW123116   2.842   5.551   5.630  0.3330 -0.1875  0.2709
 7300SOL    HW223117   2.855   5.408   5.583 -1.9568 -0.8617  1.5298
 7301SOL     OW23118   2.586   4.470   5.639  0.0346 -0.1431 -0.0960
 7301SOL    HW123119   2.634   4.409   5.583  0.8060  1.7089 -1.5702
 7301SOL    HW223120   2.558   4.540   5.580 -2.0900  0.2476  1.2568
 7302SOL     OW23121   3.372   5.242   5.161 -0.0259  0.2191  0.0732
 7302SOL    HW123122   3.459   5.212   5.189 -0.8147 -0.7636  1.5638
 7302SOL    HW223123   3.390   5.301   5.088  1.9163  0.2074  0.4886
 7303SOL     OW23124   3.687   5.768   4.184 -0.2473  0.4034  0.4811
 7303SOL    HW123125   3.678   5.795   4.093  1.6635 -0.1587  0.0908
 7303SOL    HW223126   3.734   5.685   4.181 -1.1558 -0.2019  1.9380
 7304SOL     OW23127   2.781   4.602   4.070 -0.4463  0.5915  0.6419
 7304SOL    HW123128   2.773   4.639   4.158 -2.1676  0.9783  0.3481
 7304SOL    HW223129   2.705   4.635   4.023 -0.3470 -0.8147 -0.5623
 7305SOL     OW23130   3.311   4.156   4.975  0.0557  0.0252  0.6632
 7305SOL    HW123131   3.289   4.173   5.066 -0.3764  1.6623  0.2788
 7305SOL    HW223132   3.386   4.212   4.957 -1.1341  1.3234 -0.5270
 7306SOL     OW23133   3.332   5.533   3.852  0.3358 -0.3061  0.2480
 7306SOL    HW123134   3.315   5.593   3.924  0.5107  0.8842 -0.6634
 7306SOL    HW223135   3.376   5.458   3.892  1.6085  0.9003  1.1954
 7307SOL     OW23136   2.250   5.137   4.797 -0.1638 -0.3413 -0.4376
 7307SOL    HW123137   2.298   5.096   4.726 -1.6318  1.3283 -2.5600
 7307SOL    HW223138   2.312   5.199   4.836  0.3112 -0.3707 -1.1315
 7308SOL     OW23139   2.930   4.753   5.329 -0.8306 -0.4713  0.2666
 7308SOL    HW123140   2.962   4.775   5.242  0.4733  3.0501  1.4593
 7308SOL    HW223141   2.982   4.677   5.355 -1.8959 -2.1899 -2.2615
 7309SOL     OW23142   2.443   4.651   5.988  0.1519 -0.7808  0.0745
 7309SOL    HW123143   2.520   4.599   5.965  1.2544  0.6869  0.3658
 7309SOL    HW223144   2.422   4.700   5.908  0.3717 -0.1393  0.4051
 7310SOL     OW23145   3.014   4.057   5.108 -0.6185  0.8580 -0.0208
 7310SOL    HW123146   3.079   4.120   5.139 -1.3005  2.2297 -1.2534
 7310SOL    HW223147   2.963   4.105   5.042 -1.5027 -0.8335 -0.6379
 7311SOL     OW23148   3.279   4.300   4.592  0.3210  0.0749 -0.7217
 7311SOL    HW123149   3.347   4.348   4.543  1.1901  0.7890  1.1047
 7311SOL    HW223150   3.212   4.281   4.526  2.0836 -0.2932 -2.5204
 7312SOL     OW23151   2.165   4.854   4.663 -0.8787 -0.1071  0.3283
 7312SOL    HW123152   2.224   4.820   4.730 -0.8683 -0.7230  0.0176
 7312SOL    HW223153   2.117   4.776   4.632  0.1531 -0.1105 -1.4097
 7313SOL     OW23154   1.922   5.729   5.604 -0.0693  0.7063 -0.1315
 7313SOL    HW123155   1.892   5.820   5.605 -1.9774  0.1335 -1.1164
 7313SOL    HW223156   1.964   5.717   5.689 -0.6281  2.2350  0.3994
 7314SOL     OW23157   2.673   4.066   3.661 -0.5050  0.1414  0.1904
 7314SOL    HW123158   2.675   3.995   3.597  1.1207  0.5923 -0.2821
 7314SOL    HW223159   2.759   4.064   3.703  0.0044  2.4829 -0.5728
 7315SOL     OW23160   3.464   4.899   4.220  0.0313  0.1209 -0.1042
 7315SOL    HW123161   3.421   4.980   4.192  1.2212  0.6630 -0.4042
 7315SOL    HW223162   3.430   4.833   4.159 -1.6061  0.1789  0.6763
 7316SOL     OW23163   2.121   4.223   4.422  0.4122  0.1067 -0.1962
 7316SOL    HW123164   2.090   4.153   4.479 -0.8315 -0.0430 -1.0238
 7316SOL    HW223165   2.214   4.204   4.409  0.0296 -1.5656 -0.6351
 7317SOL     OW23166   2.898   5.123   4.332 -0.0511  0.5702 -0.0748
 7317SOL    HW123167   2.907   5.152   4.241  1.1445  0.8464  0.1158
 7317SOL    HW223168   2.983   5.141   4.371  0.7143 -2.8254  0.1555
 7318SOL     OW23169   1.473   5.684   4.452 -0.1342 -0.0621 -0.3218
 7318SOL    HW123170   1.464   5.699   4.358  1.2456 -0.6880 -0.5881
 7318SOL    HW223171   1.421   5.606   4.470 -1.3572  0.7331 -0.3257
 7319SOL     OW23172   3.488   4.769   4.445 -0.1904 -0.0567  0.1461
 7319SOL    HW123173   3.564   4.713   4.431 -0.6664 -0.8286  0.5846
 7319SOL    HW223174   3.480   4.820   4.364  0.3271 -0.5289 -0.2083
 7320SOL     OW23175   2.472   5.366   5.169  0.4765  0.1851 -0.2297
 7320SOL    HW123176   2.431   5.450   5.190 -1.6396 -0.6516 -0.7389
 7320SOL    HW223177   2.558   5.371   5.210  1.2707  3.3701 -1.8812
 7321SOL     OW23178   2.019   4.553   4.074  0.2798  0.2561  0.2423
 7321SOL    HW123179   1.932   4.518   4.089  0.3286 -0.8754 -1.6698
 7321SOL    HW223180   2.064   4.543   4.157 -0.9607 -0.5606  0.8492
 7322SOL     OW23181   3.117   4.519   4.399 -0.0184  0.8368  0.2440
 7322SOL    HW123182   3.172   4.577   4.347 -3.4367  3.8088 -0.4153
 7322SOL    HW223183   3.071   4.466   4.334 -1.7736  2.1514  0.3585
 7323SOL     OW23184   1.803   5.347   5.763 -0.6695  0.4549  0.3218
 7323SOL    HW123185   1.724   5.302   5.792 -0.7045  0.6677  0.5579
 7323SOL    HW223186   1.849   5.282   5.709 -0.8872  0.2524  0.3783
 7324SOL     OW23187   3.245   5.952   4.239  0.4828 -0.3392  0.0979
 7324SOL    HW123188   3.246   5.858   4.222 -0.9125 -0.2054 -0.9218
 7324SOL    HW223189   3.155   5.970   4.267  0.7522  0.6875  0.3565
 7325SOL     OW23190   2.369   4.324   5.178  0.2403  0.0783 -0.4375
 7325SOL    HW123191   2.334   4.394   5.122  0.5198  0.5036 -0.0826
 7325SOL    HW223192   2.414   4.265   5.117  1.3874  1.0555 -0.5514
 7326SOL     OW23193   2.469   5.561   4.165  0.1354 -0.3691 -0.0914
 7326SOL    HW123194   2.470   5.626   4.235 -2.2673 -2.5336  2.2087
 7326SOL    HW223195   2.391   5.583   4.113  0.4760 -0.2408 -0.5531
 7327SOL     OW23196   3.216   3.891   4.363 -0.1476  0.4307  0.7086
 7327SOL    HW123197   3.262   3.880   4.447 -0.8086 -0.8889  0.9242
 7327SOL    HW223198   3.284   3.883   4.297  0.0809 -0.6488  1.0580
 7328SOL     OW23199   1.737   5.365   5.056 -0.2736 -0.3653  0.2163
 7328SOL    HW123200   1.652   5.405   5.072  0.4555  1.0503  0.6774
 7328SOL    HW223201   1.800   5.427   5.092  1.0484 -0.6238 -1.5481
 7329SOL     OW23202   2.609   5.368   4.474 -0.5710  0.3158  0.0772
 7329SOL    HW123203   2.614   5.278   4.443 -0.3001 -0.3467  1.9733
 7329SOL    HW223204   2.616   5.421   4.394  0.4706 -1.3066 -0.9591
 7330SOL     OW23205   1.949   5.003   4.348  0.1159 -0.6225  0.6054
 7330SOL    HW123206   2.028   4.955   4.372  1.8129  1.0876 -1.1476
 7330SOL    HW223207   1.973   5.095   4.358 -1.2477 -0.0188 -1.0637
 7331SOL     OW23208   2.313   3.831   4.017 -0.0468  0.0251 -0.2357
 7331SOL    HW123209   2.295   3.851   3.925 -0.7715  0.7015  0.0449
 7331SOL    HW223210   2.403   3.798   4.017 -0.1461 -0.2785 -1.2245
 7332SOL     OW23211   2.851   3.949   5.598  0.4013 -0.0454 -0.1526
 7332SOL    HW123212   2.941   3.926   5.623  0.3351  1.6155  1.9337
 7332SOL    HW223213   2.860   3.998   5.517  1.2518 -0.9354 -0.6105
 7333SOL     OW23214   2.665   5.088   4.482  0.1609 -0.4333  0.8577
 7333SOL    HW123215   2.707   5.132   4.556 -0.2479 -0.7540  1.2851
 7333SOL    HW223216   2.735   5.078   4.417  0.0813  1.5737  0.4045
 7334SOL     OW23217   3.351   4.726   5.023 -0.0639  0.1208  0.2454
 7334SOL    HW123218   3.355   4.638   4.986 -2.0532  1.4394 -3.6998
 7334SOL    HW223219   3.430   4.769   4.990 -1.3189  0.9986 -1.8029
 7335SOL     OW23220   2.405   4.813   4.809 -0.2076 -0.3623  0.2868
 7335SOL    HW123221   2.450   4.730   4.822  1.1917  0.1549 -1.0026
 7335SOL    HW223222   2.467   4.879   4.837 -0.4090  0.3339 -0.8391
 7336SOL     OW23223   2.887   4.203   4.921  0.4761  0.8271 -0.1903
 7336SOL    HW123224   2.920   4.290   4.900 -2.5346  2.6122  1.6659
 7336SOL    HW223225   2.826   4.183   4.850  0.7645  0.4714 -0.3389
 7337SOL     OW23226   2.773   4.120   4.270 -0.2766 -0.0820  0.5026
 7337SOL    HW123227   2.859   4.077   4.276  0.4664  1.4515  1.7095
 7337SOL    HW223228   2.720   4.077   4.337 -0.3197 -0.7498  0.0428
 7338SOL     OW23229   2.699   3.655   3.685  0.2204 -0.1410 -0.7848
 7338SOL    HW123230   2.656   3.723   3.633  0.4842  0.1548 -0.6199
 7338SOL    HW223231   2.792   3.670   3.672  0.2853 -1.1531 -1.6147
 7339SOL     OW23232   2.997   3.927   4.172  0.2854 -0.2131 -0.0736
 7339SOL    HW123233   3.034   4.011   4.144 -1.3690  0.6835  0.2974
 7339SOL    HW223234   3.069   3.865   4.163  1.6256  1.2831 -0.1380
 7340SOL     OW23235   3.159   4.828   5.180  0.0016  0.2952  0.3978
 7340SOL    HW123236   3.219   4.791   5.116  0.6010 -1.5132  1.9031
 7340SOL    HW223237   3.138   4.916   5.147  1.4223 -0.0237 -1.4661
 7341SOL     OW23238   3.461   5.174   4.828  0.1237 -0.2429  0.2949
 7341SOL    HW123239   3.480   5.101   4.887  0.2871  1.0114  1.8875
 7341SOL    HW223240   3.438   5.133   4.745  0.2086 -2.0892  1.1302
 7342SOL     OW23241   2.276   5.269   4.364  0.1095 -0.6230 -0.1257
 7342SOL    HW123242   2.237   5.193   4.408 -2.5480 -0.2935 -1.7066
 7342SOL    HW223243   2.231   5.344   4.401  3.3510  0.4540  2.0948
 7343SOL     OW23244   3.474   5.669   4.583 -0.4438 -0.4460 -0.0218
 7343SOL    HW123245   3.475   5.601   4.516 -3.4413 -0.1396 -0.5046
 7343SOL    HW223246   3.508   5.747   4.540  2.3067 -1.3304  0.3247
 7344SOL     OW23247   3.065   4.182   4.101 -0.3752  0.0069  0.5999
 7344SOL    HW123248   3.009   4.258   4.083  1.1101  1.1314  0.6035
 7344SOL    HW223249   3.114   4.169   4.021 -3.3336 -3.4943 -0.9298
 7345SOL     OW23250   2.000   4.366   4.942  0.0217 -0.1920 -0.3149
 7345SOL    HW123251   2.059   4.382   4.869  0.1598  1.4218  0.1116
 7345SOL    HW223252   2.020   4.436   5.005 -2.8130  0.8794 -0.4587
 7346SOL     OW23253   2.041   3.622   5.038  0.0592 -0.2110 -0.4024
 7346SOL    HW123254   1.967   3.681   5.057  0.2172 -0.3327  0.6039
 7346SOL    HW223255   2.118   3.678   5.045  0.1692 -0.4163  0.0080
 7347SOL     OW23256   2.985   4.404   4.641  0.2412 -1.0429  0.6336
 7347SOL    HW123257   3.026   4.421   4.556 -1.0189  1.2454  0.3938
 7347SOL    HW223258   2.928   4.328   4.625  0.7556 -1.2518 -0.2944
 7348SOL     OW23259   2.781   3.184   5.001  0.1183 -0.0797 -0.0648
 7348SOL    HW123260   2.726   3.134   4.941  0.2916 -0.5041  0.1219
 7348SOL    HW223261   2.797   3.124   5.074  0.7593  0.0645 -0.0756
 7349SOL     OW23262   3.616   5.375   4.653 -0.1609 -0.2954  0.0787
 7349SOL    HW123263   3.689   5.329   4.613 -0.3965 -0.5353 -0.0776
 7349SOL    HW223264   3.593   5.320   4.729 -0.5105 -0.4902 -0.1692
 7350SOL     OW23265   3.162   4.729   4.575 -0.5256 -0.3478 -0.2044
 7350SOL    HW123266   3.237   4.744   4.518 -0.2410 -1.7726 -0.2610
 7350SOL    HW223267   3.132   4.640   4.553 -1.5712 -0.2133  0.5553
 7351SOL     OW23268   2.427   5.199   3.935  0.3919  0.7796 -0.5652
 7351SOL    HW123269   2.503   5.244   3.899  1.5759  0.1185  1.0096
 7351SOL    HW223270   2.440   5.107   3.911  0.3061  0.5974  0.0802
 7352SOL     OW23271   3.441   5.077   4.549 -0.2817 -0.4914 -0.4007
 7352SOL    HW123272   3.430   4.989   4.587 -0.0374  0.5024  2.1684
 7352SOL    HW223273   3.536   5.091   4.548 -0.3599  0.6531  1.6798
 7353SOL     OW23274   3.395   4.263   3.442  0.2132 -0.7232 -0.1700
 7353SOL    HW123275   3.453   4.250   3.367 -0.7844 -0.8842 -0.9373
 7353SOL    HW223276   3.447   4.313   3.505  1.7840 -2.3762 -0.0838
 7354SOL     OW23277   2.609   4.348   4.368 -0.4870 -0.0913 -0.2592
 7354SOL    HW123278   2.616   4.442   4.351  1.5783  0.0800  1.1636
 7354SOL    HW223279   2.682   4.310   4.319 -0.3194 -0.7331  0.4746
 7355SOL     OW23280   3.039   5.283   5.281  0.4281 -0.4500  0.0719
 7355SOL    HW123281   2.998   5.326   5.207 -1.0588 -0.1422  1.0181
 7355SOL    HW223282   3.091   5.351   5.323  0.3269 -0.3119 -0.0253
 7356SOL     OW23283   3.162   5.091   5.118  0.3920 -0.1289  0.1347
 7356SOL    HW123284   3.110   5.152   5.170  0.9830  1.2159 -0.8233
 7356SOL    HW223285   3.250   5.129   5.116  1.0259 -1.5034  0.3127
 7357SOL     OW23286   2.550   5.060   4.806  0.2881  0.1846  0.2729
 7357SOL    HW123287   2.635   5.089   4.772 -0.6812  2.1853 -0.5988
 7357SOL    HW223288   2.514   5.137   4.849 -1.3247 -0.4812  0.1863
 7358SOL     OW23289   2.920   4.993   4.888 -0.1955 -0.5746  0.2003
 7358SOL    HW123290   2.886   5.005   4.977 -1.0999  1.9679 -0.4040
 7358SOL    HW223291   3.012   5.017   4.894  0.3418 -2.5852  0.8324
 7359SOL     OW23292   2.743   3.923   4.924 -0.5594 -0.4247 -1.0438
 7359SOL    HW123293   2.817   3.877   4.885 -2.0229 -1.8058 -2.3434
 7359SOL    HW223294   2.731   4.000   4.868  0.1099  0.0302 -0.5837
 7360SOL     OW23295   2.650   4.674   5.406  0.2279  0.3001 -0.1597
 7360SOL    HW123296   2.619   4.599   5.356  0.0171  0.4273 -0.2222
 7360SOL    HW223297   2.741   4.685   5.381  1.1946 -1.7675  2.0150
 7361SOL     OW23298   3.114   4.561   4.129  0.4347  0.2853  0.3662
 7361SOL    HW123299   3.205   4.566   4.100  0.5369  0.5637  0.7297
 7361SOL    HW223300   3.063   4.556   4.049  0.8424 -1.0780  0.1648
 7362SOL     OW23301   2.257   4.561   5.354 -0.0692 -0.3009 -0.3569
 7362SOL    HW123302   2.251   4.562   5.450  3.8998  0.0493  0.0644
 7362SOL    HW223303   2.209   4.483   5.328 -2.6324  0.4426  1.6839
 7363SOL     OW23304   3.217   4.503   5.348 -0.1315 -0.3017  0.2229
 7363SOL    HW123305   3.209   4.530   5.439  0.3966  0.2373  0.1150
 7363SOL    HW223306   3.303   4.536   5.320 -0.9022  0.8519 -0.8947
 7364SOL     OW23307   1.681   5.736   4.935 -0.2931 -0.1049 -0.3362
 7364SOL    HW123308   1.633   5.663   4.973  2.4801 -2.4706 -0.9898
 7364SOL    HW223309   1.647   5.743   4.845 -2.0518  0.9307  0.3570
 7365SOL     OW23310   1.466   4.988   4.217 -0.2591 -0.0721  0.1714
 7365SOL    HW123311   1.487   4.906   4.171 -1.2971 -1.2430  1.7063
 7365SOL    HW223312   1.546   5.008   4.266  0.0138 -0.1189 -0.2419
 7366SOL     OW23313   2.333   4.719   4.352  0.1080  0.0742 -0.3956
 7366SOL    HW123314   2.354   4.793   4.409  1.1494 -0.2643 -0.3027
 7366SOL    HW223315   2.416   4.671   4.346 -0.3792 -0.6980 -1.0093
 7367SOL     OW23316   3.352   5.284   4.033 -0.1901 -0.2532  0.2553
 7367SOL    HW123317   3.307   5.269   3.950 -0.6673 -2.1747  0.8088
 7367SOL    HW223318   3.325   5.210   4.088  2.9747 -1.0338  0.9064
 7368SOL     OW23319   3.231   4.921   4.838  0.5964  0.3434 -0.0569
 7368SOL    HW123320   3.213   4.851   4.901 -1.7435  0.4732 -0.4764
 7368SOL    HW223321   3.295   4.883   4.777  1.2591 -0.5329  1.1475
 7369SOL     OW23322   1.496   5.556   5.060  0.1381 -0.5822  0.0368
 7369SOL    HW123323   1.407   5.534   5.030  0.0910 -2.0531  1.1371
 7369SOL    HW223324   1.484   5.584   5.150  0.6135  0.9762 -0.3629
 7370SOL     OW23325   2.321   4.422   5.723  0.1201  0.0948  0.0607
 7370SOL    HW123326   2.416   4.432   5.719  0.2890 -0.6557  1.5119
 7370SOL    HW223327   2.307   4.327   5.726 -0.7221  0.1783 -0.7122
 7371SOL     OW23328   3.205   3.832   5.155  0.1392  0.8144 -0.0401
 7371SOL    HW123329   3.264   3.876   5.216  1.1050  0.7658 -0.9199
 7371SOL    HW223330   3.123   3.881   5.162  0.3900  1.1270  0.9042
 7372SOL     OW23331   2.395   3.946   5.276 -0.7120 -0.5226  0.2507
 7372SOL    HW123332   2.347   3.942   5.359 -0.1672 -0.5629  0.5702
 7372SOL    HW223333   2.455   4.020   5.286 -0.8840 -0.3117 -0.2416
 7373SOL     OW23334   2.255   5.032   4.488  0.3955 -0.2453  0.1793
 7373SOL    HW123335   2.342   5.003   4.515  0.4504 -0.4303 -0.1963
 7373SOL    HW223336   2.195   4.978   4.540  0.4901  1.0080  1.6554
 7374SOL     OW23337   3.403   4.489   4.847 -0.0554  0.6826  0.1321
 7374SOL    HW123338   3.326   4.463   4.797 -0.3454  1.6822  0.0412
 7374SOL    HW223339   3.444   4.406   4.874 -0.6534  0.1496 -0.5870
 7375SOL     OW23340   3.072   4.200   4.407  0.1587 -0.1682  0.3594
 7375SOL    HW123341   3.084   4.150   4.327  1.3997 -1.1226  1.1154
 7375SOL    HW223342   3.013   4.147   4.460  0.9453 -0.5208  0.8904
 7376SOL     OW23343   2.052   3.910   5.309 -0.8198  0.1875 -0.0393
 7376SOL    HW123344   2.065   3.994   5.266 -1.9497  0.5333  0.2452
 7376SOL    HW223345   2.117   3.908   5.380 -1.3301  1.1999  0.4785
 7377SOL     OW23346   1.659   5.660   5.286 -0.3395 -0.2616 -0.0791
 7377SOL    HW123347   1.739   5.634   5.240  1.1193  0.3085  1.9896
 7377SOL    HW223348   1.648   5.753   5.264 -1.1633 -0.6218 -1.3105
 7378SOL     OW23349   2.566   4.563   4.845  0.3921  0.1211 -0.2822
 7378SOL    HW123350   2.594   4.486   4.895 -0.8095  0.3322  0.7554
 7378SOL    HW223351   2.640   4.624   4.852  0.9330 -0.5281 -0.2430
 7379SOL     OW23352   1.801   4.184   4.282  0.1451 -0.2740  0.1222
 7379SOL    HW123353   1.712   4.218   4.291  0.1071 -0.2698 -0.2323
 7379SOL    HW223354   1.858   4.258   4.299  0.0586  0.1283 -1.2054
 7380SOL     OW23355   2.916   4.499   4.917  0.0310 -0.2643  0.4477
 7380SOL    HW123356   2.984   4.493   4.850  0.0828 -1.1820  0.5697
 7380SOL    HW223357   2.867   4.578   4.895  0.4522 -0.2020 -0.2834
 7381SOL     OW23358   2.833   5.032   5.152  0.6993 -0.1577  0.2615
 7381SOL    HW123359   2.752   5.072   5.184  0.5735  0.1436 -0.4275
 7381SOL    HW223360   2.892   5.033   5.228  0.7789  1.5550  0.2128
 7382SOL     OW23361   1.958   5.211   5.609 -0.2172  0.4899  0.1437
 7382SOL    HW123362   2.051   5.215   5.589  0.2203  0.5573  2.0397
 7382SOL    HW223363   1.940   5.119   5.625 -1.2116 -0.0327 -3.1071
 7383SOL     OW23364   3.198   4.486   3.526 -0.1993  0.3653 -0.5669
 7383SOL    HW123365   3.235   4.448   3.606  2.4316  2.3616 -0.7058
 7383SOL    HW223366   3.227   4.428   3.456  1.5445  1.1452 -0.5194
 7384SOL     OW23367   2.792   5.173   4.725 -0.5319  0.2146  0.0595
 7384SOL    HW123368   2.853   5.247   4.727  0.4642 -0.6064  1.0678
 7384SOL    HW223369   2.836   5.103   4.774 -1.9535 -0.6705  0.1487
 7385SOL     OW23370   1.908   4.693   4.612  0.1586  0.1597  0.9439
 7385SOL    HW123371   1.882   4.670   4.523  1.1805 -0.1424  0.7106
 7385SOL    HW223372   1.840   4.753   4.642 -0.4709 -0.1352  0.1496
 7386SOL     OW23373   2.112   4.489   4.324 -0.7070  0.0376  0.0153
 7386SOL    HW123374   2.151   4.550   4.387 -1.8297  0.4591  0.3281
 7386SOL    HW223375   2.109   4.405   4.370 -0.8127  0.1673  0.2489
 7387SOL     OW23376   3.056   4.235   5.494 -0.1867  0.2092  0.1409
 7387SOL    HW123377   2.975   4.280   5.469 -0.2532  0.7902  1.3587
 7387SOL    HW223378   3.092   4.287   5.566 -1.2005 -2.6065  2.9089
 7388SOL     OW23379   2.967   4.457   5.207  0.0825  0.7371  0.3684
 7388SOL    HW123380   2.982   4.483   5.116 -0.6274  0.1243  0.0661
 7388SOL    HW223381   3.051   4.473   5.251  0.7942 -0.0419 -0.6552
 7389SOL     OW23382   1.674   4.895   3.530 -0.5305 -0.1230 -0.0444
 7389SOL    HW123383   1.631   4.930   3.452  1.4575  1.3763 -0.5529
 7389SOL    HW223384   1.754   4.854   3.497 -0.3893 -0.7828  1.0720
 7390SOL     OW23385   1.532   5.675   4.735  0.1930 -0.3192 -0.5373
 7390SOL    HW123386   1.557   5.583   4.734 -0.3681 -0.4700 -0.9188
 7390SOL    HW223387   1.517   5.697   4.644  1.0799  0.3724 -0.5360
 7391SOL     OW23388   1.803   5.231   4.827  0.1948 -0.2751  0.0811
 7391SOL    HW123389   1.770   5.264   4.910  3.0514  1.9221  0.4926
 7391SOL    HW223390   1.863   5.160   4.851  0.0775 -0.4767 -0.2091
 7392SOL     OW23391   2.678   4.392   5.013 -0.3558  0.0551 -0.2004
 7392SOL    HW123392   2.701   4.303   4.985 -2.0258 -0.2845 -0.5871
 7392SOL    HW223393   2.762   4.437   5.018  0.6591 -1.8249  1.0560
 7393SOL     OW23394   1.599   4.770   5.089 -0.7072 -0.2634  0.0309
 7393SOL    HW123395   1.581   4.854   5.130 -2.7675 -0.2512 -0.7634
 7393SOL    HW223396   1.686   4.780   5.050 -0.6573  1.2677  0.4867
 7394SOL     OW23397   1.974   4.207   5.568  0.8293 -0.2202 -0.3228
 7394SOL    HW123398   2.017   4.287   5.537 -0.1685  0.1740 -0.7497
 7394SOL    HW223399   1.936   4.169   5.489  2.5086 -1.9284 -0.3813
 7395SOL     OW23400   2.762   3.979   3.979 -0.0019  0.6373 -0.2066
 7395SOL    HW123401   2.783   4.041   4.049 -0.6169  0.3037  0.2810
 7395SOL    HW223402   2.824   4.000   3.910  0.3289  1.2655  0.2661
 7396SOL     OW23403   3.552   4.248   4.930 -0.1780 -0.8443 -0.4199
 7396SOL    HW123404   3.612   4.267   5.002  0.7619 -1.2939 -1.0661
 7396SOL    HW223405   3.609   4.226   4.856 -1.1020  0.0707 -1.4493
 7397SOL     OW23406   2.118   5.467   5.727 -0.4910 -0.1151  0.2179
 7397SOL    HW123407   2.038   5.424   5.696 -0.7238  0.1296  0.4743
 7397SOL    HW223408   2.124   5.445   5.820 -0.2590 -0.1360  0.1994
 7398SOL     OW23409   2.668   4.143   4.768  0.1926 -0.4037 -0.8443
 7398SOL    HW123410   2.633   4.225   4.732 -0.1564 -0.9748 -1.8226
 7398SOL    HW223411   2.613   4.074   4.731  1.2671 -1.1890 -1.0352
 7399SOL     OW23412   2.536   5.077   5.313 -0.2323  0.2400  0.6494
 7399SOL    HW123413   2.552   5.007   5.377 -0.0343  1.9671  2.6302
 7399SOL    HW223414   2.443   5.072   5.295  0.0170 -1.4029 -0.3817
 7400SOL     OW23415   2.012   4.160   3.968 -0.3482 -0.3772 -0.0271
 7400SOL    HW123416   2.059   4.218   4.028 -1.7375  0.1044  0.6422
 7400SOL    HW223417   2.079   4.125   3.910  0.9754 -0.4474  1.4763
 7401SOL     OW23418   1.564   4.931   5.309  0.1970 -0.4351 -0.4849
 7401SOL    HW123419   1.620   4.858   5.335  1.3488  0.2622 -0.8984
 7401SOL    HW223420   1.476   4.903   5.331  0.8083 -1.1203  1.2255
 7402SOL     OW23421   2.775   4.744   4.909 -0.5795  0.6440  0.2178
 7402SOL    HW123422   2.819   4.821   4.874  0.9411 -0.0194  0.5597
 7402SOL    HW223423   2.704   4.778   4.962 -0.4765  1.7712 -0.3444
 7403SOL     OW23424   3.026   4.478   3.783 -0.6437 -0.0668  0.0508
 7403SOL    HW123425   3.057   4.568   3.769  0.4515 -0.6675 -1.6948
 7403SOL    HW223426   3.102   4.423   3.763 -1.3483 -1.3925  0.9099
 7404SOL     OW23427   3.228   5.543   4.646 -0.2359 -0.5490  0.2190
 7404SOL    HW123428   3.209   5.510   4.559  0.8582 -0.3906 -0.0955
 7404SOL    HW223429   3.314   5.583   4.638 -0.8794  1.0484  0.9554
 7405SOL     OW23430   2.439   5.326   4.893 -0.3385 -0.3581 -0.0238
 7405SOL    HW123431   2.459   5.363   4.979 -0.9178  0.3765 -0.1877
 7405SOL    HW223432   2.466   5.394   4.831  0.2323 -0.9508 -0.4358
 7406SOL     OW23433   1.636   5.111   4.657 -0.6104 -0.2645 -0.0239
 7406SOL    HW123434   1.683   5.177   4.708 -3.6921  1.7116  0.5174
 7406SOL    HW223435   1.646   5.031   4.709 -0.0845  0.7005  1.4556
 7407SOL     OW23436   2.547   5.537   5.954  0.3855  0.7916 -0.2175
 7407SOL    HW123437   2.553   5.475   5.881  1.6544  0.5387  0.0794
 7407SOL    HW223438   2.456   5.568   5.951 -0.0576 -0.4854 -0.8503
 7408SOL     OW23439   3.140   5.656   4.271  0.3016 -0.0412  0.4494
 7408SOL    HW123440   3.166   5.584   4.327 -0.8878 -0.8117  0.0457
 7408SOL    HW223441   3.051   5.677   4.298  0.0513  0.1968 -0.5139
 7409SOL     OW23442   2.870   5.568   5.821  0.2932  0.3661  0.2973
 7409SOL    HW123443   2.898   5.545   5.910 -0.0568  2.0564  0.8803
 7409SOL    HW223444   2.861   5.663   5.822  1.7461  0.6132 -2.0064
 7410SOL     OW23445   3.208   5.071   4.106 -0.1095 -0.1660 -0.0862
 7410SOL    HW123446   3.158   5.001   4.063 -1.1356  1.4603 -1.6971
 7410SOL    HW223447   3.154   5.097   4.181 -1.8640  1.6176 -1.8448
 7411SOL     OW23448   2.263   4.919   5.053 -0.1395  0.0257 -0.3954
 7411SOL    HW123449   2.270   4.993   5.113  0.1444  0.5894 -1.1164
 7411SOL    HW223450   2.290   4.953   4.968 -0.3652 -0.8082 -0.8189
 7412SOL     OW23451   2.155   4.872   3.637  0.3822  0.0328  0.2743
 7412SOL    HW123452   2.191   4.883   3.725  1.0999 -0.5857  0.0685
 7412SOL    HW223453   2.118   4.783   3.638  0.5902 -0.0580 -0.1156
 7413SOL     OW23454   3.269   5.723   5.441  0.1082  0.0159 -0.5839
 7413SOL    HW123455   3.351   5.734   5.393  0.4651  2.1111  0.4005
 7413SOL    HW223456   3.293   5.670   5.518  0.7403  1.2821  0.1142
 7414SOL     OW23457   1.578   3.996   4.185 -0.1527  0.7949 -0.2202
 7414SOL    HW123458   1.660   4.000   4.136 -0.6981  0.5775 -1.1652
 7414SOL    HW223459   1.568   4.083   4.223  0.7274  0.6974  0.2739
 7415SOL     OW23460   2.912   5.236   4.062 -0.3207 -0.1583  0.4688
 7415SOL    HW123461   2.850   5.194   4.003 -1.0339 -2.1969  2.5196
 7415SOL    HW223462   2.858   5.295   4.115 -0.0166  0.1474  0.4416
 7416SOL     OW23463   2.619   4.843   5.107  0.3158  0.1722  0.1343
 7416SOL    HW123464   2.653   4.928   5.136 -0.5147  0.3008  0.7601
 7416SOL    HW223465   2.590   4.800   5.187  0.4875 -0.6010 -0.2104
 7417SOL     OW23466   3.061   4.774   3.811  0.6025 -0.2347  0.2082
 7417SOL    HW123467   2.971   4.773   3.777  0.5291 -1.5598  0.3603
 7417SOL    HW223468   3.108   4.834   3.754  0.2029 -1.4445 -1.4895
 7418SOL     OW23469   3.045   5.380   3.804 -0.5661  0.8238  0.2437
 7418SOL    HW123470   3.125   5.331   3.785  0.2534  2.0602  0.3943
 7418SOL    HW223471   3.030   5.368   3.898  0.2262  1.6962  0.4923
 7419SOL     OW23472   1.991   4.852   5.370 -0.5268  0.7638 -0.0635
 7419SOL    HW123473   2.083   4.854   5.397 -0.2158  1.3312 -1.0976
 7419SOL    HW223474   1.955   4.935   5.400 -1.5705 -0.6405  3.0360
 7420SOL     OW23475   3.178   5.147   4.417  0.6149 -0.4800  0.5257
 7420SOL    HW123476   3.134   5.103   4.489  0.7684 -1.2348  0.1594
 7420SOL    HW223477   3.267   5.161   4.449  0.6153 -0.5894  0.5710
 7421SOL     OW23478   2.927   4.085   4.661 -0.7003 -0.4211 -0.5141
 7421SOL    HW123479   2.931   3.991   4.649  3.5013 -0.6816  1.2641
 7421SOL    HW223480   3.011   4.108   4.700 -1.9154  3.9624  0.0722
 7422SOL     OW23481   2.519   5.177   4.210 -0.5702 -0.8944  0.3128
 7422SOL    HW123482   2.465   5.186   4.289 -0.3328 -1.8606  0.5974
 7422SOL    HW223483   2.460   5.202   4.138 -0.1533  2.2076  0.9041
 7423SOL     OW23484   1.906   5.057   4.064 -0.2716  0.3675  0.5599
 7423SOL    HW123485   1.933   5.142   4.029 -1.9702  0.1288 -1.5542
 7423SOL    HW223486   1.897   5.071   4.158  2.7526  1.5691  0.7908
 7424SOL     OW23487   1.723   4.720   5.472 -0.1779 -0.2225 -0.4628
 7424SOL    HW123488   1.725   4.636   5.518  0.4763  0.7752  1.4152
 7424SOL    HW223489   1.713   4.786   5.541 -1.4123  1.2317 -1.9421
 7425SOL     OW23490   2.822   3.630   5.519  0.2203 -0.2739 -0.1153
 7425SOL    HW123491   2.812   3.668   5.606  0.1284  0.4575 -0.4398
 7425SOL    HW223492   2.906   3.663   5.488  0.2975 -0.6091 -0.2597
 7426SOL     OW23493   2.197   4.113   3.768 -0.0062  0.4558 -0.1248
 7426SOL    HW123494   2.210   4.018   3.764  0.0667  0.4769 -0.4802
 7426SOL    HW223495   2.285   4.149   3.777 -0.0693  0.4720  0.4286
 7427SOL     OW23496   2.111   3.828   4.208 -0.1665  0.0655  0.7242
 7427SOL    HW123497   2.176   3.814   4.139  0.0664  1.5846  0.5994
 7427SOL    HW223498   2.163   3.838   4.288 -0.1744  1.6141  0.5748
 7428SOL     OW23499   3.305   5.217   3.761  0.2386  0.8900  0.1103
 7428SOL    HW123500   3.270   5.234   3.674 -3.0181 -2.8063  0.3960
 7428SOL    HW223501   3.389   5.173   3.745  0.4019  1.5950 -1.0576
 7429SOL     OW23502   2.246   4.517   5.004  0.2247  0.5377 -0.0660
 7429SOL    HW123503   2.286   4.537   4.919 -3.9485  0.9208 -2.1876
 7429SOL    HW223504   2.217   4.602   5.037  1.2028  0.2993  1.5034
 7430SOL     OW23505   3.325   5.478   4.907 -0.4199 -0.0022 -0.0300
 7430SOL    HW123506   3.304   5.509   4.819  1.2814 -0.4462 -0.6349
 7430SOL    HW223507   3.281   5.539   4.966 -2.2611 -0.1547 -1.1582
 7431SOL     OW23508   2.806   4.368   5.404 -0.3177  0.5879  0.0325
 7431SOL    HW123509   2.731   4.394   5.352  0.8814  1.2653 -1.4393
 7431SOL    HW223510   2.882   4.399   5.354  1.0558 -2.0909  0.2856
 7432SOL     OW23511   2.059   5.295   5.249 -0.0517  0.2013 -0.2477
 7432SOL    HW123512   1.985   5.235   5.253 -0.0527  0.2520  1.9253
 7432SOL    HW223513   2.030   5.373   5.296  0.6218  1.1511 -1.3458
 7433SOL     OW23514   3.504   4.836   4.702  0.0201  0.6850  0.3340
 7433SOL    HW123515   3.584   4.801   4.740 -0.5256 -1.1096 -0.0408
 7433SOL    HW223516   3.510   4.816   4.609 -0.7200  0.7887  0.2528
 7434SOL     OW23517   2.970   3.841   4.482 -0.2485  0.2999 -0.4481
 7434SOL    HW123518   2.966   3.755   4.524 -0.3167 -0.2044 -1.4527
 7434SOL    HW223519   3.057   3.845   4.444 -1.1858 -0.6243 -2.9649
 7435SOL     OW23520   2.059   4.684   3.847 -0.5459  0.4351 -0.4043
 7435SOL    HW123521   2.076   4.644   3.762 -1.1134 -0.0746 -0.2782
 7435SOL    HW223522   2.057   4.611   3.908  1.3173  0.9084  0.3089
 7436SOL     OW23523   2.709   4.949   4.166  0.5559  0.7319 -0.0355
 7436SOL    HW123524   2.715   4.938   4.071 -3.5684  1.9902 -0.6405
 7436SOL    HW223525   2.641   5.015   4.178  0.3836  0.0774  3.8206
 7437SOL     OW23526   2.297   5.165   5.215  0.6166 -0.2428  0.1372
 7437SOL    HW123527   2.217   5.217   5.230  1.1535  0.4133  0.7753
 7437SOL    HW223528   2.364   5.230   5.195  1.1129 -0.7571  0.1205
 7438SOL     OW23529   3.062   5.006   4.607  0.9001  0.1557  0.3615
 7438SOL    HW123530   3.065   4.983   4.699 -2.9777 -0.7277  0.4553
 7438SOL    HW223531   3.030   4.927   4.563 -2.0234  1.8675 -0.9294
 7439SOL     OW23532   3.030   4.843   4.062  0.5050  0.1198 -0.1668
 7439SOL    HW123533   2.938   4.863   4.045  0.7647  0.7758 -0.8063
 7439SOL    HW223534   3.061   4.801   3.982  0.9119  0.4070 -0.1614
 7440SOL     OW23535   3.560   5.436   4.123  0.0219  0.0611 -0.1659
 7440SOL    HW123536   3.481   5.389   4.097  0.1176 -0.1913 -0.0037
 7440SOL    HW223537   3.632   5.384   4.088  0.2884 -1.6636  2.5995
 7441SOL     OW23538   1.761   5.508   5.538 -0.0206 -0.0458 -0.6050
 7441SOL    HW123539   1.820   5.581   5.558  0.0875 -0.3117  0.0695
 7441SOL    HW223540   1.769   5.450   5.613  0.0819 -0.8810 -1.2552
 7442SOL     OW23541   1.647   5.000   4.406  0.7321 -0.2635  0.3864
 7442SOL    HW123542   1.645   5.039   4.493 -0.9891 -0.4116  0.4461
 7442SOL    HW223543   1.740   4.989   4.387  1.1975 -2.6303  3.2650
 7443SOL     OW23544   2.222   5.243   5.536  0.9033  0.2564 -0.2143
 7443SOL    HW123545   2.252   5.241   5.445 -1.8510 -0.3390 -1.1969
 7443SOL    HW223546   2.247   5.331   5.567  1.8074  0.5027 -1.5468
 7444SOL     OW23547   2.240   4.331   4.050 -0.1387 -0.6640 -0.4102
 7444SOL    HW123548   2.202   4.368   4.130  1.3425 -0.5421  0.2669
 7444SOL    HW223549   2.314   4.279   4.081 -1.0249 -2.6859 -1.5037
 7445SOL     OW23550   2.231   4.376   4.746  0.5463  0.1447  0.0100
 7445SOL    HW123551   2.271   4.363   4.660 -2.3273  0.3311 -1.4579
 7445SOL    HW223552   2.240   4.291   4.790 -0.6465 -0.9047 -1.7076
 7446SOL     OW23553   2.195   5.878   4.915  0.1927  0.6333  0.3185
 7446SOL    HW123554   2.119   5.925   4.950 -0.6968 -0.4230 -0.1407
 7446SOL    HW223555   2.208   5.805   4.975 -0.8659 -0.7415 -1.0626
 7447SOL     OW23556   3.194   4.262   5.243 -0.2269  0.0936  0.1883
 7447SOL    HW123557   3.193   4.219   5.328 -0.8262 -0.7741 -0.2407
 7447SOL    HW223558   3.221   4.352   5.262 -0.9064  0.0705  1.3698
 7448SOL     OW23559   2.683   3.938   4.558  0.5830  0.1522  0.5144
 7448SOL    HW123560   2.763   3.986   4.579  1.0739  0.1664 -1.2416
 7448SOL    HW223561   2.713   3.849   4.537 -0.1164 -0.4431  1.9358
 7449SOL     OW23562   2.719   4.905   3.902  0.2374  0.3302 -0.0938
 7449SOL    HW123563   2.727   4.946   3.816 -0.7570  0.3689 -0.1877
 7449SOL    HW223564   2.661   4.830   3.888 -0.6841  0.8671  0.7001
 7450SOL     OW23565   1.842   5.115   5.371 -0.7163  0.2653  0.0012
 7450SOL    HW123566   1.769   5.054   5.359 -0.3085 -0.3430  0.5618
 7450SOL    HW223567   1.823   5.158   5.455 -0.6506  0.4279 -0.0655
 7451SOL     OW23568   3.053   3.771   3.869  0.6961  0.4346 -0.1317
 7451SOL    HW123569   3.148   3.779   3.871  0.6917  0.3315  1.3630
 7451SOL    HW223570   3.021   3.861   3.862  0.8838  0.7116  2.0472
 7452SOL     OW23571   2.811   3.742   4.260 -0.2079 -0.0009 -0.5255
 7452SOL    HW123572   2.827   3.815   4.201  0.6584 -0.9159 -1.4565
 7452SOL    HW223573   2.875   3.754   4.331 -0.5549  0.5258 -0.2938
 7453SOL     OW23574   1.826   4.870   3.893 -0.2655  0.1207 -0.2206
 7453SOL    HW123575   1.861   4.921   3.966 -0.1650 -0.7063  0.3216
 7453SOL    HW223576   1.890   4.800   3.880  0.1934  0.7618 -1.7162
 7454SOL     OW23577   2.849   5.568   4.397 -0.4572  0.5129  0.1227
 7454SOL    HW123578   2.871   5.599   4.485 -0.1668  0.1728  0.1702
 7454SOL    HW223579   2.837   5.473   4.407 -2.5594  0.7260  0.2440
 7455SOL     OW23580   2.337   4.439   6.158  0.0904 -0.0080 -0.3544
 7455SOL    HW123581   2.321   4.498   6.232 -1.0184 -0.0004 -0.5742
 7455SOL    HW223582   2.371   4.495   6.089 -3.3806  0.9883 -1.4657
 7456SOL     OW23583   1.930   4.159   6.666 -0.0813  0.4902 -0.9030
 7456SOL    HW123584   1.980   4.079   6.680 -2.0922 -0.5362  1.0809
 7456SOL    HW223585   1.864   4.135   6.601 -0.4130  0.6501 -0.6323
 7457SOL     OW23586   1.976   4.459   6.295  0.4635 -0.1990  0.0134
 7457SOL    HW123587   2.006   4.370   6.278 -0.3811 -0.0619 -2.6131
 7457SOL    HW223588   1.898   4.469   6.240  0.4789  2.1224  0.3122
 7458SOL     OW23589   2.530   5.032   6.734  0.2109  0.1768 -0.3909
 7458SOL    HW123590   2.534   4.936   6.724 -0.0315 -0.1534  2.1322
 7458SOL    HW223591   2.608   5.053   6.785 -0.8785  1.0363  0.9425
 7459SOL     OW23592   3.414   5.376   6.157  0.0092 -0.0733  0.0150
 7459SOL    HW123593   3.338   5.323   6.180  0.2547 -0.8845 -0.9410
 7459SOL    HW223594   3.484   5.312   6.140  0.8711  0.6516  0.7252
 7460SOL     OW23595   2.721   4.765   6.260 -0.2678 -0.1080  0.1906
 7460SOL    HW123596   2.719   4.858   6.238  0.9192 -0.3941 -1.2136
 7460SOL    HW223597   2.758   4.722   6.183 -3.0065 -2.0539 -0.2033
 7461SOL     OW23598   2.274   4.944   6.725 -0.5218  0.1427 -0.0503
 7461SOL    HW123599   2.364   4.975   6.738 -1.1138  1.2313  1.6530
 7461SOL    HW223600   2.256   4.964   6.633  0.6338  0.8344 -0.1535
 7462SOL     OW23601   2.089   4.190   7.510  0.0962 -0.1943 -0.3036
 7462SOL    HW123602   2.181   4.212   7.529 -0.0663 -0.2148  0.5326
 7462SOL    HW223603   2.075   4.108   7.557 -0.9826  0.9245  1.4172
 7463SOL     OW23604   2.970   4.912   6.570  0.8760  0.0954  0.6705
 7463SOL    HW123605   3.043   4.871   6.523 -0.1659  0.0560 -0.9766
 7463SOL    HW223606   2.900   4.847   6.566  0.3147  0.6716  1.0461
 7464SOL     OW23607   2.814   5.065   7.139  0.0516  0.4438  0.7262
 7464SOL    HW123608   2.732   5.076   7.188 -1.0615  0.5798 -1.0917
 7464SOL    HW223609   2.807   5.126   7.066  0.1057 -2.0525 -1.5308
 7465SOL     OW23610   2.236   4.967   6.456 -1.2553  0.0193 -0.7696
 7465SOL    HW123611   2.188   5.032   6.406  1.5037  1.7698 -1.3897
 7465SOL    HW223612   2.284   4.917   6.390  0.4300  0.6511 -0.0901
 7466SOL     OW23613   3.186   4.895   7.078  0.0056  0.0790  0.4596
 7466SOL    HW123614   3.128   4.874   7.151 -0.3505 -0.3036  0.0778
 7466SOL    HW223615   3.252   4.825   7.080 -0.2995 -0.2253  0.1125
 7467SOL     OW23616   2.827   4.438   6.828  0.0584  0.8087 -0.7215
 7467SOL    HW123617   2.790   4.465   6.913 -1.4533  1.5454 -1.5729
 7467SOL    HW223618   2.754   4.447   6.767  0.7082 -1.1308 -1.8557
 7468SOL     OW23619   3.742   4.072   6.421 -0.1897  0.0969 -0.4902
 7468SOL    HW123620   3.722   4.165   6.412  0.1685  0.2356  0.0980
 7468SOL    HW223621   3.795   4.051   6.344  0.0982  0.4865 -0.4042
 7469SOL     OW23622   1.845   5.664   6.361  0.2553 -0.6119  0.4525
 7469SOL    HW123623   1.876   5.573   6.369  2.1203 -0.0608  0.0322
 7469SOL    HW223624   1.835   5.694   6.451  0.8348 -0.8640  0.6071
 7470SOL     OW23625   3.100   4.478   7.447  0.3044 -0.1659 -0.5649
 7470SOL    HW123626   3.157   4.479   7.370 -0.4980 -0.0844 -1.1714
 7470SOL    HW223627   3.012   4.472   7.411  0.0202 -3.2043  0.4069
 7471SOL     OW23628   1.550   5.000   5.931 -0.7635  0.6110  0.2077
 7471SOL    HW123629   1.636   4.963   5.953 -1.1264 -0.2967  0.1130
 7471SOL    HW223630   1.554   5.090   5.965 -0.1992  0.2084  1.2550
 7472SOL     OW23631   2.306   4.631   6.351 -0.4048 -0.1913  0.4722
 7472SOL    HW123632   2.260   4.603   6.430 -2.9098  1.9728 -0.0651
 7472SOL    HW223633   2.377   4.686   6.382 -0.8425 -0.0564  1.2662
 7473SOL     OW23634   2.197   5.226   6.838  0.2738  0.1309  0.0141
 7473SOL    HW123635   2.136   5.153   6.829  1.3440 -0.8235  0.2951
 7473SOL    HW223636   2.274   5.199   6.788  1.2417  0.4268  1.3036
 7474SOL     OW23637   2.861   5.236   5.612  0.1032 -0.4659  0.2490
 7474SOL    HW123638   2.821   5.177   5.675  3.9702 -2.3114  1.3135
 7474SOL    HW223639   2.901   5.178   5.547 -0.0433  1.2239 -1.4427
 7475SOL     OW23640   3.376   3.594   6.677  0.3397 -0.1497  0.2438
 7475SOL    HW123641   3.415   3.610   6.591  0.4611  0.1845  0.3606
 7475SOL    HW223642   3.451   3.586   6.736  0.2550 -0.3248  0.3291
 7476SOL     OW23643   2.181   4.712   6.106  0.0482 -0.6044 -0.2992
 7476SOL    HW123644   2.201   4.692   6.197 -1.3842 -1.3671 -0.1306
 7476SOL    HW223645   2.267   4.715   6.063  0.7593 -0.1195  1.0729
 7477SOL     OW23646   3.811   5.141   5.823 -0.3362 -0.0192  0.4957
 7477SOL    HW123647   3.874   5.148   5.894  0.3935  2.2430 -0.2945
 7477SOL    HW223648   3.802   5.046   5.809  2.1739 -0.4633  1.2703
 7478SOL     OW23649   1.690   6.036   5.842  0.6140 -0.1049 -0.6371
 7478SOL    HW123650   1.659   5.946   5.841 -0.2299  0.1699 -0.4777
 7478SOL    HW223651   1.634   6.079   5.908  1.4392  0.3789 -0.2382
 7479SOL     OW23652   3.764   4.618   6.416  0.0080 -0.4034 -0.6718
 7479SOL    HW123653   3.724   4.684   6.360  1.4383 -0.5454 -1.9026
 7479SOL    HW223654   3.855   4.614   6.388  0.5748 -1.0910  1.1066
 7480SOL     OW23655   3.344   4.907   6.128  0.1437 -0.1946  0.0534
 7480SOL    HW123656   3.387   4.854   6.061  0.1577 -2.3694  1.6757
 7480SOL    HW223657   3.415   4.958   6.167 -0.0931  2.3988 -2.5504
 7481SOL     OW23658   1.696   4.285   7.153 -0.1340 -0.7070  0.2380
 7481SOL    HW123659   1.669   4.349   7.219  1.4769  0.6418 -0.3404
 7481SOL    HW223660   1.647   4.308   7.075  0.3543 -0.2333  0.0652
 7482SOL     OW23661   1.888   5.080   6.173  0.1557 -0.0454 -0.0883
 7482SOL    HW123662   1.807   5.044   6.136  0.6073 -1.2866  0.0723
 7482SOL    HW223663   1.949   5.083   6.099  0.0889  0.5137 -0.1245
 7483SOL     OW23664   3.256   4.423   7.014  0.5102 -0.0989 -0.0397
 7483SOL    HW123665   3.177   4.472   6.991  0.2871  0.8054  2.3315
 7483SOL    HW223666   3.226   4.332   7.024  0.0956 -0.0294 -0.6435
 7484SOL     OW23667   2.828   3.687   5.835  0.4202 -0.1107  0.2188
 7484SOL    HW123668   2.845   3.726   5.921  0.6157 -1.0430  0.6155
 7484SOL    HW223669   2.881   3.739   5.775  0.0231  0.7646  0.6085
 7485SOL     OW23670   2.011   4.575   6.969  0.0751 -0.1474 -0.0952
 7485SOL    HW123671   2.081   4.614   6.917 -0.3491 -0.5756 -1.0139
 7485SOL    HW223672   1.931   4.615   6.934 -0.1516  0.3970  0.9927
 7486SOL     OW23673   3.496   4.792   5.953  0.2789  0.8106 -0.6605
 7486SOL    HW123674   3.574   4.843   5.973  2.0562 -2.1689  0.7984
 7486SOL    HW223675   3.522   4.737   5.879  0.6442 -2.0695  1.4455
 7487SOL     OW23676   3.553   5.043   7.165  0.6312  0.1535 -0.0681
 7487SOL    HW123677   3.578   5.119   7.218  0.1756  0.8805 -0.8555
 7487SOL    HW223678   3.505   5.081   7.091  0.9375 -0.8561 -0.8035
 7488SOL     OW23679   1.973   4.333   7.093 -0.8506  0.1060  0.5017
 7488SOL    HW123680   1.981   4.415   7.045 -0.8707 -0.4755 -0.5173
 7488SOL    HW223681   1.879   4.326   7.113 -0.9949 -0.0853 -0.1933
 7489SOL     OW23682   3.167   5.432   6.376 -0.5068  0.0834  0.2881
 7489SOL    HW123683   3.259   5.414   6.357 -0.4211  0.3594  0.4381
 7489SOL    HW223684   3.121   5.351   6.352 -0.0915 -0.4358  1.2008
 7490SOL     OW23685   3.549   5.309   5.842 -0.4396  0.5416  0.0098
 7490SOL    HW123686   3.531   5.246   5.773  0.1893  0.9121 -0.5041
 7490SOL    HW223687   3.567   5.256   5.920 -0.2822  0.1013 -0.3261
 7491SOL     OW23688   2.801   4.433   6.167  0.0251 -0.4199  0.3357
 7491SOL    HW123689   2.762   4.472   6.088  0.3217  2.2973  1.4398
 7491SOL    HW223690   2.894   4.453   6.160  0.1315 -0.6089  1.1283
 7492SOL     OW23691   3.557   3.656   6.421 -0.2789  0.2161  0.1946
 7492SOL    HW123692   3.575   3.685   6.332 -0.5690 -0.7393 -0.1964
 7492SOL    HW223693   3.615   3.581   6.434 -2.1486 -1.3817 -0.2168
 7493SOL     OW23694   4.248   5.537   5.775  0.2150  0.4332 -0.6400
 7493SOL    HW123695   4.332   5.493   5.774  0.2778  0.5443 -0.4031
 7493SOL    HW223696   4.185   5.471   5.744  0.8607  1.4022 -4.5980
 7494SOL     OW23697   2.989   4.202   6.824  0.4235  0.6055 -0.0422
 7494SOL    HW123698   2.926   4.273   6.838 -0.0550  0.5000 -1.5092
 7494SOL    HW223699   3.018   4.213   6.734  1.0918 -0.4841  0.0241
 7495SOL     OW23700   3.107   3.445   7.462 -0.3267  0.5282  0.3943
 7495SOL    HW123701   3.020   3.405   7.452  0.8005 -1.5969 -1.7356
 7495SOL    HW223702   3.138   3.457   7.372  2.8045 -1.6536  1.0284
 7496SOL     OW23703   2.425   4.471   7.166 -0.2094 -0.0921 -0.4796
 7496SOL    HW123704   2.350   4.431   7.209  0.8807 -1.3643  0.2970
 7496SOL    HW223705   2.420   4.440   7.075 -1.7965  1.5899 -1.0435
 7497SOL     OW23706   2.984   3.976   6.666  0.2291  0.0444  0.4462
 7497SOL    HW123707   2.977   4.032   6.743  0.8204 -0.1279  0.6339
 7497SOL    HW223708   3.075   3.985   6.638 -0.1170  0.5173 -0.5546
 7498SOL     OW23709   3.168   4.653   5.942 -0.6002 -0.0057  0.0972
 7498SOL    HW123710   3.238   4.592   5.920 -1.2565 -1.0682  0.8518
 7498SOL    HW223711   3.189   4.733   5.893  1.3119 -0.1620  0.5763
 7499SOL     OW23712   1.781   4.671   6.883 -0.1206  0.0423  0.5358
 7499SOL    HW123713   1.704   4.614   6.877 -0.2441  0.3320 -0.9468
 7499SOL    HW223714   1.758   4.748   6.831  1.7296 -0.5631 -1.3249
 7500SOL     OW23715   1.937   5.361   7.492  0.0494  0.5015 -0.2815
 7500SOL    HW123716   1.908   5.340   7.581  0.7746 -2.1971 -0.5910
 7500SOL    HW223717   1.882   5.305   7.436  1.2642  0.3118 -1.3255
 7501SOL     OW23718   2.757   4.203   5.788 -0.1759 -0.4509 -0.2029
 7501SOL    HW123719   2.808   4.274   5.750  0.2960 -0.6810 -0.0087
 7501SOL    HW223720   2.804   4.124   5.765 -0.1445 -0.6288  0.4380
 7502SOL     OW23721   3.298   4.949   5.828 -0.5439  0.7060  0.0224
 7502SOL    HW123722   3.368   4.886   5.846  0.2631  1.3851 -0.6629
 7502SOL    HW223723   3.344   5.030   5.806 -1.5640  1.4008  0.3880
 7503SOL     OW23724   2.421   3.668   6.381 -0.0337  0.1120  0.1921
 7503SOL    HW123725   2.432   3.619   6.299 -0.7401 -1.5275  1.0279
 7503SOL    HW223726   2.501   3.650   6.430  0.1734  0.6872  0.0647
 7504SOL     OW23727   2.837   5.030   6.210  0.0352 -0.3507 -0.0213
 7504SOL    HW123728   2.904   4.962   6.204  0.0069 -0.2170 -2.5812
 7504SOL    HW223729   2.881   5.110   6.180 -1.2145 -0.2617 -1.7542
 7505SOL     OW23730   2.127   5.389   6.574  0.4823  0.2011  0.0149
 7505SOL    HW123731   2.194   5.325   6.594  1.2999  0.7658 -0.7857
 7505SOL    HW223732   2.172   5.454   6.520 -0.7486  0.5093 -0.6861
 7506SOL     OW23733   3.499   5.760   6.715 -0.1009 -0.4625 -0.0065
 7506SOL    HW123734   3.577   5.803   6.682 -0.0476  0.7280  1.5479
 7506SOL    HW223735   3.458   5.721   6.638  0.8093  0.8634 -1.1912
 7507SOL     OW23736   1.895   4.994   5.769  0.1270  0.2309 -0.6403
 7507SOL    HW123737   1.813   4.947   5.749 -0.0684  0.5261 -0.5414
 7507SOL    HW223738   1.941   4.936   5.829 -0.8364  0.8604  0.7612
 7508SOL     OW23739   3.452   4.632   6.215  0.4221 -0.1200 -0.7569
 7508SOL    HW123740   3.507   4.683   6.275  0.0755 -0.9198  0.2838
 7508SOL    HW223741   3.440   4.689   6.139 -0.8589  1.8546  0.8095
 7509SOL     OW23742   2.562   4.876   7.288  0.3150 -0.2863  0.4319
 7509SOL    HW123743   2.490   4.859   7.349  0.6774  0.7307  1.1831
 7509SOL    HW223744   2.576   4.971   7.295  1.9296 -0.5104  0.5409
 7510SOL     OW23745   3.029   5.318   5.829 -0.3260  0.1699 -0.3030
 7510SOL    HW123746   2.949   5.321   5.775 -0.6069 -0.3487  0.0766
 7510SOL    HW223747   3.100   5.323   5.765 -0.5937 -2.9772 -0.9876
 7511SOL     OW23748   2.401   4.348   6.912 -0.4502  0.5700 -0.1806
 7511SOL    HW123749   2.453   4.268   6.912  0.3677  1.0849  0.4471
 7511SOL    HW223750   2.311   4.318   6.896 -0.4927 -0.6996  1.9833
 7512SOL     OW23751   3.811   5.309   5.602  0.1242 -0.4242 -0.9675
 7512SOL    HW123752   3.833   5.239   5.541  3.1242 -2.2994  1.9461
 7512SOL    HW223753   3.793   5.264   5.685  0.4732  2.1651  0.6279
 7513SOL     OW23754   2.032   5.359   6.129 -0.2696 -0.1943 -0.1410
 7513SOL    HW123755   2.125   5.348   6.147 -0.2173 -0.6909 -0.7225
 7513SOL    HW223756   2.013   5.300   6.056 -1.1817 -0.5811  0.3922
 7514SOL     OW23757   3.310   3.882   5.892 -0.1087 -0.6512  0.1553
 7514SOL    HW123758   3.350   3.864   5.808 -0.6737 -0.6420 -0.1215
 7514SOL    HW223759   3.384   3.898   5.951  0.3034 -1.0396 -0.2455
 7515SOL     OW23760   2.012   5.588   6.825 -0.2694 -0.7770 -0.1431
 7515SOL    HW123761   1.976   5.552   6.906  0.7297 -1.0602  0.1970
 7515SOL    HW223762   2.104   5.563   6.827 -0.0909 -0.2419 -1.0671
 7516SOL     OW23763   2.633   5.116   6.388  0.5737 -0.3365  0.1409
 7516SOL    HW123764   2.608   5.201   6.353 -1.1592 -1.1058 -0.6505
 7516SOL    HW223765   2.727   5.111   6.375  0.4210  0.6377 -1.7395
 7517SOL     OW23766   2.515   4.775   6.424 -0.2771  0.8117  0.5789
 7517SOL    HW123767   2.558   4.783   6.509 -0.5907  0.9164  0.7331
 7517SOL    HW223768   2.584   4.788   6.360 -0.2302  1.8263  0.8201
 7518SOL     OW23769   3.594   3.660   6.848  0.0484  0.2378 -0.2260
 7518SOL    HW123770   3.621   3.747   6.817  1.0657  0.6326  1.6204
 7518SOL    HW223771   3.560   3.676   6.936  0.8882 -1.3159  0.4079
 7519SOL     OW23772   2.399   3.564   5.343  0.1639  0.8794  0.2565
 7519SOL    HW123773   2.304   3.551   5.332  0.4896 -2.0068  0.1301
 7519SOL    HW223774   2.413   3.562   5.437  0.3571 -1.4929  0.2191
 7520SOL     OW23775   2.826   3.990   7.004 -0.2642  0.1122 -0.0291
 7520SOL    HW123776   2.881   4.048   6.951 -0.0937 -1.8762 -2.1952
 7520SOL    HW223777   2.883   3.918   7.028 -1.0265 -0.2512  0.7261
 7521SOL     OW23778   2.936   5.390   6.837 -0.2296 -0.3587 -0.0984
 7521SOL    HW123779   2.871   5.442   6.790 -0.6174 -0.8735 -0.1458
 7521SOL    HW223780   3.001   5.367   6.772 -0.1973 -0.1627 -0.1366
 7522SOL     OW23781   3.264   3.811   6.865 -0.0241 -0.1222  0.1682
 7522SOL    HW123782   3.263   3.716   6.873  0.8980 -0.1036  0.6383
 7522SOL    HW223783   3.286   3.827   6.773  3.0003 -0.4076  0.7449
 7523SOL     OW23784   2.521   5.437   6.599  0.5427 -0.0100  0.3368
 7523SOL    HW123785   2.515   5.377   6.673  0.3892 -2.2467 -1.3718
 7523SOL    HW223786   2.431   5.464   6.583  0.6634  1.0778  1.3814
 7524SOL     OW23787   3.061   4.630   6.596  0.5013 -0.3411  0.3436
 7524SOL    HW123788   2.970   4.607   6.576  0.5138  0.0663 -0.2277
 7524SOL    HW223789   3.101   4.645   6.510  1.2617 -1.0557  0.5622
 7525SOL     OW23790   2.342   3.848   6.045 -0.1247 -0.2661  0.2174
 7525SOL    HW123791   2.294   3.924   6.013 -0.0128 -0.4352 -0.3724
 7525SOL    HW223792   2.429   3.882   6.067  0.3042 -0.4106 -1.1331
 7526SOL     OW23793   3.166   4.888   5.459  0.4791  0.0994  0.3833
 7526SOL    HW123794   3.161   4.866   5.366  0.0309  0.1245  0.3986
 7526SOL    HW223795   3.212   4.972   5.461  2.3097 -0.8401  0.3305
 7527SOL     OW23796   2.038   3.617   5.380  0.5117  0.1440  0.7561
 7527SOL    HW123797   2.072   3.704   5.358  1.0197 -0.1217  0.4638
 7527SOL    HW223798   1.973   3.598   5.312  0.1806  0.4168  0.9919
 7528SOL     OW23799   2.834   3.909   6.006  0.1246 -0.3237 -0.6214
 7528SOL    HW123800   2.838   4.001   6.032  1.0291 -0.1706 -1.2406
 7528SOL    HW223801   2.742   3.894   5.983 -0.6288 -0.3363  2.0710
 7529SOL     OW23802   2.855   4.462   7.296  0.2883  0.6072  0.1540
 7529SOL    HW123803   2.831   4.442   7.206  0.9975  0.0914  0.0781
 7529SOL    HW223804   2.773   4.490   7.337 -0.1873  0.1142 -0.4486
 7530SOL     OW23805   2.894   5.308   6.348  0.1128  0.3784 -0.2876
 7530SOL    HW123806   2.838   5.383   6.368  2.6729  2.0381  1.1251
 7530SOL    HW223807   2.900   5.260   6.431  1.8106  0.9903 -0.0236
 7531SOL     OW23808   2.001   4.793   5.918  0.6067  0.3583 -0.5338
 7531SOL    HW123809   2.060   4.754   5.853  1.8386  1.2711 -0.0069
 7531SOL    HW223810   2.045   4.779   6.002 -1.0390 -0.9568  0.1843
 7532SOL     OW23811   2.571   5.335   5.794 -0.2420  0.0152  0.3289
 7532SOL    HW123812   2.611   5.260   5.751  0.7682  0.3653  0.6257
 7532SOL    HW223813   2.515   5.375   5.727 -1.6501 -1.6059  0.4844
 7533SOL     OW23814   3.130   3.980   5.557  0.0858  0.7504 -0.2086
 7533SOL    HW123815   3.210   3.987   5.506  0.1948  0.5560 -0.0645
 7533SOL    HW223816   3.081   4.060   5.536  0.8419  1.4502  0.5998
 7534SOL     OW23817   2.153   4.233   6.876  0.0410 -0.8039 -0.4080
 7534SOL    HW123818   2.077   4.239   6.817 -0.7499  1.3561  0.7513
 7534SOL    HW223819   2.118   4.194   6.956 -0.4561  2.1240  0.9212
 7535SOL     OW23820   2.432   3.925   6.412 -0.9276  0.2763 -0.0910
 7535SOL    HW123821   2.352   3.963   6.374 -0.4277  0.4204 -1.0364
 7535SOL    HW223822   2.433   3.835   6.379 -2.6139 -1.0111  2.8998
 7536SOL     OW23823   2.785   4.124   6.182  0.3237 -0.1418 -0.8680
 7536SOL    HW123824   2.775   4.211   6.144  2.2355  0.1557 -0.7715
 7536SOL    HW223825   2.819   4.141   6.270  2.3204 -0.9905 -1.4301
 7537SOL     OW23826   2.663   3.703   6.521  0.2951 -0.2171 -0.2328
 7537SOL    HW123827   2.727   3.711   6.592  0.8760  0.8774 -0.8583
 7537SOL    HW223828   2.707   3.738   6.444 -0.0324 -2.1411 -1.3651
 7538SOL     OW23829   3.231   4.887   6.428 -0.0250 -0.2164  0.0798
 7538SOL    HW123830   3.273   4.948   6.367 -0.3934 -0.8439 -0.8265
 7538SOL    HW223831   3.294   4.815   6.436  0.0003 -0.1586  0.4093
 7539SOL     OW23832   3.510   4.442   6.961  0.0342 -0.2071  0.4161
 7539SOL    HW123833   3.512   4.488   6.878  0.3207 -0.9142  0.0218
 7539SOL    HW223834   3.417   4.440   6.985 -0.0168  0.2349  0.2504
 7540SOL     OW23835   3.731   4.535   5.891  0.0505 -0.8881  0.0478
 7540SOL    HW123836   3.811   4.587   5.890 -0.8720  0.7762  2.7269
 7540SOL    HW223837   3.676   4.573   5.822  0.1087  0.5644  0.7629
 7541SOL     OW23838   2.040   5.152   5.962 -0.4599  0.3186  0.6504
 7541SOL    HW123839   2.127   5.180   5.933  0.5452 -1.8668  1.3503
 7541SOL    HW223840   2.006   5.101   5.889  0.9118 -2.8238  2.0248
 7542SOL     OW23841   2.544   3.969   5.577  0.0341 -0.2109  0.6259
 7542SOL    HW123842   2.640   3.971   5.583  0.2170  0.5957 -1.4836
 7542SOL    HW223843   2.524   3.885   5.536  0.0479  0.4935 -0.8960
 7543SOL     OW23844   3.623   4.570   7.204  0.1092  0.4124  0.4118
 7543SOL    HW123845   3.585   4.541   7.121 -0.4269  1.1517  0.3997
 7543SOL    HW223846   3.691   4.505   7.222  0.0001  0.0492 -0.4296
 7544SOL     OW23847   3.080   4.585   6.858  0.2893 -0.3307 -0.1761
 7544SOL    HW123848   3.095   4.589   6.764  1.3559  3.4262 -0.0386
 7544SOL    HW223849   2.987   4.565   6.867 -0.3797  1.4392 -2.1799
 7545SOL     OW23850   3.767   5.525   7.310 -0.1077  0.1290  0.5999
 7545SOL    HW123851   3.845   5.576   7.331  1.4145 -2.1343  0.7371
 7545SOL    HW223852   3.771   5.512   7.215 -1.3653  1.5243  0.3085
 7546SOL     OW23853   2.858   4.929   6.816  0.1012  0.1831  0.2436
 7546SOL    HW123854   2.897   4.947   6.731 -1.7120 -1.8030 -1.1100
 7546SOL    HW223855   2.815   5.012   6.841 -0.7666  0.3386 -1.6088
 7547SOL     OW23856   2.651   4.108   6.635 -0.4409 -0.2129  0.3182
 7547SOL    HW123857   2.684   4.025   6.599  0.2363  0.2261 -0.1021
 7547SOL    HW223858   2.711   4.174   6.600 -0.6026  0.3850  1.1540
 7548SOL     OW23859   3.100   5.091   7.363  0.1246  0.0306 -0.1229
 7548SOL    HW123860   3.061   5.004   7.349 -0.6057  0.0971  1.2974
 7548SOL    HW223861   3.090   5.135   7.279 -2.0646 -0.2972 -0.1075
 7549SOL     OW23862   2.401   4.818   5.755  0.2195  0.4468 -0.6097
 7549SOL    HW123863   2.438   4.889   5.806  0.5172  0.7615 -1.2486
 7549SOL    HW223864   2.431   4.835   5.665 -1.6928  0.8780 -1.2135
 7550SOL     OW23865   2.352   4.547   6.699 -0.3033 -0.2520 -0.1396
 7550SOL    HW123866   2.357   4.465   6.748 -0.8220 -0.0741  0.2221
 7550SOL    HW223867   2.280   4.533   6.637 -0.3869 -0.0696 -0.0836
 7551SOL     OW23868   2.921   3.658   6.696  0.2037  0.5487 -0.2685
 7551SOL    HW123869   2.909   3.733   6.754  2.2353  0.7094  0.0180
 7551SOL    HW223870   2.998   3.613   6.730  0.1898 -0.5535 -1.6046
 7552SOL     OW23871   1.664   5.379   6.900 -0.2421 -0.3024  0.7413
 7552SOL    HW123872   1.682   5.343   6.813 -1.9861  0.0682  0.1802
 7552SOL    HW223873   1.624   5.307   6.949  2.5867 -1.1611  2.0182
 7553SOL     OW23874   1.753   4.848   6.041 -0.1905  0.0775 -0.0704
 7553SOL    HW123875   1.737   4.807   6.126 -3.0270  0.6165 -0.2383
 7553SOL    HW223876   1.807   4.785   5.993  0.1834 -0.9140  1.5893
 7554SOL     OW23877   2.635   4.455   6.371  0.3772 -0.0012 -0.0912
 7554SOL    HW123878   2.682   4.426   6.293  0.4335  0.7052 -0.3290
 7554SOL    HW223879   2.586   4.533   6.342 -0.2806 -0.2383  0.3581
 7555SOL     OW23880   3.254   5.339   5.630 -0.6733 -0.1970 -0.1437
 7555SOL    HW123881   3.339   5.294   5.631  0.0134  1.0584 -0.6006
 7555SOL    HW223882   3.259   5.397   5.554 -1.4055  0.9140  0.6414
 7556SOL     OW23883   3.418   5.272   6.454 -0.1969  0.1141  0.1700
 7556SOL    HW123884   3.435   5.231   6.370  1.6380  0.7100  0.2172
 7556SOL    HW223885   3.403   5.199   6.514 -0.3411 -0.3502 -0.4230
 7557SOL     OW23886   3.364   4.438   6.044  0.0648 -0.1130 -0.1670
 7557SOL    HW123887   3.391   4.488   6.122  0.6936 -0.6414 -0.0378
 7557SOL    HW223888   3.440   4.442   5.986  0.4979 -1.7113  0.2467
 7558SOL     OW23889   1.810   5.282   6.673 -0.3326  0.1382  0.3834
 7558SOL    HW123890   1.897   5.321   6.665 -0.3653 -0.0798 -1.2527
 7558SOL    HW223891   1.820   5.192   6.643 -1.3908  0.5133 -1.2039
 7559SOL     OW23892   2.431   4.166   7.605 -0.0485 -0.0458 -0.4904
 7559SOL    HW123893   2.526   4.177   7.612  0.0845 -0.8101 -0.9571
 7559SOL    HW223894   2.418   4.128   7.518 -0.6889 -0.8701 -0.0501
 7560SOL     OW23895   3.456   4.055   7.134 -0.2160  0.3118 -0.0217
 7560SOL    HW123896   3.436   3.985   7.196 -0.2267 -0.4510 -0.8725
 7560SOL    HW223897   3.371   4.084   7.101 -0.1155 -1.6665 -2.2512
 7561SOL     OW23898   3.249   3.687   7.543 -0.6316  0.1600 -0.2944
 7561SOL    HW123899   3.192   3.736   7.602 -0.7802  1.1806 -1.2747
 7561SOL    HW223900   3.197   3.610   7.518 -0.5809 -0.2727  0.8501
 7562SOL     OW23901   2.633   3.783   7.396  0.1949  0.0516 -0.0923
 7562SOL    HW123902   2.728   3.793   7.408  0.0021  0.7373  0.9917
 7562SOL    HW223903   2.616   3.692   7.420  0.4433  0.1987  0.6541
 7563SOL     OW23904   2.580   4.768   6.748  0.4502  0.2024  0.1853
 7563SOL    HW123905   2.533   4.686   6.729 -1.1387  1.2154 -0.4528
 7563SOL    HW223906   2.586   4.770   6.844 -0.3913 -0.1922  0.2601
 7564SOL     OW23907   3.596   3.893   6.577  0.2813  0.2339 -0.0651
 7564SOL    HW123908   3.643   3.936   6.506  1.3096 -0.5834  0.0891
 7564SOL    HW223909   3.580   3.804   6.546  1.5186 -0.4148  1.0032
 7565SOL     OW23910   3.102   4.426   6.146  0.4804 -0.1191  0.2031
 7565SOL    HW123911   3.098   4.521   6.142 -0.0312  0.0045  2.3922
 7565SOL    HW223912   3.175   4.403   6.088  2.2312  1.8086  1.4922
 7566SOL     OW23913   2.229   3.924   6.990  0.0710  0.0674 -0.0449
 7566SOL    HW123914   2.320   3.940   7.014  0.3491 -1.2639 -0.1253
 7566SOL    HW223915   2.178   3.980   7.048  0.9771  3.2054 -2.0352
 7567SOL     OW23916   1.730   4.537   7.350 -0.1985 -0.1679  0.1678
 7567SOL    HW123917   1.765   4.623   7.327 -1.4080 -0.4082 -3.0705
 7567SOL    HW223918   1.808   4.483   7.364  0.6508  0.7571 -0.7764
 7568SOL     OW23919   2.481   3.870   6.682 -0.2791 -0.2264  0.4402
 7568SOL    HW123920   2.487   3.805   6.612 -1.0562 -0.5841  0.6934
 7568SOL    HW223921   2.493   3.954   6.638  1.7033 -0.5587  0.2451
 7569SOL     OW23922   3.736   4.125   7.396  0.2573 -0.2102  0.0134
 7569SOL    HW123923   3.810   4.067   7.410  0.5227  0.4845  1.6768
 7569SOL    HW223924   3.659   4.069   7.409  0.5100 -0.2757  1.3225
 7570SOL     OW23925   2.538   3.978   6.163 -0.0672  0.2000 -0.6153
 7570SOL    HW123926   2.534   3.966   6.258  1.7866 -0.0310 -0.5303
 7570SOL    HW223927   2.626   4.015   6.148  0.5080 -1.7633 -2.4257
 7571SOL     OW23928   2.896   4.730   7.000 -0.0876  0.3644 -0.2976
 7571SOL    HW123929   2.989   4.712   6.991 -0.6374 -2.9770 -0.5077
 7571SOL    HW223930   2.877   4.791   6.928  2.0154  1.9407  0.3567
 7572SOL     OW23931   2.957   4.875   7.269 -0.3273 -0.0166 -0.3625
 7572SOL    HW123932   2.902   4.938   7.222 -0.2364  0.3541  0.0172
 7572SOL    HW223933   2.923   4.789   7.245 -0.5159  0.1848 -0.8112
 7573SOL     OW23934   3.892   5.023   7.231 -0.2327  0.0388  0.6219
 7573SOL    HW123935   3.877   4.944   7.284 -0.4421 -1.2290 -1.2431
 7573SOL    HW223936   3.829   5.017   7.160  2.0789  0.0015 -1.5716
 7574SOL     OW23937   1.965   3.879   7.308  0.0393  0.0990  0.2675
 7574SOL    HW123938   2.060   3.889   7.301  0.1607 -1.2895 -0.5972
 7574SOL    HW223939   1.930   3.927   7.233  0.0856  0.3076  0.3800
 7575SOL     OW23940   3.131   4.651   5.583 -0.6915  0.5045 -0.1612
 7575SOL    HW123941   3.207   4.617   5.631 -1.5389 -1.6816 -0.2560
 7575SOL    HW223942   3.163   4.731   5.541  1.2108  0.2723  0.7339
 7576SOL     OW23943   3.154   4.905   6.790  0.2577  0.2803 -0.0600
 7576SOL    HW123944   3.089   4.838   6.770  0.4365  0.1817 -0.3255
 7576SOL    HW223945   3.150   4.917   6.885 -0.6290  0.7710 -0.1486
 7577SOL     OW23946   2.411   5.018   6.226  0.3314  0.1081 -0.4595
 7577SOL    HW123947   2.450   4.993   6.142 -0.7759 -0.6953 -0.7524
 7577SOL    HW223948   2.486   5.037   6.283  1.1012  0.0418 -1.4344
 7578SOL     OW23949   2.131   4.425   6.568  1.1801 -0.0923 -0.5821
 7578SOL    HW123950   2.080   4.422   6.487  1.4647  0.3286 -0.7788
 7578SOL    HW223951   2.169   4.337   6.575  4.5360  0.9674 -3.1200
 7579SOL     OW23952   2.985   3.722   7.003  0.4382  0.6506 -0.3855
 7579SOL    HW123953   3.063   3.683   6.963  0.5180  0.5373 -0.1241
 7579SOL    HW223954   2.918   3.654   6.997  0.7637  0.2058  0.6703
 7580SOL     OW23955   3.465   3.218   7.258  0.2673  0.2150  0.4234
 7580SOL    HW123956   3.528   3.190   7.192 -0.0849 -2.7587  1.2092
 7580SOL    HW223957   3.385   3.236   7.209  0.6418  0.2713 -0.1789
 7581SOL     OW23958   1.551   5.133   5.502  0.0910  0.2066  0.1303
 7581SOL    HW123959   1.554   5.109   5.409  1.7084  2.7653 -0.5842
 7581SOL    HW223960   1.557   5.229   5.502  3.3940  0.1879  2.9326
 7582SOL     OW23961   1.617   5.414   6.467  0.2665  0.0198  0.5077
 7582SOL    HW123962   1.582   5.370   6.544  0.8155  0.5055  1.0521
 7582SOL    HW223963   1.700   5.369   6.450 -0.6949 -1.3057 -0.9362
 7583SOL     OW23964   2.043   5.132   6.375  0.3402 -0.1745  0.4350
 7583SOL    HW123965   2.103   5.199   6.343  1.6959 -2.0650 -1.3091
 7583SOL    HW223966   1.979   5.122   6.304 -1.1478  0.7066  1.6008
 7584SOL     OW23967   3.172   4.180   7.059 -0.0303  0.2256 -0.6419
 7584SOL    HW123968   3.120   4.152   7.134  0.5476 -0.2959 -0.4217
 7584SOL    HW223969   3.124   4.147   6.983 -1.1654  1.6413 -0.5899
 7585SOL     OW23970   1.816   4.401   6.745  0.4765 -0.1349  0.0064
 7585SOL    HW123971   1.886   4.460   6.774  1.0487  0.2515 -2.0003
 7585SOL    HW223972   1.861   4.321   6.720  0.0303 -0.4002  0.0456
 7586SOL     OW23973   1.827   3.801   6.673  0.0064  0.1793 -0.1863
 7586SOL    HW123974   1.897   3.782   6.736 -1.0493  1.4124  1.4446
 7586SOL    HW223975   1.873   3.818   6.591  1.5590  0.1359  0.6300
 7587SOL     OW23976   2.997   4.682   7.650  0.1028  0.0479 -0.1090
 7587SOL    HW123977   3.016   4.628   7.574 -0.2797  0.2981 -0.3832
 7587SOL    HW223978   3.078   4.732   7.665  1.0019 -1.6391  1.0389
 7588SOL     OW23979   2.453   4.091   5.799 -0.5774  0.0894 -0.1594
 7588SOL    HW123980   2.544   4.115   5.819 -0.3260 -2.7498  3.1774
 7588SOL    HW223981   2.456   4.053   5.711  1.3973  0.3975 -0.2604
 7589SOL     OW23982   1.783   5.159   7.346 -0.2672  0.2957  0.2409
 7589SOL    HW123983   1.693   5.137   7.371  0.4259 -0.3818  2.3298
 7589SOL    HW223984   1.825   5.074   7.332  0.5088  0.5272  1.0964
 7590SOL     OW23985   2.602   4.164   6.897 -0.5178  0.6952 -0.6397
 7590SOL    HW123986   2.597   4.086   6.953 -0.2747  1.2305  0.1555
 7590SOL    HW223987   2.610   4.130   6.808  1.5615 -0.2323 -0.1541
 7591SOL     OW23988   2.584   5.174   7.252  0.7910 -0.1936 -0.3327
 7591SOL    HW123989   2.610   5.266   7.261 -0.1211 -0.0454  1.1119
 7591SOL    HW223990   2.532   5.172   7.172 -1.4034  1.1501  0.9292
 7592SOL     OW23991   2.225   4.070   5.966  0.1753  0.4797 -0.4725
 7592SOL    HW123992   2.233   4.112   6.052 -0.5683  1.3974 -0.8275
 7592SOL    HW223993   2.311   4.082   5.925 -0.1003  1.9461 -0.6748
 7593SOL     OW23994   2.222   4.363   7.301 -0.1886  0.0794 -0.1830
 7593SOL    HW123995   2.211   4.435   7.363  0.0511 -0.7365  0.8467
 7593SOL    HW223996   2.167   4.386   7.226 -4.2813 -1.0189  2.1692
 7594SOL     OW23997   3.292   3.979   6.633  0.4339 -0.3587 -0.2299
 7594SOL    HW123998   3.339   4.062   6.642 -0.0070 -0.1371  0.0650
 7594SOL    HW223999   3.339   3.932   6.564  1.4210 -0.3738  0.4288
 7595SOL     OW24000   3.329   4.335   6.494  0.7121 -0.5653  0.0545
 7595SOL    HW124001   3.342   4.322   6.400  1.0238 -0.6099  0.1011
 7595SOL    HW224002   3.387   4.272   6.535 -1.9258 -3.0084  0.3103
 7596SOL     OW24003   3.691   5.532   6.544 -0.4739  0.5930 -0.0713
 7596SOL    HW124004   3.653   5.461   6.597 -0.4116  1.4637  1.1756
 7596SOL    HW224005   3.657   5.516   6.456  0.7769 -1.8816 -0.2001
 7597SOL     OW24006   3.220   5.619   6.778 -0.1965 -0.1143  0.1792
 7597SOL    HW124007   3.182   5.542   6.736  0.7412  0.4228 -1.7664
 7597SOL    HW224008   3.305   5.589   6.810  0.0448  0.0181 -0.3226
 7598SOL     OW24009   2.024   4.991   6.813  0.4963  0.0537  0.4150
 7598SOL    HW124010   1.963   4.979   6.740  0.9252  0.6245 -0.0501
 7598SOL    HW224011   2.110   4.971   6.776  0.4477 -2.7659  1.5894
 7599SOL     OW24012   1.940   5.258   7.115 -0.0970  0.2967  0.1135
 7599SOL    HW124013   1.928   5.342   7.070 -1.8702  0.0261  0.0193
 7599SOL    HW224014   1.856   5.241   7.158  0.3790 -1.2136  0.5136
 7600SOL     OW24015   4.092   4.944   6.115 -0.5466 -1.0840  0.2979
 7600SOL    HW124016   4.172   4.917   6.070 -1.8545 -3.3435 -0.8484
 7600SOL    HW224017   4.067   5.026   6.073  1.2959 -0.1543  0.9161
 7601SOL     OW24018   1.822   5.313   7.736 -0.1209 -0.2357 -0.1970
 7601SOL    HW124019   1.873   5.233   7.747  1.0631  0.4994 -0.1760
 7601SOL    HW224020   1.750   5.306   7.798  0.8686 -0.5800  0.9326
 7602SOL     OW24021   3.087   4.845   6.183  0.4189 -0.6569  0.2740
 7602SOL    HW124022   3.108   4.838   6.276 -1.0578  1.3562  0.8403
 7602SOL    HW224023   3.168   4.875   6.142  0.3677  1.1302  1.3989
 7603SOL     OW24024   3.435   5.287   7.068 -0.1557 -0.6091 -0.1888
 7603SOL    HW124025   3.483   5.344   7.127 -2.8138  1.0755  0.5283
 7603SOL    HW224026   3.431   5.335   6.985 -0.1708 -0.9467 -0.3857
 7604SOL     OW24027   3.049   5.084   6.019 -0.1124 -0.0022 -0.4280
 7604SOL    HW124028   3.012   5.006   5.977 -0.5333  0.0812 -0.2207
 7604SOL    HW224029   3.077   5.139   5.946  3.7574 -1.9409 -0.6496
 7605SOL     OW24030   3.604   5.517   6.290 -0.0634 -0.2353  0.1202
 7605SOL    HW124031   3.550   5.473   6.225 -1.4141 -1.1335  1.7684
 7605SOL    HW224032   3.640   5.593   6.244 -2.4276  0.1942 -1.1788
 7606SOL     OW24033   4.115   4.221   6.234  0.0566  0.1840 -0.7150
 7606SOL    HW124034   4.201   4.227   6.193 -0.8243  1.5148 -2.5468
 7606SOL    HW224035   4.099   4.128   6.243  2.0631 -0.0851  0.5621
 7607SOL     OW24036   1.962   3.911   6.450 -0.4039  0.5726 -0.3547
 7607SOL    HW124037   2.047   3.956   6.444 -0.0217  0.0358  0.8033
 7607SOL    HW224038   1.898   3.978   6.423  0.2673  1.4167  0.0877
 7608SOL     OW24039   3.244   5.124   5.418  0.0944  0.2284 -0.0300
 7608SOL    HW124040   3.328   5.144   5.459 -0.7630  2.0442  0.9527
 7608SOL    HW224041   3.212   5.208   5.386 -1.1809 -0.4934 -0.7220
 7609SOL     OW24042   2.758   5.186   6.847  0.6036 -0.2532 -0.3886
 7609SOL    HW124043   2.676   5.232   6.866 -0.1122 -1.6210 -0.0777
 7609SOL    HW224044   2.822   5.256   6.837 -0.3168  0.7936  0.7127
 7610SOL     OW24045   2.682   4.485   5.911 -0.0029 -0.2312 -0.1856
 7610SOL    HW124046   2.648   4.415   5.855  2.3177 -1.0378 -0.7045
 7610SOL    HW224047   2.738   4.537   5.853  0.1708  0.6632  0.7502
 7611SOL     OW24048   3.522   5.644   5.363 -0.1542  0.3429 -0.3155
 7611SOL    HW124049   3.534   5.601   5.448 -1.4813  1.2558  0.3716
 7611SOL    HW224050   3.604   5.629   5.317 -0.0692 -1.7855  0.3868
 7612SOL     OW24051   2.222   4.726   6.887  0.3606  0.2509 -0.5556
 7612SOL    HW124052   2.235   4.820   6.872  1.2145  0.3063  0.4073
 7612SOL    HW224053   2.267   4.684   6.814 -1.0778  0.5905 -1.6789
 7613SOL     OW24054   3.313   5.100   6.640  0.6089 -0.2521  0.0792
 7613SOL    HW124055   3.297   5.063   6.727  0.1621  0.4672  0.3080
 7613SOL    HW224056   3.252   5.053   6.583  2.4945 -2.4017 -0.3086
 7614SOL     OW24057   3.075   4.319   6.586 -0.2752 -0.3428  0.7989
 7614SOL    HW124058   3.151   4.312   6.528 -1.4691 -1.0521 -0.7237
 7614SOL    HW224059   3.079   4.409   6.619  0.4327  0.0813 -0.3913
 7615SOL     OW24060   2.307   5.214   5.927  0.2742 -0.6081  0.1953
 7615SOL    HW124061   2.318   5.121   5.947  0.6244 -0.5062  0.4843
 7615SOL    HW224062   2.397   5.248   5.922  0.1490  0.2979  2.8436
 7616SOL     OW24063   4.034   3.834   6.467  0.3761 -0.4904 -0.1837
 7616SOL    HW124064   4.118   3.803   6.434  1.3002  0.3914  1.2349
 7616SOL    HW224065   3.991   3.872   6.391  1.2530 -0.9558 -0.9307
 7617SOL     OW24066   1.667   4.871   5.687 -0.1783  0.0218 -0.1103
 7617SOL    HW124067   1.642   4.799   5.745  0.5146 -0.1527 -0.0159
 7617SOL    HW224068   1.614   4.945   5.716 -0.1999 -0.2004  0.4213
 7618SOL     OW24069   1.936   4.417   7.495  0.1922  0.3548  0.2788
 7618SOL    HW124070   2.001   4.486   7.490  1.6186 -0.8742  1.1978
 7618SOL    HW224071   1.985   4.336   7.486 -1.4143 -0.5860 -0.6038
 7619SOL     OW24072   2.531   3.914   7.055 -0.7222  0.1629  0.2020
 7619SOL    HW124073   2.618   3.935   7.020 -0.8324  0.3304  0.0269
 7619SOL    HW224074   2.518   3.822   7.033 -0.8159  0.2840 -0.2526
 7620SOL     OW24075   2.165   4.662   5.730 -0.1950  0.4384 -0.3390
 7620SOL    HW124076   2.231   4.732   5.729 -0.5688  0.8058  0.2585
 7620SOL    HW224077   2.216   4.581   5.730  0.2777  0.7117  1.2849
 7621SOL     OW24078   3.501   4.164   6.611  0.6461  0.3424 -0.2861
 7621SOL    HW124079   3.540   4.087   6.651 -0.1290 -0.3722 -0.8879
 7621SOL    HW224080   3.576   4.219   6.587  1.1422  0.7185  1.9310
 7622SOL     OW24081   2.012   4.040   5.786  0.3349  0.2234 -0.1375
 7622SOL    HW124082   2.022   4.097   5.710 -1.2086 -0.2475 -0.7299
 7622SOL    HW224083   2.068   4.079   5.852  2.1970  0.3017 -1.6872
 7623SOL     OW24084   2.900   4.724   6.023 -0.7896 -0.8089 -0.1043
 7623SOL    HW124085   2.957   4.751   6.095 -2.2910 -1.7706  1.5316
 7623SOL    HW224086   2.958   4.681   5.961  0.5274 -0.1344  0.6264
 7624SOL     OW24087   2.222   4.875   7.382 -0.2313  0.1948  0.5874
 7624SOL    HW124088   2.220   4.829   7.298 -1.9991  0.2039  0.6008
 7624SOL    HW224089   2.221   4.968   7.358 -0.0572  0.2056  0.6180
 7625SOL     OW24090   3.131   5.692   6.450  0.1170  0.9007  0.3119
 7625SOL    HW124091   3.221   5.711   6.476  0.1155  0.4740  0.6435
 7625SOL    HW224092   3.127   5.596   6.444  0.9391  0.9225 -4.2042
 7626SOL     OW24093   2.730   4.347   7.066 -0.4591 -0.3596  0.0947
 7626SOL    HW124094   2.740   4.272   7.007  1.3855  0.7887 -1.1414
 7626SOL    HW224095   2.639   4.341   7.096 -1.1979 -1.5322 -2.1177
 7627SOL     OW24096   3.475   4.853   7.550 -0.3557 -0.1782  0.0072
 7627SOL    HW124097   3.460   4.829   7.459  1.3731 -0.8534 -0.1242
 7627SOL    HW224098   3.514   4.776   7.590 -1.5136 -0.0577  1.4717
 7628SOL     OW24099   2.161   5.194   7.517 -0.0561 -0.8917  0.1817
 7628SOL    HW124100   2.214   5.210   7.596  0.2862  2.9219 -0.6612
 7628SOL    HW224101   2.077   5.236   7.535 -0.4704 -1.1856 -0.9738
 7629SOL     OW24102   3.190   4.119   5.881 -0.5800  0.2200 -0.2380
 7629SOL    HW124103   3.187   4.024   5.876 -2.1129  0.0883  2.0492
 7629SOL    HW224104   3.249   4.138   5.953  0.2493  1.0659 -1.1023
 7630SOL     OW24105   2.534   4.985   5.962  0.4076 -0.3017  0.4090
 7630SOL    HW124106   2.576   5.061   6.002  0.6957  0.5452 -1.3771
 7630SOL    HW224107   2.606   4.928   5.936  0.2752 -0.4510  0.3684
 7631SOL     OW24108   3.766   3.937   6.876 -0.5511  0.3026  0.5535
 7631SOL    HW124109   3.799   3.862   6.925  0.4804  0.1042 -0.3988
 7631SOL    HW224110   3.814   3.934   6.793  0.4380  2.6991  0.9508
 7632SOL     OW24111   3.323   4.502   7.287 -1.2017  0.3364  0.0196
 7632SOL    HW124112   3.300   4.483   7.196 -3.3096  2.0927  0.1166
 7632SOL    HW224113   3.376   4.582   7.282  1.3506 -1.2116  0.1900
 7633SOL     OW24114   2.651   5.105   5.713 -0.3773 -0.3486 -0.3251
 7633SOL    HW124115   2.573   5.072   5.667  0.1563 -1.2036 -0.6321
 7633SOL    HW224116   2.678   5.033   5.770 -0.2365  0.2159  0.3359
 7634SOL     OW24117   2.535   5.423   6.311 -0.5040  0.4892  0.0385
 7634SOL    HW124118   2.586   5.498   6.279 -2.0701  1.7698  0.4003
 7634SOL    HW224119   2.532   5.435   6.406  0.1982 -0.7108  0.2343
 7635SOL     OW24120   2.881   5.174   6.577 -0.1536 -0.5094  0.1122
 7635SOL    HW124121   2.813   5.171   6.644 -0.6139 -1.3157 -0.3773
 7635SOL    HW224122   2.919   5.086   6.578  1.2888  0.0896  0.7795
 7636SOL     OW24123   3.158   4.347   5.764  0.6064 -0.4125 -0.6820
 7636SOL    HW124124   3.232   4.393   5.805 -0.9461 -0.1170  2.0572
 7636SOL    HW224125   3.157   4.261   5.807  0.2173 -0.9690 -1.7781
 7637SOL     OW24126   2.170   5.252   7.265  0.0089 -0.0770 -0.3661
 7637SOL    HW124127   2.170   5.222   7.356 -0.5283  0.9981  0.0055
 7637SOL    HW224128   2.079   5.240   7.235  0.0457  0.1200 -0.5641
 7638SOL     OW24129   1.896   4.990   6.580  0.2857  0.4708  0.2964
 7638SOL    HW124130   1.919   5.038   6.501  1.1294  0.2404  0.3951
 7638SOL    HW224131   1.905   4.898   6.556 -0.0912  0.3854  0.4735
 7639SOL     OW24132   2.310   4.743   7.147  0.5240 -0.9506  0.2665
 7639SOL    HW124133   2.281   4.758   7.057  1.4748  0.7451  0.2042
 7639SOL    HW224134   2.341   4.652   7.147  0.4576 -0.9942 -1.1006
 7640SOL     OW24135   3.705   3.434   6.621 -0.5483 -0.0376 -0.5475
 7640SOL    HW124136   3.762   3.510   6.611 -0.0083 -0.2974  0.3958
 7640SOL    HW224137   3.765   3.363   6.646 -0.9602 -0.9111 -1.9069
 7641SOL     OW24138   2.342   4.180   6.196 -0.5568  0.7075 -0.1230
 7641SOL    HW124139   2.352   4.275   6.185  0.1426  0.6379 -0.0873
 7641SOL    HW224140   2.425   4.143   6.167 -0.2109  0.2092  1.4273
 7642SOL     OW24141   2.631   4.469   6.641  0.2144  0.3488 -0.2159
 7642SOL    HW124142   2.556   4.455   6.700 -0.0658  1.3362 -0.3270
 7642SOL    HW224143   2.605   4.428   6.559  0.6597 -1.1592  0.3615
 7643SOL     OW24144   2.580   5.240   6.069  0.2464  0.1433  0.1540
 7643SOL    HW124145   2.563   5.293   6.147 -0.0068  0.7253 -0.2871
 7643SOL    HW224146   2.617   5.302   6.006  1.3472 -0.5095  0.1212
 7644SOL     OW24147   3.240   4.562   6.393 -0.2530 -0.1735  0.0991
 7644SOL    HW124148   3.300   4.566   6.318 -0.7296 -0.1369 -0.2816
 7644SOL    HW224149   3.271   4.487   6.444 -0.5958 -0.8804 -0.7126
 7645SOL     OW24150   3.147   3.551   6.809  0.3340 -0.3266 -0.4400
 7645SOL    HW124151   3.215   3.558   6.742  0.0333 -0.8443 -0.8094
 7645SOL    HW224152   3.143   3.457   6.829  0.4618 -0.1744  0.3546
 7646SOL     OW24153   2.779   4.899   5.842 -0.4660  0.0979 -0.1232
 7646SOL    HW124154   2.815   4.841   5.909 -0.4976 -0.2908 -0.4419
 7646SOL    HW224155   2.855   4.932   5.794 -0.5128 -0.5619 -0.6636
 7647SOL     OW24156   2.377   5.193   6.594 -0.4857 -0.3510 -0.1947
 7647SOL    HW124157   2.461   5.151   6.612  0.9394  1.3300 -2.4021
 7647SOL    HW224158   2.335   5.134   6.530  0.7316  0.5657 -1.9320
 7648SOL     OW24159   3.368   3.957   5.365  0.0392  0.7979  0.5092
 7648SOL    HW124160   3.368   4.032   5.306  1.8307  2.0147  1.9338
 7648SOL    HW224161   3.450   3.911   5.346 -1.1088 -0.9407 -0.4487
 7649SOL     OW24162   2.800   4.646   6.523  0.3514  0.0464  0.6315
 7649SOL    HW124163   2.734   4.649   6.453  0.4979  1.2023  0.5183
 7649SOL    HW224164   2.753   4.614   6.599 -0.0857 -0.1428  0.2866
 7650SOL     OW24165   3.443   3.685   6.136  0.1860  0.2690 -0.2643
 7650SOL    HW124166   3.493   3.761   6.107  0.4639  0.2636  0.1862
 7650SOL    HW224167   3.388   3.719   6.207  0.9670 -0.1304  0.5565
 7651SOL     OW24168   1.633   4.629   5.816  0.2672 -0.5032  0.3597
 7651SOL    HW124169   1.685   4.554   5.844 -0.0417 -0.5618  0.7735
 7651SOL    HW224170   1.565   4.637   5.882  0.7143  0.5818  0.7085
 7652SOL     OW24171   3.227   5.176   6.212  0.0553  0.4868 -0.3291
 7652SOL    HW124172   3.286   5.102   6.228 -0.0802  0.6145  0.8129
 7652SOL    HW224173   3.163   5.142   6.149  1.7926  0.5871 -2.2476
 7653SOL     OW24174   1.570   4.441   7.553  0.3865  0.0488 -0.0100
 7653SOL    HW124175   1.640   4.401   7.605  1.4137 -2.4006 -2.9947
 7653SOL    HW224176   1.609   4.455   7.467 -1.9550  1.5389 -0.9267
 7654SOL     OW24177   1.953   4.535   7.936 -0.1176  0.5442 -0.8448
 7654SOL    HW124178   1.914   4.567   7.854  0.3724  1.4707 -0.7280
 7654SOL    HW224179   1.964   4.441   7.922 -0.0281  0.6911 -1.8573
 7655SOL     OW24180   1.890   4.233   7.886 -0.1224 -0.0765 -0.8946
 7655SOL    HW124181   1.803   4.212   7.920  0.1978 -1.8215 -1.0516
 7655SOL    HW224182   1.881   4.224   7.791  0.5529 -1.7931 -0.8374
 7656SOL     OW24183   2.411   5.057   8.696  0.2330  0.5128 -0.3789
 7656SOL    HW124184   2.439   5.123   8.760 -0.3828 -0.3703  0.8583
 7656SOL    HW224185   2.368   5.107   8.627 -2.2641  1.3556  1.6117
 7657SOL     OW24186   3.287   5.306   7.996 -0.4941  0.2813  0.4116
 7657SOL    HW124187   3.247   5.235   8.046  0.7422 -0.5329  0.2736
 7657SOL    HW224188   3.270   5.285   7.904 -2.0427  1.3459  0.4123
 7658SOL     OW24189   3.318   4.368   8.005 -0.3434  0.1978 -0.0726
 7658SOL    HW124190   3.303   4.449   8.053  1.5692 -0.3405  1.5969
 7658SOL    HW224191   3.315   4.300   8.071 -1.3392 -1.0545 -1.3553
 7659SOL     OW24192   3.912   3.878   7.220  0.2780  0.3232  0.4310
 7659SOL    HW124193   3.895   3.825   7.142 -0.0429  1.6839 -0.4462
 7659SOL    HW224194   3.898   3.817   7.293  2.4552 -1.5016 -0.5618
 7660SOL     OW24195   2.627   4.654   8.641 -0.0196 -0.5740  0.1162
 7660SOL    HW124196   2.714   4.687   8.616 -0.5049  0.0627 -0.7978
 7660SOL    HW224197   2.641   4.611   8.726  1.5328 -2.0742 -0.8329
 7661SOL     OW24198   2.617   4.659   7.671 -0.1749 -0.5039 -0.4150
 7661SOL    HW124199   2.660   4.743   7.652 -1.3021  0.4843  1.1722
 7661SOL    HW224200   2.671   4.619   7.739  0.3190 -1.0590 -1.1168
 7662SOL     OW24201   2.351   4.851   8.308 -0.2607  0.1295  0.0100
 7662SOL    HW124202   2.372   4.834   8.217  0.0857  1.0285 -0.0821
 7662SOL    HW224203   2.434   4.845   8.354 -0.0210  2.0041 -0.1046
 7663SOL     OW24204   2.098   4.106   0.199  0.2467 -0.8221 -0.3864
 7663SOL    HW124205   2.171   4.151   0.241  1.1557 -0.0273 -2.6820
 7663SOL    HW224206   2.115   4.013   0.215  0.0420 -0.5573  1.7108
 7664SOL     OW24207   3.250   3.934   8.336 -0.2617  0.1515 -0.0920
 7664SOL    HW124208   3.200   3.852   8.330 -0.2660  0.2659 -2.8044
 7664SOL    HW224209   3.184   4.003   8.338 -0.3091  0.2335 -2.2437
 7665SOL     OW24210   1.726   5.506   8.034 -0.4060 -0.5464  0.5994
 7665SOL    HW124211   1.704   5.416   8.009  1.5382 -0.9536  0.1917
 7665SOL    HW224212   1.753   5.548   7.953 -1.9137  0.6615  0.6602
 7666SOL     OW24213   2.260   5.202   7.846 -0.2701 -0.1545 -0.4463
 7666SOL    HW124214   2.340   5.150   7.852 -0.2246 -0.4634 -2.8647
 7666SOL    HW224215   2.207   5.172   7.919  1.2668 -0.8852  0.4264
 7667SOL     OW24216   1.719   4.856   8.016  0.0940  0.0742  0.2949
 7667SOL    HW124217   1.784   4.925   8.003  0.7802 -0.5652  0.2730
 7667SOL    HW224218   1.763   4.792   8.071 -1.0611  0.3706  1.6130
 7668SOL     OW24219   2.486   5.440   8.769 -0.2021 -0.2654  0.1481
 7668SOL    HW124220   2.523   5.503   8.832  0.3679  0.1203 -0.5585
 7668SOL    HW224221   2.467   5.363   8.822  0.8464 -0.1722  0.6942
 7669SOL     OW24222   2.099   4.095   7.193  0.2315  0.4484  0.0600
 7669SOL    HW124223   2.108   4.119   7.285  0.3564  1.2015 -0.1461
 7669SOL    HW224224   2.042   4.162   7.155  1.3126  0.9468 -0.7274
 7670SOL     OW24225   1.462   4.439   7.894  0.7710  0.3003  0.1675
 7670SOL    HW124226   1.448   4.432   7.989  0.0271 -1.4425 -0.0344
 7670SOL    HW224227   1.542   4.389   7.878  0.4368 -0.1228 -0.2139
 7671SOL     OW24228   4.028   5.053   7.980 -0.0672  0.1398 -0.3147
 7671SOL    HW124229   3.977   5.124   7.941 -0.9092  0.6561  1.6083
 7671SOL    HW224230   4.090   5.028   7.912 -1.0338  1.4077 -1.7274
 7672SOL     OW24231   2.346   4.881   7.628 -0.2627  0.4148 -0.3247
 7672SOL    HW124232   2.318   4.882   7.536  0.1697 -2.5355 -0.5759
 7672SOL    HW224233   2.270   4.849   7.676  1.0008 -3.2349 -0.4434
 7673SOL     OW24234   3.368   4.117   7.807  0.3964  0.0328  0.1214
 7673SOL    HW124235   3.275   4.116   7.829  0.0635  0.1039 -1.1576
 7673SOL    HW224236   3.414   4.101   7.889 -0.7637 -0.4645  0.6775
 7674SOL     OW24237   3.633   4.633   7.587  0.4012  0.1386  0.4824
 7674SOL    HW124238   3.616   4.568   7.655 -1.2886  0.6232  0.5601
 7674SOL    HW224239   3.647   4.581   7.508  1.7113 -0.3995  1.0218
 7675SOL     OW24240   2.310   4.876   8.027  0.1138  0.0563  0.2386
 7675SOL    HW124241   2.301   4.964   8.064  2.0294 -0.6235  2.5687
 7675SOL    HW224242   2.399   4.875   7.991  0.9426 -1.4787  2.1316
 7676SOL     OW24243   2.978   3.542   7.751 -0.1932 -0.0317 -0.8824
 7676SOL    HW124244   2.932   3.477   7.698  0.6151 -2.2013  0.9127
 7676SOL    HW224245   2.945   3.529   7.840  1.8159  0.2355 -0.0417
 7677SOL     OW24246   1.906   4.541   8.449 -0.3859 -0.3331 -0.1167
 7677SOL    HW124247   1.974   4.586   8.399 -1.2153  0.2773 -0.7237
 7677SOL    HW224248   1.954   4.493   8.517  0.6788 -0.2996 -0.8179
 7678SOL     OW24249   3.740   4.063   7.718  0.1049 -0.1680 -0.0506
 7678SOL    HW124250   3.801   4.008   7.669 -0.4759 -1.9280  1.1020
 7678SOL    HW224251   3.655   4.046   7.678 -0.0621  0.0297  0.2166
 7679SOL     OW24252   3.215   4.883   8.004 -0.1737  0.0160  0.1326
 7679SOL    HW124253   3.193   4.805   8.055  0.2804 -1.5168 -1.8879
 7679SOL    HW224254   3.196   4.957   8.063 -2.3382 -1.5195  1.4951
 7680SOL     OW24255   3.721   5.479   7.719  0.3482 -0.2622 -0.1981
 7680SOL    HW124256   3.796   5.491   7.661 -0.2901 -0.5009 -1.1141
 7680SOL    HW224257   3.674   5.405   7.681 -0.8190  0.4358 -0.1657
 7681SOL     OW24258   2.673   4.163   7.798 -0.3805  0.5204 -0.3896
 7681SOL    HW124259   2.662   4.236   7.858  0.6544  0.0900  0.3392
 7681SOL    HW224260   2.714   4.202   7.720 -0.3534  0.8144 -0.2299
 7682SOL     OW24261   2.699   3.834   8.363  0.3855  0.3239 -0.5343
 7682SOL    HW124262   2.623   3.856   8.310  0.5749 -1.3028 -1.5291
 7682SOL    HW224263   2.724   3.746   8.335  2.2592  0.5681  0.2073
 7683SOL     OW24264   3.729   5.215   7.910 -0.0207  0.2587 -0.0352
 7683SOL    HW124265   3.694   5.163   7.839 -0.4689 -0.8306  0.9484
 7683SOL    HW224266   3.665   5.204   7.981  0.3991  1.3299  0.5246
 7684SOL     OW24267   2.711   4.734   0.545 -0.0169 -0.4135  0.1158
 7684SOL    HW124268   2.768   4.731   0.622 -1.7380  1.3913  1.5857
 7684SOL    HW224269   2.624   4.710   0.579 -0.6250 -0.6249 -1.5012
 7685SOL     OW24270   2.953   3.869   0.017  0.4804  0.0585 -0.1245
 7685SOL    HW124271   2.913   3.942  -0.031  0.7940  0.8141  0.7391
 7685SOL    HW224272   2.958   3.798  -0.048 -1.8226  0.0670 -0.4217
 7686SOL     OW24273   3.183   4.336   7.671 -0.3800 -0.3229  0.3523
 7686SOL    HW124274   3.101   4.306   7.710  0.3732 -1.9553  0.7503
 7686SOL    HW224275   3.156   4.394   7.600 -1.8868 -1.1005  0.2654
 7687SOL     OW24276   1.812   4.640   8.171 -0.3121  0.3780 -0.4693
 7687SOL    HW124277   1.861   4.649   8.253 -1.4532  2.1168  0.0910
 7687SOL    HW224278   1.859   4.572   8.122  0.4177 -0.6841  1.5861
 7688SOL     OW24279   2.319   5.414   0.515 -0.3697 -0.1757  0.2939
 7688SOL    HW124280   2.405   5.435   0.477  1.1860 -1.1080  2.9978
 7688SOL    HW224281   2.267   5.493   0.500  1.0709  0.5934 -1.0497
 7689SOL     OW24282   2.911   3.738   7.286 -0.4059  0.0061 -0.1914
 7689SOL    HW124283   2.918   3.764   7.194 -0.4708 -0.3035 -0.2855
 7689SOL    HW224284   2.960   3.656   7.291  3.0009  1.9134  0.8580
 7690SOL     OW24285   3.313   4.595   7.810  0.0682  0.3542  0.1801
 7690SOL    HW124286   3.244   4.645   7.766 -0.4454  1.0532  1.7196
 7690SOL    HW224287   3.377   4.660   7.838  0.9914 -0.2065 -0.5281
 7691SOL     OW24288   2.394   4.141   8.648  0.3202  0.1005 -0.3276
 7691SOL    HW124289   2.453   4.175   8.715  0.7805 -0.9926 -0.1510
 7691SOL    HW224290   2.376   4.216   8.591  1.7803  0.4829 -0.3201
 7692SOL     OW24291   3.519   4.776   7.835  1.1117 -0.0661  0.0604
 7692SOL    HW124292   3.544   4.749   7.923 -0.3938  0.4391  0.6681
 7692SOL    HW224293   3.582   4.844   7.812  0.7270  0.7393  1.2906
 7693SOL     OW24294   2.212   5.373   8.234 -0.3235  0.4082 -0.1769
 7693SOL    HW124295   2.144   5.407   8.175  0.2326 -0.5799 -1.4548
 7693SOL    HW224296   2.284   5.436   8.227 -0.1600  0.1696 -0.7950
 7694SOL     OW24297   3.671   4.679   8.075 -0.2498  0.1614  0.2222
 7694SOL    HW124298   3.717   4.610   8.028 -0.2818 -1.0859  1.9247
 7694SOL    HW224299   3.736   4.750   8.083  0.5149 -0.5374  0.3121
 7695SOL     OW24300   2.170   4.589   7.456  0.0443 -0.4846  0.5666
 7695SOL    HW124301   2.175   4.684   7.457  2.4810 -0.5337 -0.3925
 7695SOL    HW224302   2.244   4.561   7.510 -1.9957 -1.9162  2.8834
 7696SOL     OW24303   3.591   5.043   8.298 -0.2892 -0.4229 -0.1962
 7696SOL    HW124304   3.542   4.961   8.300 -0.8957 -0.1162 -1.6585
 7696SOL    HW224305   3.560   5.088   8.220 -0.2149  1.3769  0.7775
 7697SOL     OW24306   3.327   5.160   7.496  0.7126  0.2377 -0.3310
 7697SOL    HW124307   3.241   5.163   7.453  0.2849  1.8051  0.5490
 7697SOL    HW224308   3.354   5.068   7.488 -0.7574 -0.1677 -1.1740
 7698SOL     OW24309   3.832   4.748   7.241  0.7933 -0.3471 -0.4112
 7698SOL    HW124310   3.762   4.684   7.225  0.5623  0.0316 -0.9445
 7698SOL    HW224311   3.891   4.703   7.301 -0.3342 -0.3764  0.7244
 7699SOL     OW24312   2.499   5.359   7.945  0.0034  0.1996 -0.3636
 7699SOL    HW124313   2.472   5.326   7.859  1.3946 -1.2044 -0.3123
 7699SOL    HW224314   2.502   5.454   7.934 -0.7859  0.1066 -1.5779
 7700SOL     OW24315   3.094   3.999   8.048 -0.2374 -0.2157 -0.0777
 7700SOL    HW124316   3.185   3.972   8.034 -0.1844  0.2493 -0.6774
 7700SOL    HW224317   3.101   4.077   8.102 -0.2797 -0.1706 -0.1382
 7701SOL     OW24318   2.186   5.429   8.747  0.0658 -0.4854 -0.0195
 7701SOL    HW124319   2.272   5.471   8.745  0.4538 -1.1766  1.0037
 7701SOL    HW224320   2.148   5.446   8.661  0.9716  0.3555 -0.2675
 7702SOL     OW24321   2.646   4.801   8.317  0.2205 -0.2548  0.2121
 7702SOL    HW124322   2.708   4.772   8.250  0.3810  0.5135  0.0069
 7702SOL    HW224323   2.666   4.748   8.394  1.2748  0.1081  0.2071
 7703SOL     OW24324   2.040   3.959   7.670  0.1614  0.4206  0.1717
 7703SOL    HW124325   2.048   3.936   7.763  1.7416 -0.4501 -0.1372
 7703SOL    HW224326   1.947   3.948   7.650 -0.0175 -0.4582  1.3916
 7704SOL     OW24327   2.457   3.969   7.329  0.0192 -0.2276 -0.1719
 7704SOL    HW124328   2.514   3.901   7.364  0.5464 -0.8850 -2.1988
 7704SOL    HW224329   2.483   3.979   7.238 -0.5285  2.2226 -0.1456
 7705SOL     OW24330   3.204   5.129   8.181 -0.2571 -0.4941 -0.2130
 7705SOL    HW124331   3.109   5.122   8.176 -0.2433 -0.9001  0.0750
 7705SOL    HW224332   3.221   5.153   8.272  0.0274 -2.3765  0.2610
 7706SOL     OW24333   2.320   4.255   7.840  0.0816 -0.1006  0.6251
 7706SOL    HW124334   2.300   4.337   7.796 -2.3901 -1.1563 -0.4236
 7706SOL    HW224335   2.372   4.206   7.777 -1.9308 -0.8887 -0.5388
 7707SOL     OW24336   2.518   4.378   8.329 -0.2657  0.2347 -0.2166
 7707SOL    HW124337   2.476   4.367   8.244 -1.8311 -0.7085  0.6358
 7707SOL    HW224338   2.470   4.449   8.371  0.7286  0.9408 -0.2263
 7708SOL     OW24339   2.433   3.577   8.260 -0.2004 -0.7758  0.6154
 7708SOL    HW124340   2.485   3.548   8.185  0.5957  0.2867  0.7440
 7708SOL    HW224341   2.400   3.663   8.234  0.1362 -0.3739  1.5028
 7709SOL     OW24342   3.250   4.885   7.713 -0.4267 -0.0033  0.3943
 7709SOL    HW124343   3.330   4.903   7.665 -1.4921  4.2144 -0.1347
 7709SOL    HW224344   3.279   4.866   7.802  1.1876 -1.2057 -0.3305
 7710SOL     OW24345   2.239   3.830   7.278 -0.2465  0.3372 -0.0311
 7710SOL    HW124346   2.315   3.883   7.303 -0.7397  0.6338  0.9101
 7710SOL    HW224347   2.276   3.757   7.229  0.5344  1.0671 -0.5619
 7711SOL     OW24348   2.713   4.188   7.351  0.5346 -0.1808  0.2617
 7711SOL    HW124349   2.725   4.191   7.256  0.3545 -2.3184  0.1204
 7711SOL    HW224350   2.642   4.124   7.365  1.4652 -0.9351  1.8723
 7712SOL     OW24351   2.915   4.355   8.305 -0.0989  0.1952  0.4618
 7712SOL    HW124352   2.919   4.309   8.221 -0.6042  0.3016  0.3792
 7712SOL    HW224353   2.825   4.344   8.334 -0.7102  2.5983 -0.3632
 7713SOL     OW24354   2.213   4.558   8.026  0.1794 -0.1637  0.0468
 7713SOL    HW124355   2.233   4.650   8.010  0.7695 -0.3291 -0.1705
 7713SOL    HW224356   2.124   4.547   7.992  0.4670  0.0982 -0.8235
 7714SOL     OW24357   3.238   5.248   7.744  0.2673 -0.1916 -0.0168
 7714SOL    HW124358   3.257   5.219   7.654  0.4278 -0.1298 -0.0036
 7714SOL    HW224359   3.145   5.269   7.743 -0.1393 -1.8285  0.2771
 7715SOL     OW24360   3.399   3.889   7.355  0.0496 -0.4817 -0.1055
 7715SOL    HW124361   3.419   3.815   7.412  1.1555  0.6353  1.0377
 7715SOL    HW224362   3.343   3.946   7.407 -0.0843 -0.1023 -0.6531
 7716SOL     OW24363   2.429   4.641   0.004 -0.5768  0.3499 -0.1600
 7716SOL    HW124364   2.437   4.584   0.081 -1.4048 -0.8782 -0.9420
 7716SOL    HW224365   2.502   4.702   0.012 -1.2627  0.9827  2.1839
 7717SOL     OW24366   2.141   4.192   8.033 -0.0806  0.5077  0.0917
 7717SOL    HW124367   2.202   4.218   7.964  0.0231 -0.0657 -0.0338
 7717SOL    HW224368   2.056   4.188   7.989 -0.1192  0.7485  0.1401
 7718SOL     OW24369   2.503   4.015   8.298 -0.1789  0.2167 -0.5176
 7718SOL    HW124370   2.478   4.013   8.206  1.0231  1.0869 -0.8913
 7718SOL    HW224371   2.497   4.108   8.322 -0.7259 -0.0354  0.3617
 7719SOL     OW24372   3.350   4.471   8.344 -0.3079  0.0634  0.4702
 7719SOL    HW124373   3.436   4.482   8.304 -0.5402  2.0083  0.3786
 7719SOL    HW224374   3.354   4.526   8.422 -1.8331  1.1432 -0.1763
 7720SOL     OW24375   3.432   4.280   8.536 -0.6999  0.5426  0.6096
 7720SOL    HW124376   3.473   4.336   8.602 -1.3935  0.4568  1.1257
 7720SOL    HW224377   3.408   4.340   8.465  0.2368  0.6036  0.3405
 7721SOL     OW24378   3.745   4.089   7.998  0.4463  0.5181  0.3237
 7721SOL    HW124379   3.830   4.084   8.042  0.4828  2.0828  0.5068
 7721SOL    HW224380   3.762   4.059   7.909  1.2127  0.8597  0.3452
 7722SOL     OW24381   2.590   5.110   7.529 -0.3155 -0.3579 -0.5074
 7722SOL    HW124382   2.678   5.072   7.535  0.2615  0.9484 -0.4346
 7722SOL    HW224383   2.570   5.109   7.435 -0.4763 -1.1694 -0.4763
 7723SOL     OW24384   3.431   5.480   8.162  0.0695  0.3781  0.3037
 7723SOL    HW124385   3.365   5.516   8.221 -1.2091  0.0541 -0.8827
 7723SOL    HW224386   3.381   5.441   8.090  1.5885  3.5151 -2.7091
 7724SOL     OW24387   3.504   3.704   7.540 -0.7826  0.1395 -0.0893
 7724SOL    HW124388   3.413   3.675   7.548 -1.4600  0.8362 -3.3764
 7724SOL    HW224389   3.510   3.782   7.595 -1.7082 -0.7835  1.3579
 7725SOL     OW24390   2.550   3.629   7.789 -0.3030 -0.2512 -0.0428
 7725SOL    HW124391   2.513   3.627   7.877  1.7110 -0.8038  0.8470
 7725SOL    HW224392   2.583   3.719   7.779  0.0585 -0.3752  0.0289
 7726SOL     OW24393   3.829   4.691   8.824  0.0815 -0.1312  0.3805
 7726SOL    HW124394   3.829   4.596   8.835  0.8936 -0.5227 -2.2105
 7726SOL    HW224395   3.799   4.705   8.734  3.2970  1.7802 -0.5879
 7727SOL     OW24396   2.978   5.137   8.396  0.2848 -0.6250 -0.1118
 7727SOL    HW124397   2.902   5.135   8.339 -0.1819 -1.9729  0.5186
 7727SOL    HW224398   2.969   5.061   8.452  1.4292 -0.0892  0.8695
 7728SOL     OW24399   3.833   4.561   8.379 -0.1561 -0.7218  0.1931
 7728SOL    HW124400   3.869   4.647   8.402 -1.5905  0.1791 -0.7685
 7728SOL    HW224401   3.882   4.535   8.301 -0.2252 -0.4216  0.0465
 7729SOL     OW24402   2.396   4.481   7.589 -0.3301 -0.0821  0.4759
 7729SOL    HW124403   2.451   4.543   7.637 -0.4900  1.6955 -1.5263
 7729SOL    HW224404   2.456   4.410   7.565  0.6874  0.9405 -0.0973
 7730SOL     OW24405   2.292   4.418   8.732 -0.3064  0.6199 -0.2872
 7730SOL    HW124406   2.292   4.356   8.805  1.2692 -1.4028 -1.8676
 7730SOL    HW224407   2.344   4.492   8.763  0.6706 -0.3802  0.5597
 7731SOL     OW24408   2.983   4.174   8.527 -0.1221  0.5404 -0.2256
 7731SOL    HW124409   2.952   4.087   8.501 -0.4986  0.7590 -0.5231
 7731SOL    HW224410   2.916   4.234   8.494 -0.3944  0.8630  0.8537
 7732SOL     OW24411   1.824   4.820   8.609  0.0775 -0.5873 -0.4136
 7732SOL    HW124412   1.773   4.848   8.533  0.2027  1.5806  0.2455
 7732SOL    HW224413   1.915   4.826   8.580  0.0953 -2.6266 -0.9764
 7733SOL     OW24414   1.903   4.628   7.680 -0.2378 -0.6268  0.4447
 7733SOL    HW124415   1.901   4.564   7.609 -1.0392  0.5361 -0.6350
 7733SOL    HW224416   1.821   4.676   7.671  0.0666  0.1553  1.6024
 7734SOL     OW24417   2.174   4.276   8.318  0.0156  0.0235  0.3408
 7734SOL    HW124418   2.094   4.266   8.369  0.5887 -0.1481  1.2144
 7734SOL    HW224419   2.147   4.255   8.228 -0.7614 -0.7203  0.7316
 7735SOL     OW24420   2.940   4.850   7.935  0.1798 -0.3701  0.5480
 7735SOL    HW124421   3.033   4.870   7.924  0.4380 -1.1224  1.2772
 7735SOL    HW224422   2.915   4.896   8.016 -0.5032  1.1698 -0.4961
 7736SOL     OW24423   3.347   5.445   0.029 -0.6498 -0.0886  0.2929
 7736SOL    HW124424   3.441   5.462   0.043 -0.7346  0.6371  0.0517
 7736SOL    HW224425   3.321   5.390   0.103 -0.4481  1.2916  1.4380
 7737SOL     OW24426   3.482   4.100   8.068  0.1128 -0.3566  0.2511
 7737SOL    HW124427   3.478   4.092   8.163 -0.7150 -1.8593  0.1204
 7737SOL    HW224428   3.575   4.107   8.048  0.3600 -1.0386  1.1150
 7738SOL     OW24429   2.336   5.256   0.065 -0.2935  0.1495  0.2257
 7738SOL    HW124430   2.291   5.184   0.110 -0.3230 -0.3200 -0.5263
 7738SOL    HW224431   2.265   5.304   0.021 -0.4830  1.6696  2.0813
 7739SOL     OW24432   2.928   4.380   8.766  0.3026 -0.0199  0.1285
 7739SOL    HW124433   2.945   4.299   8.718 -0.2576 -1.7335  2.6173
 7739SOL    HW224434   2.993   4.381   8.836 -1.4990  0.1101  1.8898
 7740SOL     OW24435   3.168   4.708   8.198 -0.5147  0.6338 -0.3043
 7740SOL    HW124436   3.112   4.701   8.275  0.3333  2.2239  0.4860
 7740SOL    HW224437   3.247   4.659   8.221 -1.3049 -1.1908 -1.2361
 7741SOL     OW24438   2.997   4.140   7.432  0.0688  0.4274  0.2473
 7741SOL    HW124439   2.922   4.196   7.417  0.8427  1.3933 -0.0693
 7741SOL    HW224440   2.966   4.075   7.495 -0.8542  1.1656  0.5672
 7742SOL     OW24441   1.933   3.882   0.009 -0.2050 -0.4650  0.1428
 7742SOL    HW124442   1.982   3.805  -0.019  1.2257  0.9477 -1.4007
 7742SOL    HW224443   1.987   3.956  -0.017 -0.9230  1.0907  2.7323
 7743SOL     OW24444   1.640   4.645   8.420  0.3008  0.0602  0.0251
 7743SOL    HW124445   1.618   4.616   8.331 -2.0522  2.0050 -0.1334
 7743SOL    HW224446   1.730   4.614   8.433  1.0797  0.4388 -3.3574
 7744SOL     OW24447   2.413   4.345   8.082 -0.0834 -0.0807 -0.0506
 7744SOL    HW124448   2.352   4.419   8.074  0.3741  0.8420  3.4352
 7744SOL    HW224449   2.357   4.268   8.077 -1.5939  0.7266  2.3050
 7745SOL     OW24450   2.527   3.437   8.027  0.5748 -0.2671  0.5686
 7745SOL    HW124451   2.543   3.347   7.999  1.8625 -0.0461  0.5167
 7745SOL    HW224452   2.436   3.454   8.002  0.8536 -0.9587 -1.0664
 7746SOL     OW24453   3.945   3.978   7.559  0.2918  0.0950 -0.0442
 7746SOL    HW124454   4.002   4.052   7.579  0.9255 -0.8775  2.0703
 7746SOL    HW224455   3.998   3.901   7.580 -0.8041 -0.9276 -0.9107
 7747SOL     OW24456   3.169   4.271   8.266 -0.1929  0.2653 -0.3051
 7747SOL    HW124457   3.240   4.329   8.295 -0.3871  0.2711  0.1824
 7747SOL    HW224458   3.089   4.320   8.286 -0.3417  0.0937 -0.4797
 7748SOL     OW24459   3.657   3.496   7.666  0.0417  0.7053  0.9732
 7748SOL    HW124460   3.717   3.565   7.695  1.4535  0.0865 -0.3174
 7748SOL    HW224461   3.597   3.540   7.605  0.1149  1.0507  1.1495
 7749SOL     OW24462   3.269   4.112   7.470 -0.3602  0.2036  0.2608
 7749SOL    HW124463   3.276   4.191   7.524  0.3434 -0.4824  1.2102
 7749SOL    HW224464   3.183   4.118   7.430 -0.5187  1.2031  0.7176
 7750SOL     OW24465   2.845   4.630   8.219  0.2292 -0.5227 -0.1237
 7750SOL    HW124466   2.864   4.617   8.126 -0.3026  0.2872 -0.3615
 7750SOL    HW224467   2.886   4.556   8.263 -0.0406 -1.2469 -1.0640
 7751SOL     OW24468   2.150   4.591   8.310  0.3731 -0.3264  0.2855
 7751SOL    HW124469   2.145   4.503   8.272 -2.1537 -0.4075  0.6119
 7751SOL    HW224470   2.243   4.605   8.326  0.9511 -2.5063 -0.7684
 7752SOL     OW24471   2.123   4.016   8.661  0.2718  0.2373  0.2374
 7752SOL    HW124472   2.121   3.968   8.578 -0.2931  0.3096  0.2046
 7752SOL    HW224473   2.214   4.044   8.670  0.1340  1.1030 -0.8726
 7753SOL     OW24474   2.193   3.476   0.101 -0.3588 -0.0681 -0.5631
 7753SOL    HW124475   2.147   3.454   0.181 -1.3227 -2.5685 -1.6918
 7753SOL    HW224476   2.228   3.392   0.070 -0.0721  0.8028 -2.7601
 7754SOL     OW24477   1.649   4.721   7.623 -0.2407  0.5629 -0.1794
 7754SOL    HW124478   1.619   4.750   7.537  1.8173 -0.4931 -1.3587
 7754SOL    HW224479   1.585   4.655   7.650 -0.6533  0.5623 -1.1282
 7755SOL     OW24480   2.329   5.208   8.455 -0.2174 -0.5177  0.4962
 7755SOL    HW124481   2.250   5.156   8.471  0.6758 -2.1707 -0.2779
 7755SOL    HW224482   2.309   5.258   8.376 -0.5824 -0.7281  0.4499
 7756SOL     OW24483   2.242   5.115   8.147 -0.2869  0.0237 -0.0994
 7756SOL    HW124484   2.222   5.209   8.153  0.8424  0.3308 -0.7900
 7756SOL    HW224485   2.234   5.083   8.237 -0.8151  0.7550  0.1212
 7757SOL     OW24486   2.404   4.590   8.464  0.1883  0.6887 -0.1958
 7757SOL    HW124487   2.464   4.627   8.529  0.8463  0.3432 -0.5999
 7757SOL    HW224488   2.320   4.584   8.510  0.5534  0.8181  0.4986
 7758SOL     OW24489   1.958   4.212   8.468  0.6443  0.3580 -0.2272
 7758SOL    HW124490   2.011   4.138   8.498 -1.0715 -1.2311 -0.9162
 7758SOL    HW224491   1.874   4.173   8.444 -0.6418  2.6792  0.2156
 7759SOL     OW24492   2.751   4.303   7.590 -0.5246 -0.4206 -0.2841
 7759SOL    HW124493   2.763   4.266   7.502  1.3743 -0.0869 -0.1942
 7759SOL    HW224494   2.748   4.397   7.576  1.8495 -0.2279  0.1566
 7760SOL     OW24495   3.769   3.995   8.437 -0.7124  0.1243 -0.0752
 7760SOL    HW124496   3.683   4.034   8.451 -1.4956 -1.3391 -0.6157
 7760SOL    HW224497   3.824   4.068   8.408 -2.6493  0.5335 -3.1971
 7761SOL     OW24498   2.609   4.274   8.823  0.2488 -0.1039  0.0506
 7761SOL    HW124499   2.657   4.356   8.840  0.8145 -0.1170 -1.3448
 7761SOL    HW224500   2.601   4.233   8.909  2.3049  0.1457  0.4124
 7762SOL     OW24501   3.030   5.374   0.124 -0.1248 -0.1556 -0.1366
 7762SOL    HW124502   3.058   5.400   0.036  1.3594 -1.8606 -0.2142
 7762SOL    HW224503   2.995   5.286   0.113  1.2444 -0.9001  1.1369
 7763SOL     OW24504   2.225   3.717   7.826 -0.4694 -0.1879 -0.1457
 7763SOL    HW124505   2.283   3.774   7.877 -2.9286  1.2489  1.2147
 7763SOL    HW224506   2.138   3.755   7.836 -1.6840 -2.0903 -2.3144
 7764SOL     OW24507   2.246   4.831   8.754  0.0849 -0.0502  0.4407
 7764SOL    HW124508   2.292   4.760   8.800  1.4045  0.7364  0.3819
 7764SOL    HW224509   2.312   4.899   8.744 -0.5084  0.2817 -1.5728
 7765SOL     OW24510   3.326   5.069   8.695 -0.2739  0.0853 -0.3728
 7765SOL    HW124511   3.371   5.140   8.648  0.0139  0.0741 -0.1155
 7765SOL    HW224512   3.385   4.994   8.688 -0.2459  0.0737 -0.0217
 7766SOL     OW24513   3.432   4.385   7.514 -0.1723  0.4194  0.2561
 7766SOL    HW124514   3.397   4.442   7.446  0.7104 -1.1662 -1.6373
 7766SOL    HW224515   3.522   4.368   7.487  0.8359  1.1930  2.8584
 7767SOL     OW24516   3.714   5.569   8.842 -0.4933 -0.1385 -0.2064
 7767SOL    HW124517   3.754   5.495   8.795 -2.2024 -1.4038  0.2237
 7767SOL    HW224518   3.777   5.589   8.912  0.2457 -0.8258 -0.6459
 7768SOL     OW24519   3.171   5.356   8.513  0.6971  0.2311  0.4369
 7768SOL    HW124520   3.103   5.291   8.496  0.3475  0.8931 -0.9242
 7768SOL    HW224521   3.144   5.401   8.593  0.5720 -0.8001  0.9810
 7769SOL     OW24522   1.441   4.640   8.629 -0.3000  0.0803 -0.3311
 7769SOL    HW124523   1.416   4.548   8.635  0.0705  0.0472  1.0420
 7769SOL    HW224524   1.518   4.640   8.572  1.4858 -0.8866  1.9115
 7770SOL     OW24525   3.620   3.421   7.911 -0.0075  0.0839  0.4484
 7770SOL    HW124526   3.647   3.460   7.828 -2.0580  0.9679  0.1139
 7770SOL    HW224527   3.571   3.343   7.885  0.3011 -0.2590  0.8924
 7771SOL     OW24528   3.248   5.554   7.779  0.2171  0.2881 -0.3931
 7771SOL    HW124529   3.249   5.513   7.692  0.9549  1.0906 -0.7807
 7771SOL    HW224530   3.281   5.487   7.838 -0.3391 -0.2810 -0.7161
 7772SOL     OW24531   2.614   5.652   7.767 -0.1301  0.1520  0.0192
 7772SOL    HW124532   2.532   5.607   7.751  0.1471 -0.2934 -0.1628
 7772SOL    HW224533   2.606   5.734   7.717 -1.4630  1.2975  1.9757
 7773SOL     OW24534   3.836   3.962   8.685  0.3693  0.0120  0.5616
 7773SOL    HW124535   3.761   3.965   8.744  0.6001 -0.0192  0.8587
 7773SOL    HW224536   3.798   3.946   8.598 -0.1296  1.9477  0.3980
 7774SOL     OW24537   2.024   3.882   8.200  0.2772  0.5552 -0.4568
 7774SOL    HW124538   1.991   3.829   8.273 -1.5756 -0.0344 -1.6500
 7774SOL    HW224539   1.988   3.969   8.214 -1.0996  0.1506 -1.2360
 7775SOL     OW24540   3.467   4.784   7.295 -0.6990 -0.4222 -0.2995
 7775SOL    HW124541   3.534   4.721   7.268 -1.0217 -0.4217 -1.1246
 7775SOL    HW224542   3.495   4.866   7.255  0.7024  0.4265  2.2402
 7776SOL     OW24543   3.057   4.559   8.466 -0.1253  0.0187 -0.4222
 7776SOL    HW124544   3.027   4.481   8.420 -1.7494  1.2487 -1.5434
 7776SOL    HW224545   3.112   4.526   8.537 -0.8306 -2.1253 -0.8294
 7777SOL     OW24546   2.620   4.543   7.395 -0.2508  0.3582 -0.1677
 7777SOL    HW124547   2.586   4.596   7.468  0.3428  2.2227 -1.1664
 7777SOL    HW224548   2.555   4.554   7.326  0.5622  0.9156 -0.8504
 7778SOL     OW24549   3.881   5.090   7.587  0.2232 -0.0433 -0.0327
 7778SOL    HW124550   3.958   5.065   7.535  0.0124 -0.1151 -0.3173
 7778SOL    HW224551   3.898   5.180   7.613  0.3303 -0.0030 -0.2354
 7779SOL     OW24552   3.995   4.782   8.450 -0.5379 -0.0633  0.0825
 7779SOL    HW124553   4.039   4.833   8.382  0.4924 -1.0940 -0.0595
 7779SOL    HW224554   4.039   4.806   8.531 -1.3272  0.6755  0.3003
 7780SOL     OW24555   2.869   4.249   8.068 -0.0064  0.1463 -0.1853
 7780SOL    HW124556   2.778   4.266   8.041  0.0373 -0.2127 -0.5829
 7780SOL    HW224557   2.906   4.201   7.994  0.9739  1.6415 -0.7033
 7781SOL     OW24558   2.893   3.910   8.543  0.0194 -0.1606 -0.1231
 7781SOL    HW124559   2.914   3.822   8.574 -0.0459  0.5082  1.9747
 7781SOL    HW224560   2.833   3.896   8.469  0.6238 -1.8584 -0.3486
 7782SOL     OW24561   2.501   4.991   7.825 -0.3149 -1.0114 -0.2476
 7782SOL    HW124562   2.590   4.977   7.793  0.3819 -0.1437  1.1573
 7782SOL    HW224563   2.444   4.951   7.760  1.0472 -0.4070 -1.8582
 7783SOL     OW24564   4.198   4.042   8.449  0.0524 -0.7358  0.0860
 7783SOL    HW124565   4.244   4.008   8.526 -1.6380  1.3436  2.1764
 7783SOL    HW224566   4.142   3.970   8.420  1.6119 -1.9586 -0.0367
 7784SOL     OW24567   2.110   4.810   7.737 -0.0595 -0.2145  0.3336
 7784SOL    HW124568   2.083   4.823   7.828 -2.3386  1.4836 -0.4690
 7784SOL    HW224569   2.070   4.727   7.712 -0.2437 -0.2163  0.6237
 7785SOL     OW24570   2.270   4.307   0.131 -0.2910 -0.5685  0.3489
 7785SOL    HW124571   2.351   4.343   0.168  0.5974 -2.1174  0.0206
 7785SOL    HW224572   2.205   4.376   0.143  0.8026  0.2940  1.6410
 7786SOL     OW24573   2.099   3.517   7.381  0.3837  0.5368  0.4077
 7786SOL    HW124574   2.065   3.532   7.292 -0.0476  0.7787  0.6071
 7786SOL    HW224575   2.045   3.574   7.436  0.8710  0.6366  0.7817
 7787SOL     OW24576   1.548   3.959   7.212  0.0265 -0.3543 -0.0975
 7787SOL    HW124577   1.633   3.982   7.175  0.2097 -1.2809 -0.2645
 7787SOL    HW224578   1.494   3.938   7.135 -0.7160  1.3487 -0.0848
 7788SOL     OW24579   2.773   4.903   7.665 -0.4271  0.1537 -0.9931
 7788SOL    HW124580   2.850   4.946   7.703 -1.1519  1.4295 -0.9076
 7788SOL    HW224581   2.809   4.852   7.592  0.6956 -0.5931  0.0462
 7789SOL     OW24582   2.599   4.887   0.076 -0.4116  0.2015 -0.0106
 7789SOL    HW124583   2.648   4.858   0.153 -0.4009  0.6464  0.1483
 7789SOL    HW224584   2.651   4.959   0.040 -0.5396  0.1534 -0.2973
 7790SOL     OW24585   3.090   5.705   7.950 -0.0478  0.7278  0.4825
 7790SOL    HW124586   3.132   5.656   7.880  0.7308  0.5382  1.0724
 7790SOL    HW224587   3.084   5.643   8.023 -1.1775  0.8081  0.4886
 7791SOL     OW24588   3.450   4.610   8.566 -0.3486  0.4569  0.0359
 7791SOL    HW124589   3.534   4.579   8.599 -0.8434 -0.1750  0.7150
 7791SOL    HW224590   3.451   4.704   8.583  0.4367  0.5515 -0.4545
 7792SOL     OW24591   2.670   3.891   7.819  0.5217 -0.9025  0.2234
 7792SOL    HW124592   2.750   3.862   7.864  0.7937  0.0763  0.4097
 7792SOL    HW224593   2.669   3.986   7.832  0.7084 -0.5353 -1.9687
 7793SOL     OW24594   2.308   3.800   8.157  0.2794  0.4405  0.7417
 7793SOL    HW124595   2.311   3.856   8.080  0.1770 -2.0067 -1.1761
 7793SOL    HW224596   2.215   3.791   8.177  0.2562  0.3332  0.5812
 7794SOL     OW24597   3.511   4.720   0.066 -0.4937  0.0514  0.0155
 7794SOL    HW124598   3.578   4.760   0.121 -0.9004 -0.0911  0.6324
 7794SOL    HW224599   3.485   4.642   0.114 -0.7029 -0.1900 -0.4930
 7795SOL     OW24600   3.014   5.004   7.624 -0.0433  0.4444 -0.3295
 7795SOL    HW124601   3.100   4.970   7.651  0.3489  1.0498 -0.7751
 7795SOL    HW224602   3.031   5.043   7.538 -0.5572  1.4309  0.0115
 7796SOL     OW24603   2.727   5.080   8.275  0.0172  0.2403 -0.5871
 7796SOL    HW124604   2.652   5.126   8.238 -1.1037 -1.8396 -1.1012
 7796SOL    HW224605   2.695   4.991   8.289  2.9099 -1.2705 -2.5888
 7797SOL     OW24606   2.404   3.921   7.943 -0.0440  0.1844  0.4158
 7797SOL    HW124607   2.383   4.000   7.893 -0.3062  0.5491  1.0897
 7797SOL    HW224608   2.494   3.902   7.920  0.2826  1.1432  0.8507
 7798SOL     OW24609   2.609   4.820   7.008 -0.3352  0.0827 -0.3991
 7798SOL    HW124610   2.698   4.803   7.041  0.1526  0.8950 -1.2495
 7798SOL    HW224611   2.553   4.812   7.085  0.4080 -0.9309  0.0576
 7799SOL     OW24612   3.507   5.173   8.073 -0.1447  0.0600 -0.4249
 7799SOL    HW124613   3.432   5.135   8.029  0.0447 -0.6071 -0.1847
 7799SOL    HW224614   3.475   5.257   8.107 -0.2441  0.6615 -1.9471
 7800SOL     OW24615   1.657   4.361   8.338 -0.2891 -0.1250  0.4011
 7800SOL    HW124616   1.674   4.273   8.373 -2.0962 -0.2698  1.0359
 7800SOL    HW224617   1.709   4.419   8.394 -0.5332 -0.6450  1.1890
 7801SOL     OW24618   2.982   3.659   0.192  0.3293  0.9904  0.2761
 7801SOL    HW124619   3.076   3.651   0.182  0.2107  1.0687 -1.0793
 7801SOL    HW224620   2.959   3.737   0.141 -0.4903  0.8318  0.3898
 7802SOL     OW24621   1.980   3.809   7.931  0.3362 -0.2411  0.1441
 7802SOL    HW124622   1.935   3.726   7.946 -2.1312  0.9338 -0.2269
 7802SOL    HW224623   1.973   3.855   8.015 -2.6657  1.4279 -0.8341
 7803SOL     OW24624   3.417   5.295   8.597  0.3481 -0.1325  0.5355
 7803SOL    HW124625   3.403   5.344   8.678  0.5963 -0.2599  0.6562
 7803SOL    HW224626   3.338   5.311   8.546 -0.7408 -1.7306  1.6409
 7804SOL     OW24627   2.019   4.425   8.664  0.9955  0.4123 -0.4844
 7804SOL    HW124628   2.006   4.346   8.610  0.7507  1.7827 -2.5529
 7804SOL    HW224629   2.112   4.423   8.686  1.0207 -0.3959 -0.6266
 7805SOL     OW24630   2.510   5.168   8.137 -0.0842 -0.9195  0.3519
 7805SOL    HW124631   2.481   5.242   8.084  0.3234 -0.9815  0.0342
 7805SOL    HW224632   2.431   5.115   8.149  0.0936 -1.6913 -1.4875
 7806SOL     OW24633   2.718   4.293   8.509 -0.2358  0.2595  0.0184
 7806SOL    HW124634   2.644   4.314   8.452  0.9191 -2.8074 -2.9127
 7806SOL    HW224635   2.717   4.362   8.576 -2.5151  3.3628 -2.8910
 7807SOL     OW24636   2.863   3.858   8.052  0.6379  0.1560  0.2086
 7807SOL    HW124637   2.932   3.924   8.060  0.0230  0.6490  2.0733
 7807SOL    HW224638   2.884   3.793   8.120  1.2147 -1.6246 -1.5679
 7808SOL     OW24639   2.821   4.607   7.899  0.0295 -0.3828  0.2157
 7808SOL    HW124640   2.878   4.564   7.835 -1.4791 -0.0779 -1.3689
 7808SOL    HW224641   2.841   4.700   7.891  0.1798 -0.3817  0.5581
 7809SOL     OW24642   2.786   5.074   8.748 -0.1351 -0.3053  0.1419
 7809SOL    HW124643   2.766   5.021   8.671  0.1863  0.6369 -0.5998
 7809SOL    HW224644   2.769   5.164   8.721  2.4712  0.3246  0.2998
 7810SOL     OW24645   3.816   3.475   6.921  0.5211 -0.6196 -0.1022
 7810SOL    HW124646   3.743   3.465   6.860  1.5919  0.3568 -1.6498
 7810SOL    HW224647   3.797   3.415   6.993  0.0420 -3.2187 -2.2302
 7811SOL     OW24648   2.642   4.376   7.953  0.4324  0.0055 -0.0803
 7811SOL    HW124649   2.556   4.387   7.994  0.1330  0.6013 -0.8478
 7811SOL    HW224650   2.692   4.453   7.981  0.7321 -0.3570  0.3924
 7812SOL     OW24651   3.495   4.078   8.342 -0.1513 -0.1443 -0.1036
 7812SOL    HW124652   3.419   4.021   8.353  0.7211 -1.1554  0.9899
 7812SOL    HW224653   3.484   4.146   8.408  0.6055 -1.1366  1.0846
 7813SOL     OW24654   1.446   4.869   7.995  0.0483  0.2971 -0.3586
 7813SOL    HW124655   1.539   4.867   7.973  0.1352  0.5556 -0.0434
 7813SOL    HW224656   1.443   4.849   8.089 -0.2402 -0.0061 -0.4292
 7814SOL     OW24657   2.755   5.197   7.946 -0.1991  0.2304  0.3519
 7814SOL    HW124658   2.736   5.273   8.001  0.4509  0.3436  0.4254
 7814SOL    HW224659   2.674   5.183   7.896 -0.4654  0.7125  0.6364
 7815SOL     OW24660   2.276   6.243   8.291  0.0552 -0.5527 -0.5109
 7815SOL    HW124661   2.356   6.228   8.341 -0.5657 -0.7173  0.4716
 7815SOL    HW224662   2.214   6.277   8.355 -0.3742  0.5040 -1.4701
 7816SOL     OW24663   2.424   5.912   1.036 -0.0206 -0.1283 -0.0212
 7816SOL    HW124664   2.378   5.907   1.119  1.1150 -2.0431  0.5704
 7816SOL    HW224665   2.516   5.896   1.058  0.6375  1.4854 -1.4048
 7817SOL     OW24666   1.911   6.191   0.570  0.1908  0.4896  0.5058
 7817SOL    HW124667   1.915   6.107   0.614 -0.0789  0.1102 -0.1779
 7817SOL    HW224668   1.825   6.193   0.529  0.5852  0.6546 -0.3396
 7818SOL     OW24669   1.977   7.057   0.751 -0.4113 -0.1133 -0.0074
 7818SOL    HW124670   1.996   7.150   0.761  0.1369 -0.3227  0.9980
 7818SOL    HW224671   2.056   7.013   0.783 -0.9805 -0.9347  0.2872
 7819SOL     OW24672   3.960   6.846   0.723 -0.0436 -0.2881  0.6683
 7819SOL    HW124673   3.938   6.878   0.811 -1.5891 -0.4307  0.3726
 7819SOL    HW224674   3.917   6.908   0.664 -0.4870 -1.1679  0.0414
 7820SOL     OW24675   3.059   6.187   0.434 -0.1408  0.6350  0.0325
 7820SOL    HW124676   2.999   6.125   0.474  0.6855  0.1649  0.5799
 7820SOL    HW224677   3.077   6.151   0.347 -0.6643  0.7949 -0.1446
 7821SOL     OW24678   3.744   6.273   0.297 -0.3600 -0.2029  0.0608
 7821SOL    HW124679   3.686   6.343   0.266 -0.8919  0.4697  2.3820
 7821SOL    HW224680   3.820   6.278   0.239 -0.8121  1.6763 -0.4454
 7822SOL     OW24681   2.757   6.987   1.104 -0.3754  0.1473  0.4163
 7822SOL    HW124682   2.698   6.940   1.045  0.6167  0.6889 -1.0809
 7822SOL    HW224683   2.842   6.983   1.060  0.4743  0.3137  1.9866
 7823SOL     OW24684   2.758   6.511   1.813 -0.4327 -0.2546  0.2776
 7823SOL    HW124685   2.812   6.590   1.822  0.2922 -0.7178  0.0722
 7823SOL    HW224686   2.679   6.530   1.865  0.1716  0.2185  1.0443
 7824SOL     OW24687   2.653   6.464   0.705  1.2585  0.6911  0.1347
 7824SOL    HW124688   2.609   6.422   0.778  0.2261  3.2405  1.0962
 7824SOL    HW224689   2.605   6.434   0.627  2.0943 -1.6923  0.4519
 7825SOL     OW24690   2.520   6.638   1.620  0.2414  0.1432  0.1176
 7825SOL    HW124691   2.457   6.697   1.578  0.7801  2.2206  2.0395
 7825SOL    HW224692   2.479   6.616   1.703  1.1812 -0.1329  0.5106
 7826SOL     OW24693   1.721   6.943   0.665 -0.4693  0.2760  0.2514
 7826SOL    HW124694   1.793   6.964   0.724 -0.3383  3.3319 -0.8089
 7826SOL    HW224695   1.756   6.877   0.606  0.0174 -1.3985  2.2772
 7827SOL     OW24696   2.979   7.155   1.180 -0.1669 -0.4757  0.4331
 7827SOL    HW124697   2.888   7.129   1.175  0.0477 -1.1621 -0.0247
 7827SOL    HW224698   3.015   7.105   1.253  0.2122 -1.3841 -0.3625
 7828SOL     OW24699   2.087   6.062   1.767  0.6909  0.0341 -0.0483
 7828SOL    HW124700   2.166   6.021   1.730  0.2648 -0.3984 -0.5058
 7828SOL    HW224701   2.021   5.993   1.762  0.6563 -0.0806  1.6946
 7829SOL     OW24702   3.308   6.038   0.567 -0.0857 -0.0423  0.1658
 7829SOL    HW124703   3.272   5.976   0.504 -2.1279  0.0578  1.1631
 7829SOL    HW224704   3.307   6.122   0.522 -0.0176 -0.2339 -0.1993
 7830SOL     OW24705   2.475   7.140   0.237 -0.1411  0.7454 -0.5340
 7830SOL    HW124706   2.518   7.089   0.306 -1.4092 -1.4106 -1.2702
 7830SOL    HW224707   2.547   7.176   0.185  0.8003  1.1221  0.9559
 7831SOL     OW24708   3.029   7.358   1.655  0.4624 -0.5022  0.2434
 7831SOL    HW124709   3.027   7.440   1.605 -0.5349 -0.8560 -0.3363
 7831SOL    HW224710   3.092   7.374   1.724 -0.5122  1.1699  0.8146
 7832SOL     OW24711   2.266   7.028   0.103 -0.0951 -0.4651 -0.0024
 7832SOL    HW124712   2.206   7.040   0.176  0.1396 -4.8355  1.2280
 7832SOL    HW224713   2.351   7.058   0.137 -0.5905  0.8517  0.1381
 7833SOL     OW24714   1.968   6.913   0.518 -0.0276 -0.4219  0.0886
 7833SOL    HW124715   1.991   6.825   0.549  1.1361  0.0507  0.6218
 7833SOL    HW224716   1.975   6.968   0.596 -1.9378 -0.0282  0.0317
 7834SOL     OW24717   2.427   7.548   1.103 -0.0167  0.2907 -0.7083
 7834SOL    HW124718   2.375   7.594   1.170 -0.5639  1.0000 -1.6088
 7834SOL    HW224719   2.516   7.551   1.137 -0.3994 -0.0939  0.3992
 7835SOL     OW24720   2.950   7.001   0.401 -0.7272  0.1439  0.6644
 7835SOL    HW124721   2.891   7.025   0.330  0.3833  1.0787  0.0295
 7835SOL    HW224722   2.963   6.907   0.389  1.6015  0.6623 -2.1687
 7836SOL     OW24723   3.273   5.914   1.663 -0.0779  0.6373  0.1298
 7836SOL    HW124724   3.207   5.877   1.722  0.6878 -0.2543  0.4513
 7836SOL    HW224725   3.326   5.970   1.719 -0.2062  0.9052 -0.0140
 7837SOL     OW24726   2.158   6.239   0.434 -0.4594  0.0969  0.2504
 7837SOL    HW124727   2.090   6.250   0.500 -0.9292 -0.0544 -0.2053
 7837SOL    HW224728   2.196   6.153   0.453 -1.0146 -0.2183 -0.0598
 7838SOL     OW24729   4.050   7.561   0.365  0.0637 -0.2110 -0.2826
 7838SOL    HW124730   4.079   7.607   0.286  3.0061 -0.3557  0.6153
 7838SOL    HW224731   4.076   7.470   0.352  2.3635  0.0766  1.5058
 7839SOL     OW24732   2.406   6.959   8.609  0.6444 -0.1619  0.1664
 7839SOL    HW124733   2.354   6.882   8.631  0.6456 -0.5223 -1.0239
 7839SOL    HW224734   2.497   6.931   8.621  0.6321  0.5908  2.6493
 7840SOL     OW24735   3.440   6.305   0.504 -0.4219 -0.0749  0.0218
 7840SOL    HW124736   3.508   6.286   0.568 -0.5844 -2.8288 -0.4762
 7840SOL    HW224737   3.473   6.268   0.422 -1.2875  1.1385 -0.9124
 7841SOL     OW24738   3.854   6.786   0.302  0.7189 -0.0022 -0.4363
 7841SOL    HW124739   3.787   6.730   0.340 -0.0313  0.1336 -1.5109
 7841SOL    HW224740   3.934   6.733   0.304 -0.0160 -1.2417 -1.6374
 7842SOL     OW24741   1.837   6.630   1.757 -0.0057  0.1457 -0.0817
 7842SOL    HW124742   1.808   6.581   1.681  0.3114  1.9840 -1.4658
 7842SOL    HW224743   1.757   6.669   1.793 -0.0982 -0.3579  0.2642
 7843SOL     OW24744   2.225   6.893   0.383  0.2635 -0.6242  0.0748
 7843SOL    HW124745   2.152   6.836   0.405  0.3831 -1.2255 -0.9953
 7843SOL    HW224746   2.301   6.834   0.378  0.6484 -0.1565  0.2654
 7844SOL     OW24747   3.051   6.961   1.359  0.1806  0.4666 -0.5195
 7844SOL    HW124748   2.986   6.892   1.376  0.5167 -0.3217 -2.2564
 7844SOL    HW224749   3.135   6.917   1.365  0.4858  1.1047 -0.0186
 7845SOL     OW24750   2.870   5.567   0.813 -0.2199 -0.3266  0.2140
 7845SOL    HW124751   2.962   5.547   0.829  0.0207 -0.5350 -1.2629
 7845SOL    HW224752   2.846   5.628   0.883  0.8886 -0.6681  0.9165
 7846SOL     OW24753   2.300   6.660   0.956 -0.0178  0.2767  0.0693
 7846SOL    HW124754   2.231   6.619   1.008  0.8332 -1.0711  0.1778
 7846SOL    HW224755   2.375   6.664   1.015  0.5892 -0.1267 -0.6634
 7847SOL     OW24756   3.016   6.277   0.020 -0.6666  0.8653 -0.2273
 7847SOL    HW124757   2.937   6.299   0.069 -0.2827  1.0377  0.3288
 7847SOL    HW224758   2.990   6.204  -0.036 -0.3906 -1.3773  2.3851
 7848SOL     OW24759   3.498   7.555   1.758  0.2937  0.7997  0.0063
 7848SOL    HW124760   3.422   7.525   1.708  0.1940  0.6955  0.2169
 7848SOL    HW224761   3.470   7.636   1.799 -0.2510 -0.0318  1.3589
 7849SOL     OW24762   2.306   5.824   1.786  0.6711  0.1761 -0.4206
 7849SOL    HW124763   2.294   5.729   1.780 -2.4027  0.4696 -0.5161
 7849SOL    HW224764   2.296   5.843   1.880  2.4543  0.3330 -0.2335
 7850SOL     OW24765   3.295   7.022   0.790 -0.1777 -0.3068 -0.2522
 7850SOL    HW124766   3.320   7.000   0.879 -0.0406 -0.2487 -0.2766
 7850SOL    HW224767   3.235   6.952   0.764 -0.3873 -0.2082 -0.0400
 7851SOL     OW24768   3.558   7.533   0.590  0.5637 -0.4149  0.7636
 7851SOL    HW124769   3.564   7.584   0.672 -0.1437 -0.5484  0.8974
 7851SOL    HW224770   3.474   7.557   0.553 -0.2129 -2.1940  1.2925
 7852SOL     OW24771   2.345   5.735   0.073  0.1467  0.4021  0.5075
 7852SOL    HW124772   2.383   5.765   0.156 -0.6170  0.5017  0.8227
 7852SOL    HW224773   2.409   5.671   0.041 -0.3534 -0.9301  2.0274
 7853SOL     OW24774   3.048   6.204   0.759 -0.6080 -0.0074  0.9355
 7853SOL    HW124775   3.055   6.132   0.696 -1.2686 -1.0483  1.9971
 7853SOL    HW224776   3.104   6.273   0.724  0.8875 -1.4370  0.3963
 7854SOL     OW24777   3.844   7.194   0.316 -0.2747 -0.3493 -0.0150
 7854SOL    HW124778   3.859   7.176   0.223  1.0978  0.5478  0.0059
 7854SOL    HW224779   3.757   7.235   0.318  0.0099  0.3722 -1.0174
 7855SOL     OW24780   2.209   6.317   1.811  0.6416 -0.0741 -0.0401
 7855SOL    HW124781   2.188   6.313   1.904  0.1397 -0.7341 -0.1798
 7855SOL    HW224782   2.155   6.250   1.771  1.2165 -0.1305 -0.7436
 7856SOL     OW24783   3.092   5.807   1.807  0.4891 -0.5919 -0.3694
 7856SOL    HW124784   3.010   5.836   1.846 -0.1063 -0.8947 -1.3918
 7856SOL    HW224785   3.094   5.713   1.822  0.4365 -0.6529 -0.7439
 7857SOL     OW24786   2.320   6.563   1.796  0.2323  0.0650  1.0318
 7857SOL    HW124787   2.252   6.629   1.782  0.7055  0.4123  0.3286
 7857SOL    HW224788   2.274   6.479   1.787 -0.2152  0.2970  1.1470
 7858SOL     OW24789   2.903   6.051   1.188 -0.4844  0.4286 -0.0461
 7858SOL    HW124790   2.986   6.093   1.209  0.6174 -0.6861 -1.8664
 7858SOL    HW224791   2.876   6.009   1.270  0.0878  1.8321  0.8996
 7859SOL     OW24792   2.934   6.027   8.792  0.2649 -0.2639 -0.5963
 7859SOL    HW124793   2.846   5.993   8.780 -0.0343 -0.9703  2.6913
 7859SOL    HW224794   2.984   5.990   8.719 -1.3188 -3.0654 -0.3961
 7860SOL     OW24795   1.955   5.794   0.905  0.4066 -0.2598  0.0574
 7860SOL    HW124796   1.946   5.817   0.997  0.0636 -0.0941 -0.0168
 7860SOL    HW224797   2.022   5.853   0.872  0.0176  0.1735  0.0318
 7861SOL     OW24798   1.584   7.091   1.844  0.1703  0.4218  0.2951
 7861SOL    HW124799   1.506   7.114   1.794  1.0063  1.7601 -0.4413
 7861SOL    HW224800   1.579   7.145   1.923  0.5095  0.7593  0.0901
 7862SOL     OW24801   2.792   5.718   0.274  0.4399 -0.2717 -0.1693
 7862SOL    HW124802   2.771   5.810   0.292 -0.6471 -0.5643  0.1424
 7862SOL    HW224803   2.883   5.709   0.301  0.7652  0.8627 -0.7997
 7863SOL     OW24804   3.493   6.561   2.068 -0.2244 -0.0355 -0.0980
 7863SOL    HW124805   3.509   6.527   1.980  1.0182 -0.8288  0.4161
 7863SOL    HW224806   3.428   6.502   2.105  0.8654 -1.0260  0.2790
 7864SOL     OW24807   3.169   6.805   0.629 -0.0623  0.0597  0.4391
 7864SOL    HW124808   3.219   6.737   0.673  0.0665 -0.9676 -1.2132
 7864SOL    HW224809   3.151   6.770   0.542 -2.3502  1.0209  0.4391
 7865SOL     OW24810   2.709   5.881   1.077 -0.0451  0.6071  0.0044
 7865SOL    HW124811   2.778   5.938   1.112  0.7965  1.8319 -3.3548
 7865SOL    HW224812   2.740   5.792   1.096  1.0780  1.1716  0.9434
 7866SOL     OW24813   2.874   7.094   0.139 -0.2124 -0.0153 -0.4072
 7866SOL    HW124814   2.802   7.150   0.113 -0.2817 -0.2576 -0.7423
 7866SOL    HW224815   2.923   7.077   0.058 -0.8916 -1.4328 -0.5571
 7867SOL     OW24816   2.521   7.712   0.593  0.3013 -0.2791  0.3075
 7867SOL    HW124817   2.478   7.642   0.544 -0.4972  0.2169  0.2790
 7867SOL    HW224818   2.596   7.736   0.539  0.3262 -0.8123  0.1018
 7868SOL     OW24819   3.157   6.600   0.984 -0.2583  0.3432  0.2516
 7868SOL    HW124820   3.253   6.598   0.988 -0.2821 -1.2689  0.8528
 7868SOL    HW224821   3.132   6.508   0.974 -1.6799  0.9172 -2.2551
 7869SOL     OW24822   2.741   7.428   1.481 -0.7105  0.2727 -0.1928
 7869SOL    HW124823   2.756   7.448   1.574 -0.3987 -0.3326 -0.1041
 7869SOL    HW224824   2.823   7.389   1.452 -0.8980  0.2241 -0.6573
 7870SOL     OW24825   2.385   6.238   8.662 -0.1135 -0.4808 -0.6659
 7870SOL    HW124826   2.430   6.224   8.579  0.1150 -1.0668 -0.4489
 7870SOL    HW224827   2.409   6.162   8.716  0.0358  0.0692  0.0600
 7871SOL     OW24828   3.198   6.424   0.656  0.0792  0.1772  0.1603
 7871SOL    HW124829   3.213   6.514   0.685  1.2680  0.4994 -1.3614
 7871SOL    HW224830   3.278   6.398   0.611 -1.0061 -0.8849 -1.2949
 7872SOL     OW24831   2.312   6.795   1.535  0.1794  0.3111 -0.8457
 7872SOL    HW124832   2.245   6.790   1.604  1.1073  0.2730  0.0835
 7872SOL    HW224833   2.263   6.806   1.454 -0.9628 -0.0926 -0.2227
 7873SOL     OW24834   3.498   7.120   0.013  0.3622 -0.4408  0.0629
 7873SOL    HW124835   3.558   7.069   0.067 -0.5118 -1.9336 -0.3294
 7873SOL    HW224836   3.429   7.059  -0.011 -1.1636  1.1464  0.2222
 7874SOL     OW24837   1.766   5.856   1.461  0.0805 -0.5680 -0.0389
 7874SOL    HW124838   1.786   5.764   1.444  0.0055 -0.3350 -1.5573
 7874SOL    HW224839   1.841   5.904   1.426  0.5474 -0.0712  1.5670
 7875SOL     OW24840   3.853   7.018   0.543 -0.6808  0.3062  0.2615
 7875SOL    HW124841   3.774   6.964   0.546 -0.3689 -0.1346  0.6195
 7875SOL    HW224842   3.857   7.048   0.452  0.8193 -2.8289 -0.8557
 7876SOL     OW24843   2.531   7.501   0.034 -0.3727 -0.0277 -0.4941
 7876SOL    HW124844   2.453   7.501   0.090  0.9913 -0.2293  1.5098
 7876SOL    HW224845   2.589   7.567   0.073  0.4534  0.1513 -1.9588
 7877SOL     OW24846   3.313   5.620   0.414  0.0287 -0.2656 -0.1101
 7877SOL    HW124847   3.263   5.589   0.490  1.2299 -1.2175  0.3300
 7877SOL    HW224848   3.266   5.698   0.385 -2.5991 -1.9369 -0.6893
 7878SOL     OW24849   2.681   7.277   0.486 -0.2088  0.0246 -0.0232
 7878SOL    HW124850   2.640   7.191   0.493  0.7602 -0.5560 -1.0028
 7878SOL    HW224851   2.775   7.259   0.490  0.0020  1.2224  1.3804
 7879SOL     OW24852   2.313   6.248   0.103 -0.5647  0.4891 -0.1656
 7879SOL    HW124853   2.221   6.232   0.085 -0.2656  1.5438 -3.2592
 7879SOL    HW224854   2.356   6.164   0.086 -0.9517 -0.2377  2.0932
 7880SOL     OW24855   3.289   6.238   1.926  0.7321 -0.3941  0.3726
 7880SOL    HW124856   3.208   6.220   1.878  0.8673 -3.0789  0.9660
 7880SOL    HW224857   3.359   6.207   1.868  1.4351  2.0698 -0.2180
 7881SOL     OW24858   2.274   6.174   2.048 -0.0507  0.1179 -0.2329
 7881SOL    HW124859   2.346   6.154   1.988  2.3372  0.2076  2.3855
 7881SOL    HW224860   2.234   6.089   2.067  0.1178 -0.0933 -0.8058
 7882SOL     OW24861   2.404   7.033   1.097  0.2554  0.3460 -0.1854
 7882SOL    HW124862   2.447   6.969   1.041  1.3655 -0.0606  1.0806
 7882SOL    HW224863   2.464   7.107   1.100  1.5299 -0.6425  2.4428
 7883SOL     OW24864   2.764   6.089   1.744 -0.6256  0.4010 -0.7584
 7883SOL    HW124865   2.763   6.144   1.823  1.8364 -0.1540 -0.2435
 7883SOL    HW224866   2.707   6.016   1.764 -0.2667  0.4224  0.4196
 7884SOL     OW24867   2.572   6.859   0.896  0.6434 -0.1067  0.0071
 7884SOL    HW124868   2.484   6.885   0.867 -0.1289 -1.0988  1.3504
 7884SOL    HW224869   2.610   6.815   0.820 -0.9001 -1.6565  0.0549
 7885SOL     OW24870   2.704   6.410   0.387 -0.1182  0.4464 -0.1836
 7885SOL    HW124871   2.674   6.497   0.414 -0.2114  0.3324  0.0786
 7885SOL    HW224872   2.624   6.358   0.379 -0.0460  0.3255 -0.1259
 7886SOL     OW24873   2.533   5.582   0.431  0.4815 -0.4023 -0.4218
 7886SOL    HW124874   2.561   5.544   0.515 -0.0498 -1.6984 -0.8112
 7886SOL    HW224875   2.594   5.547   0.367  0.5500  0.1495 -0.6625
 7887SOL     OW24876   3.224   6.469   0.013  0.4167  0.4708 -0.2437
 7887SOL    HW124877   3.241   6.494   0.104 -0.4648 -0.3775  0.1809
 7887SOL    HW224878   3.147   6.412   0.019  0.9987 -0.4608 -1.4055
 7888SOL     OW24879   3.094   5.666   0.217 -0.4227 -0.0806 -0.4229
 7888SOL    HW124880   3.122   5.719   0.142 -2.3275  0.7866 -0.5786
 7888SOL    HW224881   3.167   5.605   0.231  0.4569  0.4515 -2.2706
 7889SOL     OW24882   2.461   6.179   1.414  0.0916  0.3872 -0.2503
 7889SOL    HW124883   2.538   6.123   1.414  1.0129  1.4502 -2.7982
 7889SOL    HW224884   2.463   6.223   1.499  0.7349 -1.5640  0.7954
 7890SOL     OW24885   3.506   7.266   0.980 -0.0684 -0.6590  0.0486
 7890SOL    HW124886   3.586   7.274   0.927  0.0598  1.2519  0.4700
 7890SOL    HW224887   3.439   7.237   0.918  0.3058  0.5617 -0.9729
 7891SOL     OW24888   2.372   6.050   0.493 -0.4961 -0.7232 -0.4148
 7891SOL    HW124889   2.407   5.965   0.469 -0.4647 -0.9164  0.2792
 7891SOL    HW224890   2.381   6.054   0.589 -2.1761 -0.7145 -0.2092
 7892SOL     OW24891   2.979   7.250   0.478  0.1489 -0.0163 -0.4844
 7892SOL    HW124892   3.053   7.270   0.536 -0.8261 -0.8871  1.1037
 7892SOL    HW224893   2.999   7.164   0.442  0.0932 -0.0729 -0.3782
 7893SOL     OW24894   2.840   5.593   8.748  0.1361 -0.1618 -0.4677
 7893SOL    HW124895   2.850   5.579   8.654  0.7558  0.8821 -0.5804
 7893SOL    HW224896   2.912   5.543   8.787  0.4743  0.1963 -0.6275
 7894SOL     OW24897   1.663   6.218   1.451  0.6170  0.3780  0.5092
 7894SOL    HW124898   1.709   6.280   1.508 -0.2814 -0.3482  2.0615
 7894SOL    HW224899   1.596   6.271   1.408  1.8154  1.1034 -0.5536
 7895SOL     OW24900   2.726   6.057   1.470  0.4163 -0.6078 -0.0920
 7895SOL    HW124901   2.753   5.967   1.449 -0.5438 -1.1967  1.0690
 7895SOL    HW224902   2.680   6.049   1.553 -2.4751  0.4373 -1.4571
 7896SOL     OW24903   2.951   5.718   0.583 -0.5274 -0.1417  0.8991
 7896SOL    HW124904   2.903   5.668   0.650 -0.0610  0.5172  1.7410
 7896SOL    HW224905   2.984   5.651   0.523 -3.0150 -0.5863 -0.0742
 7897SOL     OW24906   3.149   5.468   0.665 -0.5885  0.4302  0.0711
 7897SOL    HW124907   3.233   5.421   0.660  0.1325  1.7299 -0.6523
 7897SOL    HW224908   3.144   5.498   0.756 -0.1973  0.4725  0.0803
 7898SOL     OW24909   3.017   6.836   0.974  0.9001  0.3980  0.4167
 7898SOL    HW124910   3.073   6.758   0.975  0.9615  0.4449  0.6971
 7898SOL    HW224911   2.971   6.831   0.890 -1.4841 -1.6469  1.6876
 7899SOL     OW24912   3.093   6.306   1.024  0.1523  0.2946  0.6614
 7899SOL    HW124913   3.173   6.287   1.073 -0.3509 -2.4089  0.5657
 7899SOL    HW224914   3.104   6.260   0.941 -0.3929  2.1217 -0.4768
 7900SOL     OW24915   3.959   6.303   0.621  0.0380  0.2378  0.5143
 7900SOL    HW124916   3.947   6.390   0.659 -0.5283  0.1278  0.5949
 7900SOL    HW224917   3.870   6.270   0.609  0.2335 -0.0637 -0.1301
 7901SOL     OW24918   2.194   6.695   8.586 -0.2310 -0.2718 -0.3891
 7901SOL    HW124919   2.198   6.600   8.594 -0.6775 -0.2972 -0.4480
 7901SOL    HW224920   2.212   6.727   8.675  1.0026 -0.3675 -0.5755
 7902SOL     OW24921   4.263   6.854   0.247 -0.2629  0.2417  0.2651
 7902SOL    HW124922   4.266   6.761   0.221 -1.0496 -0.1254  1.4388
 7902SOL    HW224923   4.294   6.855   0.337 -2.5004  0.7762  1.0933
 7903SOL     OW24924   3.353   5.801   8.645  0.2091 -0.0960  0.2640
 7903SOL    HW124925   3.338   5.805   8.551 -0.9878  0.3457  0.4618
 7903SOL    HW224926   3.448   5.790   8.654  0.4152  0.5749 -0.9696
 7904SOL     OW24927   2.636   5.630   0.057  0.5028 -0.3567  0.2069
 7904SOL    HW124928   2.713   5.613   0.002  0.6440 -0.1862  0.3497
 7904SOL    HW224929   2.673   5.651   0.143  0.2753 -1.4503  0.6006
 7905SOL     OW24930   3.452   6.858   1.793  0.2421  0.4103 -0.7926
 7905SOL    HW124931   3.383   6.907   1.750  0.3759  0.6266 -0.7591
 7905SOL    HW224932   3.421   6.846   1.883  0.4403  0.8763 -0.6624
 7906SOL     OW24933   2.526   7.252   1.316 -0.1104 -0.3170  0.6942
 7906SOL    HW124934   2.582   7.308   1.370 -1.6972  0.1919  1.8922
 7906SOL    HW224935   2.539   7.164   1.353  0.8820 -0.4315  0.0994
 7907SOL     OW24936   3.642   7.024   1.752 -0.1466 -0.3191 -0.0829
 7907SOL    HW124937   3.557   6.980   1.761  0.3765 -0.9670  2.1968
 7907SOL    HW224938   3.706   6.960   1.784  1.1925  0.3302 -1.3209
 7908SOL     OW24939   2.879   7.160   0.881 -0.0927  0.5789  0.1230
 7908SOL    HW124940   2.888   7.086   0.821  0.2167  1.3854 -0.8581
 7908SOL    HW224941   2.949   7.221   0.855 -2.6720  3.0158 -1.8053
 7909SOL     OW24942   3.187   6.519   1.508 -0.3789 -0.2736  0.5900
 7909SOL    HW124943   3.166   6.518   1.414  1.5781 -1.3288  0.1159
 7909SOL    HW224944   3.127   6.455   1.546 -0.1865 -0.9428 -0.1969
 7910SOL     OW24945   3.063   5.875   1.449 -0.1470  0.4089  0.6122
 7910SOL    HW124946   3.099   5.891   1.362 -0.2310 -0.4231  0.4164
 7910SOL    HW224947   3.120   5.923   1.509  0.7847 -0.2155  0.2332
 7911SOL     OW24948   2.809   6.939   1.611 -0.2818 -0.0436 -0.5961
 7911SOL    HW124949   2.885   6.907   1.563  0.1283 -0.2505  0.1658
 7911SOL    HW224950   2.735   6.926   1.551  0.3695  0.8227 -1.6124
 7912SOL     OW24951   2.676   6.690   0.440  0.5432 -0.3039 -0.4560
 7912SOL    HW124952   2.765   6.699   0.474  0.7432  0.6143 -1.1894
 7912SOL    HW224953   2.678   6.735   0.356 -1.1160  1.4444  0.3888
 7913SOL     OW24954   2.037   6.342   1.014  0.3695 -0.4019  0.1879
 7913SOL    HW124955   2.111   6.291   1.047  0.2448  0.3158  1.7061
 7913SOL    HW224956   2.039   6.422   1.066 -0.7141  0.1917 -0.6463
 7914SOL     OW24957   3.039   6.140   1.766  0.0975  0.1928  0.4439
 7914SOL    HW124958   2.947   6.113   1.767  0.4050 -1.0377 -0.7732
 7914SOL    HW224959   3.088   6.057   1.768  1.1581  0.7846 -0.0676
 7915SOL     OW24960   1.551   7.418   1.137 -0.0959 -0.5020 -0.5055
 7915SOL    HW124961   1.608   7.460   1.202 -0.3837 -2.5985  1.2328
 7915SOL    HW224962   1.586   7.446   1.053  1.8056  0.4429  0.5263
 7916SOL     OW24963   2.326   6.828   0.748 -0.0658 -0.3530  0.2484
 7916SOL    HW124964   2.317   6.748   0.801 -0.2672 -0.8673 -0.5453
 7916SOL    HW224965   2.358   6.797   0.664 -1.4962  0.2380 -0.5433
 7917SOL     OW24966   2.773   5.968   0.807 -0.0552  0.4015  0.3076
 7917SOL    HW124967   2.810   6.056   0.815 -0.3488  0.3643  2.6255
 7917SOL    HW224968   2.716   5.959   0.882 -0.5737 -1.5446 -0.2698
 7918SOL     OW24969   3.152   6.988   0.217  0.2510 -0.1383 -0.1334
 7918SOL    HW124970   3.136   7.010   0.125 -0.8126  0.2669  0.1405
 7918SOL    HW224971   3.079   7.028   0.264 -0.1919 -1.8764  0.6971
 7919SOL     OW24972   3.215   6.988   1.099  0.0332  0.2668  0.1474
 7919SOL    HW124973   3.194   7.082   1.100  1.2854  0.6746 -2.3572
 7919SOL    HW224974   3.136   6.947   1.064 -1.0013  0.1547  2.4556
 7920SOL     OW24975   3.495   6.127   0.268 -0.4156 -0.2792 -1.1290
 7920SOL    HW124976   3.588   6.147   0.257 -0.7391  2.2378 -0.0292
 7920SOL    HW224977   3.490   6.032   0.262  2.8959 -1.0154  3.0599
 7921SOL     OW24978   2.054   7.335   0.712 -0.1356  0.8831 -0.1840
 7921SOL    HW124979   2.064   7.353   0.619 -1.5434  0.7128 -0.4042
 7921SOL    HW224980   2.125   7.383   0.754 -0.8475  2.8901 -1.1529
 7922SOL     OW24981   1.872   6.451   1.489 -0.4956 -0.6708 -0.0378
 7922SOL    HW124982   1.861   6.417   1.400 -0.4081 -1.8870  0.4038
 7922SOL    HW224983   1.938   6.394   1.529  0.8209  0.9410  0.2565
 7923SOL     OW24984   3.711   6.777   1.944 -0.4735  0.1961  0.1689
 7923SOL    HW124985   3.659   6.703   1.977 -1.1737  0.3312 -0.5974
 7923SOL    HW224986   3.760   6.740   1.871  0.9536 -0.0632  1.2219
 7924SOL     OW24987   2.787   5.603   1.077  0.2389  0.1310 -0.7387
 7924SOL    HW124988   2.872   5.579   1.114  0.3312  1.0154 -0.3397
 7924SOL    HW224989   2.724   5.552   1.127  0.5466 -0.7163 -1.2029
 7925SOL     OW24990   2.660   5.460   1.284  0.1863  0.6330  0.3963
 7925SOL    HW124991   2.589   5.396   1.283 -0.8128  1.6928 -0.6116
 7925SOL    HW224992   2.736   5.413   1.317 -0.7032 -0.8606  0.3600
 7926SOL     OW24993   2.425   6.634   1.222  0.4113  0.2044  0.1400
 7926SOL    HW124994   2.507   6.626   1.271 -0.4080  0.2350  1.5521
 7926SOL    HW224995   2.405   6.545   1.194  0.6863  0.1330  0.1662
 7927SOL     OW24996   2.789   6.305   1.313 -0.0455  0.3173  0.1099
 7927SOL    HW124997   2.854   6.254   1.265  1.2480  3.0530 -1.2938
 7927SOL    HW224998   2.780   6.259   1.397  2.3372 -1.1916 -0.3575
 7928SOL     OW24999   3.074   6.033   8.542 -0.0959  0.4447  0.0778
 7928SOL    HW125000   3.164   6.021   8.573  0.3676 -1.1396 -1.7187
 7928SOL    HW225001   3.073   6.122   8.507  0.9278  0.3347 -0.2725
 7929SOL     OW25002   2.181   6.186   1.362  0.9620  0.4174  0.0586
 7929SOL    HW125003   2.179   6.199   1.267 -0.1950 -2.7319 -0.4630
 7929SOL    HW225004   2.274   6.183   1.383  1.2434  0.7602 -1.0396
 7930SOL     OW25005   2.423   6.426   0.534  0.1692  0.1706 -0.1753
 7930SOL    HW125006   2.373   6.382   0.602  1.2453  0.6726  0.9688
 7930SOL    HW225007   2.413   6.369   0.457 -1.0816 -0.3823  0.3721
 7931SOL     OW25008   2.573   6.266   0.913  0.6602 -0.2386 -0.3636
 7931SOL    HW125009   2.669   6.263   0.913  0.6798  0.2097 -0.6878
 7931SOL    HW225010   2.550   6.291   1.003  0.8490 -0.3650 -0.2796
 7932SOL     OW25011   3.812   6.955   2.198  0.4853  0.1778  0.1510
 7932SOL    HW125012   3.726   6.927   2.230  1.0047 -0.7867  0.7297
 7932SOL    HW225013   3.827   6.902   2.120  1.5879 -1.4412  1.3987
 7933SOL     OW25014   2.401   5.475   1.011  0.1637  0.0304 -0.0329
 7933SOL    HW125015   2.377   5.551   0.958 -2.6791 -1.0711 -0.5184
 7933SOL    HW225016   2.347   5.483   1.090  1.3232 -0.4596  0.8278
 7934SOL     OW25017   3.526   5.840   0.266 -0.8252 -0.1192  0.8017
 7934SOL    HW125018   3.533   5.745   0.255  2.0905 -0.3641  3.2675
 7934SOL    HW225019   3.567   5.877   0.188 -0.0304 -0.9834  0.7958
 7935SOL     OW25020   2.830   6.232   0.951 -0.3535  0.9930 -0.3865
 7935SOL    HW125021   2.860   6.201   1.037 -0.2005 -0.8515 -1.0587
 7935SOL    HW225022   2.911   6.243   0.901 -0.5534 -0.4986 -1.0843
 7936SOL     OW25023   2.847   7.177   1.762 -0.2113  0.2901 -0.2409
 7936SOL    HW125024   2.856   7.091   1.721  2.4847  0.0981  0.5275
 7936SOL    HW225025   2.914   7.231   1.719 -0.1053  1.2347  1.0459
 7937SOL     OW25026   3.291   6.853   1.324  0.1979  0.0875  0.1392
 7937SOL    HW125027   3.230   6.891   1.260  0.0183 -1.8754 -0.9432
 7937SOL    HW225028   3.374   6.848   1.277 -0.2309 -2.5695 -0.5283
 7938SOL     OW25029   1.745   6.221   1.815  0.2241 -0.2133 -0.0953
 7938SOL    HW125030   1.649   6.217   1.819  0.1898 -0.7478 -1.0407
 7938SOL    HW225031   1.767   6.172   1.735  1.1888  1.1586 -0.7094
 7939SOL     OW25032   3.201   5.840   0.026  0.1364 -0.5437  0.3723
 7939SOL    HW125033   3.256   5.805  -0.044 -1.8417 -1.2157 -0.9243
 7939SOL    HW225034   3.210   5.935   0.020 -1.2027 -0.4833 -1.9143
 7940SOL     OW25035   3.327   6.087   8.632 -0.3832  0.2615  0.1379
 7940SOL    HW125036   3.317   6.117   8.722 -2.2648 -0.0576  0.0782
 7940SOL    HW225037   3.358   5.997   8.639  2.5469  1.1791  0.3582
 7941SOL     OW25038   3.146   7.299   0.714  0.2307  0.1369  0.4492
 7941SOL    HW125039   3.212   7.232   0.693  0.8845  0.8567  0.1603
 7941SOL    HW225040   3.136   7.294   0.809  0.8031  0.1038  0.5143
 7942SOL     OW25041   2.236   6.351   0.729 -0.7035 -0.4227 -1.0347
 7942SOL    HW125042   2.150   6.393   0.735  1.1069  4.1824 -2.8648
 7942SOL    HW225043   2.275   6.363   0.815 -1.1778 -0.8347 -0.7577
 7943SOL     OW25044   2.428   6.055   0.798  0.2244 -0.4836  0.0620
 7943SOL    HW125045   2.423   6.009   0.881 -0.4995  1.1321  0.9484
 7943SOL    HW225046   2.488   6.128   0.815  1.2493 -0.9574 -1.2763
 7944SOL     OW25047   2.580   5.865   1.734  0.0136 -0.2728 -0.1276
 7944SOL    HW125048   2.504   5.850   1.789 -1.6103  2.3569 -1.4668
 7944SOL    HW225049   2.586   5.786   1.680  0.4893 -2.0501  2.3488
 7945SOL     OW25050   3.242   5.751   1.263  0.7207 -0.1955  0.8694
 7945SOL    HW125051   3.326   5.773   1.223 -1.1675  4.1854 -1.2426
 7945SOL    HW225052   3.212   5.674   1.215  2.2737 -0.1367 -0.2615
 7946SOL     OW25053   2.569   7.540   0.819 -0.2550 -0.0984 -0.6244
 7946SOL    HW125054   2.633   7.588   0.873  0.1585 -0.3097 -0.9205
 7946SOL    HW225055   2.584   7.573   0.731  0.1703 -0.9127 -0.8668
 7947SOL     OW25056   2.428   7.275   0.693 -0.3700 -0.1429 -0.3292
 7947SOL    HW125057   2.483   7.321   0.630  0.2806 -2.0457 -1.2231
 7947SOL    HW225058   2.346   7.259   0.645 -0.3871 -0.3842 -0.2201
 7948SOL     OW25059   2.532   6.399   1.138  0.5576  0.1280 -0.0078
 7948SOL    HW125060   2.554   6.346   1.216  1.2759 -0.3219 -0.4967
 7948SOL    HW225061   2.608   6.456   1.126  0.0888  0.7810  0.0971
 7949SOL     OW25062   2.134   6.072   0.754  0.2308 -0.0555  0.8343
 7949SOL    HW125063   2.192   5.996   0.751 -0.3016 -0.4892  1.4009
 7949SOL    HW225064   2.191   6.146   0.732  0.2670 -0.8513 -2.2100
 7950SOL     OW25065   1.520   5.983   1.471 -0.4210 -0.2332  0.4117
 7950SOL    HW125066   1.597   5.927   1.460 -0.7755 -0.5803 -0.3237
 7950SOL    HW225067   1.552   6.071   1.452  0.5922  0.1453  3.3546
 7951SOL     OW25068   3.226   6.441   2.081 -0.3617 -0.2614 -0.3109
 7951SOL    HW125069   3.245   6.373   2.016  0.6121  0.6816 -1.0394
 7951SOL    HW225070   3.146   6.411   2.124 -0.2421 -1.6049 -0.9763
 7952SOL     OW25071   2.694   6.026   0.351 -0.0162  0.0883 -0.7107
 7952SOL    HW125072   2.718   6.087   0.282 -0.1181 -0.2056 -1.0122
 7952SOL    HW225073   2.771   6.020   0.406  0.2649 -0.1089 -1.1223
 7953SOL     OW25074   3.388   6.566   1.169  0.6076  0.3859 -0.1685
 7953SOL    HW125075   3.339   6.620   1.232 -0.6490  1.5293 -2.0383
 7953SOL    HW225076   3.479   6.589   1.185  0.2732  1.1135  0.8347
 7954SOL     OW25077   1.977   6.924   1.566  0.1583 -0.0025 -0.1945
 7954SOL    HW125078   1.896   6.884   1.533  0.5094 -1.6873  0.8477
 7954SOL    HW225079   1.948   6.985   1.633 -0.2813 -0.5978  0.1746
 7955SOL     OW25080   2.345   5.877   1.284 -0.2894 -0.3261 -0.0045
 7955SOL    HW125081   2.378   5.806   1.339  1.2048 -0.2464 -0.7653
 7955SOL    HW225082   2.345   5.953   1.342 -0.8794 -0.6980  0.5063
 7956SOL     OW25083   2.256   7.316   1.280 -0.0852 -0.6651 -0.0680
 7956SOL    HW125084   2.347   7.330   1.303 -0.8393  0.0431  2.8101
 7956SOL    HW225085   2.229   7.240   1.331 -0.7328 -1.9272 -2.1542
 7957SOL     OW25086   2.087   5.795   0.084 -0.4631 -0.6310 -0.1262
 7957SOL    HW125087   2.180   5.793   0.061 -0.6269 -3.0912 -0.8704
 7957SOL    HW225088   2.047   5.852   0.018  0.2538 -1.2520 -1.1345
 7958SOL     OW25089   2.128   6.748   1.728  0.0378 -0.1762  0.6877
 7958SOL    HW125090   2.072   6.816   1.690  0.4786  0.0490  0.4403
 7958SOL    HW225091   2.066   6.681   1.757 -0.2595 -1.4606 -2.4916
 7959SOL     OW25092   2.886   6.941   0.707 -0.2168 -0.9010  0.9869
 7959SOL    HW125093   2.862   6.849   0.719  0.2790 -1.5480 -2.1769
 7959SOL    HW225094   2.893   6.952   0.612  2.4662  1.7173  1.3569
 7960SOL     OW25095   3.689   6.617   0.448  0.0005 -0.0566  0.7814
 7960SOL    HW125096   3.698   6.531   0.490 -2.3154 -0.1853  1.1693
 7960SOL    HW225097   3.656   6.674   0.518 -3.7125 -0.2026 -0.6444
 7961SOL     OW25098   4.105   7.156   1.044 -0.1826 -0.1616 -0.0453
 7961SOL    HW125099   4.127   7.152   0.951  0.7148 -2.0681  0.1993
 7961SOL    HW225100   4.023   7.206   1.048  0.2744  0.7820 -1.7381
 7962SOL     OW25101   3.576   7.663   0.816  0.5696  0.3678 -0.4960
 7962SOL    HW125102   3.648   7.659   0.879 -0.0338 -0.9442  0.1462
 7962SOL    HW225103   3.503   7.700   0.865  0.6984  1.3995 -1.0603
 7963SOL     OW25104   2.012   6.822   0.179 -0.3103 -0.1170  0.4110
 7963SOL    HW125105   2.032   6.884   0.248  2.6910 -0.2511 -0.2023
 7963SOL    HW225106   2.003   6.738   0.223 -1.5185  0.2672  0.9272
 7964SOL     OW25107   1.883   6.977   1.036 -0.3548 -0.2590 -0.2078
 7964SOL    HW125108   1.885   7.059   0.986  0.5335  0.4672  0.9686
 7964SOL    HW225109   1.862   7.004   1.125 -0.3189 -1.3501  0.1373
 7965SOL     OW25110   2.772   5.390   0.252  0.5165 -0.2355  0.0017
 7965SOL    HW125111   2.863   5.362   0.259  0.3449 -0.4837  1.6140
 7965SOL    HW225112   2.773   5.459   0.186  1.7172 -0.7994 -0.6147
 7966SOL     OW25113   3.856   5.640   0.210  0.1034 -0.3523  0.4470
 7966SOL    HW125114   3.923   5.589   0.255 -0.3000 -1.3694 -0.0797
 7966SOL    HW225115   3.780   5.638   0.269  0.6787  1.2727  1.3057
 7967SOL     OW25116   3.550   7.061   0.586  0.5902 -0.5449  0.1955
 7967SOL    HW125117   3.470   7.088   0.630 -0.4562 -2.1531 -0.6208
 7967SOL    HW225118   3.537   7.086   0.495  2.1468  1.4988  0.4714
 7968SOL     OW25119   1.856   7.082   1.737 -0.1498 -0.4476  0.5839
 7968SOL    HW125120   1.772   7.074   1.782 -0.2264  0.4055  0.6229
 7968SOL    HW225121   1.918   7.106   1.806 -0.3145  1.1110  0.2377
 7969SOL     OW25122   3.204   6.434   0.276  0.3688  0.1754 -0.5490
 7969SOL    HW125123   3.249   6.418   0.359  0.6414 -1.5192 -0.9864
 7969SOL    HW225124   3.132   6.372   0.276  0.1793  0.3851 -1.4400
 7970SOL     OW25125   2.240   6.851   1.283  0.2631 -0.0570  0.0078
 7970SOL    HW125126   2.293   6.925   1.254  2.2697 -1.6409 -0.5430
 7970SOL    HW225127   2.286   6.773   1.252 -1.7209 -1.5863  0.6309
 7971SOL     OW25128   2.715   6.874   0.227  0.5205 -0.4791  0.6330
 7971SOL    HW125129   2.759   6.955   0.199  1.6583 -0.8392  1.3187
 7971SOL    HW225130   2.664   6.847   0.150 -0.2719  1.1290  0.5409
 7972SOL     OW25131   3.385   7.808   0.970  0.1287 -0.9717 -0.3217
 7972SOL    HW125132   3.360   7.792   1.061 -1.5550  0.8666 -0.3736
 7972SOL    HW225133   3.474   7.842   0.975 -0.2172 -0.1543  0.7707
 7973SOL     OW25134   3.300   6.287   1.203 -0.1968  0.3583  0.3776
 7973SOL    HW125135   3.371   6.250   1.256  0.0208  2.0475  1.3321
 7973SOL    HW225136   3.326   6.377   1.188 -2.2670  1.1094  1.0187
 7974SOL     OW25137   2.563   5.792   0.713  0.3737 -0.3809 -0.2751
 7974SOL    HW125138   2.632   5.857   0.726  1.1683 -1.1321 -0.6606
 7974SOL    HW225139   2.486   5.844   0.689  0.5813  0.5220  0.8978
 7975SOL     OW25140   3.655   6.965   0.176 -0.6644  0.1773 -0.3531
 7975SOL    HW125141   3.579   6.971   0.233 -0.9512 -1.4359 -0.5359
 7975SOL    HW225142   3.715   6.906   0.221  0.6660  1.6910 -0.0455
 7976SOL     OW25143   3.077   6.548   1.239  0.3930  0.3485 -0.2187
 7976SOL    HW125144   3.026   6.472   1.213  2.2336 -0.7955 -0.7225
 7976SOL    HW225145   3.073   6.608   1.165  0.8520 -0.3271 -0.8002
 7977SOL     OW25146   2.434   6.022   8.849 -0.4137  0.1625 -0.0460
 7977SOL    HW125147   2.526   6.000   8.862 -0.2347  0.9227  0.0238
 7977SOL    HW225148   2.389   5.938   8.847  0.1948 -0.1883  0.5861
 7978SOL     OW25149   3.655   6.818   0.631  0.4974 -0.2810 -0.0098
 7978SOL    HW125150   3.662   6.808   0.726 -2.7075 -0.3763  0.3533
 7978SOL    HW225151   3.617   6.906   0.619  0.7033 -0.3309 -1.1892
 7979SOL     OW25152   2.145   7.046   0.997 -1.2063  0.0351  0.1385
 7979SOL    HW125153   2.072   7.001   1.040 -1.0207 -1.7119 -1.3030
 7979SOL    HW225154   2.222   7.019   1.046 -1.0456 -1.6063 -0.9747
 7980SOL     OW25155   3.099   6.759   1.687  0.5797  0.7720  0.1649
 7980SOL    HW125156   3.045   6.752   1.766 -0.2669 -0.1663 -0.4791
 7980SOL    HW225157   3.123   6.669   1.666  1.3955  1.0746 -0.2573
 7981SOL     OW25158   2.954   6.469   0.538 -0.0252 -0.3630 -0.2340
 7981SOL    HW125159   2.900   6.403   0.493  0.2118 -1.4166  0.9729
 7981SOL    HW225160   3.040   6.427   0.546  0.3059  0.3521  0.0074
 7982SOL     OW25161   3.103   5.522   0.922 -0.2724 -0.5126 -0.2320
 7982SOL    HW125162   3.193   5.526   0.953 -0.2353 -0.5680 -0.3319
 7982SOL    HW225163   3.060   5.460   0.980 -0.2412 -0.5008 -0.1965
 7983SOL     OW25164   2.605   7.021   0.473 -0.1573 -0.2558  0.2698
 7983SOL    HW125165   2.561   6.960   0.532  3.0405 -1.9705  1.0964
 7983SOL    HW225166   2.638   6.966   0.402  0.0616  1.0733 -0.7068
 7984SOL     OW25167   3.004   6.327   1.568  0.1320  0.4724  0.2766
 7984SOL    HW125168   3.004   6.249   1.625 -1.0850 -0.1408 -0.5134
 7984SOL    HW225169   2.925   6.374   1.593 -0.1130  0.4892 -0.5003
 7985SOL     OW25170   2.509   6.827   0.037 -0.2831 -0.4167 -0.1289
 7985SOL    HW125171   2.495   6.740  -0.001  0.6562 -0.6843  0.1027
 7985SOL    HW225172   2.422   6.857   0.061 -0.6726 -1.0846 -0.6770
 7986SOL     OW25173   1.548   6.519   2.011  0.1082  0.8335  0.7272
 7986SOL    HW125174   1.627   6.472   2.040 -0.5196 -0.3710  0.5641
 7986SOL    HW225175   1.478   6.454   2.020 -0.8315  1.8200  0.6618
 7987SOL     OW25176   2.812   5.821   1.386  0.3396 -0.5605  0.4269
 7987SOL    HW125177   2.815   5.733   1.348  1.3288 -2.0193  3.5978
 7987SOL    HW225178   2.897   5.832   1.429  0.3776  2.1379 -0.1327
 7988SOL     OW25179   2.060   6.184   8.800 -0.0960  0.2811  0.2342
 7988SOL    HW125180   2.026   6.097   8.777 -2.3622  0.7631  1.4434
 7988SOL    HW225181   2.027   6.241   8.731  1.1702  0.2748 -0.4128
 7989SOL     OW25182   2.927   6.736   1.370 -0.3665 -0.3731 -0.2615
 7989SOL    HW125183   2.980   6.663   1.336 -0.4002 -0.8870  0.7700
 7989SOL    HW225184   2.843   6.697   1.393 -1.3696  0.4990 -2.1950
 7990SOL     OW25185   2.027   6.108   0.211 -0.3687  0.6929  0.2786
 7990SOL    HW125186   2.066   6.177   0.265  0.1742  1.3444 -0.9068
 7990SOL    HW225187   2.020   6.147   0.124  0.9225 -1.0873 -0.6855
 7991SOL     OW25188   3.405   6.945   0.276  0.0647 -0.8398 -0.0220
 7991SOL    HW125189   3.315   6.942   0.244  0.2699 -1.1401 -0.5867
 7991SOL    HW225190   3.416   6.862   0.324 -0.4136 -0.1478  1.3189
 7992SOL     OW25191   2.121   6.564   1.163  0.2085  0.2008  0.2048
 7992SOL    HW125192   2.052   6.629   1.167 -0.8561 -0.8129 -0.8627
 7992SOL    HW225193   2.122   6.523   1.249 -2.1219 -1.3059 -0.3856
 7993SOL     OW25194   3.443   7.461   1.172  0.0473 -0.1638  0.1127
 7993SOL    HW125195   3.504   7.412   1.117 -0.1242 -2.6193  1.9438
 7993SOL    HW225196   3.433   7.407   1.250 -2.4171  1.4649  1.0309
 7994SOL     OW25197   2.443   6.175   1.715 -0.5718  0.0554  0.3999
 7994SOL    HW125198   2.490   6.128   1.783  1.1723  2.8711  1.3445
 7994SOL    HW225199   2.398   6.246   1.761 -3.1325 -0.5669 -0.9254
 7995SOL     OW25200   3.320   7.458   1.527  0.5974  0.3292 -0.1520
 7995SOL    HW125201   3.374   7.386   1.492  1.1996  0.5747  0.2589
 7995SOL    HW225202   3.231   7.423   1.527  0.9501 -0.5946  0.5093
 7996SOL     OW25203   2.010   6.774   0.902 -0.8237  0.1184  0.0602
 7996SOL    HW125204   2.101   6.804   0.910 -1.1184  1.1496 -0.2176
 7996SOL    HW225205   1.958   6.848   0.934 -1.6589  0.7483 -2.4600
 7997SOL     OW25206   3.465   6.388   1.573  0.0433 -0.5237  0.0188
 7997SOL    HW125207   3.451   6.328   1.499 -0.6511 -0.9147  0.4583
 7997SOL    HW225208   3.384   6.439   1.577  0.3091 -0.1138  0.1582
 7998SOL     OW25209   3.088   6.050   0.194 -0.4959 -0.5736  0.1232
 7998SOL    HW125210   3.008   6.033   0.144 -0.4623 -1.9044  0.4898
 7998SOL    HW225211   3.139   6.110   0.140 -0.8322 -1.3310 -1.0478
 7999SOL     OW25212   2.462   6.266   0.331  0.5612 -0.3361 -0.4476
 7999SOL    HW125213   2.453   6.175   0.357 -2.0351  0.4112  1.7032
 7999SOL    HW225214   2.396   6.279   0.263  0.6551 -0.0011 -0.4780
 8000SOL     OW25215   3.598   6.124   2.360  0.1495  0.3284 -0.2649
 8000SOL    HW125216   3.517   6.115   2.309  0.4820 -3.4396 -0.4523
 8000SOL    HW225217   3.598   6.046   2.417  3.5052  0.3335 -0.1065
 8001SOL     OW25218   3.590   6.482   1.810 -0.0143 -0.2614  0.1520
 8001SOL    HW125219   3.666   6.534   1.783  0.9222 -1.3632  0.5557
 8001SOL    HW225220   3.545   6.460   1.729 -0.1091  0.6892 -0.0650
 8002SOL     OW25221   3.402   6.816   8.828 -0.4842 -0.5224 -0.0538
 8002SOL    HW125222   3.487   6.796   8.788  0.9682  1.9419  1.5396
 8002SOL    HW225223   3.406   6.776   8.915 -1.0035 -0.4433  0.0101
 8003SOL     OW25224   2.591   7.257   1.003  0.2487  0.3155 -0.0315
 8003SOL    HW125225   2.673   7.243   0.954  1.2661 -2.0842  2.1665
 8003SOL    HW225226   2.618   7.259   1.094 -2.0935  0.3380  0.7082
 8004SOL     OW25227   2.855   6.672   0.687 -0.1149 -0.7123  0.9619
 8004SOL    HW125228   2.917   6.606   0.654 -1.0892 -1.8220  1.2848
 8004SOL    HW225229   2.780   6.621   0.716 -1.3985  0.6472  0.1346
 8005SOL     OW25230   2.982   6.722   0.393  0.3474  0.1306 -0.4341
 8005SOL    HW125231   2.969   6.645   0.449 -1.6013 -0.0235 -1.0157
 8005SOL    HW225232   2.979   6.687   0.304 -1.6192  0.9657 -0.7412
 8006SOL     OW25233   4.172   6.831   0.512  0.0120  0.6897  0.0449
 8006SOL    HW125234   4.111   6.825   0.586 -0.1725 -3.0907 -0.2141
 8006SOL    HW225235   4.129   6.782   0.442  2.3406 -0.1268 -0.9138
 8007SOL     OW25236   1.972   6.543   1.999 -0.5031  0.6409  0.4031
 8007SOL    HW125237   1.912   6.576   1.931 -1.6929  0.0831  1.1449
 8007SOL    HW225238   1.948   6.450   2.008  2.7006 -0.5504 -1.5858
 8008SOL     OW25239   2.429   6.702   0.532 -0.3660  0.3437  0.4388
 8008SOL    HW125240   2.413   6.611   0.558  0.5050  0.5935  2.0206
 8008SOL    HW225241   2.505   6.698   0.474 -0.6929  0.0165  0.0303
 8009SOL     OW25242   2.645   6.871   1.326 -0.1293 -0.1913 -0.2772
 8009SOL    HW125243   2.678   6.911   1.246  0.8584 -0.2459  0.0754
 8009SOL    HW225244   2.661   6.777   1.314  0.0142 -0.2005 -0.0323
 8010SOL     OW25245   3.464   5.778   1.114  0.1163  0.0077 -0.4796
 8010SOL    HW125246   3.489   5.853   1.059  0.6647 -1.1191 -1.8379
 8010SOL    HW225247   3.531   5.774   1.182 -0.6275  1.4863  0.3995
 8011SOL     OW25248   2.449   5.830   0.360 -0.2105  0.4098  0.1732
 8011SOL    HW125249   2.468   5.739   0.385 -0.9657 -0.9144 -3.5382
 8011SOL    HW225250   2.535   5.869   0.347  0.1034 -0.2252  0.2822
 8012SOL     OW25251   3.802   7.019   0.956  0.2506  0.1089  0.2062
 8012SOL    HW125252   3.755   7.038   1.038  1.4987  0.9933  0.7535
 8012SOL    HW225253   3.788   7.097   0.902  0.2378 -0.0704 -0.0523
 8013SOL     OW25254   2.296   6.238   1.111  0.3387 -0.6176 -0.6092
 8013SOL    HW125255   2.372   6.269   1.061  1.0144 -2.2746 -0.6796
 8013SOL    HW225256   2.312   6.144   1.122 -1.4633 -0.9000 -0.1745
 8014SOL     OW25257   2.473   7.441   0.464  0.5643  0.1332  0.1782
 8014SOL    HW125258   2.550   7.387   0.479 -1.1057 -1.9936  1.9967
 8014SOL    HW225259   2.454   7.431   0.371  1.6535 -0.4924  0.0107
 8015SOL     OW25260   3.102   6.165   1.338  0.5084 -0.7271  0.4536
 8015SOL    HW125261   3.174   6.219   1.303  2.1258 -2.2227  1.3000
 8015SOL    HW225262   3.076   6.210   1.418  0.8884 -0.4462  0.4270
 8016SOL     OW25263   3.342   5.547   1.040  0.0327  0.0844 -0.6443
 8016SOL    HW125264   3.387   5.491   1.104  0.6721  0.5241 -0.6973
 8016SOL    HW225265   3.387   5.631   1.046  0.5893 -0.0723 -2.1611
 8017SOL     OW25266   3.269   7.141   0.450 -0.1015 -0.2455 -0.4124
 8017SOL    HW125267   3.245   7.059   0.408  1.4923 -0.5090 -0.8708
 8017SOL    HW225268   3.346   7.172   0.401  1.3415 -0.1495  1.7452
 8018SOL     OW25269   2.212   7.307   0.990  0.1925 -0.2281  0.4741
 8018SOL    HW125270   2.241   7.319   1.081  0.4070 -0.2788  0.4140
 8018SOL    HW225271   2.171   7.220   0.989 -0.0956 -0.0939  0.5938
 8019SOL     OW25272   3.313   5.324   0.273 -0.0499  0.0017 -0.2438
 8019SOL    HW125273   3.323   5.372   0.355 -0.3870 -1.2144  0.5362
 8019SOL    HW225274   3.287   5.235   0.300 -0.1619 -0.4222 -1.6619
 8020SOL     OW25275   3.251   5.882   0.345  0.4859  0.0064 -0.3430
 8020SOL    HW125276   3.206   5.946   0.290  0.5167 -0.3176 -0.7445
 8020SOL    HW225277   3.315   5.841   0.287 -0.2862 -1.1785 -0.3732
 8021SOL     OW25278   3.335   6.058   1.001 -0.2690  0.2414  0.6113
 8021SOL    HW125279   3.362   6.119   1.070 -1.6436  1.6162  0.0159
 8021SOL    HW225280   3.245   6.034   1.026 -0.7999  0.8030 -0.6864
 8022SOL     OW25281   2.534   6.565   8.759 -0.4090 -0.0104  0.6736
 8022SOL    HW125282   2.552   6.548   8.667  1.1139 -0.3366  1.0086
 8022SOL    HW225283   2.463   6.505   8.781 -0.5056 -0.2201 -0.1781
 8023SOL     OW25284   2.790   6.965   8.682 -0.1065  0.5634 -0.6118
 8023SOL    HW125285   2.881   6.991   8.700  0.0367  0.4592 -1.1748
 8023SOL    HW225286   2.738   7.034   8.724  0.1319 -0.6631  1.9321
 8024SOL     OW25287   1.606   5.903   1.856 -0.2686 -0.6673  0.6612
 8024SOL    HW125288   1.595   5.931   1.947 -0.0470  0.4356  0.3732
 8024SOL    HW225289   1.554   5.966   1.806  1.5409  0.2536 -0.1575
 8025SOL     OW25290   2.099   5.772   2.741 -0.2677 -0.0967  0.3551
 8025SOL    HW125291   2.142   5.740   2.661  0.2511  0.8758  0.2314
 8025SOL    HW225292   2.112   5.701   2.804  0.4752 -0.3311 -0.0410
 8026SOL     OW25293   2.010   6.121   2.312 -0.5384 -0.0443 -0.3304
 8026SOL    HW125294   1.969   6.186   2.370  0.5941  0.3504  0.0668
 8026SOL    HW225295   2.104   6.127   2.333 -0.2244 -0.6074 -1.5024
 8027SOL     OW25296   2.193   6.370   2.615  0.0573  0.0598 -0.9381
 8027SOL    HW125297   2.253   6.379   2.689 -0.4157 -1.3968 -0.3304
 8027SOL    HW225298   2.223   6.291   2.570 -0.7342 -0.0665 -1.2628
 8028SOL     OW25299   3.149   6.931   2.782  0.1996  0.3173 -0.0305
 8028SOL    HW125300   3.134   6.852   2.834  0.2840  1.7281  2.2613
 8028SOL    HW225301   3.087   6.923   2.709 -1.3527 -0.8517  1.3359
 8029SOL     OW25302   2.961   5.753   2.742  0.6994 -0.6521  0.4613
 8029SOL    HW125303   2.998   5.750   2.830  0.3985 -0.2914  0.6049
 8029SOL    HW225304   2.960   5.662   2.713  0.9296 -0.7560  0.7742
 8030SOL     OW25305   3.491   6.370   2.431 -0.6118 -0.0620  0.1889
 8030SOL    HW125306   3.507   6.279   2.406 -0.2212  0.2925 -0.8674
 8030SOL    HW225307   3.398   6.383   2.416 -0.7099 -0.3448  0.5387
 8031SOL     OW25308   2.468   6.957   2.569 -0.0876 -0.1189  0.4070
 8031SOL    HW125309   2.415   6.901   2.625  0.4636 -0.3624  0.6906
 8031SOL    HW225310   2.446   7.046   2.596 -0.8833 -0.1833  0.0289
 8032SOL     OW25311   2.685   6.329   3.560 -0.1628 -0.0200 -0.1626
 8032SOL    HW125312   2.731   6.361   3.638  0.5840  0.9455 -0.9795
 8032SOL    HW225313   2.631   6.257   3.593  1.4082 -0.7457  0.9619
 8033SOL     OW25314   2.570   6.739   2.297 -0.2051 -0.1442 -0.3213
 8033SOL    HW125315   2.490   6.688   2.305 -0.0031 -0.3739  0.2413
 8033SOL    HW225316   2.565   6.803   2.368 -0.4076  0.5573 -0.9555
 8034SOL     OW25317   2.462   7.144   3.573 -0.3373  0.1067 -0.1135
 8034SOL    HW125318   2.380   7.103   3.545  0.0735 -1.1267  0.4026
 8034SOL    HW225319   2.527   7.114   3.509  0.0502 -0.4303  0.5076
 8035SOL     OW25320   2.221   6.856   2.966 -0.0706 -0.4127 -0.2791
 8035SOL    HW125321   2.231   6.762   2.953  1.2232 -0.2041 -0.9478
 8035SOL    HW225322   2.309   6.887   2.988 -0.7361  0.4439  1.3865
 8036SOL     OW25323   3.490   6.954   3.698 -0.1109 -0.3949  0.6215
 8036SOL    HW125324   3.517   6.994   3.615 -1.1298  1.1976  1.0040
 8036SOL    HW225325   3.434   6.881   3.673  1.1533 -1.1470 -0.1022
 8037SOL     OW25326   1.935   6.074   3.285 -0.1794  0.4734  0.3770
 8037SOL    HW125327   1.917   6.000   3.344 -2.2758  0.9434  0.3865
 8037SOL    HW225328   1.913   6.151   3.336 -0.3150  0.9848 -0.4391
 8038SOL     OW25329   3.295   5.636   3.353 -0.0648  0.6384  0.4364
 8038SOL    HW125330   3.380   5.594   3.367 -0.1536  0.0156 -0.7730
 8038SOL    HW225331   3.272   5.671   3.439  0.1783 -1.4902  1.4390
 8039SOL     OW25332   2.131   7.135   2.896  0.5119  0.0804 -0.4374
 8039SOL    HW125333   2.137   7.051   2.941  1.2735  0.1637 -0.3736
 8039SOL    HW225334   2.203   7.187   2.932  0.6499  0.4148 -1.1789
 8040SOL     OW25335   2.512   6.711   3.469  0.1529 -0.2307 -0.1411
 8040SOL    HW125336   2.433   6.659   3.482  1.1520 -1.4271  1.5951
 8040SOL    HW225337   2.534   6.744   3.556  0.9906  0.9679 -0.7741
 8041SOL     OW25338   1.786   7.197   2.369  0.5626  0.2050 -0.2904
 8041SOL    HW125339   1.708   7.248   2.393  1.7093  0.8954  2.3815
 8041SOL    HW225340   1.759   7.106   2.380 -0.3968  0.3480 -1.3029
 8042SOL     OW25341   2.238   6.780   2.619  0.2492 -0.2050 -0.3469
 8042SOL    HW125342   2.157   6.751   2.660  0.0936 -0.5233 -0.8818
 8042SOL    HW225343   2.235   6.745   2.530 -0.9371  3.1546 -1.8014
 8043SOL     OW25344   2.094   7.261   3.308 -0.7880  0.6598  0.2890
 8043SOL    HW125345   2.097   7.206   3.387 -2.0993  0.7308  0.4129
 8043SOL    HW225346   2.173   7.238   3.260  0.2269  0.8647  1.7863
 8044SOL     OW25347   2.538   6.561   1.967 -0.6659 -0.8662  0.5032
 8044SOL    HW125348   2.492   6.531   2.045 -1.1397  1.9724  1.4163
 8044SOL    HW225349   2.470   6.564   1.899 -0.6198 -1.7398  0.4075
 8045SOL     OW25350   3.537   5.485   3.356  0.4567 -0.3885 -0.8688
 8045SOL    HW125351   3.598   5.441   3.296  1.4412 -0.7350  0.3219
 8045SOL    HW225352   3.566   5.457   3.443  0.4175  1.7378 -0.1087
 8046SOL     OW25353   2.040   6.589   2.663 -0.3468 -0.1107 -0.4546
 8046SOL    HW125354   1.969   6.554   2.717  0.0062 -0.5439 -0.2636
 8046SOL    HW225355   2.084   6.511   2.628  0.4672  0.1311 -0.0025
 8047SOL     OW25356   3.718   7.427   2.306 -0.9487  0.0548  0.4699
 8047SOL    HW125357   3.693   7.473   2.225 -1.5445  1.4566  1.4041
 8047SOL    HW225358   3.659   7.352   2.310 -1.0943  0.1207 -0.2721
 8048SOL     OW25359   2.192   7.122   1.715  0.0757 -0.1851  0.0940
 8048SOL    HW125360   2.242   7.042   1.729 -1.6562 -1.4046 -0.4479
 8048SOL    HW225361   2.131   7.126   1.789 -0.5881  0.0324 -0.4480
 8049SOL     OW25362   3.675   6.118   2.830 -0.0655 -0.7347 -0.2814
 8049SOL    HW125363   3.754   6.068   2.852  0.1677 -1.0531 -1.7129
 8049SOL    HW225364   3.691   6.205   2.865  0.0170 -1.3440  1.2608
 8050SOL     OW25365   3.485   6.553   2.649 -0.1711  0.3426 -0.1107
 8050SOL    HW125366   3.521   6.513   2.570  0.5780  0.1181  0.3322
 8050SOL    HW225367   3.467   6.480   2.707  0.3067  0.5705  0.3389
 8051SOL     OW25368   1.820   6.621   3.229  0.1934  0.1750 -0.2026
 8051SOL    HW125369   1.828   6.689   3.161 -0.9512 -0.7436 -1.3009
 8051SOL    HW225370   1.778   6.547   3.184  0.4543 -0.8804  1.2348
 8052SOL     OW25371   2.397   7.010   2.270  0.4664 -0.1505 -0.6520
 8052SOL    HW125372   2.344   6.938   2.304 -0.3148  0.2513 -0.9924
 8052SOL    HW225373   2.391   7.002   2.175  0.1325  0.5305 -0.6957
 8053SOL     OW25374   2.878   6.956   3.101 -0.1162 -0.2238  0.1463
 8053SOL    HW125375   2.868   7.042   3.060  0.8741 -0.0704  0.1855
 8053SOL    HW225376   2.808   6.951   3.165 -1.0716 -0.0476 -0.8549
 8054SOL     OW25377   2.826   5.510   2.225  0.6154  0.2575 -0.4642
 8054SOL    HW125378   2.862   5.436   2.176  2.5303  0.4953  0.4886
 8054SOL    HW225379   2.751   5.539   2.173 -0.1527 -2.2679 -0.9138
 8055SOL     OW25380   1.553   6.831   3.298  0.0856 -0.1105  0.1577
 8055SOL    HW125381   1.572   6.824   3.392  1.5780 -1.8396 -0.2250
 8055SOL    HW225382   1.471   6.783   3.286 -0.3486  0.4914  0.6089
 8056SOL     OW25383   3.562   7.222   2.362 -0.0450  0.1601  0.4461
 8056SOL    HW125384   3.494   7.181   2.415 -0.8819 -0.1527 -0.8000
 8056SOL    HW225385   3.575   7.160   2.290  0.6703  0.8073  0.0093
 8057SOL     OW25386   2.501   7.741   3.400  0.3308  0.3077  0.6782
 8057SOL    HW125387   2.559   7.717   3.473  0.5277  2.3880  1.2869
 8057SOL    HW225388   2.533   7.689   3.326  1.4641 -0.3362  1.5785
 8058SOL     OW25389   2.338   6.029   3.403 -0.2851  0.1534  0.5988
 8058SOL    HW125390   2.350   5.947   3.356  1.4280  0.9885 -0.5062
 8058SOL    HW225391   2.285   6.005   3.479  1.0574 -2.1914  0.9001
 8059SOL     OW25392   3.095   6.663   2.473  0.0487 -0.1156  0.1683
 8059SOL    HW125393   3.054   6.704   2.397  1.8327 -0.4381 -1.0456
 8059SOL    HW225394   3.022   6.629   2.525 -1.2560  0.9052 -0.9406
 8060SOL     OW25395   3.629   7.705   2.315 -0.1709 -0.0247  0.0175
 8060SOL    HW125396   3.569   7.631   2.304 -0.5861  0.5880 -2.6102
 8060SOL    HW225397   3.595   7.753   2.390 -2.4253 -0.2673 -0.7783
 8061SOL     OW25398   1.955   5.974   2.096 -0.3179  0.1092  0.7999
 8061SOL    HW125399   1.944   6.050   2.039  0.8114  1.2340  2.0337
 8061SOL    HW225400   1.989   6.009   2.178  0.7360 -1.7784  1.2395
 8062SOL     OW25401   3.028   5.744   3.008 -0.2987 -0.3816  0.0142
 8062SOL    HW125402   3.055   5.653   2.995 -0.6277 -0.3709 -0.8149
 8062SOL    HW225403   3.102   5.785   3.053  1.5683 -0.1130 -3.0400
 8063SOL     OW25404   3.429   7.472   2.297 -0.0520  0.4208  0.2909
 8063SOL    HW125405   3.374   7.439   2.226  1.5540 -0.3963 -0.6260
 8063SOL    HW225406   3.429   7.402   2.362  0.9943 -0.2017 -0.3454
 8064SOL     OW25407   2.765   5.926   3.162  0.2685 -0.6599  0.1666
 8064SOL    HW125408   2.822   5.852   3.140  0.5849 -0.5573  0.6292
 8064SOL    HW225409   2.780   5.941   3.255  0.3981  0.1512  0.0190
 8065SOL     OW25410   3.245   5.931   3.668 -0.6351 -0.0099  0.0281
 8065SOL    HW125411   3.295   5.918   3.748  0.5434  1.3324 -0.4478
 8065SOL    HW225412   3.302   5.899   3.598 -1.4414 -0.6977 -0.3239
 8066SOL     OW25413   2.696   6.566   4.091  0.1229  0.0664 -0.7125
 8066SOL    HW125414   2.749   6.590   4.014  1.3911 -1.2979 -0.2959
 8066SOL    HW225415   2.606   6.574   4.060  0.5923 -0.0056 -2.2088
 8067SOL     OW25416   2.780   6.164   3.012 -0.2591  0.1411  0.4668
 8067SOL    HW125417   2.866   6.172   2.971  0.2706  1.5090  1.7417
 8067SOL    HW225418   2.783   6.080   3.057 -0.2025 -0.5570 -0.7909
 8068SOL     OW25419   3.087   6.130   2.377 -0.3158  0.0988  0.9394
 8068SOL    HW125420   3.090   6.095   2.466  1.5752 -2.5864 -0.0764
 8068SOL    HW225421   3.175   6.116   2.342 -0.7157  1.9780 -1.0858
 8069SOL     OW25422   2.167   6.595   2.925 -0.3153 -0.2825  0.4924
 8069SOL    HW125423   2.230   6.530   2.893  0.0416  0.1393  0.3303
 8069SOL    HW225424   2.095   6.591   2.862  0.8003  1.2151 -0.9666
 8070SOL     OW25425   1.938   7.726   3.425 -0.3464 -0.2628 -0.1712
 8070SOL    HW125426   1.860   7.677   3.398  0.3929 -1.9810  0.6813
 8070SOL    HW225427   1.988   7.737   3.345 -1.7332  1.4883 -0.8793
 8071SOL     OW25428   2.679   5.540   1.974  0.1280 -0.4284  0.3324
 8071SOL    HW125429   2.606   5.481   1.994  0.5744 -1.3973 -0.7931
 8071SOL    HW225430   2.711   5.511   1.888  1.7710  0.0605  0.7455
 8072SOL     OW25431   3.426   5.986   3.437  0.0762 -0.2246  0.5526
 8072SOL    HW125432   3.486   5.912   3.434 -0.5438 -0.7153 -0.8517
 8072SOL    HW225433   3.415   6.012   3.345  1.1565  2.3552  1.0689
 8073SOL     OW25434   3.380   6.744   2.440 -0.0446 -0.1868  0.2607
 8073SOL    HW125435   3.288   6.751   2.464 -0.3526  0.2335 -0.9456
 8073SOL    HW225436   3.413   6.671   2.492 -0.5454  0.8724  2.1715
 8074SOL     OW25437   2.797   5.259   2.674 -0.1959 -0.0609 -0.1024
 8074SOL    HW125438   2.740   5.207   2.731  0.8211 -3.1722 -1.6762
 8074SOL    HW225439   2.885   5.243   2.707  0.0531  2.5653  0.6926
 8075SOL     OW25440   3.079   7.228   1.968  0.4941  0.2137 -0.0614
 8075SOL    HW125441   3.067   7.275   2.050 -0.6689  0.3356 -0.2882
 8075SOL    HW225442   3.016   7.156   1.972  1.3648 -0.5760 -0.2732
 8076SOL     OW25443   2.650   7.146   2.881 -0.1340  0.0836 -0.0512
 8076SOL    HW125444   2.742   7.122   2.893 -0.1367  0.0731 -0.0516
 8076SOL    HW225445   2.649   7.242   2.888  0.4296  0.4586 -3.4909
 8077SOL     OW25446   3.736   6.382   3.005 -0.1427 -0.2267 -0.6274
 8077SOL    HW125447   3.665   6.441   3.032 -0.7457 -1.5719  0.9317
 8077SOL    HW225448   3.747   6.322   3.079  1.3125 -1.2770 -1.6257
 8078SOL     OW25449   3.386   7.141   3.234 -0.5559  0.3913  0.4939
 8078SOL    HW125450   3.335   7.173   3.159 -0.4621 -2.3630 -0.8606
 8078SOL    HW225451   3.367   7.048   3.238  0.9691  0.1043  2.7352
 8079SOL     OW25452   2.399   6.407   2.182  0.0186 -0.7561 -0.0591
 8079SOL    HW125453   2.355   6.331   2.145 -0.8449 -0.6987  0.7910
 8079SOL    HW225454   2.327   6.463   2.214  0.5972  0.7099 -1.1936
 8080SOL     OW25455   3.323   6.251   2.827  0.1275 -0.1597 -0.4742
 8080SOL    HW125456   3.416   6.234   2.842 -0.2858 -0.4683  2.2409
 8080SOL    HW225457   3.283   6.164   2.823 -0.3576 -0.0230  0.9890
 8081SOL     OW25458   2.009   6.883   3.704 -0.4654  0.1543  0.1109
 8081SOL    HW125459   1.925   6.876   3.748 -0.0923 -0.9867  0.6776
 8081SOL    HW225460   2.022   6.797   3.662  0.4679  0.2691  0.1343
 8082SOL     OW25461   2.901   7.707   2.150 -0.3202 -0.2797  0.4586
 8082SOL    HW125462   2.937   7.790   2.182 -0.5924  0.6051 -1.3931
 8082SOL    HW225463   2.906   7.648   2.226  1.5558  0.8747  1.3246
 8083SOL     OW25464   1.926   5.888   3.466 -0.1372 -0.0414 -0.1568
 8083SOL    HW125465   1.864   5.931   3.525 -0.5861 -0.3416 -0.4096
 8083SOL    HW225466   1.924   5.796   3.491  1.4171  0.1691  0.9198
 8084SOL     OW25467   3.512   7.074   2.136  0.0864  0.8065  0.1626
 8084SOL    HW125468   3.494   7.143   2.071 -2.2702  0.7949  0.7072
 8084SOL    HW225469   3.473   6.995   2.098  2.3899 -0.2119 -0.2565
 8085SOL     OW25470   2.113   7.262   2.140 -0.6371 -0.4785  0.4404
 8085SOL    HW125471   2.108   7.266   2.236 -1.4853 -1.4190  0.4532
 8085SOL    HW225472   2.202   7.289   2.119 -0.5614  0.1130  1.4702
 8086SOL     OW25473   3.601   5.672   2.771  0.2925 -0.1075 -0.3995
 8086SOL    HW125474   3.567   5.583   2.782 -0.6292  0.2838  0.0786
 8086SOL    HW225475   3.696   5.662   2.777  0.2480 -1.1619 -1.1570
 8087SOL     OW25476   2.316   7.278   3.049 -0.0712  0.0237 -0.5327
 8087SOL    HW125477   2.407   7.251   3.060  0.3924  1.8628  0.4730
 8087SOL    HW225478   2.317   7.331   2.970  0.1925  1.8161  0.6296
 8088SOL     OW25479   2.990   7.506   2.340 -0.1318  0.6175 -0.4840
 8088SOL    HW125480   2.935   7.494   2.418  2.3355  1.3340  1.4918
 8088SOL    HW225481   2.945   7.456   2.272 -3.3015  1.3147  0.8892
 8089SOL     OW25482   2.142   6.430   2.271  0.4349 -0.2851  0.2369
 8089SOL    HW125483   2.073   6.453   2.209  0.0099 -1.1427  0.3703
 8089SOL    HW225484   2.099   6.371   2.334  1.5919 -2.0028 -0.5000
 8090SOL     OW25485   3.069   5.384   3.336 -0.1389 -0.0077 -0.0494
 8090SOL    HW125486   3.094   5.344   3.253  0.2299 -3.4001  1.5373
 8090SOL    HW225487   2.976   5.363   3.346  0.0650 -0.5473  0.8253
 8091SOL     OW25488   2.638   5.626   1.597 -0.0562 -0.1316  0.0734
 8091SOL    HW125489   2.703   5.582   1.653  1.8750  1.7977 -0.5372
 8091SOL    HW225490   2.654   5.590   1.510 -2.6183 -2.6292  0.4448
 8092SOL     OW25491   2.949   5.623   3.709  0.0661 -0.6493 -0.0638
 8092SOL    HW125492   2.942   5.528   3.716 -1.7902 -0.5363  0.1249
 8092SOL    HW225493   2.879   5.657   3.765  0.0936  0.8109 -0.8558
 8093SOL     OW25494   2.954   6.485   2.846 -0.3300  0.2938 -0.2965
 8093SOL    HW125495   2.950   6.431   2.766 -0.3148 -1.1762  0.6523
 8093SOL    HW225496   2.941   6.574   2.815 -2.0443 -0.4000 -1.7687
 8094SOL     OW25497   3.053   6.073   3.520 -0.0112 -0.0371 -0.4805
 8094SOL    HW125498   3.116   6.021   3.570 -0.5376 -0.7798 -0.5656
 8094SOL    HW225499   3.096   6.087   3.435  0.5989  0.6432 -0.0728
 8095SOL     OW25500   2.570   7.347   2.503 -0.6249  0.5565 -0.3782
 8095SOL    HW125501   2.558   7.320   2.412  0.6143 -1.5695 -0.0008
 8095SOL    HW225502   2.492   7.315   2.548  0.0437 -0.9992 -0.2491
 8096SOL     OW25503   2.768   5.850   2.568  0.0612 -0.0758  0.1049
 8096SOL    HW125504   2.808   5.814   2.489  0.9117  0.4093  0.2998
 8096SOL    HW225505   2.825   5.819   2.639  0.1028  0.6456  0.3884
 8097SOL     OW25506   2.519   5.891   2.499  0.1471  0.5280  0.0440
 8097SOL    HW125507   2.510   5.848   2.415  1.5319  0.5293 -0.1254
 8097SOL    HW225508   2.613   5.894   2.515  0.0554  2.4870  0.5583
 8098SOL     OW25509   3.283   6.927   1.598  0.3214 -0.5827 -0.0842
 8098SOL    HW125510   3.210   6.872   1.625  0.0190 -0.5742 -0.8538
 8098SOL    HW225511   3.301   6.901   1.507  0.9958 -0.2885 -0.0454
 8099SOL     OW25512   2.347   5.883   2.052  0.1881 -0.0859  0.4912
 8099SOL    HW125513   2.336   5.808   2.110  1.8251  0.7997  2.0550
 8099SOL    HW225514   2.441   5.903   2.056  0.0560  1.0884 -1.1233
 8100SOL     OW25515   2.897   5.757   2.356  0.0511 -0.1397 -0.0078
 8100SOL    HW125516   2.867   5.688   2.297  1.4815  0.3849 -1.4223
 8100SOL    HW225517   2.989   5.736   2.372  0.3660  1.1427 -0.0277
 8101SOL     OW25518   2.550   5.719   3.317  0.3936  0.3567  0.6287
 8101SOL    HW125519   2.640   5.708   3.289  0.3543 -1.1369  0.9899
 8101SOL    HW225520   2.556   5.766   3.400  1.0287 -1.6114  1.7546
 8102SOL     OW25521   2.916   7.184   2.958 -0.4031  0.2183  0.7327
 8102SOL    HW125522   2.895   7.276   2.946 -0.3357  0.1191 -0.1856
 8102SOL    HW225523   2.986   7.167   2.896  2.1063  0.4050  3.3073
 8103SOL     OW25524   2.274   6.654   2.370  1.0545  0.1548  0.9647
 8103SOL    HW125525   2.243   6.693   2.289  0.3868  1.5722  1.8539
 8103SOL    HW225526   2.221   6.575   2.380  2.3331 -0.9993 -0.8004
 8104SOL     OW25527   3.195   7.525   2.516 -0.3605  0.1815 -0.5492
 8104SOL    HW125528   3.151   7.499   2.435 -0.1157 -2.2412  0.0067
 8104SOL    HW225529   3.184   7.450   2.575 -0.4867  1.8416  1.6731
 8105SOL     OW25530   2.717   6.346   1.597 -0.4945 -0.3421  0.0847
 8105SOL    HW125531   2.710   6.418   1.659  1.0180 -0.1855  0.1132
 8105SOL    HW225532   2.726   6.268   1.652 -0.2919 -0.3377  0.0575
 8106SOL     OW25533   1.974   6.230   3.003  0.2596 -0.1969  0.0196
 8106SOL    HW125534   2.011   6.191   3.082 -0.8891 -1.9720 -0.2588
 8106SOL    HW225535   1.999   6.170   2.933 -0.8106  0.0376 -0.5869
 8107SOL     OW25536   2.626   5.549   2.701  0.2092  0.0689 -0.3013
 8107SOL    HW125537   2.641   5.521   2.611  0.5418 -0.3920 -0.1068
 8107SOL    HW225538   2.693   5.615   2.718 -0.0326  0.3640 -0.4798
 8108SOL     OW25539   2.781   6.007   2.273  0.1275  0.2282  0.0623
 8108SOL    HW125540   2.838   5.936   2.302  1.3118  1.2433  0.2873
 8108SOL    HW225541   2.822   6.086   2.307 -2.0094  0.9330  1.2011
 8109SOL     OW25542   2.978   5.508   2.690  0.0647 -0.3105  0.0286
 8109SOL    HW125543   3.065   5.484   2.659  0.0781 -0.7845  0.4091
 8109SOL    HW225544   2.919   5.447   2.644 -0.0588 -0.0325 -0.1817
 8110SOL     OW25545   3.078   6.263   2.989  0.0070 -0.0262  0.5511
 8110SOL    HW125546   3.150   6.254   2.926 -1.2695 -3.1150 -0.6550
 8110SOL    HW225547   3.045   6.352   2.973  2.5922  0.9876  0.1830
 8111SOL     OW25548   3.278   5.908   3.136  0.3840  0.1992 -0.0152
 8111SOL    HW125549   3.283   5.829   3.190  1.1258  0.4079  0.2218
 8111SOL    HW225550   3.363   5.950   3.145 -0.6992  2.2152  1.6249
 8112SOL     OW25551   4.027   5.821   2.603 -0.1259  0.1882 -0.8697
 8112SOL    HW125552   3.989   5.771   2.675  0.3654 -1.7515 -1.9004
 8112SOL    HW225553   4.116   5.788   2.594  0.5018  1.8289 -1.0888
 8113SOL     OW25554   2.499   7.031   1.469 -0.1065  0.1135  0.2451
 8113SOL    HW125555   2.422   6.988   1.504 -0.3499  0.4486  0.1222
 8113SOL    HW225556   2.532   6.971   1.402 -0.6525  0.2765 -0.1757
 8114SOL     OW25557   3.541   7.151   2.753 -0.3089  0.4477  0.1928
 8114SOL    HW125558   3.547   7.180   2.844 -0.2190 -2.5556  1.2466
 8114SOL    HW225559   3.540   7.232   2.703 -0.3296  2.2272  2.8399
 8115SOL     OW25560   2.764   6.264   1.960 -0.0135  0.1313 -0.7366
 8115SOL    HW125561   2.831   6.266   2.029 -0.0631 -0.7702 -0.6631
 8115SOL    HW225562   2.769   6.352   1.921 -2.3996  2.0407  2.6564
 8116SOL     OW25563   2.571   6.166   2.498 -0.3466  0.3267 -0.1242
 8116SOL    HW125564   2.596   6.186   2.588  0.0760  3.9935 -0.8594
 8116SOL    HW225565   2.581   6.072   2.490 -2.3544 -0.4934  4.1909
 8117SOL     OW25566   3.176   6.461   3.512  0.3418  0.3564 -0.8072
 8117SOL    HW125567   3.227   6.384   3.536  0.5742  0.4166 -1.0952
 8117SOL    HW225568   3.162   6.452   3.417  0.3042  0.6275 -0.8305
 8118SOL     OW25569   2.601   6.679   2.921  0.0657 -0.1462  0.0331
 8118SOL    HW125570   2.587   6.608   2.859  1.6690 -0.9166  0.5043
 8118SOL    HW225571   2.580   6.640   3.007  2.0620 -0.4633  0.4257
 8119SOL     OW25572   3.135   7.044   3.534 -0.0203 -0.2342 -0.5247
 8119SOL    HW125573   3.115   7.063   3.626  0.1723  0.3369 -0.5984
 8119SOL    HW225574   3.161   6.952   3.534 -0.9140 -0.5030 -0.1485
 8120SOL     OW25575   2.540   6.535   2.659  0.3005  0.1036 -0.3122
 8120SOL    HW125576   2.459   6.586   2.660 -0.6706 -1.3672 -0.5615
 8120SOL    HW225577   2.549   6.505   2.568 -0.0798 -1.5274  0.1428
 8121SOL     OW25578   3.493   6.876   2.800 -0.1389  0.0747  0.1075
 8121SOL    HW125579   3.547   6.834   2.733  1.1704  1.6595  0.1176
 8121SOL    HW225580   3.431   6.930   2.751 -0.0478  0.2167  0.1490
 8122SOL     OW25581   2.723   5.682   2.954 -0.8264  0.0725  0.2337
 8122SOL    HW125582   2.810   5.713   2.926 -0.8502  0.5951  0.7152
 8122SOL    HW225583   2.738   5.642   3.039 -0.6333 -2.1608 -0.7854
 8123SOL     OW25584   2.631   6.871   3.967  0.4859  0.4834 -0.5882
 8123SOL    HW125585   2.707   6.839   4.015 -0.9152 -0.9059  0.8357
 8123SOL    HW225586   2.633   6.966   3.979  0.8667  0.2764  1.2112
 8124SOL     OW25587   2.892   6.803   1.849 -0.2834  0.0665 -0.4802
 8124SOL    HW125588   2.874   6.843   1.764 -2.8282  0.5393  0.1774
 8124SOL    HW225589   2.862   6.869   1.912  1.7484 -0.1752  0.8293
 8125SOL     OW25590   2.426   6.433   3.143  0.5017  0.6383 -0.4296
 8125SOL    HW125591   2.522   6.431   3.146  0.5686 -0.3118 -2.0528
 8125SOL    HW225592   2.399   6.344   3.161  0.0447  0.4382 -1.9441
 8126SOL     OW25593   2.698   6.408   3.056 -0.2926 -0.8282 -0.5213
 8126SOL    HW125594   2.733   6.319   3.067  0.9451 -0.3415 -0.4186
 8126SOL    HW225595   2.772   6.460   3.025 -0.6488  0.4409  0.6247
 8127SOL     OW25596   2.014   7.472   2.935  0.0366  0.1389 -0.4550
 8127SOL    HW125597   1.980   7.422   2.861  0.1701  0.5804 -0.8205
 8127SOL    HW225598   1.959   7.446   3.009 -0.0360 -0.3758 -0.6873
 8128SOL     OW25599   2.158   6.714   2.136  0.3103  0.3049 -0.0429
 8128SOL    HW125600   2.110   6.796   2.140 -0.6114 -0.2600  2.1071
 8128SOL    HW225601   2.098   6.653   2.093 -0.4813 -0.0746  1.5048
 8129SOL     OW25602   2.717   5.425   2.475  0.1545 -0.3348 -0.0107
 8129SOL    HW125603   2.751   5.363   2.539  1.1689  0.3414  0.1249
 8129SOL    HW225604   2.787   5.436   2.411  0.1587  0.9626  0.1837
 8130SOL     OW25605   3.401   7.067   2.511  0.2723  0.7188 -0.6694
 8130SOL    HW125606   3.439   6.995   2.461 -0.5085 -0.3150  0.2020
 8130SOL    HW225607   3.458   7.076   2.587 -1.1040 -0.7976  0.6111
 8131SOL     OW25608   3.154   6.925   3.179  0.2469  0.1339  0.0232
 8131SOL    HW125609   3.153   6.879   3.263  1.4614  1.3250  0.7257
 8131SOL    HW225610   3.063   6.919   3.148  0.0203 -1.2988  0.8471
 8132SOL     OW25611   3.222   6.004   2.854  0.2842 -0.3281  0.0363
 8132SOL    HW125612   3.183   6.003   2.941  0.6195  1.3750  0.2543
 8132SOL    HW225613   3.290   5.936   2.858  0.5151 -0.0610  1.2230
 8133SOL     OW25614   1.957   6.827   3.089 -0.3995 -0.2386  0.0649
 8133SOL    HW125615   2.048   6.838   3.062 -0.2601 -1.6558 -0.1445
 8133SOL    HW225616   1.916   6.782   3.015 -0.9360 -0.7931  0.6871
 8134SOL     OW25617   2.415   6.326   3.457 -0.3392 -0.2833 -0.2186
 8134SOL    HW125618   2.376   6.255   3.405  0.1636 -0.2457 -0.6490
 8134SOL    HW225619   2.508   6.304   3.461 -0.2864  0.0107  0.2023
 8135SOL     OW25620   3.222   6.502   3.239 -0.1032 -0.5349  0.0685
 8135SOL    HW125621   3.309   6.516   3.275 -0.1779  0.2353 -0.0397
 8135SOL    HW225622   3.237   6.479   3.148  0.0057 -0.8178  0.1576
 8136SOL     OW25623   2.783   5.730   3.934  0.0833  0.0835  0.2673
 8136SOL    HW125624   2.694   5.693   3.935 -0.4263  1.2283 -0.6219
 8136SOL    HW225625   2.803   5.745   4.026 -0.1887 -1.2214  0.5612
 8137SOL     OW25626   2.263   5.639   3.278  0.3441 -0.2718 -0.2039
 8137SOL    HW125627   2.353   5.666   3.260  0.2122  0.4205  0.1154
 8137SOL    HW225628   2.217   5.721   3.297 -0.5790 -0.5136 -1.2944
 8138SOL     OW25629   2.817   6.640   2.531  0.3907  0.2530  0.8763
 8138SOL    HW125630   2.790   6.726   2.499  2.0364  1.0910  1.6265
 8138SOL    HW225631   2.746   6.613   2.589 -0.2482  1.0010  0.4693
 8139SOL     OW25632   3.225   6.414   2.424 -0.2205  0.0090 -0.6102
 8139SOL    HW125633   3.193   6.504   2.413  0.6438  0.1075 -2.8938
 8139SOL    HW225634   3.148   6.365   2.453 -0.7796  1.3972  0.4186
 8140SOL     OW25635   2.611   5.914   2.095  0.5324 -0.2231 -0.2032
 8140SOL    HW125636   2.676   5.877   2.036  1.5815  0.2377  0.6282
 8140SOL    HW225637   2.662   5.948   2.169 -0.5676  1.0963 -0.0193
 8141SOL     OW25638   1.810   5.702   3.242  0.3478 -0.1788  0.2596
 8141SOL    HW125639   1.872   5.688   3.313  0.1521  0.9117  0.6668
 8141SOL    HW225640   1.817   5.624   3.188  2.9098  0.3704 -0.3402
 8142SOL     OW25641   1.421   7.092   3.363 -0.0965  0.8188 -0.0259
 8142SOL    HW125642   1.482   7.031   3.322 -1.0921  1.4932 -2.7199
 8142SOL    HW225643   1.460   7.178   3.350 -0.5719  1.0806  0.2476
 8143SOL     OW25644   2.357   5.956   2.719  0.7106  0.6758 -0.2440
 8143SOL    HW125645   2.407   5.916   2.648 -0.0121  0.1923 -0.4983
 8143SOL    HW225646   2.313   5.882   2.761  1.1057  0.9627  0.6937
 8144SOL     OW25647   3.333   6.251   3.552  0.0334 -0.4963 -0.2343
 8144SOL    HW125648   3.388   6.224   3.626 -0.6299 -0.6075  0.2245
 8144SOL    HW225649   3.334   6.176   3.493 -1.1113 -1.2484  0.6424
 8145SOL     OW25650   2.477   5.450   2.328 -0.2468 -0.5256 -0.1074
 8145SOL    HW125651   2.565   5.438   2.364 -0.6064 -1.3975  0.5145
 8145SOL    HW225652   2.418   5.420   2.398 -1.3293  4.3819  1.5002
 8146SOL     OW25653   4.129   5.539   2.390 -0.2027 -0.1755  0.3340
 8146SOL    HW125654   4.046   5.502   2.421 -0.4137  1.0594  1.3323
 8146SOL    HW225655   4.188   5.464   2.384 -0.9382 -0.8457  1.1566
 8147SOL     OW25656   2.493   5.974   3.079 -0.1554  0.2899 -0.3948
 8147SOL    HW125657   2.490   5.879   3.092 -2.9371  0.3963  0.2933
 8147SOL    HW225658   2.568   6.003   3.131  1.9890 -1.6737 -2.1738
 8148SOL     OW25659   2.713   7.281   3.295  0.1348  0.2204  0.2576
 8148SOL    HW125660   2.667   7.197   3.290  3.0333 -1.4258 -3.3508
 8148SOL    HW225661   2.805   7.258   3.308  1.2511  2.6403 -2.2769
 8149SOL     OW25662   3.242   6.790   3.645  0.0756 -0.4336 -0.1580
 8149SOL    HW125663   3.165   6.799   3.700 -0.3050 -0.8554 -0.6028
 8149SOL    HW225664   3.300   6.731   3.694  0.3679  0.3367  0.4341
 8150SOL     OW25665   2.273   6.642   3.170 -0.1411 -0.3464 -0.0862
 8150SOL    HW125666   2.207   6.626   3.103 -0.1997 -0.6584  0.0425
 8150SOL    HW225667   2.346   6.585   3.146 -0.6993 -1.5015  0.8741
 8151SOL     OW25668   3.334   6.137   2.222 -0.5327 -0.2079  0.3914
 8151SOL    HW125669   3.296   6.208   2.170 -0.5514  0.4328  1.2593
 8151SOL    HW225670   3.295   6.057   2.186 -0.4771  0.2067 -0.6251
 8152SOL     OW25671   2.667   6.553   1.368  0.7808 -0.4326 -0.1222
 8152SOL    HW125672   2.617   6.564   1.449  1.8346  1.0092  0.3671
 8152SOL    HW225673   2.717   6.473   1.381  1.8879  0.4203  1.2154
 8153SOL     OW25674   2.906   7.031   2.625 -0.2616 -0.7303  0.3283
 8153SOL    HW125675   2.852   7.043   2.547 -0.3578 -0.4382  0.4362
 8153SOL    HW225676   2.850   6.982   2.685 -0.2522 -0.7992  0.2811
 8154SOL     OW25677   2.354   6.407   2.882  0.2066  0.0137  0.2220
 8154SOL    HW125678   2.373   6.430   2.973 -1.7526  0.5247  0.5508
 8154SOL    HW225679   2.404   6.327   2.867  0.8487  0.1140  1.6354
 8155SOL     OW25680   2.084   6.028   2.868 -0.5334 -0.8245 -0.4417
 8155SOL    HW125681   2.166   6.023   2.918 -1.3551  0.4100  1.1352
 8155SOL    HW225682   2.071   5.939   2.834  0.6186 -1.4518  0.6556
 8156SOL     OW25683   2.861   6.596   3.403 -1.2774 -0.6484 -0.0871
 8156SOL    HW125684   2.864   6.515   3.354  0.4846 -2.1138  2.2299
 8156SOL    HW225685   2.948   6.634   3.395 -1.7926  0.5445 -0.3550
 8157SOL     OW25686   2.830   5.923   3.423  0.0528 -0.1008  0.2539
 8157SOL    HW125687   2.875   5.840   3.410 -0.2232 -0.1665 -0.3011
 8157SOL    HW225688   2.896   5.980   3.462  0.3412 -0.4731  0.3210
 8158SOL     OW25689   1.726   6.924   2.343  0.0914  0.0811 -0.2717
 8158SOL    HW125690   1.643   6.941   2.388  1.9134  1.5948  2.9193
 8158SOL    HW225691   1.757   6.842   2.383  1.5360  1.2156  1.0588
 8159SOL     OW25692   1.862   7.638   2.774  0.1321  0.0205  0.0391
 8159SOL    HW125693   1.803   7.677   2.838 -0.0439 -1.5612  0.9014
 8159SOL    HW225694   1.925   7.588   2.826  0.5358 -0.5748 -0.9837
 8160SOL     OW25695   2.319   7.231   2.603 -0.2329  0.3769  0.1483
 8160SOL    HW125696   2.298   7.295   2.535 -1.9186  1.1495  1.3182
 8160SOL    HW225697   2.262   7.157   2.585  0.9085 -0.3596 -0.5408
 8161SOL     OW25698   2.662   6.327   2.737 -0.3962 -0.1373  0.0494
 8161SOL    HW125699   2.617   6.296   2.816 -1.1902 -0.7563 -0.6275
 8161SOL    HW225700   2.611   6.403   2.709 -0.5530 -0.3515 -0.2595
 8162SOL     OW25701   1.837   6.436   2.331  0.0316  0.0008 -0.2824
 8162SOL    HW125702   1.764   6.386   2.294 -1.1851  1.6432 -0.2112
 8162SOL    HW225703   1.864   6.385   2.408 -1.3246 -0.4299 -0.0692
 8163SOL     OW25704   1.733   5.947   3.638  0.6050  0.0587 -0.3697
 8163SOL    HW125705   1.790   6.015   3.674  0.2515  0.9578 -1.4371
 8163SOL    HW225706   1.666   5.995   3.590 -1.3457 -0.9641  1.1978
 8164SOL     OW25707   3.462   6.609   3.396  0.3090 -0.0929 -0.5582
 8164SOL    HW125708   3.548   6.615   3.355  0.1016 -0.2607 -1.0275
 8164SOL    HW225709   3.480   6.583   3.486  0.9143  2.3749  0.1163
 8165SOL     OW25710   2.433   5.720   2.263  0.1446 -0.3112 -0.0172
 8165SOL    HW125711   2.439   5.628   2.289  0.2416 -0.6367 -1.1207
 8165SOL    HW225712   2.517   5.738   2.221 -0.2757 -0.0436 -0.7677
 8166SOL     OW25713   4.103   5.911   3.166  0.0697  0.3907 -0.0811
 8166SOL    HW125714   4.198   5.924   3.170  0.3263 -1.5075  1.2032
 8166SOL    HW225715   4.090   5.861   3.085  0.4300 -0.8859  0.6084
 8167SOL     OW25716   2.157   7.065   3.546 -0.3038  0.4682 -0.7199
 8167SOL    HW125717   2.089   7.015   3.591  0.9499 -0.3044  0.4065
 8167SOL    HW225718   2.191   7.004   3.479 -0.1521  0.5394 -0.7082
 8168SOL     OW25719   2.471   5.669   3.050 -0.0133 -0.4232  0.2702
 8168SOL    HW125720   2.509   5.681   3.137 -0.0623  0.7563  0.1406
 8168SOL    HW225721   2.546   5.667   2.991  0.1063 -2.3631  0.4186
 8169SOL     OW25722   2.599   7.547   3.193 -0.2940 -0.1819 -0.3286
 8169SOL    HW125723   2.634   7.467   3.232  0.9112  1.2960  1.7887
 8169SOL    HW225724   2.659   7.567   3.121  1.7242  0.7771  1.5001
 8170SOL     OW25725   1.888   5.884   1.738  0.2847  0.0661 -0.1202
 8170SOL    HW125726   1.799   5.867   1.770 -0.5208  1.0106 -1.7201
 8170SOL    HW225727   1.884   5.864   1.645  1.8086 -0.0049 -0.1911
 8171SOL     OW25728   1.912   6.912   3.362  0.0089 -0.1552  0.0719
 8171SOL    HW125729   1.904   6.912   3.267 -0.4711 -0.4077  0.1109
 8171SOL    HW225730   1.992   6.863   3.380  1.8793  2.5362 -0.3401
 8172SOL     OW25731   2.901   6.308   2.604  0.5869 -0.2072 -0.5360
 8172SOL    HW125732   2.936   6.219   2.614  0.0309 -1.0502 -4.5677
 8172SOL    HW225733   2.822   6.309   2.658  0.7184 -2.0974 -0.2389
 8173SOL     OW25734   3.580   6.799   2.270  0.2764 -0.3964 -0.1036
 8173SOL    HW125735   3.510   6.769   2.328  1.2945 -1.7531  0.4711
 8173SOL    HW225736   3.570   6.746   2.191  1.5748 -1.7235  0.5875
 8174SOL     OW25737   3.509   7.408   3.227 -0.0063 -0.3496  0.4465
 8174SOL    HW125738   3.439   7.347   3.203 -1.1360  1.0850 -0.0575
 8174SOL    HW225739   3.527   7.388   3.319 -0.1331 -1.6262  0.2152
 8175SOL     OW25740   3.327   6.750   3.027 -0.2505  0.2484  0.1159
 8175SOL    HW125741   3.341   6.816   2.959  0.9616  2.1291  2.0515
 8175SOL    HW225742   3.285   6.799   3.098  0.8590 -1.0195  1.6892
 8176SOL     OW25743   1.838   6.718   2.890 -0.6349 -0.1985 -0.0909
 8176SOL    HW125744   1.829   6.623   2.880  0.1142 -0.5385  1.9916
 8176SOL    HW225745   1.747   6.750   2.894 -0.9190 -1.0901  1.1499
 8177SOL     OW25746   2.754   7.294   3.593 -0.4935  0.4459 -0.2870
 8177SOL    HW125747   2.740   7.204   3.625 -2.9520  1.1496  0.8462
 8177SOL    HW225748   2.717   7.293   3.505  0.5699  0.0683 -0.7393
 8178SOL     OW25749   3.528   5.406   2.793 -0.4331  0.0314  0.4247
 8178SOL    HW125750   3.594   5.342   2.767  0.1892  1.4332 -1.7323
 8178SOL    HW225751   3.465   5.356   2.844 -0.2977 -2.4484 -1.6307
 8179SOL     OW25752   3.091   7.234   2.703  0.3764  0.4189  0.4736
 8179SOL    HW125753   3.174   7.188   2.692  0.0156 -0.3933  1.0438
 8179SOL    HW225754   3.025   7.171   2.675 -0.2183  0.0946  2.4438
 8180SOL     OW25755   1.804   7.318   3.777  0.0697 -0.7568 -0.2484
 8180SOL    HW125756   1.867   7.316   3.705  0.7071 -0.0035  0.2679
 8180SOL    HW225757   1.790   7.411   3.795  0.1514 -0.9261  0.7845
 8181SOL     OW25758   3.023   6.042   2.659 -0.1153  0.1049  0.1700
 8181SOL    HW125759   2.954   5.980   2.636 -0.4952  0.4840  0.2909
 8181SOL    HW225760   3.068   6.000   2.733  0.9179 -0.9715 -1.0252
 8182SOL     OW25761   2.586   7.030   3.295  0.4633 -0.2219 -0.9087
 8182SOL    HW125762   2.561   7.020   3.203  0.5870 -0.2453 -0.9411
 8182SOL    HW225763   2.599   6.940   3.326 -0.2196 -0.2483 -0.6835
 8183SOL     OW25764   2.842   7.048   2.025 -0.5387 -0.9039 -0.2744
 8183SOL    HW125765   2.791   7.105   1.967 -0.8153  0.3359  1.1189
 8183SOL    HW225766   2.784   6.973   2.041 -0.8014 -0.8393 -0.8946
 8184SOL     OW25767   3.515   7.069   3.457 -0.0098  0.3742 -0.1685
 8184SOL    HW125768   3.468   7.142   3.416 -0.5816  0.1955  0.1586
 8184SOL    HW225769   3.520   7.003   3.388  2.4710  1.4985 -1.2305
 8185SOL     OW25770   4.186   5.278   2.506 -0.2866  0.1807  0.0420
 8185SOL    HW125771   4.202   5.233   2.423  1.5222 -0.0341  0.4549
 8185SOL    HW225772   4.273   5.306   2.535 -0.7587 -0.5265  2.3070
 8186SOL     OW25773   2.370   5.595   2.765  0.1585 -0.0564 -0.4833
 8186SOL    HW125774   2.459   5.598   2.730  0.6751  0.5547  0.8262
 8186SOL    HW225775   2.376   5.637   2.851 -1.4663  0.3200 -0.5168
 8187SOL     OW25776   3.317   7.122   1.881 -0.4773 -0.1785  0.1025
 8187SOL    HW125777   3.300   7.087   1.793  1.7268  0.5546 -0.6826
 8187SOL    HW225778   3.230   7.142   1.915 -1.3813  0.1271 -2.1683
 8188SOL     OW25779   2.255   6.568   3.441  0.3570 -0.4950 -0.3347
 8188SOL    HW125780   2.315   6.493   3.449  0.2933 -0.4388  0.7495
 8188SOL    HW225781   2.246   6.580   3.346  2.0538 -0.5119 -0.5326
 8189SOL     OW25782   2.965   6.250   2.165 -0.1272 -0.1466 -0.2130
 8189SOL    HW125783   3.008   6.192   2.227 -0.6378 -0.2371  0.0672
 8189SOL    HW225784   2.905   6.303   2.219  1.1536  1.4645 -0.2885
 8190SOL     OW25785   3.170   7.543   1.827 -0.1594  0.0029  0.2024
 8190SOL    HW125786   3.083   7.553   1.789 -0.3408 -0.9539  0.3461
 8190SOL    HW225787   3.178   7.615   1.889 -2.1869 -1.7344  2.7024
 8191SOL     OW25788   2.059   6.637   3.620  0.0642 -0.3518 -0.0440
 8191SOL    HW125789   2.128   6.616   3.557  0.3718  2.2883 -0.7213
 8191SOL    HW225790   1.978   6.619   3.573  0.2419 -2.3684  0.3465
 8192SOL     OW25791   3.560   6.615   2.994 -0.0415  0.6386  0.5184
 8192SOL    HW125792   3.552   6.618   2.899  1.0611  0.5372  0.4064
 8192SOL    HW225793   3.490   6.672   3.026  1.2811  2.9777 -0.4696
 8193SOL     OW25794   3.335   6.832   2.052  0.2159  0.1017 -0.0942
 8193SOL    HW125795   3.308   6.816   2.142 -0.5019  0.4290 -0.2438
 8193SOL    HW225796   3.364   6.746   2.020  1.5024  0.1936  0.7707
 8194SOL     OW25797   3.154   5.677   2.411  0.5486 -0.1695  0.4515
 8194SOL    HW125798   3.168   5.772   2.412  1.7012 -0.3239  0.5970
 8194SOL    HW225799   3.221   5.642   2.470 -0.2199 -1.0368  0.8355
 8195SOL     OW25800   2.361   6.920   1.998  0.1381 -0.7888  0.7026
 8195SOL    HW125801   2.431   6.869   1.957  0.1557 -1.0516  1.0556
 8195SOL    HW225802   2.288   6.858   2.006 -0.1475 -0.5115  0.3180
 8196SOL     OW25803   3.902   6.552   3.444  0.3700  0.3312  0.0039
 8196SOL    HW125804   3.821   6.576   3.399 -0.4474 -2.0133  0.0905
 8196SOL    HW225805   3.966   6.543   3.374 -0.0817 -0.1818 -0.3529
 8197SOL     OW25806   2.050   7.251   2.435  0.0125  0.0534  0.1863
 8197SOL    HW125807   2.050   7.174   2.492  0.0943 -0.1171 -0.0373
 8197SOL    HW225808   1.958   7.262   2.410  0.0743 -0.3027 -0.2122
 8198SOL     OW25809   1.972   6.314   3.467  0.0145  0.1521  0.0904
 8198SOL    HW125810   2.028   6.387   3.440  0.0205 -0.3056 -1.2018
 8198SOL    HW225811   2.010   6.284   3.549  0.0177  1.5813  0.6342
 8199SOL     OW25812   2.816   5.604   3.197 -0.2877 -0.6728  0.0121
 8199SOL    HW125813   2.825   5.517   3.160 -0.4319 -0.1048 -1.4126
 8199SOL    HW225814   2.869   5.602   3.277 -0.0343 -1.9461 -0.1688
 8200SOL     OW25815   1.983   6.216   1.579 -0.5489  0.1787 -0.0123
 8200SOL    HW125816   1.987   6.161   1.656 -1.4712 -1.4321 -1.0644
 8200SOL    HW225817   2.056   6.186   1.524  0.2190  1.4359  0.2676
 8201SOL     OW25818   3.177   6.129   3.268 -0.2585 -0.5952  0.5487
 8201SOL    HW125819   3.151   6.179   3.191  1.0715  1.3875  1.3057
 8201SOL    HW225820   3.213   6.048   3.233  0.7720  0.4711 -0.9881
 8202SOL     OW25821   1.696   5.727   2.073 -0.2104  0.2194  0.1497
 8202SOL    HW125822   1.623   5.673   2.044 -0.1944  0.5988 -0.6393
 8202SOL    HW225823   1.712   5.786   1.999  1.0749 -0.0500  0.1944
 8203SOL     OW25824   2.847   6.600   2.186 -0.4160  0.4656 -0.8450
 8203SOL    HW125825   2.891   6.532   2.237  2.1455  0.9969 -2.1917
 8203SOL    HW225826   2.775   6.629   2.242 -0.1322 -1.6780  0.7461
 8204SOL     OW25827   2.689   6.771   3.269  0.4569 -0.3572 -0.0134
 8204SOL    HW125828   2.630   6.766   3.344  3.1801  1.5073  2.4487
 8204SOL    HW225829   2.752   6.700   3.283  0.3715 -0.6989 -1.2011
 8205SOL     OW25830   3.339   7.729   2.294  0.8168 -0.2634  0.2869
 8205SOL    HW125831   3.377   7.658   2.241  1.0104 -0.6769  0.9690
 8205SOL    HW225832   3.335   7.693   2.383  0.5595  0.4493  0.5680
 8206SOL     OW25833   2.337   6.193   3.184 -0.1687  0.4735  0.4834
 8206SOL    HW125834   2.312   6.143   3.261 -2.4307 -1.1821 -1.2041
 8206SOL    HW225835   2.386   6.131   3.130 -1.4236  0.5512 -0.8164
 8207SOL     OW25836   3.017   6.750   3.765 -0.4701  0.0790  0.0948
 8207SOL    HW125837   2.963   6.740   3.687 -1.9234  1.2092  0.9069
 8207SOL    HW225838   2.972   6.699   3.832  0.3069 -0.1900  0.4272
 8208SOL     OW25839   2.108   7.299   3.685  0.1126  0.5286  0.4936
 8208SOL    HW125840   2.119   7.213   3.644 -1.8308 -0.0698  1.1113
 8208SOL    HW225841   2.148   7.289   3.772  4.0397  1.7326 -0.9639
 8209SOL     OW25842   3.717   6.234   3.225 -0.2574 -0.5384  0.5969
 8209SOL    HW125843   3.689   6.247   3.315 -0.6308 -1.6380  0.6505
 8209SOL    HW225844   3.769   6.154   3.226 -2.6555 -2.2223 -0.6165
 8210SOL     OW25845   3.083   5.687   2.066  0.7907 -0.0402  0.5799
 8210SOL    HW125846   3.086   5.601   2.108  1.6133 -0.1321  0.3536
 8210SOL    HW225847   3.142   5.742   2.118 -0.9911  0.8782  1.7306
 8211SOL     OW25848   2.545   6.420   2.413 -0.0979  0.5154  0.3317
 8211SOL    HW125849   2.518   6.409   2.321  1.1283  1.6495 -0.2031
 8211SOL    HW225850   2.553   6.330   2.446 -1.3791  0.0962 -0.3994
 8212SOL     OW25851   3.230   5.661   3.639 -0.0513 -0.3199 -0.5379
 8212SOL    HW125852   3.287   5.684   3.712  0.4172 -1.3209 -0.5594
 8212SOL    HW225853   3.142   5.658   3.676  0.3113 -1.9790  0.2954
 8213SOL     OW25854   3.729   6.679   3.287  0.2672 -0.1155 -0.5139
 8213SOL    HW125855   3.800   6.744   3.290 -1.0543  1.4239 -1.1440
 8213SOL    HW225856   3.722   6.656   3.195  0.7862 -1.2513 -0.2795
 8214SOL     OW25857   2.589   6.831   1.798  0.1518 -0.4988 -0.5458
 8214SOL    HW125858   2.609   6.766   1.866 -2.1477 -0.8720 -0.1551
 8214SOL    HW225859   2.596   6.782   1.716 -1.7407 -1.3530 -0.2452
 8215SOL     OW25860   2.238   7.473   2.468 -0.2315 -0.5276 -0.1331
 8215SOL    HW125861   2.162   7.417   2.484 -0.1113 -0.0454  2.4433
 8215SOL    HW225862   2.201   7.550   2.425 -0.9841 -0.8638 -0.1050
 8216SOL     OW25863   2.803   6.378   2.350 -0.4266 -0.0294 -0.0914
 8216SOL    HW125864   2.829   6.372   2.442 -0.9495  1.6666  0.1946
 8216SOL    HW225865   2.711   6.403   2.352  0.0757  2.1558 -1.0318
 8217SOL     OW25866   2.980   6.850   2.290  0.1816  0.2102  0.2814
 8217SOL    HW125867   2.945   6.825   2.205  1.0770  0.0433 -0.0467
 8217SOL    HW225868   2.931   6.929   2.314 -0.4212 -0.0220 -0.1490
 8218SOL     OW25869   3.506   7.554   2.861  0.6814  0.5087 -0.8355
 8218SOL    HW125870   3.530   7.511   2.779 -1.7926 -0.6829 -1.0426
 8218SOL    HW225871   3.414   7.529   2.875  0.2646  2.7090  1.0206
 8219SOL     OW25872   1.825   6.578   3.498  0.4282  0.3697  0.2545
 8219SOL    HW125873   1.747   6.535   3.533  0.6753 -0.3248 -0.0454
 8219SOL    HW225874   1.804   6.597   3.407 -0.2851  2.3492  0.7846
 8220SOL     OW25875   2.114   7.037   2.635  0.4231  0.3325  0.5179
 8220SOL    HW125876   2.135   6.944   2.641  0.5361  0.1180 -1.9265
 8220SOL    HW225877   2.114   7.068   2.725 -0.1304 -2.1291  1.4459
 8221SOL     OW25878   2.227   6.875   3.352 -0.1173 -0.3565  0.2270
 8221SOL    HW125879   2.255   6.918   3.271  1.8251 -0.6569  0.6868
 8221SOL    HW225880   2.253   6.783   3.341  1.7946 -0.0728  1.8273
 8222SOL     OW25881   4.022   5.732   3.403  0.9778 -0.7292  0.1427
 8222SOL    HW125882   4.031   5.651   3.352 -2.0598 -0.3244 -1.2537
 8222SOL    HW225883   4.044   5.802   3.342 -0.7714 -0.3502 -0.1299
 8223SOL     OW25884   2.495   6.155   2.861  0.0074  0.3754 -0.2054
 8223SOL    HW125885   2.511   6.110   2.944  0.6093 -0.0729 -0.5551
 8223SOL    HW225886   2.444   6.092   2.809  1.3974 -0.2057 -0.9383
 8224SOL     OW25887   3.666   6.901   3.004  0.6418  0.3933  0.1434
 8224SOL    HW125888   3.699   6.824   2.957  0.2451  0.4959 -0.3149
 8224SOL    HW225889   3.592   6.931   2.951  0.1427  0.4717  0.8792
 8225SOL     OW25890   2.112   5.848   3.214  0.2491  0.5820  0.7180
 8225SOL    HW125891   2.051   5.811   3.278 -0.3140 -3.8422 -1.9329
 8225SOL    HW225892   2.064   5.921   3.175 -1.9934 -0.5795  1.1052
 8226SOL     OW25893   2.721   6.986   2.437 -0.5866 -0.0600 -0.6896
 8226SOL    HW125894   2.653   6.976   2.504 -1.6111  1.5630 -1.4305
 8226SOL    HW225895   2.675   7.020   2.361  1.1869  1.9826 -0.9279
 8227SOL     OW25896   3.301   5.608   3.097  0.0318  0.1813  0.0087
 8227SOL    HW125897   3.303   5.619   3.192 -1.9454 -0.2084  0.1287
 8227SOL    HW225898   3.387   5.572   3.076 -0.0184 -1.1857  1.8517
 8228SOL     OW25899   2.875   5.354   3.076 -0.1742  0.2460  0.9144
 8228SOL    HW125900   2.840   5.328   2.991  0.0961  0.7716  0.6409
 8228SOL    HW225901   2.967   5.373   3.060  0.6447 -2.4030  1.8830
 8229SOL     OW25902   2.726   6.813   2.075 -0.3073 -0.6262  0.4833
 8229SOL    HW125903   2.689   6.808   2.164  1.0585 -0.7869  1.0638
 8229SOL    HW225904   2.752   6.723   2.055 -1.5955 -0.7980 -0.5479
 8230SOL     OW25905   2.494   6.948   3.045 -0.0691 -0.0235 -0.1140
 8230SOL    HW125906   2.530   7.012   2.984 -1.8579 -0.2077 -1.4573
 8230SOL    HW225907   2.543   6.868   3.028  0.3473  0.2845 -0.3703
 8231SOL     OW25908   3.305   5.958   2.546  0.5378 -0.0020  0.1537
 8231SOL    HW125909   3.394   5.935   2.522  0.8041 -1.8203  2.5161
 8231SOL    HW225910   3.306   5.962   2.642 -1.9916 -0.4264  0.2650
 8232SOL     OW25911   3.372   5.600   2.525 -0.2467  0.5985  0.0676
 8232SOL    HW125912   3.382   5.606   2.620 -3.1718  1.6946  0.4104
 8232SOL    HW225913   3.430   5.668   2.490  0.1616  0.8092  1.1239
 8233SOL     OW25914   3.453   5.909   2.783  0.1126 -0.6477 -0.2711
 8233SOL    HW125915   3.501   5.826   2.777  1.0270 -0.1818  0.3038
 8233SOL    HW225916   3.519   5.972   2.812 -0.2157  0.5795 -2.0511
 8234SOL     OW25917   1.830   6.684   2.477  0.7725 -0.3659 -0.1804
 8234SOL    HW125918   1.830   6.604   2.423  0.1199 -1.3600  1.2291
 8234SOL    HW225919   1.906   6.675   2.533  0.6114 -0.0747  0.0880
 8235SOL     OW25920   2.819   7.366   2.187  0.1561 -0.1322 -0.0364
 8235SOL    HW125921   2.766   7.308   2.241 -0.6064  1.4950  1.0091
 8235SOL    HW225922   2.773   7.369   2.103  0.5233 -1.4522 -0.3176
 8236SOL     OW25923   1.489   5.719   3.797  0.3743 -0.3643 -0.5740
 8236SOL    HW125924   1.522   5.781   3.731  3.2335 -1.2573 -0.1205
 8236SOL    HW225925   1.435   5.658   3.747 -0.2812  0.9161 -1.4804
 8237SOL     OW25926   1.803   6.154   5.183 -0.0501 -0.1901  0.2510
 8237SOL    HW125927   1.782   6.199   5.265 -1.3358 -0.1786 -0.0596
 8237SOL    HW225928   1.760   6.207   5.115  1.9683  0.4786 -0.5981
 8238SOL     OW25929   1.765   5.671   4.329  0.4430  0.0978 -0.0108
 8238SOL    HW125930   1.746   5.686   4.422 -0.6818  2.0209 -0.4957
 8238SOL    HW225931   1.713   5.595   4.306 -1.9271  1.5360  0.2213
 8239SOL     OW25932   2.323   7.034   5.211  0.3875  0.2218  0.2971
 8239SOL    HW125933   2.333   7.018   5.117 -1.1827 -0.0056  0.1242
 8239SOL    HW225934   2.409   7.016   5.248  1.0490  0.3443 -1.0969
 8240SOL     OW25935   3.392   6.944   4.315  0.1186  0.0720 -0.4565
 8240SOL    HW125936   3.426   6.889   4.386  1.0266 -0.6851 -1.4415
 8240SOL    HW225937   3.468   6.996   4.287 -0.8279  2.2488  0.7743
 8241SOL     OW25938   2.547   6.137   4.622 -0.0222 -0.4234 -0.7112
 8241SOL    HW125939   2.589   6.202   4.679 -0.5835  0.5870 -1.4177
 8241SOL    HW225940   2.495   6.083   4.682 -0.0069  0.1450 -0.1769
 8242SOL     OW25941   2.941   6.141   3.796 -0.1407  0.0361 -0.3681
 8242SOL    HW125942   2.995   6.120   3.872 -1.4092  1.2890  0.9384
 8242SOL    HW225943   3.002   6.142   3.723  1.7644  1.9467  1.1333
 8243SOL     OW25944   2.553   6.935   5.142 -0.2489 -0.2979 -0.4303
 8243SOL    HW125945   2.571   7.008   5.083  1.2053 -2.5230 -2.9836
 8243SOL    HW225946   2.639   6.911   5.177 -1.1524  1.4570  3.4754
 8244SOL     OW25947   2.696   6.110   5.440  0.0374  0.5994  0.2905
 8244SOL    HW125948   2.625   6.152   5.391 -0.5895 -0.6027  0.1185
 8244SOL    HW225949   2.757   6.181   5.460 -1.7752  1.9050  1.4667
 8245SOL     OW25950   2.306   6.283   4.490 -0.3382  0.6067  0.2369
 8245SOL    HW125951   2.383   6.231   4.468  0.1451  1.2363  0.4061
 8245SOL    HW225952   2.292   6.339   4.414  0.3464  1.6204  0.8271
 8246SOL     OW25953   2.447   6.821   5.513  0.0505  0.2088 -0.3479
 8246SOL    HW125954   2.386   6.802   5.442  0.1924 -0.0478 -0.4037
 8246SOL    HW225955   2.476   6.911   5.497 -0.4029  0.3761 -0.2526
 8247SOL     OW25956   2.436   6.566   4.732 -0.1929 -0.6241 -0.0361
 8247SOL    HW125957   2.350   6.603   4.715 -0.9126 -1.4097  1.6645
 8247SOL    HW225958   2.482   6.633   4.783 -0.1473 -0.6022 -0.1054
 8248SOL     OW25959   3.274   6.970   5.034  0.1253 -0.1563  0.4006
 8248SOL    HW125960   3.286   6.914   5.111 -1.8317 -0.0017  0.8931
 8248SOL    HW225961   3.209   7.034   5.062  0.7701  1.0628 -0.8233
 8249SOL     OW25962   2.625   5.694   5.447 -0.0784  0.1884  0.3726
 8249SOL    HW125963   2.672   5.744   5.514  0.7748 -1.2893  0.9364
 8249SOL    HW225964   2.679   5.616   5.433 -0.9663 -0.2209 -1.0221
 8250SOL     OW25965   3.453   6.100   4.295  0.6689  0.2318  0.1576
 8250SOL    HW125966   3.371   6.052   4.289  0.8553 -0.0381 -0.2899
 8250SOL    HW225967   3.494   6.088   4.210  0.7115  1.2039  0.0233
 8251SOL     OW25968   1.942   7.204   4.275 -0.3240  0.2258  0.1243
 8251SOL    HW125969   2.029   7.220   4.239 -0.1959 -1.4103 -0.3544
 8251SOL    HW225970   1.958   7.176   4.365 -0.1614 -2.1224 -0.5794
 8252SOL     OW25971   3.027   6.727   5.269  0.3050  0.2906  0.0857
 8252SOL    HW125972   3.053   6.773   5.349  0.4733 -2.5093  1.7610
 8252SOL    HW225973   3.109   6.694   5.233  0.0336 -0.0896 -0.1882
 8253SOL     OW25974   2.044   6.739   4.003  0.1237 -0.6296 -0.1591
 8253SOL    HW125975   2.114   6.690   3.959 -0.9408 -1.7066 -0.6836
 8253SOL    HW225976   1.967   6.684   3.995 -0.3884 -0.3497  2.0827
 8254SOL     OW25977   2.016   6.378   4.256  0.3575 -0.6408 -0.7388
 8254SOL    HW125978   2.004   6.342   4.344 -2.3158 -0.8817 -1.1250
 8254SOL    HW225979   2.109   6.363   4.237  0.2140 -4.1028  0.5493
 8255SOL     OW25980   2.310   7.590   5.312 -0.0264  0.1416 -0.0883
 8255SOL    HW125981   2.344   7.549   5.232  0.3472 -1.2404  0.7509
 8255SOL    HW225982   2.265   7.668   5.281  0.9099  0.1315 -1.5670
 8256SOL     OW25983   2.522   6.651   3.739 -0.4878 -0.4688  0.3779
 8256SOL    HW125984   2.537   6.682   3.829  1.1553 -2.1604  0.7562
 8256SOL    HW225985   2.462   6.578   3.749 -1.3322  0.1485 -0.0749
 8257SOL     OW25986   3.919   5.785   5.610 -0.3318  0.4082  0.3820
 8257SOL    HW125987   3.908   5.714   5.546 -2.2251  3.2999 -2.8481
 8257SOL    HW225988   4.012   5.783   5.631  0.2424 -1.2716 -1.8684
 8258SOL     OW25989   1.544   6.205   4.450  1.0817  0.4980 -0.2924
 8258SOL    HW125990   1.526   6.118   4.484  1.4764 -0.4212 -2.2887
 8258SOL    HW225991   1.504   6.265   4.513 -3.4247 -1.1867 -1.2080
 8259SOL     OW25992   3.320   7.274   3.843  0.3313  0.0514  0.2514
 8259SOL    HW125993   3.353   7.362   3.824 -0.1036 -0.0819 -1.2380
 8259SOL    HW225994   3.387   7.215   3.807 -0.4001 -0.2108 -0.7326
 8260SOL     OW25995   1.931   7.104   3.912 -0.1376  0.3044  0.4773
 8260SOL    HW125996   1.853   7.049   3.906 -2.1385  2.5532  3.2268
 8260SOL    HW225997   1.900   7.193   3.898  2.0489  1.2457  1.0958
 8261SOL     OW25998   3.125   6.457   3.771  0.5495 -0.7581 -0.2914
 8261SOL    HW125999   3.146   6.364   3.767  0.5307 -0.7201 -1.8253
 8261SOL    HW226000   3.108   6.481   3.681 -1.5629  0.2499  0.3148
 8262SOL     OW26001   3.363   6.465   4.155 -0.4961  0.3072  0.6005
 8262SOL    HW126002   3.446   6.507   4.130 -0.8506  1.8972  1.9278
 8262SOL    HW226003   3.357   6.389   4.097  1.1204  1.0255 -0.6086
 8263SOL     OW26004   2.068   6.365   5.623 -0.1065 -0.1900 -0.7041
 8263SOL    HW126005   2.126   6.344   5.550 -0.0335 -0.7809 -0.4803
 8263SOL    HW226006   2.069   6.461   5.628  1.8247 -0.2073  0.0751
 8264SOL     OW26007   2.906   6.620   4.273 -0.2144 -0.2165  0.3217
 8264SOL    HW126008   2.813   6.640   4.282 -0.0188  0.0818  1.9617
 8264SOL    HW226009   2.909   6.524   4.269 -0.5768 -0.2394  0.5251
 8265SOL     OW26010   3.585   6.943   4.970  0.0219 -0.1095 -0.2556
 8265SOL    HW126011   3.589   6.857   5.012 -0.3081 -0.2338 -0.4723
 8265SOL    HW226012   3.492   6.958   4.955  0.1619 -0.2689 -1.3459
 8266SOL     OW26013   2.159   5.391   4.991 -0.0973 -0.6440 -0.5242
 8266SOL    HW126014   2.163   5.319   4.928 -0.8117  0.6516 -2.1183
 8266SOL    HW226015   2.116   5.354   5.068 -0.2012 -1.9852 -1.2112
 8267SOL     OW26016   2.198   6.712   4.727 -0.1385  0.2047 -0.0354
 8267SOL    HW126017   2.169   6.762   4.651  0.6499  0.7298  0.0010
 8267SOL    HW226018   2.137   6.638   4.732 -1.3127  1.1301 -0.1045
 8268SOL     OW26019   2.769   6.746   3.619  0.3367  0.0818 -0.0100
 8268SOL    HW126020   2.691   6.709   3.660  1.0257 -0.6915  0.6451
 8268SOL    HW226021   2.783   6.692   3.540  1.9309 -1.8544  1.4792
 8269SOL     OW26022   3.145   7.247   5.420  0.4702  0.2820 -0.2598
 8269SOL    HW126023   3.223   7.196   5.399  0.9571 -0.7901  3.5412
 8269SOL    HW226024   3.175   7.337   5.425  1.0159  0.1329 -0.7177
 8270SOL     OW26025   2.276   5.675   5.563 -0.0910 -0.3781  0.2309
 8270SOL    HW126026   2.245   5.613   5.630 -1.4172  0.3092  0.2989
 8270SOL    HW226027   2.199   5.689   5.507  1.3460 -1.9750 -2.2919
 8271SOL     OW26028   3.141   6.975   4.503 -0.1472 -0.0404 -0.2687
 8271SOL    HW126029   3.094   6.970   4.586  0.4789  0.1982  0.1023
 8271SOL    HW226030   3.165   6.884   4.484  1.5473  0.1050  0.8951
 8272SOL     OW26031   3.357   7.150   4.096 -0.2243 -0.4200 -0.5002
 8272SOL    HW126032   3.340   7.100   4.016 -0.6738 -1.5351  0.2728
 8272SOL    HW226033   3.452   7.146   4.107 -0.2079 -0.6542 -0.7226
 8273SOL     OW26034   2.450   6.254   3.964  0.0400  0.2109 -0.0597
 8273SOL    HW126035   2.452   6.158   3.964  0.9189  0.2158 -0.6543
 8273SOL    HW226036   2.542   6.280   3.972 -0.2940  1.0323  1.6349
 8274SOL     OW26037   2.873   6.065   4.749  0.2964  0.0339 -0.0021
 8274SOL    HW126038   2.842   6.063   4.658 -0.0541  0.2632  0.1084
 8274SOL    HW226039   2.966   6.046   4.743  0.2573 -0.0419 -0.4042
 8275SOL     OW26040   3.069   7.112   3.781 -0.5885  0.1885  0.2543
 8275SOL    HW126041   3.066   7.202   3.749 -0.5237 -0.0890 -0.5680
 8275SOL    HW226042   2.996   7.106   3.843 -1.8668  0.2751 -1.1704
 8276SOL     OW26043   2.350   6.187   5.224 -0.4424 -0.0441  0.3512
 8276SOL    HW126044   2.370   6.142   5.142 -2.0258 -0.3208  0.0846
 8276SOL    HW226045   2.333   6.116   5.287  0.9402  0.1615  0.9866
 8277SOL     OW26046   2.944   6.178   5.625 -0.2300 -0.2368  0.0372
 8277SOL    HW126047   2.854   6.191   5.654 -0.0063  0.2487  0.5216
 8277SOL    HW226048   2.995   6.172   5.705  0.1862 -0.3980 -0.2372
 8278SOL     OW26049   2.647   6.311   5.152  0.0100 -0.1796  0.0193
 8278SOL    HW126050   2.579   6.252   5.120  1.0362 -1.0313 -0.6766
 8278SOL    HW226051   2.606   6.357   5.226 -0.8341 -1.7509  0.5876
 8279SOL     OW26052   2.210   5.640   5.052  0.3158  0.0509  0.0898
 8279SOL    HW126053   2.226   5.660   5.144  2.0186 -0.9941  0.0473
 8279SOL    HW226054   2.215   5.545   5.047 -0.0568  0.0819 -1.0452
 8280SOL     OW26055   2.594   5.889   4.102 -0.5740 -0.1709  0.2478
 8280SOL    HW126056   2.557   5.851   4.181 -1.4780 -0.5402 -0.3407
 8280SOL    HW226057   2.520   5.896   4.041 -0.0661  0.8874 -0.2725
 8281SOL     OW26058   1.792   6.597   4.405 -0.0322 -0.2200 -0.1919
 8281SOL    HW126059   1.769   6.512   4.444 -2.5146 -1.2523 -3.4640
 8281SOL    HW226060   1.865   6.577   4.347 -0.5038 -0.1132 -0.8312
 8282SOL     OW26061   1.872   7.155   5.793  0.0422 -0.0452 -0.0007
 8282SOL    HW126062   1.922   7.088   5.746 -0.3969 -0.9735  0.7950
 8282SOL    HW226063   1.798   7.174   5.736  0.6325  0.4069 -0.6203
 8283SOL     OW26064   2.408   5.691   4.610 -0.3591 -0.5748  0.3824
 8283SOL    HW126065   2.327   5.640   4.617  0.3288 -1.7455 -0.1156
 8283SOL    HW226066   2.471   5.643   4.663  0.5226 -0.7153 -0.7689
 8284SOL     OW26067   3.727   6.263   5.625 -0.4191  0.2129  0.3275
 8284SOL    HW126068   3.638   6.235   5.646 -0.3401 -0.2047  0.1172
 8284SOL    HW226069   3.725   6.283   5.532 -0.0919 -0.6074  0.1375
 8285SOL     OW26070   3.093   6.702   4.564  0.1051 -0.0681 -0.0470
 8285SOL    HW126071   3.123   6.624   4.516  0.7674 -0.9379  1.6758
 8285SOL    HW226072   3.105   6.679   4.656 -0.5490  1.7577  0.5367
 8286SOL     OW26073   2.102   5.592   4.782 -0.2981 -0.0876 -0.2243
 8286SOL    HW126074   2.125   5.682   4.805 -0.9245  0.7030 -2.4115
 8286SOL    HW226075   2.135   5.539   4.855 -0.8002  1.9823  1.6191
 8287SOL     OW26076   2.848   6.847   4.563  0.2603 -0.1534 -0.5881
 8287SOL    HW126077   2.849   6.874   4.471 -0.6841  0.7974 -0.3366
 8287SOL    HW226078   2.918   6.783   4.569  0.1918 -0.4129 -2.0290
 8288SOL     OW26079   1.963   7.164   4.551 -0.3857  0.0258  0.2631
 8288SOL    HW126080   1.943   7.254   4.578 -0.4222 -0.5875  2.4829
 8288SOL    HW226081   1.966   7.115   4.633 -0.2002 -1.9803 -0.8870
 8289SOL     OW26082   3.488   6.786   4.558  0.0178 -0.1519 -0.3195
 8289SOL    HW126083   3.567   6.737   4.536  0.0417  0.0385 -0.6640
 8289SOL    HW226084   3.465   6.756   4.646 -0.0313 -0.8626 -0.5646
 8290SOL     OW26085   2.959   7.072   5.076 -0.3840 -0.4989 -0.2607
 8290SOL    HW126086   2.872   7.085   5.037  0.4134  0.2360 -1.8866
 8290SOL    HW226087   3.020   7.101   5.008  1.0960  1.8532  1.8759
 8291SOL     OW26088   1.844   6.175   3.760 -0.3651 -0.0393 -0.0257
 8291SOL    HW126089   1.864   6.102   3.819 -1.5156  0.1884  0.6660
 8291SOL    HW226090   1.917   6.236   3.771  0.1807 -0.6834  0.0200
 8292SOL     OW26091   2.652   6.329   4.806  0.0581  0.0418 -0.7353
 8292SOL    HW126092   2.646   6.275   4.885 -0.5546  1.5322  0.3012
 8292SOL    HW226093   2.637   6.418   4.838 -0.0255  0.7025 -2.5284
 8293SOL     OW26094   1.987   6.807   5.450 -0.1881 -0.1145  0.3992
 8293SOL    HW126095   1.926   6.828   5.521 -2.4494  1.0231 -1.7429
 8293SOL    HW226096   1.999   6.889   5.403  1.8176 -0.6865 -0.1695
 8294SOL     OW26097   2.814   7.349   4.298  0.1593 -0.1576 -0.1113
 8294SOL    HW126098   2.851   7.404   4.367 -0.8929  0.2900  0.1066
 8294SOL    HW226099   2.740   7.399   4.264 -0.2783 -1.0564 -0.5126
 8295SOL     OW26100   2.046   5.692   5.350 -0.0168 -0.1985  0.2897
 8295SOL    HW126101   2.062   5.785   5.330  2.2193 -0.5828 -0.0176
 8295SOL    HW226102   2.002   5.693   5.435  1.5304  1.1302  1.1315
 8296SOL     OW26103   3.409   6.782   4.035  0.4941  0.3563 -0.5695
 8296SOL    HW126104   3.383   6.861   3.986  0.2423  1.2456  0.9401
 8296SOL    HW226105   3.367   6.792   4.121  0.7445 -1.2719 -0.2251
 8297SOL     OW26106   2.218   7.321   3.932  0.1577  0.4433  0.2019
 8297SOL    HW126107   2.173   7.307   4.015 -0.0681  2.2297  0.4351
 8297SOL    HW226108   2.287   7.255   3.930 -1.5217 -1.3986  0.5184
 8298SOL     OW26109   3.404   5.660   4.086  0.6105 -0.1568  0.5716
 8298SOL    HW126110   3.337   5.628   4.147  0.0265 -1.8960 -0.8971
 8298SOL    HW226111   3.487   5.633   4.125  0.4220  0.9381  1.7940
 8299SOL     OW26112   1.832   7.366   5.013  0.1429  0.1491 -0.2290
 8299SOL    HW126113   1.829   7.279   4.975  0.0028  0.3400 -0.6612
 8299SOL    HW226114   1.773   7.361   5.088  2.4435 -0.9880  1.6175
 8300SOL     OW26115   2.606   6.792   4.389 -1.1783 -0.0429  0.5380
 8300SOL    HW126116   2.610   6.761   4.480 -2.2860  0.0989  0.6488
 8300SOL    HW226117   2.669   6.863   4.386  1.4701 -2.2340  0.2657
 8301SOL     OW26118   2.355   5.883   3.935  0.1248 -0.0097  0.4709
 8301SOL    HW126119   2.299   5.819   3.979  0.0279  0.0658  0.4569
 8301SOL    HW226120   2.401   5.833   3.868  1.2818 -0.4146  1.5290
 8302SOL     OW26121   3.641   5.920   5.201 -0.0740  0.1299  0.0142
 8302SOL    HW126122   3.615   5.829   5.214  0.5043  0.0295  0.4813
 8302SOL    HW226123   3.699   5.940   5.274 -0.8872  1.1496  0.4198
 8303SOL     OW26124   2.595   5.272   3.717 -0.0096  0.2780 -0.0380
 8303SOL    HW126125   2.560   5.188   3.688  0.6096 -0.7129  1.8869
 8303SOL    HW226126   2.690   5.262   3.708  0.1534  0.1949  1.5878
 8304SOL     OW26127   2.419   5.647   5.280 -0.5591  0.0316  0.3864
 8304SOL    HW126128   2.512   5.637   5.301 -0.6377 -0.5675  0.4776
 8304SOL    HW226129   2.392   5.726   5.326 -0.0401  0.3283  0.1833
 8305SOL     OW26130   2.374   6.939   4.762 -0.1369  0.7222 -0.7419
 8305SOL    HW126131   2.338   6.852   4.782 -0.8453  1.0633 -0.5213
 8305SOL    HW226132   2.469   6.926   4.766 -0.1350  0.7598  3.0182
 8306SOL     OW26133   2.969   5.864   5.000  0.2509  0.2723 -0.0263
 8306SOL    HW126134   2.892   5.811   5.019 -0.3234  0.9218 -0.4704
 8306SOL    HW226135   2.966   5.936   5.063  1.1550 -0.3185  0.7293
 8307SOL     OW26136   2.425   6.728   5.015 -0.1997  0.0067 -0.1554
 8307SOL    HW126137   2.506   6.680   4.997  0.2687 -0.3650  2.5074
 8307SOL    HW226138   2.455   6.812   5.051 -0.9363 -0.3323  1.3356
 8308SOL     OW26139   2.369   5.934   4.717  0.0652  0.0181 -0.1534
 8308SOL    HW126140   2.380   5.862   4.655  2.3425  1.0148 -1.0274
 8308SOL    HW226141   2.334   5.893   4.796  1.1212 -2.0289 -0.6707
 8309SOL     OW26142   2.710   5.409   4.151  0.0383  0.0975 -0.2240
 8309SOL    HW126143   2.647   5.338   4.159 -1.3058  1.3648  1.4702
 8309SOL    HW226144   2.656   5.489   4.154  1.6651  1.2325  0.9048
 8310SOL     OW26145   3.287   6.983   3.869 -0.0187 -0.1047  0.1785
 8310SOL    HW126146   3.355   6.985   3.801 -1.5067 -0.4159 -1.4036
 8310SOL    HW226147   3.211   7.026   3.828 -1.8418 -2.6561  0.5925
 8311SOL     OW26148   2.503   5.703   3.761 -0.7307  0.1551 -0.7719
 8311SOL    HW126149   2.475   5.617   3.729 -0.0234 -0.1422 -0.6095
 8311SOL    HW226150   2.510   5.756   3.681 -1.6527  0.2157 -0.8250
 8312SOL     OW26151   2.947   5.951   4.353 -0.1485 -0.1978 -0.2990
 8312SOL    HW126152   2.865   5.930   4.398 -1.4372 -1.5352 -2.9768
 8312SOL    HW226153   2.965   6.042   4.376 -2.2407  0.0504  0.6034
 8313SOL     OW26154   2.997   5.975   5.414 -0.4882 -0.1600  0.0065
 8313SOL    HW126155   3.075   6.011   5.372 -0.6991 -0.7126 -0.8843
 8313SOL    HW226156   2.973   6.040   5.480 -0.0122  0.6246 -0.5761
 8314SOL     OW26157   2.347   6.397   4.245  0.5026  0.2239 -0.2555
 8314SOL    HW126158   2.358   6.490   4.226 -0.7696  0.1187 -1.7062
 8314SOL    HW226159   2.368   6.353   4.163 -0.4826 -0.6326 -0.0753
 8315SOL     OW26160   3.041   7.216   4.202  0.3305 -0.7014 -0.5147
 8315SOL    HW126161   3.003   7.203   4.115 -1.0820 -0.7086  0.0757
 8315SOL    HW226162   2.969   7.250   4.255  1.4717  0.4395  0.3671
 8316SOL     OW26163   2.522   6.159   3.695  0.3643 -0.0917  0.2730
 8316SOL    HW126164   2.577   6.104   3.750  2.4692  0.5648 -1.0342
 8316SOL    HW226165   2.450   6.102   3.667  1.3710 -1.5530  0.5788
 8317SOL     OW26166   2.021   6.072   5.536  0.7766 -0.3904 -0.1522
 8317SOL    HW126167   2.020   6.165   5.556  2.0913 -0.7408  1.8165
 8317SOL    HW226168   1.929   6.045   5.541  0.1972  0.9912 -2.0852
 8318SOL     OW26169   1.972   5.963   4.576  0.1472 -0.3797 -0.4063
 8318SOL    HW126170   1.897   5.905   4.584 -0.1827  0.2101  1.2193
 8318SOL    HW226171   1.999   5.981   4.666  1.5595  0.3029 -0.9213
 8319SOL     OW26172   2.424   5.765   4.331 -0.1819 -0.7597 -0.2985
 8319SOL    HW126173   2.419   5.755   4.426  2.9177  1.5107  0.2835
 8319SOL    HW226174   2.342   5.806   4.306  0.6455  2.8475  2.2327
 8320SOL     OW26175   2.997   5.394   4.753  0.5287 -0.0284  0.5250
 8320SOL    HW126176   3.048   5.325   4.797  1.8074  0.3822 -0.2702
 8320SOL    HW226177   3.055   5.426   4.684 -1.8370 -1.5302 -2.3907
 8321SOL     OW26178   3.089   6.505   4.786 -0.8490 -0.0749 -0.1652
 8321SOL    HW126179   3.054   6.490   4.874 -0.7606 -2.2204 -0.4348
 8321SOL    HW226180   3.021   6.471   4.727 -0.9189  1.3578 -0.9443
 8322SOL     OW26181   3.167   6.182   4.985  0.6163 -0.0420 -0.4179
 8322SOL    HW126182   3.153   6.101   4.936  1.7413 -1.0884  0.8855
 8322SOL    HW226183   3.081   6.205   5.019  0.5907 -1.8786  0.8963
 8323SOL     OW26184   3.725   6.015   4.716 -0.4632  0.5267  0.7324
 8323SOL    HW126185   3.674   5.980   4.789 -1.1530 -0.7251 -0.3048
 8323SOL    HW226186   3.667   6.007   4.640  0.3727  1.4386 -0.0322
 8324SOL     OW26187   2.187   6.994   3.880 -0.5660 -0.2571  0.1265
 8324SOL    HW126188   2.152   6.921   3.828 -0.7637 -1.7193  2.2237
 8324SOL    HW226189   2.109   7.039   3.913 -0.4483 -0.2247  0.3614
 8325SOL     OW26190   3.634   7.036   4.175  0.0675 -0.4811  0.1117
 8325SOL    HW126191   3.668   7.046   4.087 -0.7716 -0.0704 -0.1822
 8325SOL    HW226192   3.693   6.974   4.218  1.0287  0.0359 -0.4356
 8326SOL     OW26193   2.617   5.865   3.578 -0.3141 -0.3446  0.2401
 8326SOL    HW126194   2.635   5.894   3.668 -0.4615 -2.9525  1.1937
 8326SOL    HW226195   2.698   5.884   3.530  0.4463 -0.5760  1.3875
 8327SOL     OW26196   2.200   5.719   4.066 -0.0975  1.0716 -0.1716
 8327SOL    HW126197   2.135   5.702   4.135  0.3584 -0.7220 -0.1348
 8327SOL    HW226198   2.159   5.686   3.986 -0.2668  2.3511 -0.6468
 8328SOL     OW26199   3.932   6.820   5.005  0.1115  0.2392  0.0434
 8328SOL    HW126200   3.944   6.914   4.990 -3.7268  0.8268 -0.3555
 8328SOL    HW226201   3.916   6.812   5.099 -1.6501  0.3933 -0.1982
 8329SOL     OW26202   2.649   6.584   4.996  0.1365  0.8849  0.2642
 8329SOL    HW126203   2.693   6.517   5.049  0.9716  0.2172 -1.1989
 8329SOL    HW226204   2.719   6.645   4.972  0.0062  0.5751 -0.9569
 8330SOL     OW26205   3.285   6.945   5.307 -0.2436 -0.0597  0.0679
 8330SOL    HW126206   3.326   7.023   5.346 -1.3318  1.4129 -1.5602
 8330SOL    HW226207   3.204   6.933   5.356 -1.0845  1.1409 -0.9493
 8331SOL     OW26208   3.143   6.849   4.812  0.4046  0.0162  0.3077
 8331SOL    HW126209   3.195   6.799   4.750  0.5855  0.4429  0.1063
 8331SOL    HW226210   3.204   6.867   4.884  1.0953  1.9777 -0.6874
 8332SOL     OW26211   3.335   6.633   4.800  0.4895 -0.5443 -0.5045
 8332SOL    HW126212   3.393   6.571   4.844  0.6049 -1.1222 -1.4597
 8332SOL    HW226213   3.249   6.592   4.805  0.2521  0.0434  0.4012
 8333SOL     OW26214   2.560   5.524   4.733 -0.0447 -0.1480 -0.5198
 8333SOL    HW126215   2.585   5.468   4.660  0.7227 -0.2469 -0.1931
 8333SOL    HW226216   2.643   5.552   4.772 -0.4209  0.8475 -0.3926
 8334SOL     OW26217   2.935   6.553   5.079 -0.5974 -0.2227 -0.0212
 8334SOL    HW126218   2.951   6.473   5.129 -3.2546 -0.7054  0.2022
 8334SOL    HW226219   2.951   6.624   5.142 -0.6793 -0.6826  0.5223
 8335SOL     OW26220   2.643   6.387   4.301  0.0109 -0.1882 -0.0847
 8335SOL    HW126221   2.734   6.360   4.316  0.4223  0.6093 -1.0424
 8335SOL    HW226222   2.647   6.440   4.221 -1.3643 -0.5090 -0.3858
 8336SOL     OW26223   2.079   6.226   4.835  0.4152 -0.5073 -0.2309
 8336SOL    HW126224   2.059   6.136   4.812  0.6034 -0.0245 -2.5252
 8336SOL    HW226225   2.172   6.236   4.817  0.7129 -0.2146  1.3574
 8337SOL     OW26226   2.840   5.513   5.233 -0.2036 -0.2590  0.2481
 8337SOL    HW126227   2.904   5.585   5.232  0.4978 -0.8458 -1.2862
 8337SOL    HW226228   2.825   5.496   5.326  1.9723 -0.1455  0.6952
 8338SOL     OW26229   1.420   7.347   5.309  0.3163 -0.3129 -0.3227
 8338SOL    HW126230   1.333   7.351   5.268  0.5008 -2.8674 -1.1531
 8338SOL    HW226231   1.401   7.342   5.402 -0.5035 -1.6671 -0.5359
 8339SOL     OW26232   2.437   6.619   4.010  0.6151  0.1338  0.1391
 8339SOL    HW126233   2.417   6.654   4.097  1.3106  2.0937 -0.4294
 8339SOL    HW226234   2.355   6.623   3.962  0.4513  0.0065  0.4103
 8340SOL     OW26235   2.055   6.190   4.453 -0.3578 -0.1138  0.5310
 8340SOL    HW126236   2.042   6.109   4.502  0.9440  0.3297  1.6538
 8340SOL    HW226237   2.141   6.222   4.480 -0.9520  1.7948  0.3217
 8341SOL     OW26238   3.137   6.642   4.121 -0.4458 -0.1990 -0.0152
 8341SOL    HW126239   3.203   6.574   4.134  0.6252  1.0679  1.4576
 8341SOL    HW226240   3.076   6.631   4.193 -0.7277 -0.1160 -0.2390
 8342SOL     OW26241   3.110   7.126   4.814 -0.2702  0.0426  0.1141
 8342SOL    HW126242   3.137   7.035   4.819  0.1526 -0.0629 -2.6078
 8342SOL    HW226243   3.186   7.176   4.841 -0.5199 -0.3812  1.6666
 8343SOL     OW26244   3.105   6.329   4.148 -0.0746  0.2163 -0.7273
 8343SOL    HW126245   3.115   6.235   4.137 -1.8564 -0.0867 -0.1326
 8343SOL    HW226246   3.152   6.367   4.073  0.6656 -1.1260 -0.9735
 8344SOL     OW26247   1.940   6.937   4.972  0.3447 -0.1708  0.0462
 8344SOL    HW126248   1.959   6.844   4.960  1.6876  0.2890 -1.8179
 8344SOL    HW226249   1.980   6.959   5.056 -0.9679 -1.4785  1.0654
 8345SOL     OW26250   2.406   6.196   5.605  0.2342 -0.1959 -0.0807
 8345SOL    HW126251   2.361   6.267   5.560  1.2876  0.8598  0.4836
 8345SOL    HW226252   2.342   6.164   5.669  0.8320  2.5677  2.0620
 8346SOL     OW26253   3.579   6.184   5.190  0.0738 -0.0349 -0.6819
 8346SOL    HW126254   3.583   6.088   5.194 -0.8368 -0.0463  0.3217
 8346SOL    HW226255   3.532   6.210   5.269 -0.3919  1.2003 -1.3332
 8347SOL     OW26256   2.631   5.345   5.410  0.0605 -0.0564  0.7500
 8347SOL    HW126257   2.706   5.354   5.469  1.7077  0.6694 -1.3326
 8347SOL    HW226258   2.631   5.253   5.384 -0.4952 -0.3110  1.5949
 8348SOL     OW26259   2.467   5.872   5.741  0.2437  0.1396 -0.0700
 8348SOL    HW126260   2.465   5.797   5.801  0.5023 -0.4120 -0.7266
 8348SOL    HW226261   2.453   5.833   5.655 -1.4792  1.0714 -0.2443
 8349SOL     OW26262   1.919   6.593   5.112 -0.3404  0.4889  0.2696
 8349SOL    HW126263   1.990   6.657   5.116  0.6932 -0.5197 -1.0546
 8349SOL    HW226264   1.962   6.510   5.090 -1.6646 -0.6413  1.6299
 8350SOL     OW26265   3.300   6.634   5.238  0.1996 -0.2547  0.3340
 8350SOL    HW126266   3.379   6.681   5.264  0.9426 -1.2978  0.0201
 8350SOL    HW226267   3.326   6.583   5.162 -0.3022 -1.9001  1.2073
 8351SOL     OW26268   2.763   6.103   4.143  0.6549 -0.0323  0.0575
 8351SOL    HW126269   2.732   6.023   4.101  0.8954 -0.8503  1.3678
 8351SOL    HW226270   2.704   6.115   4.218  1.0571  0.6293  0.2776
 8352SOL     OW26271   1.920   5.575   5.146 -0.4742  0.0110 -0.4771
 8352SOL    HW126272   1.987   5.595   5.080  1.8476 -2.2523  1.0133
 8352SOL    HW226273   1.951   5.619   5.225 -1.2460 -0.3464  0.0313
 8353SOL     OW26274   1.715   6.650   5.284  0.0076  0.5686  0.2573
 8353SOL    HW126275   1.773   6.685   5.352  0.6918  3.0454 -1.4391
 8353SOL    HW226276   1.773   6.633   5.210 -1.0624  0.4398 -0.5726
 8354SOL     OW26277   2.334   6.321   4.753 -0.5279 -0.4371  0.1546
 8354SOL    HW126278   2.328   6.304   4.659 -0.2084 -1.2017  0.2668
 8354SOL    HW226279   2.370   6.410   4.759 -0.0665 -0.5825 -0.4416
 8355SOL     OW26280   3.471   6.298   5.398 -0.0298  0.2748  0.2675
 8355SOL    HW126281   3.460   6.363   5.328 -1.1732 -1.3046 -1.1080
 8355SOL    HW226282   3.421   6.334   5.472 -1.5481  0.5135 -0.8215
 8356SOL     OW26283   2.076   5.752   4.397  0.4335 -0.0200  0.4643
 8356SOL    HW126284   2.059   5.839   4.434 -2.0096 -1.1686  2.3496
 8356SOL    HW226285   2.026   5.751   4.315 -2.5561 -0.6871  2.1400
 8357SOL     OW26286   3.677   6.187   4.447  0.0905  0.2894 -0.6249
 8357SOL    HW126287   3.583   6.183   4.429  0.2213 -0.6554 -1.2095
 8357SOL    HW226288   3.718   6.154   4.366  0.9148  0.4992 -0.3056
 8358SOL     OW26289   2.662   5.951   4.948 -0.1654  0.1477 -0.3511
 8358SOL    HW126290   2.694   5.865   4.973  0.8787  0.6370  0.0679
 8358SOL    HW226291   2.731   5.987   4.891  0.2975  1.4147  0.9487
 8359SOL     OW26292   3.212   6.872   5.716  0.4468 -0.4136  0.2192
 8359SOL    HW126293   3.290   6.817   5.724  1.0220  0.6680  3.4238
 8359SOL    HW226294   3.233   6.951   5.765 -2.8475 -0.2956  1.6948
 8360SOL     OW26295   3.697   6.896   5.490 -0.1305 -0.6866  0.3778
 8360SOL    HW126296   3.702   6.878   5.584 -1.5619 -0.0073  0.6156
 8360SOL    HW226297   3.743   6.979   5.479  1.0643 -1.3312  0.2585
 8361SOL     OW26298   2.062   6.652   5.653 -0.4230 -0.4493  0.2267
 8361SOL    HW126299   2.105   6.721   5.703  1.7454 -1.6735  0.1893
 8361SOL    HW226300   2.044   6.693   5.568  1.7669 -0.1560 -0.1579
 8362SOL     OW26301   2.698   6.005   3.812 -0.4768 -0.0107  0.2503
 8362SOL    HW126302   2.726   5.920   3.847 -0.6456 -0.2613 -0.1999
 8362SOL    HW226303   2.779   6.049   3.787 -0.3999 -0.1504  0.2531
 8363SOL     OW26304   2.729   6.303   3.934 -0.0358  0.0437 -0.3207
 8363SOL    HW126305   2.769   6.239   3.875 -0.7429  0.0045 -0.7697
 8363SOL    HW226306   2.762   6.279   4.021  0.2464 -0.5045 -0.5753
 8364SOL     OW26307   2.870   6.748   4.869  0.2193 -0.2304  0.4700
 8364SOL    HW126308   2.921   6.686   4.921  0.4813  0.3909  0.9644
 8364SOL    HW226309   2.935   6.808   4.832 -0.0756  0.0636  0.4232
 8365SOL     OW26310   2.022   6.500   4.728  0.0887  0.3677 -0.0094
 8365SOL    HW126311   2.052   6.426   4.780  1.3219  0.6488 -0.2877
 8365SOL    HW226312   2.023   6.468   4.638  1.0985  0.8481 -0.1849
 8366SOL     OW26313   1.742   6.135   4.723 -0.2245  0.0299  0.2488
 8366SOL    HW126314   1.805   6.080   4.769 -0.1793  0.0237  0.1795
 8366SOL    HW226315   1.672   6.075   4.697 -1.2385  0.3568  2.0424
 8367SOL     OW26316   3.282   5.412   5.340  0.7074  0.4541  0.1473
 8367SOL    HW126317   3.320   5.344   5.285  2.6185  0.0945  1.7651
 8367SOL    HW226318   3.324   5.493   5.311 -0.2250  0.6693 -0.6086
 8368SOL     OW26319   3.137   5.184   4.867  0.4010  0.0763 -1.1039
 8368SOL    HW126320   3.207   5.235   4.909  0.4642 -2.0584  1.7071
 8368SOL    HW226321   3.178   5.100   4.848 -0.9860 -0.7034 -0.7557
 8369SOL     OW26322   2.368   6.403   3.735  0.0392 -0.1814 -0.4267
 8369SOL    HW126323   2.415   6.367   3.810 -0.2474  1.1224  0.4056
 8369SOL    HW226324   2.404   6.357   3.660  1.1532 -0.6931  0.3981
 8370SOL     OW26325   1.844   7.148   4.847  0.7417 -0.5304  0.5405
 8370SOL    HW126326   1.751   7.158   4.824  0.8310 -0.5156  0.1870
 8370SOL    HW226327   1.847   7.064   4.894  0.7919 -1.3137 -0.8048
 8371SOL     OW26328   2.118   6.865   4.496  0.7082 -0.1849  0.1159
 8371SOL    HW126329   2.129   6.846   4.403  1.6773  0.5696  0.0610
 8371SOL    HW226330   2.057   6.938   4.499  0.9281  0.0030  0.0496
 8372SOL     OW26331   2.498   6.155   4.981 -0.0850 -0.5477 -0.3267
 8372SOL    HW126332   2.439   6.156   4.905 -2.4396 -1.8488  1.3332
 8372SOL    HW226333   2.539   6.068   4.978 -0.3938 -0.7070  0.0235
 8373SOL     OW26334   1.750   6.375   4.551  0.2890  0.1452  0.1900
 8373SOL    HW126335   1.797   6.317   4.610  1.6578  0.2128 -0.7711
 8373SOL    HW226336   1.686   6.319   4.508  0.3802 -0.2545  0.5660
 8374SOL     OW26337   2.037   6.280   5.872 -0.0307 -0.1421  0.2493
 8374SOL    HW126338   2.126   6.310   5.889 -0.1297  0.4821 -0.2880
 8374SOL    HW226339   2.019   6.307   5.781 -1.1653  0.7610  0.7081
 8375SOL     OW26340   3.220   6.136   5.294  0.2408 -0.0174  0.2155
 8375SOL    HW126341   3.222   6.162   5.202  0.5508  0.6342  0.3932
 8375SOL    HW226342   3.180   6.211   5.339 -1.4000 -0.9668  0.4322
 8376SOL     OW26343   2.142   6.056   3.880 -0.3983  0.0551  0.5837
 8376SOL    HW126344   2.214   6.010   3.924  0.1912  1.3592  1.0459
 8376SOL    HW226345   2.063   6.011   3.911  0.1701 -1.1519  0.3715
 8377SOL     OW26346   3.206   6.476   4.396  0.5900  0.3024 -0.2107
 8377SOL    HW126347   3.272   6.505   4.333 -0.4277  0.9808 -1.0136
 8377SOL    HW226348   3.163   6.403   4.352 -0.1765  0.8257 -0.3452
 8378SOL     OW26349   1.496   6.804   5.347 -0.8132  0.0848 -0.0221
 8378SOL    HW126350   1.576   6.768   5.308 -0.5162  2.3361 -1.6939
 8378SOL    HW226351   1.430   6.736   5.332 -0.0990 -0.2067 -2.2191
 8379SOL     OW26352   2.020   6.024   5.091  0.2432 -0.1023  0.6550
 8379SOL    HW126353   2.068   6.010   5.173 -0.2910 -0.8553  0.8591
 8379SOL    HW226354   1.949   6.082   5.115  1.9671  2.4296 -0.0097
 8380SOL     OW26355   2.377   6.441   5.124  0.1827 -0.1869 -0.6036
 8380SOL    HW126356   2.407   6.351   5.120  1.9592  0.3179  0.2878
 8380SOL    HW226357   2.437   6.489   5.066 -0.2167  0.5427 -0.4264
 8381SOL     OW26358   2.161   5.947   3.588  0.0983 -0.3850 -0.4374
 8381SOL    HW126359   2.144   5.994   3.670  1.3797 -0.3426 -0.1716
 8381SOL    HW226360   2.076   5.912   3.563 -0.4247  0.0511  0.6322
 8382SOL     OW26361   1.842   6.669   4.840 -0.0040  0.0841  0.1862
 8382SOL    HW126362   1.843   6.645   4.933  3.1133 -0.3870  0.1513
 8382SOL    HW226363   1.919   6.626   4.803 -0.1580  1.6673 -2.2547
 8383SOL     OW26364   3.403   7.031   4.672 -0.1008  0.6657 -0.4698
 8383SOL    HW126365   3.404   6.954   4.615  0.8598  0.6575 -0.4685
 8383SOL    HW226366   3.325   7.080   4.646 -0.7757 -0.3611 -0.3931
 8384SOL     OW26367   3.349   6.268   3.974 -0.2106 -0.2793 -0.1032
 8384SOL    HW126368   3.323   6.176   3.968  1.0319 -0.5373 -2.6381
 8384SOL    HW226369   3.439   6.270   3.943 -0.6942  1.9909 -1.5634
 8385SOL     OW26370   3.590   7.240   4.743  0.1850  0.3034 -0.1181
 8385SOL    HW126371   3.514   7.189   4.716 -0.7264  1.2377  0.5973
 8385SOL    HW226372   3.663   7.178   4.739 -0.5622 -0.5554 -1.0208
 8386SOL     OW26373   2.629   6.782   4.761  0.3833 -0.0803  0.3390
 8386SOL    HW126374   2.654   6.754   4.673 -0.3778  2.6998 -0.8482
 8386SOL    HW226375   2.712   6.792   4.808  1.0076  1.1911 -0.9840
 8387SOL     OW26376   1.600   6.966   4.770 -0.0296 -0.6746 -0.2629
 8387SOL    HW126377   1.662   6.928   4.707  1.1540  0.0247  0.4503
 8387SOL    HW226378   1.524   6.908   4.766 -0.6052  0.1167 -3.3729
 8388SOL     OW26379   2.247   7.238   6.015  0.0885 -0.4025  0.3444
 8388SOL    HW126380   2.181   7.281   5.961 -0.4365  1.0650  2.0516
 8388SOL    HW226381   2.325   7.233   5.959 -0.4417  1.0009 -0.5579
 8389SOL     OW26382   3.901   5.752   4.483  0.8451 -0.1768 -0.1505
 8389SOL    HW126383   3.868   5.698   4.555  0.6533 -0.9195 -0.7841
 8389SOL    HW226384   3.937   5.830   4.526  1.7834 -1.1242  0.8563
 8390SOL     OW26385   3.157   6.914   4.128 -0.2800 -0.0575 -0.0353
 8390SOL    HW126386   3.159   6.818   4.125 -1.4578 -0.0843 -0.7520
 8390SOL    HW226387   3.169   6.941   4.037  0.5239  0.5010  0.2310
 8391SOL     OW26388   2.133   7.101   5.648 -0.4531  0.0314 -0.5377
 8391SOL    HW126389   2.086   7.114   5.565 -0.5188 -0.4231 -0.5742
 8391SOL    HW226390   2.193   7.175   5.653 -0.4316  0.0522 -1.0088
 8392SOL     OW26391   2.867   6.421   4.643 -0.3930  0.0868  0.4445
 8392SOL    HW126392   2.804   6.374   4.698 -1.9436 -0.4734 -1.6759
 8392SOL    HW226393   2.815   6.491   4.603  1.5182  2.7549  2.3342
 8393SOL     OW26394   2.158   6.738   5.016  0.4393  0.4414 -0.0561
 8393SOL    HW126395   2.248   6.721   5.041  0.2426 -0.2005  0.2297
 8393SOL    HW226396   2.160   6.739   4.920  0.7430  0.3866 -0.0517
 8394SOL     OW26397   2.441   7.128   3.842 -0.5076 -0.2323 -0.2454
 8394SOL    HW126398   2.480   7.135   3.755 -0.0690  0.8454  0.0277
 8394SOL    HW226399   2.364   7.072   3.829 -0.4950 -0.0168 -1.3385
 8395SOL     OW26400   3.297   7.269   4.947  0.5177  0.4980  0.1738
 8395SOL    HW126401   3.390   7.259   4.965  0.6038  1.9650  0.5862
 8395SOL    HW226402   3.259   7.298   5.030  0.0757  2.1590 -0.5822
 8396SOL     OW26403   3.827   5.581   4.655 -0.3239 -0.3391  0.1047
 8396SOL    HW126404   3.750   5.525   4.661 -0.1665 -0.4814  0.9336
 8396SOL    HW226405   3.901   5.522   4.669 -0.0707 -0.1570 -0.4164
 8397SOL     OW26406   1.898   5.989   3.988 -0.2450  0.0194 -0.1459
 8397SOL    HW126407   1.889   5.900   4.023 -2.3501 -0.2026 -1.0815
 8397SOL    HW226408   1.865   6.046   4.058 -0.1151 -0.0458 -0.0319
 8398SOL     OW26409   3.164   6.744   3.386  0.6670  0.0315  0.0700
 8398SOL    HW126410   3.184   6.735   3.479  0.3510 -1.6976  0.0094
 8398SOL    HW226411   3.171   6.655   3.351  1.6463  0.7813 -1.7575
 8399SOL     OW26412   2.710   7.105   4.961  0.3997  0.1874 -0.2750
 8399SOL    HW126413   2.754   7.110   4.876  0.1137  0.6248 -0.3972
 8399SOL    HW226414   2.696   7.196   4.987  1.2084  0.0715  0.6241
 8400SOL     OW26415   2.863   6.544   3.896 -0.6895  0.2161  0.2685
 8400SOL    HW126416   2.831   6.454   3.906  1.7365 -0.7918 -0.2757
 8400SOL    HW226417   2.953   6.534   3.867 -0.5003  2.8675 -0.3017
 8401SOL     OW26418   3.012   7.366   3.670 -0.3815  1.0906  0.4734
 8401SOL    HW126419   3.055   7.353   3.585 -0.0264 -0.8680  0.8923
 8401SOL    HW226420   2.925   7.328   3.657 -0.2070  0.4732  1.0562
 8402SOL     OW26421   2.141   6.871   4.222 -0.6637 -0.7637 -0.5087
 8402SOL    HW126422   2.085   6.827   4.158 -0.8858  1.3982 -1.9376
 8402SOL    HW226423   2.216   6.902   4.170 -0.2927  0.0839  0.4989
 8403SOL     OW26424   3.564   7.207   5.070  0.3238  0.7969 -0.3693
 8403SOL    HW126425   3.623   7.204   5.145 -0.2000  1.0421  0.0577
 8403SOL    HW226426   3.569   7.120   5.032 -0.8381  0.0668  1.0658
 8404SOL     OW26427   2.636   6.549   4.543  0.1791 -0.2075 -0.2608
 8404SOL    HW126428   2.604   6.518   4.458 -1.5785  1.2581 -0.1975
 8404SOL    HW226429   2.577   6.509   4.607  0.2574  0.2453  0.1011
 8405SOL     OW26430   2.721   5.919   4.469  0.4762  0.0669 -0.6677
 8405SOL    HW126431   2.664   5.941   4.543  0.7557  2.1698 -1.0225
 8405SOL    HW226432   2.662   5.876   4.406 -0.1054 -0.2843  0.1011
 8406SOL     OW26433   2.361   6.916   4.065  0.2423  0.5844 -0.1397
 8406SOL    HW126434   2.422   6.846   4.041 -0.0195  0.5307 -0.6495
 8406SOL    HW226435   2.318   6.941   3.983  0.7039  1.7105 -0.0565
 8407SOL     OW26436   3.600   5.872   4.931 -0.2234 -0.0290 -0.0428
 8407SOL    HW126437   3.681   5.829   4.904 -1.2329 -0.6564 -2.2918
 8407SOL    HW226438   3.618   5.902   5.020  2.1733 -0.8788 -0.1570
 8408SOL     OW26439   2.212   6.606   3.844 -0.5617 -0.5469  0.5139
 8408SOL    HW126440   2.257   6.526   3.815 -1.5539 -0.8579 -0.2367
 8408SOL    HW226441   2.161   6.633   3.768  0.5723  1.4363  0.3744
 8409SOL     OW26442   2.106   6.365   5.109 -0.2272 -0.1056 -0.2259
 8409SOL    HW126443   2.190   6.410   5.108 -0.5861  0.5894  0.1670
 8409SOL    HW226444   2.120   6.287   5.056  1.1622 -0.9001  1.2036
 8410SOL     OW26445   2.772   5.710   5.043  0.2177 -0.4520 -0.4041
 8410SOL    HW126446   2.775   5.640   5.109  2.7145 -0.0288  0.0054
 8410SOL    HW226447   2.798   5.667   4.962  1.2252 -0.1417 -0.2580
 8411SOL     OW26448   1.585   6.065   3.331 -0.0790  0.0452 -0.0494
 8411SOL    HW126449   1.638   6.143   3.315  0.6154 -0.6790 -1.4139
 8411SOL    HW226450   1.623   5.998   3.275 -0.3821 -1.4208  1.4104
 8412SOL     OW26451   3.578   6.675   5.076 -0.1348  0.2681 -0.0886
 8412SOL    HW126452   3.551   6.584   5.091  1.2696 -0.2252 -0.4053
 8412SOL    HW226453   3.649   6.690   5.138  1.8737  0.0346 -2.1730
 8413SOL     OW26454   1.696   5.457   4.115  0.0110  0.5965  0.1205
 8413SOL    HW126455   1.781   5.422   4.087 -0.3479  0.5245 -0.9453
 8413SOL    HW226456   1.632   5.414   4.057 -1.0707 -1.3756  2.5957
 8414SOL     OW26457   2.723   7.030   3.670 -0.2827  0.1001 -0.0173
 8414SOL    HW126458   2.679   6.969   3.728 -0.8036  2.0579  1.7802
 8414SOL    HW226459   2.789   6.977   3.625 -0.2634 -1.6615  1.9210
 8415SOL     OW26460   2.247   6.365   5.408  0.0549 -0.1282 -1.0454
 8415SOL    HW126461   2.254   6.450   5.364 -1.2672  0.2942 -0.4983
 8415SOL    HW226462   2.253   6.300   5.338  1.5425  0.3712 -1.4193
 8416SOL     OW26463   3.290   7.254   4.440  0.4802 -0.1918  0.3137
 8416SOL    HW126464   3.265   7.312   4.512 -0.6315  1.3884 -1.2836
 8416SOL    HW226465   3.356   7.303   4.392  0.1673 -0.6128 -0.5627
 8417SOL     OW26466   2.416   5.969   5.418  0.2578 -0.1537  0.1371
 8417SOL    HW126467   2.427   6.036   5.486  1.2103 -0.7748  0.6278
 8417SOL    HW226468   2.497   5.918   5.422 -0.0376 -0.7249 -0.8987
 8418SOL     OW26469   3.529   6.778   5.338 -0.1094 -0.1196  0.1614
 8418SOL    HW126470   3.471   6.854   5.333 -0.4998 -0.4062  0.2706
 8418SOL    HW226471   3.595   6.803   5.403  1.1446  1.0343 -1.4885
 8419SOL     OW26472   2.120   7.216   4.937  0.2844 -0.0622 -0.1000
 8419SOL    HW126473   2.052   7.151   4.921  1.3509 -1.2211 -0.0638
 8419SOL    HW226474   2.121   7.228   5.032 -0.1674  0.3145 -0.1362
 8420SOL     OW26475   3.504   6.421   5.094 -0.2982  0.1675  0.3719
 8420SOL    HW126476   3.443   6.407   5.022 -0.1631  0.4446  0.2027
 8420SOL    HW226477   3.540   6.334   5.112 -2.4771 -0.4903  2.0540
 8421SOL     OW26478   3.060   6.055   4.054  0.1827  0.5758 -0.6306
 8421SOL    HW126479   3.085   5.964   4.035  0.0955  0.3163  0.3894
 8421SOL    HW226480   2.977   6.047   4.101 -0.9711  1.3362 -2.4529
 8422SOL     OW26481   2.096   6.267   3.723  0.0879  0.1359  0.3249
 8422SOL    HW126482   2.174   6.322   3.723  0.5124 -0.4476 -0.3233
 8422SOL    HW226483   2.115   6.198   3.787  0.5462 -0.5870 -0.5604
 8423SOL     OW26484   3.004   5.725   5.296  1.1808 -0.1669 -0.4283
 8423SOL    HW126485   3.093   5.709   5.326  1.3737  1.9249  0.2533
 8423SOL    HW226486   2.985   5.814   5.324 -0.2402  0.3269 -2.7234
 8424SOL     OW26487   4.049   6.177   5.067 -0.0943  0.4151  0.4917
 8424SOL    HW126488   4.087   6.111   5.125 -0.0713  1.3710  1.5922
 8424SOL    HW226489   4.089   6.159   4.982  1.1434  0.0087  1.1284
 8425SOL     OW26490   2.869   6.831   4.087  0.1404  0.1778  0.3781
 8425SOL    HW126491   2.899   6.744   4.115  0.2427  0.3473  0.8031
 8425SOL    HW226492   2.933   6.858   4.021  1.6273  1.0047  2.0539
 8426SOL     OW26493   2.346   7.065   4.495  0.3240 -0.2156 -0.4236
 8426SOL    HW126494   2.296   6.984   4.480  0.4723 -0.3168 -0.3814
 8426SOL    HW226495   2.378   7.056   4.585 -0.6869  0.4524  0.0283
 8427SOL     OW26496   2.552   6.140   4.353  0.9716 -0.2660  0.5984
 8427SOL    HW126497   2.596   6.221   4.328  1.8411 -0.5227  1.2606
 8427SOL    HW226498   2.576   6.127   4.445  0.2485 -0.8936  0.7107
 8428SOL     OW26499   2.893   6.321   3.372 -0.0193  0.6884 -0.3428
 8428SOL    HW126500   2.954   6.267   3.422  0.9283  1.6331 -0.4427
 8428SOL    HW226501   2.809   6.310   3.416 -0.1479 -1.7972 -1.0577
 8429SOL     OW26502   3.693   7.004   4.546 -0.6621  0.3445 -0.4488
 8429SOL    HW126503   3.612   6.954   4.548 -0.7774  0.5329 -0.3901
 8429SOL    HW226504   3.705   7.034   4.636 -0.6717  0.5460 -0.5134
 8430SOL     OW26505   2.043   6.970   5.224 -0.2390 -0.9488 -0.4152
 8430SOL    HW126506   2.008   7.055   5.252 -1.2819 -0.9385 -1.6610
 8430SOL    HW226507   2.131   6.989   5.191  0.4556 -0.7433  1.4173
 8431SOL     OW26508   1.888   6.473   4.024 -0.0678  0.1983  0.0656
 8431SOL    HW126509   1.942   6.450   4.099  0.1167  0.1764 -0.0705
 8431SOL    HW226510   1.813   6.414   4.028  0.7115 -0.8789 -0.6383
 8432SOL     OW26511   2.670   6.687   5.480  0.3012  0.2534  0.0078
 8432SOL    HW126512   2.723   6.753   5.436 -1.6060  1.2177 -0.9632
 8432SOL    HW226513   2.600   6.736   5.522 -1.0456 -1.0893 -0.5555
 8433SOL     OW26514   3.847   5.749   4.872  0.2145  1.2432  0.3032
 8433SOL    HW126515   3.874   5.689   4.941 -1.0107  2.2974  1.7711
 8433SOL    HW226516   3.846   5.696   4.792  0.6687 -0.2749  1.2765
 8434SOL     OW26517   1.454   5.606   3.514 -0.5029 -0.6463 -0.1963
 8434SOL    HW126518   1.445   5.543   3.442 -1.6767  0.0508 -0.6828
 8434SOL    HW226519   1.546   5.599   3.539 -0.5251 -2.3401 -0.4253
 8435SOL     OW26520   3.785   7.061   4.792  0.1299 -0.2370  0.5945
 8435SOL    HW126521   3.877   7.058   4.818  0.0312  1.6569  1.3208
 8435SOL    HW226522   3.741   7.005   4.856  0.7812 -1.4077  0.0567
 8436SOL     OW26523   1.856   5.945   4.854  0.1128  0.1299  0.3634
 8436SOL    HW126524   1.910   5.941   4.933  0.2956  1.4805  0.3294
 8436SOL    HW226525   1.819   5.857   4.846  0.6815 -0.2394  1.5298
 8437SOL     OW26526   2.376   6.687   4.264 -0.1054 -0.0086  0.5573
 8437SOL    HW126527   2.298   6.719   4.308  0.5405  1.1664  0.9026
 8437SOL    HW226528   2.446   6.744   4.296  0.8152 -0.7548 -0.0752
 8438SOL     OW26529   3.032   5.733   4.677  0.2036  0.2161 -0.1972
 8438SOL    HW126530   3.091   5.807   4.694  0.7056 -0.3742  0.7034
 8438SOL    HW226531   3.089   5.656   4.678 -0.6004 -0.3852  0.8164
 8439SOL     OW26532   2.809   5.601   4.782  0.3161  0.3019  0.4961
 8439SOL    HW126533   2.872   5.529   4.793 -1.9415 -2.0883 -0.9961
 8439SOL    HW226534   2.863   5.676   4.758  2.9342 -0.4485  3.3860
 8440SOL     OW26535   2.888   6.310   4.394  0.1963 -0.0083 -0.4684
 8440SOL    HW126536   2.883   6.327   4.488 -1.2787 -1.5124 -0.2355
 8440SOL    HW226537   2.979   6.286   4.379  0.0411 -1.7102  0.9726
 8441SOL     OW26538   2.538   7.301   5.188 -0.0735 -0.5744  0.1207
 8441SOL    HW126539   2.490   7.298   5.271  1.3323  0.8465  1.0462
 8441SOL    HW226540   2.480   7.350   5.129  0.9395  3.0709  1.8549
 8442SOL     OW26541   2.876   5.730   4.179  0.0932 -0.8554  0.2810
 8442SOL    HW126542   2.853   5.671   4.251  1.6793 -0.3494  1.2627
 8442SOL    HW226543   2.883   5.817   4.220 -0.8822 -0.1903 -0.8778
 8443SOL     OW26544   3.126   6.155   4.440  0.8131  0.0444 -0.5729
 8443SOL    HW126545   3.154   6.196   4.521  1.2292 -1.4928  0.0955
 8443SOL    HW226546   3.206   6.118   4.402  0.6962  1.0891 -1.9118
 8444SOL     OW26547   3.171   5.694   4.989  0.5321  0.0900 -0.4365
 8444SOL    HW126548   3.089   5.741   5.002  0.4541 -0.1730  0.0129
 8444SOL    HW226549   3.223   5.752   4.933  0.8475  1.2004  0.9437
 8445SOL     OW26550   1.794   6.651   3.843  0.0442 -0.1053  0.1531
 8445SOL    HW126551   1.812   6.580   3.905  1.8253  0.3352  0.1958
 8445SOL    HW226552   1.822   6.616   3.758  1.3565  0.6759  0.2425
 8446SOL     OW26553   2.900   7.219   3.982  0.3357 -0.1328 -0.3535
 8446SOL    HW126554   2.805   7.213   3.987  0.3980  0.0283  3.5937
 8446SOL    HW226555   2.917   7.312   3.965 -0.1516 -0.1560 -1.0383
 8447SOL     OW26556   1.671   6.404   5.401 -0.2190 -0.2985 -0.3167
 8447SOL    HW126557   1.689   6.495   5.374 -0.4244 -0.0731  0.2896
 8447SOL    HW226558   1.676   6.407   5.497  1.7790 -1.3345 -0.3308
 8448SOL     OW26559   1.874   5.817   6.628 -0.0504 -0.2801  0.3933
 8448SOL    HW126560   1.901   5.794   6.717 -1.3770  0.1130  0.9297
 8448SOL    HW226561   1.793   5.767   6.615  0.9075 -1.4929 -1.1744
 8449SOL     OW26562   1.696   5.899   6.327 -0.4571  0.5139 -0.3420
 8449SOL    HW126563   1.629   5.849   6.374  0.0144 -0.7364 -0.9420
 8449SOL    HW226564   1.777   5.851   6.342 -0.2789  0.1119 -2.3278
 8450SOL     OW26565   2.486   6.546   6.222 -0.0732 -0.1139 -0.1403
 8450SOL    HW126566   2.467   6.639   6.225 -3.2560 -0.5770 -1.7837
 8450SOL    HW226567   2.559   6.538   6.161  1.9023  1.3696  1.8465
 8451SOL     OW26568   4.009   6.803   5.825 -0.1327  0.2367 -0.2004
 8451SOL    HW126569   4.000   6.724   5.878  0.8990  0.4545  0.3125
 8451SOL    HW226570   4.023   6.874   5.888  1.5807  0.4309 -0.7452
 8452SOL     OW26571   2.967   6.192   6.015 -0.1205  0.4936  0.2579
 8452SOL    HW126572   2.987   6.100   6.003 -1.2345  0.4352 -1.5467
 8452SOL    HW226573   2.898   6.193   6.082 -0.1559  0.0085  0.2291
 8453SOL     OW26574   3.490   6.162   5.732 -0.1040 -0.2852 -0.1429
 8453SOL    HW126575   3.539   6.131   5.808 -0.5932 -1.4689 -0.2843
 8453SOL    HW226576   3.465   6.082   5.685  1.6642  0.4365 -2.5196
 8454SOL     OW26577   2.528   6.575   6.533 -0.1462 -0.4969 -0.0926
 8454SOL    HW126578   2.556   6.638   6.467  0.8113  0.4748  1.1987
 8454SOL    HW226579   2.454   6.618   6.576 -0.1024 -0.6694  0.1541
 8455SOL     OW26580   3.005   6.094   7.380 -0.4499  0.4088 -0.2466
 8455SOL    HW126581   3.085   6.054   7.414  0.1657  2.2079  0.5211
 8455SOL    HW226582   2.940   6.023   7.382  0.8447 -0.8172  0.0477
 8456SOL     OW26583   2.518   6.382   5.852 -0.0018 -0.0883 -0.0113
 8456SOL    HW126584   2.611   6.357   5.857  0.0634 -0.2393 -1.5923
 8456SOL    HW226585   2.514   6.448   5.783 -1.0923 -0.1581 -0.0317
 8457SOL     OW26586   2.769   6.712   7.545  0.6490 -0.2203 -0.6584
 8457SOL    HW126587   2.807   6.714   7.458  0.2179  0.4598 -0.8471
 8457SOL    HW226588   2.678   6.741   7.532  1.1694  2.0340  0.2779
 8458SOL     OW26589   1.934   6.978   6.400 -0.6209 -0.1633  0.0523
 8458SOL    HW126590   2.025   6.949   6.387 -1.3164 -2.2501 -0.4682
 8458SOL    HW226591   1.909   6.939   6.484 -0.7467  1.2894  0.7262
 8459SOL     OW26592   3.545   6.994   6.977 -0.0495 -0.0927  0.7251
 8459SOL    HW126593   3.551   6.957   7.066  2.2745  0.5854  0.9062
 8459SOL    HW226594   3.565   7.086   6.988 -0.7343  0.2075 -0.4120
 8460SOL     OW26595   2.165   5.506   7.086  0.2015  0.4526  0.2323
 8460SOL    HW126596   2.207   5.499   7.172 -1.5288  1.6726  1.2464
 8460SOL    HW226597   2.072   5.522   7.107 -0.3125  0.4555 -1.8786
 8461SOL     OW26598   3.743   5.807   5.832 -0.4435  0.0873 -0.1435
 8461SOL    HW126599   3.801   5.830   5.759 -1.8744  1.8245 -0.7915
 8461SOL    HW226600   3.755   5.712   5.842  2.5741  0.3728 -0.1407
 8462SOL     OW26601   2.040   7.048   6.024  0.2028  0.0524  0.2836
 8462SOL    HW126602   2.113   7.105   6.050 -0.6772  0.9199  0.9366
 8462SOL    HW226603   1.962   7.098   6.048 -0.6251 -0.5123 -1.1281
 8463SOL     OW26604   3.167   6.769   7.293  0.0668 -0.0038  0.7195
 8463SOL    HW126605   3.170   6.711   7.369  1.1062  0.3831  0.9967
 8463SOL    HW226606   3.259   6.777   7.265 -0.1974  0.5673 -0.0244
 8464SOL     OW26607   2.055   6.805   6.148  0.8029  0.2353 -0.0975
 8464SOL    HW126608   2.049   6.865   6.074 -1.7046  0.1880 -0.0190
 8464SOL    HW226609   2.109   6.850   6.213 -0.1085  1.9284 -0.4799
 8465SOL     OW26610   2.232   6.469   6.633 -0.1279  0.0716 -0.2055
 8465SOL    HW126611   2.271   6.382   6.644 -0.3827  0.2455  3.7406
 8465SOL    HW226612   2.258   6.496   6.546  4.7678 -1.7268  0.3770
 8466SOL     OW26613   2.606   7.280   6.780  0.2659 -0.5622 -0.0054
 8466SOL    HW126614   2.660   7.327   6.843  1.0420  0.7908 -1.5786
 8466SOL    HW226615   2.592   7.194   6.819  0.1637  0.4271  2.2621
 8467SOL     OW26616   2.235   6.676   5.355 -0.5895  0.1552 -0.0569
 8467SOL    HW126617   2.155   6.711   5.395 -0.0986  1.8321 -0.4626
 8467SOL    HW226618   2.217   6.678   5.261 -0.3123 -0.1043 -0.1165
 8468SOL     OW26619   3.472   6.082   7.080  0.7177  0.2985 -0.5381
 8468SOL    HW126620   3.485   5.996   7.039  1.5113  0.6576 -1.0668
 8468SOL    HW226621   3.452   6.140   7.006  1.2552  0.7745 -0.3114
 8469SOL     OW26622   1.918   6.149   6.540  0.7183  0.0247 -0.0963
 8469SOL    HW126623   1.961   6.066   6.519  0.2934 -0.7306  1.7538
 8469SOL    HW226624   1.960   6.177   6.622 -0.0539  0.9463 -0.0021
 8470SOL     OW26625   3.881   7.094   5.507  0.5516 -0.3717 -0.0949
 8470SOL    HW126626   3.941   7.030   5.546  0.2443 -0.5780  0.0351
 8470SOL    HW226627   3.860   7.153   5.579  0.5453 -0.3364 -0.1255
 8471SOL     OW26628   1.395   7.358   5.620 -0.5605 -0.0865  0.0777
 8471SOL    HW126629   1.330   7.294   5.591  0.7202 -1.7455  0.6798
 8471SOL    HW226630   1.355   7.399   5.697 -2.4433  1.7319 -1.7455
 8472SOL     OW26631   3.327   6.447   6.649  0.2191 -0.6799 -0.2996
 8472SOL    HW126632   3.360   6.364   6.615  0.8343 -0.9960  0.9942
 8472SOL    HW226633   3.309   6.500   6.571  0.0049 -1.9447 -1.1375
 8473SOL     OW26634   3.253   6.657   5.902  0.2055 -0.0547 -0.0836
 8473SOL    HW126635   3.302   6.636   5.982 -1.7517 -0.4365  1.0791
 8473SOL    HW226636   3.188   6.586   5.895 -2.1190  1.9324  0.1163
 8474SOL     OW26637   1.851   6.123   7.511  0.7468 -0.2065 -0.2997
 8474SOL    HW126638   1.827   6.042   7.557 -0.9516  0.2967 -0.2262
 8474SOL    HW226639   1.838   6.102   7.418  2.0042 -0.5359 -0.4130
 8475SOL     OW26640   2.507   6.741   5.940  0.6248  0.4123 -0.5680
 8475SOL    HW126641   2.466   6.820   5.904 -0.7234 -0.3992 -0.8547
 8475SOL    HW226642   2.480   6.670   5.882  0.4880 -0.5253  0.6048
 8476SOL     OW26643   3.156   6.571   7.486  0.1807  0.3921 -0.3723
 8476SOL    HW126644   3.096   6.575   7.560  0.5521 -1.6734  0.0883
 8476SOL    HW226645   3.212   6.495   7.503  0.9562  0.4575 -2.2718
 8477SOL     OW26646   2.278   5.261   6.262 -0.0020 -0.6480 -0.0032
 8477SOL    HW126647   2.346   5.329   6.256 -0.5413 -0.0396  0.6040
 8477SOL    HW226648   2.327   5.180   6.278  0.5330 -0.0009  1.8964
 8478SOL     OW26649   1.867   6.642   6.850  0.2136  0.3871 -0.0369
 8478SOL    HW126650   1.927   6.638   6.776  0.1411 -0.4092 -0.0613
 8478SOL    HW226651   1.797   6.580   6.828  0.2203  0.0939  0.7174
 8479SOL     OW26652   3.453   6.731   5.747 -0.1791 -0.9729  0.4073
 8479SOL    HW126653   3.540   6.693   5.757  0.9273  1.5005  0.7736
 8479SOL    HW226654   3.401   6.691   5.816  0.1468 -3.7135 -0.8125
 8480SOL     OW26655   3.132   7.853   7.150  0.0074  0.3502 -0.6202
 8480SOL    HW126656   3.057   7.794   7.158 -0.7563  1.5133  2.2807
 8480SOL    HW226657   3.110   7.911   7.078 -1.6641  0.3291 -0.1585
 8481SOL     OW26658   2.089   5.570   7.415  0.2347 -0.3543  0.8860
 8481SOL    HW126659   2.023   5.630   7.381 -0.1116  0.5787  3.0348
 8481SOL    HW226660   2.041   5.490   7.435  0.2654 -0.5783  0.0823
 8482SOL     OW26661   3.354   7.003   6.473  0.1601 -0.1572 -1.1742
 8482SOL    HW126662   3.326   6.914   6.451 -0.8721 -1.1136  3.1145
 8482SOL    HW226663   3.272   7.052   6.483  0.4208 -0.0639  0.9953
 8483SOL     OW26664   3.537   6.995   5.803  0.2907 -0.5281 -0.2211
 8483SOL    HW126665   3.539   6.984   5.898  0.6693 -1.9341 -0.3556
 8483SOL    HW226666   3.537   6.905   5.769  1.2007 -0.0563 -1.5605
 8484SOL     OW26667   2.138   6.470   6.175 -0.3521  0.0115 -0.0960
 8484SOL    HW126668   2.183   6.423   6.105 -1.3632 -0.2002 -0.6238
 8484SOL    HW226669   2.067   6.517   6.131  0.2907  1.5937  0.5009
 8485SOL     OW26670   3.080   5.926   5.995 -0.4996  0.1314  0.0756
 8485SOL    HW126671   3.068   5.883   6.080 -2.1189  0.3116 -0.0273
 8485SOL    HW226672   3.016   5.883   5.937  1.7449 -1.2004 -1.5613
 8486SOL     OW26673   3.303   7.111   5.862  0.1514  0.0898 -0.3757
 8486SOL    HW126674   3.320   7.149   5.948  0.4379  0.0005 -0.3918
 8486SOL    HW226675   3.389   7.081   5.831  0.0833  0.2902 -0.7730
 8487SOL     OW26676   2.384   5.902   7.040  0.0886 -0.4125 -0.0444
 8487SOL    HW126677   2.460   5.959   7.051 -0.2647  0.0719 -0.0712
 8487SOL    HW226678   2.362   5.874   7.129 -0.2178  0.1407  0.0624
 8488SOL     OW26679   3.265   5.854   7.200  0.1422  0.3919  0.1762
 8488SOL    HW126680   3.343   5.838   7.147 -0.4802 -2.7025  0.0169
 8488SOL    HW226681   3.299   5.864   7.289  0.7414 -3.5025  0.5614
 8489SOL     OW26682   3.010   6.289   7.203  0.1564 -0.1548 -0.0881
 8489SOL    HW126683   3.064   6.234   7.146 -0.0125 -0.2095 -0.1969
 8489SOL    HW226684   2.996   6.235   7.282 -1.4322 -0.9771 -0.8784
 8490SOL     OW26685   2.644   5.797   6.786 -0.2993  0.3181  0.3955
 8490SOL    HW126686   2.677   5.736   6.720 -1.4507 -0.1507  0.2281
 8490SOL    HW226687   2.649   5.750   6.869 -1.8872 -0.3379  0.1670
 8491SOL     OW26688   2.886   6.413   5.876 -0.4746  0.1028  0.0192
 8491SOL    HW126689   2.927   6.334   5.911  0.3643 -0.1516 -1.4308
 8491SOL    HW226690   2.953   6.452   5.819 -0.9751  1.7121  0.4626
 8492SOL     OW26691   2.154   6.888   6.750  0.0253 -1.1174 -0.3571
 8492SOL    HW126692   2.151   6.839   6.833 -1.1131  0.5506  0.6431
 8492SOL    HW226693   2.122   6.975   6.773  2.2940  0.2586 -1.9704
 8493SOL     OW26694   2.262   7.244   7.282 -0.4742 -0.3218  0.5508
 8493SOL    HW126695   2.238   7.320   7.230  0.3551 -0.6062 -0.2725
 8493SOL    HW226696   2.180   7.198   7.298 -0.7103 -0.4148 -0.8221
 8494SOL     OW26697   2.305   5.686   5.919 -0.0522 -0.5242  0.4013
 8494SOL    HW126698   2.226   5.674   5.866 -0.8192  1.4957  0.9786
 8494SOL    HW226699   2.284   5.760   5.976  2.8057  1.1447 -0.5126
 8495SOL     OW26700   3.907   6.091   7.871 -0.1380 -0.1827 -0.0285
 8495SOL    HW126701   3.990   6.049   7.850 -1.9424 -3.3256 -1.5533
 8495SOL    HW226702   3.858   6.091   7.788 -1.7470  1.4657  0.8313
 8496SOL     OW26703   3.412   6.542   6.134  0.2001  0.0064  0.2500
 8496SOL    HW126704   3.454   6.487   6.067  1.0716  0.3114  0.5267
 8496SOL    HW226705   3.361   6.482   6.187  0.6044 -0.4405  0.1377
 8497SOL     OW26706   2.292   5.584   6.454 -0.2137  0.3932 -0.4738
 8497SOL    HW126707   2.340   5.590   6.371 -0.0842  2.5893 -0.2911
 8497SOL    HW226708   2.278   5.675   6.481 -1.4343 -0.2477  1.2516
 8498SOL     OW26709   3.048   6.757   6.169 -0.0420  0.0622  0.2998
 8498SOL    HW126710   3.046   6.784   6.077  2.1333 -0.0164  0.1852
 8498SOL    HW226711   3.006   6.671   6.170  1.4959 -0.7511 -0.9657
 8499SOL     OW26712   2.412   7.124   6.425 -0.2279 -0.3703  0.4513
 8499SOL    HW126713   2.476   7.120   6.353  1.8469  0.7671  2.1297
 8499SOL    HW226714   2.431   7.046   6.477 -0.4987 -0.2374  0.7439
 8500SOL     OW26715   3.299   6.644   6.840  0.1714 -0.4359  0.2160
 8500SOL    HW126716   3.350   6.711   6.795  1.4714 -1.3417  0.2926
 8500SOL    HW226717   3.312   6.565   6.787 -2.0636 -0.4551 -0.3926
 8501SOL     OW26718   3.372   7.332   7.200 -0.0996  0.3788 -0.6734
 8501SOL    HW126719   3.310   7.394   7.238  0.1540 -0.1121  0.5818
 8501SOL    HW226720   3.364   7.253   7.254  2.5884  0.7576  0.4400
 8502SOL     OW26721   1.675   6.598   5.611 -0.2101  0.5345  0.1747
 8502SOL    HW126722   1.681   6.690   5.636 -0.0412 -0.0824  2.6491
 8502SOL    HW226723   1.581   6.582   5.601 -0.5846  0.2746  3.0769
 8503SOL     OW26724   3.035   6.223   6.361 -0.3419 -0.1708 -0.3416
 8503SOL    HW126725   3.008   6.135   6.335  0.0686  0.1043 -1.7842
 8503SOL    HW226726   2.989   6.239   6.444 -0.2890 -1.7918  0.0324
 8504SOL     OW26727   2.565   7.035   6.891  0.0516  0.0148  0.2581
 8504SOL    HW126728   2.597   6.953   6.853 -0.1874 -0.8336  1.7946
 8504SOL    HW226729   2.470   7.023   6.897 -0.5508  1.9662 -3.0113
 8505SOL     OW26730   2.939   7.208   5.572  0.4460 -0.4047 -0.6858
 8505SOL    HW126731   3.004   7.206   5.502 -0.8706 -0.2367 -1.9381
 8505SOL    HW226732   2.896   7.293   5.563  0.4061 -0.2777  0.4909
 8506SOL     OW26733   2.351   5.459   7.440  0.0545 -0.1850  0.6423
 8506SOL    HW126734   2.260   5.489   7.450  0.6544  2.1437 -0.2591
 8506SOL    HW226735   2.347   5.393   7.371 -0.7070  1.6560 -1.1851
 8507SOL     OW26736   3.653   6.687   6.111  0.2547  0.2101 -0.8128
 8507SOL    HW126737   3.671   6.637   6.032  1.4028 -0.6951 -0.0233
 8507SOL    HW226738   3.570   6.652   6.144  0.8252 -0.9003 -0.5080
 8508SOL     OW26739   2.117   6.893   5.817 -0.6457  0.4043 -0.4858
 8508SOL    HW126740   2.085   6.941   5.893  0.0086  0.9181 -0.5235
 8508SOL    HW226741   2.133   6.961   5.751 -1.1103 -0.0255 -1.0502
 8509SOL     OW26742   2.956   5.455   6.096 -0.0125 -0.1656  0.2757
 8509SOL    HW126743   2.938   5.402   6.173  0.2602 -0.3667  0.1983
 8509SOL    HW226744   2.993   5.394   6.032  1.0479  0.2699  0.4614
 8510SOL     OW26745   2.199   7.385   6.708  0.0888  0.4288  0.1788
 8510SOL    HW126746   2.225   7.463   6.757 -0.1899  1.5702 -1.4291
 8510SOL    HW226747   2.270   7.371   6.645 -0.7229  0.4906 -0.7710
 8511SOL     OW26748   3.080   6.808   6.608  0.3310  0.2101  0.3645
 8511SOL    HW126749   3.063   6.714   6.614 -0.7884  0.4251  0.8596
 8511SOL    HW226750   3.061   6.841   6.696  2.8956  0.5962  0.8615
 8512SOL     OW26751   1.901   6.581   6.440 -0.3122 -0.7599  0.2701
 8512SOL    HW126752   1.978   6.549   6.393  0.0591 -1.6205  1.4166
 8512SOL    HW226753   1.936   6.621   6.520 -1.0788 -2.1183  1.3347
 8513SOL     OW26754   3.694   5.220   7.341 -0.0276  0.1395 -0.2465
 8513SOL    HW126755   3.769   5.173   7.306 -0.1518 -0.8029  0.7052
 8513SOL    HW226756   3.718   5.312   7.336 -0.6505  0.2580 -4.2634
 8514SOL     OW26757   2.720   5.594   6.192 -0.2138  0.5664  0.2094
 8514SOL    HW126758   2.798   5.558   6.149 -0.6158  2.0695 -1.8998
 8514SOL    HW226759   2.663   5.621   6.120 -1.8145  1.3444  1.7118
 8515SOL     OW26760   2.701   5.443   7.482 -0.3072 -0.3075 -0.0441
 8515SOL    HW126761   2.787   5.432   7.522 -0.7779  0.3883  1.2077
 8515SOL    HW226762   2.639   5.437   7.555 -1.2814 -0.2348 -0.8455
 8516SOL     OW26763   2.567   6.768   6.795  0.3840 -0.0138  0.1868
 8516SOL    HW126764   2.651   6.765   6.750  0.2561 -0.5146 -0.0255
 8516SOL    HW226765   2.573   6.700   6.862  0.5390  0.6661  0.8740
 8517SOL     OW26766   2.842   5.823   7.036 -0.2032  0.1354 -0.0885
 8517SOL    HW126767   2.760   5.775   7.050  0.0993 -0.5940 -0.7743
 8517SOL    HW226768   2.911   5.759   7.051  0.3721  1.2691  2.6759
 8518SOL     OW26769   2.818   6.693   6.704 -0.2231 -0.2311 -0.1759
 8518SOL    HW126770   2.897   6.684   6.757 -1.3978  0.6123  1.8353
 8518SOL    HW226771   2.840   6.650   6.621  1.5129 -2.1207  1.1565
 8519SOL     OW26772   2.650   5.900   6.010 -0.0986  0.0009 -0.2367
 8519SOL    HW126773   2.596   5.868   6.083 -0.0574 -0.4207 -0.3899
 8519SOL    HW226774   2.586   5.928   5.944 -0.1785  1.7962  0.5312
 8520SOL     OW26775   2.420   5.671   6.205  0.0615 -0.8366 -0.2089
 8520SOL    HW126776   2.357   5.740   6.183  0.8566  0.6233  1.6975
 8520SOL    HW226777   2.421   5.614   6.129 -3.1169 -0.6204 -0.5472
 8521SOL     OW26778   3.327   6.422   5.673  0.2226  0.0664  0.7742
 8521SOL    HW126779   3.402   6.416   5.732  1.2372 -0.6064 -0.5224
 8521SOL    HW226780   3.267   6.354   5.704  1.9474 -2.2107 -0.5141
 8522SOL     OW26781   1.914   5.601   6.097 -0.2334  0.2549 -0.4315
 8522SOL    HW126782   1.906   5.647   6.181 -0.5253  0.9139 -0.8102
 8522SOL    HW226783   1.953   5.517   6.119  0.6616  0.8225  0.2507
 8523SOL     OW26784   3.057   5.701   6.182  0.0156  0.7178  0.4055
 8523SOL    HW126785   3.051   5.613   6.146 -2.9160  1.1637 -0.4589
 8523SOL    HW226786   3.123   5.695   6.251 -0.7888 -2.3689  1.0379
 8524SOL     OW26787   2.648   6.001   7.031  0.3255  0.1468 -0.0668
 8524SOL    HW126788   2.674   6.045   6.949  2.2908  0.0915  0.4702
 8524SOL    HW226789   2.719   5.939   7.048 -1.5313 -2.0542  0.1167
 8525SOL     OW26790   3.192   7.138   6.195 -0.1198  0.2172  0.7543
 8525SOL    HW126791   3.182   7.061   6.251  0.3342  0.9818  1.9220
 8525SOL    HW226792   3.262   7.188   6.236  1.4126  0.0083 -1.4492
 8526SOL     OW26793   2.056   6.664   6.636  0.0036  0.0793 -0.1411
 8526SOL    HW126794   2.112   6.590   6.661 -0.3260  0.3233  1.4017
 8526SOL    HW226795   2.110   6.741   6.651 -1.1953  0.4604  3.1398
 8527SOL     OW26796   3.179   7.441   6.236  0.0122  0.1561  0.0078
 8527SOL    HW126797   3.152   7.351   6.220  1.6234 -0.3860  0.1480
 8527SOL    HW226798   3.206   7.474   6.151 -0.1666  0.3706  0.0317
 8528SOL     OW26799   2.226   6.044   5.738 -0.8917  0.0197  0.1576
 8528SOL    HW126800   2.257   5.965   5.694 -0.4541  0.4533 -0.3230
 8528SOL    HW226801   2.137   6.023   5.766 -0.1752 -1.2944  1.6430
 8529SOL     OW26802   1.535   5.914   6.923 -0.6429  0.3125 -0.0708
 8529SOL    HW126803   1.547   5.821   6.905  1.9936  0.5272  0.2390
 8529SOL    HW226804   1.575   5.959   6.849  0.4620  1.1688  0.9997
 8530SOL     OW26805   2.275   5.492   6.848  0.4022 -0.0078  0.6104
 8530SOL    HW126806   2.258   5.402   6.820 -1.0236  0.3148  0.3326
 8530SOL    HW226807   2.279   5.487   6.943  2.4734 -0.6683  0.5521
 8531SOL     OW26808   2.850   5.834   5.852  0.6453  0.4129 -0.5595
 8531SOL    HW126809   2.777   5.861   5.908 -0.1439 -2.6115  0.0537
 8531SOL    HW226810   2.832   5.875   5.768 -0.8842  1.0307  0.0396
 8532SOL     OW26811   2.843   5.618   6.434 -0.3122  0.3633  0.4667
 8532SOL    HW126812   2.926   5.665   6.433  1.7088 -2.8654 -0.5611
 8532SOL    HW226813   2.803   5.636   6.349  0.6469 -0.1074 -0.0941
 8533SOL     OW26814   3.210   6.440   6.318  0.4663 -0.5483  0.2347
 8533SOL    HW126815   3.172   6.360   6.355 -0.8363  0.1826  0.5574
 8533SOL    HW226816   3.134   6.495   6.297  1.1462 -0.7164 -3.1711
 8534SOL     OW26817   3.032   5.966   6.492 -0.0984 -0.0538 -0.2227
 8534SOL    HW126818   3.076   5.881   6.501  2.0507  1.0226 -0.0462
 8534SOL    HW226819   2.982   5.976   6.573  0.8838 -0.4930  0.4651
 8535SOL     OW26820   3.842   6.506   5.747 -0.1410 -0.1787 -0.0207
 8535SOL    HW126821   3.937   6.493   5.747 -0.3014 -1.7557  1.4648
 8535SOL    HW226822   3.807   6.427   5.706 -0.8731 -0.9915  2.0140
 8536SOL     OW26823   2.415   6.950   5.768  0.1920  0.2180 -0.7658
 8536SOL    HW126824   2.331   6.963   5.813  0.9556  0.6503  0.5926
 8536SOL    HW226825   2.392   6.905   5.687 -1.1371 -1.7152  0.6020
 8537SOL     OW26826   3.792   6.848   6.287 -0.1154 -0.0989 -0.2052
 8537SOL    HW126827   3.726   6.791   6.247 -0.2523 -1.9541  2.4044
 8537SOL    HW226828   3.748   6.888   6.361  0.9243  0.8540 -0.0763
 8538SOL     OW26829   3.241   5.976   5.573  0.4399  0.4458  0.3517
 8538SOL    HW126830   3.258   6.036   5.500  3.1603 -0.5043  0.0920
 8538SOL    HW226831   3.222   5.892   5.531 -0.7348  0.4876  0.7523
 8539SOL     OW26832   2.297   5.898   6.130 -0.2844 -0.0636 -0.4252
 8539SOL    HW126833   2.335   5.974   6.084  0.9717 -0.1600  0.4057
 8539SOL    HW226834   2.217   5.932   6.170 -0.6362  0.3826 -1.4855
 8540SOL     OW26835   3.534   6.570   7.077  0.0700 -0.2184  0.1103
 8540SOL    HW126836   3.525   6.638   7.009 -1.1777  0.0669  0.5423
 8540SOL    HW226837   3.461   6.510   7.061 -1.1183  0.6302  2.0594
 8541SOL     OW26838   2.585   6.573   6.986 -0.0044 -0.0413 -0.2467
 8541SOL    HW126839   2.665   6.543   7.030 -0.2858  1.5914  1.5471
 8541SOL    HW226840   2.523   6.588   7.057 -1.9825 -1.3458 -1.6109
 8542SOL     OW26841   3.543   7.304   6.698  0.1578  0.2166 -0.2195
 8542SOL    HW126842   3.514   7.306   6.607 -0.6046  0.9348  0.0259
 8542SOL    HW226843   3.462   7.299   6.748  0.4681  1.7004  0.4737
 8543SOL     OW26844   3.070   7.105   6.771  0.3626 -0.4966  0.1833
 8543SOL    HW126845   3.007   7.067   6.833 -0.1503 -1.2104 -0.7330
 8543SOL    HW226846   3.130   7.155   6.825 -0.3396 -0.7226  1.2078
 8544SOL     OW26847   2.896   6.536   7.102 -0.5068 -0.1270 -0.1763
 8544SOL    HW126848   2.940   6.458   7.137  0.1746  0.1149 -0.4859
 8544SOL    HW226849   2.958   6.574   7.041 -0.5882  1.0062  0.4147
 8545SOL     OW26850   2.891   5.452   7.105  0.3934  0.0813 -0.1290
 8545SOL    HW126851   2.957   5.519   7.121  1.1058 -0.6129 -0.1050
 8545SOL    HW226852   2.907   5.423   7.015 -0.5744  0.6506 -0.5044
 8546SOL     OW26853   2.935   6.565   7.714 -0.3535 -0.0835 -0.5452
 8546SOL    HW126854   2.909   6.632   7.651 -0.6210 -0.0722 -0.4218
 8546SOL    HW226855   2.861   6.505   7.717 -0.1980 -0.2727 -0.5005
 8547SOL     OW26856   2.396   6.579   5.671  0.1859 -0.3174  0.6135
 8547SOL    HW126857   2.316   6.545   5.629  1.6127 -2.5465 -0.4628
 8547SOL    HW226858   2.415   6.659   5.622  0.5971 -1.7118 -1.6739
 8548SOL     OW26859   1.971   6.231   7.060 -0.2004  0.2241  0.3754
 8548SOL    HW126860   2.019   6.259   6.982  0.9930  1.5243  1.5117
 8548SOL    HW226861   1.986   6.137   7.064  3.3501  0.6610  1.2680
 8549SOL     OW26862   3.068   5.661   7.096 -0.1108  0.4136  0.0598
 8549SOL    HW126863   3.123   5.646   7.019  1.0892  0.9660  0.7678
 8549SOL    HW226864   3.122   5.716   7.153 -0.5058 -0.8999  1.7954
 8550SOL     OW26865   2.094   7.132   6.854  0.1147  0.3596 -0.5896
 8550SOL    HW126866   2.014   7.157   6.899 -0.2596 -0.7594 -0.5979
 8550SOL    HW226867   2.118   7.209   6.801 -0.4932  0.9834  0.0382
 8551SOL     OW26868   1.818   6.856   5.652 -0.4013 -0.1577  0.3344
 8551SOL    HW126869   1.734   6.886   5.617 -1.3677 -1.8601  1.0831
 8551SOL    HW226870   1.810   6.871   5.747 -0.3245 -1.3623  0.5426
 8552SOL     OW26871   2.528   5.868   6.395  0.2428 -0.4109 -0.2310
 8552SOL    HW126872   2.522   5.785   6.347  2.7501 -0.9914  0.2998
 8552SOL    HW226873   2.610   5.907   6.366  1.4551 -0.3554  2.8344
 8553SOL     OW26874   3.316   6.787   6.206  0.0183  0.3455  0.4861
 8553SOL    HW126875   3.344   6.698   6.184  0.3880  1.0606 -2.2308
 8553SOL    HW226876   3.223   6.788   6.185  0.2814  0.9265 -0.7032
 8554SOL     OW26877   3.463   6.872   6.738 -0.4330 -0.0624 -0.4899
 8554SOL    HW126878   3.479   6.904   6.827  0.5085  2.0332 -1.3294
 8554SOL    HW226879   3.399   6.934   6.702  0.1773 -0.0995 -1.6770
 8555SOL     OW26880   3.561   6.092   6.196  0.1800 -0.0678  0.1194
 8555SOL    HW126881   3.591   6.078   6.106  1.4572  1.7996  0.2138
 8555SOL    HW226882   3.467   6.111   6.188  0.4805  1.0325 -0.9147
 8556SOL     OW26883   2.385   6.878   6.617 -0.2537  0.0920  0.5571
 8556SOL    HW126884   2.441   6.848   6.689  0.0915 -1.7067 -0.3900
 8556SOL    HW226885   2.296   6.869   6.651 -0.0652  0.3629  1.1420
 8557SOL     OW26886   2.357   6.237   7.150 -0.1967 -0.2122  0.2230
 8557SOL    HW126887   2.448   6.252   7.172 -0.4836  1.0736  0.5866
 8557SOL    HW226888   2.347   6.273   7.062 -0.5364  0.3832  0.5003
 8558SOL     OW26889   3.738   6.246   7.252  0.6887  0.1717  0.6180
 8558SOL    HW126890   3.661   6.199   7.283  0.2219  1.2622  1.1928
 8558SOL    HW226891   3.777   6.189   7.186 -0.7642 -0.2838  0.1131
 8559SOL     OW26892   3.191   5.181   7.123  0.1829 -0.7836 -0.9065
 8559SOL    HW126893   3.255   5.227   7.068 -0.5731  0.5535 -0.7093
 8559SOL    HW226894   3.197   5.090   7.095  1.7787 -0.6012 -1.2706
 8560SOL     OW26895   2.349   5.280   7.063  0.2693 -0.0225 -0.0003
 8560SOL    HW126896   2.286   5.259   6.994  1.2890  0.6140 -1.1694
 8560SOL    HW226897   2.300   5.268   7.144 -1.2178  0.0145 -0.8451
 8561SOL     OW26898   2.589   6.430   6.757 -0.0910  0.0507  0.0584
 8561SOL    HW126899   2.594   6.486   6.835  1.5034  1.2296 -0.8395
 8561SOL    HW226900   2.590   6.492   6.683  3.7768 -1.0811 -1.0635
 8562SOL     OW26901   2.900   6.318   6.597  0.0335  0.2392 -0.0023
 8562SOL    HW126902   2.820   6.320   6.649  0.8504 -0.3493  1.3413
 8562SOL    HW226903   2.969   6.295   6.660  0.9093 -1.6877 -1.5334
 8563SOL     OW26904   2.767   5.895   5.585 -0.1788 -0.8501 -0.5460
 8563SOL    HW126905   2.839   5.862   5.532 -0.0817 -1.6445  0.0700
 8563SOL    HW226906   2.730   5.966   5.533 -0.3201 -1.8432 -1.8517
 8564SOL     OW26907   2.220   5.838   6.840 -0.3445  0.1115  0.1656
 8564SOL    HW126908   2.290   5.857   6.902  1.5991 -0.1702 -1.7951
 8564SOL    HW226909   2.191   5.750   6.863 -0.8863  0.6677  1.7096
 8565SOL     OW26910   1.779   6.856   6.995  0.1636  0.0431 -0.0919
 8565SOL    HW126911   1.697   6.811   7.016  0.1747 -0.1332 -0.4238
 8565SOL    HW226912   1.841   6.785   6.974  0.4176  0.1722  0.2072
 8566SOL     OW26913   2.570   6.012   6.635 -0.2489  0.3946  0.4138
 8566SOL    HW126914   2.576   5.971   6.549  0.6333  2.2871 -0.4930
 8566SOL    HW226915   2.561   5.939   6.696  2.7005 -1.2704 -0.9316
 8567SOL     OW26916   3.732   6.385   7.489 -0.0786  0.5321 -0.4526
 8567SOL    HW126917   3.825   6.383   7.512 -0.3323 -1.2982  0.5798
 8567SOL    HW226918   3.724   6.327   7.413 -0.6912 -1.3640  0.9781
 8568SOL     OW26919   1.908   5.405   6.372 -0.0727  0.0528 -0.5322
 8568SOL    HW126920   1.949   5.369   6.294  0.5444 -0.2363 -0.0852
 8568SOL    HW226921   1.963   5.374   6.444 -0.2239  0.8923 -0.0392
 8569SOL     OW26922   3.567   5.443   5.535  0.3402  0.3543  0.3449
 8569SOL    HW126923   3.653   5.424   5.573  1.2577  1.6931 -0.9594
 8569SOL    HW226924   3.537   5.359   5.501  1.0285 -0.1742  1.0087
 8570SOL     OW26925   2.788   5.909   6.312  0.2552 -0.2394 -0.1539
 8570SOL    HW126926   2.808   5.868   6.228  0.2891  0.6976 -0.6148
 8570SOL    HW226927   2.873   5.935   6.348  0.1236  1.1399 -0.7700
 8571SOL     OW26928   3.145   7.047   7.425 -0.0993  0.1324 -0.2596
 8571SOL    HW126929   3.131   6.958   7.394 -0.3979  0.4284 -0.9991
 8571SOL    HW226930   3.218   7.040   7.487  0.8841 -0.4030 -1.4475
 8572SOL     OW26931   3.479   7.013   7.252 -1.0853  0.0533  0.4419
 8572SOL    HW126932   3.450   7.019   7.343 -1.5657  0.6366  0.2590
 8572SOL    HW226933   3.513   6.924   7.244 -3.2117 -0.8338  0.5689
 8573SOL     OW26934   2.170   6.753   6.993  0.6384  0.1513 -0.4440
 8573SOL    HW126935   2.254   6.798   6.994  0.2521  0.8803 -0.0632
 8573SOL    HW226936   2.176   6.689   7.063  0.3432  1.2247  0.5938
 8574SOL     OW26937   3.562   5.911   5.622 -0.0150  0.1810 -0.0761
 8574SOL    HW126938   3.505   5.834   5.622 -0.0306  0.1920  0.1070
 8574SOL    HW226939   3.613   5.903   5.702 -0.2801  0.5527  0.1341
 8575SOL     OW26940   2.771   6.416   5.611 -0.9581  0.2192  0.6074
 8575SOL    HW126941   2.751   6.510   5.612  0.7459  0.6209  1.6028
 8575SOL    HW226942   2.824   6.402   5.690 -0.1516 -1.3544 -0.1619
 8576SOL     OW26943   2.943   6.557   6.476  0.0454  0.4373 -0.1909
 8576SOL    HW126944   2.961   6.549   6.383  2.8726 -1.3468  0.3916
 8576SOL    HW226945   2.932   6.467   6.507  1.5911  0.7904  1.5510
 8577SOL     OW26946   2.266   6.591   6.371 -0.6292 -0.0934  0.0461
 8577SOL    HW126947   2.213   6.552   6.301  0.6623 -0.2192 -0.8802
 8577SOL    HW226948   2.356   6.573   6.347 -0.1345 -0.0297  1.6918
 8578SOL     OW26949   2.314   6.179   6.645 -0.0397 -0.5745 -0.2812
 8578SOL    HW126950   2.321   6.164   6.551 -1.1156 -1.5751 -0.2164
 8578SOL    HW226951   2.389   6.133   6.683 -0.1580 -0.9991 -0.5651
 8579SOL     OW26952   2.510   5.750   7.318  0.5980  0.0229  0.1243
 8579SOL    HW126953   2.555   5.673   7.352  1.4657  1.4146  2.3683
 8579SOL    HW226954   2.427   5.752   7.365  1.5745  1.6615  1.9563
 8580SOL     OW26955   3.459   5.509   6.856 -0.4150 -0.0722  0.0398
 8580SOL    HW126956   3.475   5.600   6.832 -1.3900  0.8333  2.4498
 8580SOL    HW226957   3.533   5.461   6.820  0.2978  1.7198 -1.0145
 8581SOL     OW26958   1.974   7.179   5.437 -0.6922  0.7479  1.1176
 8581SOL    HW126959   1.885   7.153   5.414 -0.4256  0.1121  0.7988
 8581SOL    HW226960   1.962   7.262   5.484 -1.5041  0.3359  1.6683
 8582SOL     OW26961   2.113   7.230   6.434  0.2606  0.4267  0.2795
 8582SOL    HW126962   2.187   7.179   6.467  1.1323  1.4709 -0.0160
 8582SOL    HW226963   2.038   7.171   6.444  1.3615 -1.2986 -0.9312
 8583SOL     OW26964   2.975   6.921   6.395 -0.2261  0.1363  0.0798
 8583SOL    HW126965   3.014   6.881   6.472 -0.1140  0.8788  0.4218
 8583SOL    HW226966   2.988   6.857   6.325 -0.3325 -0.5464  0.6728
 8584SOL     OW26967   2.485   6.251   6.304 -0.5241  0.2225 -0.0258
 8584SOL    HW126968   2.494   6.345   6.285 -2.3757  0.6098  0.8313
 8584SOL    HW226969   2.392   6.238   6.319 -0.0758 -1.3946  1.7928
 8585SOL     OW26970   1.689   6.005   6.699 -0.2675  0.4148 -0.2867
 8585SOL    HW126971   1.692   6.064   6.625 -1.4445 -1.4198 -1.8834
 8585SOL    HW226972   1.767   5.950   6.689  0.7160  1.4800  1.0753
 8586SOL     OW26973   2.274   6.091   7.377 -0.1844  0.9364 -0.1349
 8586SOL    HW126974   2.295   6.126   7.290  0.4298  0.4055 -0.2064
 8586SOL    HW226975   2.179   6.079   7.376 -0.0074 -0.7722 -1.4050
 8587SOL     OW26976   3.718   6.329   6.873  0.0772 -0.1432 -0.2891
 8587SOL    HW126977   3.625   6.311   6.883  0.5980 -2.7930  0.6564
 8587SOL    HW226978   3.741   6.379   6.952 -0.5845  0.8829 -0.7273
 8588SOL     OW26979   3.156   6.099   5.809 -0.2299 -0.0580 -0.6465
 8588SOL    HW126980   3.148   6.031   5.876  0.9570  0.9050  0.5164
 8588SOL    HW226981   3.194   6.053   5.734 -0.1808 -0.8405 -0.1533
 8589SOL     OW26982   3.174   6.117   7.003 -0.1695  0.0416  0.1239
 8589SOL    HW126983   3.174   6.059   6.926  3.3964 -0.3429  0.2397
 8589SOL    HW226984   3.190   6.058   7.077 -1.4344  0.6552  0.9114
 8590SOL     OW26985   2.799   7.058   7.555  0.2137 -0.0930 -0.0633
 8590SOL    HW126986   2.741   7.009   7.497  0.1284 -0.4094  0.2851
 8590SOL    HW226987   2.877   7.003   7.563  0.8257  0.6111 -1.0193
 8591SOL     OW26988   2.266   5.862   6.502  0.1153  0.4134 -0.1715
 8591SOL    HW126989   2.290   5.868   6.595  1.4591 -0.7726 -0.4146
 8591SOL    HW226990   2.347   5.879   6.455 -0.5862  1.1486 -1.1599
 8592SOL     OW26991   3.306   6.389   7.218  0.2261 -0.3112  0.5248
 8592SOL    HW126992   3.336   6.337   7.143  0.7728 -1.1542  1.2965
 8592SOL    HW226993   3.211   6.380   7.217  0.0907  0.9007 -0.9047
 8593SOL     OW26994   2.195   6.281   6.353 -0.1268  0.1115 -0.2643
 8593SOL    HW126995   2.172   6.354   6.295 -1.4328 -0.8262 -0.9800
 8593SOL    HW226996   2.132   6.287   6.424  0.4715  0.3207  0.2556
 8594SOL     OW26997   1.913   6.501   7.132 -0.2655 -0.5496 -0.0345
 8594SOL    HW126998   1.904   6.551   7.051 -0.5068 -0.3891  0.0933
 8594SOL    HW226999   1.952   6.418   7.104 -0.8118 -0.6916 -0.3860
 8595SOL     OW27000   3.035   6.596   6.862 -0.2377 -0.2950  0.4210
 8595SOL    HW127001   3.129   6.610   6.867 -0.4031  1.0412  0.1379
 8595SOL    HW227002   3.026   6.503   6.844  1.0656 -0.2907 -0.4344
 8596SOL     OW27003   3.222   6.323   5.962  0.2370 -0.3685 -0.0306
 8596SOL    HW127004   3.139   6.345   6.004  0.8741 -0.9120  1.5903
 8596SOL    HW227005   3.207   6.237   5.923  0.0927 -0.5554  0.4324
 8597SOL     OW27006   3.936   7.352   6.568  0.2474 -0.0393 -0.1627
 8597SOL    HW127007   3.950   7.296   6.644 -0.6245 -0.2331 -0.1370
 8597SOL    HW227008   4.002   7.421   6.577 -0.1562  0.2178  1.0366
 8598SOL     OW27009   3.301   7.403   6.728 -0.2155 -0.0828  0.7243
 8598SOL    HW127010   3.348   7.474   6.772 -1.6437  0.5131  1.3615
 8598SOL    HW227011   3.259   7.355   6.799 -0.8494 -0.3780  0.1573
 8599SOL     OW27012   1.760   7.146   6.621  0.1547 -0.2357  0.1103
 8599SOL    HW127013   1.782   7.054   6.609 -0.1791 -0.2390 -0.4772
 8599SOL    HW227014   1.801   7.191   6.547  2.1909  0.4115  1.5149
 8600SOL     OW27015   2.871   7.013   6.948 -0.7601  0.1827 -0.4377
 8600SOL    HW127016   2.912   6.979   7.027  0.0354  0.2920 -0.7934
 8600SOL    HW227017   2.797   7.065   6.980 -0.2878  0.4468  0.2501
 8601SOL     OW27018   3.713   5.508   5.846 -0.5871  0.0659 -0.5159
 8601SOL    HW127019   3.786   5.476   5.898 -0.2011 -0.6321 -1.4479
 8601SOL    HW227020   3.655   5.432   5.838  0.7719 -0.8369 -3.5147
 8602SOL     OW27021   3.492   6.947   6.057  0.7336  0.0168 -0.4742
 8602SOL    HW127022   3.533   6.869   6.096  0.5759  0.6955  1.1454
 8602SOL    HW227023   3.399   6.938   6.079  0.7673  0.8146  0.0223
 8603SOL     OW27024   2.079   6.674   7.837 -0.5995  0.5078  0.1937
 8603SOL    HW127025   2.042   6.650   7.923  1.7202 -3.4274  0.2997
 8603SOL    HW227026   2.159   6.722   7.858  0.2307 -0.8808  0.3452
 8604SOL     OW27027   3.018   6.574   5.716 -0.9502  0.1147 -0.6729
 8604SOL    HW127028   3.059   6.606   5.635 -0.6543  0.5692 -0.3513
 8604SOL    HW227029   3.026   6.648   5.777  0.0743 -0.6899  0.2134
 8605SOL     OW27030   2.706   6.194   6.767  0.2724 -0.2822  0.1355
 8605SOL    HW127031   2.647   6.143   6.711  0.3417 -0.4539  0.2205
 8605SOL    HW227032   2.656   6.273   6.787 -0.7671 -1.3246  1.9188
 8606SOL     OW27033   2.468   6.818   6.295  0.3252 -0.8107 -0.8717
 8606SOL    HW127034   2.498   6.868   6.219 -0.5678 -0.1172 -0.7924
 8606SOL    HW227035   2.522   6.850   6.367  0.8706 -1.1503 -1.1221
 8607SOL     OW27036   3.562   7.263   6.987  0.2096 -0.5021  0.3943
 8607SOL    HW127037   3.540   7.336   7.045  0.0160 -0.6594  0.5176
 8607SOL    HW227038   3.562   7.302   6.899  0.7665 -0.2010  0.5173
 8608SOL     OW27039   3.387   5.549   5.940  0.1928 -0.2701 -0.3912
 8608SOL    HW127040   3.358   5.511   6.023  0.9763 -0.0620 -0.0086
 8608SOL    HW227041   3.406   5.474   5.884 -0.4572 -0.4103 -0.4332
 8609SOL     OW27042   2.014   5.933   6.445 -0.5641 -0.1506 -0.0995
 8609SOL    HW127043   1.974   5.877   6.511  0.5566  1.8134  2.3893
 8609SOL    HW227044   2.107   5.912   6.447 -0.3304  0.8098 -0.0958
 8610SOL     OW27045   3.047   6.320   5.417  0.3481  0.0711  0.5048
 8610SOL    HW127046   3.013   6.270   5.491  0.6718 -0.0103  0.6009
 8610SOL    HW227047   3.073   6.404   5.455  1.7225 -0.4250  0.7490
 8611SOL     OW27048   2.527   6.507   7.279 -0.0290 -0.3915 -0.4123
 8611SOL    HW127049   2.454   6.487   7.338 -2.1412  0.1896 -2.6522
 8611SOL    HW227050   2.573   6.424   7.268 -0.4336 -0.8153  0.8904
 8612SOL     OW27051   2.561   6.455   5.366 -0.4358 -0.1513 -0.0711
 8612SOL    HW127052   2.489   6.506   5.329  0.1552 -0.6563 -2.0155
 8612SOL    HW227053   2.615   6.520   5.412 -0.5779  0.7127 -1.0877
 8613SOL     OW27054   3.192   6.546   5.477  0.0006 -0.4555 -0.1211
 8613SOL    HW127055   3.235   6.596   5.408 -0.7514  0.3417 -0.0338
 8613SOL    HW227056   3.263   6.515   5.533  0.7499 -2.2956 -1.9820
 8614SOL     OW27057   2.309   7.022   7.007  1.0084 -0.0475  0.0353
 8614SOL    HW127058   2.229   7.050   6.962  0.8704  0.4430  0.5887
 8614SOL    HW227059   2.346   7.102   7.043  0.4569 -0.5909  1.8830
 8615SOL     OW27060   3.750   6.993   6.700 -0.5151 -0.1733 -0.4344
 8615SOL    HW127061   3.717   7.006   6.611  0.4227  0.1047 -0.7482
 8615SOL    HW227062   3.671   6.983   6.753 -1.1641  1.3929 -1.0280
 8616SOL     OW27063   2.724   6.560   6.048 -0.4428  0.1613 -0.3866
 8616SOL    HW127064   2.739   6.507   5.970 -1.6742 -0.9306  0.0698
 8616SOL    HW227065   2.675   6.636   6.016 -2.6820 -1.2295 -0.4684
 8617SOL     OW27066   2.751   5.527   6.689 -0.0763  0.0278 -0.2255
 8617SOL    HW127067   2.797   5.546   6.607  1.8008 -1.2002  0.4691
 8617SOL    HW227068   2.672   5.480   6.662  1.2033 -1.6265 -1.3257
 8618SOL     OW27069   2.735   6.852   5.773 -0.4825  0.2077  0.3401
 8618SOL    HW127070   2.645   6.858   5.806 -0.8085  0.9856 -0.6138
 8618SOL    HW227071   2.725   6.860   5.678  0.2910 -3.2002 -0.1361
 8619SOL     OW27072   3.447   5.820   6.989 -0.3597 -0.0080  0.7092
 8619SOL    HW127073   3.541   5.802   6.998 -0.3649 -1.2682 -1.1300
 8619SOL    HW227074   3.433   5.824   6.894 -2.0108  1.1027  0.9639
 8620SOL     OW27075   1.679   6.954   5.904 -0.0233  0.0356  0.2732
 8620SOL    HW127076   1.725   6.993   5.978 -0.3039 -1.1125  1.0757
 8620SOL    HW227077   1.598   6.919   5.941  0.2051 -1.2784 -0.3983
 8621SOL     OW27078   2.216   6.550   7.190  0.8414  0.7955 -0.0726
 8621SOL    HW127079   2.250   6.486   7.127  0.3580  0.0220  0.4426
 8621SOL    HW227080   2.239   6.515   7.276  3.2315  2.7981  0.2244
 8622SOL     OW27081   2.582   5.364   6.954  0.1982 -0.5517  0.3602
 8622SOL    HW127082   2.497   5.333   6.986 -0.2587 -1.9521 -1.9858
 8622SOL    HW227083   2.580   5.459   6.968 -1.1163 -0.7504  1.7069
 8623SOL     OW27084   2.038   5.999   5.953 -0.5083 -0.1304  0.0023
 8623SOL    HW127085   2.073   6.082   5.921 -1.0310 -0.1173 -0.5585
 8623SOL    HW227086   1.981   6.023   6.026  1.1485 -0.2092  1.3708
 8624SOL     OW27087   3.112   6.331   6.850 -0.0602  0.8990 -0.1134
 8624SOL    HW127088   3.130   6.280   6.929  0.6169  1.8322  0.3600
 8624SOL    HW227089   3.181   6.304   6.788  1.0730  2.0976  0.5678
 8625SOL     OW27090   2.030   5.717   5.865  0.1731 -0.7834  0.4550
 8625SOL    HW127091   2.021   5.811   5.882 -3.1056 -0.3501 -2.6006
 8625SOL    HW227092   1.994   5.675   5.943  1.5165  0.4355  1.7870
 8626SOL     OW27093   3.063   6.881   5.487  0.0273  0.1189  0.0798
 8626SOL    HW127094   3.033   6.967   5.517  0.3141 -0.0303  0.8246
 8626SOL    HW227095   3.106   6.842   5.564  0.3462 -0.4853 -0.3897
 8627SOL     OW27096   2.346   6.389   6.936  0.5600  0.2355  0.3255
 8627SOL    HW127097   2.417   6.394   6.872  0.3725  0.0819  0.1003
 8627SOL    HW227098   2.269   6.418   6.887  0.5118  0.6266  0.6353
 8628SOL     OW27099   3.531   7.603   6.318  0.3876  0.1149 -0.4520
 8628SOL    HW127100   3.539   7.613   6.413 -1.6677 -0.5105 -0.1793
 8628SOL    HW227101   3.489   7.684   6.289  0.2938 -0.0314 -0.7272
 8629SOL     OW27102   2.583   5.693   7.034  0.5428 -0.3204  0.0600
 8629SOL    HW127103   2.558   5.677   7.125  0.3317 -0.8082 -0.0819
 8629SOL    HW227104   2.528   5.768   7.007  1.4935  0.6316  0.7049
 8630SOL     OW27105   3.495   6.740   7.298 -0.4967 -0.3378 -0.3660
 8630SOL    HW127106   3.505   6.668   7.236  0.6528 -0.2047 -0.3461
 8630SOL    HW227107   3.552   6.716   7.371 -0.5617  0.3108 -0.0998
 8631SOL     OW27108   2.543   7.192   7.206  0.5626  0.0015 -0.1865
 8631SOL    HW127109   2.455   7.204   7.241  1.6285  0.6440  2.4664
 8631SOL    HW227110   2.563   7.099   7.222  0.0159 -0.4388 -1.8191
 8632SOL     OW27111   3.437   6.294   6.884 -0.2253  0.2644  0.0593
 8632SOL    HW127112   3.392   6.227   6.832  0.3505 -1.7240  2.0171
 8632SOL    HW227113   3.409   6.377   6.844 -1.0779 -1.0767 -2.3622
 8633SOL     OW27114   3.576   6.016   5.938  0.4072  0.2488 -0.1917
 8633SOL    HW127115   3.518   5.949   5.973  0.2374  0.6248  0.2614
 8633SOL    HW227116   3.651   5.968   5.905  0.6694 -0.1134  0.8807
 8634SOL     OW27117   2.735   6.264   6.207  0.1735  0.0629 -0.3774
 8634SOL    HW127118   2.686   6.328   6.156  0.5376  0.3645 -0.3521
 8634SOL    HW227119   2.672   6.230   6.270  0.3090  1.4068  0.5385
 8635SOL     OW27120   3.504   5.523   7.497 -0.4931 -0.1820 -0.3728
 8635SOL    HW127121   3.501   5.430   7.517  0.2894 -0.0615  0.3448
 8635SOL    HW227122   3.596   5.541   7.479 -0.6422  0.4467 -0.5305
 8636SOL     OW27123   3.831   6.121   7.010  0.3774 -0.0604  0.4492
 8636SOL    HW127124   3.841   6.051   6.945  0.0540  0.2798  0.0181
 8636SOL    HW227125   3.797   6.195   6.959  0.0085  0.1778  1.0327
 8637SOL     OW27126   2.988   6.830   5.889  0.0502  0.2535  0.3170
 8637SOL    HW127127   2.909   6.876   5.859  0.7168  1.7729  0.7983
 8637SOL    HW227128   3.055   6.853   5.825  0.0374 -1.4185 -0.3601
 8638SOL     OW27129   3.128   7.124   6.508  0.3356 -0.1563  0.2915
 8638SOL    HW127130   3.115   7.110   6.601  0.1941  0.5168  0.3729
 8638SOL    HW227131   3.060   7.071   6.466 -1.0757  1.3201  0.6328
 8639SOL     OW27132   2.935   6.490   6.212  0.0440 -0.3492  0.3290
 8639SOL    HW127133   2.858   6.523   6.165  0.5852  0.6562  0.1284
 8639SOL    HW227134   2.914   6.398   6.231 -0.2769 -0.7607 -1.7250
 8640SOL     OW27135   2.926   6.297   5.162 -0.0355  0.2245 -0.1539
 8640SOL    HW127136   2.832   6.288   5.150 -0.0123  1.1885 -1.3648
 8640SOL    HW227137   2.940   6.295   5.256 -1.3055  0.3668  0.0466
 8641SOL     OW27138   4.131   7.322   6.293  0.3074 -0.2645  0.2755
 8641SOL    HW127139   4.223   7.344   6.304  0.2807 -0.2197  0.4113
 8641SOL    HW227140   4.113   7.259   6.362 -0.3217  1.3617  1.6784
 8642SOL     OW27141   2.336   6.805   7.327 -0.1848 -0.2884 -0.2693
 8642SOL    HW127142   2.282   6.754   7.266  3.0410 -0.8380 -2.9555
 8642SOL    HW227143   2.383   6.739   7.378  0.3751  0.0997 -0.2842
 8643SOL     OW27144   2.192   6.870   6.390  0.5581 -0.2375  0.1501
 8643SOL    HW127145   2.195   6.775   6.387  0.1853 -0.2469  0.0736
 8643SOL    HW227146   2.282   6.898   6.371  0.5469 -0.5574 -0.3566
 8644SOL     OW27147   2.626   6.923   7.294 -0.7573  0.4154 -0.1970
 8644SOL    HW127148   2.537   6.889   7.297 -0.6676  0.1531 -0.4555
 8644SOL    HW227149   2.681   6.845   7.290 -0.4216  0.4975  1.8351
 8645SOL     OW27150   3.266   6.130   6.733 -0.0478  0.0187  0.1670
 8645SOL    HW127151   3.235   6.040   6.739  2.9925 -1.2810 -1.4157
 8645SOL    HW227152   3.291   6.141   6.641  2.3220  1.4497  0.8818
 8646SOL     OW27153   2.419   6.069   5.938 -0.0933 -0.6609  0.2449
 8646SOL    HW127154   2.380   6.046   5.854 -0.1958 -0.2244  0.1696
 8646SOL    HW227155   2.480   6.140   5.918 -0.8641  0.1526  0.6744
 8647SOL     OW27156   3.976   6.837   6.748 -0.2704 -0.3260  0.5935
 8647SOL    HW127157   3.999   6.803   6.661  1.1108  0.3722  0.6560
 8647SOL    HW227158   3.903   6.896   6.732  0.4190  0.3355 -0.2117
 8648SOL     OW27159   2.075   6.053   6.768  0.3597 -0.3579 -0.2480
 8648SOL    HW127160   2.154   6.097   6.738  0.2191  1.2974  1.5801
 8648SOL    HW227161   2.103   5.964   6.791  1.8241  0.3595  0.8650
 8649SOL     OW27162   2.646   7.348   5.767  0.0428 -0.1290  0.5868
 8649SOL    HW127163   2.656   7.438   5.799  1.2594 -0.2694  0.6347
 8649SOL    HW227164   2.694   7.347   5.684 -0.3817 -0.6055  0.3454
 8650SOL     OW27165   2.864   5.962   6.725 -0.5750  0.2782 -0.4025
 8650SOL    HW127166   2.813   6.040   6.745 -0.2904  0.3605  0.0197
 8650SOL    HW227167   2.817   5.890   6.769  0.0242  0.4519  0.5683
 8651SOL     OW27168   3.153   5.363   6.662  0.4108 -0.6153  0.5382
 8651SOL    HW127169   3.164   5.393   6.572 -2.0026 -1.7958 -0.2283
 8651SOL    HW227170   3.184   5.272   6.660  0.6200 -0.5599  1.0003
 8652SOL     OW27171   2.694   6.134   5.749  0.6437  0.8620 -0.3057
 8652SOL    HW127172   2.617   6.180   5.716 -0.3819  1.0904  2.2366
 8652SOL    HW227173   2.689   6.048   5.707 -1.9018  0.3170  0.9105
 8653SOL     OW27174   2.697   6.945   6.423  0.9616 -0.9021  0.2719
 8653SOL    HW127175   2.763   6.960   6.355  0.6462  0.7279  0.2920
 8653SOL    HW227176   2.745   6.954   6.506  0.7470  0.1827  0.2857
 8654SOL     OW27177   3.281   6.070   6.271  0.2790  0.3506  0.2835
 8654SOL    HW127178   3.240   5.984   6.280  0.7728 -0.1384 -1.5864
 8654SOL    HW227179   3.207   6.130   6.263 -0.1221 -0.2557 -0.9273
 8655SOL     OW27180   3.354   5.870   5.978  0.8630 -1.1505  0.1739
 8655SOL    HW127181   3.356   5.775   5.986 -1.2211 -1.4787 -2.0054
 8655SOL    HW227182   3.261   5.893   5.981  1.1848  0.5789 -1.0433
 8656SOL     OW27183   1.803   6.307   6.055  0.0411  0.0359  0.3054
 8656SOL    HW127184   1.852   6.279   5.978 -0.3254  0.6459 -0.1550
 8656SOL    HW227185   1.818   6.401   6.060  2.0628 -0.3028  2.3992
 8657SOL     OW27186   2.841   7.170   5.873 -0.1977  0.3003  0.4246
 8657SOL    HW127187   2.873   7.185   5.784  0.2313 -1.0045  0.3447
 8657SOL    HW227188   2.765   7.228   5.882 -1.8362 -1.3884 -1.6771
 8658SOL     OW27189   2.044   6.063   7.900 -0.0116 -0.7836  0.3475
 8658SOL    HW127190   1.967   6.058   7.956 -0.0016 -0.5981  0.3773
 8658SOL    HW227191   2.051   5.976   7.861  0.4178 -1.1498  1.2205
 8659SOL     OW27192   2.120   5.519   8.480 -0.2114 -1.0872 -0.0974
 8659SOL    HW127193   2.106   5.499   8.388  0.0053  0.6251 -0.5358
 8659SOL    HW227194   2.211   5.550   8.484 -0.0998 -1.4895  0.7592
 8660SOL     OW27195   1.654   5.749   8.148 -0.2577  0.4616  0.2441
 8660SOL    HW127196   1.671   5.666   8.104  1.7770  0.9837 -0.0554
 8660SOL    HW227197   1.669   5.730   8.241  1.4599  0.7364  0.0570
 8661SOL     OW27198   2.786   6.682   8.746 -0.0594 -0.5260 -0.5946
 8661SOL    HW127199   2.704   6.635   8.763  0.2020 -1.4093 -1.6669
 8661SOL    HW227200   2.759   6.761   8.698 -0.3373 -0.5064 -0.4049
 8662SOL     OW27201   3.104   7.262   8.387  0.3877 -0.0553  0.1385
 8662SOL    HW127202   3.111   7.276   8.481 -0.8227 -1.1299  0.4089
 8662SOL    HW227203   3.148   7.178   8.372 -0.7945 -0.6753  0.0079
 8663SOL     OW27204   3.210   5.793   7.670  0.1213 -0.2700  0.1179
 8663SOL    HW127205   3.213   5.698   7.685 -1.0913 -0.0890  1.7833
 8663SOL    HW227206   3.248   5.831   7.749  2.9389  0.6798 -1.5149
 8664SOL     OW27207   4.183   5.872   7.793  0.2441 -0.0975  0.2387
 8664SOL    HW127208   4.139   5.890   7.709 -0.6940  0.8665  0.9111
 8664SOL    HW227209   4.116   5.827   7.845  0.4114  0.3878  0.8847
 8665SOL     OW27210   2.566   6.484   8.504 -0.8605  0.1565 -0.5090
 8665SOL    HW127211   2.600   6.509   8.418 -0.6107 -0.3569 -0.5655
 8665SOL    HW227212   2.506   6.412   8.486 -0.0629 -0.6184 -0.1740
 8666SOL     OW27213   2.410   6.580   8.141  0.3273  0.4849 -0.0475
 8666SOL    HW127214   2.327   6.550   8.106  1.3807 -2.1413 -0.5501
 8666SOL    HW227215   2.456   6.618   8.067 -0.2658  1.6424  0.1615
 8667SOL     OW27216   2.669   6.772   8.506  0.0655  0.6265 -0.2284
 8667SOL    HW127217   2.711   6.690   8.479  1.2473  1.0561  0.2410
 8667SOL    HW227218   2.585   6.771   8.460  0.4505 -0.4023 -0.9739
 8668SOL     OW27219   2.627   5.762   8.514  0.7117 -0.5348  0.0734
 8668SOL    HW127220   2.611   5.811   8.434 -0.7131 -1.5070 -0.2686
 8668SOL    HW227221   2.702   5.706   8.494  0.1137 -1.0614 -0.7129
 8669SOL     OW27222   3.601   5.595   8.340  0.3417 -0.0721  0.3212
 8669SOL    HW127223   3.545   5.529   8.299 -0.7547 -0.3918  2.2241
 8669SOL    HW227224   3.668   5.545   8.385 -0.0809  0.1021  1.1787
 8670SOL     OW27225   2.247   7.066   7.991  0.4058 -0.3868  0.2944
 8670SOL    HW127226   2.226   7.033   8.078  1.3414 -0.5411  0.4711
 8670SOL    HW227227   2.261   6.987   7.939 -1.3817 -0.3398 -0.3484
 8671SOL     OW27228   2.054   7.251   8.186 -0.1213 -0.3605 -0.1017
 8671SOL    HW127229   2.099   7.182   8.138 -0.0700  0.0221 -0.6104
 8671SOL    HW227230   2.061   7.225   8.278  0.4275 -0.7175 -0.2413
 8672SOL     OW27231   2.404   6.731   8.374  0.1905  0.5790 -0.3801
 8672SOL    HW127232   2.397   6.673   8.298  0.9271  3.2317 -2.6499
 8672SOL    HW227233   2.325   6.715   8.424  0.8136 -3.0339 -0.2831
 8673SOL     OW27234   2.829   7.254   8.480 -0.1094  0.5965 -0.3874
 8673SOL    HW127235   2.894   7.297   8.423  1.2172 -2.0697 -1.0293
 8673SOL    HW227236   2.749   7.253   8.428  0.3023  0.7497 -1.0396
 8674SOL     OW27237   2.720   6.433   7.529  0.0073 -0.0892 -0.2873
 8674SOL    HW127238   2.746   6.512   7.483  0.5867  1.0490  1.8749
 8674SOL    HW227239   2.802   6.387   7.548  0.0398  0.7132  1.7069
 8675SOL     OW27240   1.730   6.555   8.137  0.0426 -0.0269 -0.4972
 8675SOL    HW127241   1.686   6.639   8.120 -0.4506 -0.1426  0.1600
 8675SOL    HW227242   1.662   6.500   8.176  0.4027 -0.6900 -0.7865
 8676SOL     OW27243   3.623   7.322   8.124  0.3278  0.1465  0.0149
 8676SOL    HW127244   3.589   7.412   8.119 -1.9227 -0.6741 -0.5285
 8676SOL    HW227245   3.696   7.321   8.062 -1.2914  0.9479 -2.0299
 8677SOL     OW27246   2.178   6.496   7.650  0.0715  0.2675  0.0398
 8677SOL    HW127247   2.236   6.516   7.723 -2.0702 -0.5555  2.1188
 8677SOL    HW227248   2.090   6.507   7.686 -1.0954  0.4406 -2.6377
 8678SOL     OW27249   3.505   6.508   8.199  0.4853  0.4219 -0.2412
 8678SOL    HW127250   3.595   6.483   8.220  0.2608  1.7655  2.8573
 8678SOL    HW227251   3.498   6.599   8.228 -2.0826  0.0743  0.4973
 8679SOL     OW27252   3.604   6.939   8.000 -0.0828  0.2912 -0.1980
 8679SOL    HW127253   3.609   6.856   7.952  0.2777 -0.6226  1.3605
 8679SOL    HW227254   3.632   7.005   7.936 -0.2423 -0.7899 -1.4263
 8680SOL     OW27255   2.781   6.851   7.803  0.4991  0.0651  0.4136
 8680SOL    HW127256   2.755   6.802   7.725 -0.0296 -0.0512  0.6635
 8680SOL    HW227257   2.729   6.931   7.799  0.1977 -0.1100  0.8498
 8681SOL     OW27258   2.599   5.349   8.335  0.2883 -0.1971 -0.1096
 8681SOL    HW127259   2.601   5.338   8.240 -1.1492  0.6550 -0.2626
 8681SOL    HW227260   2.530   5.290   8.365  1.0031 -0.7561  0.4636
 8682SOL     OW27261   2.025   6.233   8.491  0.8696  0.1806  0.5690
 8682SOL    HW127262   1.956   6.197   8.547 -0.7776  0.3846 -1.2080
 8682SOL    HW227263   1.978   6.266   8.415  3.1882 -4.0295 -3.1729
 8683SOL     OW27264   3.294   6.153   7.746  0.3853 -0.4116  0.0042
 8683SOL    HW127265   3.366   6.148   7.808  0.6397 -0.0661 -0.2632
 8683SOL    HW227266   3.293   6.244   7.716  0.7096 -0.7267 -1.0223
 8684SOL     OW27267   3.223   6.673   8.225 -0.2314 -0.5116 -0.3753
 8684SOL    HW127268   3.251   6.678   8.317  0.6624 -2.6466 -0.4702
 8684SOL    HW227269   3.151   6.610   8.226 -1.1428  0.4850 -0.9801
 8685SOL     OW27270   3.837   7.903   7.797 -0.7479 -0.4362 -0.2089
 8685SOL    HW127271   3.778   7.959   7.746 -0.7862  0.0403  0.3530
 8685SOL    HW227272   3.806   7.912   7.887  0.0568 -0.3380  0.0645
 8686SOL     OW27273   2.643   6.245   7.217 -0.1309  0.0444 -0.2491
 8686SOL    HW127274   2.734   6.243   7.188 -0.0185  1.4412 -0.0720
 8686SOL    HW227275   2.626   6.157   7.250  0.8808 -0.4888 -1.0930
 8687SOL     OW27276   2.969   6.212   7.831 -0.5692 -0.1053 -0.1733
 8687SOL    HW127277   3.059   6.198   7.802 -0.5995 -2.0872  0.5525
 8687SOL    HW227278   2.929   6.263   7.761  1.0619  0.7271 -0.5571
 8688SOL     OW27279   3.443   7.247   7.771 -0.4101  0.3899 -0.1053
 8688SOL    HW127280   3.379   7.262   7.841 -0.1262 -1.9243  0.7341
 8688SOL    HW227281   3.434   7.323   7.714 -2.1777  1.3100  1.2865
 8689SOL     OW27282   2.685   5.812   8.236  0.1547  0.0278 -0.4163
 8689SOL    HW127283   2.769   5.856   8.251 -0.5986  0.8262  2.0450
 8689SOL    HW227284   2.626   5.882   8.210 -0.1959 -0.1532 -0.1188
 8690SOL     OW27285   2.955   5.895   8.350  0.0516  0.1295 -0.5674
 8690SOL    HW127286   3.009   5.933   8.420 -0.8709  0.8674 -0.2360
 8690SOL    HW227287   2.927   5.971   8.298 -2.5038  0.0555  0.5819
 8691SOL     OW27288   2.971   6.321   7.551 -0.0247 -0.0509 -0.1373
 8691SOL    HW127289   2.979   6.237   7.505  1.5586  0.2526 -0.4558
 8691SOL    HW227290   3.059   6.341   7.581 -0.0728  2.1997 -1.3016
 8692SOL     OW27291   2.172   6.415   8.094  0.6349 -0.6426 -0.4500
 8692SOL    HW127292   2.198   6.349   8.158 -0.3048 -1.6087 -1.0187
 8692SOL    HW227293   2.173   6.369   8.010  0.4230  0.1951 -0.9254
 8693SOL     OW27294   2.463   7.455   8.627  0.6146  0.1963  0.3744
 8693SOL    HW127295   2.390   7.514   8.610 -1.4261 -1.7551  1.7821
 8693SOL    HW227296   2.485   7.469   8.719  0.0985 -1.1714  0.7312
 8694SOL     OW27297   2.932   5.250   7.750 -0.4108  0.2427 -0.1261
 8694SOL    HW127298   2.948   5.161   7.720  1.7199  0.3499  0.5414
 8694SOL    HW227299   2.899   5.240   7.839 -0.4652  0.1068 -0.1617
 8695SOL     OW27300   3.490   6.795   8.195 -0.1239 -0.5258 -0.1901
 8695SOL    HW127301   3.526   6.849   8.125  1.8654  2.8861  3.0929
 8695SOL    HW227302   3.396   6.796   8.181 -0.0381  2.6183 -1.1669
 8696SOL     OW27303   2.823   5.584   8.197 -0.2010 -0.7038 -0.1694
 8696SOL    HW127304   2.831   5.581   8.101 -0.4286  0.2732 -0.2275
 8696SOL    HW227305   2.765   5.658   8.213  1.4403  0.3985  0.8297
 8697SOL     OW27306   3.281   7.042   8.065  0.3986  0.0608 -0.2868
 8697SOL    HW127307   3.288   7.137   8.063 -1.2586  0.2362  0.5421
 8697SOL    HW227308   3.291   7.019   8.158 -2.2574 -0.2262  0.0180
 8698SOL     OW27309   2.650   7.585   7.922 -0.3759 -0.2275  0.2386
 8698SOL    HW127310   2.741   7.584   7.951  0.0168  0.2099 -0.9060
 8698SOL    HW227311   2.608   7.514   7.971  1.0878 -1.8959 -0.8154
 8699SOL     OW27312   3.608   7.080   8.246  0.1975 -0.0915 -0.4498
 8699SOL    HW127313   3.585   7.043   8.161 -0.3898  0.4493 -0.5351
 8699SOL    HW227314   3.631   7.171   8.228  0.6385 -0.1271 -0.1054
 8700SOL     OW27315   2.518   6.224   7.545 -0.0072 -0.6085 -0.5067
 8700SOL    HW127316   2.575   6.290   7.505  0.2138  0.0527  0.8301
 8700SOL    HW227317   2.481   6.176   7.472 -1.9511  2.4402 -1.6865
 8701SOL     OW27318   3.491   6.222   7.948  0.1460  0.1271 -0.2777
 8701SOL    HW127319   3.443   6.305   7.956 -1.1178 -0.5795 -0.2408
 8701SOL    HW227320   3.460   6.170   8.022  0.2329 -0.7118 -0.8189
 8702SOL     OW27321   3.240   7.528   7.388  0.6455 -0.4432  0.5746
 8702SOL    HW127322   3.199   7.606   7.424  1.6158  1.3807 -2.0152
 8702SOL    HW227323   3.169   7.463   7.385 -0.5621  0.7881  1.4151
 8703SOL     OW27324   3.630   6.647   7.498 -0.5087 -0.7259  0.3250
 8703SOL    HW127325   3.649   6.554   7.485 -0.3746 -0.6297 -0.1988
 8703SOL    HW227326   3.584   6.651   7.582  0.5798 -1.1193  0.9574
 8704SOL     OW27327   2.475   6.690   7.550 -0.3563  0.5671 -0.2146
 8704SOL    HW127328   2.424   6.646   7.618 -1.1738  1.3417 -0.3130
 8704SOL    HW227329   2.476   6.782   7.577 -0.0811  0.7612 -0.8804
 8705SOL     OW27330   3.531   5.636   7.848  0.3658 -0.5980 -0.4370
 8705SOL    HW127331   3.593   5.572   7.814 -0.1602 -1.4734  0.2078
 8705SOL    HW227332   3.450   5.619   7.799 -0.4566 -1.9987  1.3002
 8706SOL     OW27333   2.228   7.595   8.569  0.1341  0.0521  0.4283
 8706SOL    HW127334   2.203   7.515   8.522  1.7339  0.1210 -0.6073
 8706SOL    HW227335   2.193   7.666   8.515  0.8664  0.1000  0.0083
 8707SOL     OW27336   3.498   7.215   8.563  0.0115  0.2707 -0.1400
 8707SOL    HW127337   3.520   7.214   8.656 -0.8667  0.4415  0.0804
 8707SOL    HW227338   3.516   7.126   8.533 -0.9279 -0.1590  0.5115
 8708SOL     OW27339   1.995   5.948   8.312 -0.6376  0.1805  0.5093
 8708SOL    HW127340   2.056   6.015   8.282 -0.8260 -0.0474 -0.4013
 8708SOL    HW227341   2.005   5.948   8.407  1.0676 -0.1317  0.3616
 8709SOL     OW27342   2.640   5.469   7.237  0.2331  0.1347  0.3509
 8709SOL    HW127343   2.719   5.450   7.187  0.5717  1.4347  0.3443
 8709SOL    HW227344   2.667   5.459   7.328  1.3712  3.5159  0.5398
 8710SOL     OW27345   3.140   6.783   8.799  0.2263 -0.0316 -0.2770
 8710SOL    HW127346   3.227   6.799   8.834 -0.3716  0.4688  1.0468
 8710SOL    HW227347   3.114   6.699   8.836 -0.5930  0.7135  0.9007
 8711SOL     OW27348   3.198   6.989   8.316  0.0507  0.1201 -0.0173
 8711SOL    HW127349   3.237   6.934   8.384  0.2243  1.9970  1.5056
 8711SOL    HW227350   3.109   6.955   8.305 -0.0605 -0.0837  1.3414
 8712SOL     OW27351   2.856   5.970   7.914  0.0205 -0.0641  0.0932
 8712SOL    HW127352   2.905   6.041   7.873 -0.5676  0.4578  0.2798
 8712SOL    HW227353   2.888   5.891   7.871 -1.0872  0.5151 -1.9324
 8713SOL     OW27354   2.480   5.332   7.673 -0.8475 -0.6068  0.0304
 8713SOL    HW127355   2.501   5.241   7.654 -0.1387 -0.0735 -2.1144
 8713SOL    HW227356   2.454   5.369   7.588  3.9222  2.4445 -0.4648
 8714SOL     OW27357   3.508   6.453   7.700 -0.1544  0.1709 -0.0442
 8714SOL    HW127358   3.464   6.418   7.622 -0.0532  2.3329 -1.1545
 8714SOL    HW227359   3.562   6.380   7.732 -1.7202 -1.3986 -0.7910
 8715SOL     OW27360   2.182   5.497   7.859  0.4859 -0.0691  0.1567
 8715SOL    HW127361   2.200   5.561   7.790  0.7133  0.1858  0.4437
 8715SOL    HW227362   2.183   5.413   7.815  0.8390  0.0740 -0.1172
 8716SOL     OW27363   2.969   5.494   7.643 -0.5511  0.1149  0.2366
 8716SOL    HW127364   2.956   5.400   7.657  0.5028  0.3096  3.1501
 8716SOL    HW227365   3.056   5.501   7.604 -1.3202 -0.1303 -1.6656
 8717SOL     OW27366   3.106   6.824   8.022  0.0152  0.8534  0.0207
 8717SOL    HW127367   3.156   6.904   8.040  1.6343  0.3353 -1.8326
 8717SOL    HW227368   3.141   6.759   8.083  0.9895  0.7388 -0.6456
 8718SOL     OW27369   2.329   6.816   7.866  0.1668 -0.1012 -0.0835
 8718SOL    HW127370   2.378   6.736   7.849 -0.1555 -0.0288 -1.4456
 8718SOL    HW227371   2.378   6.885   7.822 -0.5317  0.1574 -0.4771
 8719SOL     OW27372   3.113   7.558   7.844 -0.1629 -0.1640  0.0495
 8719SOL    HW127373   3.175   7.577   7.773 -0.5128  1.4532  0.1509
 8719SOL    HW227374   3.154   7.596   7.922 -1.2491  0.8837  0.1255
 8720SOL     OW27375   3.521   6.120   7.337  0.7610  0.2222 -0.2242
 8720SOL    HW127376   3.495   6.037   7.378 -1.6393  0.2610 -1.4993
 8720SOL    HW227377   3.488   6.114   7.248 -1.0382  3.1792  0.0957
 8721SOL     OW27378   2.439   5.553   8.201 -0.3931 -0.2541  0.2351
 8721SOL    HW127379   2.491   5.529   8.278 -0.8770 -1.6847  0.1363
 8721SOL    HW227380   2.404   5.640   8.222  0.1280 -0.2787  1.2815
 8722SOL     OW27381   2.489   6.254   7.817 -0.4238 -0.0218 -0.0802
 8722SOL    HW127382   2.502   6.167   7.855 -0.8746  0.7358  1.9114
 8722SOL    HW227383   2.500   6.240   7.723  0.1907 -2.0963  0.2371
 8723SOL     OW27384   2.926   5.075   8.104 -0.7271 -0.0097  0.4797
 8723SOL    HW127385   2.868   5.109   8.035 -1.8453 -0.1992  1.3032
 8723SOL    HW227386   2.871   5.071   8.182  0.6116  0.5537  1.4986
 8724SOL     OW27387   3.626   6.698   8.698 -0.3450  0.7555 -0.6318
 8724SOL    HW127388   3.685   6.655   8.759 -0.9050  1.0465  0.1194
 8724SOL    HW227389   3.599   6.628   8.638  0.1991  0.4685 -0.5470
 8725SOL     OW27390   3.382   6.064   8.182 -0.4640  0.3593  0.1414
 8725SOL    HW127391   3.327   6.044   8.258 -0.1735 -0.0926  0.2350
 8725SOL    HW227392   3.450   5.997   8.182  0.7557  1.5486  0.6588
 8726SOL     OW27393   3.764   6.324   7.968 -0.4989  0.3455 -0.2560
 8726SOL    HW127394   3.693   6.260   7.975  0.6081 -1.1320 -2.0285
 8726SOL    HW227395   3.843   6.272   7.959  0.6072  1.9726 -0.2978
 8727SOL     OW27396   2.804   7.248   7.093 -0.0813  0.3678  0.0272
 8727SOL    HW127397   2.853   7.205   7.163  0.1312 -1.1122 -0.9874
 8727SOL    HW227398   2.722   7.276   7.135  0.1963 -0.1493  0.9423
 8728SOL     OW27399   3.690   7.114   7.813 -0.3492  0.3964  0.7659
 8728SOL    HW127400   3.612   7.167   7.797  0.3890  1.6345  1.1184
 8728SOL    HW227401   3.753   7.143   7.747 -0.1484 -0.5426  0.5267
 8729SOL     OW27402   3.507   5.817   7.430  0.1653  0.3285 -0.2647
 8729SOL    HW127403   3.537   5.842   7.518  0.0667 -1.2489  0.2503
 8729SOL    HW227404   3.519   5.722   7.427 -0.0855  0.3203 -1.8778
 8730SOL     OW27405   2.366   5.903   7.594 -0.2371  0.1736  0.3359
 8730SOL    HW127406   2.318   5.965   7.539 -0.4878 -0.4458 -0.1573
 8730SOL    HW227407   2.454   5.940   7.601 -0.2498  0.3504 -0.3548
 8731SOL     OW27408   3.427   6.677   0.365  0.3185  0.2651 -0.3608
 8731SOL    HW127409   3.518   6.648   0.373  0.1713  0.3083  2.2738
 8731SOL    HW227410   3.379   6.599   0.338  0.7609 -0.5442  1.0788
 8732SOL     OW27411   3.008   6.481   8.615 -0.7592 -0.5965 -0.5401
 8732SOL    HW127412   3.087   6.521   8.650  0.9201 -5.1306  1.6368
 8732SOL    HW227413   2.943   6.489   8.684 -1.1891  0.2432 -1.0209
 8733SOL     OW27414   3.829   6.626   8.481  0.4892  0.1513  0.1661
 8733SOL    HW127415   3.807   6.702   8.427  0.2304  0.2402  0.3991
 8733SOL    HW227416   3.890   6.660   8.546  1.8617 -0.2144 -0.8590
 8734SOL     OW27417   2.424   6.559   7.823 -0.0966  0.0428 -0.1354
 8734SOL    HW127418   2.427   6.464   7.813 -2.4658 -0.4788  2.7219
 8734SOL    HW227419   2.507   6.581   7.865 -0.2035 -1.0377  0.6889
 8735SOL     OW27420   2.210   6.417   8.561 -0.1676  0.7345 -0.0984
 8735SOL    HW127421   2.137   6.356   8.555 -0.9149  1.2199  2.7034
 8735SOL    HW227422   2.280   6.366   8.603  0.4775  0.8243 -1.0244
 8736SOL     OW27423   3.083   5.930   8.101  0.2756  0.2650 -0.1655
 8736SOL    HW127424   3.054   5.898   8.187  0.5513 -0.9135 -0.4973
 8736SOL    HW227425   3.074   5.855   8.043  2.8517  0.1604 -0.5438
 8737SOL     OW27426   2.340   7.151   8.432  0.3327 -0.5141 -0.4752
 8737SOL    HW127427   2.355   7.099   8.511  0.6281  0.7633  0.3565
 8737SOL    HW227428   2.323   7.087   8.363  0.5370 -1.6834  0.5239
 8738SOL     OW27429   1.998   6.617   8.090 -0.3500  0.0277 -0.1373
 8738SOL    HW127430   1.907   6.602   8.118 -0.4466 -0.0858 -0.5070
 8738SOL    HW227431   2.043   6.534   8.109 -0.2205  0.2290  0.4477
 8739SOL     OW27432   2.513   6.211   8.412 -0.1165 -0.2020  0.0665
 8739SOL    HW127433   2.593   6.161   8.433  0.4660  0.8694  0.4770
 8739SOL    HW227434   2.533   6.253   8.328 -1.5120 -2.5010 -1.5297
 8740SOL     OW27435   3.384   7.068   7.566  0.4861 -0.3573  0.3347
 8740SOL    HW127436   3.391   7.144   7.624  3.3799 -0.8342  0.7854
 8740SOL    HW227437   3.385   6.993   7.625 -1.0648 -0.8023 -0.1687
 8741SOL     OW27438   3.301   6.561   8.594 -0.7161 -0.2750 -0.5446
 8741SOL    HW127439   3.300   6.536   8.686  0.0882 -2.8090 -1.1580
 8741SOL    HW227440   3.361   6.500   8.552  2.2778  3.3103 -2.1468
 8742SOL     OW27441   3.550   5.896   7.690  0.5654 -0.3022  0.4235
 8742SOL    HW127442   3.474   5.924   7.741 -1.0331 -1.8085 -0.9936
 8742SOL    HW227443   3.603   5.845   7.752 -1.3152 -2.0799  0.6509
 8743SOL     OW27444   2.750   7.006   8.390  0.1320 -0.0938  0.4863
 8743SOL    HW127445   2.794   7.075   8.439 -0.5740  0.0830  0.8793
 8743SOL    HW227446   2.762   6.927   8.443  0.9261 -0.2886  0.0435
 8744SOL     OW27447   2.800   6.410   0.121 -0.0279 -0.3447 -0.1550
 8744SOL    HW127448   2.763   6.494   0.092 -0.6940 -0.4990  0.2217
 8744SOL    HW227449   2.759   6.394   0.206  0.7635 -0.6295  0.1838
 8745SOL     OW27450   3.050   6.281   8.457 -0.4401  0.0397 -0.5084
 8745SOL    HW127451   3.015   6.352   8.510  1.0122  1.3098 -1.1681
 8745SOL    HW227452   3.143   6.300   8.450  0.3014 -2.8031  0.5673
 8746SOL     OW27453   3.065   5.379   7.322 -0.0809  0.4003 -0.0711
 8746SOL    HW127454   3.138   5.346   7.270 -0.4503  3.3522 -2.7639
 8746SOL    HW227455   2.996   5.397   7.259 -0.8984  3.4099  1.4457
 8747SOL     OW27456   2.157   5.854   0.333  0.6663 -0.4915 -0.1843
 8747SOL    HW127457   2.130   5.845   0.242  0.8302  2.1868 -0.5781
 8747SOL    HW227458   2.225   5.921   0.332  0.6961 -0.4109  1.9140
 8748SOL     OW27459   2.248   6.955   8.274 -0.0847 -0.4174  0.0362
 8748SOL    HW127460   2.305   6.889   8.313 -0.4928 -1.7142 -1.4331
 8748SOL    HW227461   2.160   6.933   8.305 -0.1397 -0.1270  0.0921
 8749SOL     OW27462   2.810   6.100   8.157 -0.2951 -0.7504 -0.3666
 8749SOL    HW127463   2.811   6.071   8.066 -1.2565  0.0982 -0.6667
 8749SOL    HW227464   2.814   6.196   8.152  0.8415 -0.7272  0.5290
 8750SOL     OW27465   2.475   5.977   8.130  0.7292  0.2395  0.1302
 8750SOL    HW127466   2.464   6.069   8.157  1.7439  0.6488 -0.7597
 8750SOL    HW227467   2.407   5.930   8.178 -0.8020  1.6720 -0.4976
 8751SOL     OW27468   3.797   5.766   7.787 -0.2746  0.8086  0.1331
 8751SOL    HW127469   3.846   5.749   7.706  0.1298 -0.2878  0.5960
 8751SOL    HW227470   3.764   5.681   7.813  2.0793  0.5479  2.7117
 8752SOL     OW27471   3.125   6.264   8.098  0.2606  0.3073 -0.1130
 8752SOL    HW127472   3.136   6.301   8.011  1.9462 -0.7429 -0.4015
 8752SOL    HW227473   3.121   6.169   8.084  3.9741 -0.1885  1.0902
 8753SOL     OW27474   3.588   5.266   7.595  0.2833 -0.2201 -0.1513
 8753SOL    HW127475   3.517   5.204   7.614  0.7082 -0.2473  1.4847
 8753SOL    HW227476   3.646   5.218   7.536 -0.1220 -0.8598 -0.0405
 8754SOL     OW27477   3.389   6.327   7.478 -0.1681  0.5300 -0.1999
 8754SOL    HW127478   3.368   6.369   7.394  1.2916  0.9329 -0.3872
 8754SOL    HW227479   3.455   6.261   7.456  0.1004  0.5175  0.6173
 8755SOL     OW27480   3.036   6.467   8.256 -0.1407 -0.3642 -0.3466
 8755SOL    HW127481   3.067   6.399   8.196 -0.0616 -0.1428 -0.5620
 8755SOL    HW227482   3.026   6.423   8.340  2.2478 -0.1155  0.1264
 8756SOL     OW27483   2.580   6.375   8.222  0.3060 -0.5216  0.2067
 8756SOL    HW127484   2.663   6.385   8.176 -0.8015 -2.2000 -2.4727
 8756SOL    HW227485   2.522   6.439   8.180  0.0096  0.0351  1.4385
 8757SOL     OW27486   1.635   6.137   8.286 -0.5767  0.7829  0.3295
 8757SOL    HW127487   1.719   6.160   8.327  0.5065  0.7595 -1.7520
 8757SOL    HW227488   1.584   6.218   8.289  0.1762  1.2749  0.1431
 8758SOL     OW27489   2.864   5.624   8.461 -0.3708 -0.3337  0.4002
 8758SOL    HW127490   2.858   5.603   8.368  0.3001 -1.8643  0.6770
 8758SOL    HW227491   2.907   5.710   8.464 -0.4857 -0.2321 -0.6915
 8759SOL     OW27492   2.286   6.399   7.413  0.0071 -0.3276 -0.6520
 8759SOL    HW127493   2.253   6.439   7.493  0.0948  0.8319 -1.1656
 8759SOL    HW227494   2.290   6.305   7.432 -0.3980 -0.1193  0.5350
 8760SOL     OW27495   2.696   7.093   8.141  0.3550 -0.3303  0.3091
 8760SOL    HW127496   2.715   7.067   8.231 -0.3474  0.8150  0.8090
 8760SOL    HW227497   2.653   7.179   8.149 -0.5344 -0.6108 -1.0572
 8761SOL     OW27498   2.558   7.064   7.888  0.4261 -0.2355 -0.0965
 8761SOL    HW127499   2.582   7.151   7.858 -0.8571  0.0458 -0.3594
 8761SOL    HW227500   2.584   7.062   7.980  0.2455  0.5166 -0.0243
 8762SOL     OW27501   2.778   6.158   8.513 -0.2354  0.2622  0.0933
 8762SOL    HW127502   2.865   6.152   8.473  0.8877  0.5313  2.3253
 8762SOL    HW227503   2.785   6.232   8.574 -2.7118  1.6510 -1.1684
 8763SOL     OW27504   1.360   6.218   8.231 -0.1311 -0.8607 -0.2233
 8763SOL    HW127505   1.386   6.131   8.201  0.1219 -1.2093  0.9706
 8763SOL    HW227506   1.308   6.203   8.309  1.4924  0.0994  1.1234
 8764SOL     OW27507   2.635   5.992   7.365  0.1121  0.5343  0.1427
 8764SOL    HW127508   2.658   5.970   7.456  1.0331  0.8531 -0.0017
 8764SOL    HW227509   2.615   5.907   7.324 -0.9165  0.4430  0.7884
 8765SOL     OW27510   3.787   6.436   8.233  0.7525  0.0626  0.3142
 8765SOL    HW127511   3.834   6.416   8.152  1.7910 -0.7439  1.0844
 8765SOL    HW227512   3.801   6.359   8.289  1.1529  1.1276  1.7470
 8766SOL     OW27513   2.813   5.521   7.912  0.3028 -0.6308 -0.2011
 8766SOL    HW127514   2.873   5.476   7.852  1.4732 -0.3425  0.7224
 8766SOL    HW227515   2.756   5.572   7.854  2.8498  1.4561 -1.1013
 8767SOL     OW27516   2.624   7.378   8.163 -0.5155  0.3684 -0.5114
 8767SOL    HW127517   2.714   7.408   8.171 -0.4291 -0.1369  0.6904
 8767SOL    HW227518   2.589   7.383   8.252 -1.3674 -0.3821 -0.7849
 8768SOL     OW27519   2.640   5.893   7.649  0.1905  0.1067 -0.0500
 8768SOL    HW127520   2.621   5.918   7.739 -1.4554 -2.2629  0.3777
 8768SOL    HW227521   2.732   5.866   7.650 -0.2684 -1.6149  1.4278
 8769SOL     OW27522   2.035   6.850   8.422  0.1313 -0.4156  0.0661
 8769SOL    HW127523   2.086   6.790   8.477  0.7281 -0.9435 -1.0235
 8769SOL    HW227524   1.946   6.815   8.425  0.4320 -1.2586 -0.3953
 8770SOL     OW27525   3.616   6.471   8.562  0.8682 -0.3857  0.2792
 8770SOL    HW127526   3.693   6.496   8.510  2.2953 -0.0662  2.4050
 8770SOL    HW227527   3.647   6.400   8.618 -0.4349 -0.3591  1.0789
 8771SOL     OW27528   3.234   6.014   7.510 -0.0662  0.1895  0.4495
 8771SOL    HW127529   3.212   5.934   7.558 -1.9699  0.2559 -0.2324
 8771SOL    HW227530   3.290   6.063   7.570 -0.4497 -0.7902  1.6546
 8772SOL     OW27531   3.871   7.144   0.033  0.0971 -0.1014 -0.6094
 8772SOL    HW127532   3.815   7.089  -0.023  1.2976 -0.1618 -1.7986
 8772SOL    HW227533   3.948   7.089   0.050  0.9619  0.9070 -1.1701
 8773SOL     OW27534   3.031   7.041   8.790 -0.1062 -0.1358  0.2479
 8773SOL    HW127535   3.072   7.110   8.738 -0.5163  1.0270  1.3742
 8773SOL    HW227536   3.066   6.960   8.756 -0.2093  0.5685 -1.6890
 8774SOL     OW27537   1.664   6.985   8.241  0.5354  0.2321  0.2823
 8774SOL    HW127538   1.735   7.046   8.260  0.1009  0.8611 -0.0876
 8774SOL    HW227539   1.630   6.961   8.327 -0.2818  1.7149  0.4145
 8775SOL     OW27540   4.057   5.626   7.847 -0.2992 -0.3453 -0.0110
 8775SOL    HW127541   4.017   5.633   7.761 -0.6235  1.3531  0.2428
 8775SOL    HW227542   4.008   5.556   7.891 -1.0660 -0.2658 -0.7175
 8776SOL     OW27543   3.323   7.302   8.020  0.0902 -0.0120 -0.1907
 8776SOL    HW127544   3.403   7.335   8.062 -0.0273  1.2014 -0.8809
 8776SOL    HW227545   3.252   7.346   8.066 -0.0936  0.2701 -0.7291
 8777SOL     OW27546   3.348   6.456   7.991  0.5368  0.7763 -0.3381
 8777SOL    HW127547   3.274   6.516   8.002 -0.0526  0.0279 -0.0973
 8777SOL    HW227548   3.409   6.480   8.061  0.4527  1.2948 -0.4407
 8778SOL     OW27549   3.075   7.312   7.384  0.0362 -0.3315 -0.3982
 8778SOL    HW127550   3.092   7.225   7.420 -0.2443  0.4228  1.7377
 8778SOL    HW227551   2.981   7.313   7.366  0.1244 -0.6175 -0.8890
 8779SOL     OW27552   3.815   5.450   8.496  0.0802 -0.3241  0.1447
 8779SOL    HW127553   3.752   5.380   8.507  0.0580 -0.2734  0.3517
 8779SOL    HW227554   3.887   5.411   8.447 -0.3958 -0.2100 -0.6633
 8780SOL     OW27555   2.253   6.016   8.492 -0.7881  0.2773  0.7396
 8780SOL    HW127556   2.206   6.089   8.531 -0.1333  0.3965  1.3298
 8780SOL    HW227557   2.216   5.938   8.534  0.0557  0.4174  1.7745
 8781SOL     OW27558   3.657   7.133   7.487 -0.2808 -0.4320 -0.4321
 8781SOL    HW127559   3.701   7.052   7.514  1.0762 -0.9397 -3.6460
 8781SOL    HW227560   3.566   7.120   7.513  0.2849 -2.0902  0.9454
 8782SOL     OW27561   2.971   6.645   0.134 -0.9331 -0.5797 -0.2170
 8782SOL    HW127562   2.931   6.684   0.057 -0.8716 -0.8654 -0.3942
 8782SOL    HW227563   2.954   6.551   0.125  0.3173 -0.7827 -0.6164
 8783SOL     OW27564   3.085   6.553   7.929  0.1871 -0.6589  0.1649
 8783SOL    HW127565   3.075   6.645   7.954  1.5668  0.1562 -2.0664
 8783SOL    HW227566   3.031   6.542   7.851  1.8190 -1.0797 -0.9648
 8784SOL     OW27567   3.610   7.404   7.387  0.0314 -0.0622  0.5425
 8784SOL    HW127568   3.603   7.310   7.368  0.3564 -0.1576  0.8852
 8784SOL    HW227569   3.599   7.446   7.302 -0.3149 -0.4010  0.4166
 8785SOL     OW27570   3.819   6.566   0.020  0.3979  0.3061 -0.4562
 8785SOL    HW127571   3.876   6.637  -0.007  0.7212  0.6392  1.0350
 8785SOL    HW227572   3.876   6.489   0.022  0.5104  0.3960 -0.1653
 8786SOL     OW27573   3.293   6.326   8.334  0.0206 -0.4467  0.1845
 8786SOL    HW127574   3.360   6.369   8.281 -0.0246  0.2714  0.7058
 8786SOL    HW227575   3.239   6.279   8.270  0.8366 -0.7948 -0.2669
 8787SOL     OW27576   2.916   5.785   7.671 -0.1119  0.4271 -0.1617
 8787SOL    HW127577   2.908   5.689   7.675  2.5790  0.1312 -0.5520
 8787SOL    HW227578   3.010   5.802   7.675 -0.4664  3.0401 -1.1177
 8788SOL     OW27579   2.626   6.690   7.971 -0.2616  0.3228  0.2824
 8788SOL    HW127580   2.663   6.698   8.059  1.6353 -1.7627 -0.2241
 8788SOL    HW227581   2.679   6.749   7.918  0.3821 -0.4042  0.0976
 8789SOL     OW27582   3.560   6.180   8.409 -0.1293  0.3445  0.3927
 8789SOL    HW127583   3.557   6.167   8.504  2.7103  0.8922  0.6398
 8789SOL    HW227584   3.487   6.238   8.390 -1.1442 -0.2937  2.1301
 8790SOL     OW27585   2.177   6.283   7.879  0.3977  0.0168 -0.0760
 8790SOL    HW127586   2.203   6.275   7.787  0.6034  0.7175 -0.0868
 8790SOL    HW227587   2.117   6.210   7.893  1.4265 -0.9235 -0.3834
 8791SOL     OW27588   2.741   5.318   8.619 -0.0318  0.2341  0.5091
 8791SOL    HW127589   2.725   5.339   8.527  0.6471  0.7343  0.4973
 8791SOL    HW227590   2.672   5.363   8.667 -0.6230 -0.3503  0.2207
 8792SOL     OW27591   2.198   5.686   7.665  0.0718 -0.3049  0.6352
 8792SOL    HW127592   2.175   5.649   7.580 -0.8945 -3.0076  1.9421
 8792SOL    HW227593   2.266   5.751   7.646  0.1302 -1.0557 -2.1388
 8793SOL     OW27594   2.266   5.731   8.038  0.0563  0.3036 -0.5413
 8793SOL    HW127595   2.292   5.641   8.017 -0.3068 -0.7728  3.0210
 8793SOL    HW227596   2.250   5.772   7.953  0.4260 -2.9187 -2.3036
 8794SOL     OW27597   3.342   6.888   7.771  0.2195  0.2586 -0.2407
 8794SOL    HW127598   3.259   6.841   7.758  0.2567 -0.3931  1.5778
 8794SOL    HW227599   3.322   6.956   7.835  0.6579  1.4470 -1.3121
 8795SOL     OW27600   2.675   5.891   8.756 -0.6681  0.7222 -0.2176
 8795SOL    HW127601   2.641   5.877   8.668  2.0364 -0.9190 -1.1242
 8795SOL    HW227602   2.691   5.803   8.790  0.0334  1.3620  1.2016
 8796SOL     OW27603   3.302   6.803   8.468 -0.3364  0.1142 -0.0173
 8796SOL    HW127604   3.277   6.728   8.522  0.4632 -0.0260  0.1661
 8796SOL    HW227605   3.393   6.819   8.490 -0.4146  0.9586 -0.2807
 8797SOL     OW27606   2.563   7.313   8.410  0.0960  0.1208 -0.4379
 8797SOL    HW127607   2.529   7.368   8.481 -1.2253  0.6953 -1.4862
 8797SOL    HW227608   2.495   7.248   8.395  0.1524  0.2934 -1.4921
 8798SOL     OW27609   3.713   6.020   8.638 -0.2034 -0.1543 -0.0717
 8798SOL    HW127610   3.787   6.049   8.585 -0.9790 -0.3414 -1.2884
 8798SOL    HW227611   3.716   5.925   8.634  0.6630 -0.2320  1.5708
 8799SOL     OW27612   3.220   5.479   7.521 -0.2526 -0.0130 -0.4339
 8799SOL    HW127613   3.306   5.514   7.496  0.2833 -0.9942 -0.0237
 8799SOL    HW227614   3.188   5.435   7.442  0.1588 -0.6571 -0.2486
 8800SOL     OW27615   2.710   6.397   7.802 -0.4241  0.5350  0.2627
 8800SOL    HW127616   2.688   6.421   7.712 -1.0183  0.0984  0.2910
 8800SOL    HW227617   2.638   6.342   7.831  0.2296 -0.1075  0.6920
 8801SOL     OW27618   3.694   6.279   8.745 -0.4591 -0.9166  0.2132
 8801SOL    HW127619   3.685   6.187   8.721 -0.0991 -1.1287  0.8584
 8801SOL    HW227620   3.776   6.283   8.794 -0.8401 -0.3898  0.8278
 8802SOL     OW27621   2.856   6.740   7.295 -0.0502 -0.3661  0.6816
 8802SOL    HW127622   2.844   6.676   7.225  0.9280  0.8239 -0.6201
 8802SOL    HW227623   2.951   6.746   7.306 -0.0590  1.5701  0.0563
 8803SOL     OW27624   2.755   7.448   7.667  0.2628 -0.0349  0.0520
 8803SOL    HW127625   2.716   7.506   7.733 -0.0739  0.5515 -0.6462
 8803SOL    HW227626   2.784   7.372   7.717 -0.2805  0.2506  0.8330
 8804SOL     OW27627   2.818   6.373   8.073 -0.2145  0.0627  0.2005
 8804SOL    HW127628   2.900   6.422   8.067 -0.8354  1.4562  2.0397
 8804SOL    HW227629   2.773   6.393   7.991  0.7155  0.3525 -0.2557
 8805SOL     OW27630   3.207   6.429   7.718 -0.2421  0.4302  0.1934
 8805SOL    HW127631   3.163   6.455   7.799 -0.4408 -0.0323  0.2337
 8805SOL    HW227632   3.299   6.451   7.733  0.6359 -3.6632  2.3669
 8806SOL     OW27633   3.886   7.162   8.123  0.2345 -0.0123  0.0659
 8806SOL    HW127634   3.821   7.153   8.193 -0.5993 -2.1688 -0.8871
 8806SOL    HW227635   3.841   7.213   8.056 -0.4966 -1.4043 -0.5449
 8807SOL     OW27636   2.003   6.896   8.077 -0.2158  0.3430 -0.2631
 8807SOL    HW127637   1.959   6.815   8.099  0.0873 -0.6367 -2.9271
 8807SOL    HW227638   2.087   6.891   8.122 -0.9358  0.0859  1.0934
 8808SOL     OW27639   3.601   5.730   8.630 -0.5358 -0.0047 -0.0477
 8808SOL    HW127640   3.640   5.687   8.707 -0.1000 -0.7653 -0.6869
 8808SOL    HW227641   3.640   5.686   8.555 -1.9672 -0.1802 -0.7170
 8809SOL     OW27642   2.579   5.994   7.888 -0.4044  0.1682  0.2965
 8809SOL    HW127643   2.663   6.011   7.931 -0.1077  0.7205 -0.4571
 8809SOL    HW227644   2.516   5.984   7.959  0.4644 -1.2606  0.9153
 8810SOL     OW27645   3.786   6.924   8.682  0.0012 -0.2497 -0.2354
 8810SOL    HW127646   3.719   6.863   8.712 -0.9550  0.6156 -0.5169
 8810SOL    HW227647   3.866   6.872   8.677 -0.9562 -1.6976 -1.3189
 8811SOL     OW27648   2.387   5.609   8.509  0.4152 -0.3031 -0.1064
 8811SOL    HW127649   2.448   5.683   8.503  0.1676 -0.0205  0.6849
 8811SOL    HW227650   2.435   5.541   8.556  0.0602  0.0177  0.7622
 8812SOL     OW27651   2.923   7.042   7.990  0.3490 -0.1534  0.1398
 8812SOL    HW127652   2.979   6.970   8.019  0.0785 -0.3948  0.0679
 8812SOL    HW227653   2.861   7.054   8.062 -0.1722 -0.5935 -0.2298
 8813SOL     OW27654   3.305   5.823   8.367  0.2781  0.2075 -0.0268
 8813SOL    HW127655   3.235   5.758   8.358  0.3619 -0.2586  2.1344
 8813SOL    HW227656   3.361   5.808   8.291 -0.9768 -0.6355 -0.8243
 8814SOL     OW27657   3.149   5.516   8.244  0.1894  0.1804 -0.5931
 8814SOL    HW127658   3.117   5.472   8.322  0.1217  1.6483  0.2379
 8814SOL    HW227659   3.072   5.558   8.206  0.2365 -0.4572 -1.4174
 8815SOL     OW27660   2.708   6.760   8.227  0.0203  0.2353 -0.4674
 8815SOL    HW127661   2.711   6.849   8.262  0.4014  1.1675 -2.6884
 8815SOL    HW227662   2.795   6.724   8.244  1.1423  1.6654 -2.7122
 8816SOL     OW27663   2.950   6.720   8.347 -0.4021  0.3241  0.0794
 8816SOL    HW127664   2.969   6.627   8.340 -0.9999  0.0622  1.6504
 8816SOL    HW227665   2.992   6.747   8.428 -1.6396  1.0519  0.4941
 8817SOL     OW27666   3.682   4.970   7.700  0.5073  0.4376 -0.1457
 8817SOL    HW127667   3.626   4.939   7.629  0.1605 -0.5615  0.5499
 8817SOL    HW227668   3.759   5.007   7.655 -0.2990  1.0405 -1.0745
 8818SOL     OW27669   3.349   5.888   7.925  0.7307 -0.5006  0.2252
 8818SOL    HW127670   3.261   5.919   7.949  0.8947  0.1176  0.0383
 8818SOL    HW227671   3.389   5.864   8.009  0.0464 -1.7064  0.2265
 8819SOL     OW27672   3.778   5.863   8.275 -0.1703 -0.9631 -0.2315
 8819SOL    HW127673   3.770   5.869   8.180  1.0212 -1.2290 -0.3547
 8819SOL    HW227674   3.752   5.950   8.306  1.6776 -0.1038 -0.9642
 8820SOL     OW27675   1.756   6.362   7.854  0.1914  0.6959 -0.3697
 8820SOL    HW127676   1.764   6.269   7.873 -0.5829  0.8475  0.8596
 8820SOL    HW227677   1.766   6.405   7.940 -0.5517  1.6495 -0.7334
 8821SOL     OW27678   3.089   7.183   7.801  0.1233  0.3929 -0.4207
 8821SOL    HW127679   3.017   7.239   7.772  0.5351  1.1135 -0.0877
 8821SOL    HW227680   3.060   7.147   7.885 -0.8907 -1.3538 -1.4693
 8822SOL     OW27681   2.625   7.709   8.577 -0.0159 -0.2535 -0.8673
 8822SOL    HW127682   2.613   7.780   8.640 -0.1922 -0.6912 -0.4032
 8822SOL    HW227683   2.686   7.648   8.620  1.4036  0.3804 -1.9039
 8823SOL     OW27684   1.706   7.827   0.667 -0.7628  0.2935  0.2318
 8823SOL    HW127685   1.740   7.853   0.753 -0.2608 -0.8311  0.3943
 8823SOL    HW227686   1.785   7.806   0.616 -1.1361 -1.1509  0.2120
 8824SOL     OW27687   1.299   7.495   8.654  0.5198 -0.7964 -0.2553
 8824SOL    HW127688   1.236   7.530   8.591 -0.4147 -0.2282  0.9579
 8824SOL    HW227689   1.378   7.547   8.640  0.1411 -0.3015 -0.5949
 8825SOL     OW27690   2.064   8.313   1.282 -0.4353  0.0606 -0.6309
 8825SOL    HW127691   2.066   8.389   1.222  1.7942 -0.1586 -0.9005
 8825SOL    HW227692   1.983   8.325   1.332 -0.9076  1.8056 -1.7092
 8826SOL     OW27693   3.441   0.147   0.091 -0.4014 -0.7806 -0.6356
 8826SOL    HW127694   3.449   0.235   0.055  0.1461 -0.4305  0.2740
 8826SOL    HW227695   3.363   0.110   0.050 -0.1351 -0.1959 -1.6886
 8827SOL     OW27696   2.630   8.199   0.435 -0.7768  0.1623 -0.6421
 8827SOL    HW127697   2.587   8.277   0.470  0.8495  0.0872  1.7578
 8827SOL    HW227698   2.718   8.230   0.411  0.0839 -0.9806  0.8851
 8828SOL     OW27699   3.724   7.897   0.538 -0.2797  0.6954 -0.1258
 8828SOL    HW127700   3.784   7.905   0.463  2.4272 -1.6262  1.6073
 8828SOL    HW227701   3.751   7.967   0.597 -1.0478  1.2428 -0.4077
 8829SOL     OW27702   2.495   8.551   1.170 -0.5107  0.0633 -0.5205
 8829SOL    HW127703   2.517   8.637   1.205 -0.8276  0.0878 -0.3753
 8829SOL    HW227704   2.574   8.522   1.126 -0.8376  1.0232 -1.7790
 8830SOL     OW27705   3.201   8.125   1.869 -0.3114 -0.3189 -0.2109
 8830SOL    HW127706   3.213   8.197   1.808 -2.3923 -0.1762 -0.5360
 8830SOL    HW227707   3.276   8.130   1.928  1.5017 -0.1640 -2.4169
 8831SOL     OW27708   3.333   8.328   0.205 -0.0839  0.0034 -0.2142
 8831SOL    HW127709   3.288   8.286   0.278  1.1581 -0.0301  0.5512
 8831SOL    HW227710   3.406   8.271   0.184 -0.0999  0.2908 -1.1383
 8832SOL     OW27711   2.532   8.299   1.806 -0.3804 -0.3898 -0.0253
 8832SOL    HW127712   2.503   8.385   1.838 -0.6191 -0.8061  0.9258
 8832SOL    HW227713   2.521   8.303   1.711 -2.1145  0.0169  0.1585
 8833SOL     OW27714   2.421   8.487   0.833 -0.2701 -0.3070 -0.4456
 8833SOL    HW127715   2.390   8.423   0.898  1.0899  0.9620  1.5519
 8833SOL    HW227716   2.380   8.569   0.859  0.3023  0.2417 -1.2212
 8834SOL     OW27717   1.873   7.107   1.297 -0.7335 -0.0925  0.0648
 8834SOL    HW127718   1.923   7.062   1.365  0.7369 -0.7897 -1.4091
 8834SOL    HW227719   1.899   7.199   1.304  1.0223 -0.4802 -0.8281
 8835SOL     OW27720   3.322   7.642   0.528  0.0098 -0.6765 -0.1271
 8835SOL    HW127721   3.270   7.608   0.455 -1.7519 -2.3808  1.7723
 8835SOL    HW227722   3.259   7.649   0.600  1.9740 -0.6164  1.6827
 8836SOL     OW27723   2.868   8.505   1.649 -0.0877 -0.4128  0.0597
 8836SOL    HW127724   2.836   8.470   1.565  1.8666 -0.5421 -0.6791
 8836SOL    HW227725   2.855   8.434   1.711  0.5482 -1.1596 -0.6461
 8837SOL     OW27726   2.504   8.410   0.588  0.2428 -1.0306  0.2994
 8837SOL    HW127727   2.455   8.444   0.663 -0.2959  0.2382 -0.5975
 8837SOL    HW227728   2.518   8.486   0.532 -0.4995 -2.1707 -1.5241
 8838SOL     OW27729   2.629   8.613   8.464  0.1661 -0.3509  0.2442
 8838SOL    HW127730   2.625   8.703   8.432  2.2163 -0.0712  0.6163
 8838SOL    HW227731   2.636   8.560   8.384  0.6927 -0.0320  0.0738
 8839SOL     OW27732   3.785   7.588   1.053  0.1868 -0.0453 -0.4883
 8839SOL    HW127733   3.878   7.583   1.073  0.1131 -1.9588 -0.5096
 8839SOL    HW227734   3.741   7.569   1.136 -0.1335 -1.9666 -1.0516
 8840SOL     OW27735   2.200   8.192   0.357 -0.9370 -0.0527  0.3602
 8840SOL    HW127736   2.211   8.214   0.450  0.0499  0.3213  0.1703
 8840SOL    HW227737   2.288   8.202   0.319 -0.9859 -1.7849 -0.2990
 8841SOL     OW27738   3.407   8.451   0.876 -0.5484  0.0880 -0.3256
 8841SOL    HW127739   3.353   8.481   0.803 -1.7330  0.1542  0.5605
 8841SOL    HW227740   3.436   8.531   0.919 -0.8693  0.0346 -0.0033
 8842SOL     OW27741   3.291   7.967   0.257  0.0721 -0.0273  0.1514
 8842SOL    HW127742   3.342   7.938   0.333 -1.9220 -0.7173  1.3108
 8842SOL    HW227743   3.263   8.055   0.278 -0.5815 -0.2616  0.2872
 8843SOL     OW27744   1.928   8.109   1.690 -0.3412 -0.4629 -0.2284
 8843SOL    HW127745   1.915   8.170   1.762 -1.9423 -1.6010  0.4964
 8843SOL    HW227746   2.017   8.075   1.703 -0.3172 -0.0609  0.7334
 8844SOL     OW27747   2.710   0.064   0.472 -1.0844  0.3699  0.0887
 8844SOL    HW127748   2.716   0.127   0.400  0.3089 -0.0512 -0.2025
 8844SOL    HW227749   2.654   0.107   0.537  2.9678  3.8460  1.7635
 8845SOL     OW27750   2.770   8.368   1.427  0.3225  0.2842  0.7568
 8845SOL    HW127751   2.745   8.277   1.442 -0.1628  0.5891  1.9110
 8845SOL    HW227752   2.831   8.364   1.353 -0.1730 -0.8982  0.3796
 8846SOL     OW27753   2.967   7.385   0.067  0.1624 -0.2789  0.1149
 8846SOL    HW127754   2.983   7.297   0.101 -1.9024 -0.3850  1.0055
 8846SOL    HW227755   2.921   7.430   0.138  1.2537  1.5824 -0.2833
 8847SOL     OW27756   1.703   7.870   1.369 -0.7513 -0.0814  0.8734
 8847SOL    HW127757   1.787   7.883   1.325  0.4273 -2.8196  2.0607
 8847SOL    HW227758   1.645   7.836   1.301 -0.4765  0.4751  0.3545
 8848SOL     OW27759   3.526   8.181   0.079  0.2072  0.4958 -0.3764
 8848SOL    HW127760   3.526   8.090   0.049 -0.9385  0.3410  0.0503
 8848SOL    HW227761   3.583   8.180   0.156  0.2819  0.1670 -0.4337
 8849SOL     OW27762   2.174   7.109   1.423 -0.6745  0.0622 -0.8337
 8849SOL    HW127763   2.135   7.022   1.415 -3.0866  1.0749 -0.7304
 8849SOL    HW227764   2.179   7.124   1.517 -0.3995  0.1077 -0.8544
 8850SOL     OW27765   3.114   8.537   1.023  0.0352  0.2112  0.1458
 8850SOL    HW127766   3.032   8.585   1.022 -0.7396 -1.0404  0.7006
 8850SOL    HW227767   3.124   8.504   0.934 -0.9472 -1.0060  0.4505
 8851SOL     OW27768   2.530   8.329   8.848  0.3437  0.2910  0.0381
 8851SOL    HW127769   2.522   8.265   8.919 -1.3223 -0.3436 -0.6665
 8851SOL    HW227770   2.522   8.414   8.891  0.2458 -0.0550  0.7080
 8852SOL     OW27771   3.083   7.994   0.603  0.2096  0.2448 -0.3503
 8852SOL    HW127772   3.112   7.928   0.540  0.5986  1.2870 -1.2921
 8852SOL    HW227773   2.990   7.975   0.616  0.0279  0.2463 -1.5535
 8853SOL     OW27774   3.076   7.961   1.406  0.1878 -0.4631  0.5107
 8853SOL    HW127775   3.084   7.947   1.501  0.0310  0.4948  0.6785
 8853SOL    HW227776   3.148   8.021   1.385 -0.4308  0.1948  0.2256
 8854SOL     OW27777   3.509   7.958   1.267 -0.0976  0.3704 -0.4889
 8854SOL    HW127778   3.475   7.869   1.279  1.1534  0.0588  1.2324
 8854SOL    HW227779   3.602   7.950   1.290  0.1575  2.0197 -0.8736
 8855SOL     OW27780   2.796   8.010   1.650 -0.6545  0.2315 -0.0801
 8855SOL    HW127781   2.842   8.064   1.714  1.2842 -1.0255 -0.3178
 8855SOL    HW227782   2.759   8.073   1.588  1.0055  1.3461 -0.0223
 8856SOL     OW27783   2.865   7.739   0.700  0.5897 -0.0154  0.7410
 8856SOL    HW127784   2.842   7.741   0.793  0.5565 -0.5466  0.7492
 8856SOL    HW227785   2.946   7.687   0.697 -0.4793 -1.7504  0.2732
 8857SOL     OW27786   2.860   8.185   0.067  0.0591 -0.2318  0.1578
 8857SOL    HW127787   2.848   8.257   0.128 -1.2408 -1.0620  0.9445
 8857SOL    HW227788   2.902   8.224  -0.009 -2.5314  1.8651 -0.3500
 8858SOL     OW27789   1.716   8.275   0.461  0.4081  0.3366 -0.1022
 8858SOL    HW127790   1.753   8.194   0.426 -1.6090 -0.5450 -0.3510
 8858SOL    HW227791   1.696   8.327   0.383 -1.3265 -0.3670 -0.1752
 8859SOL     OW27792   3.396   7.581   0.183 -0.3935 -0.0844  0.8387
 8859SOL    HW127793   3.447   7.502   0.168  0.1480  0.6135 -1.3983
 8859SOL    HW227794   3.458   7.641   0.226 -0.6866 -0.6902  2.1611
 8860SOL     OW27795   3.926   7.982   2.233  0.8650 -0.4100  0.5848
 8860SOL    HW127796   3.850   7.955   2.181  2.0514 -2.7562 -0.0641
 8860SOL    HW227797   3.972   7.901   2.253  1.8802  0.6854  3.1537
 8861SOL     OW27798   3.209   8.553   8.763  0.0898  0.6486 -0.0534
 8861SOL    HW127799   3.135   8.495   8.746  0.4382 -0.2005  1.1727
 8861SOL    HW227800   3.215   8.609   8.685 -0.6917 -0.4985 -0.9605
 8862SOL     OW27801   2.446   7.994   0.949  0.0298 -0.2800  0.7034
 8862SOL    HW127802   2.464   7.989   0.855  0.3263 -0.3241  0.7619
 8862SOL    HW227803   2.518   7.946   0.990  0.5283  0.7107  1.0199
 8863SOL     OW27804   3.533   8.693   1.066 -0.4329  0.5847 -0.0150
 8863SOL    HW127805   3.572   8.663   1.148 -1.0759  1.7276  0.7360
 8863SOL    HW227806   3.606   8.728   1.015 -0.3343  2.0528  1.0795
 8864SOL     OW27807   1.749   8.290   0.071 -0.0186 -0.9741 -0.8815
 8864SOL    HW127808   1.834   8.283   0.115  0.6006  1.5693 -1.4947
 8864SOL    HW227809   1.689   8.319   0.140 -0.1392 -1.6524 -0.6976
 8865SOL     OW27810   2.832   8.389   0.412 -0.0683  0.6867  0.4083
 8865SOL    HW127811   2.901   8.442   0.370 -0.5278  1.1285  0.1970
 8865SOL    HW227812   2.845   8.402   0.506 -1.0090  2.2862  0.3475
 8866SOL     OW27813   2.424   8.356   1.550  0.5489  0.6509 -0.0083
 8866SOL    HW127814   2.383   8.354   1.464  0.3899 -0.1189  0.0725
 8866SOL    HW227815   2.362   8.404   1.605 -1.3525 -2.2677  0.6181
 8867SOL     OW27816   1.583   7.170   1.242  0.0995  0.1437 -0.0933
 8867SOL    HW127817   1.662   7.119   1.255 -0.3096 -0.7770 -1.0444
 8867SOL    HW227818   1.609   7.241   1.183  0.6825  1.0981  1.2816
 8868SOL     OW27819   3.503   8.569   0.078  0.2890  0.3928  0.0229
 8868SOL    HW127820   3.524   8.614   0.159 -0.1031  1.2737 -0.3473
 8868SOL    HW227821   3.426   8.515   0.099  1.5359 -1.1598  0.8087
 8869SOL     OW27822   3.633   7.748   0.225  0.6220  0.5571 -0.0839
 8869SOL    HW127823   3.697   7.686   0.260 -1.4183 -1.4338  0.3293
 8869SOL    HW227824   3.587   7.781   0.302  0.5712  1.3123 -0.4323
 8870SOL     OW27825   2.003   8.246   0.180 -0.0997  0.1810 -0.1926
 8870SOL    HW127826   2.063   8.212   0.246 -2.8337 -2.7557  1.0686
 8870SOL    HW227827   2.043   8.222   0.097  0.9051 -0.8454  0.5545
 8871SOL     OW27828   3.355   7.708   1.229  0.5282  0.0154  0.3998
 8871SOL    HW127829   3.359   7.716   1.324 -2.0277  0.4712  0.5322
 8871SOL    HW227830   3.366   7.615   1.212  2.0331  0.0455  1.0141
 8872SOL     OW27831   3.102   7.731   1.240 -0.1252 -0.1695 -0.6267
 8872SOL    HW127832   3.198   7.730   1.234 -0.0139  1.9689  0.1468
 8872SOL    HW227833   3.080   7.822   1.260 -2.5526  0.2470 -4.2648
 8873SOL     OW27834   3.249   8.337   1.155  0.1464  0.2637  0.2205
 8873SOL    HW127835   3.206   8.411   1.111 -0.6055 -0.6452 -0.5992
 8873SOL    HW227836   3.341   8.361   1.157  0.1236  0.5908 -1.3545
 8874SOL     OW27837   2.484   7.950   0.688 -0.1388  0.1018 -0.0697
 8874SOL    HW127838   2.493   7.856   0.675 -0.0316 -0.1423  1.5748
 8874SOL    HW227839   2.402   7.973   0.643 -0.8533 -1.0290  0.5902
 8875SOL     OW27840   2.286   7.415   0.194  0.0095 -0.0562  0.0530
 8875SOL    HW127841   2.208   7.361   0.187 -0.6701  1.1115 -1.9350
 8875SOL    HW227842   2.255   7.499   0.226  0.6565  0.0340  0.4730
 8876SOL     OW27843   2.996   8.324   8.697  0.5163 -0.7267  0.6027
 8876SOL    HW127844   2.945   8.400   8.670 -1.0159 -0.7413  3.1976
 8876SOL    HW227845   2.985   8.262   8.625 -1.0258  0.2256 -0.0399
 8877SOL     OW27846   2.833   7.718   0.430 -0.1800 -0.1211  0.1621
 8877SOL    HW127847   2.904   7.777   0.403  0.2541 -0.5598  0.3363
 8877SOL    HW227848   2.834   7.723   0.525  0.3739 -1.0015  0.2139
 8878SOL     OW27849   3.098   7.849   0.868 -0.1308 -0.8568  0.4059
 8878SOL    HW127850   3.189   7.843   0.897 -0.1013 -0.6888  0.3473
 8878SOL    HW227851   3.094   7.930   0.818 -1.0681  0.9299  3.1353
 8879SOL     OW27852   3.173   8.767   0.484  0.1844  0.4545  0.3249
 8879SOL    HW127853   3.103   8.771   0.418  0.1263 -1.3077  0.2348
 8879SOL    HW227854   3.239   8.829   0.452 -0.2169  0.2698 -0.9433
 8880SOL     OW27855   2.599   8.617   0.438 -0.1231  0.2999 -0.6592
 8880SOL    HW127856   2.642   8.581   0.360 -0.4120  1.1971 -1.2448
 8880SOL    HW227857   2.652   8.693   0.461  0.2428 -0.2336  0.3265
 8881SOL     OW27858   3.209   7.683   0.002  0.3098 -0.2577 -0.4493
 8881SOL    HW127859   3.187   7.776   0.002 -4.3333 -1.1006  0.9188
 8881SOL    HW227860   3.263   7.672   0.080 -1.8758  0.9247  1.3533
 8882SOL     OW27861   1.713   7.488   1.365  0.4773 -0.7091 -0.1124
 8882SOL    HW127862   1.722   7.580   1.391 -0.1374 -0.6513 -0.1005
 8882SOL    HW227863   1.802   7.454   1.370  0.8930  0.1604 -1.1492
 8883SOL     OW27864   2.695   7.920   1.114 -0.1687 -0.1985 -0.4116
 8883SOL    HW127865   2.667   8.008   1.135 -1.5990 -0.8354  0.4640
 8883SOL    HW227866   2.727   7.884   1.197 -1.2102 -1.0650 -0.3684
 8884SOL     OW27867   2.225   7.669   0.288  0.4983 -0.7929 -0.1711
 8884SOL    HW127868   2.311   7.710   0.295 -0.0837  0.1662  2.0057
 8884SOL    HW227869   2.172   7.733   0.241  0.3770 -0.3661  0.5437
 8885SOL     OW27870   2.875   7.452   0.312  0.0654  0.1425  0.2378
 8885SOL    HW127871   2.836   7.519   0.369 -2.1575 -0.7337 -0.1371
 8885SOL    HW227872   2.870   7.372   0.364  1.7065  0.0226  0.2648
 8886SOL     OW27873   3.044   8.226   0.811 -0.0855 -0.0269 -0.0566
 8886SOL    HW127874   3.127   8.212   0.857 -0.4104 -0.4293  0.4251
 8886SOL    HW227875   2.979   8.182   0.866 -0.9763  2.2336  0.8205
 8887SOL     OW27876   3.321   8.111   0.680  0.0428  0.2131  0.8365
 8887SOL    HW127877   3.296   8.146   0.766 -0.4995  1.4144  0.2144
 8887SOL    HW227878   3.243   8.064   0.650 -0.5181  1.5719  0.1119
 8888SOL     OW27879   3.970   8.125   0.608  0.3568 -0.1001 -0.2163
 8888SOL    HW127880   4.024   8.167   0.674 -0.4859 -1.4060  1.3751
 8888SOL    HW227881   3.985   8.031   0.620 -0.5167 -0.4013 -1.2821
 8889SOL     OW27882   3.383   0.060   0.333  0.6170  0.8901  0.5618
 8889SOL    HW127883   3.445  -0.012   0.319 -0.5645  0.0544 -0.5205
 8889SOL    HW227884   3.390   0.113   0.253 -0.0246  0.8136  0.4528
 8890SOL     OW27885   3.530   7.879   0.003  0.0864  0.0014  0.0624
 8890SOL    HW127886   3.554   7.851   0.091  2.1431  0.2986 -0.3521
 8890SOL    HW227887   3.596   7.840  -0.054  0.2076  1.7337 -1.0690
 8891SOL     OW27888   2.690   7.707   0.186 -0.3697 -0.0518  0.5913
 8891SOL    HW127889   2.728   7.689   0.271  0.8585 -1.2137 -0.1712
 8891SOL    HW227890   2.752   7.767   0.143 -0.0967 -0.8258 -0.1203
 8892SOL     OW27891   3.495   0.391   1.248 -0.0693  0.0572  0.0563
 8892SOL    HW127892   3.526   0.391   1.339 -0.3047 -0.9925  0.1508
 8892SOL    HW227893   3.461   0.479   1.234 -1.9584 -0.3449  1.6702
 8893SOL     OW27894   2.863   8.782   1.273  0.7968 -0.4534 -0.2428
 8893SOL    HW127895   2.900   8.777   1.185 -1.4834 -0.5454 -1.2831
 8893SOL    HW227896   2.820   8.697   1.285 -1.2901  0.5428 -0.2485
 8894SOL     OW27897   3.186   8.839   0.964 -0.0608  0.4519 -0.5769
 8894SOL    HW127898   3.120   8.857   0.896 -1.2080 -1.1344  0.0505
 8894SOL    HW227899   3.242   8.772   0.925 -1.2347 -1.0939  0.2867
 8895SOL     OW27900   3.373   0.015   1.157  0.3889  0.4186  0.8293
 8895SOL    HW127901   3.298   0.009   1.098 -0.5784 -0.4006  2.0963
 8895SOL    HW227902   3.435  -0.051   1.126 -0.0511  0.0944  0.6408
 8896SOL     OW27903   3.053   7.591   0.975 -0.0502  0.1627 -0.6553
 8896SOL    HW127904   3.052   7.624   1.065 -1.5805 -1.3856 -0.0515
 8896SOL    HW227905   3.082   7.666   0.923  0.7653  1.1320  1.0935
 8897SOL     OW27906   2.789   8.251   1.819 -0.4765  0.1430 -0.1552
 8897SOL    HW127907   2.696   8.273   1.831 -0.2646  0.8755  0.1919
 8897SOL    HW227908   2.811   8.199   1.896 -0.6336 -0.1795 -0.3214
 8898SOL     OW27909   2.946   0.003   0.280  0.1934  0.0320  0.0338
 8898SOL    HW127910   2.972  -0.041   0.199  2.2157  0.7580  0.2106
 8898SOL    HW227911   2.851  -0.005   0.283 -0.5020  2.9338 -4.2099
 8899SOL     OW27912   2.362   7.709   1.314  0.2293 -0.6240 -0.5594
 8899SOL    HW127913   2.365   7.803   1.300  0.4382 -0.3618  1.0354
 8899SOL    HW227914   2.442   7.689   1.363  0.8914 -1.8669 -2.0804
 8900SOL     OW27915   3.883   7.851   0.914  0.4264  0.0857 -0.3800
 8900SOL    HW127916   3.887   7.776   0.973 -1.4241 -0.4922 -0.9226
 8900SOL    HW227917   3.790   7.871   0.907  0.8352  2.0693 -0.7355
 8901SOL     OW27918   2.106   8.461   8.802  0.0348 -0.3407 -0.6007
 8901SOL    HW127919   2.097   8.376   8.845  1.1242  1.1717  2.9690
 8901SOL    HW227920   2.165   8.446   8.729 -0.7279 -2.8156 -0.7838
 8902SOL     OW27921   2.372   8.230   0.989 -0.0484 -0.7850  0.0857
 8902SOL    HW127922   2.430   8.249   1.063  1.2593 -1.8388 -0.6076
 8902SOL    HW227923   2.393   8.140   0.965 -0.5818 -0.5333 -1.4348
 8903SOL     OW27924   3.134   0.117   0.038  0.4545 -1.1841 -0.2888
 8903SOL    HW127925   3.104   0.140  -0.050 -0.6145 -2.4847 -0.2969
 8903SOL    HW227926   3.132   0.200   0.087  1.6783 -0.3151 -1.6165
 8904SOL     OW27927   3.467   7.845   0.449 -0.2389 -0.1842 -0.0172
 8904SOL    HW127928   3.531   7.871   0.516  1.7150 -1.1087 -1.4234
 8904SOL    HW227929   3.420   7.771   0.489  1.5930 -1.3979  0.0325
 8905SOL     OW27930   2.774   7.742   1.628 -0.8098 -0.0300  0.3127
 8905SOL    HW127931   2.828   7.703   1.697  0.0998 -0.2567 -0.4971
 8905SOL    HW227932   2.793   7.836   1.633 -0.9976 -0.0073  0.5839
 8906SOL     OW27933   3.780   8.511   1.250  0.2200  0.6351  0.1462
 8906SOL    HW127934   3.872   8.537   1.255  0.1756  0.5762  2.8661
 8906SOL    HW227935   3.731   8.587   1.282 -0.4899  0.0015  0.6383
 8907SOL     OW27936   3.111   7.847   1.667 -0.2556  0.6751 -0.4465
 8907SOL    HW127937   3.190   7.879   1.710 -1.0210  0.5917  1.1099
 8907SOL    HW227938   3.039   7.877   1.724 -1.1837 -1.1671 -0.5730
 8908SOL     OW27939   2.212   7.408   1.770 -0.4210  0.3406  0.3061
 8908SOL    HW127940   2.193   7.314   1.779 -1.3375  0.6284  1.7758
 8908SOL    HW227941   2.127   7.450   1.783  0.1400  1.4156  0.5493
 8909SOL     OW27942   2.724   8.453   1.058 -0.1530  0.4740  0.0132
 8909SOL    HW127943   2.810   8.418   1.081 -1.1950 -1.7869  0.7788
 8909SOL    HW227944   2.705   8.417   0.971 -0.8114 -0.0302  0.3575
 8910SOL     OW27945   3.096   8.485   0.758  0.4063 -0.0114 -0.6470
 8910SOL    HW127946   3.084   8.395   0.788  0.6529  0.2902  0.4085
 8910SOL    HW227947   3.019   8.504   0.706 -0.6580 -0.1766  0.8023
 8911SOL     OW27948   3.087   7.931   8.363  0.1252  0.8177 -0.1470
 8911SOL    HW127949   3.000   7.921   8.402  0.2979  0.1955  0.0883
 8911SOL    HW227950   3.141   7.967   8.433  0.8337 -1.8014  0.7622
 8912SOL     OW27951   1.821   7.238   0.996 -0.2576 -0.3418 -0.1192
 8912SOL    HW127952   1.738   7.201   0.966 -0.7673  0.2668  0.5132
 8912SOL    HW227953   1.810   7.333   0.986 -0.4292 -0.1099  1.9007
 8913SOL     OW27954   1.875   0.014   1.026 -0.7489  0.4498  0.2443
 8913SOL    HW127955   1.876  -0.040   0.947  1.0865 -0.3333  0.7635
 8913SOL    HW227956   1.864  -0.049   1.098  0.4684  0.8490  0.7948
 8914SOL     OW27957   2.951   8.284   1.130  0.7019  0.8978 -0.3282
 8914SOL    HW127958   2.938   8.200   1.086 -1.3681  0.5460  0.8136
 8914SOL    HW227959   3.045   8.288   1.146  0.8602 -1.2503 -0.3701
 8915SOL     OW27960   3.725   8.341   1.487 -0.0529 -0.5428  0.1948
 8915SOL    HW127961   3.762   8.406   1.548 -0.1047 -0.2703 -0.0603
 8915SOL    HW227962   3.754   8.370   1.401  0.6274 -1.3409  0.1513
 8916SOL     OW27963   2.284   7.166   0.443 -0.1020 -0.5370 -0.0048
 8916SOL    HW127964   2.245   7.080   0.428  1.7263 -1.7318  1.5511
 8916SOL    HW227965   2.347   7.176   0.372  0.3692 -0.9642  0.3387
 8917SOL     OW27966   3.618   8.154   0.346 -0.0558 -0.1799 -0.1163
 8917SOL    HW127967   3.689   8.092   0.354 -0.0029 -0.0219  0.6672
 8917SOL    HW227968   3.592   8.174   0.436 -0.3514  0.6024 -0.3606
 8918SOL     OW27969   2.717   8.084   0.715 -0.4949  0.5863 -0.1638
 8918SOL    HW127970   2.743   8.097   0.623  1.8390  0.0290  0.3537
 8918SOL    HW227971   2.630   8.043   0.709  0.2737 -0.9243 -2.1814
 8919SOL     OW27972   3.224   0.368   0.881 -0.1915 -0.0144  0.1887
 8919SOL    HW127973   3.204   0.337   0.792 -2.4167  1.6345  0.0099
 8919SOL    HW227974   3.307   0.414   0.872  0.7818 -1.8108 -0.5081
 8920SOL     OW27975   2.204   8.124   1.725 -0.3393  0.6599 -0.5229
 8920SOL    HW127976   2.246   8.149   1.642  1.0825 -0.9709 -0.3527
 8920SOL    HW227977   2.276   8.090   1.779 -1.3834  0.8371  1.0509
 8921SOL     OW27978   3.831   7.396   8.844 -0.6134 -0.0267  0.1496
 8921SOL    HW127979   3.880   7.420   8.765  0.2453  1.2382  1.0290
 8921SOL    HW227980   3.846   7.302   8.854  2.2037  0.3926  0.7004
 8922SOL     OW27981   3.274   7.997   8.608  0.0205 -0.0526 -0.1829
 8922SOL    HW127982   3.244   8.073   8.656  0.7628  1.0176 -1.3381
 8922SOL    HW227983   3.358   7.974   8.649  0.2805  0.3849 -0.4569
 8923SOL     OW27984   2.137   8.243   0.866 -0.4554  0.0285  0.2006
 8923SOL    HW127985   2.214   8.229   0.921 -0.6329 -0.0551  0.4304
 8923SOL    HW227986   2.089   8.160   0.870 -0.1768 -0.1715 -0.5454
 8924SOL     OW27987   2.167   7.821   0.915 -0.2205  0.2023  0.0411
 8924SOL    HW127988   2.216   7.846   0.993 -1.7660  2.5280  0.3672
 8924SOL    HW227989   2.114   7.746   0.943  1.8104 -1.2747  0.1405
 8925SOL     OW27990   3.264   8.160   0.949  0.5194  1.0451 -0.2718
 8925SOL    HW127991   3.309   8.082   0.981 -1.9168 -0.6595 -0.7005
 8925SOL    HW227992   3.253   8.214   1.027  0.0475 -0.2356  0.5926
 8926SOL     OW27993   3.301   8.157   1.402  0.2843 -0.1663 -0.4057
 8926SOL    HW127994   3.309   8.221   1.331 -0.9666 -1.4279 -1.7686
 8926SOL    HW227995   3.373   8.095   1.387  0.0953 -0.3626 -0.5093
 8927SOL     OW27996   2.858   8.083   0.955  0.2984 -0.0494 -0.1135
 8927SOL    HW127997   2.816   8.009   0.997 -1.2063  0.8716  0.0952
 8927SOL    HW227998   2.810   8.095   0.873  0.3206  0.8604 -0.0084
 8928SOL     OW27999   1.802   7.913   0.941  0.3022  0.0773 -0.3862
 8928SOL    HW128000   1.805   8.003   0.975 -2.2939 -0.3324  1.2993
 8928SOL    HW228001   1.892   7.883   0.944  1.3023  2.6833 -1.2722
 8929SOL     OW28002   2.505   7.438   1.709 -0.1960  0.0848 -0.9922
 8929SOL    HW128003   2.509   7.343   1.693 -0.2432 -0.2551  0.7545
 8929SOL    HW228004   2.434   7.449   1.772 -1.0085  1.4603 -2.0928
 8930SOL     OW28005   3.721   8.665   1.632 -0.0474 -0.6791  0.3898
 8930SOL    HW128006   3.809   8.701   1.618 -0.2523 -0.7210 -1.2953
 8930SOL    HW228007   3.678   8.728   1.689  0.4223  0.4422 -0.4543
 8931SOL     OW28008   2.460   7.839   0.209  0.2232  0.1763  0.5375
 8931SOL    HW128009   2.429   7.850   0.119 -0.4360 -0.4041  0.6839
 8931SOL    HW228010   2.546   7.797   0.199 -0.5204 -1.3476  0.1951
 8932SOL     OW28011   3.536   8.217   0.588  0.1703  0.3778  0.1611
 8932SOL    HW128012   3.472   8.162   0.634 -0.1489 -0.3129 -1.0634
 8932SOL    HW228013   3.567   8.279   0.654 -1.6903  0.6629  0.8151
 8933SOL     OW28014   2.756   7.692   0.967  0.2678  0.5221 -0.0445
 8933SOL    HW128015   2.711   7.766   1.007 -2.1374 -1.0591  0.4485
 8933SOL    HW228016   2.796   7.645   1.039 -2.1476 -1.0767  0.4087
 8934SOL     OW28017   3.160   7.543   0.319  0.2437  0.1020  0.2337
 8934SOL    HW128018   3.082   7.499   0.286 -0.0651  0.5381  0.3690
 8934SOL    HW228019   3.226   7.531   0.251  0.0235 -0.1639  0.0654
 8935SOL     OW28020   1.872   8.325   1.480 -0.1722 -0.4971  0.5392
 8935SOL    HW128021   1.820   8.252   1.514 -1.4541 -0.1002 -0.4560
 8935SOL    HW228022   1.875   8.387   1.553 -1.1372 -0.5225  0.6229
 8936SOL     OW28023   2.354   8.355   1.298 -0.1225 -0.2442 -0.0050
 8936SOL    HW128024   2.383   8.427   1.242  0.2479 -1.0815 -0.9064
 8936SOL    HW228025   2.259   8.360   1.296 -0.1091  0.6195  0.4908
 8937SOL     OW28026   3.214   8.198   8.797 -0.2146  0.4165 -0.5509
 8937SOL    HW128027   3.135   8.251   8.790 -0.4676  0.0449 -0.5448
 8937SOL    HW228028   3.261   8.235   8.872 -1.3168 -0.5727  0.6687
 8938SOL     OW28029   2.018   8.022   1.152  0.0475 -0.1735  0.5192
 8938SOL    HW128030   1.940   8.047   1.103 -0.2263 -0.9799  0.5271
 8938SOL    HW228031   2.042   8.101   1.201 -0.5340  0.1968  0.2186
 8939SOL     OW28032   3.185   7.228   8.650  0.3793 -0.3904 -0.0575
 8939SOL    HW128033   3.277   7.250   8.635 -0.6812  3.5398 -2.2951
 8939SOL    HW228034   3.146   7.310   8.681 -2.3977 -1.9258  0.7906
 8940SOL     OW28035   3.890   7.597   0.580 -0.0854  0.4059 -0.2398
 8940SOL    HW128036   3.795   7.610   0.584  0.0783  1.9742 -0.8321
 8940SOL    HW228037   3.910   7.591   0.487  0.4131  0.1752 -0.1215
 8941SOL     OW28038   3.232   8.197   0.415  0.4178  0.1636  0.7250
 8941SOL    HW128039   3.154   8.193   0.470  1.7609 -1.9545  2.6857
 8941SOL    HW228040   3.304   8.202   0.478  1.9989 -1.4921 -0.8639
 8942SOL     OW28041   2.627   8.151   1.483  0.1270 -0.5766 -0.3832
 8942SOL    HW128042   2.576   8.072   1.503 -0.5939  0.1621  0.8326
 8942SOL    HW228043   2.562   8.220   1.474  0.8338  0.1899  0.1825
 8943SOL     OW28044   4.295   7.584   0.790 -0.3629  0.4307 -0.2727
 8943SOL    HW128045   4.331   7.500   0.763 -0.6218  0.6694 -1.3809
 8943SOL    HW228046   4.260   7.623   0.710  0.5443  1.9931  0.0491
 8944SOL     OW28047   2.025   8.003   0.766 -0.4507 -0.1351 -0.6238
 8944SOL    HW128048   2.041   7.984   0.674  1.3133  1.5817 -0.7582
 8944SOL    HW228049   2.081   7.942   0.813 -1.7481 -1.3735 -0.6163
 8945SOL     OW28050   2.435   7.932   1.521 -0.0572 -0.2433  0.4625
 8945SOL    HW128051   2.472   7.854   1.563 -0.2064  0.8297  2.6878
 8945SOL    HW228052   2.340   7.923   1.532 -0.0644  0.3457  0.9275
 8946SOL     OW28053   2.433   8.127   0.250 -0.1420  0.1260 -0.0867
 8946SOL    HW128054   2.509   8.127   0.308 -0.2129 -1.4535  0.0296
 8946SOL    HW228055   2.405   8.036   0.246 -0.8128  0.3774 -1.7531
 8947SOL     OW28056   2.178   7.819   1.600 -0.2928 -0.3290  0.1180
 8947SOL    HW128057   2.233   7.782   1.670  0.9577 -0.2773 -0.7925
 8947SOL    HW228058   2.162   7.909   1.628  0.1857 -0.3095  0.3560
 8948SOL     OW28059   3.497   0.246   1.003  0.3122 -0.4091  0.1120
 8948SOL    HW128060   3.479   0.311   1.070  1.1004 -1.0698  0.9869
 8948SOL    HW228061   3.443   0.171   1.026 -0.1217 -0.3038 -0.5350
 8949SOL     OW28062   3.259   8.689   0.730  0.1263 -0.2167 -0.2916
 8949SOL    HW128063   3.202   8.617   0.759  0.7490 -0.4783  0.3054
 8949SOL    HW228064   3.232   8.705   0.639 -2.6466  1.3806  0.6765
 8950SOL     OW28065   3.091   7.593   0.665 -0.0536 -0.1755 -0.1726
 8950SOL    HW128066   3.115   7.519   0.609 -0.0110  0.0757 -0.4943
 8950SOL    HW228067   3.047   7.554   0.740  1.3383 -0.6473  0.4191
 8951SOL     OW28068   3.582   8.243   0.927  0.2591 -0.0322 -0.7100
 8951SOL    HW128069   3.603   8.238   1.020  1.1355  0.9121 -0.8344
 8951SOL    HW228070   3.524   8.319   0.920 -1.6485 -1.4267 -0.6493
 8952SOL     OW28071   1.799   8.630   1.492  0.1179  0.3754  0.6409
 8952SOL    HW128072   1.716   8.583   1.503  1.4066 -2.6812 -1.4435
 8952SOL    HW228073   1.858   8.589   1.555  0.4519  1.5316  1.1004
 8953SOL     OW28074   2.651   7.596   1.274 -0.3945  0.6737  0.0528
 8953SOL    HW128075   2.662   7.540   1.352 -0.6048 -0.1266 -0.4753
 8953SOL    HW228076   2.698   7.676   1.295  0.1798  0.1757  0.7217
 8954SOL     OW28077   2.280   7.713   8.821 -0.2511  0.1194  0.2087
 8954SOL    HW128078   2.297   7.704   8.727 -0.3300  1.5005  0.0330
 8954SOL    HW228079   2.219   7.643   8.841 -0.3363 -0.1160 -0.7989
 8955SOL     OW28080   3.156   8.501   1.662 -0.3268 -0.5941  0.6336
 8955SOL    HW128081   3.063   8.522   1.668 -0.3397  0.1996 -1.4888
 8955SOL    HW228082   3.192   8.570   1.606  1.2821 -1.5982  0.3737
 8956SOL     OW28083   1.651   7.769   0.207 -0.3360 -0.2718 -0.1772
 8956SOL    HW128084   1.558   7.758   0.224 -0.0355 -1.8089  0.6422
 8956SOL    HW228085   1.668   7.716   0.129  0.0025 -0.6739  0.1668
 8957SOL     OW28086   2.610   8.194   1.166  0.1979 -0.3008 -0.7523
 8957SOL    HW128087   2.608   8.205   1.261  0.5453 -0.9059 -0.6631
 8957SOL    HW228088   2.635   8.279   1.132  0.4678 -0.1821 -0.2715
 8958SOL     OW28089   2.949   8.012   1.882 -0.9100  0.9291  0.4647
 8958SOL    HW128090   2.910   8.028   1.968 -0.6107 -0.4405  0.8671
 8958SOL    HW228091   3.036   8.052   1.887 -0.7358  0.4893  0.9362
 8959SOL     OW28092   3.232   8.690   1.478  0.1120 -0.1628  0.1828
 8959SOL    HW128093   3.152   8.726   1.439  1.1624  1.2695 -0.7853
 8959SOL    HW228094   3.295   8.763   1.474  0.7065 -0.3608  3.3806
 8960SOL     OW28095   3.412   0.065   1.439 -0.3992  0.7461 -0.1087
 8960SOL    HW128096   3.392   0.087   1.348 -3.0584 -1.0259 -0.0696
 8960SOL    HW228097   3.384   0.143   1.488 -2.3433  0.4112 -0.5829
 8961SOL     OW28098   3.092   7.812   0.385  0.1773 -0.3973 -0.3176
 8961SOL    HW128099   3.096   7.721   0.355 -0.8588  0.0180 -1.8650
 8961SOL    HW228100   3.140   7.862   0.319  2.0139  0.0642  1.2724
 8962SOL     OW28101   2.840   8.510   0.649 -0.0304 -0.5284 -0.3940
 8962SOL    HW128102   2.826   8.604   0.664  2.4726 -0.6281  4.5370
 8962SOL    HW228103   2.773   8.467   0.702 -0.8893 -1.6535 -2.2853
 8963SOL     OW28104   3.702   8.190   1.184  0.0288  0.0817 -0.1232
 8963SOL    HW128105   3.776   8.251   1.184  1.0751 -1.1115 -1.3933
 8963SOL    HW228106   3.738   8.110   1.224 -1.2070  0.1349  1.1754
 8964SOL     OW28107   3.626   8.701   1.387 -0.4801 -0.6958 -0.4044
 8964SOL    HW128108   3.569   8.777   1.379  1.2991  0.9904  1.4998
 8964SOL    HW228109   3.641   8.693   1.482  3.9694  0.3428 -0.7731
 8965SOL     OW28110   2.686   8.346   0.831 -0.8435 -0.0198  0.3737
 8965SOL    HW128111   2.608   8.384   0.790 -1.2863 -0.9373  0.3216
 8965SOL    HW228112   2.691   8.258   0.793 -0.6801 -0.5296  1.5354
 8966SOL     OW28113   2.802   8.029   8.475  0.0584 -0.5414  0.2002
 8966SOL    HW128114   2.760   8.090   8.535  0.3109 -0.0646 -0.0947
 8966SOL    HW228115   2.736   8.011   8.408  0.3978  0.4404 -0.4285
 8967SOL     OW28116   1.937   8.489   1.711 -0.1408  0.1348  0.1752
 8967SOL    HW128117   1.912   8.552   1.779  0.0342  1.0470 -0.5828
 8967SOL    HW228118   2.022   8.456   1.740 -0.1429  0.3937  0.4845
 8968SOL     OW28119   1.968   8.440   0.766 -0.0813 -0.3273 -0.8587
 8968SOL    HW128120   2.028   8.374   0.801 -0.0872  0.4130  0.6135
 8968SOL    HW228121   1.993   8.448   0.674 -0.4150 -2.7176 -1.2019
 8969SOL     OW28122   2.176   8.106   1.445 -0.3412 -0.4631  0.2776
 8969SOL    HW128123   2.125   8.171   1.398 -0.4928 -1.7980 -1.5090
 8969SOL    HW228124   2.234   8.068   1.378  2.0313  0.0319  1.9277
 8970SOL     OW28125   3.791   7.294   1.107 -0.3559  0.3261  0.0245
 8970SOL    HW128126   3.759   7.333   1.025 -0.0430 -0.3608 -0.4331
 8970SOL    HW228127   3.719   7.238   1.135  0.3916 -1.2139 -1.0010
 8971SOL     OW28128   2.297   8.218   0.604 -0.1813 -0.1866 -0.1933
 8971SOL    HW128129   2.274   8.241   0.694 -2.4101  0.7341 -0.9179
 8971SOL    HW228130   2.369   8.276   0.582 -1.0123  1.0921  0.3429
 8972SOL     OW28131   3.706   0.263   0.838 -0.5364  0.0117 -0.3573
 8972SOL    HW128132   3.727   0.172   0.820 -1.9473 -0.1199 -1.4399
 8972SOL    HW228133   3.641   0.259   0.909  0.8743  0.3013  1.0202
 8973SOL     OW28134   2.176   7.544   1.510  0.6658  0.4698 -0.0336
 8973SOL    HW128135   2.238   7.616   1.516  1.9869 -0.7209  1.4260
 8973SOL    HW228136   2.210   7.478   1.570 -1.2356 -0.8287 -0.2984
 8974SOL     OW28137   3.632   7.978   0.955  0.1338 -0.1846  0.3398
 8974SOL    HW128138   3.631   8.052   0.894  1.6883 -0.7234 -0.3761
 8974SOL    HW228139   3.629   8.019   1.042  0.8329  0.7272 -0.0510
 8975SOL     OW28140   3.082   7.321   0.973 -0.3263 -0.0781 -0.2505
 8975SOL    HW128141   3.059   7.412   0.994 -2.1745 -0.6415  0.3676
 8975SOL    HW228142   3.045   7.270   1.045 -0.3260 -1.4304 -1.1786
 8976SOL     OW28143   3.058   8.485   0.284  0.4184  0.0884  0.6592
 8976SOL    HW128144   3.094   8.569   0.254 -0.6666  0.0643 -0.8884
 8976SOL    HW228145   3.128   8.422   0.269  0.7152  0.4791  0.3774
 8977SOL     OW28146   3.538   7.261   0.392  1.0659 -0.1960  1.0702
 8977SOL    HW128147   3.535   7.310   0.310  0.4936  0.4045  1.4452
 8977SOL    HW228148   3.505   7.321   0.458  2.1745 -0.4433  1.8751
 8978SOL     OW28149   3.128   7.942   0.039  0.1931  0.2339 -0.3735
 8978SOL    HW128150   3.183   7.954   0.116 -0.4568  2.3434 -0.1680
 8978SOL    HW228151   3.136   8.024  -0.010 -1.7142  0.1070 -1.0002
 8979SOL     OW28152   3.991   7.447   0.791 -0.1291 -0.2336 -0.1249
 8979SOL    HW128153   3.967   7.516   0.729 -0.4814 -1.5899 -1.5740
 8979SOL    HW228154   4.008   7.371   0.736  2.5311 -0.7408  1.2439
 8980SOL     OW28155   1.975   8.463   0.481  0.0310  0.0960 -0.5062
 8980SOL    HW128156   1.894   8.451   0.432  0.0798 -0.3528 -0.4837
 8980SOL    HW228157   2.041   8.414   0.431 -0.0726 -1.0237  0.4054
 8981SOL     OW28158   2.415   7.493   2.145  0.4647  0.3128  0.0225
 8981SOL    HW128159   2.452   7.548   2.076 -0.5000  0.6399 -0.2600
 8981SOL    HW228160   2.320   7.507   2.138  0.3779  0.8616  1.8403
 8982SOL     OW28161   2.102   7.912   2.845  0.4796 -0.1716  0.2864
 8982SOL    HW128162   2.109   7.849   2.773 -0.9876 -0.1175  0.0676
 8982SOL    HW228163   2.184   7.902   2.894  1.9771  0.5027 -1.9274
 8983SOL     OW28164   2.421   8.184   2.621 -0.4045  0.3869  0.1110
 8983SOL    HW128165   2.404   8.277   2.635  0.6205  0.6854 -0.4965
 8983SOL    HW228166   2.387   8.166   2.534  1.9658  0.9265 -1.0014
 8984SOL     OW28167   2.638   8.271   2.924  0.1147  0.0866  0.8645
 8984SOL    HW128168   2.648   8.220   3.005  1.0173  0.0463  0.7435
 8984SOL    HW228169   2.643   8.362   2.952 -0.5974  0.0968  0.9719
 8985SOL     OW28170   3.524   0.236   2.742  0.4098  0.4066 -0.2936
 8985SOL    HW128171   3.611   0.257   2.706 -0.1476  0.7483 -1.4952
 8985SOL    HW228172   3.507   0.147   2.709 -0.3739  0.9630 -1.4612
 8986SOL     OW28173   3.384   8.186   2.073 -0.4689  0.1664  0.5044
 8986SOL    HW128174   3.466   8.161   2.031 -0.1776  1.6511  0.1420
 8986SOL    HW228175   3.384   8.138   2.156 -1.3298 -3.2961 -1.2976
 8987SOL     OW28176   3.975   8.820   2.180  0.0526 -0.0645  0.3267
 8987SOL    HW128177   3.905   8.758   2.198 -0.0328  0.3518  1.5260
 8987SOL    HW228178   3.941   8.904   2.209  0.2952  0.4909 -0.9722
 8988SOL     OW28179   2.852   8.160   2.756  0.0480 -0.1539  0.1748
 8988SOL    HW128180   2.903   8.239   2.736  0.9798 -0.3162  1.6985
 8988SOL    HW228181   2.785   8.190   2.817 -1.2102 -0.0965 -1.2012
 8989SOL     OW28182   2.299   8.576   3.837 -0.3155  0.2455 -0.1316
 8989SOL    HW128183   2.248   8.602   3.761 -0.0076  1.1999 -0.0204
 8989SOL    HW228184   2.305   8.481   3.830  0.1382  0.3562 -1.5803
 8990SOL     OW28185   2.959   8.673   2.022 -0.3326  0.1488  0.2165
 8990SOL    HW128186   2.936   8.694   1.932  0.8152 -1.2887 -0.4420
 8990SOL    HW228187   3.038   8.621   2.015 -1.7808 -2.4774  1.8656
 8991SOL     OW28188   2.143   8.636   3.601  0.0895  0.0343 -0.0405
 8991SOL    HW128189   2.067   8.692   3.621 -0.0353 -0.3860  0.7124
 8991SOL    HW228190   2.111   8.573   3.537 -0.1510 -0.0260  0.1374
 8992SOL     OW28191   2.350   8.448   2.643 -0.1353  0.1982  0.3503
 8992SOL    HW128192   2.370   8.517   2.580 -0.1983 -0.1217 -0.0256
 8992SOL    HW228193   2.281   8.485   2.697  0.6496  0.8688  0.9101
 8993SOL     OW28194   2.244   7.486   3.398 -0.3320  0.3263 -0.1904
 8993SOL    HW128195   2.197   7.409   3.368  0.1084 -0.0880  0.1739
 8993SOL    HW228196   2.306   7.506   3.328  0.3658 -0.3577  0.2066
 8994SOL     OW28197   3.259   7.966   2.561 -0.1875  0.2771 -0.3092
 8994SOL    HW128198   3.301   7.928   2.639  1.4632  1.0600 -0.7822
 8994SOL    HW228199   3.180   7.913   2.549  0.6368 -1.2507  0.6305
 8995SOL     OW28200   2.633   8.817   3.954  0.0744  0.5083  0.5246
 8995SOL    HW128201   2.647   8.731   3.993  1.7732  0.8445  0.7424
 8995SOL    HW228202   2.722   8.851   3.938 -0.5533  2.1683  0.3355
 8996SOL     OW28203   2.311   8.275   2.903  0.4725  0.5150 -0.5094
 8996SOL    HW128204   2.389   8.323   2.878 -0.4735  1.0854 -2.5480
 8996SOL    HW228205   2.277   8.239   2.821 -1.0141 -0.3136  0.4203
 8997SOL     OW28206   2.521   7.663   1.547  0.2966  0.3405 -0.2169
 8997SOL    HW128207   2.611   7.674   1.580  0.3959 -0.0872 -0.3432
 8997SOL    HW228208   2.488   7.586   1.591  0.3436 -0.0952 -0.9207
 8998SOL     OW28209   3.216   7.851   3.248 -0.0012 -0.3018 -0.0895
 8998SOL    HW128210   3.262   7.774   3.281  1.2904  0.5643  0.2070
 8998SOL    HW228211   3.174   7.889   3.325 -1.0767 -0.9614 -0.3213
 8999SOL     OW28212   1.973   7.792   2.344 -0.3445 -0.4093  0.0078
 8999SOL    HW128213   1.906   7.749   2.291 -0.6183 -0.0992  0.0960
 8999SOL    HW228214   1.928   7.816   2.425 -0.0863 -0.3346  0.1315
 9000SOL     OW28215   3.557   8.306   2.884  0.2949 -0.2491 -0.0844
 9000SOL    HW128216   3.649   8.311   2.859  0.1335  1.0538 -0.4857
 9000SOL    HW228217   3.556   8.252   2.963  1.6621  1.3084  1.0657
 9001SOL     OW28218   3.663   8.753   2.068  0.1881 -0.0540 -0.1001
 9001SOL    HW128219   3.668   8.843   2.100 -0.9720 -0.3736  1.0575
 9001SOL    HW228220   3.640   8.701   2.145  0.4936 -1.3039 -0.8221
 9002SOL     OW28221   2.321   7.931   3.282  0.6380  0.6019  0.4934
 9002SOL    HW128222   2.390   7.873   3.314  1.4276  1.3701  0.2333
 9002SOL    HW228223   2.328   8.009   3.338 -0.1258  0.6243  0.5666
 9003SOL     OW28224   2.845   8.696   2.278 -0.1204  0.0289 -0.4930
 9003SOL    HW128225   2.931   8.665   2.252  0.1212 -0.5126  0.8488
 9003SOL    HW228226   2.787   8.621   2.262  0.0505 -0.3505  0.5558
 9004SOL     OW28227   2.863   8.792   3.385 -0.3309  0.0796  0.8669
 9004SOL    HW128228   2.806   8.717   3.404 -0.6121 -0.3056 -1.2192
 9004SOL    HW228229   2.807   8.869   3.399 -0.7295 -0.2043  0.8621
 9005SOL     OW28230   2.948   7.928   2.320  0.0743  0.3946 -0.1611
 9005SOL    HW128231   3.001   8.008   2.309  1.0675 -0.2275 -0.0056
 9005SOL    HW228232   2.858   7.959   2.311  0.4854  1.2353 -2.1708
 9006SOL     OW28233   1.691   8.063   2.635 -0.5656  0.2056 -0.1839
 9006SOL    HW128234   1.696   8.094   2.725  1.2260 -0.1945 -0.0997
 9006SOL    HW228235   1.600   8.035   2.624 -0.6121 -0.5840  1.7826
 9007SOL     OW28236   3.277   8.810   1.948 -0.2842 -0.2594 -0.0405
 9007SOL    HW128237   3.313   8.891   1.912 -0.1977 -0.3149 -0.0776
 9007SOL    HW228238   3.263   8.829   2.041 -1.8148  0.3454 -0.3607
 9008SOL     OW28239   2.213   7.569   3.795 -0.1955  0.5853  0.0169
 9008SOL    HW128240   2.197   7.475   3.788 -0.8734  0.8061 -2.0290
 9008SOL    HW228241   2.283   7.586   3.733 -0.7962  1.5830 -0.4148
 9009SOL     OW28242   3.186   0.157   2.591 -0.0321  0.1174 -0.2680
 9009SOL    HW128243   3.147   0.092   2.532  1.0250 -0.3091 -0.5151
 9009SOL    HW228244   3.275   0.169   2.558 -0.2899  1.9253 -0.4056
 9010SOL     OW28245   2.826   8.132   2.087  0.1596  0.6155  0.0740
 9010SOL    HW128246   2.742   8.144   2.131  0.5566  1.1864  0.6907
 9010SOL    HW228247   2.890   8.174   2.145  0.9182 -0.1232 -0.2118
 9011SOL     OW28248   3.254   8.234   2.926 -0.4654 -0.3509 -0.3519
 9011SOL    HW128249   3.336   8.189   2.910 -0.2235  0.4145 -1.3575
 9011SOL    HW228250   3.188   8.180   2.883 -0.2267  0.0143 -1.2059
 9012SOL     OW28251   2.830   7.849   3.202 -0.3628 -0.3367 -0.1064
 9012SOL    HW128252   2.898   7.789   3.172 -1.0821 -0.4681 -1.5685
 9012SOL    HW228253   2.752   7.824   3.153 -0.9244  1.1858 -0.0547
 9013SOL     OW28254   3.627   7.940   3.251  0.1556 -0.1148  0.3394
 9013SOL    HW128255   3.556   7.964   3.310  0.3113 -0.9053  0.8683
 9013SOL    HW228256   3.609   7.848   3.228  0.4685 -0.0220 -0.3062
 9014SOL     OW28257   2.681   8.204   3.894  0.5294 -0.1831 -0.5316
 9014SOL    HW128258   2.750   8.141   3.874  0.3256 -0.4918 -0.2634
 9014SOL    HW228259   2.699   8.278   3.836  1.8767  0.3208  0.4777
 9015SOL     OW28260   3.025   7.740   3.067 -0.1137  0.7599  0.0108
 9015SOL    HW128261   3.080   7.802   3.115  0.6052 -0.3655  0.6638
 9015SOL    HW228262   3.077   7.716   2.990  0.9687 -1.3378  1.3056
 9016SOL     OW28263   3.008   8.197   2.274  0.5336  0.6007  0.5692
 9016SOL    HW128264   2.986   8.260   2.343  1.2752  1.2687  0.2053
 9016SOL    HW228265   3.080   8.238   2.226  0.3930 -0.1103 -0.2617
 9017SOL     OW28266   2.189   8.105   2.065 -0.0716 -0.1920 -0.1676
 9017SOL    HW128267   2.212   8.194   2.042  0.3193  0.1783  1.5349
 9017SOL    HW228268   2.242   8.050   2.007  0.7177  0.6798 -0.2852
 9018SOL     OW28269   3.058   7.591   1.543  0.9628 -0.3964 -0.4607
 9018SOL    HW128270   3.049   7.681   1.575 -0.5448 -0.6703 -0.0743
 9018SOL    HW228271   3.058   7.600   1.447  1.5182  0.0622 -0.4238
 9019SOL     OW28272   3.666   7.980   3.628 -0.1407 -0.6051 -0.1233
 9019SOL    HW128273   3.620   7.999   3.547 -0.9920 -0.0117  0.4776
 9019SOL    HW228274   3.738   8.043   3.631  0.6387 -1.4339 -0.9926
 9020SOL     OW28275   3.664   8.676   2.373  0.1842 -0.4445 -0.0583
 9020SOL    HW128276   3.708   8.595   2.348  0.6863 -0.0987 -0.3042
 9020SOL    HW228277   3.650   8.668   2.467  0.7353 -0.5766  0.0140
 9021SOL     OW28278   2.394   7.486   2.783 -0.1741  0.2098 -0.6005
 9021SOL    HW128279   2.321   7.458   2.727 -1.5296  1.4679  0.4484
 9021SOL    HW228280   2.437   7.556   2.733  0.8111 -1.0138 -1.5334
 9022SOL     OW28281   3.598   8.164   3.108 -0.3620 -0.8518 -0.4991
 9022SOL    HW128282   3.623   8.078   3.144  0.0181 -1.0728 -1.2801
 9022SOL    HW228283   3.586   8.219   3.186 -0.0383 -1.4554 -0.0068
 9023SOL     OW28284   2.369   7.962   1.891  0.4270  0.0674 -0.0165
 9023SOL    HW128285   2.464   7.969   1.882  0.2599  0.8118 -1.4687
 9023SOL    HW228286   2.353   7.869   1.908  1.4321  0.0359  0.8629
 9024SOL     OW28287   3.312   8.437   2.698 -0.0207  0.4989  0.1040
 9024SOL    HW128288   3.285   8.358   2.650 -1.8773 -0.2718  2.2852
 9024SOL    HW228289   3.400   8.416   2.730 -0.8568 -1.1262  1.4657
 9025SOL     OW28290   1.886   8.589   3.486 -0.0550  0.0858 -0.8941
 9025SOL    HW128291   1.843   8.672   3.468  1.0129  0.7820 -0.3652
 9025SOL    HW228292   1.916   8.558   3.401  1.6077  1.4452 -0.8587
 9026SOL     OW28293   1.950   7.889   3.654  0.1893 -0.2470 -0.1920
 9026SOL    HW128294   2.042   7.895   3.680  0.4510 -0.6848 -0.9792
 9026SOL    HW228295   1.949   7.824   3.584 -0.8750 -0.9679  0.4708
 9027SOL     OW28296   3.930   0.047   1.908 -0.0307  0.4016  0.2040
 9027SOL    HW128297   3.992   0.032   1.979  0.4676 -0.0863 -0.3360
 9027SOL    HW228298   3.850   0.002   1.937  0.1748  0.1852  0.4404
 9028SOL     OW28299   3.321   8.026   2.286 -0.9598 -0.7310  0.1441
 9028SOL    HW128300   3.282   8.044   2.371 -1.0273  1.1190 -0.2253
 9028SOL    HW228301   3.321   7.930   2.279 -1.8336 -0.8931  1.7922
 9029SOL     OW28302   2.549   8.191   2.309 -0.7795 -0.0545  0.3132
 9029SOL    HW128303   2.486   8.243   2.258 -0.1678  0.4713  0.0876
 9029SOL    HW228304   2.573   8.248   2.382 -0.9196 -0.4360  0.6595
 9030SOL     OW28305   3.430   7.609   3.676  0.1600  0.3272  0.0947
 9030SOL    HW128306   3.472   7.686   3.716  0.2201 -0.7814  2.2754
 9030SOL    HW228307   3.343   7.606   3.715  0.4067 -1.0964  0.5888
 9031SOL     OW28308   2.548   7.157   1.720  0.4759 -0.7672  0.2254
 9031SOL    HW128309   2.519   7.120   1.637 -0.0499 -0.8416  0.4412
 9031SOL    HW228310   2.644   7.151   1.717  0.4677 -0.5664 -0.4660
 9032SOL     OW28311   2.790   7.775   3.508 -0.3431 -0.3263 -0.5518
 9032SOL    HW128312   2.802   7.796   3.415  1.2053 -1.4866 -0.6603
 9032SOL    HW228313   2.845   7.837   3.554 -1.2965  0.4051 -0.3580
 9033SOL     OW28314   3.052   7.856   3.573 -0.5779  0.4656  0.2625
 9033SOL    HW128315   3.092   7.873   3.658 -1.8318  1.2113  0.7362
 9033SOL    HW228316   3.043   7.761   3.569 -1.1119  0.4566  1.2751
 9034SOL     OW28317   3.070   7.792   2.509  0.5913  0.0129  0.3751
 9034SOL    HW128318   3.087   7.711   2.461  3.3236  1.1165 -0.7282
 9034SOL    HW228319   3.006   7.838   2.456  0.4661 -0.5874 -0.0136
 9035SOL     OW28320   2.812   7.479   2.535  0.0544 -0.1205  0.0286
 9035SOL    HW128321   2.787   7.572   2.542 -0.8801 -0.4095  0.6450
 9035SOL    HW228322   2.729   7.432   2.541  0.6730 -1.0900  1.6743
 9036SOL     OW28323   2.955   8.731   1.765  0.2842  0.1136  1.1185
 9036SOL    HW128324   2.997   8.767   1.686  0.0034 -0.2695  0.7881
 9036SOL    HW228325   2.909   8.653   1.734 -0.9260  0.6833  1.3916
 9037SOL     OW28326   1.883   7.404   2.061  0.4382  0.2454  0.9320
 9037SOL    HW128327   1.885   7.396   1.965  0.4062  2.2722  0.7219
 9037SOL    HW228328   1.974   7.393   2.088  0.5182  0.1463  0.6236
 9038SOL     OW28329   2.719   7.392   1.904  0.1876  0.0737 -0.6337
 9038SOL    HW128330   2.655   7.364   1.838  0.7138  0.2086 -1.2081
 9038SOL    HW228331   2.797   7.338   1.886  0.5699  0.5995 -0.5677
 9039SOL     OW28332   2.975   8.093   3.170  0.4389 -0.0527 -0.6200
 9039SOL    HW128333   3.015   8.071   3.086 -1.2026  0.2088 -1.5089
 9039SOL    HW228334   2.919   8.018   3.190 -0.2486  0.4959 -0.4623
 9040SOL     OW28335   3.115   8.571   2.360 -0.2057 -0.3141  0.2595
 9040SOL    HW128336   3.130   8.499   2.298  1.2227  0.6671 -0.5859
 9040SOL    HW228337   3.198   8.618   2.362 -0.8009  0.7226  1.5843
 9041SOL     OW28338   2.380   8.341   2.102  0.7119  0.2952 -0.6788
 9041SOL    HW128339   2.434   8.308   2.030 -0.4246  1.1664 -1.9814
 9041SOL    HW228340   2.382   8.436   2.092 -1.1836  0.3586 -0.9048
 9042SOL     OW28341   2.901   7.627   1.880 -0.4499 -0.4215 -0.5420
 9042SOL    HW128342   2.830   7.567   1.901 -1.4094  0.8207 -0.1289
 9042SOL    HW228343   2.932   7.658   1.964  0.7245 -1.0714 -0.7125
 9043SOL     OW28344   1.750   8.237   3.328  0.2830  0.8301  0.2850
 9043SOL    HW128345   1.815   8.240   3.398  0.0934 -1.4560  0.6307
 9043SOL    HW228346   1.795   8.192   3.255 -0.5902  0.0493  0.2073
 9044SOL     OW28347   2.252   7.570   3.081  0.2223 -0.5849 -0.0833
 9044SOL    HW128348   2.323   7.567   3.016  0.9395 -2.4711  0.7103
 9044SOL    HW228349   2.175   7.537   3.034  0.2815 -0.1851 -0.4696
 9045SOL     OW28350   2.666   7.943   2.403  0.2555 -0.2382  0.5013
 9045SOL    HW128351   2.618   7.877   2.355  1.3886 -0.4687 -0.3601
 9045SOL    HW228352   2.619   8.025   2.387  0.5614 -0.3293 -0.9406
 9046SOL     OW28353   2.964   7.458   2.745 -0.2118  0.2955  0.1993
 9046SOL    HW128354   2.906   7.467   2.670 -0.4671  2.1978  0.5632
 9046SOL    HW228355   3.023   7.387   2.722 -2.3628 -1.4035 -0.3827
 9047SOL     OW28356   3.467   8.849   2.652  0.1791  0.4778  0.0541
 9047SOL    HW128357   3.386   8.819   2.693 -0.3035  1.1615 -0.3610
 9047SOL    HW228358   3.522   8.771   2.647 -0.1763  0.1499  0.9762
 9048SOL     OW28359   3.062   8.026   2.879  0.0456 -0.2275  0.1516
 9048SOL    HW128360   2.989   8.060   2.828 -0.9921 -0.9400  1.1379
 9048SOL    HW228361   3.076   7.938   2.845  0.0143 -0.3353  0.4219
 9049SOL     OW28362   3.707   8.092   1.599  0.1538  0.0758  0.0652
 9049SOL    HW128363   3.803   8.095   1.599  0.1512  0.2415  0.5637
 9049SOL    HW228364   3.680   8.167   1.546  0.3114 -1.1848 -1.9338
 9050SOL     OW28365   3.650   8.633   2.668  0.5895  0.2297 -0.3768
 9050SOL    HW128366   3.662   8.540   2.650  1.1559 -0.0560  1.2580
 9050SOL    HW228367   3.711   8.651   2.740 -1.1509  1.3078  0.9087
 9051SOL     OW28368   3.535   8.080   1.824  0.3148  0.6272  0.3125
 9051SOL    HW128369   3.516   8.170   1.850 -0.5804  1.1115 -1.7807
 9051SOL    HW228370   3.602   8.088   1.756  2.3715 -0.5439  2.0891
 9052SOL     OW28371   2.558   7.254   2.221 -0.4517 -0.0460  0.2973
 9052SOL    HW128372   2.487   7.191   2.237 -1.7098  1.5201  1.2184
 9052SOL    HW228373   2.521   7.315   2.157  0.5050  0.1229 -0.0964
 9053SOL     OW28374   3.614   8.725   3.419 -0.7670  0.5052 -0.4147
 9053SOL    HW128375   3.659   8.718   3.335 -1.0716  0.5458 -0.5828
 9053SOL    HW228376   3.522   8.711   3.398 -0.7276 -0.5112  0.0643
 9054SOL     OW28377   2.735   0.045   3.066  0.4123 -0.0920  0.6036
 9054SOL    HW128378   2.809  -0.016   3.069 -0.1123 -0.7593  0.2669
 9054SOL    HW228379   2.665   0.001   3.114 -0.9390 -1.1380 -2.1061
 9055SOL     OW28380   3.043   8.779   2.569  0.7846  0.5578 -0.4146
 9055SOL    HW128381   2.974   8.825   2.617  0.1814 -1.4119  0.6918
 9055SOL    HW228382   3.001   8.753   2.487 -0.0560 -1.1761  0.5122
 9056SOL     OW28383   3.233   8.712   2.737 -0.4331 -0.0666 -0.5071
 9056SOL    HW128384   3.169   8.735   2.670  0.1613  0.1649 -0.9949
 9056SOL    HW228385   3.264   8.625   2.712 -0.7581 -0.2979 -0.1157
 9057SOL     OW28386   2.803   6.866   2.848 -0.9417 -0.1165 -0.0902
 9057SOL    HW128387   2.855   6.905   2.919 -1.8039  0.1800  0.3852
 9057SOL    HW228388   2.748   6.801   2.892 -0.7896 -0.6193 -0.6335
 9058SOL     OW28389   2.718   8.450   3.758  0.5334  0.7905 -0.0637
 9058SOL    HW128390   2.795   8.502   3.735  1.3331 -0.1092  0.4895
 9058SOL    HW228391   2.679   8.497   3.832  2.7705 -0.7093  2.2313
 9059SOL     OW28392   2.664   7.898   1.926 -0.1688 -0.4586 -0.3499
 9059SOL    HW128393   2.690   7.953   2.000  1.9154 -0.9290 -0.6748
 9059SOL    HW228394   2.733   7.911   1.861 -0.8293 -1.7140 -1.3504
 9060SOL     OW28395   2.647   8.128   3.187 -0.0776 -0.0536 -0.0336
 9060SOL    HW128396   2.588   8.143   3.261 -1.4570  1.4886 -1.3741
 9060SOL    HW228397   2.642   8.034   3.171 -1.5506 -0.0727  0.4120
 9061SOL     OW28398   3.426   8.021   3.408  0.2825 -0.1110  0.8250
 9061SOL    HW128399   3.335   8.017   3.437 -0.6500  0.2954 -1.7612
 9061SOL    HW228400   3.446   8.115   3.405 -0.4015  0.0313 -1.7182
 9062SOL     OW28401   2.153   8.462   1.930  0.0337  0.1827 -0.3458
 9062SOL    HW128402   2.232   8.407   1.923  0.4843  0.9661 -1.8931
 9062SOL    HW228403   2.187   8.550   1.946 -0.4316  0.7681 -2.3918
 9063SOL     OW28404   2.485   7.950   2.760  0.0126 -0.1200 -0.2797
 9063SOL    HW128405   2.462   8.035   2.721  0.2182 -0.7985 -1.9735
 9063SOL    HW228406   2.429   7.943   2.837 -1.8736  0.4696 -1.5170
 9064SOL     OW28407   3.758   8.405   2.054 -0.0979  0.0138 -0.3277
 9064SOL    HW128408   3.761   8.402   1.958 -0.4821 -0.6389 -0.3288
 9064SOL    HW228409   3.815   8.478   2.078 -0.5438  0.6265 -1.0872
 9065SOL     OW28410   3.603   8.391   2.511 -0.5688 -0.8055  0.8480
 9065SOL    HW128411   3.673   8.331   2.487 -0.2793 -0.4174  0.7210
 9065SOL    HW228412   3.525   8.336   2.518 -0.8746 -0.8222 -1.8288
 9066SOL     OW28413   2.688   7.854   4.106 -0.0319 -1.1437  0.5003
 9066SOL    HW128414   2.595   7.869   4.091  0.2124  0.4970  0.4739
 9066SOL    HW228415   2.726   7.849   4.018  0.3456  1.4294  0.4436
 9067SOL     OW28416   3.359   8.380   3.538  0.2395  0.0406 -0.3269
 9067SOL    HW128417   3.378   8.458   3.590 -0.2124 -0.2980  0.3588
 9067SOL    HW228418   3.286   8.338   3.583 -1.3427  0.6341 -2.1664
 9068SOL     OW28419   3.297   7.630   3.375  0.2828  0.5450 -0.0753
 9068SOL    HW128420   3.358   7.613   3.447 -0.7904 -0.9270  0.5411
 9068SOL    HW228421   3.288   7.545   3.332  1.7201  1.5935 -2.6744
 9069SOL     OW28422   2.446   7.458   3.637 -0.0317 -0.4873 -0.5714
 9069SOL    HW128423   2.372   7.475   3.578  0.6958 -0.9831 -1.6695
 9069SOL    HW228424   2.444   7.363   3.651 -0.3351 -0.3486  0.4165
 9070SOL     OW28425   2.666   8.345   2.491  0.2044  0.0926  0.6532
 9070SOL    HW128426   2.636   8.406   2.558  0.2622  0.3500  0.4451
 9070SOL    HW228427   2.761   8.342   2.502  0.3251  0.9210 -0.0791
 9071SOL     OW28428   3.006   8.378   2.738  0.1376  0.2390 -0.3198
 9071SOL    HW128429   3.098   8.404   2.749  0.5629 -0.5544 -1.6976
 9071SOL    HW228430   2.958   8.430   2.802  1.4432  1.3047 -0.1721
 9072SOL     OW28431   3.352   7.728   1.497 -0.4642 -0.4385  0.2391
 9072SOL    HW128432   3.337   7.633   1.502 -0.9757 -0.3098  1.5375
 9072SOL    HW228433   3.368   7.754   1.587 -2.9758  1.1245  0.3182
 9073SOL     OW28434   2.098   7.783   3.186  0.6096 -0.0173 -0.1412
 9073SOL    HW128435   2.167   7.836   3.227  0.8779 -0.9420  0.6311
 9073SOL    HW228436   2.142   7.702   3.161 -0.0239 -0.2870 -0.3906
 9074SOL     OW28437   1.733   8.482   3.106 -0.5551  0.5261  0.3447
 9074SOL    HW128438   1.695   8.539   3.039  1.4736  1.8091  0.2014
 9074SOL    HW228439   1.691   8.511   3.188 -0.5330  1.3305  0.0825
 9075SOL     OW28440   2.765   7.749   2.575  0.4348 -0.4591  0.5081
 9075SOL    HW128441   2.778   7.791   2.660  3.2678  0.3499 -0.2143
 9075SOL    HW228442   2.760   7.822   2.513  0.4639 -1.0749 -0.2370
 9076SOL     OW28443   3.508   8.597   3.675 -0.3889  0.2261  0.7217
 9076SOL    HW128444   3.545   8.661   3.613 -1.2172  0.8412  0.8476
 9076SOL    HW228445   3.429   8.639   3.709 -0.2404 -0.3257  1.8002
 9077SOL     OW28446   2.230   7.881   2.366 -0.2522 -0.3232 -0.4375
 9077SOL    HW128447   2.293   7.816   2.334 -0.9418 -0.4278 -1.6348
 9077SOL    HW228448   2.154   7.871   2.308 -1.4203 -0.2725  1.0440
 9078SOL     OW28449   3.601   8.149   2.333 -0.5006 -0.5015  0.1127
 9078SOL    HW128450   3.512   8.113   2.331  0.5393 -3.4401  1.1484
 9078SOL    HW228451   3.632   8.141   2.243 -1.7424  2.1161 -0.6468
 9079SOL     OW28452   3.061   7.725   2.775 -0.4886 -0.3292 -0.0623
 9079SOL    HW128453   3.075   7.751   2.684 -0.2818 -0.8328 -0.1773
 9079SOL    HW228454   2.996   7.655   2.770  0.5209 -1.2994  0.0496
 9080SOL     OW28455   3.245   0.032   3.220 -0.0582  0.1811  0.0835
 9080SOL    HW128456   3.170   0.083   3.252  0.7760  2.9576 -1.9520
 9080SOL    HW228457   3.229   0.022   3.126  1.5296 -0.1980 -0.1757
 9081SOL     OW28458   2.427   8.201   3.332  0.4501  0.0707  0.0549
 9081SOL    HW128459   2.482   8.249   3.393 -0.3127  0.7507  0.2246
 9081SOL    HW228460   2.382   8.269   3.281  0.9055 -0.4762 -1.1145
 9082SOL     OW28461   3.399   7.819   1.834 -0.0849  0.5311 -0.2181
 9082SOL    HW128462   3.306   7.822   1.858  0.1188 -0.1208  0.6892
 9082SOL    HW228463   3.431   7.907   1.855 -0.2146  0.3731  0.6674
 9083SOL     OW28464   3.263   8.257   1.650  0.6686  0.3399 -0.1807
 9083SOL    HW128465   3.280   8.231   1.559  0.7416  0.5898 -0.2378
 9083SOL    HW228466   3.226   8.345   1.644  1.3820  0.6652  0.0695
 9084SOL     OW28467   1.911   7.929   3.058  0.0774 -0.2013 -0.4834
 9084SOL    HW128468   1.966   7.869   3.108  0.0878 -0.2587 -0.5636
 9084SOL    HW228469   1.961   7.947   2.979 -0.2654 -0.6909 -0.8120
 9085SOL     OW28470   2.134   8.149   2.714  0.8466  0.5021 -0.1424
 9085SOL    HW128471   2.133   8.061   2.751  2.0412  1.3861  2.2025
 9085SOL    HW228472   2.140   8.135   2.620 -3.1073 -1.9095 -0.2857
 9086SOL     OW28473   3.204   7.290   3.413  0.5313 -0.3504 -0.1935
 9086SOL    HW128474   3.290   7.319   3.442  0.6176  0.0305 -0.8076
 9086SOL    HW228475   3.201   7.197   3.436  1.0799 -0.3487 -0.1013
 9087SOL     OW28476   2.956   7.150   3.358  0.0223 -0.3676 -0.0885
 9087SOL    HW128477   3.035   7.204   3.350  0.4645 -1.1880 -1.6804
 9087SOL    HW228478   2.975   7.091   3.431  0.1394  0.6146  0.6964
 9088SOL     OW28479   1.861   8.401   1.981  0.2670  0.3606 -0.0704
 9088SOL    HW128480   1.834   8.310   1.978 -0.1758  0.4475  0.8716
 9088SOL    HW228481   1.952   8.399   2.012  0.6409  0.1970 -1.1124
 9089SOL     OW28482   2.488   7.703   2.647 -0.1303  0.3955 -0.7066
 9089SOL    HW128483   2.477   7.792   2.682  0.0068  0.7809 -1.6047
 9089SOL    HW228484   2.575   7.704   2.606  0.0135 -0.2629 -0.4262
 9090SOL     OW28485   1.926   8.162   2.446  0.6046 -0.0466 -0.7136
 9090SOL    HW128486   1.874   8.137   2.522 -0.7558  0.9232 -1.2843
 9090SOL    HW228487   1.904   8.097   2.380  1.0984 -0.3696 -0.5623
 9091SOL     OW28488   2.562   7.868   3.103 -0.0323 -0.2276  0.2699
 9091SOL    HW128489   2.521   7.943   3.062 -1.4616 -1.2751 -0.3076
 9091SOL    HW228490   2.492   7.803   3.112  1.1085 -1.4553  0.8672
 9092SOL     OW28491   3.150   8.417   3.312  0.3205 -0.0514 -0.3263
 9092SOL    HW128492   3.094   8.453   3.381  1.6538  0.5640  0.4898
 9092SOL    HW228493   3.217   8.367   3.359  0.3642 -0.9093 -1.2741
 9093SOL     OW28494   2.542   7.631   1.942 -0.1057  0.5376  0.1567
 9093SOL    HW128495   2.586   7.715   1.925  1.0443  0.1405  1.0281
 9093SOL    HW228496   2.613   7.568   1.952 -0.6789  0.2584  3.7580
 9094SOL     OW28497   3.542   8.290   3.348  0.0811 -1.1181  0.4642
 9094SOL    HW128498   3.614   8.351   3.330 -2.0099  0.9135 -1.9363
 9094SOL    HW228499   3.489   8.334   3.415 -1.0424 -0.5714 -0.7392
 9095SOL     OW28500   2.784   7.618   2.989  0.1404 -0.5065 -0.7443
 9095SOL    HW128501   2.878   7.633   2.999  0.0560  0.7902 -1.6594
 9095SOL    HW228502   2.749   7.702   2.959 -1.5621 -0.4956  1.0239
 9096SOL     OW28503   2.822   7.835   1.349  0.4625  0.3085  0.2389
 9096SOL    HW128504   2.797   7.786   1.428  0.4031 -2.1162 -1.1732
 9096SOL    HW228505   2.899   7.885   1.375  1.4475 -1.7067  1.4510
 9097SOL     OW28506   1.935   8.303   3.052  0.5890  0.0099 -0.4140
 9097SOL    HW128507   1.863   8.349   3.095 -0.9870 -2.6364 -0.0226
 9097SOL    HW228508   1.971   8.246   3.119  1.4734 -0.4710 -1.2705
 9098SOL     OW28509   2.871   8.520   2.919 -0.3062  0.2210  0.0094
 9098SOL    HW128510   2.897   8.461   2.989 -0.3372  0.0541 -0.1207
 9098SOL    HW228511   2.890   8.608   2.953  2.8437  0.0477 -1.0351
 9099SOL     OW28512   3.758   8.421   1.782  0.8812 -0.1369 -0.2606
 9099SOL    HW128513   3.751   8.510   1.748  0.6621 -0.0217  0.0780
 9099SOL    HW228514   3.668   8.389   1.783  0.9382 -0.2937 -0.2001
 9100SOL     OW28515   1.840   8.727   2.655 -0.0427  0.3295  0.0583
 9100SOL    HW128516   1.793   8.651   2.689 -0.0351 -0.1380 -0.9185
 9100SOL    HW228517   1.920   8.690   2.616 -0.1671  0.7946 -0.6651
 9101SOL     OW28518   3.754   7.744   2.071 -0.4290 -0.0135 -0.1711
 9101SOL    HW128519   3.694   7.768   2.142  1.0331 -0.1961  1.1759
 9101SOL    HW228520   3.737   7.651   2.055 -0.0095 -0.2581  0.7330
 9102SOL     OW28521   3.361   8.652   2.351 -0.1761  0.2593 -0.5391
 9102SOL    HW128522   3.434   8.600   2.316 -0.2728  0.5983 -1.2559
 9102SOL    HW228523   3.362   8.634   2.445 -0.5006 -1.4153 -0.8241
 9103SOL     OW28524   2.461   8.637   3.586 -0.2508  0.1748  0.5500
 9103SOL    HW128525   2.374   8.655   3.549  0.4130  1.6064 -0.3699
 9103SOL    HW228526   2.448   8.643   3.681 -0.7690  2.3667  0.3849
 9104SOL     OW28527   3.315   7.779   2.995  0.7242 -0.1470 -0.5643
 9104SOL    HW128528   3.290   7.786   3.087 -2.0546 -1.7214 -1.0820
 9104SOL    HW228529   3.365   7.858   2.978 -1.2151  1.6955  1.5883
 9105SOL     OW28530   2.441   7.723   2.351  0.1189 -0.3439 -0.5867
 9105SOL    HW128531   2.448   7.710   2.445  2.5167  0.6410 -0.5534
 9105SOL    HW228532   2.449   7.635   2.314 -2.0961 -0.9032  0.0924
 9106SOL     OW28533   2.709   8.585   3.468 -0.1577  0.1760  0.3036
 9106SOL    HW128534   2.668   8.511   3.423  0.7883 -0.3411  0.2792
 9106SOL    HW228535   2.644   8.612   3.532  0.8010 -3.0360  2.8986
 9107SOL     OW28536   3.190   8.395   2.144  0.5651 -0.5818  0.4564
 9107SOL    HW128537   3.204   8.452   2.069  0.5062  1.0987  1.6621
 9107SOL    HW228538   3.240   8.316   2.125  0.4306 -0.2489 -1.3952
 9108SOL     OW28539   2.238   8.367   3.183 -0.2566  0.8015  0.0318
 9108SOL    HW128540   2.221   8.330   3.097  0.8485  0.8909 -0.2437
 9108SOL    HW228541   2.293   8.443   3.166  0.6078  0.3840  0.8530
 9109SOL     OW28542   2.970   8.739   3.058 -0.0043  0.7016 -0.1771
 9109SOL    HW128543   3.001   8.760   3.146 -0.9938  0.6366  0.2033
 9109SOL    HW228544   3.031   8.783   3.000  1.3619 -0.2250  0.5040
 9110SOL     OW28545   2.942   8.385   2.470 -0.0678  0.5136  0.3660
 9110SOL    HW128546   2.962   8.360   2.561 -1.7213  1.0157  0.8982
 9110SOL    HW228547   2.992   8.466   2.456  0.7341  0.0645  0.5926
 9111SOL     OW28548   3.284   7.396   2.909 -0.4467 -0.1601  0.2967
 9111SOL    HW128549   3.204   7.444   2.885 -0.2169  0.6659  1.1190
 9111SOL    HW228550   3.255   7.305   2.919 -1.2929  0.1308  0.5860
 9112SOL     OW28551   3.814   7.605   3.341 -0.1498  0.3873  0.2327
 9112SOL    HW128552   3.758   7.605   3.263 -0.2151  0.8628  0.2768
 9112SOL    HW228553   3.813   7.514   3.371 -0.6053  0.3197  0.0232
 9113SOL     OW28554   1.790   8.690   3.936 -0.5518  0.0946 -0.0967
 9113SOL    HW128555   1.879   8.659   3.957  0.5432  2.2373 -1.2230
 9113SOL    HW228556   1.772   8.652   3.850 -0.3405  0.3721 -0.2659
 9114SOL     OW28557   2.642   7.404   2.896 -0.2888 -0.5353  0.0505
 9114SOL    HW128558   2.692   7.477   2.933  0.8781 -0.4703 -1.5817
 9114SOL    HW228559   2.557   7.442   2.874 -0.2929 -0.0999  0.8029
 9115SOL     OW28560   2.004   7.335   1.355 -0.6245  0.2081  0.0434
 9115SOL    HW128561   2.073   7.281   1.317 -1.7027  0.0145 -1.7582
 9115SOL    HW228562   2.048   7.416   1.379  0.6587 -0.7533  1.0813
 9116SOL     OW28563   2.915   8.383   3.153 -0.1036  0.2953 -0.2424
 9116SOL    HW128564   2.916   8.289   3.136 -0.3476  0.3909 -0.8258
 9116SOL    HW228565   2.996   8.400   3.200  0.6295  0.0046 -1.3486
 9117SOL     OW28566   2.402   7.187   1.937 -0.1609  0.4129  0.0824
 9117SOL    HW128567   2.457   7.183   1.859  0.4196  1.7484  0.3996
 9117SOL    HW228568   2.398   7.096   1.968 -2.2339 -0.5870 -2.6955
 9118SOL     OW28569   2.643   8.409   3.194 -0.4317 -0.4471 -0.1037
 9118SOL    HW128570   2.736   8.430   3.201 -0.7250  0.3125  2.3586
 9118SOL    HW228571   2.638   8.314   3.210 -0.1944 -0.1915  1.7214
 9119SOL     OW28572   2.740   7.858   3.843  0.2523  0.3961 -0.0905
 9119SOL    HW128573   2.779   7.796   3.782  0.8946  0.3912  0.3208
 9119SOL    HW228574   2.804   7.929   3.849 -0.1441  0.7465  0.0114
 9120SOL     OW28575   2.904   8.780   3.775  0.1929  0.1676  0.2564
 9120SOL    HW128576   2.945   8.807   3.692  1.2979 -1.0420  0.3831
 9120SOL    HW228577   2.975   8.741   3.826 -0.7150 -0.1737  1.3083
 9121SOL     OW28578   3.146   8.074   3.420  0.3806  0.1826 -0.5342
 9121SOL    HW128579   3.088   8.009   3.460 -1.2006  0.9087 -1.5897
 9121SOL    HW228580   3.094   8.114   3.350  1.5333  2.1325 -0.3517
 9122SOL     OW28581   3.490   8.340   1.853 -0.2596 -0.2652  1.0070
 9122SOL    HW128582   3.419   8.355   1.791 -0.1068 -0.9680  0.6608
 9122SOL    HW228583   3.448   8.344   1.939 -0.4385  0.9073  0.8803
 9123SOL     OW28584   2.209   8.129   2.447  0.4520 -0.1314 -0.3646
 9123SOL    HW128585   2.138   8.121   2.384  0.8534 -2.4784 -0.6470
 9123SOL    HW228586   2.244   8.040   2.454  3.1509  0.8512 -0.0045
 9124SOL     OW28587   3.473   7.391   3.511 -0.0754 -0.1717 -0.5989
 9124SOL    HW128588   3.522   7.340   3.576  0.3485  0.3423 -0.5074
 9124SOL    HW228589   3.457   7.475   3.554  1.4238  0.6958 -1.6560
 9125SOL     OW28590   3.398   8.670   3.281  0.3993  0.9978  0.0900
 9125SOL    HW128591   3.339   8.741   3.256 -1.8369  0.4319  3.1322
 9125SOL    HW228592   3.363   8.593   3.236  1.0036  1.2442 -0.8371
 9126SOL     OW28593   2.472   8.544   1.930  0.4741  0.5931 -0.5909
 9126SOL    HW128594   2.434   8.596   2.001  1.2394  0.7082 -0.2524
 9126SOL    HW228595   2.540   8.601   1.892  1.4898 -0.2272 -0.0643
 9127SOL     OW28596   2.742   7.896   2.804 -0.1125 -0.1749  0.0778
 9127SOL    HW128597   2.647   7.908   2.807 -0.2364 -1.0890  2.6431
 9127SOL    HW228598   2.777   7.984   2.796 -1.1421  0.1254 -1.6535
 9128SOL     OW28599   3.197   8.562   1.933 -0.0484  0.3158  0.0078
 9128SOL    HW128600   3.242   8.646   1.925  0.7173 -0.0461  0.4334
 9128SOL    HW228601   3.180   8.535   1.843  0.5392  0.4873 -0.1571
 9129SOL     OW28602   1.711   8.850   3.501 -0.5495 -0.0465 -0.7845
 9129SOL    HW128603   1.747   8.843   3.589  1.1254 -1.2676 -1.5137
 9129SOL    HW228604   1.686   8.942   3.493  1.0131  0.5226  0.3345
 9130SOL     OW28605   2.238   8.412   2.352  0.3134 -0.0836  0.0933
 9130SOL    HW128606   2.243   8.366   2.436 -1.5598  1.7008  1.2646
 9130SOL    HW228607   2.273   8.349   2.289  1.4346 -1.6306  2.1242
 9131SOL     OW28608   2.424   8.570   3.156  0.0577  0.0852  0.2578
 9131SOL    HW128609   2.490   8.506   3.182 -0.0508 -0.0324  0.2481
 9131SOL    HW228610   2.429   8.638   3.223  0.4207  0.2483  0.0696
 9132SOL     OW28611   3.695   7.370   3.009 -0.3499  0.3650 -0.0295
 9132SOL    HW128612   3.657   7.378   3.097  2.2532  2.4962  1.0321
 9132SOL    HW228613   3.642   7.428   2.954  0.7743  2.7257  1.2500
 9133SOL     OW28614   2.151   7.563   2.146 -0.0743  0.3068  0.1673
 9133SOL    HW128615   2.102   7.593   2.222 -1.3050 -1.7025  0.2450
 9133SOL    HW228616   2.125   7.623   2.076 -1.3449  0.3209  0.6205
 9134SOL     OW28617   2.944   0.272   3.108  0.3105 -0.2732  0.1315
 9134SOL    HW128618   3.007   0.317   3.051 -1.3585  1.5338 -0.3798
 9134SOL    HW228619   2.904   0.206   3.052  1.9881 -1.7665  0.5849
 9135SOL     OW28620   2.365   8.023   2.988 -0.5948  0.3584 -0.4086
 9135SOL    HW128621   2.348   8.115   2.971 -1.6106  0.3543  0.5138
 9135SOL    HW228622   2.314   8.002   3.066  0.5254 -0.6950  0.0850
 9136SOL     OW28623   3.319   7.747   2.712  0.2895  0.1381  0.9828
 9136SOL    HW128624   3.281   7.677   2.659  4.0496 -1.4343 -0.0229
 9136SOL    HW228625   3.308   7.718   2.802  1.1372 -1.4715  0.6040
 9137SOL     OW28626   3.224   7.139   3.000  0.2220 -0.2974 -0.1565
 9137SOL    HW128627   3.195   7.080   3.070  3.3806 -0.5948  1.0707
 9137SOL    HW228628   3.191   7.097   2.920 -2.2839 -0.7027  0.9612
 9138SOL     OW28629   2.343   8.648   2.140  0.4647 -0.1193 -0.0998
 9138SOL    HW128630   2.344   8.713   2.210 -1.9818  0.4992 -0.5622
 9138SOL    HW228631   2.293   8.689   2.070 -1.6889 -2.6252 -0.2050
 9139SOL     OW28632   3.183   7.742   2.011 -0.9305  0.2132 -0.9443
 9139SOL    HW128633   3.262   7.762   2.061 -0.9649 -0.1840 -0.7333
 9139SOL    HW228634   3.113   7.783   2.061 -1.1341 -1.2673  0.0427
 9140SOL     OW28635   3.553   8.447   2.224 -0.2181  0.0872  0.0201
 9140SOL    HW128636   3.570   8.370   2.278 -0.3817 -0.4490 -0.6841
 9140SOL    HW228637   3.618   8.443   2.154 -1.0159 -0.1019 -0.7290
 9141SOL     OW28638   3.412   8.193   2.570  0.5667  0.0660 -0.6489
 9141SOL    HW128639   3.496   8.154   2.594  0.0330  1.3622  4.4573
 9141SOL    HW228640   3.348   8.125   2.589  0.1968  0.6515  0.2667
 9142SOL     OW28641   1.725   8.142   1.918  0.0197 -0.0861 -0.6295
 9142SOL    HW128642   1.651   8.143   1.979  0.0684 -1.0660 -0.5287
 9142SOL    HW228643   1.778   8.067   1.946  0.4101 -0.1278 -1.4370
 9143SOL     OW28644   2.114   7.771   3.926  0.0702 -0.4743 -0.3961
 9143SOL    HW128645   2.158   7.706   3.871 -1.0299 -0.2788 -1.5462
 9143SOL    HW228646   2.021   7.755   3.913 -0.2188  0.8676 -0.1282
 9144SOL     OW28647   1.913   7.528   4.763 -0.4806  0.1452 -0.0898
 9144SOL    HW128648   1.925   7.452   4.819 -4.1449 -0.2021  0.4973
 9144SOL    HW228649   1.875   7.493   4.682  0.3445  1.1157 -0.9314
 9145SOL     OW28650   1.800   7.667   4.457 -0.7189  0.3502  0.2967
 9145SOL    HW128651   1.744   7.666   4.379 -1.6594  3.8203  0.7503
 9145SOL    HW228652   1.883   7.703   4.425 -0.3928 -0.2230  0.5036
 9146SOL     OW28653   2.756   0.173   5.790  0.4620 -0.0115  0.3178
 9146SOL    HW128654   2.826   0.135   5.843 -1.1719 -2.0767  1.1202
 9146SOL    HW228655   2.786   0.163   5.699  1.8346  0.5591  0.6744
 9147SOL     OW28656   3.339   0.284   4.279 -0.3426 -0.4550  0.0909
 9147SOL    HW128657   3.329   0.353   4.344 -0.6058 -1.4111  1.0889
 9147SOL    HW228658   3.426   0.248   4.296  0.4878  0.6715 -1.4918
 9148SOL     OW28659   2.563   8.782   4.286 -0.0222 -0.6598  0.0613
 9148SOL    HW128660   2.522   8.738   4.211  0.3240  0.7189 -0.9915
 9148SOL    HW228661   2.643   8.732   4.302  0.2772 -0.5421 -0.9953
 9149SOL     OW28662   3.446   8.102   3.762  0.2039 -0.0382 -0.4581
 9149SOL    HW128663   3.472   8.194   3.763  1.0265 -0.2244  2.2075
 9149SOL    HW228664   3.516   8.057   3.715 -0.1835  0.6553 -1.7349
 9150SOL     OW28665   2.648   8.629   4.978 -0.3947  0.0835  0.0157
 9150SOL    HW128666   2.699   8.650   5.056  0.0398  1.2724 -0.5489
 9150SOL    HW228667   2.576   8.692   4.979  0.0574  0.6570 -0.9159
 9151SOL     OW28668   2.983   8.104   5.450 -0.3303 -0.6571 -0.5135
 9151SOL    HW128669   3.016   8.188   5.420 -2.2639  0.1492 -0.5328
 9151SOL    HW228670   3.058   8.062   5.493  0.7918  0.8463 -0.9453
 9152SOL     OW28671   2.029   8.505   4.501  0.0546 -0.0010 -0.2438
 9152SOL    HW128672   1.945   8.549   4.516  0.4545 -0.1683  3.3619
 9152SOL    HW228673   2.006   8.413   4.488 -0.3775  0.1442 -0.5223
 9153SOL     OW28674   2.678   8.749   5.613  0.0957  0.1382  0.7811
 9153SOL    HW128675   2.706   8.676   5.668 -2.0585 -0.6069  0.9761
 9153SOL    HW228676   2.756   8.804   5.606  1.3897 -1.4476  1.7823
 9154SOL     OW28677   1.921   0.054   5.499  0.3863 -0.0418  0.3313
 9154SOL    HW128678   1.961   0.022   5.580  0.9629 -0.1241  0.0214
 9154SOL    HW228679   1.922  -0.021   5.440  1.9296  0.5650 -0.4704
 9155SOL     OW28680   2.070   7.855   5.200 -0.2788  0.5849  0.0787
 9155SOL    HW128681   2.053   7.767   5.165  0.8289  0.9728 -1.5428
 9155SOL    HW228682   1.986   7.900   5.194 -0.7782 -0.2586  0.6211
 9156SOL     OW28683   3.177   8.092   4.143 -0.3085 -0.2594 -0.5683
 9156SOL    HW128684   3.149   8.001   4.133  0.2143 -0.7934  2.0868
 9156SOL    HW228685   3.116   8.129   4.207  0.1481  0.9454 -0.7961
 9157SOL     OW28686   2.701   8.488   5.459  0.3926  0.3017  0.2565
 9157SOL    HW128687   2.780   8.513   5.411  0.6228 -0.4171  0.2493
 9157SOL    HW228688   2.682   8.563   5.516 -1.2887  2.2682 -2.6390
 9158SOL     OW28689   1.909   0.118   4.223  0.3083  0.2390 -0.2142
 9158SOL    HW128690   1.987   0.167   4.199  0.2177  0.0225 -0.9733
 9158SOL    HW228691   1.911   0.114   4.318  0.6439  1.1720 -0.1765
 9159SOL     OW28692   1.970   0.207   3.908 -0.3303 -0.7092  0.3840
 9159SOL    HW128693   2.000   0.218   3.999  1.9700 -1.8527 -0.1534
 9159SOL    HW228694   2.050   0.189   3.859 -1.0967  2.5282 -2.4058
 9160SOL     OW28695   3.163   7.405   5.139  0.1253  0.1166  0.1503
 9160SOL    HW128696   3.223   7.476   5.114 -1.1836  1.2037 -0.0299
 9160SOL    HW228697   3.176   7.394   5.233  1.3654 -0.4060 -0.0696
 9161SOL     OW28698   2.122   8.072   4.339  0.3337  0.0571  0.2588
 9161SOL    HW128699   2.077   8.005   4.288 -0.6657  0.3380  0.7609
 9161SOL    HW228700   2.176   8.023   4.401  0.7679 -0.2781 -0.3700
 9162SOL     OW28701   3.164   8.389   3.892  0.2878 -0.1716 -0.3055
 9162SOL    HW128702   3.239   8.339   3.922 -0.9742 -1.1145  1.4764
 9162SOL    HW228703   3.131   8.340   3.816  1.0818 -0.0761 -0.7253
 9163SOL     OW28704   3.079   8.702   4.167  0.3486 -0.4814 -0.4697
 9163SOL    HW128705   3.109   8.792   4.177 -1.8216  0.3185 -0.6834
 9163SOL    HW228706   3.095   8.681   4.074  0.4887 -0.1911 -0.5116
 9164SOL     OW28707   1.936   7.443   5.494  0.1890 -0.0167 -0.6698
 9164SOL    HW128708   2.009   7.495   5.526 -1.5256  0.5368  2.7502
 9164SOL    HW228709   1.863   7.505   5.487 -1.0071 -1.2698  0.1350
 9165SOL     OW28710   2.699   0.011   5.354 -0.0110 -0.2699 -0.7041
 9165SOL    HW128711   2.719   0.101   5.380 -2.1516  0.4065 -1.1934
 9165SOL    HW228712   2.697  -0.038   5.437  0.5222  0.2478 -0.3733
 9166SOL     OW28713   3.249   8.770   5.104 -0.3173  0.0544 -0.3545
 9166SOL    HW128714   3.166   8.760   5.058 -0.4276  0.1236 -0.1723
 9166SOL    HW228715   3.316   8.757   5.037 -0.4004 -2.8851  0.0041
 9167SOL     OW28716   2.557   7.499   4.190  0.0535 -0.2192  0.0602
 9167SOL    HW128717   2.469   7.479   4.222 -0.5840 -0.0878 -1.5051
 9167SOL    HW228718   2.549   7.497   4.094  1.3217  1.5922 -0.1431
 9168SOL     OW28719   1.962   8.667   5.340  0.1198 -0.0954 -0.3696
 9168SOL    HW128720   1.992   8.586   5.381 -2.1993  0.1372  1.9845
 9168SOL    HW228721   1.906   8.638   5.268 -0.1553 -0.5680  0.0353
 9169SOL     OW28722   3.506   8.582   4.186 -0.3872  0.5349  0.4776
 9169SOL    HW128723   3.460   8.498   4.186 -1.2950  1.0178  0.1835
 9169SOL    HW228724   3.560   8.580   4.106 -1.5241  0.8141 -0.3136
 9170SOL     OW28725   2.375   7.614   5.738 -0.3815  0.0214 -0.4765
 9170SOL    HW128726   2.407   7.654   5.657 -0.7659  1.0046 -0.1509
 9170SOL    HW228727   2.281   7.604   5.723 -0.2956 -0.7626 -0.5466
 9171SOL     OW28728   3.213   0.322   4.950  0.2874 -0.2854 -0.2688
 9171SOL    HW128729   3.254   0.265   5.015 -1.2003  0.2328  1.1978
 9171SOL    HW228730   3.167   0.263   4.890 -1.2333 -0.6955  1.2316
 9172SOL     OW28731   2.253   8.304   3.876  0.4435  0.2509  0.0437
 9172SOL    HW128732   2.326   8.251   3.909 -0.3189 -0.9233 -0.1164
 9172SOL    HW228733   2.175   8.260   3.907 -0.2179  1.7339  0.5530
 9173SOL     OW28734   3.020   7.444   4.577  0.6721 -0.0664  0.1803
 9173SOL    HW128735   3.009   7.538   4.559 -0.4580 -0.1660  0.2833
 9173SOL    HW228736   3.111   7.436   4.606  0.2617  1.3253  2.1210
 9174SOL     OW28737   2.129   7.626   5.543 -0.1545  0.1194 -0.6965
 9174SOL    HW128738   2.177   7.619   5.461 -0.0009  1.0360 -0.6937
 9174SOL    HW228739   2.113   7.720   5.554  0.2991  0.0738  0.5876
 9175SOL     OW28740   3.272   7.484   5.405 -0.4116  0.5322 -0.4757
 9175SOL    HW128741   3.285   7.539   5.482 -0.8700 -0.2627  0.1858
 9175SOL    HW228742   3.356   7.487   5.359 -0.3865  1.6514 -0.3697
 9176SOL     OW28743   2.710   7.887   5.032  0.1732  0.5805 -0.0204
 9176SOL    HW128744   2.694   7.916   5.122 -1.3287 -0.5410  0.1079
 9176SOL    HW228745   2.746   7.798   5.042  0.2529  0.5569 -0.5232
 9177SOL     OW28746   2.247   7.836   4.941  0.4124  0.4120 -0.2680
 9177SOL    HW128747   2.295   7.774   4.886  0.2093  0.1198 -0.1101
 9177SOL    HW228748   2.158   7.803   4.943  0.4889  0.2570  0.5012
 9178SOL     OW28749   2.743   8.442   4.247  0.3491  0.0224  0.0790
 9178SOL    HW128750   2.802   8.396   4.188 -0.0355  0.7481 -0.8882
 9178SOL    HW228751   2.683   8.374   4.278  0.1131 -0.2385 -0.9176
 9179SOL     OW28752   1.282   8.210   4.873  0.5716 -0.1825  0.4580
 9179SOL    HW128753   1.325   8.145   4.929  0.5932  0.1224  0.7996
 9179SOL    HW228754   1.353   8.250   4.823  0.1941 -4.0358 -3.7599
 9180SOL     OW28755   2.800   7.501   3.985 -0.6053  0.5615  0.2480
 9180SOL    HW128756   2.808   7.495   3.890 -1.0057  1.0802  0.1812
 9180SOL    HW228757   2.709   7.478   4.003 -0.2323 -0.7198  0.6159
 9181SOL     OW28758   3.552   7.198   5.623  0.7961  0.6986 -0.3248
 9181SOL    HW128759   3.639   7.225   5.654  0.2646  0.2336  1.7435
 9181SOL    HW228760   3.531   7.121   5.675 -0.7737  0.6830 -0.9354
 9182SOL     OW28761   2.914   8.420   4.034 -0.2998 -0.2341  0.1517
 9182SOL    HW128762   3.004   8.389   4.025 -0.2208 -0.6794  2.0605
 9182SOL    HW228763   2.914   8.506   3.992 -0.2583 -2.1330 -4.3015
 9183SOL     OW28764   2.353   7.579   4.754 -0.3183  0.4134 -0.0560
 9183SOL    HW128765   2.339   7.502   4.699  1.4713 -1.5250  2.0446
 9183SOL    HW228766   2.444   7.603   4.740 -1.1463  3.0504 -1.6284
 9184SOL     OW28767   3.194   8.312   4.516 -0.4905  0.6751 -0.5452
 9184SOL    HW128768   3.220   8.400   4.489 -1.4895  1.2711  0.3247
 9184SOL    HW228769   3.115   8.293   4.465 -0.3503  0.3476 -0.6376
 9185SOL     OW28770   2.577   8.283   3.565  0.4670  0.0818 -0.0190
 9185SOL    HW128771   2.501   8.309   3.617  0.6150 -1.0211  0.7728
 9185SOL    HW228772   2.652   8.300   3.622  0.6349 -1.0700  0.1336
 9186SOL     OW28773   3.100   0.000   4.602  0.7027 -0.1804  0.0560
 9186SOL    HW128774   3.041   0.038   4.537  0.3764 -0.0323  0.4351
 9186SOL    HW228775   3.092  -0.094   4.589  0.3967 -0.1612  0.0858
 9187SOL     OW28776   2.340   8.530   5.141  0.3937 -0.1131 -0.2053
 9187SOL    HW128777   2.304   8.477   5.070  0.7370  0.0167 -0.4789
 9187SOL    HW228778   2.299   8.616   5.131 -2.5576 -1.0662  2.0519
 9188SOL     OW28779   2.012   7.609   5.107  0.1221 -0.2243  0.1930
 9188SOL    HW128780   1.980   7.622   5.018  2.4517 -1.1554 -0.8361
 9188SOL    HW228781   1.993   7.518   5.127  0.2875 -0.2208  0.3699
 9189SOL     OW28782   3.312   0.046   3.491  0.2803 -0.3424  0.5766
 9189SOL    HW128783   3.398   0.083   3.510  0.6242 -1.4286  1.2853
 9189SOL    HW228784   3.307   0.044   3.395  1.7672 -1.7715  0.4860
 9190SOL     OW28785   2.645   7.161   4.036  0.4611 -0.0555  0.4365
 9190SOL    HW128786   2.566   7.143   3.986  0.1981 -1.8153  1.4094
 9190SOL    HW228787   2.618   7.151   4.127  1.9166 -1.2387  0.7669
 9191SOL     OW28788   1.933   8.252   4.427  0.3212  0.0626  0.6447
 9191SOL    HW128789   1.880   8.182   4.465 -0.2800 -0.0634 -0.4105
 9191SOL    HW228790   2.016   8.210   4.405 -0.2290 -0.4623 -0.4823
 9192SOL     OW28791   3.420   7.174   5.360  0.7257  0.5044 -0.2856
 9192SOL    HW128792   3.456   7.209   5.442  0.2927  1.5166 -0.5200
 9192SOL    HW228793   3.424   7.247   5.299 -2.6468  1.0424 -0.0490
 9193SOL     OW28794   2.453   7.745   3.733 -0.2941  0.2811  0.1573
 9193SOL    HW128795   2.513   7.796   3.679  0.0195 -1.1542 -0.9264
 9193SOL    HW228796   2.490   7.656   3.733 -1.8025 -0.3883  0.3818
 9194SOL     OW28797   2.803   6.918   5.314  0.2478  0.3899 -0.5176
 9194SOL    HW128798   2.884   6.868   5.309  0.5431  0.6338  1.2186
 9194SOL    HW228799   2.806   6.976   5.238  1.1956 -0.3145 -1.0424
 9195SOL     OW28800   3.200   7.779   4.709 -0.1688  0.0869  0.0856
 9195SOL    HW128801   3.128   7.822   4.756  0.0793 -1.3443  1.8637
 9195SOL    HW228802   3.276   7.790   4.766  0.5804 -0.1512 -0.8451
 9196SOL     OW28803   2.700   7.958   4.771  0.5182 -0.0696  0.1178
 9196SOL    HW128804   2.698   7.914   4.856  0.3147  1.1515  0.7688
 9196SOL    HW228805   2.649   8.038   4.784  0.9340  0.4007 -1.0028
 9197SOL     OW28806   2.491   7.091   4.249 -0.2034  0.0419  0.1751
 9197SOL    HW128807   2.442   7.018   4.211  2.5775 -1.5617 -0.5713
 9197SOL    HW228808   2.479   7.081   4.343 -0.6052 -0.8443  0.0419
 9198SOL     OW28809   3.207   8.545   4.358 -0.1410  0.1918  0.2077
 9198SOL    HW128810   3.263   8.611   4.399 -1.1918  0.4087  1.3457
 9198SOL    HW228811   3.176   8.587   4.277  1.9845 -0.2572 -0.9126
 9199SOL     OW28812   1.938   7.476   3.578  0.4655  0.0003  0.1769
 9199SOL    HW128813   1.979   7.554   3.539  0.2701  1.0310  1.9067
 9199SOL    HW228814   2.010   7.429   3.619  0.6477 -1.0048 -1.2126
 9200SOL     OW28815   2.436   7.721   4.403  0.1580  0.0755 -0.0062
 9200SOL    HW128816   2.461   7.698   4.492  0.6262 -0.3859 -0.2452
 9200SOL    HW228817   2.459   7.813   4.394  1.0847 -0.1466  0.0236
 9201SOL     OW28818   2.999   7.832   5.158  0.1381 -0.3816  0.3343
 9201SOL    HW128819   2.931   7.766   5.164  0.7919 -0.9534  2.3534
 9201SOL    HW228820   2.960   7.911   5.197  0.8242 -0.9567  2.3384
 9202SOL     OW28821   3.108   0.437   4.524  0.3631  0.6586  0.0692
 9202SOL    HW128822   3.172   0.451   4.454  1.5611  2.0350  1.3825
 9202SOL    HW228823   3.151   0.468   4.603 -0.8676 -1.0629  1.5087
 9203SOL     OW28824   2.447   8.799   4.984 -0.3798 -0.0109  0.4964
 9203SOL    HW128825   2.453   8.883   4.939 -0.2124 -0.3362 -0.1045
 9203SOL    HW228826   2.361   8.764   4.959 -1.1546  0.6986  2.0483
 9204SOL     OW28827   2.599   7.954   4.380 -0.4129  0.1747 -0.0668
 9204SOL    HW128828   2.635   7.929   4.295 -0.6851 -0.1983 -0.0725
 9204SOL    HW228829   2.596   8.050   4.377 -2.3210  0.1162 -1.2621
 9205SOL     OW28830   1.856   8.216   4.904  0.3172  0.8395 -0.2552
 9205SOL    HW128831   1.834   8.309   4.912  1.8901  1.3925 -1.6413
 9205SOL    HW228832   1.936   8.206   4.954 -0.7959 -0.2375  1.4155
 9206SOL     OW28833   2.205   7.956   4.576 -0.7745 -0.3254  0.1950
 9206SOL    HW128834   2.135   8.000   4.624  1.0134  0.6509  2.0996
 9206SOL    HW228835   2.201   7.865   4.605 -1.9438 -0.5496 -0.6170
 9207SOL     OW28836   2.502   8.240   4.358  0.1380 -0.0752 -0.3449
 9207SOL    HW128837   2.445   8.285   4.296  0.5870  0.5222 -0.3255
 9207SOL    HW228838   2.452   8.239   4.440  0.2884  0.7497 -0.2368
 9208SOL     OW28839   2.801   6.966   4.320  0.4560 -0.3469  0.3033
 9208SOL    HW128840   2.852   6.945   4.242  2.1537 -0.0968  1.3007
 9208SOL    HW228841   2.755   7.047   4.298  1.2372 -0.0571 -0.3015
 9209SOL     OW28842   3.018   0.151   4.824 -0.2121  0.5786  0.5444
 9209SOL    HW128843   3.069   0.107   4.756 -0.6876  0.0565  0.5198
 9209SOL    HW228844   2.960   0.083   4.859 -1.7592  1.4095 -0.2596
 9210SOL     OW28845   3.169   7.886   4.452  0.1688  0.0179  0.0194
 9210SOL    HW128846   3.133   7.805   4.417  0.3685  0.1406 -0.4713
 9210SOL    HW228847   3.196   7.863   4.542  3.8401 -1.5832 -1.2918
 9211SOL     OW28848   3.798   8.499   3.585 -0.5743  0.4192 -0.1166
 9211SOL    HW128849   3.739   8.575   3.591 -1.1227  0.1697 -1.6791
 9211SOL    HW228850   3.800   8.478   3.491 -0.4586 -1.5213  0.2750
 9212SOL     OW28851   3.454   8.593   4.546 -0.6031 -0.2203  0.2412
 9212SOL    HW128852   3.507   8.521   4.512 -1.8303 -0.9010 -0.2696
 9212SOL    HW228853   3.470   8.592   4.641  1.3510  0.4853 -0.0345
 9213SOL     OW28854   3.156   7.608   3.746 -0.6201  0.0104 -0.9477
 9213SOL    HW128855   3.081   7.557   3.715  0.9702 -2.7073 -0.6641
 9213SOL    HW228856   3.140   7.619   3.840 -0.1209 -1.6931 -0.6277
 9214SOL     OW28857   2.513   7.408   3.938 -0.3502  0.4926 -0.0238
 9214SOL    HW128858   2.541   7.352   3.866  1.4462  0.9506  0.2922
 9214SOL    HW228859   2.420   7.426   3.919 -0.9181 -2.2778 -0.3079
 9215SOL     OW28860   3.451   8.424   4.905  0.4935  0.1475 -0.1692
 9215SOL    HW128861   3.375   8.477   4.881 -1.0789 -1.1726  1.6895
 9215SOL    HW228862   3.482   8.389   4.822 -1.2109  0.3498 -0.9360
 9216SOL     OW28863   2.999   8.706   4.974 -0.7561  0.2419  0.0234
 9216SOL    HW128864   2.959   8.729   4.890 -0.9632  3.5976  0.8712
 9216SOL    HW228865   2.926   8.711   5.037  0.1224  2.2208  0.9686
 9217SOL     OW28866   3.221   8.590   4.860  0.1847  0.4736  0.2657
 9217SOL    HW128867   3.150   8.593   4.923 -0.4809 -2.4345 -0.2224
 9217SOL    HW228868   3.181   8.619   4.778 -0.1653 -0.0971  0.2295
 9218SOL     OW28869   3.556   8.218   4.271 -0.4343 -0.0767 -0.3683
 9218SOL    HW128870   3.507   8.245   4.192 -1.0247  1.7897  0.5771
 9218SOL    HW228871   3.500   8.152   4.312 -0.0195 -1.2418 -1.5734
 9219SOL     OW28872   2.327   7.439   5.059 -0.0398 -0.5588  0.1822
 9219SOL    HW128873   2.328   7.408   4.968  0.3813  1.4597 -0.5747
 9219SOL    HW228874   2.250   7.398   5.098 -1.9127  0.6624 -1.9577
 9220SOL     OW28875   3.158   8.306   5.322  0.2537 -0.0737  0.1038
 9220SOL    HW128876   3.139   8.285   5.230  0.9649  0.9379 -0.2879
 9220SOL    HW228877   3.242   8.264   5.339 -0.6243 -1.6496  0.8143
 9221SOL     OW28878   2.900   0.381   4.831  0.2374 -0.1890  0.1403
 9221SOL    HW128879   2.932   0.293   4.814 -0.8222 -0.3567 -1.1978
 9221SOL    HW228880   2.832   0.369   4.897  0.1355 -0.3703  0.0036
 9222SOL     OW28881   2.273   8.387   4.912 -0.5892 -0.9217 -0.4306
 9222SOL    HW128882   2.234   8.435   4.839  0.5714 -0.5862 -0.8489
 9222SOL    HW228883   2.329   8.321   4.870  2.1398  0.9270  0.0648
 9223SOL     OW28884   2.544   7.598   5.022  0.0023  0.1752 -0.5981
 9223SOL    HW128885   2.471   7.537   5.027  0.1620 -0.0042 -0.4587
 9223SOL    HW228886   2.569   7.598   4.930  1.5336 -1.7808 -0.2499
 9224SOL     OW28887   1.691   8.823   4.167  0.3531  0.2052  0.0928
 9224SOL    HW128888   1.703   8.776   4.085  0.6216  1.5069 -0.6492
 9224SOL    HW228889   1.770   8.877   4.175  0.0365  0.5712  0.8789
 9225SOL     OW28890   2.648   7.613   4.714 -0.2320  0.1999 -0.6093
 9225SOL    HW128891   2.703   7.536   4.733  0.8958  1.2763  0.6749
 9225SOL    HW228892   2.710   7.679   4.683 -1.3860  0.1531 -3.2600
 9226SOL     OW28893   3.158   0.105   4.218 -0.2699  0.6620  0.0583
 9226SOL    HW128894   3.227   0.163   4.251  0.5879 -0.3303  0.0648
 9226SOL    HW228895   3.092   0.105   4.288  0.6544  0.0631  0.9623
 9227SOL     OW28896   3.080   7.865   4.021 -0.1538  0.4261  0.0984
 9227SOL    HW128897   3.154   7.804   4.023  0.8144  1.5887  1.3070
 9227SOL    HW228898   3.015   7.825   4.080 -0.2676 -0.3146 -0.5169
 9228SOL     OW28899   2.353   8.438   5.415  0.5538  0.4180 -0.2256
 9228SOL    HW128900   2.353   8.465   5.323  0.8974  0.2708 -0.2685
 9228SOL    HW228901   2.437   8.394   5.427  0.5211  0.4628  0.1670
 9229SOL     OW28902   3.431   7.991   5.094 -0.1583 -0.0510  0.1393
 9229SOL    HW128903   3.409   7.899   5.108  1.5249 -0.4318  0.5054
 9229SOL    HW228904   3.460   7.997   5.003  3.0985 -0.6948  0.9949
 9230SOL     OW28905   2.577   7.915   5.403 -0.0612 -0.0060 -0.5997
 9230SOL    HW128906   2.487   7.929   5.375 -1.6201 -2.6572  2.4327
 9230SOL    HW228907   2.581   7.949   5.492  1.2953 -1.6976  0.0632
 9231SOL     OW28908   2.142   7.260   5.241  0.1206 -0.2186 -0.2707
 9231SOL    HW128909   2.073   7.283   5.303  0.2844 -1.0326  0.2325
 9231SOL    HW228910   2.219   7.245   5.296  0.3592 -0.6154 -0.7056
 9232SOL     OW28911   2.751   8.362   4.896 -0.0643  0.0913 -0.5686
 9232SOL    HW128912   2.690   8.428   4.927  0.0764 -0.4357  0.8855
 9232SOL    HW228913   2.795   8.330   4.975  1.4645 -0.1699 -1.4739
 9233SOL     OW28914   2.983   7.822   4.889  0.0068  0.5337 -0.2193
 9233SOL    HW128915   3.010   7.791   4.975  2.4465  3.1892  0.1331
 9233SOL    HW228916   2.925   7.896   4.907  1.3523  1.7798 -0.7177
 9234SOL     OW28917   2.773   8.143   4.558  0.4487  0.3599  0.3337
 9234SOL    HW128918   2.692   8.185   4.586 -0.3106 -0.5740 -0.4274
 9234SOL    HW228919   2.789   8.076   4.624 -0.4911 -0.7803 -0.5490
 9235SOL     OW28920   2.347   7.244   4.817 -0.1843  0.6909 -0.0944
 9235SOL    HW128921   2.382   7.155   4.808 -1.1956  0.5020 -3.0852
 9235SOL    HW228922   2.262   7.232   4.859 -0.6996  0.0956 -1.2507
 9236SOL     OW28923   1.735   8.510   5.157  0.5698 -0.0372  0.6348
 9236SOL    HW128924   1.729   8.454   5.235  0.8906 -1.1087 -0.0855
 9236SOL    HW228925   1.647   8.509   5.121 -0.0606  1.9920  1.9774
 9237SOL     OW28926   2.539   8.187   4.815  0.5933 -0.3386  0.6684
 9237SOL    HW128927   2.501   8.156   4.897 -0.5414  0.2196  0.3719
 9237SOL    HW228928   2.599   8.257   4.842 -0.2620  0.2841  0.9804
 9238SOL     OW28929   3.449   8.191   5.277 -0.0816  0.2059  0.3390
 9238SOL    HW128930   3.545   8.182   5.275 -0.0764  0.2915 -0.1765
 9238SOL    HW228931   3.419   8.134   5.205 -0.2978  1.4606 -0.5898
 9239SOL     OW28932   2.209   7.265   4.214  0.1021  0.0253  0.2364
 9239SOL    HW128933   2.291   7.217   4.206 -0.1229 -0.2590 -0.4346
 9239SOL    HW228934   2.234   7.349   4.253  0.6336 -0.2530  0.5084
 9240SOL     OW28935   3.196   7.993   3.780  0.1149 -0.1994  0.5197
 9240SOL    HW128936   3.285   8.024   3.762 -0.5562  1.2950 -0.3428
 9240SOL    HW228937   3.193   7.984   3.875  1.2401 -0.4590  0.5486
 9241SOL     OW28938   2.439   8.122   5.046 -0.5190  0.2953  0.0241
 9241SOL    HW128939   2.432   8.034   5.081  0.9318 -0.0510 -0.4756
 9241SOL    HW228940   2.461   8.176   5.122 -1.4327  0.2454  0.3345
 9242SOL     OW28941   3.814   8.429   5.302  0.1270 -0.3620 -0.2994
 9242SOL    HW128942   3.767   8.452   5.382  0.3007 -0.9391 -0.0253
 9242SOL    HW228943   3.745   8.418   5.236  0.0044  0.3769 -0.2999
 9243SOL     OW28944   2.449   0.079   5.639 -0.2363 -0.6444 -0.1795
 9243SOL    HW128945   2.504   0.001   5.628 -0.3832 -0.7971  0.1585
 9243SOL    HW228946   2.472   0.135   5.565  2.5711  0.6066  1.4691
 9244SOL     OW28947   2.897   7.709   4.163  0.2129 -0.0067 -0.2972
 9244SOL    HW128948   2.871   7.628   4.120 -0.8252  0.1986 -0.0669
 9244SOL    HW228949   2.821   7.767   4.155 -0.4163 -0.2785  2.6084
 9245SOL     OW28950   2.919   8.053   3.866 -0.2657  0.1480  0.1806
 9245SOL    HW128951   2.975   7.993   3.915 -0.1869 -1.3501 -1.6232
 9245SOL    HW228952   2.980   8.114   3.825  0.0801 -1.2103 -1.4214
 9246SOL     OW28953   2.114   8.542   4.748 -0.3070 -0.1620 -0.8820
 9246SOL    HW128954   2.030   8.530   4.793 -0.1905 -1.0759 -0.9010
 9246SOL    HW228955   2.101   8.500   4.663  0.1304 -0.1811 -0.9371
 9247SOL     OW28956   2.146   8.564   4.241 -0.0360 -0.3003 -0.3436
 9247SOL    HW128957   2.159   8.470   4.228  0.0377 -0.3485  0.0461
 9247SOL    HW228958   2.100   8.570   4.325 -0.7262 -0.0278 -0.7385
 9248SOL     OW28959   2.742   7.684   5.489 -1.3108  0.0650 -0.0256
 9248SOL    HW128960   2.718   7.710   5.578 -0.0049 -0.1443  0.4088
 9248SOL    HW228961   2.702   7.751   5.433 -2.0135  0.2840  0.7240
 9249SOL     OW28962   2.790   7.250   5.299 -0.6353  0.4141 -0.2698
 9249SOL    HW128963   2.863   7.260   5.237  1.0436  0.5089  1.6293
 9249SOL    HW228964   2.712   7.272   5.247  0.8449  2.1708 -1.9110
 9250SOL     OW28965   1.455   8.758   3.842  0.0865  0.0139  0.5487
 9250SOL    HW128966   1.501   8.679   3.870  0.6381  0.5686  1.2673
 9250SOL    HW228967   1.523   8.826   3.841 -0.5124  0.6319  0.6495
 9251SOL     OW28968   2.306   7.946   5.320  0.0897 -0.3300 -0.0927
 9251SOL    HW128969   2.251   7.907   5.253  0.8995 -0.2318 -0.8311
 9251SOL    HW228970   2.264   7.922   5.403 -1.1700 -0.0681 -0.6339
 9252SOL     OW28971   2.140   7.706   4.674 -0.1840 -0.1126  0.0461
 9252SOL    HW128972   2.058   7.668   4.707 -0.6665 -0.5339 -1.5452
 9252SOL    HW228973   2.208   7.652   4.714 -0.6598  0.2264  1.3712
 9253SOL     OW28974   2.139   8.109   5.006 -0.4008  0.0694  0.6831
 9253SOL    HW128975   2.216   8.166   5.011  0.0317 -0.4860  0.4722
 9253SOL    HW228976   2.175   8.020   4.998 -1.0514 -0.1155 -0.4906
 9254SOL     OW28977   2.838   8.245   5.126 -0.1180  0.3788  0.0170
 9254SOL    HW128978   2.931   8.221   5.122 -0.1990  0.1095 -0.3577
 9254SOL    HW228979   2.797   8.173   5.175 -0.3416 -0.1954 -0.9949
 9255SOL     OW28980   2.436   8.169   4.038 -0.2776  0.4060  0.3184
 9255SOL    HW128981   2.441   8.075   4.053 -1.7988  0.5165  1.8074
 9255SOL    HW228982   2.514   8.189   3.985 -1.0130 -1.9827 -1.8685
 9256SOL     OW28983   3.385   8.059   4.455 -0.3426  0.2282 -0.4892
 9256SOL    HW128984   3.315   7.995   4.443  0.9281 -1.2773 -0.2537
 9256SOL    HW228985   3.341   8.137   4.489 -2.0533 -0.2080 -1.5920
 9257SOL     OW28986   2.361   8.190   4.586 -0.2788 -0.1847 -0.3917
 9257SOL    HW128987   2.317   8.106   4.573  1.0540 -1.0524  0.4622
 9257SOL    HW228988   2.417   8.177   4.663  0.4836  1.2609 -0.6589
 9258SOL     OW28989   2.435   7.877   4.015 -0.3225  0.8894 -0.1042
 9258SOL    HW128990   2.474   7.845   3.933 -0.4537 -0.7269  0.4384
 9258SOL    HW228991   2.350   7.833   4.020  0.0532  0.3003  1.3280
 9259SOL     OW28992   2.281   8.689   5.536  0.4173  0.2162  0.1541
 9259SOL    HW128993   2.300   8.605   5.495  1.9176  0.2481  0.6973
 9259SOL    HW228994   2.289   8.753   5.465 -0.6490 -0.0852 -0.2419
 9260SOL     OW28995   3.170   8.262   4.812  0.0011 -0.0189 -0.1997
 9260SOL    HW128996   3.154   8.293   4.723 -1.4540 -1.9158 -0.6721
 9260SOL    HW228997   3.266   8.261   4.820  0.1963 -0.6571 -2.0945
 9261SOL     OW28998   3.111   8.276   3.649  0.1714  0.0570  0.0358
 9261SOL    HW128999   3.049   8.331   3.599  0.8254 -0.1551 -1.0403
 9261SOL    HW229000   3.126   8.200   3.593  0.3838 -0.5451  0.8884
 9262SOL     OW29001   1.905   7.971   4.718  1.1041 -0.7130  0.0344
 9262SOL    HW129002   1.884   8.039   4.781 -0.8107 -2.0784  1.0063
 9262SOL    HW229003   1.863   8.000   4.637  2.3633  0.3777 -0.2412
 9263SOL     OW29004   3.293   7.680   4.017  0.3092  0.3480 -0.0173
 9263SOL    HW129005   3.382   7.713   4.033  0.5904 -0.0507 -0.6810
 9263SOL    HW229006   3.291   7.595   4.062 -0.5786  1.4398  2.1137
 9264SOL     OW29007   2.825   8.691   4.312  0.2582 -0.3827 -0.4883
 9264SOL    HW129008   2.905   8.716   4.265 -0.0525 -0.5769 -1.1440
 9264SOL    HW229009   2.813   8.599   4.291  0.0382 -0.4359 -0.1270
 9265SOL     OW29010   2.815   8.714   5.164  0.0298  0.4387 -0.1266
 9265SOL    HW129011   2.863   8.646   5.212  2.7698  1.8146 -0.7006
 9265SOL    HW229012   2.776   8.768   5.232  1.1365  0.5150  0.4638
 9266SOL     OW29013   3.264   7.439   4.143  0.1527 -0.0506 -0.1322
 9266SOL    HW129014   3.181   7.404   4.176  0.9546 -1.4155  0.5160
 9266SOL    HW229015   3.291   7.377   4.076  1.0363 -0.0330  0.2052
 9267SOL     OW29016   2.274   7.508   4.321  0.5787 -0.4344  0.1386
 9267SOL    HW129017   2.285   7.466   4.406  1.3143  1.0782  0.8278
 9267SOL    HW229018   2.327   7.587   4.326 -0.7229  0.5687 -1.1186
 9268SOL     OW29019   2.531   8.339   5.227 -0.5395  0.1062  0.6083
 9268SOL    HW129020   2.626   8.344   5.241 -0.4644 -1.4077  0.8404
 9268SOL    HW229021   2.507   8.424   5.192  0.9129  0.5124  0.5441
 9269SOL     OW29022   3.114   8.648   3.910 -0.1145 -1.0932  0.1443
 9269SOL    HW129023   3.121   8.553   3.899 -1.9930 -1.3529  0.8446
 9269SOL    HW229024   3.178   8.684   3.848  1.1889 -2.8078  0.4280
 9270SOL     OW29025   2.235   8.802   4.787  0.1135 -0.3747  0.1703
 9270SOL    HW129026   2.321   8.808   4.745  0.4541  0.3797  0.9625
 9270SOL    HW229027   2.203   8.715   4.761  0.9524 -0.5267 -0.4268
 9271SOL     OW29028   3.115   8.739   5.359 -0.5989  0.0723  0.0231
 9271SOL    HW129029   3.191   8.719   5.304  0.9892  0.7808  1.8510
 9271SOL    HW229030   3.098   8.831   5.343  1.4616  0.9744  2.4298
 9272SOL     OW29031   2.823   8.421   4.643 -0.1930 -0.8998  0.5487
 9272SOL    HW129032   2.802   8.391   4.731  0.4020  0.4381  1.1705
 9272SOL    HW229033   2.811   8.344   4.588 -0.3020 -1.8296  1.8352
 9273SOL     OW29034   2.808   7.376   4.744 -0.5761  0.5912 -0.6912
 9273SOL    HW129035   2.772   7.289   4.728 -0.3055  0.5101 -0.8608
 9273SOL    HW229036   2.883   7.382   4.685 -0.5146  0.8898 -0.5833
 9274SOL     OW29037   2.845   7.084   4.732  0.4474  0.0714  0.5658
 9274SOL    HW129038   2.931   7.123   4.741  0.4537  0.7196 -1.5657
 9274SOL    HW229039   2.858   7.010   4.673 -0.3316 -0.2413  0.7703
 9275SOL     OW29040   1.871   7.982   5.565  0.2593  0.4170  0.0101
 9275SOL    HW129041   1.815   7.965   5.489  3.0011 -0.6188 -1.9388
 9275SOL    HW229042   1.815   7.964   5.641 -1.9786 -0.6978 -1.7941
 9276SOL     OW29043   2.654   7.038   5.489  0.3259 -0.2583 -0.1672
 9276SOL    HW129044   2.715   6.995   5.429  1.9762 -0.9635  1.9225
 9276SOL    HW229045   2.696   7.123   5.508  0.2699 -0.4103  0.6565
 9277SOL     OW29046   2.213   7.915   3.728  0.3360  0.1447  0.2286
 9277SOL    HW129047   2.290   7.863   3.704  1.3105  1.3233  0.6689
 9277SOL    HW229048   2.197   7.893   3.820 -0.1387 -0.4354  0.0106
 9278SOL     OW29049   3.092   8.151   5.033  0.0149 -0.2109 -0.2321
 9278SOL    HW129050   3.120   8.184   4.947  0.1951  0.5840  0.1229
 9278SOL    HW229051   3.065   8.061   5.016 -1.3559  0.3787 -1.4049
 9279SOL     OW29052   1.823   7.368   4.103 -0.2577  0.1867  0.0788
 9279SOL    HW129053   1.896   7.337   4.157  0.9724  2.0941 -0.3910
 9279SOL    HW229054   1.763   7.294   4.099  0.2558 -0.4940  2.8824
 9280SOL     OW29055   2.693   8.300   5.644  0.3005 -0.4969  0.6790
 9280SOL    HW129056   2.708   8.354   5.566  0.0733 -2.5095 -0.8287
 9280SOL    HW229057   2.725   8.213   5.619 -3.1033 -2.1353  1.4593
 9281SOL     OW29058   2.372   7.347   5.397 -0.0785  0.0458 -0.1595
 9281SOL    HW129059   2.348   7.439   5.393 -0.6733 -0.0829  0.2762
 9281SOL    HW229060   2.357   7.322   5.488 -0.3657 -0.5957 -0.3739
 9282SOL     OW29061   3.622   8.365   5.133 -0.1494  0.2029 -0.4372
 9282SOL    HW129062   3.552   8.363   5.067  0.0632 -0.1927 -0.6617
 9282SOL    HW229063   3.584   8.322   5.210 -0.2248  0.1762 -0.4899
 9283SOL     OW29064   3.731   7.904   5.084  0.0232 -0.7592 -0.8561
 9283SOL    HW129065   3.807   7.907   5.025 -1.0363  0.7436 -2.2531
 9283SOL    HW229066   3.669   7.966   5.045 -1.5243 -1.1986  0.7996
 9284SOL     OW29067   2.764   7.808   4.540 -0.2509 -0.3034 -0.1848
 9284SOL    HW129068   2.687   7.828   4.487  0.8735 -0.4010 -1.9186
 9284SOL    HW229069   2.753   7.861   4.619 -1.8197  0.0894 -0.6294
 9285SOL     OW29070   2.365   8.627   4.102  0.1679  0.0832 -0.4792
 9285SOL    HW129071   2.331   8.584   4.023 -0.6502  0.8651 -0.5709
 9285SOL    HW229072   2.289   8.631   4.161  0.6484 -0.0495  0.1625
 9286SOL     OW29073   3.956   7.627   5.572 -0.4386  0.5949  0.3837
 9286SOL    HW129074   3.978   7.657   5.660  0.8086  1.0169 -0.0466
 9286SOL    HW229075   4.015   7.554   5.555 -0.2870  0.8574 -0.2875
 9287SOL     OW29076   3.551   8.043   4.878 -0.1043 -0.0101  0.0235
 9287SOL    HW129077   3.603   8.111   4.835  2.5685 -1.4371  0.8095
 9287SOL    HW229078   3.557   7.967   4.820  0.7481 -0.9218  1.2461
 9288SOL     OW29079   2.614   8.551   4.032  0.0660  0.6447  0.0486
 9288SOL    HW129080   2.522   8.557   4.058 -0.1075 -1.0894 -0.0358
 9288SOL    HW229081   2.654   8.496   4.100  0.0275 -2.3327 -2.1150
 9289SOL     OW29082   3.066   8.574   4.621 -0.9525  0.0275 -0.2911
 9289SOL    HW129083   2.979   8.540   4.645 -0.7648 -0.9251 -0.8983
 9289SOL    HW229084   3.090   8.524   4.543  0.5661 -0.4383  0.4385
 9290SOL     OW29085   2.969   8.512   3.516 -0.1504  0.4806 -0.3393
 9290SOL    HW129086   3.011   8.594   3.540  0.9754  0.6404 -2.6024
 9290SOL    HW229087   2.886   8.538   3.476  0.2849  0.5542 -1.2156
 9291SOL     OW29088   2.322   0.243   6.050 -0.0821  0.0801  0.4401
 9291SOL    HW129089   2.366   0.328   6.062  1.3575 -0.6276  0.3243
 9291SOL    HW229090   2.365   0.185   6.113 -1.4228 -0.4552  0.8949
 9292SOL     OW29091   1.677   0.194   4.515 -0.4928  0.3633  0.8235
 9292SOL    HW129092   1.631   0.157   4.440  1.6351  1.4783 -1.1619
 9292SOL    HW229093   1.764   0.154   4.511 -0.4276  0.1542  2.9893
 9293SOL     OW29094   2.223   0.055   5.406 -0.0068  0.2429 -0.7022
 9293SOL    HW129095   2.217   0.059   5.502  1.4097  0.1078 -0.5848
 9293SOL    HW229096   2.203   0.145   5.377  0.0979  0.4188 -0.2430
 9294SOL     OW29097   3.264   7.496   4.681 -0.0083 -0.1862 -0.8142
 9294SOL    HW129098   3.282   7.432   4.750 -2.0162 -0.2656 -0.3021
 9294SOL    HW229099   3.243   7.577   4.728  1.1678  0.4961 -1.4248
 9295SOL     OW29100   2.217   8.285   4.206 -0.3634  0.1683  0.0764
 9295SOL    HW129101   2.237   8.281   4.113  0.5458 -1.0466  0.2990
 9295SOL    HW229102   2.218   8.194   4.236 -1.1844  0.4864  1.1725
 9296SOL     OW29103   3.253   0.522   4.738  0.4264 -0.1633  0.0855
 9296SOL    HW129104   3.241   0.431   4.766 -0.9291 -0.0967 -0.2347
 9296SOL    HW229105   3.227   0.574   4.815  2.4862 -0.0241  0.7487
 9297SOL     OW29106   1.977   7.769   4.886  0.2915 -0.2852  0.7314
 9297SOL    HW129107   1.975   7.849   4.834  0.5575 -0.2154  0.8277
 9297SOL    HW229108   1.939   7.702   4.829 -2.0607  0.3569  1.4245
 9298SOL     OW29109   2.858   7.386   5.047  0.0719 -0.0287 -0.1707
 9298SOL    HW129110   2.954   7.378   5.040 -0.0138 -1.0482 -0.3505
 9298SOL    HW229111   2.828   7.390   4.956  0.0788  2.5600 -0.1237
 9299SOL     OW29112   2.290   7.336   4.542 -0.1121 -0.2699 -0.5486
 9299SOL    HW129113   2.299   7.285   4.623 -1.4243  0.3287  0.0020
 9299SOL    HW229114   2.267   7.271   4.476 -0.4767 -0.5744 -0.1330
 9300SOL     OW29115   2.947   0.088   4.384  0.3008 -0.0249  0.1958
 9300SOL    HW129116   2.888   0.013   4.376 -0.6011  0.3778  2.2195
 9300SOL    HW229117   2.889   0.162   4.404  1.1485  1.2856 -1.8403
 9301SOL     OW29118   2.791   7.563   3.705  0.5247  0.0301  0.6247
 9301SOL    HW129119   2.817   7.630   3.642 -3.0145  0.7244 -0.3153
 9301SOL    HW229120   2.777   7.484   3.653 -0.1820 -0.0420  0.9184
 9302SOL     OW29121   3.014   8.108   4.378 -0.2266  0.4178  0.0512
 9302SOL    HW129122   3.060   8.040   4.427  1.0411  1.3246  0.1884
 9302SOL    HW229123   2.921   8.090   4.393 -0.0128 -2.1390 -1.1242
 9303SOL     OW29124   2.978   7.705   4.433 -0.5721 -0.0092 -0.5737
 9303SOL    HW129125   2.953   7.683   4.343 -0.0574 -0.5910 -0.5783
 9303SOL    HW229126   2.898   7.739   4.472 -1.0000 -0.4891 -1.0147
 9304SOL     OW29127   1.691   8.551   3.726  0.2175  0.9033 -0.6960
 9304SOL    HW129128   1.753   8.534   3.655 -0.3243  1.5430 -1.3283
 9304SOL    HW229129   1.637   8.472   3.731  0.2930  0.8347 -0.9560
 9305SOL     OW29130   2.080   8.422   5.440 -0.1614  0.1170 -0.4183
 9305SOL    HW129131   2.174   8.422   5.457  0.1808  0.3324 -2.1273
 9305SOL    HW229132   2.058   8.329   5.432  0.2603  0.0934 -1.6061
 9306SOL     OW29133   2.205   7.884   6.462  0.3602 -0.0157 -0.2998
 9306SOL    HW129134   2.262   7.918   6.393  0.6085 -1.5330 -0.8775
 9306SOL    HW229135   2.199   7.790   6.444  1.3996 -0.7001  2.4145
 9307SOL     OW29136   2.195   8.333   6.064 -0.1845  0.4439  0.1219
 9307SOL    HW129137   2.266   8.270   6.054 -0.4738 -0.1058  1.4002
 9307SOL    HW229138   2.189   8.348   6.158 -2.6823 -0.6150  0.2006
 9308SOL     OW29139   1.902   0.317   7.098  0.5544 -0.2372  0.4447
 9308SOL    HW129140   1.949   0.317   7.014  0.1743 -1.5584  0.2053
 9308SOL    HW229141   1.965   0.354   7.160  1.0242  0.2963 -0.3130
 9309SOL     OW29142   3.685   0.113   6.105 -0.0462  0.4746 -0.2458
 9309SOL    HW129143   3.634   0.074   6.176  0.1894  1.7518  0.6626
 9309SOL    HW229144   3.641   0.085   6.025 -2.9997  2.5513  0.4991
 9310SOL     OW29145   2.634   8.391   6.095 -0.8232  0.7975 -0.3300
 9310SOL    HW129146   2.718   8.410   6.053 -0.4586 -1.6982 -0.8875
 9310SOL    HW229147   2.653   8.396   6.189  0.0333  0.0884 -0.4474
 9311SOL     OW29148   3.473   7.599   6.020 -0.3251  0.6077  0.2939
 9311SOL    HW129149   3.465   7.565   6.109 -1.3943  0.2467  0.0750
 9311SOL    HW229150   3.385   7.594   5.984  0.1764  0.3245 -0.9490
 9312SOL     OW29151   2.562   8.190   6.722 -0.0077 -0.5608  0.2109
 9312SOL    HW129152   2.497   8.260   6.716  1.5647  0.8433 -2.0314
 9312SOL    HW229153   2.511   8.109   6.717 -1.6323  0.4901 -1.0110
 9313SOL     OW29154   2.755   8.000   7.284  0.1005  0.0297  0.0519
 9313SOL    HW129155   2.678   7.956   7.322  0.2462  1.3372  2.0027
 9313SOL    HW229156   2.829   7.966   7.335  1.0857 -2.0687 -2.5317
 9314SOL     OW29157   2.698   8.544   5.798  0.4099  0.1697  0.2313
 9314SOL    HW129158   2.603   8.554   5.808  0.5450  2.6130 -0.1785
 9314SOL    HW229159   2.709   8.456   5.762 -1.6415 -0.4076  0.8499
 9315SOL     OW29160   2.373   8.651   7.135 -0.2307  0.2178 -0.6149
 9315SOL    HW129161   2.455   8.603   7.133  0.0396  0.6923 -2.5151
 9315SOL    HW229162   2.306   8.585   7.119  0.0886  0.3120 -2.5600
 9316SOL     OW29163   1.975   0.389   6.826  0.3161 -0.2091 -0.1527
 9316SOL    HW129164   1.926   0.463   6.789  0.2660 -0.3835 -0.4300
 9316SOL    HW229165   1.995   0.333   6.752  0.0189 -0.6733  0.1138
 9317SOL     OW29166   2.119   7.603   6.872 -0.3343  0.2596 -0.6670
 9317SOL    HW129167   2.055   7.660   6.915  1.0080  0.4815  1.1690
 9317SOL    HW229168   2.069   7.526   6.846 -1.7114  1.2447 -1.0551
 9318SOL     OW29169   3.105   7.771   6.294 -0.4465  0.5322 -0.6274
 9318SOL    HW129170   3.035   7.749   6.233 -0.2330 -0.6582 -0.4571
 9318SOL    HW229171   3.092   7.865   6.311 -1.7243  0.4387 -0.9400
 9319SOL     OW29172   2.111   8.796   7.303  0.1188  0.2507 -0.0646
 9319SOL    HW129173   2.100   8.816   7.210  1.2627 -0.0419 -0.2789
 9319SOL    HW229174   2.163   8.870   7.337 -0.2029  0.3015  0.3194
 9320SOL     OW29175   2.159   8.807   6.142  0.2545  0.0866 -0.5378
 9320SOL    HW129176   2.249   8.816   6.172 -0.0854 -0.2433  0.6417
 9320SOL    HW229177   2.122   8.737   6.196 -1.1067  1.1528 -0.0164
 9321SOL     OW29178   2.551   0.002   5.931  0.1562 -0.5365 -0.0464
 9321SOL    HW129179   2.595   0.029   5.851  1.1225 -1.2969  0.2218
 9321SOL    HW229180   2.475  -0.048   5.901  0.0346 -0.1056 -0.4848
 9322SOL     OW29181   3.447   7.583   6.862 -0.7448  0.6730  0.0643
 9322SOL    HW129182   3.539   7.557   6.872 -1.3367 -1.0589  1.4909
 9322SOL    HW229183   3.432   7.645   6.933 -0.0319  3.1291 -1.7891
 9323SOL     OW29184   2.348   8.308   5.675 -0.1475  0.3898  0.0081
 9323SOL    HW129185   2.349   8.393   5.721  0.6103  0.6711 -0.5072
 9323SOL    HW229186   2.405   8.321   5.600 -1.5434 -0.0034 -1.1576
 9324SOL     OW29187   3.149   8.342   6.658  0.6961 -0.3048 -0.2075
 9324SOL    HW129188   3.113   8.396   6.588  0.9614 -0.4917 -0.4925
 9324SOL    HW229189   3.107   8.256   6.646  0.7566 -0.3421 -0.1520
 9325SOL     OW29190   3.450   8.447   5.914 -0.0268  0.5731 -0.7100
 9325SOL    HW129191   3.508   8.518   5.944 -0.5259  1.8078 -2.5322
 9325SOL    HW229192   3.506   8.391   5.861  0.3312 -0.3617  0.6058
 9326SOL     OW29193   2.092   7.952   7.518 -0.1619  0.5345 -0.3341
 9326SOL    HW129194   2.124   8.006   7.590 -0.6367  0.2404  0.1116
 9326SOL    HW229195   2.022   7.900   7.557 -0.6064  0.5546 -1.0714
 9327SOL     OW29196   2.378   8.669   6.492  0.0732  0.0327  0.0903
 9327SOL    HW129197   2.388   8.614   6.415 -0.2636 -0.1254  0.1571
 9327SOL    HW229198   2.444   8.738   6.481 -0.5544  0.5227 -0.7888
 9328SOL     OW29199   3.071   8.473   7.281  0.6127 -0.0511 -0.1065
 9328SOL    HW129200   3.054   8.539   7.348 -0.1880  0.7505 -1.0587
 9328SOL    HW229201   2.984   8.442   7.256  0.9026 -0.4200 -0.6726
 9329SOL     OW29202   2.474   7.195   5.885 -0.1838 -0.0350  0.3101
 9329SOL    HW129203   2.537   7.253   5.842  0.9972 -0.6351  1.1616
 9329SOL    HW229204   2.463   7.122   5.824 -0.1828  0.1411  0.0959
 9330SOL     OW29205   2.112   8.625   6.346 -0.6102 -0.2380 -0.5527
 9330SOL    HW129206   2.154   8.648   6.429 -0.8881 -2.0203  0.1097
 9330SOL    HW229207   2.135   8.534   6.331 -1.5098 -0.2743 -1.8694
 9331SOL     OW29208   3.509   7.987   5.505  0.4380 -0.3883 -0.7862
 9331SOL    HW129209   3.571   8.057   5.484 -1.9977  2.6938  1.2837
 9331SOL    HW229210   3.562   7.920   5.548  2.8165  0.3996 -2.2961
 9332SOL     OW29211   2.290   7.519   7.411 -0.0062  0.2364  0.0156
 9332SOL    HW129212   2.228   7.463   7.458 -0.5513  1.2646  0.5536
 9332SOL    HW229213   2.269   7.507   7.319 -1.9625  1.5936  0.2212
 9333SOL     OW29214   2.760   8.776   6.984 -0.5736  0.4473  0.5946
 9333SOL    HW129215   2.748   8.819   7.069  0.9217  1.3840  0.3775
 9333SOL    HW229216   2.834   8.717   6.997 -0.9834 -0.1663  0.1970
 9334SOL     OW29217   2.520   8.082   5.627 -0.0514  0.1646  0.0021
 9334SOL    HW129218   2.523   8.135   5.707  0.8267  1.4550 -0.8450
 9334SOL    HW229219   2.429   8.086   5.599 -0.4551 -0.6205  1.1166
 9335SOL     OW29220   2.988   7.374   6.556 -0.5329  0.2670  0.2269
 9335SOL    HW129221   3.047   7.299   6.551 -0.5107  0.3699 -1.5395
 9335SOL    HW229222   2.901   7.336   6.545 -0.8094  0.1955  2.1931
 9336SOL     OW29223   2.222   7.744   7.212 -0.5542  0.3841  0.2164
 9336SOL    HW129224   2.184   7.751   7.300 -1.2416 -0.9430  0.0644
 9336SOL    HW229225   2.179   7.813   7.162 -2.2983 -0.5906  0.2536
 9337SOL     OW29226   2.960   8.041   7.430  0.1411 -0.1812 -0.0583
 9337SOL    HW129227   3.014   8.118   7.443  2.1050 -1.2769 -1.2154
 9337SOL    HW229228   2.996   7.975   7.489 -3.0517  0.3421  2.7850
 9338SOL     OW29229   2.559   8.837   7.230  0.0424 -0.2383 -0.2388
 9338SOL    HW129230   2.485   8.785   7.200 -0.5812  0.3408  0.2699
 9338SOL    HW229231   2.520   8.918   7.261  0.6614 -0.6824  1.8549
 9339SOL     OW29232   2.672   7.703   6.691 -0.1397  0.5726  0.1351
 9339SOL    HW129233   2.611   7.663   6.628 -0.0646 -0.0760  0.4712
 9339SOL    HW229234   2.622   7.711   6.772  0.0848  0.4343  0.2899
 9340SOL     OW29235   3.084   8.322   5.839  0.5293 -0.7768  0.5773
 9340SOL    HW129236   3.030   8.368   5.903 -0.7022  1.2383 -1.7502
 9340SOL    HW229237   3.047   8.234   5.835  1.2811 -1.3021  3.2649
 9341SOL     OW29238   2.251   8.593   5.961  0.3631 -0.1884 -0.0252
 9341SOL    HW129239   2.219   8.518   6.011  1.1411  0.1596  1.0202
 9341SOL    HW229240   2.201   8.667   5.995  1.5709  0.2077  0.9591
 9342SOL     OW29241   2.592   7.551   5.991 -0.0425 -0.2935  0.0897
 9342SOL    HW129242   2.501   7.572   5.966  0.5703  0.9902 -1.2297
 9342SOL    HW229243   2.592   7.555   6.086 -0.8899  1.9516  0.0535
 9343SOL     OW29244   3.801   8.350   7.385  0.4458  0.2209 -0.0754
 9343SOL    HW129245   3.861   8.286   7.421 -0.0270 -2.1202 -3.0811
 9343SOL    HW229246   3.769   8.398   7.462  1.6586 -2.3644  2.2277
 9344SOL     OW29247   3.345   8.584   6.301 -0.1530 -0.3544 -0.2962
 9344SOL    HW129248   3.288   8.653   6.334  0.5569  0.2189 -0.2196
 9344SOL    HW229249   3.319   8.505   6.349 -0.2444  0.1043  0.4294
 9345SOL     OW29250   2.146   7.625   6.356 -0.1619  0.0056 -0.4942
 9345SOL    HW129251   2.214   7.570   6.319 -0.1773  0.4126 -1.1331
 9345SOL    HW229252   2.087   7.564   6.401  0.6524 -0.3428  0.1205
 9346SOL     OW29253   3.985   8.706   6.126  0.0589  0.0385  0.3487
 9346SOL    HW129254   3.974   8.677   6.216  1.1165 -0.7776  0.2404
 9346SOL    HW229255   3.930   8.646   6.075  0.6539 -0.5021  0.3227
 9347SOL     OW29256   2.435   8.625   5.775  0.5572  0.1219  0.5665
 9347SOL    HW129257   2.368   8.618   5.843 -0.8252  1.5119 -0.5707
 9347SOL    HW229258   2.387   8.656   5.698  1.6643 -3.2057 -1.6784
 9348SOL     OW29259   3.289   7.850   5.967  0.4215  0.1793  0.4467
 9348SOL    HW129260   3.280   7.823   6.058  0.8340 -1.3961  0.0467
 9348SOL    HW229261   3.384   7.855   5.953  0.3824 -0.7044 -0.1960
 9349SOL     OW29262   2.290   8.490   6.849 -0.2357  0.4215 -0.0013
 9349SOL    HW129263   2.273   8.399   6.826 -0.7538  0.7244 -0.8614
 9349SOL    HW229264   2.242   8.504   6.931  0.3285 -0.2324  0.4474
 9350SOL     OW29265   2.567   7.801   7.335  0.8592  0.3390  0.2001
 9350SOL    HW129266   2.530   7.762   7.414 -0.5336  0.4317 -0.3677
 9350SOL    HW229267   2.618   7.730   7.295  1.8673  0.3988  1.3433
 9351SOL     OW29268   3.322   0.215   5.544 -0.0192  0.2927 -0.0800
 9351SOL    HW129269   3.372   0.134   5.531  1.5659  1.1915  0.1033
 9351SOL    HW229270   3.383   0.285   5.519 -0.7777  1.5012  1.2865
 9352SOL     OW29271   3.644   7.023   6.456  0.1031 -0.6204  0.0140
 9352SOL    HW129272   3.639   7.114   6.424  0.9399 -0.6224 -0.1323
 9352SOL    HW229273   3.553   7.002   6.478 -0.4581 -0.4445 -1.8820
 9353SOL     OW29274   2.216   8.067   5.718 -0.5815  0.1832  0.1907
 9353SOL    HW129275   2.229   8.035   5.807  0.1661  2.1755  0.8486
 9353SOL    HW229276   2.239   8.160   5.722 -1.4538  0.5437 -1.8748
 9354SOL     OW29277   3.393   7.764   7.062 -0.3325  0.9066 -0.0376
 9354SOL    HW129278   3.429   7.853   7.061  1.8686  0.0532 -0.4325
 9354SOL    HW229279   3.300   7.777   7.080  0.1374  3.2117  1.0919
 9355SOL     OW29280   2.342   7.317   5.667 -0.0453 -0.3248  0.1916
 9355SOL    HW129281   2.301   7.370   5.735  0.3329 -0.9611  0.9358
 9355SOL    HW229282   2.436   7.327   5.682  0.0308 -1.1169  0.2783
 9356SOL     OW29283   2.514   7.798   6.973 -0.4121  0.1898  0.2909
 9356SOL    HW129284   2.572   7.723   6.987 -2.1716 -1.0545  1.4051
 9356SOL    HW229285   2.448   7.766   6.912 -0.0548  1.5326 -0.8543
 9357SOL     OW29286   2.972   8.606   7.000  0.0273  0.3664  0.0124
 9357SOL    HW129287   3.067   8.605   6.983 -0.2621  0.7288 -1.8698
 9357SOL    HW229288   2.965   8.591   7.094  1.9435 -0.0035  0.1534
 9358SOL     OW29289   2.852   7.636   6.426 -0.3164  0.1637 -0.7953
 9358SOL    HW129290   2.802   7.711   6.394 -2.1298 -0.9457 -0.7106
 9358SOL    HW229291   2.804   7.607   6.503  1.3715 -0.0372  0.2363
 9359SOL     OW29292   2.238   7.396   6.244 -0.1553  0.1444  0.6086
 9359SOL    HW129293   2.177   7.355   6.305  1.6187 -1.6612  1.2662
 9359SOL    HW229294   2.241   7.336   6.169 -0.4099  1.0819 -0.1871
 9360SOL     OW29295   3.148   7.928   5.582  0.0045  0.2189  0.5452
 9360SOL    HW129296   3.130   7.854   5.524  1.5425  1.5784 -1.8498
 9360SOL    HW229297   3.235   7.909   5.617  0.3372  0.7887  0.0423
 9361SOL     OW29298   2.060   7.360   5.837  0.9674 -0.2181 -0.2330
 9361SOL    HW129299   2.010   7.439   5.815  1.0143  0.5829  2.2412
 9361SOL    HW229300   2.000   7.288   5.817  0.8550  0.3994 -2.3734
 9362SOL     OW29301   2.943   7.551   6.066 -0.5437  0.3274  0.1320
 9362SOL    HW129302   2.858   7.549   6.021 -1.2465  0.5851  1.3969
 9362SOL    HW229303   2.941   7.474   6.124 -1.6009  2.3832  3.0460
 9363SOL     OW29304   2.638   7.978   6.511  0.5040  0.0974  0.2898
 9363SOL    HW129305   2.696   7.959   6.438 -0.9234  1.0900 -1.1733
 9363SOL    HW229306   2.688   7.954   6.589  2.5524  0.1978 -0.9323
 9364SOL     OW29307   2.862   8.724   6.406  0.3434 -0.0662 -0.3006
 9364SOL    HW129308   2.909   8.797   6.446  1.7093 -0.7216 -0.6429
 9364SOL    HW229309   2.848   8.751   6.315 -0.5411  0.3855 -0.0467
 9365SOL     OW29310   2.891   8.475   5.977  0.7512 -0.2995 -0.0716
 9365SOL    HW129311   2.822   8.496   5.913  0.6699  0.2591  0.1966
 9365SOL    HW229312   2.899   8.554   6.030  0.7470 -0.7933  0.6776
 9366SOL     OW29313   2.797   8.008   5.284  0.1966 -0.7366  0.4516
 9366SOL    HW129314   2.720   7.978   5.333  0.7476 -1.0581  1.1353
 9366SOL    HW229315   2.849   8.057   5.348  0.0662  0.3754 -0.2719
 9367SOL     OW29316   2.181   7.941   6.996 -0.2365 -0.2381  0.1848
 9367SOL    HW129317   2.248   7.909   6.935 -0.3445  0.1314 -0.1370
 9367SOL    HW229318   2.217   8.023   7.029 -1.5991  1.3280 -1.9447
 9368SOL     OW29319   2.562   7.070   6.106 -0.1476 -0.3159 -0.0419
 9368SOL    HW129320   2.527   7.124   6.035  0.2833 -0.4283 -0.3460
 9368SOL    HW229321   2.630   7.123   6.147  0.1397 -0.5458 -0.2142
 9369SOL     OW29322   2.744   7.211   6.248 -0.1715 -0.2077 -0.2594
 9369SOL    HW129323   2.825   7.256   6.227  0.0697 -1.3743 -2.0127
 9369SOL    HW229324   2.742   7.210   6.344  2.4340 -1.0887 -0.1304
 9370SOL     OW29325   2.973   7.269   6.111  0.2385  0.2499 -0.2706
 9370SOL    HW129326   2.935   7.263   6.023  0.4269  2.6794 -0.5837
 9370SOL    HW229327   3.021   7.187   6.122 -0.4599 -0.4612 -2.0907
 9371SOL     OW29328   3.077   8.526   6.452  0.0561  0.4785  0.2979
 9371SOL    HW129329   3.001   8.582   6.441 -0.1749  0.1195  0.0295
 9371SOL    HW229330   3.077   8.470   6.374 -0.2341 -0.5023  0.9889
 9372SOL     OW29331   3.042   8.087   6.584 -0.5769 -0.0275  0.3551
 9372SOL    HW129332   3.020   8.023   6.651 -0.7368 -0.6689 -0.3064
 9372SOL    HW229333   2.960   8.133   6.567 -1.3124 -1.8649 -1.5150
 9373SOL     OW29334   3.386   7.869   6.254  0.2030  0.3096  0.1461
 9373SOL    HW129335   3.409   7.954   6.216 -2.4391  0.6042 -1.0335
 9373SOL    HW229336   3.318   7.888   6.317 -0.1794 -0.8991  0.1242
 9374SOL     OW29337   3.207   8.812   6.339 -0.7053  0.0324 -0.2466
 9374SOL    HW129338   3.215   8.818   6.244  2.5697  2.2997  0.0146
 9374SOL    HW229339   3.139   8.875   6.362 -0.0242  1.0599 -0.9830
 9375SOL     OW29340   2.945   8.034   5.775 -0.0241 -0.6011 -0.4183
 9375SOL    HW129341   2.972   8.062   5.687 -0.6676  1.5147  0.0170
 9375SOL    HW229342   2.989   7.949   5.787 -0.5370 -1.3416 -3.0594
 9376SOL     OW29343   2.332   7.598   6.121 -0.1721 -0.8631  0.3423
 9376SOL    HW129344   2.309   7.517   6.167 -1.8762  0.0981  1.3018
 9376SOL    HW229345   2.248   7.630   6.087  0.4416  0.5960  0.1592
 9377SOL     OW29346   3.146   0.411   7.105 -0.1333  0.0252 -0.1034
 9377SOL    HW129347   3.223   0.443   7.152  0.1066 -0.3127 -0.2628
 9377SOL    HW229348   3.176   0.331   7.062 -1.2082 -1.4653  1.7759
 9378SOL     OW29349   2.524   0.524   7.236  0.3726  0.5290 -0.0614
 9378SOL    HW129350   2.557   0.608   7.268 -1.1323  0.6839  1.2294
 9378SOL    HW229351   2.529   0.466   7.312  1.0532 -0.4690 -0.8377
 9379SOL     OW29352   2.768   0.265   7.120  0.8501 -0.6914  0.3642
 9379SOL    HW129353   2.755   0.349   7.077 -0.8150 -0.9526  0.2787
 9379SOL    HW229354   2.849   0.231   7.083  0.7034  0.1692 -0.7900
 9380SOL     OW29355   3.286   8.562   6.957  0.8293 -0.1122 -0.3034
 9380SOL    HW129356   3.288   8.473   6.993 -0.5984 -0.0377  0.0437
 9380SOL    HW229357   3.307   8.618   7.031  0.2260 -0.0837 -0.1514
 9381SOL     OW29358   3.219   7.262   6.954  0.5830  0.4038 -0.3825
 9381SOL    HW129359   3.272   7.198   7.002 -0.4622  0.1708  0.5123
 9381SOL    HW229360   3.206   7.333   7.016 -0.0462  0.5054 -0.6249
 9382SOL     OW29361   2.384   0.130   6.712 -0.1433 -0.4356 -0.0782
 9382SOL    HW129362   2.329   0.052   6.705 -0.1148 -0.3146 -2.3976
 9382SOL    HW229363   2.345   0.180   6.784  0.2239 -2.7984  1.9333
 9383SOL     OW29364   3.246   8.504   5.765  0.1720  0.3776 -0.7742
 9383SOL    HW129365   3.187   8.432   5.786 -0.5770  0.6721 -1.7651
 9383SOL    HW229366   3.327   8.483   5.811 -0.5418 -0.2829  0.2230
 9384SOL     OW29367   2.224   8.339   6.346 -0.4833  1.0993 -0.2237
 9384SOL    HW129368   2.174   8.327   6.427 -1.7766 -3.8347 -1.3884
 9384SOL    HW229369   2.303   8.286   6.358  0.3607  2.0342 -1.4203
 9385SOL     OW29370   2.974   8.283   6.891 -0.2169  0.5512 -0.4721
 9385SOL    HW129371   2.910   8.274   6.820 -2.0743 -0.2948  1.2216
 9385SOL    HW229372   3.015   8.368   6.875  0.2913 -0.1071 -3.1862
 9386SOL     OW29373   1.931   0.122   6.142 -0.3566  0.0258 -0.4112
 9386SOL    HW129374   2.021   0.103   6.117 -0.0594  2.2853 -1.3347
 9386SOL    HW229375   1.934   0.211   6.177 -1.6799 -1.1043  3.0146
 9387SOL     OW29376   2.462   7.612   6.507 -0.2658 -0.4224 -0.2518
 9387SOL    HW129377   2.494   7.638   6.422 -0.9409 -1.3971 -0.8310
 9387SOL    HW229378   2.447   7.517   6.499 -0.8801 -0.4274  0.7573
 9388SOL     OW29379   2.428   8.559   6.256  0.2569 -0.1514  0.1858
 9388SOL    HW129380   2.498   8.501   6.227 -0.5090  0.2201 -2.7135
 9388SOL    HW229381   2.446   8.642   6.212 -0.4484  0.8511  1.6971
 9389SOL     OW29382   3.310   7.994   6.550 -0.5368 -0.1048  0.5516
 9389SOL    HW129383   3.236   8.054   6.564 -1.4695 -0.9196 -0.7494
 9389SOL    HW229384   3.310   7.939   6.628 -2.4517 -1.2439 -0.1817
 9390SOL     OW29385   2.279   8.189   7.063 -0.2727  0.5700 -0.3343
 9390SOL    HW129386   2.347   8.175   7.130  0.1838 -0.8597 -1.0570
 9390SOL    HW229387   2.246   8.277   7.081 -1.1983 -0.2386  2.7102
 9391SOL     OW29388   3.461   8.280   7.557 -0.1570 -0.1581  0.5540
 9391SOL    HW129389   3.424   8.368   7.560  1.5738  0.6776 -0.6310
 9391SOL    HW229390   3.503   8.269   7.643 -2.0624 -0.6628  1.4622
 9392SOL     OW29391   3.147   7.527   7.088  0.0822  0.4749  0.0532
 9392SOL    HW129392   3.116   7.577   7.164 -0.0520  1.5367 -0.6815
 9392SOL    HW229393   3.068   7.514   7.035  0.2995  0.3378 -0.2363
 9393SOL     OW29394   2.790   7.271   7.388  0.1728  0.1096  0.0069
 9393SOL    HW129395   2.701   7.296   7.414  0.3038  0.1933  0.3828
 9393SOL    HW229396   2.818   7.209   7.456 -0.3583 -1.5149 -1.1990
 9394SOL     OW29397   2.411   0.004   6.159 -0.3366  0.2050  0.5791
 9394SOL    HW129398   2.476   0.019   6.090 -0.5743  0.0536  0.3242
 9394SOL    HW229399   2.459   0.023   6.240  0.1193 -0.2008  0.4138
 9395SOL     OW29400   3.058   8.046   6.277 -0.1058 -0.1764  0.2226
 9395SOL    HW129401   3.094   8.126   6.314  0.1441  0.0152 -0.4228
 9395SOL    HW229402   3.065   8.058   6.183  0.1160 -1.0337  0.1192
 9396SOL     OW29403   2.771   7.411   5.519  0.4520  0.9055 -0.0530
 9396SOL    HW129404   2.776   7.503   5.493 -0.2987  0.6545 -1.1419
 9396SOL    HW229405   2.756   7.364   5.437  1.2042 -0.2266  0.4510
 9397SOL     OW29406   2.475   7.357   6.549 -0.6803  0.0770  0.3228
 9397SOL    HW129407   2.444   7.278   6.504  0.1310  0.1260 -0.3378
 9397SOL    HW229408   2.508   7.325   6.634 -2.5416  0.0289  1.0781
 9398SOL     OW29409   2.032   8.765   7.025  0.6600  0.0547  0.0379
 9398SOL    HW129410   1.948   8.811   7.024  0.8203  0.3756  0.8299
 9398SOL    HW229411   2.069   8.780   6.938 -0.0508  0.0074 -0.2738
 9399SOL     OW29412   2.383   7.972   6.296  0.1518  0.2741  0.0449
 9399SOL    HW129413   2.399   8.010   6.210  0.9599  1.0248  0.5168
 9399SOL    HW229414   2.442   8.018   6.355  0.0011 -0.6032  0.9180
 9400SOL     OW29415   3.464   8.162   7.288 -0.2666  0.5075  0.0887
 9400SOL    HW129416   3.449   8.077   7.330  1.4298 -0.1362 -0.5395
 9400SOL    HW229417   3.481   8.221   7.361 -0.1952  0.0250  0.4716
 9401SOL     OW29418   1.934   7.734   6.255 -0.2338  0.1820 -0.0067
 9401SOL    HW129419   1.941   7.816   6.206 -0.9558 -0.8425 -1.9360
 9401SOL    HW229420   2.022   7.718   6.287  0.5738  0.3258 -2.0085
 9402SOL     OW29421   3.084   7.568   5.680  0.4066 -0.0590 -0.3659
 9402SOL    HW129422   3.041   7.573   5.595  2.7571 -0.8602 -1.6922
 9402SOL    HW229423   3.081   7.476   5.704 -0.6759  0.2242  0.7139
 9403SOL     OW29424   2.827   7.924   6.320  0.5018 -0.0137 -0.2936
 9403SOL    HW129425   2.818   7.910   6.226 -2.0164  1.7970 -0.4232
 9403SOL    HW229426   2.903   7.981   6.329 -0.1766  1.1210 -1.4397
 9404SOL     OW29427   3.098   8.692   7.452 -0.2032  0.1027  0.2965
 9404SOL    HW129428   3.061   8.779   7.464 -0.4688  0.2369 -1.3207
 9404SOL    HW229429   3.184   8.707   7.413 -0.3967 -0.3496 -0.3249
 9405SOL     OW29430   2.003   8.117   7.325  0.0329 -0.0033 -0.0853
 9405SOL    HW129431   2.049   8.069   7.393  0.3571  3.3256  2.2735
 9405SOL    HW229432   1.945   8.052   7.285  2.0410 -2.7966  1.2363
 9406SOL     OW29433   2.811   7.657   5.144 -0.2339  0.8485  0.2406
 9406SOL    HW129434   2.838   7.570   5.116 -0.4293  1.3172 -1.4931
 9406SOL    HW229435   2.717   7.651   5.159 -0.6635  1.2521 -2.0225
 9407SOL     OW29436   3.015   7.724   5.445  0.0999  0.2806  0.1780
 9407SOL    HW129437   2.919   7.728   5.453  0.0967 -0.1745  0.3412
 9407SOL    HW229438   3.032   7.753   5.355 -0.2386 -0.2935 -0.0768
 9408SOL     OW29439   2.048   8.337   6.563 -0.3121  0.6892  0.3158
 9408SOL    HW129440   1.975   8.392   6.593 -1.5096 -0.9584  0.5440
 9408SOL    HW229441   2.110   8.338   6.636 -1.4191 -0.1302  1.3134
 9409SOL     OW29442   1.895   7.980   6.516 -0.1719 -0.4228  0.8862
 9409SOL    HW129443   1.861   8.030   6.441 -0.1097  0.4548  1.4353
 9409SOL    HW229444   1.989   7.971   6.498 -0.0089  0.4909  1.2466
 9410SOL     OW29445   3.043   7.999   6.938  0.4013  0.7118 -0.0179
 9410SOL    HW129446   2.956   7.960   6.943  0.7410 -0.1435 -0.5376
 9410SOL    HW229447   3.026   8.092   6.922 -0.4361  1.0265  2.2867
 9411SOL     OW29448   2.930   7.771   6.743  0.1426  1.2063  0.0304
 9411SOL    HW129449   2.842   7.738   6.730  0.2268  1.8316 -2.5690
 9411SOL    HW229450   2.918   7.865   6.757  0.4004  1.3977 -0.9499
 9412SOL     OW29451   2.053   8.769   5.705  0.0662  0.0300  0.1026
 9412SOL    HW129452   2.095   8.823   5.772  1.0354  0.6448 -0.9669
 9412SOL    HW229453   2.125   8.733   5.654 -0.5554 -2.1969  0.6699
 9413SOL     OW29454   2.647   8.427   6.361 -0.2390  0.3303 -0.5683
 9413SOL    HW129455   2.729   8.455   6.403 -0.3539 -0.6206  0.3371
 9413SOL    HW229456   2.579   8.450   6.424 -0.4124 -1.1651 -0.1536
 9414SOL     OW29457   1.756   8.043   6.758 -0.2103 -0.3212  0.4472
 9414SOL    HW129458   1.732   8.135   6.744  0.9556 -0.1333 -0.3913
 9414SOL    HW229459   1.824   8.025   6.694  1.1753 -1.1265  2.0562
 9415SOL     OW29460   2.208   7.469   7.146 -0.0115 -0.1174  0.2333
 9415SOL    HW129461   2.235   7.561   7.141  0.7715 -0.3196  0.6846
 9415SOL    HW229462   2.131   7.464   7.089  0.1655  0.7332 -0.0966
 9416SOL     OW29463   2.741   0.145   7.382  0.3785 -0.1534  1.0154
 9416SOL    HW129464   2.737   0.162   7.288  1.2130 -0.5558  0.8974
 9416SOL    HW229465   2.652   0.163   7.413  0.5213  1.7318  0.4588
 9417SOL     OW29466   2.435   7.872   5.881 -0.1989 -0.0784  0.2238
 9417SOL    HW129467   2.397   7.784   5.879 -0.1841 -0.0935  0.6326
 9417SOL    HW229468   2.363   7.928   5.909 -0.0160 -0.0584  0.6532
 9418SOL     OW29469   3.504   7.649   6.578 -0.3393 -0.0980  1.1510
 9418SOL    HW129470   3.426   7.680   6.625  0.1905 -0.3881  2.2507
 9418SOL    HW229471   3.540   7.579   6.633 -0.1359 -1.0140 -0.0832
 9419SOL     OW29472   2.373   7.729   6.749 -0.2130 -0.3715 -0.1366
 9419SOL    HW129473   2.298   7.688   6.792  0.2390 -1.2619 -0.1712
 9419SOL    HW229474   2.389   7.675   6.672 -0.0272  0.2859 -0.5656
 9420SOL     OW29475   2.725   7.847   5.726 -0.3733  0.1003  0.0427
 9420SOL    HW129476   2.636   7.863   5.760 -0.3758  1.6076 -0.5713
 9420SOL    HW229477   2.781   7.901   5.782  0.1077 -0.4786  0.1255
 9421SOL     OW29478   1.760   8.494   6.945  0.0321 -0.4413  0.4235
 9421SOL    HW129479   1.799   8.567   6.899  0.4176 -1.3741 -0.7795
 9421SOL    HW229480   1.715   8.533   7.020 -1.4474  1.2238 -1.2569
 9422SOL     OW29481   2.841   8.274   6.652 -0.2487  0.4370 -0.3270
 9422SOL    HW129482   2.842   8.369   6.643  0.5820  0.5849  1.0271
 9422SOL    HW229483   2.751   8.253   6.673  0.0709  1.2621  2.1476
 9423SOL     OW29484   3.028   7.782   5.849  0.6839 -0.0588 -0.5317
 9423SOL    HW129485   3.023   7.710   5.786  1.7322 -1.1092  0.5395
 9423SOL    HW229486   3.112   7.769   5.893  0.4476  1.2694  0.3522
 9424SOL     OW29487   1.600   8.709   6.381  0.1007 -0.1658 -0.4643
 9424SOL    HW129488   1.553   8.632   6.349  0.0136  0.0301 -0.8111
 9424SOL    HW229489   1.648   8.741   6.305  2.6870 -1.7088  0.4011
 9425SOL     OW29490   3.207   7.528   5.963  0.2595 -0.0435  0.2217
 9425SOL    HW129491   3.189   7.464   5.893  1.2307  1.1284 -1.1650
 9425SOL    HW229492   3.120   7.554   5.994 -0.2264 -0.2387 -0.9064
 9426SOL     OW29493   3.053   8.373   6.231 -0.2432 -0.0449  0.0856
 9426SOL    HW129494   3.131   8.343   6.183  1.4652  0.0309  2.6363
 9426SOL    HW229495   2.994   8.404   6.163  0.9662 -2.2673 -2.1570
 9427SOL     OW29496   2.148   8.511   7.063  0.6061 -0.1506 -0.2207
 9427SOL    HW129497   2.113   8.599   7.080  2.3600  0.5858 -0.2133
 9427SOL    HW229498   2.071   8.455   7.061 -0.7373  1.6126 -1.7399
 9428SOL     OW29499   3.752   7.629   6.143 -0.2946  0.2471  0.1298
 9428SOL    HW129500   3.695   7.581   6.203  0.2690  0.3349  0.7474
 9428SOL    HW229501   3.731   7.721   6.159  0.1024  0.2843  0.4463
 9429SOL     OW29502   2.184   7.970   5.975 -0.0129 -0.0372  0.4264
 9429SOL    HW129503   2.105   8.019   6.000 -1.4248 -1.4600 -0.9686
 9429SOL    HW229504   2.154   7.879   5.970  1.4258 -0.4545 -1.3342
 9430SOL     OW29505   2.173   8.688   6.699  0.3237 -0.2093 -0.6998
 9430SOL    HW129506   2.205   8.627   6.766  0.5109  0.2232 -0.3957
 9430SOL    HW229507   2.250   8.706   6.645  0.3296 -0.0245 -0.6270
 9431SOL     OW29508   3.261   8.327   6.048 -0.6535 -0.3855 -0.6006
 9431SOL    HW129509   3.225   8.279   5.973 -0.2604  1.4474 -2.0399
 9431SOL    HW229510   3.321   8.390   6.009  0.5986 -0.2750  1.3955
 9432SOL     OW29511   2.260   0.179   7.315  0.6037 -0.4703 -0.1527
 9432SOL    HW129512   2.253   0.214   7.226  1.7013 -1.8505 -0.8265
 9432SOL    HW229513   2.352   0.191   7.339  0.3025 -0.0254  0.8543
 9433SOL     OW29514   2.931   8.819   6.726  0.4023 -0.5172  0.4782
 9433SOL    HW129515   2.859   8.880   6.740  0.0844 -0.8590  0.3526
 9433SOL    HW229516   2.936   8.767   6.806  0.2128 -0.7947  0.3139
 9434SOL     OW29517   2.568   8.516   6.797 -0.0123  0.2199  0.1691
 9434SOL    HW129518   2.602   8.524   6.886 -0.8729  0.0604  0.5231
 9434SOL    HW229519   2.473   8.508   6.808 -0.1134  0.0088 -0.7523
 9435SOL     OW29520   2.761   7.230   6.539  0.2651 -0.4413  0.0893
 9435SOL    HW129521   2.789   7.153   6.587 -0.4000 -1.1628 -0.6552
 9435SOL    HW229522   2.675   7.252   6.576  0.1657 -0.4418 -0.1398
 9436SOL     OW29523   3.586   7.566   7.161  0.4555 -0.4534 -0.2651
 9436SOL    HW129524   3.530   7.643   7.170 -0.0971 -0.8905  0.1871
 9436SOL    HW229525   3.587   7.547   7.067 -3.4034 -2.7085 -0.0657
 9437SOL     OW29526   1.682   8.631   7.165 -0.3427  0.0701 -0.0962
 9437SOL    HW129527   1.692   8.727   7.167  1.0882 -0.0683  0.3953
 9437SOL    HW229528   1.752   8.598   7.221 -1.6087 -1.2448  0.7836
 9438SOL     OW29529   2.887   7.402   6.844  0.2780 -0.6573 -0.2115
 9438SOL    HW129530   2.940   7.394   6.765  2.7494  0.8191  1.1845
 9438SOL    HW229531   2.891   7.315   6.884  0.4378 -0.9408 -0.8215
 9439SOL     OW29532   2.132   7.893   5.521  0.0436 -0.3815  0.2277
 9439SOL    HW129533   2.037   7.907   5.522 -0.7841 -4.3291  3.1097
 9439SOL    HW229534   2.166   7.953   5.588 -0.1062  1.8836 -1.6116
 9440SOL     OW29535   2.786   8.526   6.625 -0.2326 -0.1006  0.3854
 9440SOL    HW129536   2.828   8.611   6.638  0.4844 -0.6581  2.1647
 9440SOL    HW229537   2.705   8.532   6.675 -0.9517  0.0312 -0.7635
 9441SOL     OW29538   2.073   7.721   6.001 -0.2268  0.0130 -0.0135
 9441SOL    HW129539   2.053   7.662   6.074 -0.2626  0.2929  0.2083
 9441SOL    HW229540   2.029   7.682   5.926 -2.8263  1.2921  0.7205
 9442SOL     OW29541   2.747   7.947   7.000  0.4409  0.1169  0.2879
 9442SOL    HW129542   2.753   7.969   7.094  1.4742  0.1018  0.2404
 9442SOL    HW229543   2.670   7.891   6.993  0.2695  0.2361  1.1084
 9443SOL     OW29544   2.428   8.078   7.275 -0.0576 -0.1255  0.7515
 9443SOL    HW129545   2.428   7.983   7.263  1.6758 -0.2805  1.6214
 9443SOL    HW229546   2.382   8.091   7.358 -0.9423 -0.1345  0.2671
 9444SOL     OW29547   3.152   8.226   7.433 -0.7594 -0.1341 -0.2993
 9444SOL    HW129548   3.120   8.309   7.396  1.8868 -0.0692 -2.9023
 9444SOL    HW229549   3.247   8.233   7.424 -0.4314 -3.1500  0.1212
 9445SOL     OW29550   3.511   8.576   6.591 -0.0616 -0.4079 -0.0169
 9445SOL    HW129551   3.452   8.645   6.562 -0.0708  0.1105  1.1664
 9445SOL    HW229552   3.453   8.504   6.616 -0.0199 -1.2045 -2.0388
 9446SOL     OW29553   2.838   7.856   6.043 -0.4853 -0.3953  0.2545
 9446SOL    HW129554   2.753   7.813   6.028 -0.4738 -0.2596 -0.2458
 9446SOL    HW229555   2.885   7.843   5.960 -0.4972  0.6124  0.0776
 9447SOL     OW29556   2.483   8.129   6.064  0.5923  0.1677 -0.1735
 9447SOL    HW129557   2.549   8.099   6.002  0.5806  1.3519 -0.7791
 9447SOL    HW229558   2.527   8.198   6.114  0.8852 -1.3105  1.7543
 9448SOL     OW29559   3.709   7.985   7.175  0.0917  0.2654  0.1320
 9448SOL    HW129560   3.621   8.006   7.143 -0.8415 -1.9924  1.0165
 9448SOL    HW229561   3.700   7.979   7.270  1.3162  0.4473  0.2770
 9449SOL     OW29562   3.326   7.840   6.767 -0.2624 -0.0414 -0.4150
 9449SOL    HW129563   3.394   7.800   6.823  0.9232 -0.0916 -1.8427
 9449SOL    HW229564   3.270   7.888   6.828  0.6963 -0.5049  0.8751
 9450SOL     OW29565   2.993   0.108   5.947  0.0572  0.5009 -0.3897
 9450SOL    HW129566   3.044   0.135   6.023 -2.1582 -0.1054  1.4200
 9450SOL    HW229567   3.037   0.149   5.873  2.0648  1.4702  1.2477
 9451SOL     OW29568   2.616   8.510   7.084 -0.5186  0.2544 -0.7734
 9451SOL    HW129569   2.678   8.574   7.119 -0.2920  0.5880 -1.7384
 9451SOL    HW229570   2.644   8.426   7.120  0.0865  0.4988 -0.6633
 9452SOL     OW29571   2.934   8.543   5.330 -0.4414 -0.0730  0.3121
 9452SOL    HW129572   3.008   8.601   5.346 -0.0887  0.1724 -1.8259
 9452SOL    HW229573   2.974   8.456   5.316 -0.4257  0.1738 -1.4495
 9453SOL     OW29574   2.120   8.318   7.451 -0.1013  0.3485  0.1600
 9453SOL    HW129575   2.143   8.398   7.403 -0.1374 -0.0922 -0.6132
 9453SOL    HW229576   2.085   8.260   7.384 -0.3235 -0.2210  0.7636
 9454SOL     OW29577   1.723   8.793   6.161 -0.6903 -0.5446 -0.1744
 9454SOL    HW129578   1.816   8.816   6.157 -0.4966 -1.0823  1.0949
 9454SOL    HW229579   1.709   8.739   6.083  0.1891 -0.9172 -0.0905
 9455SOL     OW29580   2.378   0.457   7.545 -0.1000  0.3334  0.2533
 9455SOL    HW129581   2.302   0.401   7.534  0.0737 -0.2148  1.5874
 9455SOL    HW229582   2.344   0.537   7.587 -0.4802  1.6435 -2.3674
 9456SOL     OW29583   3.698   7.513   6.889 -0.1295 -0.0105  0.0127
 9456SOL    HW129584   3.786   7.543   6.913 -0.3159 -1.2843  2.5653
 9456SOL    HW229585   3.712   7.452   6.816  1.0099  0.3686 -0.1039
 9457SOL     OW29586   2.537   7.741   6.252 -0.3155 -0.5075 -0.5182
 9457SOL    HW129587   2.471   7.697   6.198 -0.6192 -0.0975 -0.4777
 9457SOL    HW229588   2.491   7.814   6.293  0.0805 -0.4166 -0.2288
 9458SOL     OW29589   3.272   8.786   6.618  0.0742 -0.1290 -0.2409
 9458SOL    HW129590   3.192   8.743   6.647 -1.9087  2.2298 -1.8075
 9458SOL    HW229591   3.264   8.791   6.523  1.9524  0.4394 -0.4155
 9459SOL     OW29592   2.481   8.223   6.460  0.0561  0.2038 -0.1794
 9459SOL    HW129593   2.515   8.201   6.546  0.4642  2.5726  0.3333
 9459SOL    HW229594   2.558   8.231   6.404  0.0878  1.7099  0.0312
 9460SOL     OW29595   3.155   7.686   6.611  0.1436  0.1208  0.4847
 9460SOL    HW129596   3.222   7.738   6.655 -0.8436  2.2728 -0.4226
 9460SOL    HW229597   3.074   7.704   6.658 -0.0276 -1.7441  1.0022
 9461SOL     OW29598   2.792   6.984   6.679  0.2090 -0.1231  0.3110
 9461SOL    HW129599   2.818   7.009   6.768  1.8337  0.4455 -0.3003
 9461SOL    HW229600   2.806   6.889   6.677  0.5322 -0.0815  0.5335
 9462SOL     OW29601   2.923   8.718   6.102 -0.3062 -0.1648 -0.3214
 9462SOL    HW129602   3.014   8.709   6.076 -0.2043 -0.7122  0.1961
 9462SOL    HW229603   2.882   8.768   6.031  0.2589 -0.4544 -0.8581
 9463SOL     OW29604   3.139   7.306   5.726 -0.2851  0.0431 -0.1338
 9463SOL    HW129605   3.191   7.243   5.778 -0.7219  0.1482  0.4378
 9463SOL    HW229606   3.080   7.251   5.675 -1.1410 -0.0069  0.8731
 9464SOL     OW29607   3.111   8.079   5.997  0.2912  0.3062 -0.5002
 9464SOL    HW129608   3.027   8.078   5.951 -0.0749 -0.0717  0.1505
 9464SOL    HW229609   3.165   8.015   5.951  0.8360  1.8025 -2.0027
 9465SOL     OW29610   1.978   8.454   5.700  0.2017 -0.0760 -0.2946
 9465SOL    HW129611   1.995   8.544   5.729 -2.0783  0.1094  0.6864
 9465SOL    HW229612   2.018   8.449   5.613  0.2927  1.9182 -0.4145
 9466SOL     OW29613   1.897   7.831   7.689  0.0319  0.3568  0.3139
 9466SOL    HW129614   1.825   7.774   7.718 -1.7108  1.8923 -0.7772
 9466SOL    HW229615   1.890   7.908   7.745 -0.2931  1.2503 -0.9235
 9467SOL     OW29616   2.397   7.642   8.089  0.0811  0.3425  0.4717
 9467SOL    HW129617   2.343   7.571   8.124 -0.1147  1.1278  1.8104
 9467SOL    HW229618   2.434   7.685   8.166  1.2951  0.8611 -0.3637
 9468SOL     OW29619   2.139   7.369   7.566  0.0020 -0.0723  0.0466
 9468SOL    HW129620   2.073   7.437   7.581  1.9256  1.9408 -0.0298
 9468SOL    HW229621   2.172   7.349   7.653 -0.4287 -0.7898  0.0482
 9469SOL     OW29622   2.452   8.648   8.681  0.1526 -0.1671 -0.0158
 9469SOL    HW129623   2.449   8.553   8.692  1.1874 -0.3356 -0.9373
 9469SOL    HW229624   2.495   8.660   8.596  1.0133  1.1382  0.5834
 9470SOL     OW29625   3.209   0.279   7.821  0.2789 -0.6130 -0.3669
 9470SOL    HW129626   3.243   0.286   7.732 -0.3207 -0.8594 -0.6236
 9470SOL    HW229627   3.245   0.354   7.867 -3.2102  2.4488 -2.1048
 9471SOL     OW29628   3.367   8.450   8.100 -0.1001  0.1222 -0.3733
 9471SOL    HW129629   3.427   8.396   8.152  1.6869 -0.6548 -3.0110
 9471SOL    HW229630   3.282   8.408   8.111  0.4893 -0.8534  0.7410
 9472SOL     OW29631   3.385   8.547   7.856  0.1200  0.5105 -0.8243
 9472SOL    HW129632   3.396   8.640   7.878  2.1327 -0.2249  1.6540
 9472SOL    HW229633   3.365   8.505   7.940  1.3088 -1.5708 -1.5189
 9473SOL     OW29634   2.502   0.019   8.397  0.2068  0.6872  0.1816
 9473SOL    HW129635   2.478  -0.037   8.323 -1.4911 -0.7982  1.7329
 9473SOL    HW229636   2.547   0.093   8.358 -0.3979 -0.1607 -2.3046
 9474SOL     OW29637   2.389   8.226   8.390  0.4441  0.2974 -0.4043
 9474SOL    HW129638   2.433   8.156   8.341 -1.8300 -0.1360 -1.9876
 9474SOL    HW229639   2.295   8.207   8.380 -0.1887  1.6300  2.0952
 9475SOL     OW29640   2.573   0.281   8.281  0.0034  0.3326 -0.2382
 9475SOL    HW129641   2.540   0.318   8.363  2.8469  0.4097  0.9736
 9475SOL    HW229642   2.644   0.340   8.254  0.9755 -1.2160 -1.2417
 9476SOL     OW29643   2.566   8.227   8.021  0.3199 -0.2606 -0.6341
 9476SOL    HW129644   2.504   8.163   8.056 -0.4848  0.2736 -1.0612
 9476SOL    HW229645   2.622   8.249   8.095 -0.3058 -0.3944 -0.1177
 9477SOL     OW29646   3.777   8.482   8.091  0.5646  0.4423 -0.0428
 9477SOL    HW129647   3.717   8.552   8.066 -1.8749 -0.9891  1.4135
 9477SOL    HW229648   3.805   8.505   8.180 -1.3259 -1.0059  0.9901
 9478SOL     OW29649   2.011   7.945   8.152  0.4315 -0.3260  0.0077
 9478SOL    HW129650   2.044   8.031   8.179 -0.7917 -0.3094  1.5550
 9478SOL    HW229651   1.929   7.934   8.200 -0.6676 -1.3541 -1.9609
 9479SOL     OW29652   2.613   8.285   7.262  0.7882 -0.4271  0.1886
 9479SOL    HW129653   2.568   8.202   7.244  0.9402 -0.2413 -1.1955
 9479SOL    HW229654   2.692   8.280   7.209 -0.9180  2.0739 -2.9058
 9480SOL     OW29655   2.080   7.618   7.798 -0.6391 -0.0586  0.4888
 9480SOL    HW129656   2.016   7.662   7.743  1.8741  0.2353 -2.5063
 9480SOL    HW229657   2.135   7.689   7.832 -0.7608 -0.4316  1.4963
 9481SOL     OW29658   3.579   8.804   7.998  0.2131  0.6960 -0.0405
 9481SOL    HW129659   3.492   8.823   7.962 -0.1054 -0.4584  0.0742
 9481SOL    HW229660   3.575   8.837   8.088 -0.2674  0.2463  0.1106
 9482SOL     OW29661   3.765   0.037   7.774 -0.4769  0.5623  0.4992
 9482SOL    HW129662   3.851   0.059   7.810  1.2682 -1.6433 -1.9400
 9482SOL    HW229663   3.722  -0.013   7.843  1.3173 -0.5485  0.8592
 9483SOL     OW29664   2.412   8.518   7.951 -0.6312  0.1147 -0.9535
 9483SOL    HW129665   2.413   8.456   7.878  0.5692  2.5492 -3.1688
 9483SOL    HW229666   2.332   8.569   7.938 -1.5773 -0.8185  0.8116
 9484SOL     OW29667   3.048   6.916   7.693 -0.0602 -0.3767  0.3336
 9484SOL    HW129668   2.984   6.870   7.747  1.5057 -2.5533  0.4390
 9484SOL    HW229669   3.059   7.001   7.737 -0.0334 -1.4418  2.5438
 9485SOL     OW29670   2.419   8.091   8.654 -0.2348  0.1661  0.5076
 9485SOL    HW129671   2.403   8.022   8.718  0.6909 -0.6432 -0.1121
 9485SOL    HW229672   2.375   8.062   8.575 -0.0682  0.4173  0.3196
 9486SOL     OW29673   3.004   0.095   7.490  0.3204 -0.3213 -0.0157
 9486SOL    HW129674   2.932   0.144   7.450  1.6828  1.5635 -0.2949
 9486SOL    HW229675   3.019   0.138   7.574  0.9576 -0.8566  0.1555
 9487SOL     OW29676   3.063   8.610   8.106 -0.2883  0.3841  0.3667
 9487SOL    HW129677   2.987   8.642   8.057  0.8262 -1.6621 -3.0635
 9487SOL    HW229678   3.092   8.533   8.057  3.2965  0.3759  2.1946
 9488SOL     OW29679   2.598   8.135   7.524 -0.2464  0.2194  0.0501
 9488SOL    HW129680   2.639   8.153   7.439  0.9883 -3.0290 -0.1735
 9488SOL    HW229681   2.506   8.157   7.511 -0.0007  0.2665 -1.9800
 9489SOL     OW29682   3.258   7.461   8.289  0.3055 -0.3564 -0.0512
 9489SOL    HW129683   3.296   7.488   8.373  0.9802 -2.1055  0.2298
 9489SOL    HW229684   3.210   7.381   8.309  2.7700 -2.4183 -1.7940
 9490SOL     OW29685   2.850   7.916   0.074 -0.3569  0.3206  0.3001
 9490SOL    HW129686   2.944   7.902   0.062 -0.4480  0.6574 -0.8944
 9490SOL    HW229687   2.843   8.010   0.094 -0.2040 -0.1993  3.4015
 9491SOL     OW29688   2.938   7.839   8.124 -0.2460  0.5004 -0.0787
 9491SOL    HW129689   2.978   7.868   8.207  0.0278 -0.0952 -0.0003
 9491SOL    HW229690   2.891   7.916   8.092 -1.5964  0.3234  1.3725
 9492SOL     OW29691   3.333   8.056   7.664  0.1630 -0.1540  0.8292
 9492SOL    HW129692   3.330   8.142   7.621  0.7883 -0.9029 -0.7629
 9492SOL    HW229693   3.262   8.059   7.728 -1.7789  0.4893 -1.2466
 9493SOL     OW29694   2.003   8.395   7.693  0.4678 -0.2895 -0.3103
 9493SOL    HW129695   2.053   8.363   7.618  0.1808 -0.5129 -0.4070
 9493SOL    HW229696   1.914   8.405   7.660  0.1791 -1.1026  0.2009
 9494SOL     OW29697   2.864   7.614   7.439 -0.2461 -0.5843 -0.3271
 9494SOL    HW129698   2.853   7.575   7.525 -1.1185  0.4209  0.0353
 9494SOL    HW229699   2.911   7.696   7.454  0.5198 -0.8921 -0.9418
 9495SOL     OW29700   3.692   0.260   7.979 -0.3409  0.1451 -0.0248
 9495SOL    HW129701   3.653   0.185   7.934  1.2925 -0.0266 -1.2535
 9495SOL    HW229702   3.706   0.325   7.910  0.8273  0.4643  0.4785
 9496SOL     OW29703   2.091   7.783   8.403 -0.1396  0.2762  0.0469
 9496SOL    HW129704   2.114   7.732   8.325  0.6159  1.1623 -0.3218
 9496SOL    HW229705   2.038   7.856   8.370 -0.0064  0.5305  0.3907
 9497SOL     OW29706   3.535   0.100   8.343  0.1267 -0.5230 -0.4315
 9497SOL    HW129707   3.566   0.177   8.295 -0.7608 -0.6953 -1.3084
 9497SOL    HW229708   3.592   0.029   8.313  0.8257 -0.2539  0.2390
 9498SOL     OW29709   2.215   8.612   7.686  0.2868 -0.0392  0.2112
 9498SOL    HW129710   2.236   8.647   7.773 -0.4474 -1.1744  0.8772
 9498SOL    HW229711   2.129   8.570   7.697 -0.0757  0.2656 -1.2062
 9499SOL     OW29712   3.129   0.141   8.030 -0.2847  0.5015  0.1877
 9499SOL    HW129713   3.035   0.138   8.047 -0.2597  2.8973  1.1352
 9499SOL    HW229714   3.138   0.187   7.947  0.0407 -1.0781 -0.6911
 9500SOL     OW29715   3.258   0.442   7.483 -0.3485  0.0727 -0.5815
 9500SOL    HW129716   3.320   0.371   7.467  0.2103 -0.1538  2.0876
 9500SOL    HW229717   3.307   0.521   7.462  1.1465 -0.0690  1.9292
 9501SOL     OW29718   3.301   7.716   7.618  0.1950 -0.3753  0.2250
 9501SOL    HW129719   3.341   7.630   7.607  2.1228  0.2848  1.5947
 9501SOL    HW229720   3.347   7.755   7.692  0.0457  2.2153 -0.9312
 9502SOL     OW29721   2.333   8.151   7.519  0.0035  0.3857 -0.5154
 9502SOL    HW129722   2.301   8.136   7.608  0.7883 -0.3826 -0.3475
 9502SOL    HW229723   2.275   8.218   7.483 -0.8074  0.1369  0.3065
 9503SOL     OW29724   2.656   7.554   7.263  0.0823  0.2769  0.1207
 9503SOL    HW129725   2.730   7.548   7.323 -0.6603  0.4510  1.0726
 9503SOL    HW229726   2.596   7.486   7.292  0.9634 -1.6744 -2.2654
 9504SOL     OW29727   3.158   8.045   7.855 -0.1768  0.2730 -0.8210
 9504SOL    HW129728   3.171   8.026   7.948 -1.2030 -2.2943 -1.1102
 9504SOL    HW229729   3.067   8.075   7.848 -0.1170  0.4169 -1.0123
 9505SOL     OW29730   2.545   7.381   7.470  0.8262  0.2903  0.1792
 9505SOL    HW129731   2.604   7.417   7.536  0.5618  0.7153  0.1881
 9505SOL    HW229732   2.467   7.437   7.474  1.1723  0.9222 -1.1344
 9506SOL     OW29733   2.740   0.462   7.522  0.4780 -0.3162  0.3661
 9506SOL    HW129734   2.758   0.428   7.434  1.6607  2.1767 -0.4355
 9506SOL    HW229735   2.825   0.490   7.556 -0.1752  0.1829  1.6834
 9507SOL     OW29736   2.396   7.156   7.510  0.8290  0.4895  0.3046
 9507SOL    HW129737   2.321   7.173   7.453  0.2648 -1.4919  0.3761
 9507SOL    HW229738   2.450   7.235   7.503 -1.0586  1.8130 -0.0316
 9508SOL     OW29739   2.927   7.709   7.149  0.0291 -0.0391 -0.4856
 9508SOL    HW129740   2.857   7.742   7.093  0.1834 -1.2010 -1.3956
 9508SOL    HW229741   2.883   7.647   7.208  0.1727 -0.2720 -0.6207
 9509SOL     OW29742   3.296   8.784   7.992 -0.5357 -0.0665 -0.1645
 9509SOL    HW129743   3.249   8.867   7.990 -1.0992 -0.3982 -0.9376
 9509SOL    HW229744   3.242   8.726   8.046  1.1335  0.7943  2.6130
 9510SOL     OW29745   2.720   8.496   7.502 -0.0893  0.1297  0.0333
 9510SOL    HW129746   2.624   8.499   7.500 -0.1422  0.8827  1.6648
 9510SOL    HW229747   2.740   8.417   7.553  0.0834  0.9242  1.2396
 9511SOL     OW29748   2.802   8.008   6.749  0.1135 -0.1785  0.4365
 9511SOL    HW129749   2.745   7.990   6.823 -0.8280  1.8101  0.2632
 9511SOL    HW229750   2.812   8.104   6.748  0.4689 -0.1663 -1.7055
 9512SOL     OW29751   2.950   7.769   8.556  0.5129 -0.6252 -0.2922
 9512SOL    HW129752   2.941   7.706   8.628 -0.4017  0.0139  0.1604
 9512SOL    HW229753   2.903   7.847   8.585 -0.3239 -0.5343 -1.7990
 9513SOL     OW29754   2.579   7.879   7.995  0.0278 -0.1254 -0.0008
 9513SOL    HW129755   2.545   7.898   7.907 -1.2234 -0.9287  0.2878
 9513SOL    HW229756   2.591   7.784   7.996  0.3327 -0.0869  0.5997
 9514SOL     OW29757   2.805   7.269   7.846 -0.4777  0.1673  0.0698
 9514SOL    HW129758   2.821   7.327   7.921  0.1009 -0.1061  0.1622
 9514SOL    HW229759   2.823   7.181   7.879  1.7673  0.1955 -0.9139
 9515SOL     OW29760   3.135   8.279   8.149  0.2968 -0.0536 -0.1020
 9515SOL    HW129761   3.186   8.202   8.124  1.0707  0.9251 -1.6870
 9515SOL    HW229762   3.044   8.254   8.131  0.4822 -0.8111 -0.0188
 9516SOL     OW29763   3.840   7.898   8.131  0.3541 -0.0272 -0.4883
 9516SOL    HW129764   3.881   7.983   8.151  0.7157  0.0455 -1.4779
 9516SOL    HW229765   3.747   7.912   8.146  0.2120  1.0185 -2.0901
 9517SOL     OW29766   3.646   8.670   7.369  0.2137 -0.5241  0.1298
 9517SOL    HW129767   3.631   8.627   7.454  0.8018  0.6200  0.8365
 9517SOL    HW229768   3.561   8.708   7.347 -0.0520 -1.1877 -0.0093
 9518SOL     OW29769   3.676   0.451   7.750 -0.0786 -0.0125  0.2339
 9518SOL    HW129770   3.627   0.532   7.763  0.8828  0.6623 -0.2021
 9518SOL    HW229771   3.754   0.478   7.702 -0.4150 -1.4130 -1.1900
 9519SOL     OW29772   3.608   7.929   7.432 -0.1700 -0.0867 -0.1785
 9519SOL    HW129773   3.517   7.908   7.409  0.0713 -1.2031 -0.1883
 9519SOL    HW229774   3.604   7.954   7.524 -0.4969 -0.0788 -0.1931
 9520SOL     OW29775   2.462   7.662   7.555  0.3953 -0.0922 -0.9655
 9520SOL    HW129776   2.454   7.630   7.645 -1.5066  1.1395 -0.6343
 9520SOL    HW229777   2.388   7.622   7.509  1.1893 -0.4829 -1.9236
 9521SOL     OW29778   3.304   8.358   8.550 -0.6980  0.4493  0.1312
 9521SOL    HW129779   3.337   8.367   8.639 -2.2296  0.8347  0.6870
 9521SOL    HW229780   3.221   8.312   8.559 -0.8928  0.5075 -1.1057
 9522SOL     OW29781   2.781   0.119   8.509 -0.0292 -0.1757  0.2533
 9522SOL    HW129782   2.791   0.100   8.416  0.7619 -2.3107  0.7343
 9522SOL    HW229783   2.869   0.116   8.545 -0.3679  0.2351  1.1702
 9523SOL     OW29784   3.006   8.851   8.661 -0.5421 -0.1193  0.7740
 9523SOL    HW129785   3.087   8.829   8.615  0.0726 -0.1842  1.8348
 9523SOL    HW229786   2.959   8.768   8.667 -1.0699  0.0635 -0.5194
 9524SOL     OW29787   3.534   8.102   8.018  0.0188  0.1381  0.1164
 9524SOL    HW129788   3.536   8.012   8.052  0.7001 -0.2631 -0.8950
 9524SOL    HW229789   3.606   8.146   8.063  1.5053 -0.6421 -1.3621
 9525SOL     OW29790   2.870   8.294   7.162 -0.5077 -0.4361 -0.1930
 9525SOL    HW129791   2.904   8.272   7.075 -0.9391 -0.3808 -0.3764
 9525SOL    HW229792   2.857   8.209   7.205 -0.0070 -0.4530 -0.0676
 9526SOL     OW29793   1.825   8.287   8.665 -0.0688  0.0800 -1.0315
 9526SOL    HW129794   1.782   8.280   8.750  1.0567  0.9998 -0.3603
 9526SOL    HW229795   1.790   8.367   8.627  2.4517  2.0249  0.4240
 9527SOL     OW29796   3.409   7.768   8.346 -0.1090 -0.3288  0.1181
 9527SOL    HW129797   3.393   7.862   8.348 -2.8487 -0.5870 -2.6047
 9527SOL    HW229798   3.348   7.732   8.410  0.7919 -0.3347  1.0061
 9528SOL     OW29799   2.797   8.725   7.629  0.9979 -0.0776 -0.7573
 9528SOL    HW129800   2.731   8.710   7.696  1.5538  0.8432  0.0331
 9528SOL    HW229801   2.769   8.672   7.554  1.1460 -2.3084  0.6769
 9529SOL     OW29802   2.358   8.397   8.612 -0.1366 -0.2569 -0.1459
 9529SOL    HW129803   2.354   8.371   8.520  1.0558 -3.2423  0.5314
 9529SOL    HW229804   2.433   8.349   8.648  0.2099  1.7796  2.1485
 9530SOL     OW29805   3.086   0.492   8.057  0.6987  0.1153  0.2021
 9530SOL    HW129806   3.069   0.562   8.119 -2.0633  0.3611 -0.7108
 9530SOL    HW229807   3.081   0.412   8.109 -0.5493  0.3748  0.4962
 9531SOL     OW29808   4.084   8.824   7.765  0.0418  0.5711 -0.5949
 9531SOL    HW129809   4.107   8.821   7.858 -0.3784 -1.1074 -0.5206
 9531SOL    HW229810   4.150   8.882   7.726  1.2064  0.0147  0.4773
 9532SOL     OW29811   2.707   8.457   7.894 -0.6417 -0.0014 -0.0383
 9532SOL    HW129812   2.641   8.416   7.949 -0.1597 -0.2980  0.3307
 9532SOL    HW229813   2.731   8.389   7.831  0.5575 -0.5072  0.9169
 9533SOL     OW29814   3.228   7.986   8.114 -0.1233  0.1518  0.1535
 9533SOL    HW129815   3.300   8.002   8.174  0.2972  0.3363 -0.3974
 9533SOL    HW229816   3.167   7.931   8.164  0.2291  0.2836  0.7351
 9534SOL     OW29817   3.053   7.789   7.584 -0.0009 -0.0147 -0.2805
 9534SOL    HW129818   3.148   7.775   7.591 -0.1864 -1.5302 -0.4945
 9534SOL    HW229819   3.018   7.761   7.669 -0.3005  0.1620 -0.3431
 9535SOL     OW29820   2.812   7.589   8.737 -0.5551  0.0202  0.1518
 9535SOL    HW129821   2.816   7.503   8.694 -0.8663  0.5671 -1.0338
 9535SOL    HW229822   2.839   7.573   8.827 -0.3853 -1.2798 -0.1145
 9536SOL     OW29823   1.392   0.125   8.518 -0.0898 -0.4640 -0.1377
 9536SOL    HW129824   1.390   0.090   8.429 -0.4819  1.2159 -0.8117
 9536SOL    HW229825   1.318   0.082   8.562 -0.0095 -1.1601 -0.6616
 9537SOL     OW29826   2.491   7.709   8.336 -0.3961  0.0340 -0.2403
 9537SOL    HW129827   2.568   7.653   8.336 -0.9574 -0.7578 -0.6930
 9537SOL    HW229828   2.476   7.729   8.428 -0.8399 -1.5095  0.0551
 9538SOL     OW29829   2.515   6.948   7.646 -0.1728  0.3618  0.3195
 9538SOL    HW129830   2.491   7.016   7.582  0.7186 -0.3961 -0.8672
 9538SOL    HW229831   2.541   6.997   7.724 -0.8963  1.3270 -0.0187
 9539SOL     OW29832   3.869   8.239   7.685  0.3604 -0.4247  0.2328
 9539SOL    HW129833   3.774   8.228   7.676  0.0510  1.2947  1.0610
 9539SOL    HW229834   3.881   8.270   7.775  1.4879  1.4138 -0.4927
 9540SOL     OW29835   2.812   8.077   7.938  0.0113 -0.6930 -0.2015
 9540SOL    HW129836   2.793   8.123   7.856  1.3397  3.3181  1.4981
 9540SOL    HW229837   2.726   8.054   7.972 -0.6380 -0.8994 -1.8615
 9541SOL     OW29838   3.793   7.592   7.500 -0.1929 -0.6131  0.3349
 9541SOL    HW129839   3.878   7.559   7.473 -0.6987 -1.4768 -0.2644
 9541SOL    HW229840   3.730   7.536   7.454 -1.0985 -1.0423  2.0159
 9542SOL     OW29841   3.335   7.918   7.351 -1.0806  0.4426  0.1221
 9542SOL    HW129842   3.292   7.927   7.436 -0.2197 -1.0877  0.7630
 9542SOL    HW229843   3.263   7.903   7.289 -1.7626  2.1754  0.4381
 9543SOL     OW29844   1.569   8.217   8.500  0.1479  0.6626 -0.0808
 9543SOL    HW129845   1.526   8.141   8.538  0.1428 -0.5760 -2.4118
 9543SOL    HW229846   1.556   8.287   8.564 -2.0863 -0.6327  0.9643
 9544SOL     OW29847   2.217   7.479   8.170  0.4683 -0.0613 -0.3607
 9544SOL    HW129848   2.141   7.522   8.209  0.3216  0.1377 -0.8581
 9544SOL    HW229849   2.196   7.386   8.171  0.5190 -0.0671  0.1490
 9545SOL     OW29850   3.571   7.348   0.107  0.0544 -0.3145  0.5500
 9545SOL    HW129851   3.548   7.266   0.063  0.9740 -1.8475  2.7852
 9545SOL    HW229852   3.662   7.364   0.082  0.2182 -0.5818  0.9584
 9546SOL     OW29853   1.812   0.288   7.823  0.2369 -0.0216  0.8186
 9546SOL    HW129854   1.821   0.200   7.786 -1.4098 -0.1776  0.7274
 9546SOL    HW229855   1.719   0.297   7.842  0.2439  1.9686  0.1580
 9547SOL     OW29856   3.619   8.020   7.714 -0.3337 -0.3324 -0.2713
 9547SOL    HW129857   3.594   8.105   7.750  1.4631 -0.2980  1.0317
 9547SOL    HW229858   3.548   7.962   7.740 -0.0004  0.0990  1.7931
 9548SOL     OW29859   2.162   7.992   8.608  0.0036  0.0472 -0.2971
 9548SOL    HW129860   2.085   7.938   8.626  0.0986  0.0059 -0.0133
 9548SOL    HW229861   2.128   8.065   8.557 -0.1015 -0.3624 -0.8331
 9549SOL     OW29862   2.505   7.893   7.705 -0.2182  0.4785 -0.5855
 9549SOL    HW129863   2.502   7.817   7.646 -2.4636  0.3038 -0.3167
 9549SOL    HW229864   2.540   7.964   7.651  0.9719 -0.4877 -1.1264
 9550SOL     OW29865   3.615   7.420   8.401  0.1538 -0.2774  0.1374
 9550SOL    HW129866   3.564   7.349   8.439 -2.7330  0.9091 -1.2314
 9550SOL    HW229867   3.635   7.391   8.312 -0.3126  0.2632 -0.1494
 9551SOL     OW29868   2.643   7.947   8.274  0.0560 -0.2356  0.1238
 9551SOL    HW129869   2.604   7.877   8.328 -0.2369 -0.2630 -0.1220
 9551SOL    HW229870   2.588   7.950   8.196  0.5649 -0.2886 -0.2396
 9552SOL     OW29871   2.296   7.801   7.894  0.2846 -0.3513  0.4883
 9552SOL    HW129872   2.353   7.768   7.963  1.2100  1.9120  0.8933
 9552SOL    HW229873   2.355   7.823   7.822 -0.5763 -1.8155 -0.7333
 9553SOL     OW29874   2.443   8.314   7.773  0.1999 -0.5444  0.1977
 9553SOL    HW129875   2.504   8.291   7.843 -0.4615 -1.4388  0.4892
 9553SOL    HW229876   2.459   8.249   7.705  0.3051 -0.1358 -0.1765
 9554SOL     OW29877   3.049   8.198   8.446 -0.5354  0.0087  0.5058
 9554SOL    HW129878   3.073   8.225   8.357 -0.3938  0.0415  0.5530
 9554SOL    HW229879   2.989   8.124   8.433 -0.3681 -0.1093  0.3836
 9555SOL     OW29880   3.731   8.510   7.601  0.0868 -0.3475 -0.4106
 9555SOL    HW129881   3.740   8.424   7.643  1.7727 -0.4148 -0.8180
 9555SOL    HW229882   3.781   8.569   7.658 -0.2768  0.1858 -0.6336
 9556SOL     OW29883   1.232   8.626   8.433  0.0893 -0.1594  0.6087
 9556SOL    HW129884   1.199   8.648   8.521  0.7344 -1.0248  1.0823
 9556SOL    HW229885   1.157   8.637   8.376 -0.8648 -1.4124  1.5592
 9557SOL     OW29886   3.876   8.262   7.959  0.6265  0.4065  0.2751
 9557SOL    HW129887   3.834   8.333   8.008  0.1941  0.7585 -0.5694
 9557SOL    HW229888   3.910   8.203   8.026 -0.7527  0.3966  1.0022
 9558SOL     OW29889   3.037   8.566   7.693 -0.4366  0.0086 -0.0668
 9558SOL    HW129890   3.020   8.624   7.618  0.2981  0.7884  0.3550
 9558SOL    HW229891   3.012   8.618   7.769  3.1234  1.0170  0.5536
 9559SOL     OW29892   2.868   8.585   8.653 -0.2350  0.0937  0.4381
 9559SOL    HW129893   2.795   8.619   8.601  1.1451  0.6188 -1.2345
 9559SOL    HW229894   2.838   8.592   8.744 -2.4599 -0.2354 -0.2181
 9560SOL     OW29895   3.525   6.976   8.466 -0.1225  0.0015  0.0974
 9560SOL    HW129896   3.596   6.913   8.472  0.7529  0.9625  0.2200
 9560SOL    HW229897   3.548   7.029   8.389  0.0594  1.2090  0.9567
 9561SOL     OW29898   2.370   7.556   7.783  0.1806  0.0266  0.2151
 9561SOL    HW129899   2.298   7.603   7.825  0.6480  0.0085  1.0580
 9561SOL    HW229900   2.443   7.562   7.845  2.1394  3.2171 -2.0748
 9562SOL     OW29901   2.665   8.230   8.575  0.1168 -0.0792 -0.5055
 9562SOL    HW129902   2.675   8.288   8.651  0.2549 -2.8558  1.7425
 9562SOL    HW229903   2.577   8.195   8.583  0.2995 -0.7737 -1.3643
 9563SOL     OW29904   3.341   8.533   7.569 -0.0871  0.4124  0.3445
 9563SOL    HW129905   3.246   8.539   7.575 -0.0509  1.1509  0.2311
 9563SOL    HW229906   3.373   8.575   7.649  0.1334 -0.4964  0.7461
 9564SOL     OW29907   2.486   8.491   8.252 -0.6222  0.2846  0.0742
 9564SOL    HW129908   2.449   8.468   8.167  0.8324  1.1071 -0.8112
 9564SOL    HW229909   2.410   8.518   8.305 -1.2766  2.5449 -1.8591
 9565SOL     OW29910   3.456   8.563   8.447 -0.4881  0.2992 -0.0155
 9565SOL    HW129911   3.387   8.615   8.406 -2.2986 -0.1617  2.2134
 9565SOL    HW229912   3.412   8.482   8.473  1.0417 -0.2696  0.9405
 9566SOL     OW29913   2.897   8.173   8.171 -0.0075 -0.2923 -0.5255
 9566SOL    HW129914   2.819   8.216   8.206  1.0882  0.2257  1.4471
 9566SOL    HW229915   2.875   8.153   8.080 -2.6891 -0.8496  0.1655
 9567SOL     OW29916   2.900   7.498   7.987  0.0948  0.2620 -0.4194
 9567SOL    HW129917   2.909   7.536   8.074  0.4553  1.1255 -0.8152
 9567SOL    HW229918   2.978   7.529   7.940  1.5350 -2.6443 -0.1912
 9568SOL     OW29919   3.807   7.525   0.229  0.2477  0.1077 -0.3745
 9568SOL    HW129920   3.828   7.518   0.136 -0.6142  0.2221 -0.5805
 9568SOL    HW229921   3.891   7.543   0.271  0.9006 -1.4147 -0.9488
 9569SOL     OW29922   3.119   7.468   8.717 -0.0871 -0.7019 -0.2008
 9569SOL    HW129923   3.043   7.443   8.770 -0.0732  1.6706  1.1003
 9569SOL    HW229924   3.155   7.544   8.762  2.6940 -1.3307 -1.1667
 9570SOL     OW29925   2.028   7.182   7.391 -0.3311  0.1993  0.5631
 9570SOL    HW129926   1.945   7.219   7.361  0.4933  0.9070 -0.9685
 9570SOL    HW229927   2.056   7.240   7.461 -0.8342  0.3173  0.6712
 9571SOL     OW29928   1.628   7.434   7.626  0.0797  0.0843 -0.3995
 9571SOL    HW129929   1.569   7.501   7.593 -0.9360 -0.5888  0.0010
 9571SOL    HW229930   1.571   7.370   7.667  1.0964 -0.5825  0.0184
 9572SOL     OW29931   2.600   7.929   8.783  0.3997 -0.0841 -0.8546
 9572SOL    HW129932   2.679   7.922   8.837  0.4428 -2.3754 -1.1174
 9572SOL    HW229933   2.593   8.022   8.763  0.6590  0.8326  2.6323
 9573SOL     OW29934   3.674   8.675   8.303  0.1521 -0.5097  0.0352
 9573SOL    HW129935   3.610   8.620   8.348 -0.9418 -1.0014 -1.9816
 9573SOL    HW229936   3.757   8.657   8.347 -1.1026  0.6189  3.1654
 9574SOL     OW29937   3.391   7.807   7.843  0.2580 -0.3389  0.0275
 9574SOL    HW129938   3.399   7.792   7.937  2.3213 -1.2035 -0.2329
 9574SOL    HW229939   3.365   7.899   7.836  0.6521 -0.0880  1.4296
 9575SOL     OW29940   2.132   8.170   8.265  0.0846  0.1804 -0.1607
 9575SOL    HW129941   2.103   8.249   8.218 -0.8995  0.2138  0.4620
 9575SOL    HW229942   2.082   8.171   8.346  1.4813 -0.0907  0.7213
 9576SOL     OW29943   3.760   8.234   8.684  0.2512 -0.4642  0.2346
 9576SOL    HW129944   3.726   8.321   8.707 -0.5867 -0.3277 -1.4398
 9576SOL    HW229945   3.683   8.180   8.672  0.7627 -1.3207  0.6945
 9577SOL     OW29946   2.449   8.530   7.552  0.1447  0.2604 -0.0579
 9577SOL    HW129947   2.405   8.516   7.636  0.8471  0.6369  0.3906
 9577SOL    HW229948   2.382   8.514   7.486 -0.5924  0.5800  0.5989
 9578SOL     OW29949   2.684   8.290   8.277  0.9240  0.2280 -0.1889
 9578SOL    HW129950   2.622   8.363   8.287  0.2248 -0.1710 -1.4010
 9578SOL    HW229951   2.726   8.283   8.362 -0.7343  0.4853  0.6980
 9579SOL     OW29952   2.814   8.591   7.261 -0.0275 -0.3540  0.1203
 9579SOL    HW129953   2.754   8.665   7.273 -0.3739 -0.3595 -1.3483
 9579SOL    HW229954   2.785   8.526   7.326 -1.4076 -0.2151 -0.3139
 9580SOL     OW29955   2.260   8.607   8.378  0.1020  0.0322  0.2737
 9580SOL    HW129956   2.250   8.660   8.458 -0.3572  0.2242  0.0900
 9580SOL    HW229957   2.175   8.565   8.366  0.1313  0.1000 -0.1859
 9581SOL     OW29958   3.872   7.138   8.476 -0.0290  0.0722 -0.5332
 9581SOL    HW129959   3.962   7.127   8.443  0.3420  0.4404  0.3173
 9581SOL    HW229960   3.848   7.052   8.510  0.0910  0.0238 -0.5721
 9582SOL     OW29961   2.384   8.065   8.150 -0.6750  0.3900  0.4080
 9582SOL    HW129962   2.379   7.979   8.109 -1.2014  0.6079  0.0017
 9582SOL    HW229963   2.293   8.088   8.169 -0.4106 -0.0177  2.3972
 9583SOL     OW29964   3.865   0.415   8.481 -0.2945  0.1232 -0.0984
 9583SOL    HW129965   3.797   0.389   8.544 -0.0183  2.2654  1.1890
 9583SOL    HW229966   3.947   0.384   8.520 -0.2866 -0.1391 -0.3226
 9584SOL     OW29967   2.214   8.207   0.010  0.1995 -0.0611 -0.2736
 9584SOL    HW129968   2.210   8.114  -0.012  1.9081  0.2317 -2.1532
 9584SOL    HW229969   2.307   8.229   0.004 -0.0653  1.6166  0.9155
 9585SOL     OW29970   3.294   7.614   8.533  0.0680  0.1550 -0.3823
 9585SOL    HW129971   3.201   7.625   8.513  0.1911 -0.6791 -1.5648
 9585SOL    HW229972   3.300   7.625   8.628 -0.9735  1.8237 -0.4710
 9586SOL     OW29973   2.807   7.636   8.274 -0.4033  0.6545 -0.8556
 9586SOL    HW129974   2.830   7.699   8.205  1.2082  0.6820 -0.3302
 9586SOL    HW229975   2.804   7.689   8.354 -0.8714  0.3763 -0.6856
 9587SOL     OW29976   3.012   8.300   7.711 -0.5325 -0.0174 -0.2087
 9587SOL    HW129977   3.020   8.394   7.693 -0.2374 -0.1447 -0.7847
 9587SOL    HW229978   3.063   8.258   7.641 -1.6404 -0.6529 -0.6683
 9588SOL     OW29979   3.427   7.460   7.580 -0.3298  0.0837  0.0971
 9588SOL    HW129980   3.513   7.463   7.538 -1.1779 -1.6738 -2.0168
 9588SOL    HW229981   3.365   7.472   7.507 -1.8936 -2.5319  0.8431
 9589SOL     OW29982   3.519   8.301   7.832  0.1681  0.2672 -0.1185
 9589SOL    HW129983   3.472   8.375   7.869  1.0892  0.8272 -0.0311
 9589SOL    HW229984   3.522   8.236   7.903 -0.0419  0.4210  0.0311
 9590SOL     OW29985   3.281   7.644   8.087  0.1450  0.2257  0.4920
 9590SOL    HW129986   3.273   7.594   8.169 -0.8778  0.1724  0.3783
 9590SOL    HW229987   3.229   7.723   8.103 -0.1509  0.1664 -0.1335
 9591SOL     OW29988   1.815   8.325   7.475 -0.1254  0.4238  0.3285
 9591SOL    HW129989   1.866   8.244   7.473 -0.2085  0.3790 -0.1138
 9591SOL    HW229990   1.852   8.378   7.404 -1.6498 -0.2042 -0.9890
 9592SOL     OW29991   4.014   0.667   8.610  0.2666  0.4195  0.0929
 9592SOL    HW129992   4.075   0.614   8.559  2.9891  1.6494  1.8455
 9592SOL    HW229993   4.022   0.634   8.700 -0.1820  1.8503  0.6944
 9593SOL     OW29994   3.828   0.724   1.134  0.0684 -0.2558 -0.3818
 9593SOL    HW129995   3.796   0.634   1.125  0.8211 -0.6382  0.5612
 9593SOL    HW229996   3.916   0.714   1.171 -0.4179  0.9232  1.1938
 9594SOL     OW29997   3.815   0.422   1.051 -0.5150  0.1434 -0.2251
 9594SOL    HW129998   3.785   0.359   0.985 -0.4067 -1.2128  0.9848
 9594SOL    HW229999   3.901   0.451   1.020 -0.2326 -0.8790 -0.4331
 9595SOL     OW30000   4.146   1.453   1.580 -0.1261 -0.0106 -0.5053
 9595SOL    HW130001   4.173   1.519   1.517 -2.5455 -0.1909 -1.8260
 9595SOL    HW230002   4.078   1.496   1.632 -0.7848 -1.0333 -0.5037
 9596SOL     OW30003   5.457   1.617   0.706 -0.2918 -0.2129 -0.5134
 9596SOL    HW130004   5.374   1.569   0.709 -0.2206 -0.3287 -0.4024
 9596SOL    HW230005   5.503   1.578   0.632 -0.0614 -0.5994 -0.1702
 9597SOL     OW30006   5.117   0.942   1.025  0.3109  0.0414 -0.0587
 9597SOL    HW130007   5.082   1.026   0.995  2.6527  0.8876 -0.6033
 9597SOL    HW230008   5.160   0.963   1.108  1.9678 -0.3093 -0.7871
 9598SOL     OW30009   5.782   0.531   0.008 -0.4732  0.2430 -0.3890
 9598SOL    HW130010   5.811   0.441  -0.007 -1.9355 -0.5119  0.9702
 9598SOL    HW230011   5.838   0.563   0.078 -1.4283 -0.4440  0.7204
 9599SOL     OW30012   4.277   1.434   1.147  0.0334  0.2265  0.5124
 9599SOL    HW130013   4.305   1.364   1.089  0.8940  0.6431  0.3928
 9599SOL    HW230014   4.282   1.396   1.235 -0.2239 -0.0788  0.3965
 9600SOL     OW30015   4.636   0.744   1.645  0.3358 -0.0205 -0.4767
 9600SOL    HW130016   4.690   0.821   1.627  0.1879  0.7298  1.9130
 9600SOL    HW230017   4.552   0.764   1.604  0.0793  1.4681  0.6713
 9601SOL     OW30018   3.680   1.293   0.707  0.0276  0.1356 -0.2864
 9601SOL    HW130019   3.696   1.365   0.645 -0.9826  0.2265 -0.4593
 9601SOL    HW230020   3.720   1.216   0.665  0.8431  0.5282 -0.2432
 9602SOL     OW30021   4.196   1.255   1.776  0.1009 -0.5961  0.3407
 9602SOL    HW130022   4.178   1.322   1.710 -2.2251 -2.6786 -1.3132
 9602SOL    HW230023   4.245   1.187   1.729  0.4696 -1.0674  1.3834
 9603SOL     OW30024   4.121   1.619   1.035  0.1702  0.0854  0.6495
 9603SOL    HW130025   4.187   1.563   1.076  1.3177  1.0789  0.2064
 9603SOL    HW230026   4.059   1.558   0.996  0.7156 -0.8742  1.2489
 9604SOL     OW30027   5.253   1.692   1.284  0.1028  0.0950 -0.4788
 9604SOL    HW130028   5.295   1.747   1.350  0.0039 -1.3524  0.8264
 9604SOL    HW230029   5.173   1.740   1.261  0.2015  0.6842  0.3655
 9605SOL     OW30030   4.459   0.473   1.058  0.6341 -0.0048  0.0835
 9605SOL    HW130031   4.511   0.550   1.034  0.3594  0.5732  1.2294
 9605SOL    HW230032   4.522   0.401   1.060  1.0642  0.3610 -0.1692
 9606SOL     OW30033   5.158   0.571   0.577  0.3953 -0.2981  0.1167
 9606SOL    HW130034   5.085   0.514   0.604  0.9496  0.1079  2.7596
 9606SOL    HW230035   5.137   0.595   0.487 -2.0264 -1.3052  0.3241
 9607SOL     OW30036   4.384   1.823   8.659 -0.1494 -0.0444 -0.2684
 9607SOL    HW130037   4.381   1.903   8.712 -0.7576 -0.0550 -0.2757
 9607SOL    HW230038   4.293   1.806   8.636  0.1122  0.0343 -1.4430
 9608SOL     OW30039   4.846   1.194   1.659 -0.5900 -0.1638 -0.0079
 9608SOL    HW130040   4.921   1.231   1.706 -1.0338 -0.2631  0.7944
 9608SOL    HW230041   4.798   1.270   1.626 -0.5029 -0.0824  0.0519
 9609SOL     OW30042   4.193   2.061   0.272 -0.7289  0.5099 -0.1716
 9609SOL    HW130043   4.152   2.104   0.197 -2.2462  2.2157  1.5246
 9609SOL    HW230044   4.195   2.128   0.340  2.1448 -0.4621  0.8604
 9610SOL     OW30045   3.826   1.514   0.585  0.1677  0.4383  0.0986
 9610SOL    HW130046   3.905   1.469   0.552 -0.8085 -0.5503 -0.9694
 9610SOL    HW230047   3.860   1.591   0.629  1.7402  0.1675 -0.5525
 9611SOL     OW30048   4.501   2.070   1.763  0.1031  0.4861  0.3892
 9611SOL    HW130049   4.418   2.116   1.750 -0.0711 -0.4120 -2.3182
 9611SOL    HW230050   4.559   2.106   1.695  0.9870 -0.9310  0.3446
 9612SOL     OW30051   4.856   0.937   0.238  0.6063  0.6193  0.0609
 9612SOL    HW130052   4.827   0.951   0.148  0.4151  0.2191  0.0574
 9612SOL    HW230053   4.802   0.864   0.270  0.9453  0.4966  0.3666
 9613SOL     OW30054   5.402   0.422   0.984 -0.0865 -0.5977 -0.1461
 9613SOL    HW130055   5.445   0.412   0.900 -0.5353 -0.8178 -0.3551
 9613SOL    HW230056   5.361   0.509   0.980  0.5701 -0.2687  0.1637
 9614SOL     OW30057   3.555   0.681   0.302  0.1658  0.0208  0.9194
 9614SOL    HW130058   3.587   0.725   0.223 -0.1139  0.1897  0.8972
 9614SOL    HW230059   3.612   0.712   0.372  0.0475  0.3269  0.8826
 9615SOL     OW30060   5.945   2.198   0.045 -0.1983 -0.0696 -0.5935
 9615SOL    HW130061   5.985   2.138   0.108 -1.5211  0.5370  0.8810
 9615SOL    HW230062   5.888   2.143  -0.008  1.0288 -0.6077 -1.4119
 9616SOL     OW30063   3.863   1.955   0.525  0.0122 -0.2368  0.0679
 9616SOL    HW130064   3.792   1.899   0.556  1.1388 -1.8921 -0.2020
 9616SOL    HW230065   3.913   1.977   0.604  0.9726 -1.7127 -0.0754
 9617SOL     OW30066   5.611   1.053   0.472  0.2540  0.2544  0.0630
 9617SOL    HW130067   5.527   1.032   0.513 -0.1968  1.3307 -0.2432
 9617SOL    HW230068   5.662   1.095   0.541 -0.3951  1.7982 -0.3392
 9618SOL     OW30069   5.697   1.396   0.267 -0.2866 -0.4003  0.4423
 9618SOL    HW130070   5.650   1.479   0.278  1.8169  0.6406  2.6356
 9618SOL    HW230071   5.760   1.414   0.197 -1.3988 -0.9650 -0.7309
 9619SOL     OW30072   3.608   0.790   1.333 -0.1979 -0.0039 -0.2460
 9619SOL    HW130073   3.664   0.843   1.275  2.0652 -1.0541  0.8384
 9619SOL    HW230074   3.535   0.764   1.278 -0.8327  3.1967 -1.1629
 9620SOL     OW30075   4.100   1.456   0.767  0.1922 -0.3801 -0.2216
 9620SOL    HW130076   4.104   1.363   0.745  0.5442 -0.2297 -0.8243
 9620SOL    HW230077   4.173   1.495   0.718  1.9018 -0.2301  2.2429
 9621SOL     OW30078   5.086   0.539   1.492  0.2614  0.3147 -0.2374
 9621SOL    HW130079   5.055   0.585   1.570 -0.2122 -0.0448 -0.2044
 9621SOL    HW230080   5.157   0.593   1.458  0.9806  0.0886  0.8690
 9622SOL     OW30081   5.170   8.660   0.050  0.4064  0.4182 -0.2140
 9622SOL    HW130082   5.209   8.590   0.102  1.5300  1.4409  0.3886
 9622SOL    HW230083   5.094   8.689   0.101  0.4822  0.2471 -0.0048
 9623SOL     OW30084   3.778   0.992   1.205 -0.4621  0.7066 -0.2123
 9623SOL    HW130085   3.794   0.933   1.132 -0.2227 -1.1491  1.2706
 9623SOL    HW230086   3.844   1.061   1.195  0.5048 -0.2971 -0.9360
 9624SOL     OW30087   5.154   0.810   0.332 -0.3356 -0.1579 -0.0934
 9624SOL    HW130088   5.107   0.796   0.250  0.5072  0.3269 -0.6710
 9624SOL    HW230089   5.238   0.846   0.306 -0.4438  0.9947  1.0300
 9625SOL     OW30090   4.897   1.717   1.637 -0.0909 -0.3017  0.7553
 9625SOL    HW130091   4.837   1.724   1.711  0.4201 -1.3283  1.3000
 9625SOL    HW230092   4.904   1.622   1.621 -1.2756 -0.0860 -1.5375
 9626SOL     OW30093   4.310   0.088   1.549 -0.1386 -0.5990  0.3541
 9626SOL    HW130094   4.346   0.042   1.473  0.9028 -3.1688  2.2246
 9626SOL    HW230095   4.280   0.172   1.515  0.6339 -1.4542 -2.7802
 9627SOL     OW30096   5.217   1.516   0.605  0.2611  0.5621  0.3436
 9627SOL    HW130097   5.267   1.562   0.538  1.5090 -2.8367 -1.3345
 9627SOL    HW230098   5.135   1.491   0.562 -1.4958  2.9964  1.9655
 9628SOL     OW30099   6.102   2.451   0.134  0.4089  0.3993 -0.3234
 9628SOL    HW130100   6.049   2.382   0.095 -0.6378  1.2327 -0.4151
 9628SOL    HW230101   6.190   2.414   0.138 -0.4861 -1.7304  1.5630
 9629SOL     OW30102   3.865   0.673   0.729 -0.2448  0.0289  0.4338
 9629SOL    HW130103   3.780   0.629   0.726  0.1940 -0.9714  1.7233
 9629SOL    HW230104   3.919   0.618   0.786  1.1238  0.9021  0.0366
 9630SOL     OW30105   5.108   0.462   0.842 -0.9593  0.3425  0.3945
 9630SOL    HW130106   5.030   0.424   0.801  0.1661 -1.0051 -0.5994
 9630SOL    HW230107   5.075   0.509   0.919 -2.7190 -0.3046  0.0727
 9631SOL     OW30108   5.882   1.777   0.220 -0.2231  0.1908 -0.3276
 9631SOL    HW130109   5.831   1.761   0.299  1.7187 -1.5192  0.6811
 9631SOL    HW230110   5.915   1.867   0.231 -1.6483  0.7295 -0.2542
 9632SOL     OW30111   4.498   1.162   1.513 -0.4953  0.5757  0.2762
 9632SOL    HW130112   4.455   1.077   1.507 -1.5264  1.0433  0.8494
 9632SOL    HW230113   4.515   1.173   1.607  1.4347  0.1452  0.0203
 9633SOL     OW30114   5.399   0.525   2.053  0.0357  0.1364  0.2845
 9633SOL    HW130115   5.441   0.499   2.135 -0.6513 -0.1244  0.5629
 9633SOL    HW230116   5.469   0.521   1.988 -0.0634 -2.9675  0.1878
 9634SOL     OW30117   4.416   1.546   1.563  0.5556 -0.0629 -0.1269
 9634SOL    HW130118   4.442   1.502   1.482  0.8841 -1.8494  0.8996
 9634SOL    HW230119   4.346   1.492   1.599  0.5250  0.6137  0.8770
 9635SOL     OW30120   4.533   0.283   0.794 -0.0808  0.0154 -0.5950
 9635SOL    HW130121   4.619   0.261   0.758 -0.6807 -1.6876 -1.1205
 9635SOL    HW230122   4.539   0.261   0.887  0.2258  0.4963 -0.4973
 9636SOL     OW30123   5.030   0.545   0.298  0.2366 -0.4374  0.1704
 9636SOL    HW130124   4.944   0.516   0.326  0.5728 -1.6079  0.0536
 9636SOL    HW230125   5.013   0.599   0.220 -0.3713 -0.8927 -0.0212
 9637SOL     OW30126   3.422   0.907   1.130  0.0113  0.1237  0.0987
 9637SOL    HW130127   3.414   0.973   1.061  0.2466 -0.0722 -0.1223
 9637SOL    HW230128   3.375   0.943   1.205 -1.0418 -0.0515 -0.4549
 9638SOL     OW30129   3.850   1.956   1.705  0.2382  0.0015  0.2296
 9638SOL    HW130130   3.922   1.904   1.669 -1.1115 -1.0723 -1.1185
 9638SOL    HW230131   3.886   2.044   1.716  2.1252 -0.8112  0.9515
 9639SOL     OW30132   4.770   0.588   0.369  0.5242 -0.8467 -0.3920
 9639SOL    HW130133   4.736   0.623   0.287  1.0333 -0.0148 -0.2570
 9639SOL    HW230134   4.809   0.663   0.413  1.6861 -1.5909 -0.1144
 9640SOL     OW30135   5.140   0.321   2.094 -0.0244 -0.4930  0.0598
 9640SOL    HW130136   5.226   0.364   2.084 -0.3782  0.5426  1.2369
 9640SOL    HW230137   5.088   0.356   2.021  0.2763 -0.4062 -0.1146
 9641SOL     OW30138   5.722   1.160   0.687 -0.0343 -0.0519  0.1025
 9641SOL    HW130139   5.673   1.230   0.732  1.9672  1.6756 -0.2530
 9641SOL    HW230140   5.794   1.205   0.644  1.3781 -2.3671 -0.1332
 9642SOL     OW30141   4.346   1.066   1.182  0.6519  0.2045  0.5795
 9642SOL    HW130142   4.281   0.997   1.171  1.4830 -0.2927 -1.7210
 9642SOL    HW230143   4.408   1.031   1.246 -1.0317  0.5290  2.5162
 9643SOL     OW30144   4.952   1.448   0.456 -0.3685 -0.1636 -0.0263
 9643SOL    HW130145   4.949   1.479   0.365  0.0005  0.0335  0.0260
 9643SOL    HW230146   4.874   1.484   0.496 -0.0604  0.5203 -0.0284
 9644SOL     OW30147   4.083   2.203   0.505 -0.2405  0.2731  0.4823
 9644SOL    HW130148   4.036   2.174   0.584 -0.9120 -2.4222 -0.7785
 9644SOL    HW230149   4.020   2.257   0.458 -1.0813 -0.9468  0.1793
 9645SOL     OW30150   5.584   1.279   0.903  0.0321 -0.0903  0.2821
 9645SOL    HW130151   5.632   1.267   0.985 -0.5733 -2.4434  0.3627
 9645SOL    HW230152   5.498   1.312   0.929  0.6339  1.5098  0.3513
 9646SOL     OW30153   4.754   1.488   1.396 -0.1132 -0.3050 -0.2294
 9646SOL    HW130154   4.726   1.468   1.486 -0.9310 -0.8128 -0.5812
 9646SOL    HW230155   4.724   1.577   1.381 -1.0016 -0.6207 -0.3826
 9647SOL     OW30156   4.153   0.742   0.255 -0.3595 -0.8037 -0.2712
 9647SOL    HW130157   4.085   0.747   0.322 -0.0210 -0.0603  0.0336
 9647SOL    HW230158   4.192   0.655   0.265 -1.3806 -1.3111 -0.5766
 9648SOL     OW30159   5.280   1.301   1.062  0.3291 -0.3673  0.7369
 9648SOL    HW130160   5.254   1.368   1.125  1.9747  0.0021  1.0753
 9648SOL    HW230161   5.207   1.239   1.060 -0.2024  0.1872  2.2086
 9649SOL     OW30162   4.778   1.054   1.923 -0.0451  0.2987 -1.1566
 9649SOL    HW130163   4.751   1.116   1.992 -1.4409 -0.1425 -1.2856
 9649SOL    HW230164   4.864   1.087   1.895  0.2240  0.9160  0.2730
 9650SOL     OW30165   5.558   1.864   0.108  0.2783  0.1892 -0.2624
 9650SOL    HW130166   5.601   1.910   0.180 -0.6952  0.9609 -0.1370
 9650SOL    HW230167   5.480   1.918   0.090  1.0680  0.6374 -2.6284
 9651SOL     OW30168   3.296   0.330   1.654  0.2158  0.0606 -0.5286
 9651SOL    HW130169   3.273   0.301   1.565  0.7217  0.3611 -0.7580
 9651SOL    HW230170   3.229   0.394   1.676 -1.0170 -1.3490  0.0407
 9652SOL     OW30171   5.730   1.723   8.443 -0.1161  0.2311  0.2225
 9652SOL    HW130172   5.745   1.702   8.535  0.6767 -0.3508 -0.0289
 9652SOL    HW230173   5.817   1.740   8.408 -0.5068  1.4622 -0.1864
 9653SOL     OW30174   4.259   1.349   8.835 -0.3880 -0.0147  0.1260
 9653SOL    HW130175   4.344   1.369   8.798 -0.5068  0.2818  0.0078
 9653SOL    HW230176   4.199   1.410   8.792 -0.6692 -0.2639  0.1617
 9654SOL     OW30177   5.380   0.970   0.586 -0.6728 -0.3840 -0.3728
 9654SOL    HW130178   5.365   1.043   0.647 -1.1578  0.0724 -1.0289
 9654SOL    HW230179   5.292   0.936   0.568 -0.4989 -0.7343 -0.5617
 9655SOL     OW30180   4.213   2.125   1.024  0.3882 -0.3173 -0.1598
 9655SOL    HW130181   4.270   2.054   1.054  2.3620  1.1159 -0.2850
 9655SOL    HW230182   4.270   2.178   0.968 -1.0598  1.2832 -0.1791
 9656SOL     OW30183   4.847   1.455   0.906 -0.6392  0.2516  0.1561
 9656SOL    HW130184   4.805   1.502   0.834  1.4124  0.4217 -1.0292
 9656SOL    HW230185   4.845   1.517   0.979 -1.2122  0.7670 -0.2833
 9657SOL     OW30186   3.813   0.511   0.428  0.4280 -0.5553 -0.2855
 9657SOL    HW130187   3.791   0.441   0.366 -0.0489 -0.4171 -0.2748
 9657SOL    HW230188   3.772   0.484   0.510  0.9066 -0.6467 -0.0689
 9658SOL     OW30189   4.981   0.043   1.630 -0.0549 -0.0071 -0.5103
 9658SOL    HW130190   4.970   0.089   1.547 -0.2741 -2.4237 -1.9084
 9658SOL    HW230191   4.908   0.074   1.684  0.0051  1.4795 -1.2235
 9659SOL     OW30192   4.545   0.499   0.058 -0.5233  0.0949  0.2630
 9659SOL    HW130193   4.591   0.416   0.054  0.3922  0.6423 -1.3349
 9659SOL    HW230194   4.476   0.492  -0.009 -1.1927  0.2108  0.9214
 9660SOL     OW30195   4.371   0.729   1.547 -0.3557 -0.4920 -0.3142
 9660SOL    HW130196   4.285   0.771   1.555 -0.7122 -0.8110 -2.1404
 9660SOL    HW230197   4.365   0.653   1.605  0.1878  1.6375  2.8175
 9661SOL     OW30198   4.844   1.604   1.135  0.3445  0.1625 -0.4181
 9661SOL    HW130199   4.816   1.554   1.212  0.8786  1.1829  0.4602
 9661SOL    HW230200   4.888   1.681   1.171 -0.1534  1.1054 -1.7462
 9662SOL     OW30201   5.010   0.602   1.039  0.2355  0.2563 -0.5850
 9662SOL    HW130202   4.948   0.673   1.060  0.9738  0.9221 -0.5860
 9662SOL    HW230203   5.093   0.632   1.077  0.7404 -0.2455 -1.2847
 9663SOL     OW30204   4.581   1.502   0.771 -0.2547  0.4785 -0.6084
 9663SOL    HW130205   4.623   1.530   0.689  1.5412 -2.0841 -0.6854
 9663SOL    HW230206   4.530   1.424   0.748  0.9556 -0.8026  0.7763
 9664SOL     OW30207   4.690   0.655   0.700  0.0758 -0.5369  0.1159
 9664SOL    HW130208   4.691   0.728   0.639  0.4637 -0.0818  0.6566
 9664SOL    HW230209   4.639   0.686   0.775  0.4210 -0.7388  0.4398
 9665SOL     OW30210   4.240   0.033   0.683  0.4292 -0.5944 -0.6704
 9665SOL    HW130211   4.313   0.091   0.661 -0.5404  1.5716  1.4475
 9665SOL    HW230212   4.271  -0.055   0.659  2.5572  0.5670 -2.5395
 9666SOL     OW30213   5.542   1.616   0.312  0.1965  0.4638  0.1359
 9666SOL    HW130214   5.528   1.671   0.235 -2.1177  0.1120  0.2381
 9666SOL    HW230215   5.457   1.615   0.356  0.7805 -1.4274  1.3176
 9667SOL     OW30216   3.958   8.151   0.188 -0.3578  0.0416 -0.4099
 9667SOL    HW130217   4.028   8.181   0.246  3.1578 -2.1622 -3.0920
 9667SOL    HW230218   3.953   8.218   0.120  0.4017 -0.5964 -1.1104
 9668SOL     OW30219   4.708   0.941   0.594  0.2811 -0.3651  0.3327
 9668SOL    HW130220   4.714   1.025   0.549 -1.7675 -0.6835 -0.6348
 9668SOL    HW230221   4.788   0.894   0.569  0.3239  0.4018 -1.0333
 9669SOL     OW30222   4.769   0.456   1.229 -0.2111  0.3758  0.3357
 9669SOL    HW130223   4.792   0.454   1.322  2.1069 -0.6998 -0.2056
 9669SOL    HW230224   4.818   0.384   1.190 -0.3415  1.4027 -1.8944
 9670SOL     OW30225   5.148   1.660   0.906  0.1698  0.2799  0.0395
 9670SOL    HW130226   5.175   1.642   0.816 -0.2879  0.0212 -0.0482
 9670SOL    HW230227   5.144   1.574   0.948  0.8582  0.4355  0.4529
 9671SOL     OW30228   4.140   1.190   0.749  0.0918  0.2300 -0.8700
 9671SOL    HW130229   4.154   1.113   0.804 -0.1531  0.7310 -0.0924
 9671SOL    HW230230   4.181   1.168   0.666 -1.3565 -1.3589 -1.2037
 9672SOL     OW30231   5.228   2.404   0.346 -0.3384 -0.2806 -0.9024
 9672SOL    HW130232   5.262   2.336   0.405 -0.3220  0.0750 -0.4971
 9672SOL    HW230233   5.143   2.371   0.319 -0.7654 -0.0252  0.0657
 9673SOL     OW30234   4.682   0.726   0.153  0.1607  0.1893  0.0084
 9673SOL    HW130235   4.663   0.639   0.118  1.4020 -0.1970  0.2548
 9673SOL    HW230236   4.601   0.775   0.139  0.2650 -0.2368 -2.4534
 9674SOL     OW30237   4.005   0.322   1.367  0.3447 -0.2155 -0.6324
 9674SOL    HW130238   4.024   0.373   1.445  2.2692 -1.7065 -0.0455
 9674SOL    HW230239   3.938   0.259   1.395 -1.1361  1.1040 -1.0376
 9675SOL     OW30240   4.266   0.284   0.974  0.0241  0.2475  0.5203
 9675SOL    HW130241   4.199   0.251   1.033 -1.0509  1.3072 -0.0470
 9675SOL    HW230242   4.309   0.355   1.022 -1.7591  2.0308 -0.3563
 9676SOL     OW30243   4.185   0.664   0.676  0.0213  0.2542  0.1045
 9676SOL    HW130244   4.150   0.614   0.602 -1.0693 -0.0212  0.7738
 9676SOL    HW230245   4.259   0.612   0.707  0.2578  0.1842 -0.5543
 9677SOL     OW30246   4.395   0.180   0.513 -1.2201 -0.4925 -0.0544
 9677SOL    HW130247   4.441   0.248   0.562 -0.4188 -2.7041  2.5181
 9677SOL    HW230248   4.458   0.148   0.449 -1.2864  0.5053 -0.6325
 9678SOL     OW30249   5.091   0.767   0.787  0.0471 -0.1380  0.3323
 9678SOL    HW130250   5.088   0.672   0.800 -1.5568 -0.1543  0.0241
 9678SOL    HW230251   5.061   0.803   0.871 -0.5770  0.0404  0.0413
 9679SOL     OW30252   5.385   0.688   0.712  0.2268  0.2303 -0.1175
 9679SOL    HW130253   5.300   0.682   0.670  0.6517  1.4767 -1.2072
 9679SOL    HW230254   5.442   0.731   0.648  2.1413 -2.0164 -0.0728
 9680SOL     OW30255   5.296   1.171   0.023  0.1585  0.5702 -0.2663
 9680SOL    HW130256   5.227   1.155   0.087  0.3720 -1.4648 -0.4852
 9680SOL    HW230257   5.376   1.176   0.076  0.1225  0.6557 -0.2190
 9681SOL     OW30258   4.631   1.138   0.134 -0.5262 -0.1150  0.2439
 9681SOL    HW130259   4.644   1.059   0.081 -1.8686 -1.1688  1.3880
 9681SOL    HW230260   4.599   1.203   0.072  0.2182 -0.5797 -0.6579
 9682SOL     OW30261   5.767   1.798   0.501 -0.1633  0.2634 -0.7155
 9682SOL    HW130262   5.798   1.709   0.516  0.2344  0.1145 -2.2774
 9682SOL    HW230263   5.822   1.853   0.557 -0.6645 -0.4727  0.5516
 9683SOL     OW30264   5.317   0.268   8.796  0.1824 -0.5415 -0.1587
 9683SOL    HW130265   5.362   0.302   8.873 -0.4887 -0.9067  0.3994
 9683SOL    HW230266   5.259   0.338   8.768  0.5272 -0.3566 -0.4235
 9684SOL     OW30267   4.106   0.544   0.452 -0.3117  0.0563 -0.0867
 9684SOL    HW130268   4.145   0.465   0.415 -1.9521 -0.9639  0.2740
 9684SOL    HW230269   4.013   0.525   0.457 -0.8412  2.2319 -0.4900
 9685SOL     OW30270   5.254   0.733   1.437 -0.4253 -0.1214 -0.8073
 9685SOL    HW130271   5.306   0.738   1.357  0.8227  0.4843  0.0153
 9685SOL    HW230272   5.244   0.824   1.464 -0.3655 -0.3584  0.0213
 9686SOL     OW30273   4.641   1.747   1.294 -0.2235  0.0796 -0.3566
 9686SOL    HW130274   4.649   1.807   1.219 -0.1389 -0.0145 -0.4219
 9686SOL    HW230275   4.594   1.798   1.360  0.1009  0.3186 -0.3064
 9687SOL     OW30276   5.266   1.760   1.765  0.2587 -0.2054 -0.3914
 9687SOL    HW130277   5.269   1.834   1.827 -0.5877  1.4826 -2.2444
 9687SOL    HW230278   5.357   1.740   1.747  0.5442  1.2914 -0.7993
 9688SOL     OW30279   4.768   0.977   1.269  0.3325  0.0907  0.3797
 9688SOL    HW130280   4.752   1.069   1.246  1.2131 -0.4047 -2.6607
 9688SOL    HW230281   4.681   0.940   1.283 -0.4698  0.3744 -3.0743
 9689SOL     OW30282   5.021   1.263   1.363 -0.4566  0.9663  0.0724
 9689SOL    HW130283   4.950   1.245   1.301 -0.4998 -0.6754  0.5503
 9689SOL    HW230284   5.051   1.351   1.340  0.4708 -0.0707 -3.2323
 9690SOL     OW30285   4.427   0.296   1.334  0.2209  0.4055 -0.0651
 9690SOL    HW130286   4.468   0.311   1.418 -2.8419 -0.5062  1.7612
 9690SOL    HW230287   4.368   0.370   1.322 -1.4182 -0.8231  0.0210
 9691SOL     OW30288   4.682   1.470   1.662  0.1447 -0.2272  0.2943
 9691SOL    HW130289   4.704   1.468   1.756 -0.1533  0.7873  0.3907
 9691SOL    HW230290   4.594   1.509   1.659  0.9540  1.6378 -0.5385
 9692SOL     OW30291   4.710   1.227   0.818 -0.1165 -0.6567  0.0605
 9692SOL    HW130292   4.732   1.317   0.841  1.7951 -0.7195 -1.2592
 9692SOL    HW230293   4.660   1.234   0.737 -0.8450 -0.7468  0.4974
 9693SOL     OW30294   3.900   1.456   0.975  0.0762 -0.0413  0.2046
 9693SOL    HW130295   3.808   1.478   0.956 -0.0951  0.1401  1.1906
 9693SOL    HW230296   3.942   1.457   0.889 -0.0572  3.5050  0.0044
 9694SOL     OW30297   5.027   0.218   1.126 -0.1279  0.4705  0.7211
 9694SOL    HW130298   5.112   0.175   1.131 -0.5109 -0.3515  0.3885
 9694SOL    HW230299   5.047   0.306   1.095  0.5620  0.1196  0.1280
 9695SOL     OW30300   4.026   1.934   1.357  0.0010  0.0955  0.4334
 9695SOL    HW130301   3.957   1.895   1.303 -0.8046  0.5493  1.1134
 9695SOL    HW230302   4.032   1.877   1.434 -1.0755  1.1930  1.3587
 9696SOL     OW30303   3.902   1.085   0.629  0.3947  0.1518  0.2103
 9696SOL    HW130304   3.968   1.024   0.594 -0.6108  0.0317 -1.6273
 9696SOL    HW230305   3.950   1.140   0.690  2.1841 -0.0445 -0.9331
 9697SOL     OW30306   4.013   0.455   0.866 -0.4279 -0.5199  0.0266
 9697SOL    HW130307   4.088   0.494   0.819  1.2696 -1.9276  1.4113
 9697SOL    HW230308   4.005   0.367   0.830 -1.0991 -0.5580  0.2523
 9698SOL     OW30309   5.370   1.275   0.516  0.7987 -0.3853  0.1627
 9698SOL    HW130310   5.355   1.246   0.607  0.5600 -0.0356  0.2375
 9698SOL    HW230311   5.293   1.327   0.495  1.9083  1.5190  0.5734
 9699SOL     OW30312   4.776   1.273   1.226  0.2264  0.2006  0.2373
 9699SOL    HW130313   4.725   1.305   1.152  0.3381 -1.2660 -0.5176
 9699SOL    HW230314   4.757   1.334   1.297 -1.5436  0.4408 -0.3981
 9700SOL     OW30315   5.047   1.211   8.802 -0.1515  0.8502  0.0793
 9700SOL    HW130316   5.141   1.205   8.818 -0.1783 -0.0977 -0.0647
 9700SOL    HW230317   5.010   1.234   8.888  0.2885  2.2536 -0.0865
 9701SOL     OW30318   4.397   1.903   0.954 -0.4151  0.0518  0.3569
 9701SOL    HW130319   4.484   1.892   0.915 -0.6865  0.3999 -0.3733
 9701SOL    HW230320   4.385   1.825   1.007  0.4157  0.0815  0.6050
 9702SOL     OW30321   4.064   0.846   1.659 -0.4177  1.1164  0.1212
 9702SOL    HW130322   4.066   0.930   1.614 -1.7565  0.9902 -0.2049
 9702SOL    HW230323   3.980   0.808   1.635  0.3631 -0.5470 -0.1423
 9703SOL     OW30324   5.024   0.389   1.803  0.5925  0.0943 -0.1965
 9703SOL    HW130325   4.953   0.326   1.795 -0.2796  1.1113 -0.6505
 9703SOL    HW230326   5.092   0.357   1.743  0.5923 -0.9562  0.3473
 9704SOL     OW30327   4.543   0.297   1.592 -0.0259 -0.4471  0.8872
 9704SOL    HW130328   4.597   0.374   1.612 -1.4050  0.7883  0.0414
 9704SOL    HW230329   4.541   0.248   1.674  1.2252  0.1929  1.3276
 9705SOL     OW30330   4.262   8.673   1.645  0.0723  0.3440 -0.5626
 9705SOL    HW130331   4.167   8.683   1.652  0.1258 -0.0045  1.0749
 9705SOL    HW230332   4.292   8.754   1.605 -1.1036 -0.4347 -3.2248
 9706SOL     OW30333   3.848   0.910   0.908 -0.6194 -0.2639 -0.0007
 9706SOL    HW130334   3.793   0.985   0.929 -0.5852 -0.3496  0.3993
 9706SOL    HW230335   3.788   0.845   0.872 -0.4332  0.5279 -1.8871
 9707SOL     OW30336   5.321   0.700   0.974 -0.1925 -0.7280  0.6467
 9707SOL    HW130337   5.274   0.783   0.981 -0.6186 -0.8466 -0.5166
 9707SOL    HW230338   5.350   0.696   0.882  0.2009 -1.6603  0.7910
 9708SOL     OW30339   5.324   0.467   0.317  0.5854 -0.4413  0.9052
 9708SOL    HW130340   5.232   0.467   0.343  0.8245 -0.8294  1.7817
 9708SOL    HW230341   5.341   0.557   0.289 -0.1010 -0.4096  0.5670
 9709SOL     OW30342   4.180   0.582   1.028 -0.4690 -0.1287 -0.0501
 9709SOL    HW130343   4.270   0.553   1.012 -0.4560  1.2388 -3.3332
 9709SOL    HW230344   4.127   0.527   0.970 -1.6065  0.0713  0.7637
 9710SOL     OW30345   3.828   1.872   1.092  0.0475  0.2635 -0.4326
 9710SOL    HW130346   3.882   1.807   1.046 -0.6108 -0.4705 -0.1777
 9710SOL    HW230347   3.768   1.905   1.026 -0.6424 -0.5110 -0.1957
 9711SOL     OW30348   4.359   0.984   0.806 -0.2278  0.3940  0.4337
 9711SOL    HW130349   4.376   0.989   0.712  1.1250  0.3191  0.6630
 9711SOL    HW230350   4.281   0.928   0.813  1.4032 -2.1490 -0.4978
 9712SOL     OW30351   5.370   0.686   1.703 -0.1639 -0.3451  0.2976
 9712SOL    HW130352   5.326   0.704   1.619  0.9387 -0.3418 -0.2958
 9712SOL    HW230353   5.433   0.617   1.682  0.1079 -0.3572  1.1431
 9713SOL     OW30354   3.686   0.036   0.093 -0.4851  0.2741  0.6116
 9713SOL    HW130355   3.663  -0.045   0.138  1.0027  0.4085  1.6955
 9713SOL    HW230356   3.602   0.074   0.068 -1.2512 -1.0877  0.9909
 9714SOL     OW30357   5.749   0.518   0.425 -0.0322 -0.3855  0.3708
 9714SOL    HW130358   5.694   0.445   0.451  0.3474  0.1143  2.8519
 9714SOL    HW230359   5.688   0.590   0.409 -0.2777 -0.6962 -0.1174
 9715SOL     OW30360   4.859   0.429   0.757  0.3421 -0.1695 -0.7615
 9715SOL    HW130361   4.794   0.495   0.733  0.5821  0.4414  0.1888
 9715SOL    HW230362   4.827   0.348   0.718 -1.3783 -0.0420  0.2565
 9716SOL     OW30363   5.012   1.270   1.884 -0.4400 -0.3546  0.3666
 9716SOL    HW130364   5.055   1.192   1.919 -1.6708 -1.0381  0.4121
 9716SOL    HW230365   5.064   1.295   1.808  1.1093 -0.0297  1.4816
 9717SOL     OW30366   5.358   1.449   1.483  0.1589  0.1184  0.0784
 9717SOL    HW130367   5.270   1.474   1.513 -0.4442 -0.9654 -0.7425
 9717SOL    HW230368   5.406   1.532   1.482 -1.2002  0.9465 -0.6240
 9718SOL     OW30369   3.891   0.998   1.480 -0.5562 -0.7588  0.1019
 9718SOL    HW130370   3.828   1.039   1.539  0.3958  1.5068 -0.3529
 9718SOL    HW230371   3.840   0.969   1.405 -1.2239 -0.1279  0.3125
 9719SOL     OW30372   5.472   0.290   0.194  0.6891  0.3125 -0.3740
 9719SOL    HW130373   5.421   0.354   0.244 -0.5670 -0.6992 -0.3117
 9719SOL    HW230374   5.560   0.327   0.191  0.2176  1.5756  0.4808
 9720SOL     OW30375   5.027   0.901   8.790  0.0434  0.1849  0.9499
 9720SOL    HW130376   5.021   0.993   8.818 -0.8428  0.1148  1.0405
 9720SOL    HW230377   5.026   0.906   8.694 -0.7590  0.2409  0.9539
 9721SOL     OW30378   4.578   1.379   1.072 -0.2912 -0.2336 -0.2309
 9721SOL    HW130379   4.567   1.446   1.005 -0.4208  0.7430  0.7331
 9721SOL    HW230380   4.499   1.325   1.065 -1.4319  1.2281  0.5862
 9722SOL     OW30381   3.697   0.899   0.557  0.3720 -0.7837 -0.0420
 9722SOL    HW130382   3.752   0.968   0.593 -2.2431  1.3045  0.3108
 9722SOL    HW230383   3.669   0.848   0.634  0.6011 -0.9006 -0.0358
 9723SOL     OW30384   3.567   0.866   0.794 -0.3076  0.0180 -0.0856
 9723SOL    HW130385   3.485   0.904   0.827 -1.7759 -1.3211 -1.9273
 9723SOL    HW230386   3.562   0.774   0.818  0.5577 -0.1286 -0.4255
 9724SOL     OW30387   4.854   0.353   1.492 -0.0201 -0.5810  0.0758
 9724SOL    HW130388   4.937   0.401   1.498  1.3734 -2.9523  1.4230
 9724SOL    HW230389   4.809   0.372   1.574  0.7296 -1.7902  0.8058
 9725SOL     OW30390   4.915   0.134   1.364 -0.2217  0.1979 -0.3163
 9725SOL    HW130391   4.904   0.212   1.418  0.4638  0.4316 -0.5117
 9725SOL    HW230392   4.927   0.168   1.275 -0.4821 -0.1518 -0.4859
 9726SOL     OW30393   3.999   2.053   0.741 -0.1193 -0.1910 -0.1698
 9726SOL    HW130394   3.962   2.105   0.813  1.4790  0.8097 -0.0311
 9726SOL    HW230395   4.038   1.977   0.785  1.9584  1.0330  0.2318
 9727SOL     OW30396   4.191   1.804   0.383 -0.3677  0.6735  0.1231
 9727SOL    HW130397   4.114   1.771   0.337  0.5291 -0.3207 -0.7303
 9727SOL    HW230398   4.210   1.888   0.342 -0.1839  0.2685 -0.6486
 9728SOL     OW30399   4.853   0.806   1.075 -0.3602 -0.5106 -0.6042
 9728SOL    HW130400   4.845   0.875   1.141  1.2208 -1.4430  0.6417
 9728SOL    HW230401   4.860   0.853   0.992  1.3033  0.8834  0.2684
 9729SOL     OW30402   4.170   0.837   1.150  0.4691  0.2508  0.4085
 9729SOL    HW130403   4.166   0.849   1.055  0.6558 -0.3757  0.3159
 9729SOL    HW230404   4.178   0.743   1.162 -0.6489  0.2197  1.0861
 9730SOL     OW30405   3.901   0.649   1.957  0.2675 -0.0943  0.1335
 9730SOL    HW130406   3.811   0.665   1.929  0.4404 -0.5597 -0.7506
 9730SOL    HW230407   3.923   0.564   1.918  0.9153 -0.2248  0.7692
 9731SOL     OW30408   4.623   0.683   1.165  0.0724  0.1370 -0.1340
 9731SOL    HW130409   4.705   0.726   1.138  0.0214  0.8072  0.7311
 9731SOL    HW230410   4.651   0.597   1.197  0.7273  1.0985  2.0432
 9732SOL     OW30411   4.234   0.483   0.168 -0.4154  0.8613  0.4145
 9732SOL    HW130412   4.229   0.425   0.244 -0.7411 -0.0462 -0.2755
 9732SOL    HW230413   4.326   0.509   0.164 -0.4189  0.9906  1.1719
 9733SOL     OW30414   5.666   0.794   0.464  0.4918  0.3072  0.7459
 9733SOL    HW130415   5.734   0.784   0.531  1.0259  1.3288  0.3727
 9733SOL    HW230416   5.656   0.888   0.453  0.5683  0.1761 -0.7450
 9734SOL     OW30417   4.052   1.824   1.607 -0.2325 -0.0051  0.4996
 9734SOL    HW130418   4.142   1.835   1.638  0.4437  0.3675 -1.4477
 9734SOL    HW230419   4.022   1.744   1.649  1.1575 -0.3442  0.9071
 9735SOL     OW30420   4.189   1.072   1.489  0.5632 -0.2026 -0.2443
 9735SOL    HW130421   4.234   1.118   1.418 -1.3240  2.4785  0.1479
 9735SOL    HW230422   4.098   1.067   1.460 -0.1064  0.2779  1.6255
 9736SOL     OW30423   4.725   1.979   1.120 -0.3500 -0.1541 -0.3758
 9736SOL    HW130424   4.731   2.036   1.043 -1.0354  0.8983  0.3272
 9736SOL    HW230425   4.667   2.026   1.180  0.4836 -0.7691  0.9430
 9737SOL     OW30426   3.998   0.489   8.828 -0.6517  0.0240  0.6642
 9737SOL    HW130427   4.068   0.486   8.893 -1.5266  0.9187  1.6841
 9737SOL    HW230428   3.956   0.403   8.833  1.6737 -1.3684 -1.5151
 9738SOL     OW30429   3.527   1.151   1.302 -0.1575 -0.4085  0.3552
 9738SOL    HW130430   3.607   1.114   1.266 -0.2193 -1.3801  1.1893
 9738SOL    HW230431   3.468   1.076   1.313 -1.2249  0.2962 -0.3313
 9739SOL     OW30432   5.199   1.057   1.257  0.7216 -0.0399 -0.4638
 9739SOL    HW130433   5.146   1.135   1.277  0.9889 -0.0844  0.4201
 9739SOL    HW230434   5.206   1.010   1.339  1.8881 -0.1914 -0.6256
 9740SOL     OW30435   5.124   1.095   0.222 -0.5325  0.4272 -0.0110
 9740SOL    HW130436   5.052   1.033   0.230  0.3185 -0.5568  0.2942
 9740SOL    HW230437   5.123   1.145   0.304 -1.1063  0.6974 -0.1808
 9741SOL     OW30438   5.515   1.605   1.220 -0.5776  0.1025 -0.2603
 9741SOL    HW130439   5.422   1.616   1.238 -0.1848  2.0952  0.8759
 9741SOL    HW230440   5.539   1.682   1.169  1.0469  1.3732  2.2138
 9742SOL     OW30441   5.129   1.475   1.210 -0.5740 -0.3415 -0.5708
 9742SOL    HW130442   5.175   1.548   1.252 -0.9213 -0.3354 -0.1967
 9742SOL    HW230443   5.061   1.517   1.157 -0.8194 -0.3948 -0.3005
 9743SOL     OW30444   3.666   1.136   0.934 -1.3044 -0.0815 -0.4452
 9743SOL    HW130445   3.681   1.203   0.868 -1.1271 -1.4991 -1.8946
 9743SOL    HW230446   3.711   1.169   1.012 -1.6040  1.6670 -0.9741
 9744SOL     OW30447   4.780   1.932   1.525 -0.1266 -0.1863  0.5850
 9744SOL    HW130448   4.689   1.904   1.524 -0.2726  0.2928 -0.1227
 9744SOL    HW230449   4.830   1.851   1.537 -0.5843 -0.6299 -0.3810
 9745SOL     OW30450   4.633   0.201   0.013 -0.2848  0.2212  0.1148
 9745SOL    HW130451   4.660   0.125   0.065 -0.1131  1.2573  1.6014
 9745SOL    HW230452   4.543   0.180  -0.014 -0.2106 -0.5512  0.4252
 9746SOL     OW30453   5.771   8.683   0.230  0.6211 -0.0509  0.1073
 9746SOL    HW130454   5.695   8.651   0.182  0.3609 -0.2690  0.6470
 9746SOL    HW230455   5.797   8.610   0.286  0.8203  0.2380  0.4010
 9747SOL     OW30456   5.612   1.458   0.545 -0.3566  0.5731  0.0330
 9747SOL    HW130457   5.689   1.447   0.490 -0.3190  1.4614 -0.1095
 9747SOL    HW230458   5.555   1.385   0.522  0.3770 -0.0129  0.0409
 9748SOL     OW30459   4.280   1.826   1.751 -0.2108  0.6844  0.1418
 9748SOL    HW130460   4.253   1.747   1.797 -1.1109  0.7145 -0.3196
 9748SOL    HW230461   4.352   1.861   1.804 -0.2169 -0.1006  0.6838
 9749SOL     OW30462   5.292   1.190   0.770 -0.0628  0.1611 -0.1095
 9749SOL    HW130463   5.301   1.235   0.855  0.8420  0.3585 -0.3040
 9749SOL    HW230464   5.199   1.168   0.765 -0.2786  0.8602  0.5802
 9750SOL     OW30465   4.482   1.884   1.527 -0.0902  0.9722 -0.0312
 9750SOL    HW130466   4.481   1.908   1.620  0.5679 -1.5359  0.6977
 9750SOL    HW230467   4.418   1.812   1.520  0.3593  0.6753 -1.3715
 9751SOL     OW30468   4.395   1.628   0.285 -0.3207 -0.8409 -0.4888
 9751SOL    HW130469   4.327   1.695   0.275 -1.4681 -2.1812 -2.2400
 9751SOL    HW230470   4.352   1.546   0.262  1.9433 -1.7179 -1.9932
 9752SOL     OW30471   5.375   1.878   1.426  0.3056  0.2598 -0.4220
 9752SOL    HW130472   5.417   1.804   1.467  1.2606  1.3233  0.5828
 9752SOL    HW230473   5.322   1.918   1.495  1.2701  1.5821 -0.4159
 9753SOL     OW30474   5.531   0.084   0.893  0.3295 -0.4012 -0.3971
 9753SOL    HW130475   5.455   0.096   0.836  0.2913 -0.7188 -0.4191
 9753SOL    HW230476   5.496   0.040   0.970  0.2652  0.6136  0.1669
 9754SOL     OW30477   3.714   0.009   0.492  0.5980  0.3299 -0.2897
 9754SOL    HW130478   3.627   0.041   0.513  0.0858 -0.8431 -0.5847
 9754SOL    HW230479   3.754  -0.007   0.578 -0.3276 -1.3471 -0.1380
 9755SOL     OW30480   5.320   1.449   0.151 -0.2924  0.9618  0.4547
 9755SOL    HW130481   5.346   1.454   0.059 -1.9926 -1.9625 -0.3197
 9755SOL    HW230482   5.372   1.378   0.187 -1.6553  0.1624  0.9272
 9756SOL     OW30483   3.646   1.530   0.981 -0.3491  0.0326  0.2293
 9756SOL    HW130484   3.576   1.465   0.973 -0.6940  0.5045 -0.7908
 9756SOL    HW230485   3.612   1.594   1.043  0.6089 -1.4985  2.4469
 9757SOL     OW30486   4.942   0.803   0.537  0.0610 -0.1075  0.0144
 9757SOL    HW130487   4.994   0.783   0.614  0.8201 -1.9663 -0.9240
 9757SOL    HW230488   5.007   0.819   0.468 -0.5664 -1.7286 -0.9958
 9758SOL     OW30489   5.739   1.776   8.777  0.5469  0.1204 -0.8086
 9758SOL    HW130490   5.816   1.783   8.834 -0.5704 -0.0908  0.7882
 9758SOL    HW230491   5.665   1.798   8.833 -0.6309 -0.1953 -2.1648
 9759SOL     OW30492   3.875   1.247   1.130  0.1723  0.2278 -0.1735
 9759SOL    HW130493   3.896   1.281   1.217  0.5067  0.5796 -0.3861
 9759SOL    HW230494   3.896   1.319   1.071  1.8509 -0.6744 -0.7338
 9760SOL     OW30495   5.125   1.240   1.650  0.8160  0.1747  0.3542
 9760SOL    HW130496   5.215   1.213   1.629 -0.0123 -2.7274  0.1012
 9760SOL    HW230497   5.082   1.248   1.565  0.4716  0.1613  0.5254
 9761SOL     OW30498   4.821   0.994   0.839 -0.3175 -0.0678  0.7030
 9761SOL    HW130499   4.764   1.071   0.836 -0.3644 -0.1296 -0.4223
 9761SOL    HW230500   4.782   0.933   0.776  1.7222  0.4147 -1.1426
 9762SOL     OW30501   4.528   0.769   0.914 -0.2228 -0.3343  0.6735
 9762SOL    HW130502   4.473   0.845   0.894 -1.2886 -0.8479  1.5722
 9762SOL    HW230503   4.533   0.767   1.010  0.9132 -0.6366  0.6269
 9763SOL     OW30504   4.657   1.792   0.038 -0.2518  0.5239  0.0721
 9763SOL    HW130505   4.659   1.818   0.131  0.3433  0.9965 -0.0704
 9763SOL    HW230506   4.605   1.860  -0.005 -0.0433  0.6119 -0.0397
 9764SOL     OW30507   5.472   0.253   1.752 -0.4882 -0.7518  0.0473
 9764SOL    HW130508   5.386   0.282   1.722  0.3374 -0.3625 -2.1059
 9764SOL    HW230509   5.528   0.331   1.745  0.9896 -1.9112 -2.7171
 9765SOL     OW30510   4.257   1.392   0.267  0.2206  0.3183  0.4128
 9765SOL    HW130511   4.229   1.403   0.176  0.8705  2.9785  0.4443
 9765SOL    HW230512   4.286   1.301   0.273 -0.9072 -0.2412 -1.7161
 9766SOL     OW30513   3.746   0.702   1.615  0.2056 -0.1926  0.5180
 9766SOL    HW130514   3.734   0.732   1.525  1.9873 -2.1447 -0.4726
 9766SOL    HW230515   3.680   0.749   1.666 -0.4373  1.4402 -1.6842
 9767SOL     OW30516   4.088   8.808   1.358 -0.2549 -0.2927  0.1350
 9767SOL    HW130517   4.128   8.874   1.302 -0.9616  0.9059  0.9900
 9767SOL    HW230518   3.999   8.840   1.374 -0.0443 -0.4971  2.0249
 9768SOL     OW30519   3.990   0.826   0.036 -0.0226  0.5017  0.2130
 9768SOL    HW130520   4.044   0.842   0.113 -1.6332  1.2081  1.2470
 9768SOL    HW230521   3.976   0.731   0.036 -0.5475  0.5675  1.1914
 9769SOL     OW30522   5.435   0.719   1.230 -0.0608  0.6909  0.4216
 9769SOL    HW130523   5.509   0.780   1.220  1.2225 -0.9177 -0.2626
 9769SOL    HW230524   5.404   0.705   1.141 -0.3613  0.3480  0.5817
 9770SOL     OW30525   4.243   8.741   0.087 -0.0256 -0.1355 -0.0000
 9770SOL    HW130526   4.289   8.789   0.019  2.1238 -0.1361  1.3635
 9770SOL    HW230527   4.183   8.683   0.040  1.2676 -0.0331 -1.8608
 9771SOL     OW30528   5.458   1.232   0.237  0.3232 -0.0859  0.6740
 9771SOL    HW130529   5.549   1.263   0.234  0.7572 -1.3030  0.2760
 9771SOL    HW230530   5.442   1.214   0.330  0.2244  0.8541  0.8428
 9772SOL     OW30531   4.449   1.385   1.351  0.2274 -0.0773 -0.5705
 9772SOL    HW130532   4.524   1.378   1.293  0.9602 -0.1918  0.3736
 9772SOL    HW230533   4.452   1.305   1.405  0.5008  0.7595  0.7023
 9773SOL     OW30534   5.210   2.061   0.795  0.2562 -0.7141  0.4028
 9773SOL    HW130535   5.135   2.006   0.817  0.3820 -0.3311  1.8768
 9773SOL    HW230536   5.283   2.001   0.787  0.4641 -0.7620  2.3381
 9774SOL     OW30537   4.508   1.026   1.745  0.0816 -0.2440  0.6111
 9774SOL    HW130538   4.585   1.010   1.799 -0.5684  0.0734  1.6617
 9774SOL    HW230539   4.434   1.003   1.801 -0.6033 -0.4208 -0.3326
 9775SOL     OW30540   5.149   1.042   1.999  0.4156  0.0369 -0.2859
 9775SOL    HW130541   5.232   1.006   2.032  0.5424  0.8251  0.2760
 9775SOL    HW230542   5.113   0.972   1.945  1.0451 -0.6333  0.1374
 9776SOL     OW30543   4.296   1.922   1.281 -0.1206 -0.0100  0.5912
 9776SOL    HW130544   4.204   1.907   1.302 -0.3884 -0.3623 -0.7163
 9776SOL    HW230545   4.324   1.843   1.235  0.9328 -0.0324  1.2406
 9777SOL     OW30546   5.477   1.087   1.278  0.0572 -1.0339 -0.5270
 9777SOL    HW130547   5.384   1.081   1.259  0.1102 -1.0570 -0.7893
 9777SOL    HW230548   5.502   1.175   1.250 -0.0997 -0.6542  0.5142
 9778SOL     OW30549   5.153   0.151   0.131 -0.0074 -0.3146  0.7049
 9778SOL    HW130550   5.084   0.106   0.081  0.6928  0.0479 -0.6342
 9778SOL    HW230551   5.211   0.187   0.064  1.0275  0.1105  1.8069
 9779SOL     OW30552   4.086   0.911   0.541  0.0069  0.1359  0.3853
 9779SOL    HW130553   4.126   0.846   0.599 -0.4372  0.2387  0.8011
 9779SOL    HW230554   4.017   0.863   0.495 -0.8252  0.4915  1.2409
 9780SOL     OW30555   5.457   0.007   1.899  0.2643 -0.4887  0.2855
 9780SOL    HW130556   5.474   0.074   1.834  1.7315 -0.2113  0.9190
 9780SOL    HW230557   5.364   0.017   1.920  0.3585  1.0688  0.0660
 9781SOL     OW30558   5.221   0.320   1.599 -0.4183 -0.0714  0.3128
 9781SOL    HW130559   5.190   0.390   1.541 -1.7769 -1.0912 -0.2711
 9781SOL    HW230560   5.290   0.277   1.549  1.0628  1.3595  1.0440
 9782SOL     OW30561   5.100   1.217   0.484  0.5869 -0.4095  0.1733
 9782SOL    HW130562   5.024   1.275   0.483  1.2374  0.4642 -0.5542
 9782SOL    HW230563   5.083   1.156   0.555 -0.4344  0.2528  0.5188
 9783SOL     OW30564   4.340   1.500   0.548 -0.7574 -0.6876 -0.2164
 9783SOL    HW130565   4.357   1.570   0.485  1.0056 -0.6784  0.2128
 9783SOL    HW230566   4.414   1.441   0.538 -1.9551 -2.2492 -0.1981
 9784SOL     OW30567   4.340   1.232   0.987  0.5110  0.1760  0.7221
 9784SOL    HW130568   4.342   1.208   0.895 -1.3435  1.2766  0.3377
 9784SOL    HW230569   4.347   1.149   1.034 -0.6304 -0.6206 -0.4553
 9785SOL     OW30570   4.535   0.828   8.575  0.2631 -0.4919  0.2354
 9785SOL    HW130571   4.489   0.872   8.504  2.0523  0.6236 -0.3198
 9785SOL    HW230572   4.580   0.755   8.532 -0.0149 -0.8503  0.5471
 9786SOL     OW30573   5.522   1.887   0.454  0.0917  0.2404  0.7452
 9786SOL    HW130574   5.613   1.857   0.462  0.8442  1.8890 -0.7694
 9786SOL    HW230575   5.479   1.820   0.400  0.8933  0.2812  0.0240
 9787SOL     OW30576   3.956   1.595   1.721  0.1948 -0.1623  0.1306
 9787SOL    HW130577   3.963   1.578   1.815  0.6133  0.3314  0.1913
 9787SOL    HW230578   3.869   1.562   1.698 -0.1953  0.3454  0.8301
 9788SOL     OW30579   3.940   1.715   0.339  0.8820  0.0048  0.1630
 9788SOL    HW130580   3.902   1.777   0.402  0.6456  1.1370 -1.0504
 9788SOL    HW230581   3.949   1.634   0.389  0.2900  0.7310  1.5324
 9789SOL     OW30582   4.794   1.448   1.939  0.7000 -0.9903 -0.0773
 9789SOL    HW130583   4.770   1.462   2.031  0.4331  0.1798 -0.3156
 9789SOL    HW230584   4.876   1.398   1.943  1.7586  0.7321  0.8381
 9790SOL     OW30585   5.552   0.496   1.619 -0.3317 -0.3958  0.3340
 9790SOL    HW130586   5.507   0.440   1.556 -0.3319  0.7556 -0.7208
 9790SOL    HW230587   5.637   0.515   1.578 -0.3262  0.3592  0.6822
 9791SOL     OW30588   4.209   0.308   0.365 -0.3691  0.1132 -0.2953
 9791SOL    HW130589   4.264   0.265   0.431  0.6919 -0.3554 -1.4371
 9791SOL    HW230590   4.172   0.236   0.314  0.0713  0.4794 -1.1617
 9792SOL     OW30591   5.879   1.325   1.453  0.5403 -0.0202  0.1072
 9792SOL    HW130592   5.806   1.341   1.393  1.0200 -0.5827 -0.6377
 9792SOL    HW230593   5.872   1.395   1.518 -0.1169  0.4719 -0.4797
 9793SOL     OW30594   4.106   0.887   0.855  0.3740 -0.9422  0.5423
 9793SOL    HW130595   4.021   0.909   0.893  0.7582 -0.5989  1.2234
 9793SOL    HW230596   4.106   0.792   0.850 -0.6936 -0.8929 -0.9873
 9794SOL     OW30597   4.695   1.532   0.503  0.0856 -0.5570 -0.6110
 9794SOL    HW130598   4.632   1.605   0.497 -0.5108 -0.9673  0.4621
 9794SOL    HW230599   4.695   1.494   0.415  0.6306  0.9158 -1.2726
 9795SOL     OW30600   5.306   0.213   1.115 -0.4216 -0.1420 -0.1075
 9795SOL    HW130601   5.379   0.150   1.119 -0.0023  0.1785 -1.8786
 9795SOL    HW230602   5.341   0.287   1.065 -2.2347 -0.3823 -1.8455
 9796SOL     OW30603   4.377   0.496   0.773 -0.1145 -0.1319 -0.1925
 9796SOL    HW130604   4.398   0.403   0.773 -0.6482 -0.2933  1.6365
 9796SOL    HW230605   4.436   0.534   0.838 -0.9064  0.5366  0.1568
 9797SOL     OW30606   4.998   1.197   0.964 -0.2486 -0.2668 -0.7366
 9797SOL    HW130607   4.924   1.147   0.931 -1.7281  1.7843 -0.7261
 9797SOL    HW230608   4.972   1.289   0.952  1.6816  0.5156  0.6170
 9798SOL     OW30609   4.391   1.698   1.156 -0.4297 -0.2364  0.3089
 9798SOL    HW130610   4.351   1.613   1.138  0.6583 -0.3625 -1.8237
 9798SOL    HW230611   4.474   1.677   1.198 -0.0313 -0.2529 -0.4783
 9799SOL     OW30612   5.190   8.710   8.613 -0.2114 -0.0108 -0.4521
 9799SOL    HW130613   5.102   8.674   8.616 -0.6359  1.0372  0.4239
 9799SOL    HW230614   5.227   8.693   8.699 -0.3234  1.3248 -0.1074
 9800SOL     OW30615   4.757   0.189   0.672  0.2444  0.9251 -0.1088
 9800SOL    HW130616   4.819   0.119   0.689 -1.3631 -0.1990  1.5600
 9800SOL    HW230617   4.729   0.176   0.581 -1.5066 -1.9630  0.7091
 9801SOL     OW30618   5.273   0.325   0.663  0.4192 -0.5830  0.1315
 9801SOL    HW130619   5.232   0.376   0.733  0.5456 -0.7632  0.3386
 9801SOL    HW230620   5.307   0.391   0.602 -0.8092 -0.4338 -0.4200
 9802SOL     OW30621   3.480   1.019   0.452 -0.0935  0.6345 -0.4258
 9802SOL    HW130622   3.565   0.987   0.480 -0.2167 -0.7807 -1.5519
 9802SOL    HW230623   3.424   1.011   0.530 -0.4201 -3.1547 -0.8726
 9803SOL     OW30624   4.925   1.642   0.231  0.0341  0.4716  0.1726
 9803SOL    HW130625   4.931   1.707   0.302  1.8177 -0.2549  0.7613
 9803SOL    HW230626   5.005   1.656   0.180 -1.7807  1.8242 -2.5421
 9804SOL     OW30627   4.020   0.623   2.264 -0.0890  0.2350 -0.4600
 9804SOL    HW130628   4.053   0.635   2.175 -2.6359 -0.1219 -1.5434
 9804SOL    HW230629   4.087   0.571   2.308  2.0814  1.9638 -1.5709
 9805SOL     OW30630   3.551   0.464   3.178 -0.0832 -1.0568  0.1070
 9805SOL    HW130631   3.473   0.416   3.205 -0.9737 -0.2538 -0.9658
 9805SOL    HW230632   3.532   0.493   3.089  0.0913  1.8822  0.9230
 9806SOL     OW30633   3.781   0.679   2.361  0.9073 -0.1490 -0.3207
 9806SOL    HW130634   3.855   0.658   2.305  0.7438 -0.7124 -0.3288
 9806SOL    HW230635   3.800   0.767   2.393  1.5615 -0.2725 -0.3509
 9807SOL     OW30636   4.041   0.250   2.949 -0.3577 -0.1571 -0.3246
 9807SOL    HW130637   3.946   0.253   2.951 -0.4914 -2.0563 -1.2959
 9807SOL    HW230638   4.062   0.156   2.943  1.6191  0.1245  1.1871
 9808SOL     OW30639   5.061   1.471   3.013 -0.0080 -0.0409 -0.2731
 9808SOL    HW130640   5.155   1.457   3.005 -0.1228 -0.7509 -0.4373
 9808SOL    HW230641   5.044   1.462   3.107  0.3884  2.1813  0.0878
 9809SOL     OW30642   4.579   0.707   2.235 -0.8337 -0.1889 -0.5071
 9809SOL    HW130643   4.630   0.719   2.155  0.1235  0.3006  0.1444
 9809SOL    HW230644   4.618   0.630   2.277 -0.5565  0.2375  0.0367
 9810SOL     OW30645   5.718   0.443   2.063 -0.1712  0.2612  0.2584
 9810SOL    HW130646   5.754   0.356   2.048 -1.7990 -0.4671  0.4143
 9810SOL    HW230647   5.667   0.435   2.143 -1.8054  0.8507 -0.6655
 9811SOL     OW30648   4.819   0.665   2.897 -0.0553  0.3107  0.1325
 9811SOL    HW130649   4.884   0.673   2.827  0.6626 -3.0911  0.2077
 9811SOL    HW230650   4.773   0.583   2.877 -2.3233  1.1107  1.7205
 9812SOL     OW30651   4.834   0.547   3.883 -0.0063  1.0004  0.1707
 9812SOL    HW130652   4.798   0.605   3.951  1.1387  0.9277  0.8527
 9812SOL    HW230653   4.802   0.460   3.906 -0.3980  1.1168  0.0721
 9813SOL     OW30654   4.469   1.098   2.389  0.6355 -0.1296  0.1032
 9813SOL    HW130655   4.406   1.027   2.396 -0.7556  1.0567  0.0606
 9813SOL    HW230656   4.554   1.054   2.381 -0.0945 -1.7586  0.8296
 9814SOL     OW30657   4.553   1.226   3.906  0.5619  0.1711  0.1750
 9814SOL    HW130658   4.623   1.276   3.948  0.6446 -0.0550  0.3055
 9814SOL    HW230659   4.499   1.292   3.863  1.3716  0.2811 -0.7069
 9815SOL     OW30660   4.701   1.280   2.431  0.0457 -0.6641  0.2938
 9815SOL    HW130661   4.692   1.312   2.521 -1.3613  0.6470 -0.2764
 9815SOL    HW230662   4.698   1.184   2.440  1.0150 -0.5916  1.7284
 9816SOL     OW30663   4.797   1.358   3.288  0.1158  0.1360 -0.1528
 9816SOL    HW130664   4.765   1.353   3.198 -0.5293 -1.1030  0.1265
 9816SOL    HW230665   4.755   1.436   3.324 -0.1457  0.2654 -0.7295
 9817SOL     OW30666   4.308   0.360   3.031 -0.5496  1.1493 -0.2679
 9817SOL    HW130667   4.370   0.312   2.976  1.4364  1.4350  1.5944
 9817SOL    HW230668   4.222   0.332   3.000  0.5028 -0.4376 -1.9501
 9818SOL     OW30669   5.077   0.433   2.342 -0.1541  0.1856 -0.3500
 9818SOL    HW130670   5.110   0.392   2.262  0.8491  1.0934 -0.4131
 9818SOL    HW230671   5.140   0.502   2.362  0.1734 -0.6438  1.7805
 9819SOL     OW30672   4.204   1.728   2.756 -0.1505  0.4803  0.0975
 9819SOL    HW130673   4.206   1.720   2.660 -0.2984 -0.2280  0.1491
 9819SOL    HW230674   4.119   1.691   2.781 -0.2282  0.9128  0.4841
 9820SOL     OW30675   4.771   1.160   3.465 -0.0960 -0.5935 -0.0448
 9820SOL    HW130676   4.857   1.129   3.435 -0.0806 -0.1245 -0.5032
 9820SOL    HW230677   4.745   1.225   3.399 -0.5858 -0.3845  0.3521
 9821SOL     OW30678   4.371   1.234   2.685  0.1748 -0.5595 -0.7161
 9821SOL    HW130679   4.444   1.295   2.674 -0.4523  0.2419 -0.5108
 9821SOL    HW230680   4.317   1.248   2.608 -0.7910  0.2996  0.0916
 9822SOL     OW30681   3.966   1.096   2.698  0.6266  0.7328  0.3267
 9822SOL    HW130682   3.885   1.097   2.748  0.3864  2.4262 -0.0311
 9822SOL    HW230683   4.030   1.141   2.754  1.4436 -0.8266  0.7283
 9823SOL     OW30684   4.233   1.015   3.304  0.1440 -0.2976  0.2651
 9823SOL    HW130685   4.191   1.081   3.249 -1.5540  0.5880  2.4415
 9823SOL    HW230686   4.310   1.060   3.340  1.3666 -0.9405 -1.4179
 9824SOL     OW30687   4.258   0.964   1.847 -0.5123  0.5125 -0.0684
 9824SOL    HW130688   4.202   0.915   1.786 -0.4597  0.5864 -0.1775
 9824SOL    HW230689   4.200   0.987   1.920 -0.3179 -0.4878  0.4133
 9825SOL     OW30690   4.956   8.691   3.076 -0.3187 -0.2145  0.2116
 9825SOL    HW130691   4.926   8.658   3.160  2.9886 -0.8674  1.2728
 9825SOL    HW230692   4.956   8.786   3.086  0.5789 -0.2969  1.2166
 9826SOL     OW30693   3.736   0.482   2.181  0.0878 -0.2845  0.3628
 9826SOL    HW130694   3.786   0.556   2.149 -1.2187  0.5298  0.1256
 9826SOL    HW230695   3.719   0.502   2.273 -1.0818  0.2132  0.0614
 9827SOL     OW30696   5.496   1.816   2.470 -0.4149 -0.1641 -0.2562
 9827SOL    HW130697   5.586   1.844   2.451 -0.0998 -1.1920 -0.3293
 9827SOL    HW230698   5.446   1.843   2.393  0.0700 -0.6581 -0.7526
 9828SOL     OW30699   3.976   1.458   2.276 -0.2743 -0.1011 -0.3142
 9828SOL    HW130700   3.902   1.436   2.332  0.5855 -1.2821  0.4242
 9828SOL    HW230701   4.028   1.377   2.273  1.0692  0.7431 -0.6575
 9829SOL     OW30702   5.377   0.884   2.588 -0.1264 -0.1209  0.5756
 9829SOL    HW130703   5.399   0.964   2.636  0.0599  0.1073  0.1188
 9829SOL    HW230704   5.324   0.833   2.649  0.1780  0.1258  1.0527
 9830SOL     OW30705   5.508   1.046   2.777 -0.3138  0.4058 -0.4155
 9830SOL    HW130706   5.423   1.077   2.808  0.1470  1.1979  0.0957
 9830SOL    HW230707   5.550   1.123   2.739  0.8073  0.4185  0.7705
 9831SOL     OW30708   4.205   0.765   3.403  0.0819  0.3041  0.5612
 9831SOL    HW130709   4.207   0.692   3.342 -0.8636  0.3723  0.4332
 9831SOL    HW230710   4.207   0.843   3.348  0.3073  0.3717  0.6642
 9832SOL     OW30711   4.980   1.223   2.467  0.1066  0.0431 -0.5122
 9832SOL    HW130712   5.017   1.165   2.400 -1.1315  0.2118 -1.3874
 9832SOL    HW230713   4.889   1.237   2.439  0.2000  1.9273 -0.0227
 9833SOL     OW30714   4.795   0.595   3.619  0.0093 -0.0538 -0.3920
 9833SOL    HW130715   4.809   0.584   3.713  2.4349 -1.2652 -0.8208
 9833SOL    HW230716   4.826   0.683   3.600  2.5051 -0.8806 -0.4744
 9834SOL     OW30717   4.079   0.436   2.669 -0.2864 -0.4429 -0.1733
 9834SOL    HW130718   4.014   0.365   2.672 -0.1632 -0.5482  2.6274
 9834SOL    HW230719   4.035   0.510   2.711  1.1202 -0.2647  1.0469
 9835SOL     OW30720   4.445   0.674   3.042  0.0364  0.3187  0.3718
 9835SOL    HW130721   4.442   0.737   2.970  0.6316 -0.0431  0.0197
 9835SOL    HW230722   4.354   0.663   3.068 -0.2319  0.1434 -0.5990
 9836SOL     OW30723   5.215   0.720   1.942 -0.1658  0.0551  0.0356
 9836SOL    HW130724   5.283   0.679   1.995 -1.4303  0.6981  2.3362
 9836SOL    HW230725   5.256   0.738   1.858  2.7411  1.0607  1.5332
 9837SOL     OW30726   4.404   1.555   4.003  0.4185 -0.1207  0.0934
 9837SOL    HW130727   4.371   1.476   3.960 -1.4863 -0.7649  2.4907
 9837SOL    HW230728   4.497   1.536   4.018  0.1464 -1.6827  0.0577
 9838SOL     OW30729   4.021   0.551   3.724  0.1554 -0.0405  0.0765
 9838SOL    HW130730   4.079   0.623   3.749  1.5570 -1.2996  0.6139
 9838SOL    HW230731   3.958   0.591   3.664  0.5569  1.7345  0.7531
 9839SOL     OW30732   4.809   0.915   3.060 -0.0969 -0.7335 -0.6514
 9839SOL    HW130733   4.772   0.900   3.147 -1.6929  1.1737 -0.9383
 9839SOL    HW230734   4.803   0.829   3.016 -2.5573 -0.9599 -0.0371
 9840SOL     OW30735   5.212   1.649   2.808 -0.4071  0.5450  0.1567
 9840SOL    HW130736   5.222   1.568   2.756 -0.0020  1.8488 -1.9270
 9840SOL    HW230737   5.135   1.633   2.862 -2.2320 -0.1729 -2.4320
 9841SOL     OW30738   4.183   0.957   2.176  0.4717 -0.7974  0.0235
 9841SOL    HW130739   4.187   1.050   2.197  2.1539 -0.6718 -0.6976
 9841SOL    HW230740   4.194   0.913   2.261 -3.2444 -0.4583  0.8605
 9842SOL     OW30741   4.624   0.083   2.657  0.5217  0.2213 -0.1590
 9842SOL    HW130742   4.619   0.079   2.562  0.5766  2.2458 -0.3010
 9842SOL    HW230743   4.710   0.048   2.678  1.1964  1.2859 -1.0239
 9843SOL     OW30744   4.490   0.563   3.658 -0.3205 -0.0234  0.0684
 9843SOL    HW130745   4.455   0.652   3.670  0.6980  0.1369  2.2185
 9843SOL    HW230746   4.582   0.576   3.635  0.5815 -0.4559  3.0438
 9844SOL     OW30747   5.385   0.749   3.619 -0.3066  0.9826 -0.3308
 9844SOL    HW130748   5.438   0.744   3.540  0.0279  0.0635 -0.0593
 9844SOL    HW230749   5.357   0.658   3.636 -0.4598  1.1773  0.5436
 9845SOL     OW30750   4.703   1.030   3.821  0.7925 -0.3927 -0.2067
 9845SOL    HW130751   4.659   0.985   3.748 -0.1780 -2.8915  1.7798
 9845SOL    HW230752   4.635   1.084   3.861  0.6407 -0.9502  0.3042
 9846SOL     OW30753   4.601   0.514   2.833  0.5092  0.0437 -0.3081
 9846SOL    HW130754   4.539   0.531   2.762  0.9240 -0.9467 -0.9259
 9846SOL    HW230755   4.548   0.516   2.913 -0.0154  0.8566 -0.6660
 9847SOL     OW30756   4.613   0.558   1.932 -0.0889 -0.0339 -0.3242
 9847SOL    HW130757   4.683   0.611   1.969  1.2237  0.7115 -3.5371
 9847SOL    HW230758   4.536   0.615   1.930  0.2769  0.4554 -0.2992
 9848SOL     OW30759   3.511   0.539   2.839  0.3655 -0.4071 -0.1335
 9848SOL    HW130760   3.587   0.497   2.798 -1.1798 -3.2820 -0.3278
 9848SOL    HW230761   3.503   0.623   2.793  3.1254 -0.1754 -0.3717
 9849SOL     OW30762   3.502   1.804   3.659  0.0284 -0.6279  0.5441
 9849SOL    HW130763   3.508   1.850   3.742  0.1226 -0.3867  0.4049
 9849SOL    HW230764   3.567   1.847   3.603  0.4135 -1.2055  0.5423
 9850SOL     OW30765   4.486   0.884   1.313 -0.7348  0.1154  0.4728
 9850SOL    HW130766   4.526   0.817   1.258  0.8133  0.8367  0.6678
 9850SOL    HW230767   4.441   0.835   1.382 -0.9448 -0.7474 -0.2765
 9851SOL     OW30768   5.377   0.444   3.617 -0.2485  0.1712 -0.0231
 9851SOL    HW130769   5.433   0.374   3.584 -0.2167 -0.6827  1.7235
 9851SOL    HW230770   5.289   0.420   3.588 -0.1988 -0.4678  0.3350
 9852SOL     OW30771   5.006   1.185   2.736 -0.7456  0.1266 -0.3232
 9852SOL    HW130772   5.015   1.219   2.647  0.0332  1.1728  0.1234
 9852SOL    HW230773   4.968   1.098   2.726  0.1289 -0.1148 -1.7245
 9853SOL     OW30774   4.017   0.427   3.269  0.1017  0.3700 -0.0257
 9853SOL    HW130775   3.974   0.387   3.193  1.4130  1.9463 -1.7019
 9853SOL    HW230776   3.955   0.493   3.300  0.0525  0.5800 -0.5520
 9854SOL     OW30777   5.032   1.047   2.245  0.4941  0.2338  0.0462
 9854SOL    HW130778   5.051   1.055   2.151  0.0745  1.6804  0.0608
 9854SOL    HW230779   5.067   0.961   2.269  0.4307 -0.2513 -1.4690
 9855SOL     OW30780   3.769   1.110   2.847  0.0588 -0.2921 -0.1110
 9855SOL    HW130781   3.742   1.197   2.875  0.0151  0.0586 -1.1820
 9855SOL    HW230782   3.752   1.053   2.922 -0.3780  0.5342  0.4244
 9856SOL     OW30783   5.550   0.832   2.926 -0.0833  0.9276  0.6199
 9856SOL    HW130784   5.457   0.820   2.945 -0.7271  2.1235 -1.4045
 9856SOL    HW230785   5.555   0.920   2.887  1.6491  0.3321 -0.6339
 9857SOL     OW30786   4.613   1.607   3.290 -0.0737  0.3494  0.4722
 9857SOL    HW130787   4.522   1.585   3.269  0.3984  0.2205 -1.6375
 9857SOL    HW230788   4.629   1.689   3.242  1.4381 -0.5832 -0.6967
 9858SOL     OW30789   4.038   1.231   1.991  0.1227 -0.1239  0.4599
 9858SOL    HW130790   3.949   1.215   1.960 -0.3090  1.8333  0.5793
 9858SOL    HW230791   4.091   1.234   1.912 -0.3294  1.0401  0.1842
 9859SOL     OW30792   5.249   0.645   2.416 -0.1117  0.0845  0.2070
 9859SOL    HW130793   5.266   0.611   2.504  1.2577 -0.4552 -0.2257
 9859SOL    HW230794   5.334   0.681   2.389 -0.1335 -0.9541 -1.3798
 9860SOL     OW30795   4.002   0.872   3.697  0.1389 -0.4648 -0.2881
 9860SOL    HW130796   3.911   0.862   3.667 -0.6411  1.7472  1.0903
 9860SOL    HW230797   4.046   0.916   3.624 -0.6852  1.0794  0.0938
 9861SOL     OW30798   5.199   1.305   2.141 -0.4549 -0.2045  0.6367
 9861SOL    HW130799   5.140   1.379   2.127  0.7870  0.4824 -1.3955
 9861SOL    HW230800   5.146   1.228   2.120 -0.8515  0.3540 -0.4939
 9862SOL     OW30801   3.735   0.131   3.357 -0.0107 -0.4876  0.2812
 9862SOL    HW130802   3.663   0.068   3.368  1.0826 -1.7439  0.5394
 9862SOL    HW230803   3.714   0.202   3.417 -0.8018 -1.0685  0.7144
 9863SOL     OW30804   5.425   1.357   1.927 -0.1093  0.1823 -0.2583
 9863SOL    HW130805   5.347   1.342   1.980  0.2173 -0.8615 -0.0590
 9863SOL    HW230806   5.489   1.293   1.959  0.9154  1.1611 -0.2670
 9864SOL     OW30807   4.346   1.799   2.283  0.0703  0.4427 -0.4103
 9864SOL    HW130808   4.378   1.837   2.365 -2.2395 -0.0412  0.7873
 9864SOL    HW230809   4.282   1.733   2.310 -0.7165  0.2203 -2.6184
 9865SOL     OW30810   5.034   8.839   2.472 -0.6244 -0.2767  0.0220
 9865SOL    HW130811   5.125   8.810   2.475 -0.7365 -0.5818  0.5551
 9865SOL    HW230812   4.983   8.759   2.483 -0.9519 -0.0511  0.1565
 9866SOL     OW30813   4.132   1.206   2.867  0.6427 -0.4636 -0.1745
 9866SOL    HW130814   4.214   1.211   2.817  0.7093  1.1679  0.0541
 9866SOL    HW230815   4.161   1.190   2.957  0.6367 -1.1313 -0.2871
 9867SOL     OW30816   4.290   1.371   3.093  0.3094  0.0279  0.1529
 9867SOL    HW130817   4.295   1.448   3.149 -0.0666  0.6029 -0.5813
 9867SOL    HW230818   4.372   1.371   3.043  0.8686 -0.7637  1.0294
 9868SOL     OW30819   3.918   0.227   2.244  0.1376 -0.4646  0.8610
 9868SOL    HW130820   3.913   0.322   2.231  2.5872 -0.5671 -1.7065
 9868SOL    HW230821   3.971   0.215   2.322 -0.2385  0.2526  1.2322
 9869SOL     OW30822   5.396   0.080   3.418  0.1771 -0.0473 -0.1153
 9869SOL    HW130823   5.414   0.096   3.326 -0.7743 -0.1220 -0.3239
 9869SOL    HW230824   5.339   0.003   3.419 -0.6612  0.5596  0.4588
 9870SOL     OW30825   4.290   0.518   1.722 -0.6166  0.6453  0.0159
 9870SOL    HW130826   4.306   0.577   1.795  2.3850  1.4733 -1.1282
 9870SOL    HW230827   4.312   0.431   1.756  1.1033  1.0652  0.0769
 9871SOL     OW30828   4.849   0.042   3.446 -0.1517  0.8337  0.3774
 9871SOL    HW130829   4.779   0.103   3.421  0.3228  1.5103  0.6894
 9871SOL    HW230830   4.851   0.046   3.542 -1.7502 -1.5057  0.5936
 9872SOL     OW30831   4.560   1.341   3.029 -0.3722  0.0684  0.2422
 9872SOL    HW130832   4.618   1.293   2.969 -2.0877  0.4215 -1.8219
 9872SOL    HW230833   4.554   1.429   2.991 -1.2994  0.3904  1.0891
 9873SOL     OW30834   4.844   0.349   3.523  0.0343  0.2374 -0.3093
 9873SOL    HW130835   4.770   0.317   3.574  0.2670  0.6210  0.2779
 9873SOL    HW230836   4.847   0.443   3.541  0.5457  0.2569 -0.4790
 9874SOL     OW30837   4.786   1.189   2.958  0.1484 -0.5559  0.2344
 9874SOL    HW130838   4.790   1.102   2.997  1.5943 -0.2779  0.7353
 9874SOL    HW230839   4.865   1.196   2.906  0.7575  0.9654  1.2983
 9875SOL     OW30840   4.369   0.502   2.692 -0.1677  0.2575  0.5849
 9875SOL    HW130841   4.278   0.489   2.718  0.3926 -3.1738  1.2768
 9875SOL    HW230842   4.367   0.499   2.596 -0.6779 -0.8820  0.6205
 9876SOL     OW30843   3.958   0.355   1.846 -0.4874 -0.6279 -0.0024
 9876SOL    HW130844   4.037   0.355   1.899  0.0328  1.7443 -0.6543
 9876SOL    HW230845   3.947   0.264   1.819  1.8616 -1.0720  0.3441
 9877SOL     OW30846   5.178   1.509   1.775 -0.4226  0.2445  0.4176
 9877SOL    HW130847   5.218   1.596   1.778  1.5568 -0.6278  1.1694
 9877SOL    HW230848   5.216   1.462   1.850 -2.3602 -0.9107  0.7451
 9878SOL     OW30849   4.245   8.791   2.118  0.7823  0.0770 -0.2809
 9878SOL    HW130850   4.269   8.730   2.189 -0.7848  0.0953  0.2906
 9878SOL    HW230851   4.150   8.798   2.123  0.6555  0.2963 -2.2379
 9879SOL     OW30852   4.349   0.705   1.944  0.0521  0.2064 -0.3486
 9879SOL    HW130853   4.334   0.704   2.039  0.8956  0.1148 -0.2118
 9879SOL    HW230854   4.358   0.798   1.923  4.0286  0.1501  0.3770
 9880SOL     OW30855   4.628   0.940   3.562 -0.0166 -0.1992 -0.0969
 9880SOL    HW130856   4.543   0.985   3.560 -0.8475 -1.7085 -2.0403
 9880SOL    HW230857   4.690   1.006   3.530 -0.6091  0.6028  0.3515
 9881SOL     OW30858   5.025   1.479   2.570  0.3511 -0.0753 -0.1366
 9881SOL    HW130859   5.080   1.542   2.523 -0.0074 -0.2433 -0.7954
 9881SOL    HW230860   5.038   1.397   2.522 -0.0019 -0.2585  0.0786
 9882SOL     OW30861   4.019   0.781   2.482  0.3895  0.5806 -0.4261
 9882SOL    HW130862   4.095   0.838   2.469  1.7845 -0.8423  0.9594
 9882SOL    HW230863   4.027   0.715   2.412  1.7860 -0.8626  1.0015
 9883SOL     OW30864   5.030   1.507   2.152  0.0754  0.5105 -0.3124
 9883SOL    HW130865   5.011   1.593   2.113  0.0834 -0.0234 -1.5411
 9883SOL    HW230866   4.952   1.488   2.205 -0.9715  0.2774 -1.8628
 9884SOL     OW30867   4.759   0.505   1.700 -0.2244 -0.0274 -0.3443
 9884SOL    HW130868   4.741   0.596   1.677 -2.5751 -0.4793 -0.4811
 9884SOL    HW230869   4.707   0.489   1.778  0.4244 -1.1663 -0.1289
 9885SOL     OW30870   3.889   0.656   3.470 -0.6105 -0.0473  0.3741
 9885SOL    HW130871   3.809   0.664   3.417 -0.1662  1.9265 -0.1108
 9885SOL    HW230872   3.958   0.690   3.412  0.0744  1.0671  1.7891
 9886SOL     OW30873   3.801   0.247   3.077 -0.2922  0.7162  0.4684
 9886SOL    HW130874   3.771   0.220   3.164 -1.2328  2.5468  0.7533
 9886SOL    HW230875   3.733   0.306   3.046 -0.5906 -0.8186 -2.0683
 9887SOL     OW30876   4.174   0.361   1.985 -0.0375 -0.5132 -0.3318
 9887SOL    HW130877   4.240   0.327   1.925  1.7210  0.7562  0.8094
 9887SOL    HW230878   4.191   0.316   2.068 -1.4781 -1.1335 -0.3446
 9888SOL     OW30879   4.604   0.083   2.359 -0.3952  0.0108 -0.6547
 9888SOL    HW130880   4.600   0.001   2.309 -0.7537  0.6210 -1.6444
 9888SOL    HW230881   4.656   0.142   2.305  1.1515 -0.0038  0.7389
 9889SOL     OW30882   5.090   0.932   3.192 -0.2985  0.4693 -1.1942
 9889SOL    HW130883   5.087   0.838   3.208 -0.9261  0.3316 -2.0244
 9889SOL    HW230884   4.999   0.958   3.181 -0.2947  1.5533  0.9339
 9890SOL     OW30885   5.248   0.803   2.943 -0.2744 -0.2873 -0.0401
 9890SOL    HW130886   5.287   0.789   3.029  0.9520 -1.8995 -0.8130
 9890SOL    HW230887   5.172   0.744   2.941 -0.5843  0.1037  0.1042
 9891SOL     OW30888   5.973   0.934   2.359  0.0961  0.4974  0.3476
 9891SOL    HW130889   5.879   0.927   2.345  0.2046  2.0554 -1.6325
 9891SOL    HW230890   5.984   0.920   2.453 -2.2963  1.6736  0.8923
 9892SOL     OW30891   4.216   1.627   1.922 -0.1845  0.1805  0.4500
 9892SOL    HW130892   4.276   1.577   1.976  1.2238  1.7746  0.4365
 9892SOL    HW230893   4.138   1.639   1.977  0.5239  0.2608  1.4466
 9893SOL     OW30894   5.367   1.476   3.091  0.4833 -0.0030  0.2279
 9893SOL    HW130895   5.414   1.430   3.160  0.7819 -1.1307 -0.6901
 9893SOL    HW230896   5.434   1.529   3.049  1.1558 -2.0278 -1.4337
 9894SOL     OW30897   4.601   0.400   2.165 -0.3454  0.6492 -0.4088
 9894SOL    HW130898   4.620   0.442   2.081 -0.3058  0.2131 -0.6194
 9894SOL    HW230899   4.549   0.322   2.142  0.5579 -0.0491 -0.1235
 9895SOL     OW30900   4.049   0.467   1.601  0.2321  0.2412 -0.4222
 9895SOL    HW130901   4.134   0.500   1.630 -0.5725  0.9957  1.2205
 9895SOL    HW230902   4.005   0.438   1.681 -1.3130  0.5056 -1.1248
 9896SOL     OW30903   5.307   1.330   3.835 -0.0696 -0.1793 -0.0517
 9896SOL    HW130904   5.333   1.263   3.898 -2.7955 -0.3387  1.0605
 9896SOL    HW230905   5.258   1.282   3.768 -0.1564  0.4328 -0.4344
 9897SOL     OW30906   4.352   1.263   3.393  0.4747  0.2017 -0.0490
 9897SOL    HW130907   4.330   1.353   3.414 -0.5319 -0.2364  0.8630
 9897SOL    HW230908   4.397   1.268   3.309 -0.7245  1.4183 -0.6475
 9898SOL     OW30909   4.993   1.688   3.405  0.0100  0.2800  0.0936
 9898SOL    HW130910   5.051   1.689   3.481  0.9221  0.9243 -0.5806
 9898SOL    HW230911   4.999   1.599   3.371  0.6989  0.3732 -0.0361
 9899SOL     OW30912   4.596   0.831   2.843 -0.0121  0.3196 -0.5174
 9899SOL    HW130913   4.566   0.809   2.754  0.6416 -0.5736 -0.5291
 9899SOL    HW230914   4.666   0.768   2.861  0.9950  1.5460 -0.0014
 9900SOL     OW30915   5.226   1.047   2.795  0.5483 -0.3467  0.1476
 9900SOL    HW130916   5.143   1.095   2.793  0.1908 -0.8954  1.0296
 9900SOL    HW230917   5.212   0.978   2.860  1.3236 -1.1472 -0.5098
 9901SOL     OW30918   4.638   0.095   3.066  0.2326  0.0188 -0.1572
 9901SOL    HW130919   4.649   0.127   3.155 -1.3726  1.5195 -0.4606
 9901SOL    HW230920   4.725   0.107   3.026  0.7751 -0.0036  0.9667
 9902SOL     OW30921   4.631   0.651   4.034 -0.2834 -0.3358  0.5388
 9902SOL    HW130922   4.558   0.604   4.076 -1.3012  1.3723  0.7849
 9902SOL    HW230923   4.612   0.743   4.050  0.4297  0.2991 -1.8813
 9903SOL     OW30924   4.479   1.261   2.176 -0.1996 -0.0291 -0.0390
 9903SOL    HW130925   4.547   1.255   2.108 -1.2925  0.7229 -1.2497
 9903SOL    HW230926   4.527   1.267   2.258  1.1896  0.0244 -0.8234
 9904SOL     OW30927   4.475   0.386   3.271  0.1822 -0.3221 -0.0744
 9904SOL    HW130928   4.396   0.429   3.303 -0.5771 -0.4373 -1.7270
 9904SOL    HW230929   4.449   0.344   3.189  1.5601 -1.7228  0.1576
 9905SOL     OW30930   4.632   0.195   3.389  0.3231 -0.1525  0.7293
 9905SOL    HW130931   4.593   0.271   3.348  0.1165  0.3350  1.7825
 9905SOL    HW230932   4.597   0.195   3.478  0.5968 -1.2761  0.8568
 9906SOL     OW30933   3.865   1.040   3.102 -0.1731  0.0542  0.3603
 9906SOL    HW130934   3.944   1.088   3.077  0.7136 -1.4121  0.2229
 9906SOL    HW230935   3.852   1.060   3.194  0.9507 -0.4549  0.6469
 9907SOL     OW30936   4.178   1.224   2.236 -0.0159  1.2187  0.1563
 9907SOL    HW130937   4.266   1.235   2.201  0.8482 -1.7142  1.0810
 9907SOL    HW230938   4.120   1.235   2.160  1.3616  0.5039 -1.0421
 9908SOL     OW30939   3.926   8.838   2.795  0.2036  0.1009  0.2738
 9908SOL    HW130940   3.989   8.813   2.728  0.0300 -0.3845  0.2858
 9908SOL    HW230941   3.880   8.756   2.817  0.0673  0.3071  0.7800
 9909SOL     OW30942   5.330   1.128   2.457 -0.1539 -0.2096  0.4086
 9909SOL    HW130943   5.277   1.067   2.508 -0.4647 -0.1200  0.1944
 9909SOL    HW230944   5.411   1.081   2.438  0.1675 -0.0914  1.3788
 9910SOL     OW30945   4.726   0.834   3.324  0.2134 -0.8291 -0.6090
 9910SOL    HW130946   4.674   0.848   3.404  0.4350 -0.8353 -0.4634
 9910SOL    HW230947   4.704   0.744   3.298  0.8455 -1.1664 -0.0302
 9911SOL     OW30948   5.509   0.736   2.389  0.3784  0.4059  0.6114
 9911SOL    HW130949   5.506   0.784   2.471 -0.2483  1.6346 -0.0880
 9911SOL    HW230950   5.568   0.787   2.333 -0.2485  0.3520 -0.1276
 9912SOL     OW30951   4.031   1.077   3.486  0.0588  0.0607  0.3521
 9912SOL    HW130952   3.954   1.095   3.431 -0.4354 -1.8382  0.3389
 9912SOL    HW230953   4.092   1.032   3.428 -0.3435 -1.6924  1.2121
 9913SOL     OW30954   4.408   0.495   4.014  0.3220  0.5894 -0.3280
 9913SOL    HW130955   4.414   0.456   3.927 -0.1772  0.9749 -0.5445
 9913SOL    HW230956   4.358   0.576   4.000 -2.1020 -0.6224  0.6988
 9914SOL     OW30957   5.755   0.455   3.736 -0.5084  0.5358 -0.3955
 9914SOL    HW130958   5.788   0.365   3.728 -0.3987  0.3044  1.9219
 9914SOL    HW230959   5.660   0.444   3.748 -0.4323  0.6716  0.3822
 9915SOL     OW30960   4.879   0.087   3.718 -0.0100 -0.0558 -0.6714
 9915SOL    HW130961   4.936   0.148   3.764 -2.5513  2.2590 -0.3384
 9915SOL    HW230962   4.834   0.039   3.787  1.3038 -1.7725 -0.9307
 9916SOL     OW30963   4.171   0.370   3.909 -0.3524  0.2001  0.0514
 9916SOL    HW130964   4.104   0.382   3.977  1.1859 -0.3196  1.7402
 9916SOL    HW230965   4.162   0.447   3.853 -1.5348  0.7751  0.9748
 9917SOL     OW30966   4.344   0.982   2.794 -0.1111  0.2202  0.1586
 9917SOL    HW130967   4.369   1.069   2.762  2.1360  0.1976  1.5645
 9917SOL    HW230968   4.423   0.950   2.838 -1.0057 -2.3905  0.0229
 9918SOL     OW30969   4.958   0.688   2.664  0.1699  0.6359 -0.0333
 9918SOL    HW130970   4.933   0.669   2.574  0.4646 -0.7133  0.1436
 9918SOL    HW230971   5.048   0.655   2.671  0.6943  2.0460  0.3678
 9919SOL     OW30972   4.309   0.657   2.226 -0.2966  0.2900  0.0762
 9919SOL    HW130973   4.280   0.616   2.307  0.8318 -0.3924  0.1493
 9919SOL    HW230974   4.405   0.658   2.232 -0.2407  2.5765 -0.0915
 9920SOL     OW30975   3.144   0.060   2.932 -0.6132 -0.0584  0.3374
 9920SOL    HW130976   3.187   0.003   2.869 -0.6384 -0.2202  0.4644
 9920SOL    HW230977   3.120   0.138   2.882 -1.7478 -0.6923 -0.1526
 9921SOL     OW30978   3.714   0.837   2.994 -0.4987 -0.4934 -0.1653
 9921SOL    HW130979   3.633   0.831   3.045 -1.7665 -0.6931 -2.1022
 9921SOL    HW230980   3.772   0.890   3.048 -1.0983 -2.1414  2.2714
 9922SOL     OW30981   4.093   0.891   2.827  0.3961 -0.3991 -0.3708
 9922SOL    HW130982   4.029   0.927   2.765 -0.1252 -0.3155  0.2155
 9922SOL    HW230983   4.165   0.954   2.824  0.4675 -0.4986 -1.0415
 9923SOL     OW30984   5.846   1.173   3.862  0.5306  0.3222 -0.1676
 9923SOL    HW130985   5.770   1.223   3.833 -0.1290  0.1305  1.1324
 9923SOL    HW230986   5.860   1.201   3.953  1.8213  0.1128 -0.2757
 9924SOL     OW30987   4.066   8.793   2.507  0.4234  0.3202  0.6473
 9924SOL    HW130988   4.125   8.719   2.518 -0.8329 -1.0829 -1.3211
 9924SOL    HW230989   4.013   8.770   2.430 -0.8605  2.7076  0.7247
 9925SOL     OW30990   4.902   0.138   2.303 -0.3383  0.4135 -0.3158
 9925SOL    HW130991   4.952   0.079   2.360  0.8039  1.4092 -0.2363
 9925SOL    HW230992   4.967   0.201   2.272 -1.4348  1.3542 -0.7529
 9926SOL     OW30993   4.793   0.283   2.805  0.0816 -0.4293  0.2739
 9926SOL    HW130994   4.813   0.276   2.712  0.2629 -2.3690  0.4099
 9926SOL    HW230995   4.716   0.340   2.809 -1.5292 -2.3391 -1.3197
 9927SOL     OW30996   4.810   1.577   3.838  0.0668 -0.0362 -0.0921
 9927SOL    HW130997   4.797   1.672   3.840  1.5677  0.2491 -1.5866
 9927SOL    HW230998   4.889   1.562   3.890  0.0061 -0.4264 -0.1116
 9928SOL     OW30999   5.519   1.319   3.289 -0.1356  0.8026 -0.0664
 9928SOL    HW131000   5.528   1.230   3.255 -2.0495  0.1364  1.0104
 9928SOL    HW231001   5.608   1.347   3.308  0.4752 -1.0081 -0.1286
 9929SOL     OW31002   4.053   0.822   3.979  0.7077  0.1305  0.1590
 9929SOL    HW131003   4.146   0.824   4.002  0.9571 -0.1107 -0.7888
 9929SOL    HW231004   4.051   0.847   3.886 -0.0777 -0.8847 -0.1095
 9930SOL     OW31005   4.819   0.170   1.804 -0.0334  0.3118 -0.6027
 9930SOL    HW131006   4.726   0.170   1.780  0.0624  0.0763 -0.9784
 9930SOL    HW231007   4.821   0.128   1.891  0.0142 -2.3852 -1.7914
 9931SOL     OW31008   4.934   0.619   1.915  0.2168  0.2780 -0.1539
 9931SOL    HW131009   5.024   0.643   1.938  0.0620 -0.8955  1.8874
 9931SOL    HW231010   4.943   0.545   1.856  0.6090 -0.8427  1.2745
 9932SOL     OW31011   4.624   1.382   2.704  0.5292  0.0145  0.0761
 9932SOL    HW131012   4.608   1.474   2.686  1.0087 -0.1614 -1.4024
 9932SOL    HW231013   4.702   1.380   2.759 -0.3828  0.5454  1.4233
 9933SOL     OW31014   3.740   0.459   2.708 -0.7629 -0.5055 -0.5718
 9933SOL    HW131015   3.814   0.519   2.701 -0.7429 -0.4993 -0.3240
 9933SOL    HW231016   3.775   0.374   2.682 -0.6776 -0.4968 -0.4840
 9934SOL     OW31017   3.774   0.188   2.640  0.1887  0.2280  0.8357
 9934SOL    HW131018   3.753   0.153   2.554  1.2018 -0.7103  0.9529
 9934SOL    HW231019   3.824   0.119   2.683 -1.3305  0.1606  2.6559
 9935SOL     OW31020   5.115   0.335   3.501 -0.7333 -0.5313 -0.0092
 9935SOL    HW131021   5.028   0.299   3.519 -0.9617 -0.3360 -0.6991
 9935SOL    HW231022   5.110   0.367   3.411 -0.0153 -0.3090  0.0222
 9936SOL     OW31023   5.036   0.056   3.241  0.1270 -0.5717 -0.4762
 9936SOL    HW131024   5.122   0.021   3.264  0.5082  1.9971  2.7433
 9936SOL    HW231025   4.984   0.046   3.321 -1.9762 -0.3053 -1.7382
 9937SOL     OW31026   3.687   1.338   2.086  0.0295 -0.0289  0.1911
 9937SOL    HW131027   3.734   1.255   2.079 -0.3991 -0.1583 -1.4582
 9937SOL    HW231028   3.595   1.313   2.093 -0.0445  0.2998  0.4019
 9938SOL     OW31029   3.970   1.813   2.508  0.4664  0.2737 -0.1441
 9938SOL    HW131030   4.003   1.886   2.560  0.7808  0.8715 -1.1687
 9938SOL    HW231031   3.896   1.780   2.559  1.1037  0.4793  0.9624
 9939SOL     OW31032   4.038   1.493   2.898  0.8706  0.3324 -0.5759
 9939SOL    HW131033   4.124   1.534   2.883  0.7234 -0.0565 -2.7156
 9939SOL    HW231034   4.058   1.400   2.907  0.6682  0.2324 -1.1595
 9940SOL     OW31035   4.878   0.474   3.235 -0.2190  0.0011 -0.0996
 9940SOL    HW131036   4.870   0.406   3.302 -1.1297  1.0802  0.9235
 9940SOL    HW231037   4.789   0.504   3.220  0.3111  2.2282  0.8189
 9941SOL     OW31038   3.890   0.634   3.022  0.0528 -0.5681  0.1880
 9941SOL    HW131039   3.910   0.634   2.929  0.8512  0.3510  0.3346
 9941SOL    HW231040   3.815   0.693   3.030 -1.9357 -2.8906 -0.1853
 9942SOL     OW31041   4.070   0.335   3.569  0.1837 -0.6121  0.0872
 9942SOL    HW131042   4.065   0.410   3.629 -0.2234 -0.9568  0.5009
 9942SOL    HW231043   4.069   0.373   3.482 -2.3487 -0.1913  0.2215
 9943SOL     OW31044   5.034   0.718   3.358 -0.2665 -0.0421  0.0261
 9943SOL    HW131045   4.991   0.633   3.365  0.4303 -0.3286  1.0577
 9943SOL    HW231046   4.998   0.769   3.431  0.3775  0.0488  0.2907
 9944SOL     OW31047   4.284   0.913   2.534  0.2241 -0.3039 -0.5145
 9944SOL    HW131048   4.266   0.946   2.622  1.0452  0.3069 -0.5713
 9944SOL    HW231049   4.352   0.846   2.546  0.2014 -0.3552 -0.6634
 9945SOL     OW31050   5.530   0.722   3.401 -0.4361  0.6956 -0.1318
 9945SOL    HW131051   5.595   0.662   3.438  0.2594  0.9199 -0.9489
 9945SOL    HW231052   5.562   0.739   3.313 -2.1347  0.0379 -0.9131
 9946SOL     OW31053   3.695   1.417   3.199 -0.4910  0.1831  0.4021
 9946SOL    HW131054   3.650   1.372   3.270 -0.0870  0.6376  0.9628
 9946SOL    HW231055   3.785   1.427   3.231 -0.2424  0.1517 -0.2877
 9947SOL     OW31056   4.165   0.689   2.999 -0.0109 -0.6485  0.4182
 9947SOL    HW131057   4.144   0.760   2.937 -0.6408 -0.7852  0.4686
 9947SOL    HW231058   4.080   0.664   3.035  0.2104 -1.4333  0.4019
 9948SOL     OW31059   4.628   1.400   3.617 -0.3387 -0.0781  0.8262
 9948SOL    HW131060   4.666   1.448   3.691 -0.2260 -1.3900  1.6446
 9948SOL    HW231061   4.695   1.337   3.592 -0.4337  0.2547 -0.3243
 9949SOL     OW31062   3.944   0.913   2.065 -0.0372  0.0846 -0.4022
 9949SOL    HW131063   4.035   0.935   2.086  0.2983 -1.0567 -0.5924
 9949SOL    HW231064   3.951   0.840   2.003 -1.1013 -0.9435  0.6606
 9950SOL     OW31065   3.492   0.864   3.187 -0.4813 -0.1784  0.1118
 9950SOL    HW131066   3.468   0.941   3.239  0.9719 -0.8658  1.9173
 9950SOL    HW231067   3.442   0.873   3.106 -1.1657  2.0964  0.7150
 9951SOL     OW31068   5.052   0.580   3.015 -0.2306  0.1470 -0.1224
 9951SOL    HW131069   4.966   0.607   2.983 -0.3213  1.0802  0.8444
 9951SOL    HW231070   5.034   0.541   3.101  0.1883 -0.7472 -0.4347
 9952SOL     OW31071   4.911   0.658   2.415  0.2148 -0.2818 -0.5104
 9952SOL    HW131072   4.963   0.705   2.350  1.0497 -0.1539  0.2311
 9952SOL    HW231073   4.917   0.566   2.389 -1.6825 -0.0017 -2.1493
 9953SOL     OW31074   5.369   1.876   3.305  0.2229 -0.6967  0.3742
 9953SOL    HW131075   5.446   1.835   3.265 -0.2655  0.3251 -1.8014
 9953SOL    HW231076   5.294   1.835   3.262 -0.2842  2.3251 -2.0560
 9954SOL     OW31077   4.850   1.509   2.820  0.1219 -0.6891 -0.0249
 9954SOL    HW131078   4.897   1.511   2.736 -0.8671  3.0799 -0.6736
 9954SOL    HW231079   4.916   1.484   2.884  2.1956  0.9468 -1.3716
 9955SOL     OW31080   3.565   0.832   2.741  0.4050 -0.3554 -0.0177
 9955SOL    HW131081   3.620   0.799   2.812  0.7339  0.3085  0.0436
 9955SOL    HW231082   3.620   0.826   2.663 -0.2176 -1.8053 -0.3693
 9956SOL     OW31083   3.868   1.418   4.012  0.3175 -0.5228 -0.5518
 9956SOL    HW131084   3.864   1.407   3.917  0.1706 -2.1164 -0.3901
 9956SOL    HW231085   3.949   1.468   4.026 -0.4646  1.1325 -1.5746
 9957SOL     OW31086   5.298   8.729   2.215 -0.1023  0.8687 -0.0261
 9957SOL    HW131087   5.327   8.682   2.293 -1.8419  1.8228  1.2400
 9957SOL    HW231088   5.370   8.790   2.197  1.0172 -0.4253 -0.1627
 9958SOL     OW31089   5.339   1.375   2.369  0.0843  0.5988  0.1048
 9958SOL    HW131090   5.314   1.289   2.403 -1.6904  1.2481  0.5175
 9958SOL    HW231091   5.299   1.380   2.283  0.0401  1.0857  0.1508
 9959SOL     OW31092   3.231   1.996   3.887 -0.4524 -0.2269  0.2963
 9959SOL    HW131093   3.201   1.932   3.823  0.6318 -0.7355  0.2736
 9959SOL    HW231094   3.275   1.945   3.954 -1.7675  0.2768  1.6022
 9960SOL     OW31095   4.811   0.318   2.528 -0.1918 -0.6871  1.0796
 9960SOL    HW131096   4.870   0.393   2.523  0.0706 -0.8247  1.9505
 9960SOL    HW231097   4.842   0.258   2.461 -0.2734 -0.1142  0.5162
 9961SOL     OW31098   4.349   1.087   3.617  0.0744  0.4349  0.5111
 9961SOL    HW131099   4.300   1.124   3.689 -1.4834 -0.4329 -0.0574
 9961SOL    HW231100   4.349   1.154   3.549  1.0895  1.0470  1.0922
 9962SOL     OW31101   4.724   1.701   1.855  0.2731  0.3786  0.4814
 9962SOL    HW131102   4.644   1.741   1.890 -1.2544  0.7339 -2.9828
 9962SOL    HW231103   4.714   1.608   1.876  0.7023  0.8303  3.0151
 9963SOL     OW31104   5.338   1.971   3.535 -0.0871  0.2842 -0.2723
 9963SOL    HW131105   5.367   1.931   3.454 -0.7081  0.6659 -0.6912
 9963SOL    HW231106   5.254   2.011   3.514 -0.5306 -0.0974  0.7037
 9964SOL     OW31107   4.971   0.112   2.978 -0.1079  0.1659  0.2489
 9964SOL    HW131108   4.923   0.192   2.956 -0.8472  0.2627  2.0069
 9964SOL    HW231109   5.002   0.128   3.067  0.0989 -1.3420  0.4641
 9965SOL     OW31110   4.070   0.218   2.461  0.6213 -0.0332 -0.0847
 9965SOL    HW131111   4.162   0.213   2.433  0.1341  0.1674 -1.7902
 9965SOL    HW231112   4.052   0.132   2.498  1.1858 -0.4459 -0.7477
 9966SOL     OW31113   5.009   0.904   1.767  0.0108  0.2255  0.0365
 9966SOL    HW131114   4.950   0.921   1.693  0.8784  1.6112 -0.3652
 9966SOL    HW231115   4.990   0.813   1.791 -0.1698 -0.3468 -2.0292
 9967SOL     OW31116   4.628   0.606   3.240 -0.3466 -0.5070 -0.2716
 9967SOL    HW131117   4.568   0.642   3.174 -0.2196 -1.5960 -1.0082
 9967SOL    HW231118   4.576   0.540   3.286 -0.2495 -0.1753  0.3242
 9968SOL     OW31119   4.749   0.782   2.021 -0.4906  0.8192  0.5261
 9968SOL    HW131120   4.822   0.730   1.987  0.8714  1.6197  2.0753
 9968SOL    HW231121   4.749   0.861   1.967  0.3847  1.2072  1.0737
 9969SOL     OW31122   5.168   1.666   2.431 -0.0476 -0.6017 -0.1097
 9969SOL    HW131123   5.218   1.610   2.372 -2.5858 -2.7743 -0.4156
 9969SOL    HW231124   5.117   1.723   2.373 -0.8235 -1.1446  0.0193
 9970SOL     OW31125   4.324   0.802   3.636 -0.2244  0.6020 -0.4776
 9970SOL    HW131126   4.285   0.780   3.551 -0.3039  1.4411 -0.6652
 9970SOL    HW231127   4.351   0.893   3.627  0.5397  0.4424  0.1158
 9971SOL     OW31128   4.919   0.840   3.567 -0.4793 -0.2949 -0.0565
 9971SOL    HW131129   4.955   0.854   3.655 -1.1020  0.2535  0.1241
 9971SOL    HW231130   4.837   0.889   3.568 -0.3913 -0.1188 -1.0121
 9972SOL     OW31131   4.864   0.953   2.720 -0.5600  0.0220 -0.6050
 9972SOL    HW131132   4.886   0.868   2.681  0.3354 -0.7457  1.4477
 9972SOL    HW231133   4.794   0.933   2.782  0.6996  0.4432  1.0259
 9973SOL     OW31134   4.458   8.749   2.771  0.5019 -0.4223  0.3454
 9973SOL    HW131135   4.535   8.793   2.733  1.1135 -1.6559  0.1026
 9973SOL    HW231136   4.425   8.810   2.836  1.3875  0.3516  0.0889
 9974SOL     OW31137   4.368   1.493   2.391 -0.0853  0.3945 -0.2822
 9974SOL    HW131138   4.285   1.541   2.397  0.6604  1.6347  0.7073
 9974SOL    HW231139   4.343   1.401   2.393 -1.3837  0.7407  0.8386
 9975SOL     OW31140   5.545   0.427   3.336  0.1508  0.1827 -0.4268
 9975SOL    HW131141   5.618   0.462   3.386  1.6589  0.2782 -2.5491
 9975SOL    HW231142   5.582   0.355   3.285 -1.4368 -0.3242 -0.9503
 9976SOL     OW31143   4.374   1.531   2.124 -0.2583  0.1121  0.0449
 9976SOL    HW131144   4.394   1.438   2.137 -0.7357 -0.1398 -0.9540
 9976SOL    HW231145   4.408   1.573   2.203  2.1727 -0.5793 -0.5381
 9977SOL     OW31146   3.682   0.677   3.284  0.4687 -0.2889 -0.6383
 9977SOL    HW131147   3.652   0.608   3.226 -0.5374  0.7078 -1.3365
 9977SOL    HW231148   3.620   0.749   3.271 -0.4853 -0.4047  2.4811
 9978SOL     OW31149   4.419   8.607   3.417  0.0918  0.3835  0.1367
 9978SOL    HW131150   4.465   8.643   3.493  0.6503 -0.6618  0.3038
 9978SOL    HW231151   4.326   8.610   3.441  0.3019 -0.4259  1.0756
 9979SOL     OW31152   3.437   0.183   2.408 -0.2747  0.1882  0.5394
 9979SOL    HW131153   3.464   0.273   2.424  1.3930  0.1365 -1.6384
 9979SOL    HW231154   3.507   0.129   2.446 -0.0890 -0.1072 -0.1998
 9980SOL     OW31155   5.308   0.731   3.212  0.1492 -0.0466 -0.0405
 9980SOL    HW131156   5.235   0.733   3.274  0.2478  2.1116  0.0858
 9980SOL    HW231157   5.385   0.719   3.267  0.1050  0.2872  0.0964
 9981SOL     OW31158   3.606   8.827   1.814 -0.4971  0.4950 -0.1315
 9981SOL    HW131159   3.623   8.801   1.904  2.6116 -0.0259 -0.7546
 9981SOL    HW231160   3.539   8.895   1.821 -0.0819  0.7264  2.5904
 9982SOL     OW31161   5.359   0.996   2.150  0.3172 -0.6509 -0.5202
 9982SOL    HW131162   5.455   0.998   2.147  0.4108  1.9447  0.9667
 9982SOL    HW231163   5.336   1.060   2.218 -2.5094  0.1486 -2.0821
 9983SOL     OW31164   4.319   0.799   3.918  0.5534 -0.0299 -0.9385
 9983SOL    HW131165   4.304   0.807   3.824  0.6330 -1.9708 -1.1467
 9983SOL    HW231166   4.405   0.838   3.932  0.7776 -0.2032 -1.7658
 9984SOL     OW31167   5.206   1.727   3.162 -0.0633  0.1823 -0.4330
 9984SOL    HW131168   5.112   1.720   3.146 -0.1587 -0.7486  0.4920
 9984SOL    HW231169   5.244   1.655   3.112 -0.0809 -0.8813  1.0307
 9985SOL     OW31170   5.016   0.366   3.836  0.2781 -0.2537  0.0859
 9985SOL    HW131171   4.953   0.438   3.832 -0.5712 -1.0324 -1.0357
 9985SOL    HW231172   5.084   0.390   3.773  1.5988  0.9722  1.8590
 9986SOL     OW31173   5.046   1.495   3.940  0.2404 -0.1879 -0.3227
 9986SOL    HW131174   5.070   1.520   4.030  0.9147  1.0708 -0.8214
 9986SOL    HW231175   5.124   1.452   3.906 -0.1769 -1.0839 -0.1662
 9987SOL     OW31176   3.945   1.371   3.383 -1.2864  0.4486 -0.4171
 9987SOL    HW131177   3.927   1.309   3.453  2.4062 -0.9496 -0.4608
 9987SOL    HW231178   3.944   1.457   3.425  0.3138 -0.3209  1.3186
 9988SOL     OW31179   5.409   1.006   3.272 -0.0266 -0.0584  0.2734
 9988SOL    HW131180   5.469   0.946   3.316 -0.8418 -0.9416  0.2178
 9988SOL    HW231181   5.323   0.967   3.285 -0.3485 -0.1119 -1.7149
 9989SOL     OW31182   4.221   0.491   2.426 -0.3580  0.1113  0.4668
 9989SOL    HW131183   4.251   0.403   2.402 -2.6551  0.0384 -2.7586
 9989SOL    HW231184   4.189   0.481   2.515  0.8285 -1.9020  0.7514
 9990SOL     OW31185   3.762   0.944   2.472  0.4145  0.3840 -0.2790
 9990SOL    HW131186   3.844   0.984   2.500  0.5579  1.9483 -2.6259
 9990SOL    HW231187   3.696   1.012   2.489 -0.3941 -0.6909  1.1760
 9991SOL     OW31188   5.663   8.694   3.281  0.1143  0.3450 -0.1836
 9991SOL    HW131189   5.641   8.694   3.188 -0.0207  2.3483 -0.1919
 9991SOL    HW231190   5.749   8.736   3.285  0.0354  0.4426  0.6141
 9992SOL     OW31191   5.261   0.952   3.499 -0.2844  0.4718  0.7470
 9992SOL    HW131192   5.332   1.016   3.502 -1.1047  1.3921  0.8790
 9992SOL    HW231193   5.292   0.879   3.553  2.2069 -0.9000 -2.1981
 9993SOL     OW31194   4.770   1.219   2.163  0.0209 -0.0552  0.3870
 9993SOL    HW131195   4.755   1.302   2.210  1.4582 -0.0653  0.9119
 9993SOL    HW231196   4.800   1.159   2.231 -2.4690 -1.5171  0.3182
 9994SOL     OW31197   4.464   1.917   2.530  0.1406 -0.4131  0.1444
 9994SOL    HW131198   4.469   2.007   2.497 -0.2336 -0.5322 -0.2528
 9994SOL    HW231199   4.510   1.919   2.614  0.1744  0.1378  0.1149
 9995SOL     OW31200   4.523   0.767   2.572 -0.5940  0.1436 -0.6292
 9995SOL    HW131201   4.587   0.796   2.506 -0.7577  0.4086 -0.6747
 9995SOL    HW231202   4.512   0.673   2.555 -0.8652  0.2718 -1.1838
 9996SOL     OW31203   4.822   0.942   1.569 -0.9163  0.0794  0.0431
 9996SOL    HW131204   4.807   1.036   1.584 -1.3334  0.2029 -1.0237
 9996SOL    HW231205   4.828   0.934   1.473  1.2345 -0.6854  0.2011
 9997SOL     OW31206   5.600   1.629   2.956  0.1510  0.2209 -0.3421
 9997SOL    HW131207   5.680   1.580   2.938  0.9108  0.9663  0.8832
 9997SOL    HW231208   5.625   1.693   3.023 -1.6440 -0.0815  0.6903
 9998SOL     OW31209   3.777   1.093   3.389  0.1912 -0.0514 -0.4580
 9998SOL    HW131210   3.752   1.029   3.455  0.6398  0.7185  0.4838
 9998SOL    HW231211   3.716   1.166   3.403  2.0688  1.3392  1.0588
 9999SOL     OW31212   4.167   1.311   2.502  0.1521 -0.2808  0.8560
 9999SOL    HW131213   4.165   1.254   2.425  0.5680  0.8571 -0.0397
 9999SOL    HW231214   4.076   1.318   2.530 -0.2834  0.6998 -0.6554
10000SOL     OW31215   4.336   1.408   3.788  0.0679  0.6033 -0.2371
10000SOL    HW131216   4.248   1.371   3.793 -0.3739  1.5562 -0.5696
10000SOL    HW231217   4.351   1.419   3.694  0.8410 -0.2132 -0.2193
10001SOL     OW31218   5.204   0.407   2.876 -0.1807  0.1091  0.1878
10001SOL    HW131219   5.130   0.466   2.893 -0.7781 -0.7595  0.6755
10001SOL    HW231220   5.224   0.369   2.962 -0.6735 -1.3897 -0.3287
10002SOL     OW31221   3.924   0.684   2.725 -0.1426 -0.0397 -0.0940
10002SOL    HW131222   3.910   0.728   2.642  0.6746 -0.4257 -0.4467
10002SOL    HW231223   3.985   0.740   2.773  0.3630 -0.4258 -0.2694
10003SOL     OW31224   5.078   1.463   3.297  0.4607 -0.2400 -0.2475
10003SOL    HW131225   5.013   1.393   3.305  1.1709 -0.9034 -0.0322
10003SOL    HW231226   5.149   1.435   3.356  0.3836  1.1042  0.5172
10004SOL     OW31227   4.257   0.535   3.275 -0.1896 -0.1079  0.9441
10004SOL    HW131228   4.295   0.552   3.189  1.7559 -0.4282  1.6940
10004SOL    HW231229   4.174   0.491   3.256 -0.1394  0.4508 -0.7606
10005SOL     OW31230   4.773   1.731   2.307 -0.0515 -0.2412 -0.1667
10005SOL    HW131231   4.741   1.785   2.380  0.2335  1.4608 -1.2520
10005SOL    HW231232   4.799   1.794   2.240 -0.5789 -1.7692 -1.8890
10006SOL     OW31233   4.635   8.523   2.714 -0.0397  0.5525 -0.4030
10006SOL    HW131234   4.598   8.588   2.774 -0.4531 -0.5178  0.5438
10006SOL    HW231235   4.726   8.514   2.741 -0.4980 -0.7444  0.8701
10007SOL     OW31236   4.480   0.215   2.889  0.0294  0.1629 -0.0868
10007SOL    HW131237   4.516   0.181   2.807 -1.0206 -0.5276 -0.2767
10007SOL    HW231238   4.520   0.161   2.957  0.5819  0.4630 -0.1678
10008SOL     OW31239   4.710   0.967   2.347 -0.6549  0.1498 -0.0631
10008SOL    HW131240   4.793   0.923   2.364 -1.4630 -1.2221  0.4671
10008SOL    HW231241   4.666   0.911   2.283 -0.7926  1.3672 -1.0763
10009SOL     OW31242   4.092   1.212   3.183 -1.0680 -0.0376  0.3168
10009SOL    HW131243   4.055   1.267   3.252 -0.7708 -0.0927  0.5206
10009SOL    HW231244   4.161   1.266   3.144  0.4254 -0.9110  1.6801
10010SOL     OW31245   5.363   8.789   2.532  0.4886  0.3490  0.6664
10010SOL    HW131246   5.437   8.799   2.472 -0.0306  1.1131  0.1340
10010SOL    HW231247   5.390   8.838   2.610  0.7330  0.2479  0.6460
10011SOL     OW31248   4.564   0.487   2.432 -0.6657 -0.4368 -0.6721
10011SOL    HW131249   4.568   0.457   2.341 -0.2448 -0.6859 -0.5739
10011SOL    HW231250   4.615   0.422   2.480 -0.6194 -0.1259 -0.3054
10012SOL     OW31251   4.992   8.600   2.601 -0.4467 -0.2782 -0.7931
10012SOL    HW131252   4.946   8.565   2.678 -2.0001 -1.0989 -2.0215
10012SOL    HW231253   5.082   8.570   2.611 -0.6012 -0.3184  0.7248
10013SOL     OW31254   3.443   1.252   2.057 -0.1276  0.2111 -0.2204
10013SOL    HW131255   3.431   1.169   2.010  0.3727  0.1123 -0.1874
10013SOL    HW231256   3.361   1.266   2.104 -0.2356 -0.2385 -0.2720
10014SOL     OW31257   4.771   1.468   2.255 -0.2055 -0.9146 -0.2622
10014SOL    HW131258   4.771   1.562   2.271 -1.3800 -0.7568 -1.0878
10014SOL    HW231259   4.734   1.430   2.334 -0.2026 -0.6481 -0.1313
10015SOL     OW31260   4.324   0.681   4.267  0.3717  0.1221 -0.1943
10015SOL    HW131261   4.348   0.679   4.174  1.4734  2.1431 -0.0327
10015SOL    HW231262   4.299   0.772   4.283  0.0435 -0.2205  1.4569
10016SOL     OW31263   3.892   8.848   4.410  0.2127  0.1563  0.2571
10016SOL    HW131264   3.921   8.816   4.325  1.2488 -0.5443  0.8402
10016SOL    HW231265   3.973   8.868   4.457 -0.3708  1.9914  0.5639
10017SOL     OW31266   3.706   0.511   4.187 -0.1491 -0.2005  0.1447
10017SOL    HW131267   3.744   0.513   4.099  1.2866  0.8431  0.7534
10017SOL    HW231268   3.725   0.422   4.219  3.5781  0.7528  1.0926
10018SOL     OW31269   4.434   0.995   4.959  0.3044 -0.6175 -0.2379
10018SOL    HW131270   4.388   0.911   4.957  0.2090 -0.5766  0.1522
10018SOL    HW231271   4.405   1.040   4.880  0.6817 -1.1217 -0.6624
10019SOL     OW31272   5.301   1.456   4.379 -0.6231 -0.1061  0.2842
10019SOL    HW131273   5.287   1.527   4.441  1.7855 -0.0079  0.7815
10019SOL    HW231274   5.344   1.497   4.304  0.3149 -0.9298  0.3518
10020SOL     OW31275   5.028   0.303   4.583 -0.8865 -0.1912  0.1399
10020SOL    HW131276   4.977   0.331   4.658 -0.6588 -0.6944  0.4891
10020SOL    HW231277   5.115   0.340   4.597 -0.6100 -0.9807  0.5590
10021SOL     OW31278   5.945   0.251   3.900 -0.8853 -0.3336  0.0075
10021SOL    HW131279   6.037   0.255   3.871 -0.2921  0.9858  1.8761
10021SOL    HW231280   5.928   0.338   3.936 -2.6783 -0.7829  0.3201
10022SOL     OW31281   4.892   0.717   4.764 -0.1969  0.1968 -0.3397
10022SOL    HW131282   4.874   0.674   4.680 -0.0104 -1.1419  0.2842
10022SOL    HW231283   4.806   0.732   4.802 -0.2471 -0.0720 -0.3458
10023SOL     OW31284   4.715   0.980   5.465 -0.7403  0.2280 -0.0055
10023SOL    HW131285   4.738   0.971   5.557 -1.9405  0.9163  0.3867
10023SOL    HW231286   4.678   0.895   5.440  0.7923 -0.3926 -0.2352
10024SOL     OW31287   4.632   0.486   4.690  0.2365  0.8022 -0.1179
10024SOL    HW131288   4.696   0.520   4.628  1.5832 -0.4082  0.5263
10024SOL    HW231289   4.677   0.489   4.775  0.8478 -3.2031 -0.1003
10025SOL     OW31290   4.868   1.237   5.668 -0.3415  0.7250  0.0067
10025SOL    HW131291   4.846   1.145   5.677 -1.4443  0.9017 -0.6766
10025SOL    HW231292   4.894   1.247   5.576  0.5900  0.9487  0.2778
10026SOL     OW31293   4.211   1.908   4.709  0.0233 -0.7008 -0.1419
10026SOL    HW131294   4.152   1.983   4.710  2.0210  0.9963 -1.4368
10026SOL    HW231295   4.279   1.930   4.773  0.9165 -1.0956 -0.9177
10027SOL     OW31296   4.798   1.408   4.920 -0.8121  0.1866 -0.0131
10027SOL    HW131297   4.789   1.439   5.011 -0.4499 -0.2353  0.1710
10027SOL    HW231298   4.849   1.328   4.927  2.7528  2.1345 -0.8654
10028SOL     OW31299   4.004   0.123   5.112 -0.4360 -0.8280 -0.3230
10028SOL    HW131300   4.068   0.133   5.043 -0.6049  1.7016 -0.1806
10028SOL    HW231301   4.055   0.121   5.193 -0.3324 -2.5471 -0.3880
10029SOL     OW31302   5.442   0.818   4.246 -0.2866  0.7035 -0.1634
10029SOL    HW131303   5.501   0.832   4.320 -0.7518  1.1635  0.1290
10029SOL    HW231304   5.486   0.752   4.192 -0.0839  0.1288  0.6781
10030SOL     OW31305   3.644   1.332   4.378 -0.5046 -0.3402  0.2579
10030SOL    HW131306   3.658   1.327   4.473  0.0628  0.6862  0.2466
10030SOL    HW231307   3.558   1.373   4.368 -0.3238  0.0646  0.3371
10031SOL     OW31308   5.071   0.882   5.764 -0.1974  0.2774 -0.3030
10031SOL    HW131309   5.072   0.974   5.794 -2.6948  0.7768 -1.4893
10031SOL    HW231310   5.036   0.834   5.839  2.5077 -0.0088  0.8638
10032SOL     OW31311   4.446   1.151   4.428  0.4177 -0.5357 -0.4984
10032SOL    HW131312   4.509   1.197   4.484 -0.0458 -0.0642 -0.3615
10032SOL    HW231313   4.377   1.215   4.412 -0.8112 -1.5165  0.6399
10033SOL     OW31314   4.166   1.962   5.242  0.2941 -0.2955  0.2357
10033SOL    HW131315   4.207   2.049   5.247  1.5625 -0.7851 -0.9313
10033SOL    HW231316   4.164   1.932   5.333  0.9381  0.4780  0.5223
10034SOL     OW31317   4.284   0.931   4.402 -0.0552 -0.2003  0.7825
10034SOL    HW131318   4.198   0.970   4.416 -0.6265 -1.2091  0.1785
10034SOL    HW231319   4.345   1.005   4.405 -0.8637  0.4429  1.8516
10035SOL     OW31320   5.763   0.250   5.536  0.7763  0.4922 -0.2198
10035SOL    HW131321   5.783   0.259   5.630  1.0505 -2.2961  0.0574
10035SOL    HW231322   5.708   0.172   5.531  0.3828  0.8597 -2.3700
10036SOL     OW31323   3.817   0.696   4.600  0.4418  0.1367  0.4754
10036SOL    HW131324   3.891   0.641   4.574  0.6031 -0.3562  1.8539
10036SOL    HW231325   3.752   0.633   4.633 -0.0669  0.6600  0.4835
10037SOL     OW31326   5.288   2.006   4.129  0.0798  0.3681  0.6641
10037SOL    HW131327   5.275   1.985   4.221 -2.5855  0.5345  0.4090
10037SOL    HW231328   5.263   2.099   4.122 -1.0851  0.0034 -0.4072
10038SOL     OW31329   3.830   1.402   3.734 -0.1026  0.1653 -0.7244
10038SOL    HW131330   3.737   1.382   3.745 -0.2039  1.0880  0.3622
10038SOL    HW231331   3.833   1.459   3.657 -0.2748 -0.8521 -1.4959
10039SOL     OW31332   5.205   0.822   4.969 -0.1450 -0.3904  0.2070
10039SOL    HW131333   5.127   0.877   4.971 -1.0876 -1.6879  1.0158
10039SOL    HW231334   5.206   0.779   5.055  1.0586 -0.9559 -0.0620
10040SOL     OW31335   5.235   0.963   4.354  0.0582 -0.2436  0.0162
10040SOL    HW131336   5.312   0.935   4.305 -0.2555 -0.5975 -0.2835
10040SOL    HW231337   5.224   1.056   4.333 -0.0844 -0.3980 -0.6044
10041SOL     OW31338   3.831   0.810   5.106 -0.3670  0.0590  0.1412
10041SOL    HW131339   3.763   0.795   5.039  1.1149 -0.2255 -1.3691
10041SOL    HW231340   3.782   0.828   5.186 -2.2457  1.9514 -1.3245
10042SOL     OW31341   4.556   1.216   4.814 -0.0214  0.4094  0.4782
10042SOL    HW131342   4.566   1.261   4.898 -1.8305 -0.6619  1.3152
10042SOL    HW231343   4.463   1.221   4.794 -0.1167 -1.9242  0.0523
10043SOL     OW31344   4.941   1.121   5.397  0.7415  0.5060  0.2196
10043SOL    HW131345   5.026   1.082   5.412  1.5192  1.3127 -1.7109
10043SOL    HW231346   4.880   1.048   5.396  1.3963 -0.0882  1.5342
10044SOL     OW31347   4.188   0.103   4.067 -0.3631  0.2610  0.7282
10044SOL    HW131348   4.255   0.161   4.102 -0.3134  0.3366  0.5127
10044SOL    HW231349   4.117   0.162   4.041 -0.8576  0.1122  1.7115
10045SOL     OW31350   3.617   0.779   4.952 -0.2224  0.0533  0.5537
10045SOL    HW131351   3.608   0.869   4.921  0.5739 -0.5979 -1.7704
10045SOL    HW231352   3.599   0.725   4.875  1.4863 -1.7137  1.2972
10046SOL     OW31353   5.173   1.034   3.981  0.5916  0.2436  0.7603
10046SOL    HW131354   5.167   0.992   4.067  0.7929 -1.9385 -0.2318
10046SOL    HW231355   5.107   0.989   3.928  1.6319  0.3753 -0.6854
10047SOL     OW31356   4.730   1.830   5.414  0.4328  0.3908  0.3902
10047SOL    HW131357   4.804   1.769   5.419  0.0995  0.0868  2.5457
10047SOL    HW231358   4.761   1.899   5.356  1.2513 -1.2171 -1.2175
10048SOL     OW31359   3.548   0.099   5.811 -0.6094 -0.0554 -0.0121
10048SOL    HW131360   3.549   0.077   5.718  0.4134 -0.3175  0.0490
10048SOL    HW231361   3.464   0.067   5.842 -0.2211 -1.6191 -0.4660
10049SOL     OW31362   5.204   1.472   4.994  0.3947 -0.0506  0.0319
10049SOL    HW131363   5.261   1.536   5.038  1.9456 -1.8465  0.7966
10049SOL    HW231364   5.261   1.430   4.930 -0.4648 -0.9962 -0.1277
10050SOL     OW31365   5.392   1.281   4.577 -0.0017  0.5633  0.4173
10050SOL    HW131366   5.449   1.207   4.557 -1.3343 -0.4058  0.0703
10050SOL    HW231367   5.353   1.305   4.493 -1.2370  0.2231  0.8681
10051SOL     OW31368   4.550   0.908   4.058  0.0784 -0.6294  0.1773
10051SOL    HW131369   4.504   0.978   4.104  0.2591 -0.6313  0.3630
10051SOL    HW231370   4.642   0.933   4.062  0.2557 -1.3660  1.1140
10052SOL     OW31371   4.899   8.674   4.946  0.4713 -0.1330 -0.3234
10052SOL    HW131372   4.907   8.578   4.943  0.5334 -0.2424  1.7291
10052SOL    HW231373   4.849   8.697   4.868 -4.2261 -2.3913  1.6265
10053SOL     OW31374   5.151   1.223   4.343 -0.0896 -0.0026 -0.1337
10053SOL    HW131375   5.206   1.301   4.349  0.8596 -0.6356 -0.3574
10053SOL    HW231376   5.075   1.251   4.292  0.9230  0.4183 -1.4595
10054SOL     OW31377   4.283   0.608   5.290 -0.3688  0.0163 -0.1702
10054SOL    HW131378   4.276   0.640   5.200 -0.0099  1.6272  0.3586
10054SOL    HW231379   4.202   0.636   5.331  0.1291  0.6294  0.4101
10055SOL     OW31380   5.083   0.011   5.394  0.2730 -0.3091  0.0523
10055SOL    HW131381   5.167  -0.035   5.396  0.3181 -0.4070 -1.8185
10055SOL    HW231382   5.102   0.100   5.423  0.7057 -0.7313  1.1061
10056SOL     OW31383   4.367   0.736   5.523 -0.5767  0.0322 -0.2836
10056SOL    HW131384   4.356   0.831   5.520 -2.3732 -0.1646 -1.2645
10056SOL    HW231385   4.376   0.710   5.432 -2.0027 -0.8951 -0.1996
10057SOL     OW31386   4.671   8.719   4.772 -0.0663 -0.6010 -0.1729
10057SOL    HW131387   4.662   8.805   4.813 -0.7884 -1.1226  0.8147
10057SOL    HW231388   4.581   8.691   4.756  0.1325 -1.4655  0.1601
10058SOL     OW31389   4.620   0.228   3.968  0.3454 -0.2258  0.0343
10058SOL    HW131390   4.612   0.241   4.063 -0.0488 -1.3092  0.1609
10058SOL    HW231391   4.532   0.201   3.940  0.9543 -2.0448 -0.2686
10059SOL     OW31392   4.133   0.862   4.723  0.1461  0.0738  0.3710
10059SOL    HW131393   4.130   0.843   4.817 -0.0147  0.0547  0.3624
10059SOL    HW231394   4.226   0.865   4.703  0.2032  1.0389  0.7242
10060SOL     OW31395   3.800   1.728   5.122  0.2409  0.3890 -0.4337
10060SOL    HW131396   3.713   1.703   5.093  0.3347 -0.5954  0.0829
10060SOL    HW231397   3.787   1.757   5.213  0.3402  0.9922 -0.6054
10061SOL     OW31398   4.391   0.174   3.859  0.7185 -0.0554 -0.4815
10061SOL    HW131399   4.318   0.228   3.890  0.4268 -1.4410  1.3980
10061SOL    HW231400   4.355   0.126   3.784  0.4663  1.0117 -1.0773
10062SOL     OW31401   5.364   0.853   5.757  0.2242  0.2672  0.8752
10062SOL    HW131402   5.348   0.860   5.852  0.7432  0.5675  0.9423
10062SOL    HW231403   5.295   0.793   5.726  0.1550  0.0299  1.4684
10063SOL     OW31404   5.182   0.723   4.468  0.5452  0.3822  0.1054
10063SOL    HW131405   5.169   0.739   4.562 -1.3445 -1.2988  0.2073
10063SOL    HW231406   5.175   0.809   4.428 -1.0986  0.8753  1.3124
10064SOL     OW31407   4.348   8.490   3.976 -0.1513 -0.7927  0.0608
10064SOL    HW131408   4.328   8.512   3.885  0.4241  0.3693  0.1978
10064SOL    HW231409   4.344   8.395   3.979  0.5778 -0.8890 -1.3620
10065SOL     OW31410   4.912   1.523   4.688 -0.2211 -0.6809 -0.2545
10065SOL    HW131411   4.856   1.512   4.765 -2.0851 -0.4732 -1.5168
10065SOL    HW231412   4.942   1.434   4.668 -0.2451 -0.8249  0.3089
10066SOL     OW31413   4.180   2.228   4.728  0.0843 -0.0112  0.3118
10066SOL    HW131414   4.231   2.226   4.648  0.3229 -0.0937  0.4654
10066SOL    HW231415   4.182   2.320   4.756 -0.0919  0.0385  0.1664
10067SOL     OW31416   5.514   1.308   5.084 -0.0712  0.7334  0.0188
10067SOL    HW131417   5.604   1.339   5.073 -0.0012  0.3676 -0.5095
10067SOL    HW231418   5.476   1.315   4.996 -0.2231 -0.1360  0.0063
10068SOL     OW31419   4.979   1.388   5.869 -0.0196 -0.0778 -0.1278
10068SOL    HW131420   4.932   1.470   5.858  1.6552  0.7335 -1.9188
10068SOL    HW231421   4.953   1.334   5.794  0.8407 -0.1218 -0.4145
10069SOL     OW31422   3.821   0.833   4.334  0.5737 -0.0944  0.2599
10069SOL    HW131423   3.840   0.742   4.353 -0.4876 -0.5746 -0.8141
10069SOL    HW231424   3.863   0.882   4.404  1.5896 -1.3683  0.5670
10070SOL     OW31425   5.649   1.128   4.772 -0.1856 -0.0491  0.6507
10070SOL    HW131426   5.691   1.075   4.840  0.3606 -1.1547 -0.5128
10070SOL    HW231427   5.555   1.110   4.783  0.0256 -2.0410 -0.2877
10071SOL     OW31428   3.977   1.178   5.206 -0.1491 -0.0812 -0.6491
10071SOL    HW131429   4.061   1.217   5.184 -0.3515  1.0649  0.4700
10071SOL    HW231430   3.998   1.104   5.263  0.1200 -0.1933 -0.8937
10072SOL     OW31431   4.757   1.758   4.089 -0.2912  0.0623  0.0626
10072SOL    HW131432   4.815   1.802   4.152  0.0087 -1.0264  0.5608
10072SOL    HW231433   4.777   1.801   4.006  1.7234 -0.6860  0.0910
10073SOL     OW31434   3.774   8.842   5.355 -0.8143 -0.4806 -0.6756
10073SOL    HW131435   3.818   8.926   5.366 -0.8983 -0.6570  1.4052
10073SOL    HW231436   3.776   8.802   5.442 -0.4409 -2.8235 -1.6862
10074SOL     OW31437   5.547   1.076   4.466  0.2127  0.1256 -0.2984
10074SOL    HW131438   5.510   0.993   4.497  1.9820 -0.1567  1.1962
10074SOL    HW231439   5.607   1.051   4.395  0.7804  0.1072  0.1824
10075SOL     OW31440   4.103   1.777   4.323  0.1511  0.2454 -0.2220
10075SOL    HW131441   4.023   1.765   4.271  0.7622 -2.1847 -0.6940
10075SOL    HW231442   4.078   1.843   4.388 -1.6528  0.9309 -1.4968
10076SOL     OW31443   4.717   8.820   3.909  0.1091  0.2876 -0.1343
10076SOL    HW131444   4.698   8.908   3.941 -0.8853  0.1733 -0.3815
10076SOL    HW231445   4.651   8.765   3.952  0.1406 -0.1896 -0.6968
10077SOL     OW31446   4.038   1.973   4.999  0.1749 -0.2880  0.6335
10077SOL    HW131447   4.061   1.893   4.952  1.1458  1.0505 -1.3247
10077SOL    HW231448   4.088   1.968   5.080 -0.2779 -1.9313  0.8527
10078SOL     OW31449   4.725   1.713   4.927  0.2461 -0.0047 -0.2927
10078SOL    HW131450   4.818   1.728   4.940  0.1222  0.2491  0.3563
10078SOL    HW231451   4.716   1.618   4.925  0.4739 -0.0370  0.0428
10079SOL     OW31452   4.298   0.464   4.427  0.3260  0.1562 -0.3275
10079SOL    HW131453   4.252   0.498   4.504  0.7803  0.0623 -0.0109
10079SOL    HW231454   4.304   0.539   4.368 -0.3453  0.1351 -0.4259
10080SOL     OW31455   5.215   0.395   5.205 -0.1646 -0.3382 -0.6568
10080SOL    HW131456   5.249   0.413   5.293  1.4906 -0.0294 -1.3232
10080SOL    HW231457   5.232   0.302   5.192  0.4250 -0.1893 -0.9819
10081SOL     OW31458   4.291   0.163   3.419  0.2759 -0.1882 -0.4424
10081SOL    HW131459   4.268   0.107   3.494  3.7983 -0.8145  0.3407
10081SOL    HW231460   4.290   0.252   3.454  0.9915 -0.3960  0.1389
10082SOL     OW31461   4.154   8.842   5.735 -0.3952 -0.3594  0.0983
10082SOL    HW131462   4.227   8.902   5.725  0.6358 -1.5184  0.3383
10082SOL    HW231463   4.081   8.897   5.761  0.1250  0.9618 -1.1002
10083SOL     OW31464   4.544   1.147   5.153  0.7221 -0.4075  0.0470
10083SOL    HW131465   4.493   1.113   5.079 -0.7496 -1.0960  1.3336
10083SOL    HW231466   4.625   1.097   5.150  0.9605  0.0111 -1.4626
10084SOL     OW31467   4.863   0.285   5.355 -0.2720 -0.2026 -0.1732
10084SOL    HW131468   4.831   0.264   5.443  1.8022 -0.1996  0.6274
10084SOL    HW231469   4.839   0.209   5.302  0.7669 -1.4129  1.0311
10085SOL     OW31470   5.027   1.042   4.972  0.0604 -0.5878 -0.4177
10085SOL    HW131471   4.946   1.005   4.938  0.6672 -1.5699 -0.8300
10085SOL    HW231472   5.045   1.116   4.913 -0.7429 -0.0952 -0.0658
10086SOL     OW31473   4.462   0.291   4.997 -0.7356  0.4634  0.6013
10086SOL    HW131474   4.511   0.265   5.075 -0.8382 -0.0973  0.4768
10086SOL    HW231475   4.490   0.382   4.981  0.8439 -0.0788  0.0889
10087SOL     OW31476   4.043   8.400   4.014 -0.0277  0.6888  0.0650
10087SOL    HW131477   4.059   8.310   4.041 -0.1105  0.7474  0.3106
10087SOL    HW231478   4.114   8.450   4.055  0.8517  0.5478 -1.2208
10088SOL     OW31479   5.417   1.100   3.941  0.0306  0.0382  0.3966
10088SOL    HW131480   5.329   1.065   3.958  0.0460  0.4970  1.4885
10088SOL    HW231481   5.475   1.047   3.996  0.3294  0.3240  0.3596
10089SOL     OW31482   3.932   8.741   4.156 -0.0975  0.4747 -0.8273
10089SOL    HW131483   4.023   8.711   4.158  0.4201  2.0202  0.1847
10089SOL    HW231484   3.926   8.794   4.076  0.0958  0.9513 -0.5293
10090SOL     OW31485   4.197   8.682   4.147 -0.1827  0.0662 -0.3920
10090SOL    HW131486   4.279   8.649   4.111 -0.3239 -0.6225 -0.0884
10090SOL    HW231487   4.198   8.776   4.126  2.0149  0.7048  2.0563
10091SOL     OW31488   4.933   0.459   5.120 -0.2244 -0.4332 -0.4033
10091SOL    HW131489   5.025   0.480   5.104 -0.3459 -0.8795 -1.7978
10091SOL    HW231490   4.936   0.383   5.179  0.2575  0.3965  0.6921
10092SOL     OW31491   5.030   1.758   4.694 -0.5901  0.4158  0.2842
10092SOL    HW131492   4.979   1.678   4.704 -0.8161  0.4640 -0.3768
10092SOL    HW231493   5.120   1.733   4.714 -0.6244 -0.0627 -0.1336
10093SOL     OW31494   4.823   0.599   4.511 -0.0390 -0.1780 -0.0098
10093SOL    HW131495   4.903   0.561   4.475 -1.2150 -1.2652 -1.6053
10093SOL    HW231496   4.796   0.665   4.447  0.8155  1.9617  1.6925
10094SOL     OW31497   4.842   1.913   4.337 -0.2256  0.0453 -0.2712
10094SOL    HW131498   4.927   1.955   4.323 -0.1791 -0.3496 -1.2699
10094SOL    HW231499   4.786   1.982   4.374  0.6135  0.2173  0.7184
10095SOL     OW31500   4.593   0.294   3.661  0.0577 -0.0750  0.2105
10095SOL    HW131501   4.584   0.254   3.747  0.3519  1.1358  0.8180
10095SOL    HW231502   4.543   0.375   3.666  1.5595  0.9156 -0.1545
10096SOL     OW31503   3.808   0.466   4.980  0.4238 -0.0153  0.0455
10096SOL    HW131504   3.847   0.418   5.053 -0.5488  0.9566  1.2673
10096SOL    HW231505   3.717   0.437   4.978  0.5026 -0.2290 -0.9773
10097SOL     OW31506   3.815   0.284   5.211  0.3743 -0.0558 -0.4916
10097SOL    HW131507   3.882   0.229   5.170  0.6268 -0.6719  0.6981
10097SOL    HW231508   3.733   0.239   5.194  0.2677  0.5636 -1.7272
10098SOL     OW31509   4.741   0.004   4.369  0.1083  0.3286  0.2362
10098SOL    HW131510   4.646   0.010   4.380  0.1740  0.4268  0.7469
10098SOL    HW231511   4.757  -0.089   4.354  0.1741 -0.0742  2.4966
10099SOL     OW31512   4.516   8.688   4.040  0.1745 -0.2368 -0.8544
10099SOL    HW131513   4.589   8.628   4.055 -0.5913 -1.0960 -0.4713
10099SOL    HW231514   4.443   8.631   4.019 -0.5762  0.5698 -0.4675
10100SOL     OW31515   5.414   0.976   4.822  0.0743  0.1390  0.8054
10100SOL    HW131516   5.409   0.940   4.733 -1.1237 -0.6036  1.1531
10100SOL    HW231517   5.360   0.917   4.875 -0.0335  1.1356  1.8417
10101SOL     OW31518   5.190   0.663   4.728  0.3016 -0.0838  0.3949
10101SOL    HW131519   5.100   0.631   4.736 -0.0373  0.4632 -1.0577
10101SOL    HW231520   5.208   0.704   4.813 -0.7541 -0.3510  0.7630
10102SOL     OW31521   5.594   0.665   4.699  0.5276  0.3479  0.0960
10102SOL    HW131522   5.672   0.672   4.644  0.2082  1.1616 -0.2618
10102SOL    HW231523   5.596   0.574   4.730  1.8754  0.4782  0.4867
10103SOL     OW31524   4.105   1.239   3.722  0.1378 -0.3390 -0.6513
10103SOL    HW131525   4.058   1.183   3.783  0.2041  1.2047  0.8696
10103SOL    HW231526   4.079   1.207   3.635 -1.3630 -1.4248  0.1583
10104SOL     OW31527   5.435   0.847   4.576  0.0439  0.1624 -0.1782
10104SOL    HW131528   5.494   0.782   4.614 -1.0763 -1.1193 -0.5864
10104SOL    HW231529   5.355   0.799   4.555 -0.7183  1.6099 -0.7584
10105SOL     OW31530   5.414   0.418   3.894 -0.0459  0.2352  0.3029
10105SOL    HW131531   5.410   0.422   3.798 -0.3999  0.1397  0.3102
10105SOL    HW231532   5.415   0.325   3.914 -0.1885  0.2545  0.3988
10106SOL     OW31533   4.264   0.033   3.674 -0.1662  0.0868  0.2638
10106SOL    HW131534   4.331  -0.035   3.666 -0.1875  0.2601 -2.3026
10106SOL    HW231535   4.185  -0.013   3.702  0.2306 -0.6836  0.1380
10107SOL     OW31536   5.301   1.387   5.650 -0.0148  0.1361  0.2499
10107SOL    HW131537   5.356   1.309   5.648  0.0170  0.1695 -0.2042
10107SOL    HW231538   5.347   1.451   5.596  0.0579  0.5385  0.7758
10108SOL     OW31539   4.657   0.868   4.817 -0.2511 -0.2964 -0.7997
10108SOL    HW131540   4.658   0.946   4.872 -0.0372  0.5176 -1.9269
10108SOL    HW231541   4.713   0.890   4.742 -1.3736 -0.9612 -1.8900
10109SOL     OW31542   5.017   1.706   5.769 -0.3654  0.0335 -0.0988
10109SOL    HW131543   5.100   1.661   5.783 -0.0398  0.3905 -0.8421
10109SOL    HW231544   5.026   1.748   5.684 -1.0639  0.6253  0.1051
10110SOL     OW31545   5.131   1.340   5.207  0.2429  0.2411 -0.8014
10110SOL    HW131546   5.038   1.353   5.225 -0.1007 -1.0015 -1.5451
10110SOL    HW231547   5.146   1.383   5.123  0.5164  1.0491 -0.3497
10111SOL     OW31548   5.480   0.731   4.943  0.0997  0.1600 -0.0244
10111SOL    HW131549   5.401   0.697   4.901  0.0968  1.7108 -1.3439
10111SOL    HW231550   5.543   0.738   4.872 -0.3227  4.1963 -0.1882
10112SOL     OW31551   4.610   0.061   4.930  0.2285 -0.7890 -0.3067
10112SOL    HW131552   4.553   0.137   4.925  0.6489 -0.5083 -0.9482
10112SOL    HW231553   4.588   0.020   5.014 -0.3150 -0.2173 -0.1621
10113SOL     OW31554   4.669   0.716   5.425 -0.1280 -0.2207 -0.0165
10113SOL    HW131555   4.762   0.703   5.445 -0.4580  1.6940  3.4601
10113SOL    HW231556   4.624   0.652   5.480 -0.9479  1.0140  0.7810
10114SOL     OW31557   4.742   0.839   4.319 -0.0112 -0.2046  0.1643
10114SOL    HW131558   4.730   0.887   4.401 -1.3423  0.1146 -0.1951
10114SOL    HW231559   4.774   0.905   4.257  0.0926 -0.2319  0.1895
10115SOL     OW31560   4.326   0.727   5.028  0.4206 -0.5185  0.2423
10115SOL    HW131561   4.402   0.740   5.085  1.5632  0.5008 -1.4234
10115SOL    HW231562   4.352   0.655   4.970  0.2917  0.0976 -0.5964
10116SOL     OW31563   4.813   0.063   5.213 -0.0306 -0.6758 -0.2983
10116SOL    HW131564   4.803   0.034   5.122 -0.6440 -0.3708 -0.3354
10116SOL    HW231565   4.872  -0.002   5.252 -1.2556 -1.9211 -0.4100
10117SOL     OW31566   4.230   1.374   4.952 -0.1772 -0.2034  0.2788
10117SOL    HW131567   4.269   1.388   4.866  0.4409 -1.5443  0.3203
10117SOL    HW231568   4.137   1.391   4.939  0.2452  2.2758  0.0075
10118SOL     OW31569   4.014   1.025   4.561 -1.0055 -0.1303  0.1759
10118SOL    HW131570   4.063   0.964   4.618 -0.5264  0.7375  0.7110
10118SOL    HW231571   3.922   1.004   4.578 -0.8485 -1.5152 -0.5461
10119SOL     OW31572   4.409   0.079   4.558 -0.8635  0.1582 -0.3200
10119SOL    HW131573   4.450   0.165   4.565  3.2987 -1.6964  1.4571
10119SOL    HW231574   4.411   0.059   4.465 -1.2038  1.6067 -0.6665
10120SOL     OW31575   4.832   1.304   4.005 -0.1931  0.1433  0.7686
10120SOL    HW131576   4.893   1.293   3.932  1.2822 -0.0991  1.9701
10120SOL    HW231577   4.823   1.399   4.015 -0.3599  0.1767  0.3050
10121SOL     OW31578   5.200   1.197   4.763  0.3966  0.4475 -0.5510
10121SOL    HW131579   5.256   1.234   4.695  2.4840 -1.3433  0.0668
10121SOL    HW231580   5.237   1.110   4.780  0.7390  1.1956  3.6532
10122SOL     OW31581   5.599   0.517   4.242  0.3160 -1.0277  0.1947
10122SOL    HW131582   5.515   0.474   4.257  0.7689 -1.5564  1.3560
10122SOL    HW231583   5.589   0.562   4.158 -1.5387 -0.0678  0.8858
10123SOL     OW31584   4.136   1.418   4.692 -0.0183 -0.1640  0.3197
10123SOL    HW131585   4.130   1.514   4.687 -1.7319 -0.2300  0.4217
10123SOL    HW231586   4.197   1.394   4.622  0.1754  0.9760  0.0720
10124SOL     OW31587   4.167   0.130   5.341  0.1493 -0.2333  0.2597
10124SOL    HW131588   4.262   0.146   5.344 -0.0785  1.0379  1.2839
10124SOL    HW231589   4.159   0.037   5.362  1.1863 -0.4421 -0.1719
10125SOL     OW31590   5.189   1.195   5.910 -0.1100  0.2097 -0.0819
10125SOL    HW131591   5.117   1.258   5.902  1.0527  1.6501  0.1640
10125SOL    HW231592   5.246   1.216   5.835  1.3203  0.8736  1.1397
10126SOL     OW31593   4.217   0.147   4.976  0.7212  0.4511 -0.1315
10126SOL    HW131594   4.244   0.059   4.949  0.0741 -0.4973  2.1132
10126SOL    HW231595   4.299   0.197   4.978  1.8425 -1.2606  2.5854
10127SOL     OW31596   4.086   8.399   5.211  0.1603  0.4172  0.1061
10127SOL    HW131597   4.004   8.416   5.257 -0.2996  1.3606 -1.0012
10127SOL    HW231598   4.116   8.315   5.245 -1.4219 -0.0993  0.3284
10128SOL     OW31599   4.422   0.537   4.848  0.2037  0.3344 -0.3604
10128SOL    HW131600   4.491   0.491   4.800 -0.5704 -0.7947 -0.4362
10128SOL    HW231601   4.372   0.583   4.781  0.9609  1.3037 -0.2879
10129SOL     OW31602   4.858   0.749   5.163 -0.4222 -0.3380 -0.1028
10129SOL    HW131603   4.875   0.756   5.257  2.9440  0.3492 -0.6531
10129SOL    HW231604   4.902   0.668   5.137 -0.1322  0.1855 -1.2898
10130SOL     OW31605   5.333   0.267   4.258  0.1141 -0.5762  0.4674
10130SOL    HW131606   5.303   0.358   4.264  2.1828  0.1188  0.9843
10130SOL    HW231607   5.357   0.256   4.166 -0.8368 -0.8823  0.2345
10131SOL     OW31608   3.587   8.701   4.945  0.2874  0.1622  0.1958
10131SOL    HW131609   3.530   8.743   4.881 -1.4535  0.6143  1.9433
10131SOL    HW231610   3.571   8.607   4.933  0.2767  0.2285 -0.3011
10132SOL     OW31611   3.841   1.364   5.515 -0.0062  0.0339  0.0987
10132SOL    HW131612   3.926   1.389   5.480  0.8505 -1.6859  0.8052
10132SOL    HW231613   3.859   1.338   5.605 -1.7251  1.9370  1.0692
10133SOL     OW31614   4.007   0.223   4.760  0.5911  1.1312  0.4419
10133SOL    HW131615   4.041   0.204   4.847 -0.2391  0.6562  0.6762
10133SOL    HW231616   4.056   0.164   4.702  0.9802  1.2833  0.6133
10134SOL     OW31617   5.208   1.471   6.108 -0.3081  0.7079  0.6273
10134SOL    HW131618   5.194   1.483   6.014  0.4810 -2.9588 -0.0930
10134SOL    HW231619   5.123   1.446   6.142  0.1398 -2.0313 -0.0128
10135SOL     OW31620   3.780   8.112   4.173  0.4029  0.1368 -0.0842
10135SOL    HW131621   3.702   8.146   4.218 -0.4092  0.8727 -1.9334
10135SOL    HW231622   3.756   8.115   4.080  2.1934 -0.8339 -0.6069
10136SOL     OW31623   5.568   0.248   3.620 -0.2666 -0.3033 -0.0589
10136SOL    HW131624   5.640   0.241   3.557 -1.5429 -0.4406 -1.5695
10136SOL    HW231625   5.546   0.157   3.641  0.5885 -0.2599  1.1655
10137SOL     OW31626   4.686   0.496   4.948  0.3041  0.0351  0.1728
10137SOL    HW131627   4.772   0.481   4.987  0.6723  0.1406 -0.5705
10137SOL    HW231628   4.646   0.565   5.002  0.4366 -0.4375  0.8813
10138SOL     OW31629   4.909   1.629   5.359  0.5324  0.1465  0.0946
10138SOL    HW131630   5.002   1.629   5.379  0.4193 -0.8830  0.6408
10138SOL    HW231631   4.888   1.539   5.337  0.6870  1.0605 -5.0291
10139SOL     OW31632   5.286   1.573   5.841 -0.6944 -0.2766  0.5167
10139SOL    HW131633   5.342   1.650   5.825 -0.2460 -0.1375  2.5343
10139SOL    HW231634   5.313   1.510   5.774  0.9181  0.3179  0.5549
10140SOL     OW31635   4.337   1.037   5.385  0.4976  0.8385  0.1192
10140SOL    HW131636   4.396   1.020   5.311 -0.4846 -0.7088 -0.3580
10140SOL    HW231637   4.272   1.097   5.349 -0.5184 -0.6486 -0.5937
10141SOL     OW31638   5.347   0.135   3.925 -0.4767 -0.0953 -0.4471
10141SOL    HW131639   5.316   0.123   3.835 -0.1591  0.5218 -0.6442
10141SOL    HW231640   5.319   0.056   3.971 -2.2092  0.3506 -0.6594
10142SOL     OW31641   5.226   0.733   4.019 -0.3325  0.5247  0.1439
10142SOL    HW131642   5.308   0.736   3.970 -0.8853 -0.5832 -0.9089
10142SOL    HW231643   5.233   0.653   4.072  0.1287  1.5480  1.6724
10143SOL     OW31644   4.964   1.268   4.585 -0.5128 -0.3038 -0.2645
10143SOL    HW131645   4.939   1.273   4.493 -0.3263  0.2743 -0.2912
10143SOL    HW231646   5.038   1.207   4.587 -2.0686 -2.2677 -0.1414
10144SOL     OW31647   4.208   0.595   4.648 -0.6434  0.7687  0.2676
10144SOL    HW131648   4.205   0.690   4.638 -1.6339  0.9650  2.1026
10144SOL    HW231649   4.117   0.570   4.667 -0.6730 -0.7525 -1.5050
10145SOL     OW31650   4.048   0.263   4.394 -0.0906  0.2630  0.7278
10145SOL    HW131651   4.080   0.199   4.457  1.8828 -0.9740 -1.3701
10145SOL    HW231652   4.122   0.321   4.378 -0.6113  0.6920 -0.2655
10146SOL     OW31653   4.571   0.486   5.551 -0.8234  0.0516 -0.6011
10146SOL    HW131654   4.523   0.432   5.488 -0.9674 -0.4881 -0.0416
10146SOL    HW231655   4.516   0.485   5.629  0.1632 -0.7055  0.1030
10147SOL     OW31656   4.547   0.155   5.232 -0.1189 -0.2647  0.0395
10147SOL    HW131657   4.510   0.084   5.284 -0.6260 -0.0691 -0.0431
10147SOL    HW231658   4.639   0.132   5.220  0.2411  0.1263  1.7839
10148SOL     OW31659   3.882   1.077   3.839 -0.4215 -0.5490 -0.3057
10148SOL    HW131660   3.872   1.149   3.776 -1.4819  0.4496  0.9606
10148SOL    HW231661   3.850   1.000   3.792 -0.9335  0.1245 -1.0996
10149SOL     OW31662   3.453   1.819   4.451 -0.1406  0.2055 -0.0380
10149SOL    HW131663   3.475   1.903   4.493 -0.8966  0.9310 -1.0441
10149SOL    HW231664   3.488   1.753   4.511  1.7938  1.2369  0.0645
10150SOL     OW31665   4.386   1.721   4.632 -0.6335 -0.0309 -0.0982
10150SOL    HW131666   4.323   1.792   4.640  0.8550  1.2401  0.7879
10150SOL    HW231667   4.440   1.744   4.557 -0.4786 -0.5151 -0.1443
10151SOL     OW31668   4.515   0.785   5.203  0.1065 -0.0042  0.2437
10151SOL    HW131669   4.572   0.754   5.273  1.5653  0.1904 -0.8050
10151SOL    HW231670   4.560   0.862   5.168 -0.5436 -0.1450 -0.9525
10152SOL     OW31671   3.742   0.207   4.802 -0.5964  0.6003 -0.3257
10152SOL    HW131672   3.837   0.206   4.808 -0.5886 -2.0459  0.2765
10152SOL    HW231673   3.723   0.274   4.736  1.6936  0.7089 -0.9602
10153SOL     OW31674   4.018   0.616   5.173  0.1091  0.0495 -0.2417
10153SOL    HW131675   4.056   0.570   5.098  1.2698  1.7895 -0.7716
10153SOL    HW231676   3.953   0.674   5.135  0.7169  0.9519  0.0767
10154SOL     OW31677   4.949   0.725   5.457 -0.2133  0.3405  0.0451
10154SOL    HW131678   5.022   0.787   5.452  0.0492  0.3312  2.5954
10154SOL    HW231679   4.982   0.652   5.508 -1.3443 -0.7308 -0.6911
10155SOL     OW31680   4.649   0.223   4.249  0.3425  0.3194  0.1132
10155SOL    HW131681   4.694   0.159   4.305 -1.6894 -0.4211  0.9858
10155SOL    HW231682   4.611   0.285   4.310  1.2782  1.7418 -0.6848
10156SOL     OW31683   5.190   0.723   5.219  0.3506  0.1954 -0.0054
10156SOL    HW131684   5.155   0.671   5.292  0.5035  1.0007  0.6602
10156SOL    HW231685   5.220   0.804   5.260  1.9623 -0.0127 -0.7332
10157SOL     OW31686   3.885   1.687   5.721 -0.0748 -0.6685  0.2307
10157SOL    HW131687   3.900   1.592   5.729  0.5553 -0.6084 -0.1692
10157SOL    HW231688   3.817   1.705   5.786 -0.7478 -1.5149 -0.2021
10158SOL     OW31689   4.528   8.712   5.137  0.0269 -0.5024 -0.2033
10158SOL    HW131690   4.483   8.682   5.215  0.8734  0.9373  0.8885
10158SOL    HW231691   4.612   8.667   5.138 -0.3888 -1.3244 -0.9099
10159SOL     OW31692   4.854   1.340   5.304  0.1705 -0.1374  0.1101
10159SOL    HW131693   4.904   1.260   5.322 -0.9639 -1.0033 -0.4001
10159SOL    HW231694   4.764   1.317   5.328 -0.1212  1.1086  0.2549
10160SOL     OW31695   4.362   0.281   4.182  0.4451 -0.2492  0.0526
10160SOL    HW131696   4.368   0.359   4.126  0.3824 -0.6159 -0.4793
10160SOL    HW231697   4.390   0.311   4.268  1.0712  0.2002 -0.2991
10161SOL     OW31698   4.015   1.117   4.928 -0.3751 -0.5036 -0.0212
10161SOL    HW131699   4.012   1.147   5.018 -1.2978  1.9608 -0.7965
10161SOL    HW231700   4.024   1.022   4.935 -0.5575 -0.4050  2.6275
10162SOL     OW31701   4.749   0.997   5.122 -0.0339 -0.3000  0.0895
10162SOL    HW131702   4.762   0.903   5.132 -0.0776 -0.2505  0.6609
10162SOL    HW231703   4.838   1.034   5.120  0.0372 -0.4752 -1.5843
10163SOL     OW31704   5.542   0.629   4.008  0.4078  0.4761  0.0393
10163SOL    HW131705   5.490   0.561   3.966  1.7536 -0.3749 -0.3143
10163SOL    HW231706   5.552   0.697   3.941  0.1443  0.4434 -0.0356
10164SOL     OW31707   4.988   1.702   4.997 -0.4780 -0.3911  0.2888
10164SOL    HW131708   5.041   1.754   5.057 -1.2661  1.5980 -0.6599
10164SOL    HW231709   5.050   1.645   4.953  0.9127  1.7070 -0.6188
10165SOL     OW31710   4.911   2.281   5.041  0.3282  0.2770 -0.3623
10165SOL    HW131711   4.911   2.185   5.045  0.5748  0.2699 -0.4605
10165SOL    HW231712   5.000   2.305   5.069 -0.0518  0.5237  0.6638
10166SOL     OW31713   4.085   1.684   4.626 -0.2058 -0.1268 -0.1331
10166SOL    HW131714   3.998   1.725   4.634 -0.1565 -0.0807  0.1905
10166SOL    HW231715   4.146   1.752   4.654 -0.1183 -0.3959  0.3505
10167SOL     OW31716   4.659   1.586   5.160 -0.0541  0.0488 -0.4098
10167SOL    HW131717   4.744   1.596   5.204  0.5440  0.3925 -1.5847
10167SOL    HW231718   4.627   1.676   5.151 -2.1014 -0.2162  2.8461
10168SOL     OW31719   5.716   8.776   3.867  0.0980  0.7441 -0.5006
10168SOL    HW131720   5.690   8.834   3.939  0.4175  0.5921 -0.2628
10168SOL    HW231721   5.634   8.754   3.823  0.1393  3.4053 -2.1482
10169SOL     OW31722   4.795   1.914   4.718  0.1497  0.6762  0.1200
10169SOL    HW131723   4.883   1.880   4.699  0.3595  1.2180  0.0944
10169SOL    HW231724   4.770   1.871   4.799  1.1054  1.7092  0.9885
10170SOL     OW31725   3.498   2.138   5.729 -0.7128  0.2414 -0.2675
10170SOL    HW131726   3.460   2.150   5.816 -4.1615 -1.4388 -1.3492
10170SOL    HW231727   3.438   2.185   5.670  0.4408 -0.2608 -1.9194
10171SOL     OW31728   4.973   0.804   4.081  0.3963 -0.4183  0.4542
10171SOL    HW131729   5.061   0.774   4.056  2.0651  3.2305  1.2467
10171SOL    HW231730   4.962   0.773   4.171  0.5341 -1.5200  0.1043
10172SOL     OW31731   4.569   1.263   5.394 -0.0605 -0.8162 -0.0812
10172SOL    HW131732   4.539   1.224   5.312  0.1097 -0.4318 -0.3323
10172SOL    HW231733   4.588   1.189   5.452  0.3991 -1.1014 -0.5967
10173SOL     OW31734   4.669   1.001   4.504  0.3179 -0.3072  0.2513
10173SOL    HW131735   4.674   1.079   4.559  0.8491  0.1157 -0.3673
10173SOL    HW231736   4.606   1.024   4.436 -0.4849 -0.8996  0.7924
10174SOL     OW31737   5.219   1.670   5.444  0.2233  0.0980  0.2965
10174SOL    HW131738   5.251   1.757   5.469 -1.2127  0.4036  1.1261
10174SOL    HW231739   5.290   1.611   5.469  1.1607  0.9919 -0.1470
10175SOL     OW31740   5.343   0.232   4.877 -0.1433 -0.5892 -0.0479
10175SOL    HW131741   5.291   0.180   4.815 -0.1602 -1.7906  0.9412
10175SOL    HW231742   5.338   0.184   4.959  1.7669 -0.2447  0.3256
10176SOL     OW31743   3.558   0.048   3.889  0.0946 -0.2164 -0.1861
10176SOL    HW131744   3.610  -0.028   3.915  1.3493  0.4250 -0.6915
10176SOL    HW231745   3.511   0.074   3.968  3.0430  1.0917  1.2998
10177SOL     OW31746   4.904   1.330   4.313 -0.8844  0.0585 -0.0107
10177SOL    HW131747   4.824   1.296   4.272 -0.4466 -0.6791 -0.2828
10177SOL    HW231748   4.884   1.421   4.334 -1.0213  0.6090 -2.2382
10178SOL     OW31749   4.063   0.847   4.984  0.0140  0.3815 -0.4774
10178SOL    HW131750   3.983   0.841   5.036 -0.0184  0.4862 -0.5150
10178SOL    HW231751   4.116   0.773   5.014  0.4493  1.0611  0.4742
10179SOL     OW31752   4.802   1.028   4.122 -0.5168  1.0503  0.0927
10179SOL    HW131753   4.813   1.117   4.087 -1.6812  1.0477 -0.2948
10179SOL    HW231754   4.870   0.977   4.079 -0.9559  1.3804 -1.0189
10180SOL     OW31755   5.054   1.660   4.185  0.5349 -0.1263  0.3964
10180SOL    HW131756   5.005   1.730   4.143  0.2574 -0.6220 -0.1166
10180SOL    HW231757   4.996   1.627   4.254  0.3394 -0.3885  0.1077
10181SOL     OW31758   4.498   1.489   5.002  0.3832 -0.2008  0.4490
10181SOL    HW131759   4.415   1.536   5.008  0.6470  0.8744 -2.7210
10181SOL    HW231760   4.549   1.522   5.077 -1.0822  1.1364  0.9070
10182SOL     OW31761   5.248   1.078   5.172 -0.5562 -0.2162  0.2784
10182SOL    HW131762   5.175   1.031   5.133 -1.8470  0.7117  1.4504
10182SOL    HW231763   5.228   1.171   5.157  1.1566  0.0363 -0.6725
10183SOL     OW31764   5.009   0.392   4.267 -0.3716 -0.3321 -0.1320
10183SOL    HW131765   5.024   0.339   4.346 -0.7312  0.5376  0.5458
10183SOL    HW231766   4.921   0.369   4.240 -1.4655  1.5791  1.5427
10184SOL     OW31767   4.393   8.708   4.689  0.0586 -0.0773 -0.6401
10184SOL    HW131768   4.372   8.726   4.780 -0.2346 -3.2581  0.0119
10184SOL    HW231769   4.402   8.795   4.649  1.2398  1.4536  2.5964
10185SOL     OW31770   4.147   1.469   4.413 -0.1696 -0.0918  0.2058
10185SOL    HW131771   4.110   1.528   4.479 -0.0099  0.2082  0.0293
10185SOL    HW231772   4.221   1.517   4.377  0.3917 -0.6918  0.5542
10186SOL     OW31773   5.279   0.474   5.469 -0.1973 -0.1393  0.1552
10186SOL    HW131774   5.316   0.562   5.464 -1.1392  0.3547  1.2252
10186SOL    HW231775   5.342   0.424   5.520  0.9270 -0.4475 -1.4621
10187SOL     OW31776   3.961   1.265   4.394 -0.0340  0.5498  0.4091
10187SOL    HW131777   4.035   1.325   4.403  0.1550  0.0659  2.6302
10187SOL    HW231778   3.978   1.196   4.458 -1.9360 -0.0711  0.3045
10188SOL     OW31779   4.047   0.921   5.327 -0.1914  0.3587  0.4622
10188SOL    HW131780   3.980   0.853   5.328 -0.9956  0.9171 -2.8991
10188SOL    HW231781   4.129   0.874   5.311 -0.7172  0.0691 -1.6717
10189SOL     OW31782   4.128   8.704   5.340 -0.0761 -0.2024  0.3194
10189SOL    HW131783   4.157   8.613   5.332  0.5982  0.0470 -0.2115
10189SOL    HW231784   4.091   8.725   5.254 -0.5149 -0.0656  0.5369
10190SOL     OW31785   3.528   0.578   3.539 -0.0952  0.1810 -0.3693
10190SOL    HW131786   3.543   0.665   3.574  0.9172 -0.6289  1.3560
10190SOL    HW231787   3.462   0.590   3.471 -0.9723  2.0891  0.7439
10191SOL     OW31788   5.032   0.489   5.557  0.1315  0.0871  0.1550
10191SOL    HW131789   5.120   0.471   5.525  0.1915  1.9034 -0.8730
10191SOL    HW231790   4.974   0.440   5.499  0.4067  0.5041 -0.4863
10192SOL     OW31791   3.995   0.390   4.118 -0.0349  0.1543  0.8178
10192SOL    HW131792   3.969   0.347   4.199 -0.0148 -1.6669 -0.0769
10192SOL    HW231793   3.914   0.396   4.067  0.5203 -2.0150 -0.4270
10193SOL     OW31794   5.176   1.189   3.643 -0.0900  0.1861  1.0276
10193SOL    HW131795   5.087   1.224   3.637 -0.2795 -0.4569 -0.2512
10193SOL    HW231796   5.168   1.099   3.612  0.8416 -0.2013  1.8470
10194SOL     OW31797   4.177   0.464   4.987  0.2663 -0.5511 -0.5304
10194SOL    HW131798   4.113   0.475   4.917 -0.1682 -1.0991 -0.2359
10194SOL    HW231799   4.235   0.395   4.955  0.7173 -0.0510 -0.7994
10195SOL     OW31800   5.085   2.051   4.801  0.4310  0.7708  0.4484
10195SOL    HW131801   5.066   2.048   4.707 -0.2407 -0.4963  0.6024
10195SOL    HW231802   5.002   2.029   4.843  0.8219  0.9390  1.3358
10196SOL     OW31803   4.142   0.395   5.536 -0.2226 -0.2636 -0.1493
10196SOL    HW131804   4.173   0.334   5.469 -1.9170  0.3614 -1.5792
10196SOL    HW231805   4.139   0.479   5.492 -0.9842  0.2532  0.8499
10197SOL     OW31806   5.169   0.900   5.474 -0.0754 -0.3831  0.5255
10197SOL    HW131807   5.255   0.941   5.464 -0.1473 -0.0138  1.3898
10197SOL    HW231808   5.161   0.883   5.568 -0.9429 -0.4187  0.4504
10198SOL     OW31809   3.242   1.897   5.367  0.5458 -0.2261 -0.1159
10198SOL    HW131810   3.322   1.949   5.363  1.0985 -1.0483 -0.1345
10198SOL    HW231811   3.219   1.882   5.275  0.5126 -0.1994 -0.1118
10199SOL     OW31812   5.500   0.708   5.394 -0.0600  0.9622 -0.7462
10199SOL    HW131813   5.449   0.789   5.386 -0.7050  0.4963 -1.4617
10199SOL    HW231814   5.554   0.706   5.315 -0.7406  0.2277 -1.2034
10200SOL     OW31815   5.251   0.540   4.221  0.0346 -0.2142 -0.1846
10200SOL    HW131816   5.167   0.498   4.204 -0.6008  1.5073 -1.4906
10200SOL    HW231817   5.236   0.595   4.297  0.7367 -1.8161  1.2053
10201SOL     OW31818   4.509   0.323   4.478 -0.0775  0.6254 -0.9806
10201SOL    HW131819   4.559   0.369   4.546 -0.3641  0.7514 -0.8510
10201SOL    HW231820   4.428   0.374   4.470 -1.3421 -1.0106  0.6408
10202SOL     OW31821   5.345   0.041   5.722  0.0640 -0.1155 -0.0152
10202SOL    HW131822   5.266   0.010   5.766 -0.3226 -0.5900 -1.0025
10202SOL    HW231823   5.392  -0.039   5.699  0.5911  0.1501  0.1221
10203SOL     OW31824   5.445   0.962   5.434 -0.8931 -0.3342 -0.5466
10203SOL    HW131825   5.463   0.994   5.346  0.2898  0.6729  0.0291
10203SOL    HW231826   5.514   1.001   5.488 -2.3246  0.1169  1.0409
10204SOL     OW31827   4.888   1.221   3.724 -0.0701  0.1727  0.0086
10204SOL    HW131828   4.842   1.158   3.780  0.0557  0.1289  0.0650
10204SOL    HW231829   4.871   1.191   3.635  0.3930 -0.2353  0.0481
10205SOL     OW31830   4.445   1.469   4.723  0.9722 -0.4412 -0.5947
10205SOL    HW131831   4.409   1.549   4.684 -0.7190 -0.1804  1.2767
10205SOL    HW231832   4.496   1.500   4.798  2.0619 -1.0353 -1.0674
10206SOL     OW31833   4.805   1.138   4.804 -0.0079 -0.5358 -0.2338
10206SOL    HW131834   4.712   1.153   4.794  0.2091  0.8286 -0.3917
10206SOL    HW231835   4.846   1.195   4.740  0.9157 -1.8891 -0.8898
10207SOL     OW31836   4.929   0.881   3.828 -0.0019  0.0768  0.1300
10207SOL    HW131837   4.856   0.933   3.861  1.7101  1.2019  2.4904
10207SOL    HW231838   4.939   0.811   3.892  0.9084 -0.1100 -0.2037
10208SOL     OW31839   5.437   1.417   4.810  0.2296 -0.3437  0.0846
10208SOL    HW131840   5.422   1.383   4.722 -0.2397 -2.2493  0.8537
10208SOL    HW231841   5.532   1.421   4.819  0.2979 -1.3039 -0.1112
10209SOL     OW31842   3.883   0.816   5.572  0.0829 -0.1924 -0.3073
10209SOL    HW131843   3.890   0.881   5.642  1.2368 -0.6470  0.0286
10209SOL    HW231844   3.809   0.845   5.519 -0.8763  0.1096  1.1526
10210SOL     OW31845   4.410   0.808   4.712  0.1057 -0.3161  0.5490
10210SOL    HW131846   4.437   0.781   4.624  1.5346 -1.4851  1.3045
10210SOL    HW231847   4.490   0.843   4.752 -1.1864  3.2496  0.3593
10211SOL     OW31848   4.114   1.429   5.456  0.0990  0.6247  0.6356
10211SOL    HW131849   4.166   1.401   5.532  2.7875  0.8702 -0.9973
10211SOL    HW231850   4.178   1.466   5.395 -2.0709  1.2409 -1.4122
10212SOL     OW31851   5.251   0.482   4.954  0.2972 -0.3807 -0.1413
10212SOL    HW131852   5.243   0.476   5.050 -0.6727 -0.9254 -0.2456
10212SOL    HW231853   5.302   0.405   4.930  0.4202 -0.3187 -0.0844
10213SOL     OW31854   4.134   0.053   4.591 -0.3463  0.1022  0.2221
10213SOL    HW131855   4.228   0.045   4.577 -0.5145 -0.6813 -0.5583
10213SOL    HW231856   4.109  -0.027   4.636 -0.4332  0.9452  1.7572
10214SOL     OW31857   5.547   1.545   5.287 -0.0879  0.0757  0.0998
10214SOL    HW131858   5.484   1.474   5.297  0.1475  0.1354  2.6354
10214SOL    HW231859   5.602   1.517   5.213 -1.2741 -1.3419 -0.3128
10215SOL     OW31860   3.982   0.505   4.768 -0.1374  0.6073  0.0308
10215SOL    HW131861   3.911   0.514   4.831  1.7413 -1.5153  2.6831
10215SOL    HW231862   3.977   0.413   4.740  0.0159  1.1183 -1.7762
10216SOL     OW31863   4.351   1.639   4.276 -0.0033 -0.2358  0.1235
10216SOL    HW131864   4.282   1.706   4.270 -0.1718 -0.4470 -0.3367
10216SOL    HW231865   4.368   1.615   4.185 -1.6269 -2.5506  0.3330
10217SOL     OW31866   4.999   0.437   4.825 -0.1361  0.8285 -0.2984
10217SOL    HW131867   4.963   0.512   4.873 -1.9138  0.4521 -0.9419
10217SOL    HW231868   5.082   0.419   4.868 -0.8234  1.6184  1.4799
10218SOL     OW31869   4.072   8.654   4.734 -0.6103 -0.3950 -0.2063
10218SOL    HW131870   3.993   8.692   4.773 -0.1641 -0.3190  0.6294
10218SOL    HW231871   4.119   8.615   4.808  1.4947  1.9022 -0.2203
10219SOL     OW31872   4.644   1.311   4.523 -0.1204  0.0596 -0.3536
10219SOL    HW131873   4.610   1.329   4.610  2.0841  1.3265  0.3254
10219SOL    HW231874   4.622   1.389   4.472 -0.8801 -0.4266 -0.7884
10220SOL     OW31875   4.237   1.257   5.182 -0.1121  0.5666  0.3640
10220SOL    HW131876   4.297   1.317   5.226 -2.4713  3.3161  0.1282
10220SOL    HW231877   4.246   1.277   5.089  0.3348 -0.7751  0.0905
10221SOL     OW31878   5.040   8.549   3.511 -0.6340  0.1065  0.2923
10221SOL    HW131879   4.979   8.595   3.454 -1.5468  0.0620  1.1893
10221SOL    HW231880   4.988   8.526   3.588  0.6016  0.3383  1.2335
10222SOL     OW31881   4.995   0.053   4.422  0.5253 -0.0057  0.2167
10222SOL    HW131882   4.909   0.031   4.388 -0.0938  0.3819  1.4961
10222SOL    HW231883   4.979   0.095   4.506  1.9875 -0.5513  0.8147
10223SOL     OW31884   5.275   0.400   4.653 -0.0321 -0.3306 -0.0813
10223SOL    HW131885   5.251   0.491   4.670 -0.2820 -0.2284 -0.9150
10223SOL    HW231886   5.325   0.373   4.730  0.5477  0.6937 -0.0814
10224SOL     OW31887   3.491   0.983   4.051 -0.1131  0.2452  0.9400
10224SOL    HW131888   3.557   1.052   4.056 -1.1840  1.4160 -0.2008
10224SOL    HW231889   3.491   0.942   4.137  2.0456  0.2431  0.9754
10225SOL     OW31890   4.580   1.516   4.367 -0.2624  0.3862  0.2409
10225SOL    HW131891   4.496   1.559   4.352  0.0807  0.4664 -1.7666
10225SOL    HW231892   4.628   1.576   4.423 -1.6097  0.2146  1.6463
10226SOL     OW31893   4.203   0.651   5.857 -0.1030 -0.0163 -0.8573
10226SOL    HW131894   4.185   0.745   5.859 -0.7650 -0.1194 -1.4456
10226SOL    HW231895   4.231   0.630   5.946 -2.6222  0.2444  0.0976
10227SOL     OW31896   3.821   8.821   6.602 -0.3663 -0.0383  0.1996
10227SOL    HW131897   3.746   8.878   6.584 -0.2242  0.2429  0.4712
10227SOL    HW231898   3.890   8.855   6.545  0.0576  0.7960  1.1788
10228SOL     OW31899   3.816   0.369   6.036 -0.0245  0.3800  0.3676
10228SOL    HW131900   3.784   0.280   6.056 -0.1180  0.1494 -0.7526
10228SOL    HW231901   3.833   0.408   6.122  0.4126 -0.8691  0.8755
10229SOL     OW31902   4.467   1.254   6.780  0.3364  0.4799 -0.4715
10229SOL    HW131903   4.378   1.285   6.762 -0.2181 -0.2003  1.0013
10229SOL    HW231904   4.523   1.323   6.744 -0.8301  2.1032  0.6557
10230SOL     OW31905   5.179   1.443   6.411  0.3704 -0.3104 -0.5967
10230SOL    HW131906   5.221   1.407   6.333  1.5972 -1.6414  0.6295
10230SOL    HW231907   5.175   1.370   6.473 -3.0094 -0.0403 -0.2937
10231SOL     OW31908   4.604   0.367   6.102  0.3737  0.1553 -0.0937
10231SOL    HW131909   4.523   0.400   6.062  0.5697 -0.1875 -0.7801
10231SOL    HW231910   4.590   0.378   6.196  0.0494  1.3102 -0.2608
10232SOL     OW31911   4.890   0.347   5.884 -0.3625 -0.4894  0.0698
10232SOL    HW131912   4.840   0.425   5.864  0.3674  0.0653  0.3592
10232SOL    HW231913   4.967   0.379   5.931 -1.1172 -1.5522  2.1623
10233SOL     OW31914   4.374   1.029   6.561 -0.4491 -0.6414  0.0195
10233SOL    HW131915   4.428   0.964   6.608 -0.4555 -0.3075  0.4997
10233SOL    HW231916   4.430   1.106   6.555 -0.4411 -0.6935 -0.5569
10234SOL     OW31917   4.726   0.608   7.022 -0.0156 -0.4546  0.0279
10234SOL    HW131918   4.651   0.614   6.963  0.2323  0.2908 -0.2301
10234SOL    HW231919   4.774   0.690   7.008  1.9126 -1.7218 -1.2480
10235SOL     OW31920   4.668   0.651   6.103 -0.1686 -0.3939 -0.0217
10235SOL    HW131921   4.755   0.659   6.142 -0.1024  2.7298 -0.4890
10235SOL    HW231922   4.660   0.559   6.080  1.2605 -1.6734  3.8368
10236SOL     OW31923   4.815   1.226   7.078  0.1170  0.0536  0.0198
10236SOL    HW131924   4.782   1.302   7.126 -0.3794 -0.1555  0.0166
10236SOL    HW231925   4.750   1.157   7.095 -0.9919  0.4323 -2.2684
10237SOL     OW31926   4.222   1.376   6.777  0.2367 -0.2168 -0.8380
10237SOL    HW131927   4.284   1.448   6.774  0.7715 -0.6956 -2.6544
10237SOL    HW231928   4.171   1.391   6.856  1.4529  1.2003 -0.2828
10238SOL     OW31929   5.243   1.664   6.783  0.0064  0.4978 -0.1127
10238SOL    HW131930   5.297   1.585   6.791 -1.2450 -0.2825  0.9734
10238SOL    HW231931   5.264   1.715   6.861  0.2337  0.8879 -0.4234
10239SOL     OW31932   3.858   8.555   6.950 -0.3678  0.7171  0.3060
10239SOL    HW131933   3.824   8.545   6.861 -0.3160  0.2539  0.3351
10239SOL    HW231934   3.781   8.542   7.006 -0.1140 -0.5896  0.3815
10240SOL     OW31935   4.900   8.742   6.144  0.2247 -0.4263  0.4835
10240SOL    HW131936   4.943   8.754   6.229 -0.0146  0.8086  0.4504
10240SOL    HW231937   4.966   8.765   6.080  0.2121 -0.7565  0.3473
10241SOL     OW31938   3.734   1.778   5.935 -0.2136  0.3801 -0.8143
10241SOL    HW131939   3.683   1.798   6.013  1.3861  2.2472 -0.1672
10241SOL    HW231940   3.804   1.842   5.935  0.8326 -0.6574 -2.8873
10242SOL     OW31941   4.845   1.339   6.839  0.6939  0.0336 -0.3153
10242SOL    HW131942   4.882   1.418   6.879  0.6628  0.1001 -0.4180
10242SOL    HW231943   4.822   1.283   6.914  0.3848  0.2699 -0.2298
10243SOL     OW31944   3.725   1.327   5.939  0.1097  0.0234  0.1575
10243SOL    HW131945   3.770   1.317   5.855  0.5012 -2.2509  0.5694
10243SOL    HW231946   3.772   1.396   5.984  0.8541  0.2219 -0.8888
10244SOL     OW31947   4.379   1.242   6.195 -0.8277 -0.2410  0.2478
10244SOL    HW131948   4.333   1.162   6.220  0.3661 -0.5352  1.6147
10244SOL    HW231949   4.450   1.212   6.138 -1.7508  0.1270 -1.1646
10245SOL     OW31950   4.355   1.502   7.052 -0.1532 -0.4367 -0.0593
10245SOL    HW131951   4.273   1.485   7.005  0.1658 -0.6745 -0.5292
10245SOL    HW231952   4.384   1.416   7.082 -0.2029 -0.3211  0.3259
10246SOL     OW31953   4.049   1.047   5.589  0.2057 -0.4188  0.2014
10246SOL    HW131954   4.056   0.993   5.511 -3.4102 -0.3212 -0.3463
10246SOL    HW231955   4.110   1.119   5.575 -0.5896 -0.2193 -2.7255
10247SOL     OW31956   5.486   0.047   7.380 -0.4951 -0.4236  0.0202
10247SOL    HW131957   5.463   0.070   7.290 -0.6933 -0.8636 -0.0442
10247SOL    HW231958   5.412  -0.006   7.411  0.1606 -1.3777 -0.0009
10248SOL     OW31959   3.785   0.656   5.934  0.6326 -0.4423  0.1725
10248SOL    HW131960   3.726   0.728   5.955  0.5084 -0.7370  0.8526
10248SOL    HW231961   3.781   0.598   6.010  1.0367 -0.9684 -0.1969
10249SOL     OW31962   5.645   1.765   6.046 -0.3502  0.1580  1.2420
10249SOL    HW131963   5.615   1.733   6.130 -2.1620  0.6341  0.8130
10249SOL    HW231964   5.723   1.816   6.066 -0.8589  0.4144  2.6433
10250SOL     OW31965   3.970   1.968   5.966  0.4811 -0.1098 -0.2813
10250SOL    HW131966   4.007   2.051   5.935  0.0981 -0.6987 -2.5039
10250SOL    HW231967   4.039   1.903   5.949  0.3362 -0.4278  0.3284
10251SOL     OW31968   5.306   0.953   6.295 -0.0007 -0.5828  0.0483
10251SOL    HW131969   5.396   0.985   6.297 -0.2061  0.0045 -0.0761
10251SOL    HW231970   5.255   1.026   6.261 -0.3899 -1.2415 -0.8491
10252SOL     OW31971   5.205   1.163   6.180  0.5135 -0.6200 -0.0421
10252SOL    HW131972   5.212   1.163   6.085  0.6823  1.3460 -0.0657
10252SOL    HW231973   5.129   1.218   6.199  0.2158 -1.3370  0.9625
10253SOL     OW31974   4.265   0.882   6.907  0.3298 -0.1852 -0.1734
10253SOL    HW131975   4.237   0.955   6.852 -2.5384 -0.2546  0.9856
10253SOL    HW231976   4.223   0.805   6.868  2.4119 -1.0877 -0.7412
10254SOL     OW31977   4.187   1.458   6.305  0.5534 -0.2735 -0.2446
10254SOL    HW131978   4.169   1.533   6.248  0.6755 -1.5370 -1.9974
10254SOL    HW231979   4.207   1.386   6.246  0.0554 -1.8337  1.3829
10255SOL     OW31980   4.923   1.082   6.713 -0.2943 -0.6885  0.2228
10255SOL    HW131981   5.004   1.056   6.757 -0.1367  0.6991  0.8009
10255SOL    HW231982   4.900   1.166   6.752 -1.3926 -0.4992 -0.7606
10256SOL     OW31983   4.323   0.018   6.527 -0.6348  0.1434 -0.6047
10256SOL    HW131984   4.336   0.111   6.542 -2.0393  0.4512 -1.1613
10256SOL    HW231985   4.360   0.001   6.441  0.2767  0.0275 -0.1955
10257SOL     OW31986   4.013   0.773   6.369  0.6368  0.3542  0.2223
10257SOL    HW131987   4.063   0.759   6.449  2.5914  1.6822 -0.6877
10257SOL    HW231988   3.973   0.859   6.380  0.4810  0.3150 -0.0208
10258SOL     OW31989   5.510   1.175   6.001  0.0782  0.5831 -0.4580
10258SOL    HW131990   5.561   1.251   6.027 -0.8046  1.1915 -0.4331
10258SOL    HW231991   5.477   1.197   5.914  1.1583 -0.4762 -1.1493
10259SOL     OW31992   5.336   2.313   7.373  0.4073 -0.2401 -0.0125
10259SOL    HW131993   5.248   2.322   7.410  0.4567 -0.1256  0.0782
10259SOL    HW231994   5.392   2.292   7.447  0.6723  0.9854  0.1544
10260SOL     OW31995   4.077   0.486   7.438  0.4045  0.4759 -0.1846
10260SOL    HW131996   4.037   0.426   7.501  1.2142 -0.4927 -0.5743
10260SOL    HW231997   4.132   0.431   7.383  0.7458  1.5000 -0.9095
10261SOL     OW31998   5.227   1.309   6.624 -0.1025  0.6485  0.2707
10261SOL    HW131999   5.229   1.332   6.718  1.1211  2.0928 -0.0575
10261SOL    HW232000   5.198   1.218   6.622  0.6553  0.3054  2.1273
10262SOL     OW32001   5.274   1.738   6.131 -0.2164 -0.0647  0.1752
10262SOL    HW132002   5.184   1.755   6.104  0.6964  1.3197 -2.3973
10262SOL    HW232003   5.277   1.644   6.149 -2.0609 -0.2059 -0.0877
10263SOL     OW32004   4.104   0.677   5.500  0.0416 -0.1694  0.4030
10263SOL    HW132005   4.179   0.700   5.554  0.1748  0.8744 -0.2219
10263SOL    HW232006   4.030   0.723   5.541 -0.0552 -0.2488  0.3190
10264SOL     OW32007   5.022   8.803   6.371 -0.1876  0.7109 -0.3663
10264SOL    HW132008   5.107   8.768   6.399 -0.2837  1.3730  0.8523
10264SOL    HW232009   4.966   8.793   6.449 -1.9201 -1.7600 -1.7799
10265SOL     OW32010   5.119   2.029   6.104  0.3822  0.5910  0.7180
10265SOL    HW132011   5.156   2.040   6.016 -1.4795  0.3825 -0.1373
10265SOL    HW232012   5.049   2.094   6.109 -0.5167 -0.4090  1.4880
10266SOL     OW32013   4.215   0.335   7.252  0.1191 -0.0700 -0.3275
10266SOL    HW132014   4.284   0.270   7.251  0.3508  0.1822 -1.5151
10266SOL    HW232015   4.142   0.294   7.205 -0.7365 -0.5089  1.2877
10267SOL     OW32016   4.716   0.213   7.407  0.4820 -0.3661 -0.1135
10267SOL    HW132017   4.788   0.219   7.345  2.1085 -1.5949  1.5482
10267SOL    HW232018   4.724   0.291   7.462  0.3540 -0.3434 -0.1269
10268SOL     OW32019   4.513   0.610   6.863  0.5541  0.3072 -0.0344
10268SOL    HW132020   4.450   0.557   6.912  1.4882 -1.0001 -0.2092
10268SOL    HW232021   4.461   0.680   6.825 -0.4801  0.3521  1.3806
10269SOL     OW32022   4.407   0.288   6.898 -0.0794  0.5671  0.1086
10269SOL    HW132023   4.358   0.213   6.932 -2.1167  1.5232 -0.5482
10269SOL    HW232024   4.473   0.306   6.964 -1.8739  0.4028  2.0448
10270SOL     OW32025   4.394   0.972   5.945  0.3139  0.4109  0.3248
10270SOL    HW132026   4.386   0.962   6.039  2.1822 -0.7771  0.4055
10270SOL    HW232027   4.303   0.970   5.912 -0.3593  0.9141  2.0554
10271SOL     OW32028   4.429   0.778   6.195  0.1253 -0.0138 -0.2896
10271SOL    HW132029   4.510   0.744   6.157  0.7970  1.5809 -0.4009
10271SOL    HW232030   4.360   0.719   6.165  1.4701 -2.7308  1.5843
10272SOL     OW32031   3.833   2.007   7.061  0.1487  0.1079 -0.2121
10272SOL    HW132032   3.771   2.078   7.046 -0.6369 -0.3227  0.8415
10272SOL    HW232033   3.827   1.953   6.981 -0.1901  0.5334 -0.4770
10273SOL     OW32034   4.373   0.157   5.708  0.2716  0.2574 -0.0529
10273SOL    HW132035   4.427   0.116   5.641 -1.3676 -2.3278  0.0900
10273SOL    HW232036   4.364   0.248   5.679  2.5816  0.1624 -1.3455
10274SOL     OW32037   5.443   0.702   7.260  0.3294  0.1386 -0.2631
10274SOL    HW132038   5.393   0.732   7.183 -0.1158 -1.1897 -0.5202
10274SOL    HW232039   5.398   0.741   7.334 -0.0238  0.4043 -0.6111
10275SOL     OW32040   5.223   1.033   6.565 -0.5193  0.1611  0.2028
10275SOL    HW132041   5.273   1.057   6.488 -0.2676 -0.2060  0.2462
10275SOL    HW232042   5.156   0.973   6.533 -0.7736  0.4535  0.1837
10276SOL     OW32043   3.743   8.576   6.712  0.0395 -0.3810  0.7188
10276SOL    HW132044   3.785   8.647   6.663  0.0565  0.1444  1.4893
10276SOL    HW232045   3.653   8.575   6.680 -0.4560  1.1853  1.9809
10277SOL     OW32046   4.843   1.550   6.192 -0.5333  0.1927 -1.1284
10277SOL    HW132047   4.866   1.643   6.193 -2.2553  0.6749  0.4548
10277SOL    HW232048   4.757   1.547   6.234  0.8393 -2.4384  1.8665
10278SOL     OW32049   4.302   1.800   6.559  0.4786  0.0070 -0.2731
10278SOL    HW132050   4.385   1.777   6.519  0.3334 -3.3164  1.0000
10278SOL    HW232051   4.247   1.830   6.486  1.9056 -0.4876 -1.6016
10279SOL     OW32052   5.726   0.576   6.725  0.3865 -0.4807 -0.1586
10279SOL    HW132053   5.759   0.587   6.636 -0.5800 -0.1914 -0.4923
10279SOL    HW232054   5.768   0.496   6.757  1.5153 -0.0526 -0.4983
10280SOL     OW32055   5.200   1.865   6.983  0.3531  0.8551  0.4216
10280SOL    HW132056   5.114   1.858   7.024  0.8544 -0.1207  1.3151
10280SOL    HW232057   5.210   1.959   6.966 -0.9740  0.9598  0.0925
10281SOL     OW32058   4.144   0.938   5.848  0.5151  0.5484  0.3789
10281SOL    HW132059   4.097   0.965   5.770 -0.6968  2.2095  1.6164
10281SOL    HW232060   4.075   0.923   5.913  1.4768 -1.0422  1.0900
10282SOL     OW32061   5.326   0.516   6.191 -0.4137 -0.2605  0.2779
10282SOL    HW132062   5.337   0.452   6.261  0.3721  0.3303  0.7106
10282SOL    HW232063   5.414   0.530   6.157 -0.5272  0.8273  0.4005
10283SOL     OW32064   4.593   1.042   7.230  0.6090 -0.7197 -0.0276
10283SOL    HW132065   4.547   0.978   7.175 -0.0649 -0.2230 -0.0606
10283SOL    HW232066   4.558   1.027   7.318  0.7216 -0.6492  0.0283
10284SOL     OW32067   4.867   2.365   5.972 -0.2943 -0.2281  0.5901
10284SOL    HW132068   4.811   2.373   5.895 -0.2062 -1.4823  0.3753
10284SOL    HW232069   4.840   2.282   6.012  0.9703 -0.5234  0.8490
10285SOL     OW32070   3.737   0.121   7.117 -0.5524 -0.7452 -0.3064
10285SOL    HW132071   3.689   0.042   7.142 -1.9234 -0.1174 -0.8407
10285SOL    HW232072   3.773   0.154   7.199 -0.5894 -1.5085  0.0312
10286SOL     OW32073   5.031   2.045   5.589  0.5410  0.4740 -0.4026
10286SOL    HW132074   4.939   2.035   5.614  0.3761  1.9613 -0.3424
10286SOL    HW232075   5.066   2.110   5.650  1.7037 -0.2562 -0.2778
10287SOL     OW32076   4.206   1.830   5.923  0.4407  0.1787  0.1146
10287SOL    HW132077   4.215   1.758   5.860 -0.8902  0.6282 -0.6342
10287SOL    HW232078   4.229   1.908   5.873 -1.1884  0.6050  0.0041
10288SOL     OW32079   4.773   0.124   5.953 -0.0207  0.3606  0.5417
10288SOL    HW132080   4.833   0.199   5.959 -0.3042  0.5461  1.1862
10288SOL    HW232081   4.691   0.156   5.992  0.0902 -0.5106  1.5300
10289SOL     OW32082   3.847   1.725   6.487 -0.0457  0.2384 -0.3874
10289SOL    HW132083   3.807   1.799   6.533  0.2183  1.1640 -1.5680
10289SOL    HW232084   3.938   1.752   6.474  0.7848 -1.4433  1.4469
10290SOL     OW32085   4.551   1.219   6.395 -0.7196 -0.3894 -0.0938
10290SOL    HW132086   4.479   1.254   6.342 -0.3423  1.4622  0.5728
10290SOL    HW232087   4.568   1.286   6.461  0.1040 -1.8136  1.2057
10291SOL     OW32088   4.604   0.384   6.377 -0.0198 -0.1991  0.0064
10291SOL    HW132089   4.546   0.337   6.437  1.2551 -0.2350  1.2719
10291SOL    HW232090   4.687   0.337   6.383  0.5253  0.6476 -0.7461
10292SOL     OW32091   4.598   0.057   7.113  0.2965 -0.3158  0.4977
10292SOL    HW132092   4.625   0.140   7.074  1.4089 -0.2851  1.2979
10292SOL    HW232093   4.647  -0.009   7.065 -1.8464 -0.7301 -1.3148
10293SOL     OW32094   4.114   8.570   5.826  0.6232 -0.1006  0.0108
10293SOL    HW132095   4.206   8.543   5.824  0.8424  0.2620  2.3513
10293SOL    HW232096   4.114   8.658   5.789  1.0652 -0.4612 -0.8654
10294SOL     OW32097   4.589   0.385   7.659 -0.2270 -0.1942 -0.2993
10294SOL    HW132098   4.500   0.360   7.634 -0.2407  0.1587 -0.6156
10294SOL    HW232099   4.632   0.303   7.681 -0.3872 -0.4552 -0.9468
10295SOL     OW32100   4.701   1.344   6.601 -0.3586  0.1393  0.1281
10295SOL    HW132101   4.775   1.381   6.554  0.0145 -0.0927  0.5150
10295SOL    HW232102   4.734   1.330   6.690 -0.4435 -1.1981 -0.0258
10296SOL     OW32103   5.060   0.389   6.999 -0.4236 -0.6562 -0.1183
10296SOL    HW132104   5.148   0.384   6.962 -0.5914 -0.8494 -0.4930
10296SOL    HW232105   5.067   0.455   7.068 -0.3361  0.4404 -1.1394
10297SOL     OW32106   4.586   1.044   6.185  0.2983  0.1820  0.0065
10297SOL    HW132107   4.569   1.086   6.269  0.4059  0.5420 -0.1510
10297SOL    HW232108   4.538   0.961   6.189 -0.1092  0.4282  0.2240
10298SOL     OW32109   4.668   0.125   6.534 -0.3896 -0.0635 -0.3456
10298SOL    HW132110   4.576   0.102   6.548 -0.5934  0.4211 -0.8833
10298SOL    HW232111   4.702   0.056   6.477 -0.3919 -0.2792 -0.0933
10299SOL     OW32112   3.806   8.493   6.038 -0.0129 -0.1223 -0.1128
10299SOL    HW132113   3.777   8.457   5.954  1.6152  1.1533 -1.3017
10299SOL    HW232114   3.797   8.421   6.100  0.0322 -1.5264 -1.6678
10300SOL     OW32115   4.723   1.214   5.993  0.1006  0.3042 -0.4905
10300SOL    HW132116   4.815   1.191   6.008 -0.4317 -1.1454  0.8511
10300SOL    HW232117   4.676   1.172   6.065 -1.5357  1.7372 -0.6569
10301SOL     OW32118   3.266   0.016   5.800  0.5483  0.5453 -0.8852
10301SOL    HW132119   3.206   0.090   5.808  0.0746  0.2067 -1.2721
10301SOL    HW232120   3.215  -0.053   5.758  1.0477  0.0660 -0.7256
10302SOL     OW32121   4.304   8.486   6.426 -0.1287  0.1606  0.6929
10302SOL    HW132122   4.364   8.412   6.424  0.0619  0.2911  1.5862
10302SOL    HW232123   4.294   8.510   6.334  1.1250  0.0999  0.5291
10303SOL     OW32124   4.173   0.408   6.841 -0.2805 -0.2047  0.1972
10303SOL    HW132125   4.248   0.357   6.873 -1.0883 -1.9877 -0.6178
10303SOL    HW232126   4.097   0.355   6.864 -1.2967  1.4174  0.7158
10304SOL     OW32127   4.407   1.479   6.469 -0.3144 -0.4165  0.2530
10304SOL    HW132128   4.393   1.535   6.545 -1.0203 -0.6503  0.2997
10304SOL    HW232129   4.322   1.472   6.427  0.0134 -0.4946 -0.4267
10305SOL     OW32130   4.656   0.854   5.927  0.4796  0.2301 -0.8031
10305SOL    HW132131   4.568   0.889   5.923  1.3149  2.6700  0.3894
10305SOL    HW232132   4.652   0.786   5.994 -0.2832  1.0299 -0.0197
10306SOL     OW32133   4.850   1.831   6.214 -0.3351 -0.5349  0.2650
10306SOL    HW132134   4.857   1.831   6.118  0.3937  0.0987  0.3143
10306SOL    HW232135   4.918   1.892   6.243 -1.2694  0.1237  1.1318
10307SOL     OW32136   4.653   0.039   5.560 -0.0788 -0.1242  0.4248
10307SOL    HW132137   4.714  -0.007   5.503 -0.1720  0.0071  0.2148
10307SOL    HW232138   4.697   0.122   5.580 -0.3231  0.1118  0.0060
10308SOL     OW32139   3.786   0.396   6.476  0.4760  0.8590 -0.5519
10308SOL    HW132140   3.753   0.309   6.500 -0.0505  1.1291 -0.2786
10308SOL    HW232141   3.881   0.386   6.473  0.4323  0.3363 -0.2614
10309SOL     OW32142   4.154   8.560   6.991  0.2092  0.1503  0.0868
10309SOL    HW132143   4.178   8.633   6.933  1.5932 -2.1349 -2.4068
10309SOL    HW232144   4.061   8.545   6.975  0.5018 -0.2351 -1.3339
10310SOL     OW32145   4.176   0.077   6.151 -0.5366  0.0117  0.5679
10310SOL    HW132146   4.244   0.048   6.090 -1.2268  0.5955 -0.5168
10310SOL    HW232147   4.117   0.002   6.158 -1.4192  0.5150 -0.9262
10311SOL     OW32148   4.857   8.685   6.550  0.1221  0.2048  0.5212
10311SOL    HW132149   4.801   8.702   6.626  0.0583 -0.5307  0.6439
10311SOL    HW232150   4.890   8.596   6.563  1.0768  0.5043  0.2940
10312SOL     OW32151   5.406   0.792   6.593  0.4908 -0.0141  0.1544
10312SOL    HW132152   5.346   0.866   6.581  0.5678 -0.1631 -1.3243
10312SOL    HW232153   5.493   0.829   6.582  0.5476 -0.2691 -0.2402
10313SOL     OW32154   5.313   0.256   6.336 -0.1605 -0.2191  0.2083
10313SOL    HW132155   5.290   0.225   6.424 -0.3503 -1.3835 -0.2417
10313SOL    HW232156   5.243   0.224   6.280 -0.2050  0.7855 -0.3349
10314SOL     OW32157   5.580   0.515   6.122  0.1480 -0.3719  1.1296
10314SOL    HW132158   5.566   0.476   6.035  0.8079 -0.7640  1.1913
10314SOL    HW232159   5.675   0.517   6.133  0.1293  1.1551  1.1945
10315SOL     OW32160   4.267   1.259   5.615 -0.8552 -0.0958 -0.2872
10315SOL    HW132161   4.330   1.226   5.550 -0.9578  1.6554 -1.3288
10315SOL    HW232162   4.315   1.256   5.698  0.4090  0.6392 -0.9577
10316SOL     OW32163   5.438   1.378   6.271 -0.3382  0.0217 -0.0580
10316SOL    HW132164   5.396   1.403   6.189 -2.6314 -1.1311  0.7021
10316SOL    HW232165   5.410   1.288   6.286 -0.9914  0.5946  2.6002
10317SOL     OW32166   5.123   8.716   5.799 -0.1258  0.0056 -0.0454
10317SOL    HW132167   5.205   8.666   5.801 -0.0159  0.1203 -1.2934
10317SOL    HW232168   5.128   8.773   5.876  0.5715 -0.5952  0.3672
10318SOL     OW32169   4.292   8.599   6.161 -0.1653  0.2016  0.4835
10318SOL    HW132170   4.201   8.577   6.144 -0.0995 -1.1966  1.6888
10318SOL    HW232171   4.323   8.639   6.079 -1.1221 -1.7462 -0.9094
10319SOL     OW32172   5.276   0.816   7.091 -0.0341 -0.0372 -0.0261
10319SOL    HW132173   5.187   0.809   7.125 -0.1211 -0.2557 -0.3006
10319SOL    HW232174   5.276   0.898   7.042  0.1502  0.3883  0.6643
10320SOL     OW32175   4.983   1.659   6.669 -0.5722  0.1089 -0.3104
10320SOL    HW132176   5.060   1.634   6.721 -2.1121 -0.9776  1.5589
10320SOL    HW232177   4.951   1.576   6.632 -1.7068  0.3096  0.1914
10321SOL     OW32178   5.749   1.745   7.167  0.3894  0.5677 -0.4979
10321SOL    HW132179   5.687   1.815   7.144 -1.4356 -0.8661 -0.2077
10321SOL    HW232180   5.696   1.681   7.214  2.4989  0.0531  1.3426
10322SOL     OW32181   4.839   1.132   6.415  0.1644 -0.0964  0.1349
10322SOL    HW132182   4.757   1.172   6.444 -0.1291  0.7105 -1.6343
10322SOL    HW232183   4.884   1.106   6.495 -0.6192  1.8694  1.2661
10323SOL     OW32184   5.426   0.655   6.829  0.1191  0.0618 -0.0481
10323SOL    HW132185   5.385   0.681   6.747  0.6060  0.9151 -0.0376
10323SOL    HW232186   5.511   0.700   6.829  0.0941  0.1448  0.9550
10324SOL     OW32187   4.337   0.053   7.030 -0.1996 -0.3779  0.2176
10324SOL    HW132188   4.422   0.011   7.048  0.3457  1.0341  1.0907
10324SOL    HW232189   4.287   0.038   7.110  0.3414  1.4039  0.9229
10325SOL     OW32190   4.810   0.866   6.959 -0.2917  0.2791  0.0754
10325SOL    HW132191   4.729   0.916   6.962 -0.3251  0.2926 -0.9057
10325SOL    HW232192   4.822   0.845   6.866  0.8954  0.3929  0.1960
10326SOL     OW32193   4.983   0.793   5.998  0.3904  0.4409 -0.0517
10326SOL    HW132194   4.924   0.853   6.045 -0.5680 -0.6493  0.1809
10326SOL    HW232195   4.987   0.716   6.054  3.3825  1.0730  0.7658
10327SOL     OW32196   4.071   0.336   6.551 -0.5415  0.5461 -0.0473
10327SOL    HW132197   4.022   0.305   6.627 -0.9430 -0.9612 -0.8683
10327SOL    HW232198   4.144   0.386   6.588 -0.1520 -0.9978  1.4028
10328SOL     OW32199   4.999   0.275   6.765 -0.2544  0.1202  0.6728
10328SOL    HW132200   4.991   0.309   6.855 -0.0685 -1.1805  1.2081
10328SOL    HW232201   4.938   0.201   6.763  0.9437 -0.8923  0.2609
10329SOL     OW32202   4.161   1.177   6.612  0.0043  0.1331 -0.0869
10329SOL    HW132203   4.232   1.120   6.584 -0.2008 -0.4866  0.6308
10329SOL    HW232204   4.203   1.246   6.663  0.2168  0.4456 -0.6793
10330SOL     OW32205   4.223   1.000   6.171  0.0002 -0.4530 -0.1338
10330SOL    HW132206   4.241   0.953   6.253 -0.5648  0.3527  0.4687
10330SOL    HW232207   4.130   0.984   6.155  0.1165 -0.6299 -0.6443
10331SOL     OW32208   4.180   0.339   6.229 -0.3975 -0.6969  0.3892
10331SOL    HW132209   4.167   0.249   6.199 -0.4715 -0.9089  1.0591
10331SOL    HW232210   4.191   0.333   6.323  2.6443 -0.3436  0.1820
10332SOL     OW32211   4.974   1.300   6.230 -0.3839  0.0317 -0.2867
10332SOL    HW132212   4.924   1.375   6.198 -1.0027 -1.1451 -2.2263
10332SOL    HW232213   4.915   1.259   6.294 -2.4534 -1.7686 -3.0791
10333SOL     OW32214   5.284   1.351   6.881  0.6431 -0.9641  0.0852
10333SOL    HW132215   5.280   1.317   6.970  0.4428 -1.1611  0.0008
10333SOL    HW232216   5.353   1.418   6.884 -1.6820  1.5366  1.2325
10334SOL     OW32217   4.709   0.566   5.826  0.3914 -0.1078 -0.3458
10334SOL    HW132218   4.623   0.529   5.807  1.1699 -2.0989 -0.2546
10334SOL    HW232219   4.692   0.659   5.841 -1.5551 -0.2009 -1.5155
10335SOL     OW32220   4.084   1.748   6.772 -0.2569  0.2140  0.0564
10335SOL    HW132221   4.138   1.746   6.851  0.2216  0.1828 -0.2691
10335SOL    HW232222   4.141   1.786   6.705 -0.4120 -0.4352 -0.4536
10336SOL     OW32223   4.102   0.684   6.804  0.7049 -0.1672 -0.0430
10336SOL    HW132224   4.105   0.588   6.802  1.0728 -0.4383  4.5655
10336SOL    HW232225   4.009   0.705   6.808  0.3295  0.1190 -4.5189
10337SOL     OW32226   5.011   0.817   7.150 -0.2961 -1.0220  0.0819
10337SOL    HW132227   4.945   0.828   7.081  0.2541 -0.9770 -0.4484
10337SOL    HW232228   4.986   0.880   7.218 -0.7328 -0.9277 -0.1624
10338SOL     OW32229   4.610   8.851   7.538 -0.5591  0.2701 -0.0172
10338SOL    HW132230   4.649   8.766   7.519  0.3774  0.5392  0.6403
10338SOL    HW232231   4.667   8.914   7.494 -1.6729  0.5252 -1.1355
10339SOL     OW32232   4.395   8.719   7.930 -0.3497  0.1515 -0.0877
10339SOL    HW132233   4.314   8.696   7.976  0.0088 -1.5503 -0.2691
10339SOL    HW232234   4.437   8.636   7.912  2.7696  1.0385  2.3041
10340SOL     OW32235   4.387   0.295   6.619 -0.8982  0.3182  0.1211
10340SOL    HW132236   4.416   0.302   6.710 -1.3105  0.6273  0.2315
10340SOL    HW232237   4.366   0.385   6.594  0.0659  0.3619 -0.5663
10341SOL     OW32238   4.976   0.505   6.606 -0.0124  0.0705 -0.0336
10341SOL    HW132239   4.992   0.431   6.664  0.4795  1.1501  1.2909
10341SOL    HW232240   4.884   0.529   6.621 -0.2630 -0.4449 -0.6971
10342SOL     OW32241   4.363   8.833   5.974  0.0584  0.1252  0.2675
10342SOL    HW132242   4.454   8.814   5.997  0.6215  1.6775 -0.5739
10342SOL    HW232243   4.357   8.811   5.882 -0.0910  1.0988  0.0349
10343SOL     OW32244   3.563   8.764   7.081 -0.0215  0.3430  0.0566
10343SOL    HW132245   3.517   8.800   7.005 -0.2680  1.1942  0.6036
10343SOL    HW232246   3.598   8.681   7.049 -2.4397 -0.6633 -0.2130
10344SOL     OW32247   3.711   0.972   6.616  1.0371  0.2944  0.0486
10344SOL    HW132248   3.718   1.053   6.565 -1.5361 -0.4584 -1.6952
10344SOL    HW232249   3.617   0.959   6.627  1.4471 -1.1758  2.5015
10345SOL     OW32250   3.911   0.132   6.356  0.9701  0.0430  0.2215
10345SOL    HW132251   3.864   0.133   6.272  0.1286  0.6414  0.6821
10345SOL    HW232252   4.000   0.104   6.333  0.2850 -1.6333 -0.6041
10346SOL     OW32253   5.632   0.984   7.286  0.6161 -0.4520 -0.2720
10346SOL    HW132254   5.716   0.995   7.329 -0.6786  0.1762  2.2772
10346SOL    HW232255   5.573   0.953   7.355 -1.4402 -0.1067 -1.7691
10347SOL     OW32256   3.812   8.823   5.880  0.7680  0.8160  0.0130
10347SOL    HW132257   3.727   8.791   5.911  1.8590 -1.4809  0.8859
10347SOL    HW232258   3.864   8.833   5.959  1.8954  0.2493 -0.6229
10348SOL     OW32259   5.069   0.444   6.062 -0.5483  0.2382  0.1337
10348SOL    HW132260   5.144   0.494   6.093 -1.1211  1.1695  0.0448
10348SOL    HW232261   5.074   0.361   6.109  0.8288  0.0741 -0.2622
10349SOL     OW32262   4.681   0.322   6.987 -0.0297  0.6159 -0.9037
10349SOL    HW132263   4.725   0.406   7.000  0.0367  0.3605  0.6226
10349SOL    HW232264   4.725   0.284   6.911  1.2824  1.0975 -0.4121
10350SOL     OW32265   4.888   1.541   7.010 -0.1195 -0.1020 -0.0140
10350SOL    HW132266   4.946   1.616   7.023 -0.4715  1.0394 -3.8733
10350SOL    HW232267   4.846   1.528   7.095  1.8909  2.3684  1.4938
10351SOL     OW32268   5.729   1.329   7.031 -0.5163  0.1753  0.6403
10351SOL    HW132269   5.715   1.234   7.030  2.6239 -0.4048 -1.3556
10351SOL    HW232270   5.772   1.346   7.115  0.4958 -0.5049  0.2811
10352SOL     OW32271   4.458   0.834   7.093 -0.0500 -0.5441  0.4667
10352SOL    HW132272   4.469   0.740   7.104  0.2463 -0.6477 -0.6336
10352SOL    HW232273   4.380   0.843   7.039 -1.6705 -0.0350  2.7219
10353SOL     OW32274   5.368   8.572   5.817  0.2859 -0.2268  0.3368
10353SOL    HW132275   5.441   8.554   5.758  0.0755 -0.1680  0.0610
10353SOL    HW232276   5.348   8.488   5.857  0.0804 -0.3715 -0.0695
10354SOL     OW32277   4.765   0.275   5.611  0.1154  0.3151 -0.4786
10354SOL    HW132278   4.786   0.260   5.703  0.6497 -0.1956 -0.6757
10354SOL    HW232279   4.720   0.359   5.610  2.3427  1.6157 -0.0315
10355SOL     OW32280   4.865   0.992   6.151  0.2598  0.2315  0.3369
10355SOL    HW132281   4.770   0.980   6.146  0.5346 -3.0056  1.0168
10355SOL    HW232282   4.877   1.056   6.221 -1.3983  0.4941  0.4134
10356SOL     OW32283   4.175   0.796   6.575  0.3744 -0.0118 -0.3443
10356SOL    HW132284   4.209   0.885   6.586  1.1147 -0.2618 -0.5205
10356SOL    HW232285   4.136   0.775   6.660  0.9915  0.1584 -0.0089
10357SOL     OW32286   3.972   8.810   6.866 -0.1337  0.2490  0.1482
10357SOL    HW132287   3.938   8.738   6.918 -1.0640  0.2596 -0.4251
10357SOL    HW232288   3.914   8.815   6.791  1.8880 -0.5893 -1.5839
10358SOL     OW32289   4.740   0.142   6.794 -0.0615 -0.1883  0.1402
10358SOL    HW132290   4.720   0.050   6.814 -0.5326 -0.1875 -0.2983
10358SOL    HW232291   4.728   0.149   6.699 -0.3614  0.4056  0.2178
10359SOL     OW32292   4.433   0.189   7.346  0.5663  0.6214 -0.9066
10359SOL    HW132293   4.527   0.184   7.363  0.7467  0.7847 -1.8339
10359SOL    HW232294   4.405   0.098   7.342  0.1792  0.5146  1.9218
10360SOL     OW32295   3.735   1.100   5.468 -0.0902  0.3923  0.0542
10360SOL    HW132296   3.669   1.121   5.402 -1.2839 -0.4335  0.9476
10360SOL    HW232297   3.796   1.174   5.465 -1.8261  1.9122  0.1578
10361SOL     OW32298   3.797   2.130   6.755 -0.2128 -0.1187  0.4508
10361SOL    HW132299   3.734   2.065   6.726 -0.3803  0.0914  0.3385
10361SOL    HW232300   3.843   2.156   6.674  2.5569 -2.8774  0.9341
10362SOL     OW32301   3.968   1.294   6.456  0.2119  0.4174 -0.2591
10362SOL    HW132302   4.021   1.245   6.519 -0.9166 -0.1220  0.2886
10362SOL    HW232303   4.033   1.335   6.398  1.2372  0.0194  0.5649
10363SOL     OW32304   4.707   0.485   6.676  0.5813  0.3965  0.2351
10363SOL    HW132305   4.666   0.543   6.740  0.8378 -0.5145  1.2597
10363SOL    HW232306   4.642   0.416   6.662  0.5381  0.5758 -0.4774
10364SOL     OW32307   3.579   8.759   6.313 -0.0121 -0.0969 -0.4661
10364SOL    HW132308   3.490   8.726   6.301 -0.6101  0.9195  0.9374
10364SOL    HW232309   3.615   8.708   6.386  0.1556  0.2555 -0.2981
10365SOL     OW32310   4.119   0.742   7.401 -0.2848 -0.2488 -0.4948
10365SOL    HW132311   4.106   0.649   7.421 -4.0724 -0.4183 -2.8550
10365SOL    HW232312   4.192   0.743   7.339  0.1966 -1.5350  0.0169
10366SOL     OW32313   5.277   0.311   7.384 -0.5336  0.3138 -0.1782
10366SOL    HW132314   5.331   0.317   7.306 -1.6784  0.0881 -1.0150
10366SOL    HW232315   5.330   0.352   7.453 -0.2454  2.2542 -1.4638
10367SOL     OW32316   4.451   0.511   5.813  0.2037 -0.5557  0.2631
10367SOL    HW132317   4.390   0.585   5.810  1.3550  0.5665  2.0985
10367SOL    HW232318   4.405   0.444   5.863 -0.4021 -0.6370 -0.3913
10368SOL     OW32319   5.620   0.347   6.391 -0.2453  0.2208  0.0114
10368SOL    HW132320   5.537   0.299   6.398 -0.0390 -0.1995 -0.4047
10368SOL    HW232321   5.601   0.433   6.429 -0.8845  0.1443 -0.1213
10369SOL     OW32322   3.873   1.582   7.009 -0.0698  0.4416 -0.0480
10369SOL    HW132323   3.811   1.512   6.991  1.4548 -0.8074 -0.6369
10369SOL    HW232324   3.945   1.539   7.055  1.2566  1.4570 -1.0991
10370SOL     OW32325   3.943   0.237   6.778 -0.1493  0.1410 -0.2523
10370SOL    HW132326   3.852   0.211   6.766  0.2254 -1.3205 -0.1447
10370SOL    HW232327   3.973   0.185   6.853  0.9940  0.0304 -0.7666
10371SOL     OW32328   4.715   1.902   6.889 -0.0823  0.0349 -0.0025
10371SOL    HW132329   4.718   1.839   6.961 -0.3786  0.7201  0.6226
10371SOL    HW232330   4.622   1.914   6.872 -0.1895  2.2162  1.6324
10372SOL     OW32331   4.038   0.464   5.770  0.3052 -0.3652 -0.1400
10372SOL    HW132332   4.081   0.429   5.693  2.1318 -1.2967  1.2114
10372SOL    HW232333   4.099   0.530   5.804  0.6042 -1.4698  1.6313
10373SOL     OW32334   3.499   0.752   7.099  0.1498  0.7220 -0.4372
10373SOL    HW132335   3.594   0.741   7.101  0.0912  0.2183  0.0448
10373SOL    HW232336   3.482   0.821   7.164  0.1515  0.4803 -0.1769
10374SOL     OW32337   4.837   0.843   6.699  0.4856 -0.3053 -0.2377
10374SOL    HW132338   4.905   0.788   6.660  1.5149  0.3102  0.6413
10374SOL    HW232339   4.870   0.932   6.691 -1.5322  0.3302 -2.3698
10375SOL     OW32340   5.295   0.873   6.021  0.0336 -0.1865  0.2464
10375SOL    HW132341   5.205   0.843   6.031 -0.5318  0.5777 -1.9884
10375SOL    HW232342   5.300   0.952   6.074 -0.2438 -0.8527  1.3009
10376SOL     OW32343   6.141   1.486   6.481 -0.1680  0.0512 -0.0593
10376SOL    HW132344   6.167   1.521   6.396 -1.1845  1.3137  0.1309
10376SOL    HW232345   6.113   1.562   6.532  1.6390 -0.4822  1.8931
10377SOL     OW32346   5.494   1.304   6.677 -0.2542 -0.2215  0.0300
10377SOL    HW132347   5.516   1.361   6.751 -1.2895 -1.7346  1.5690
10377SOL    HW232348   5.400   1.317   6.663 -0.1267 -0.1626 -0.8821
10378SOL     OW32349   3.870   1.012   6.359  0.3175  0.4100 -0.6642
10378SOL    HW132350   3.882   1.104   6.385  0.5983  0.3537 -0.5896
10378SOL    HW232351   3.868   1.014   6.263  1.4451  0.3640 -0.6970
10379SOL     OW32352   4.420   2.170   7.083 -0.4143 -0.4915  0.2202
10379SOL    HW132353   4.335   2.186   7.125 -0.8631  0.9326 -1.1317
10379SOL    HW232354   4.484   2.212   7.141 -0.8710  0.2929  0.1679
10380SOL     OW32355   5.159   0.063   6.006  0.1282 -0.1305 -0.6515
10380SOL    HW132356   5.124   0.102   6.086  2.5387 -3.9939  2.6947
10380SOL    HW232357   5.231   0.121   5.981  0.7019  0.0994  1.3563
10381SOL     OW32358   4.899   1.468   6.458 -0.1422  0.1330 -0.2922
10381SOL    HW132359   4.989   1.467   6.426 -0.3458  1.7574 -1.0375
10381SOL    HW232360   4.847   1.489   6.380 -0.9432  1.2642  0.5206
10382SOL     OW32361   3.851   1.739   7.580 -0.0903  0.2945 -0.0329
10382SOL    HW132362   3.780   1.675   7.590 -0.7927  1.0953  0.1939
10382SOL    HW232363   3.806   1.823   7.570  0.8424  0.9329  0.9533
10383SOL     OW32364   5.164   0.719   6.248  0.3393  0.1033 -0.2674
10383SOL    HW132365   5.222   0.644   6.239 -0.8245 -0.7870 -0.7150
10383SOL    HW232366   5.219   0.795   6.233  1.7242 -0.5989  0.9811
10384SOL     OW32367   4.587   1.036   6.930  0.0588  0.1879  0.0130
10384SOL    HW132368   4.517   1.005   6.989  1.0622 -2.0937  0.1301
10384SOL    HW232369   4.559   1.124   6.904 -1.0208  0.8328  2.9428
10385SOL     OW32370   4.271   1.672   5.723 -0.7179 -0.0015 -0.0042
10385SOL    HW132371   4.241   1.658   5.634  0.6216 -0.0094 -0.4705
10385SOL    HW232372   4.355   1.626   5.729 -0.9169 -0.2489  1.3430
10386SOL     OW32373   5.352   1.650   6.487 -0.3466  0.1205 -0.1321
10386SOL    HW132374   5.309   1.735   6.496 -1.3529 -0.4485  0.7501
10386SOL    HW232375   5.280   1.587   6.487  0.4480 -0.8589  1.2268
10387SOL     OW32376   5.489   8.730   6.369 -0.5894  0.0326  0.2628
10387SOL    HW132377   5.444   8.662   6.319 -2.8608  1.2246  0.5298
10387SOL    HW232378   5.441   8.735   6.451  0.8393  0.5629  1.0981
10388SOL     OW32379   4.211   0.609   6.146  0.2860  0.3802  0.1699
10388SOL    HW132380   4.193   0.517   6.165  1.0181  0.2007  0.0337
10388SOL    HW232381   4.143   0.657   6.193 -0.4637 -0.2555 -0.2496
10389SOL     OW32382   4.366   1.489   5.410  0.1031 -0.2723 -0.1426
10389SOL    HW132383   4.439   1.433   5.434 -0.2737 -0.5250  0.4367
10389SOL    HW232384   4.399   1.542   5.338  0.7018 -0.7185 -0.2054
10390SOL     OW32385   4.554   0.866   6.724  0.1615 -0.4171 -0.0679
10390SOL    HW132386   4.642   0.850   6.691  0.5715  3.3358 -1.2669
10390SOL    HW232387   4.566   0.929   6.795 -1.5348 -0.2565  0.1196
10391SOL     OW32388   4.811   0.976   5.713  0.2698  0.1249  0.3179
10391SOL    HW132389   4.757   0.934   5.780  1.7732  0.4440  1.8092
10391SOL    HW232390   4.885   0.917   5.702 -0.0881 -0.0554 -1.3092
10392SOL     OW32391   4.871   1.843   5.936  0.0408  0.1238 -0.5260
10392SOL    HW132392   4.870   1.923   5.885 -1.4723 -0.4238 -1.4115
10392SOL    HW232393   4.921   1.781   5.883  0.1393  0.1146 -0.4241
10393SOL     OW32394   3.964   1.502   6.713 -0.1834  0.5292  0.2911
10393SOL    HW132395   3.980   1.592   6.739 -0.1349  0.8168 -0.7051
10393SOL    HW232396   4.047   1.472   6.675 -0.6719  0.6137 -0.8886
10394SOL     OW32397   5.699   0.773   7.159 -0.2916 -0.0901  0.0974
10394SOL    HW132398   5.683   0.863   7.185 -2.1808  0.1429 -1.6346
10394SOL    HW232399   5.617   0.727   7.176  0.2565 -1.2116 -0.1466
10395SOL     OW32400   5.036   0.750   6.514 -0.0994 -0.2698  0.1417
10395SOL    HW132401   5.002   0.669   6.552 -1.6174 -0.2698 -1.1079
10395SOL    HW232402   5.053   0.728   6.422  0.9661  0.4303  0.1462
10396SOL     OW32403   4.237   8.725   6.762 -0.0735  0.0094 -0.0989
10396SOL    HW132404   4.178   8.794   6.794  2.6967  1.4606  2.3246
10396SOL    HW232405   4.275   8.761   6.683 -0.4064  0.2375 -0.1579
10397SOL     OW32406   4.019   1.379   5.761 -0.8801  0.7614  0.0086
10397SOL    HW132407   4.102   1.383   5.715 -2.3235 -0.7102 -2.9725
10397SOL    HW232408   4.037   1.326   5.839  0.8737  0.1871 -0.7480
10398SOL     OW32409   5.342   0.061   7.158 -0.4115 -0.2270  0.0381
10398SOL    HW132410   5.409   0.091   7.096 -0.2476 -0.3419  0.1609
10398SOL    HW232411   5.260   0.066   7.108 -0.5768  1.5899  0.4037
10399SOL     OW32412   3.902   1.490   6.070  0.0961  0.0580 -0.3437
10399SOL    HW132413   3.861   1.507   6.155  0.7439  2.4184 -0.4490
10399SOL    HW232414   3.990   1.526   6.078 -0.1713  1.2590 -2.3417
10400SOL     OW32415   4.171   1.083   7.374  0.1885  0.3807 -0.0377
10400SOL    HW132416   4.130   1.003   7.407  1.3837 -0.1191  0.2884
10400SOL    HW232417   4.253   1.091   7.423 -0.2251  2.2008  0.4294
10401SOL     OW32418   3.998   0.166   7.033  0.0917 -0.8011 -0.4038
10401SOL    HW132419   3.908   0.152   7.063 -0.3257 -0.3273 -1.3873
10401SOL    HW232420   4.024   0.081   6.996  0.6600 -1.4287  1.3639
10402SOL     OW32421   3.946   0.195   5.483 -0.2417  0.5760 -0.3863
10402SOL    HW132422   3.974   0.286   5.493  0.2347  0.5890 -1.6387
10402SOL    HW232423   4.011   0.156   5.424 -1.0679 -0.2792 -0.7662
10403SOL     OW32424   5.182   1.019   6.870  0.2299  0.5938 -0.5463
10403SOL    HW132425   5.153   0.929   6.856  0.7410  0.5347 -1.3007
10403SOL    HW232426   5.252   1.031   6.806  0.3102  1.4593 -0.3003
10404SOL     OW32427   3.837   0.224   5.756  0.3407  0.1220  0.0619
10404SOL    HW132428   3.835   0.139   5.800  2.1794 -0.5351 -0.9995
10404SOL    HW232429   3.872   0.205   5.669  0.7478  1.9592 -0.2197
10405SOL     OW32430   4.582   1.588   6.013 -0.2007  0.6447 -0.0894
10405SOL    HW132431   4.565   1.604   5.920 -2.2414 -1.4646 -0.1696
10405SOL    HW232432   4.677   1.595   6.022  0.0960  0.3211 -2.4372
10406SOL     OW32433   4.315   0.536   6.514 -0.2163 -0.2363 -0.2820
10406SOL    HW132434   4.299   0.622   6.554  1.6880 -0.1094  0.2772
10406SOL    HW232435   4.352   0.556   6.428  0.5853 -0.4710  0.0005
10407SOL     OW32436   5.365   2.091   5.918 -0.4702  0.6483  0.5027
10407SOL    HW132437   5.402   2.003   5.913 -0.7288  0.5935 -0.7633
10407SOL    HW232438   5.437   2.146   5.946  0.0591  0.2390 -0.0362
10408SOL     OW32439   4.397   0.547   7.126 -0.2858 -0.2479  0.4723
10408SOL    HW132440   4.321   0.532   7.182 -0.6504 -0.8050 -0.1503
10408SOL    HW232441   4.472   0.519   7.178 -0.4571  0.7326  1.2595
10409SOL     OW32442   5.466   1.542   6.870 -0.0007 -0.3413 -0.0362
10409SOL    HW132443   5.526   1.580   6.806 -0.8305  1.0271 -0.0480
10409SOL    HW232444   5.476   1.596   6.948 -1.3774  0.0933 -0.1254
10410SOL     OW32445   4.067   1.825   7.200 -0.1576  0.0399  0.0359
10410SOL    HW132446   3.988   1.867   7.166 -0.9770 -2.8294 -2.0435
10410SOL    HW232447   4.122   1.812   7.122  1.4775  0.1776  1.1212
10411SOL     OW32448   5.136   0.768   6.857  0.7260 -0.2068  1.0167
10411SOL    HW132449   5.079   0.691   6.867 -1.0401  0.6890 -1.1382
10411SOL    HW232450   5.207   0.754   6.919 -0.2924 -2.8698  1.7212
10412SOL     OW32451   4.519   8.715   6.348 -0.5154  0.1573 -0.0903
10412SOL    HW132452   4.537   8.759   6.265  1.7696  1.1890  0.8635
10412SOL    HW232453   4.555   8.627   6.337  1.1838  0.7687  0.2469
10413SOL     OW32454   4.346   0.312   5.996  0.2758  0.3449  0.1541
10413SOL    HW132455   4.275   0.305   6.060  1.3496 -1.2347  1.2602
10413SOL    HW232456   4.346   0.227   5.952  0.9703  0.6262 -0.3971
10414SOL     OW32457   5.546   0.140   6.932  0.0099 -0.1954  0.1055
10414SOL    HW132458   5.630   0.097   6.922  0.6067  0.7524  0.8955
10414SOL    HW232459   5.527   0.176   6.845  1.0555  0.7034  0.2282
10415SOL     OW32460   5.309   0.442   6.937  0.0634 -0.4857 -0.2961
10415SOL    HW132461   5.344   0.528   6.915  1.6541 -0.4439  2.0329
10415SOL    HW232462   5.359   0.381   6.884  1.8620 -0.2058  0.9791
10416SOL     OW32463   4.453   1.231   5.847 -0.0698  0.1747 -0.0987
10416SOL    HW132464   4.538   1.264   5.817 -0.7069 -0.0236 -2.2708
10416SOL    HW232465   4.472   1.142   5.878  1.0722  1.2890  2.7689
10417SOL     OW32466   4.403   1.596   6.721  0.5960 -0.2234  0.6844
10417SOL    HW132467   4.467   1.592   6.793 -1.4412  0.0437  2.6066
10417SOL    HW232468   4.380   1.688   6.715  1.4436 -0.0867 -1.0377
10418SOL     OW32469   4.908   0.610   6.189  0.2015 -0.1693  0.1127
10418SOL    HW132470   4.945   0.532   6.148 -0.4903 -1.2442  1.4389
10418SOL    HW232471   4.976   0.639   6.250  0.8620  0.8966 -1.0699
10419SOL     OW32472   4.394   0.356   5.377  0.4485  0.3338  0.3817
10419SOL    HW132473   4.362   0.435   5.332  0.4917  0.7087  1.0036
10419SOL    HW232474   4.461   0.321   5.318 -0.6034 -0.0832 -0.6196
10420SOL     OW32475   6.000   1.259   6.537  0.1193  0.2661  0.3184
10420SOL    HW132476   6.042   1.344   6.526  0.1898  0.1984  0.0632
10420SOL    HW232477   5.906   1.278   6.534  0.1191  0.4503  1.1266
10421SOL     OW32478   4.118   1.337   7.288 -0.2709 -0.0674  0.2591
10421SOL    HW132479   4.152   1.248   7.290 -0.9718 -0.4178 -1.5125
10421SOL    HW232480   4.029   1.329   7.322  0.1851  0.2295  1.5372
10422SOL     OW32481   4.121   1.238   5.986  0.2675  0.1331 -0.3319
10422SOL    HW132482   4.194   1.277   6.033 -0.5600  0.2594  0.8946
10422SOL    HW232483   4.139   1.144   5.987  0.3407  0.1487  0.1033
10423SOL     OW32484   4.098   1.388   7.021 -0.0058  0.4910  0.4512
10423SOL    HW132485   4.122   1.364   7.111 -1.7605  0.5936  0.9729
10423SOL    HW232486   4.034   1.323   6.994 -0.3548  1.1304 -0.3179
10424SOL     OW32487   5.487   0.241   6.664 -0.0996  0.0492  0.8989
10424SOL    HW132488   5.405   0.197   6.643  1.6558 -2.7066 -0.7355
10424SOL    HW232489   5.474   0.332   6.636 -1.2480 -1.2393 -3.5048
10425SOL     OW32490   3.795   8.714   5.598  0.4103 -0.3390  0.2348
10425SOL    HW132491   3.780   8.731   5.691  0.4042 -0.9889  0.3598
10425SOL    HW232492   3.872   8.657   5.597  0.0852 -0.7840 -0.1163
10426SOL     OW32493   5.600   1.098   6.805 -0.0529  0.3054 -0.3089
10426SOL    HW132494   5.558   1.104   6.891  0.3040  0.8624 -0.1686
10426SOL    HW232495   5.562   1.170   6.756  1.3810  1.3881  0.1064
10427SOL     OW32496   3.626   0.180   6.597  0.1371 -0.6563  0.2705
10427SOL    HW132497   3.557   0.240   6.569  0.8439 -0.7053 -1.7578
10427SOL    HW232498   3.622   0.181   6.692 -1.9260  0.1774  0.2174
10428SOL     OW32499   4.332   1.447   5.987 -0.0377  0.1599  0.5403
10428SOL    HW132500   4.419   1.486   5.995  0.2468 -0.5658  1.1114
10428SOL    HW232501   4.347   1.362   5.946 -0.5862  0.3985 -0.1668
10429SOL     OW32502   5.225   0.191   6.597  0.3490  0.2364  0.6384
10429SOL    HW132503   5.203   0.103   6.628 -1.3823 -0.2443 -1.6766
10429SOL    HW232504   5.159   0.247   6.638 -1.3582 -0.2658 -1.2276
10430SOL     OW32505   4.881   8.520   6.820  0.0898 -0.3605 -0.1706
10430SOL    HW132506   4.912   8.461   6.751  1.0127  0.0726 -0.1295
10430SOL    HW232507   4.960   8.561   6.854 -0.4519  0.1247  0.5188
10431SOL     OW32508   4.699   1.395   5.792  0.5299  0.8231  0.5530
10431SOL    HW132509   4.762   1.339   5.747 -1.6213 -1.8965  0.6487
10431SOL    HW232510   4.701   1.365   5.883 -0.8082  0.6995  0.5629
10432SOL     OW32511   4.613   1.615   6.903 -0.1357  0.1526  0.0059
10432SOL    HW132512   4.579   1.598   6.991  2.5855 -0.8952  0.9511
10432SOL    HW232513   4.700   1.576   6.903 -0.6952 -1.5228 -3.7717
10433SOL     OW32514   4.861   8.736   5.463  0.4243 -0.3212 -0.1910
10433SOL    HW132515   4.952   8.759   5.447  1.0155 -1.4913  1.2516
10433SOL    HW232516   4.854   8.731   5.558 -0.7548 -1.7141 -0.3170
10434SOL     OW32517   4.886   0.379   6.367  0.4818 -0.2160 -0.1741
10434SOL    HW132518   4.836   0.457   6.341 -0.9014 -1.4747 -1.5079
10434SOL    HW232519   4.921   0.401   6.454 -1.1454  1.3069  0.1606
10435SOL     OW32520   5.412   0.222   6.063  0.0467  0.5467  0.3342
10435SOL    HW132521   5.445   0.254   6.147  2.3670  0.7438 -0.6023
10435SOL    HW232522   5.461   0.271   5.997 -0.6819 -0.6496 -1.1526
10436SOL     OW32523   3.213   1.322   6.105 -0.1926  0.0150  0.8119
10436SOL    HW132524   3.135   1.346   6.054  0.3384 -0.3946 -0.2229
10436SOL    HW232525   3.216   1.386   6.176  0.1292  1.8741 -0.7808
10437SOL     OW32526   4.571   1.613   5.720 -0.1756  0.5240  0.8276
10437SOL    HW132527   4.614   1.534   5.753  0.5387  1.0940  1.2940
10437SOL    HW232528   4.570   1.602   5.625 -1.5636 -0.7858  0.9664
10438SOL     OW32529   3.770   0.804   7.138 -0.2572  0.0339  0.0667
10438SOL    HW132530   3.778   0.835   7.228  1.0292 -0.3164  0.1010
10438SOL    HW232531   3.824   0.725   7.135 -0.0154  0.2222 -1.0927
10439SOL     OW32532   3.913   0.548   8.249  0.0955 -0.3565  0.1976
10439SOL    HW132533   3.966   0.482   8.204 -0.0261  0.3229 -0.9837
10439SOL    HW232534   3.910   0.519   8.340  1.6994 -0.9137  0.0998
10440SOL     OW32535   3.539   0.945   7.745 -0.3168 -0.2556  0.0021
10440SOL    HW132536   3.617   1.001   7.735 -0.8170  0.6135  0.8106
10440SOL    HW232537   3.572   0.866   7.788  0.3041 -0.3687 -0.6594
10441SOL     OW32538   4.370   1.126   0.278  0.6026 -0.2868 -0.0224
10441SOL    HW132539   4.458   1.107   0.245  0.0512 -0.8753 -1.2318
10441SOL    HW232540   4.312   1.093   0.210 -0.5445  3.5284 -1.1237
10442SOL     OW32541   5.340   1.301   8.028 -0.1958  0.1247  0.1744
10442SOL    HW132542   5.269   1.323   8.089 -0.6914  3.1317 -1.3333
10442SOL    HW232543   5.325   1.357   7.952  1.8058 -1.7301 -1.7361
10443SOL     OW32544   5.092   0.556   7.212  0.2606 -0.3319  0.4328
10443SOL    HW132545   5.068   0.642   7.179 -1.0657 -0.3252  1.3267
10443SOL    HW232546   5.091   0.565   7.307  1.4213 -1.0084  0.5263
10444SOL     OW32547   5.714   0.690   7.744  0.4849  0.2385  0.1811
10444SOL    HW132548   5.628   0.729   7.723  1.1187  0.3135 -2.8444
10444SOL    HW232549   5.714   0.608   7.695  1.8651 -0.1102  0.7475
10445SOL     OW32550   4.235   0.811   7.940 -0.0674  0.3038 -0.5611
10445SOL    HW132551   4.296   0.741   7.914 -0.9558 -1.5849  2.0494
10445SOL    HW232552   4.289   0.872   7.990  0.2763  0.3186 -0.9416
10446SOL     OW32553   4.748   0.715   7.408 -0.3015  0.3129 -0.7497
10446SOL    HW132554   4.692   0.750   7.478  0.5584 -0.4036  0.3275
10446SOL    HW232555   4.702   0.637   7.377  0.6638 -1.0190  1.0190
10447SOL     OW32556   4.373   0.893   8.166 -0.4496 -0.9440 -0.6655
10447SOL    HW132557   4.358   0.885   8.260 -2.9836 -0.3388 -0.9599
10447SOL    HW232558   4.413   0.980   8.156 -0.6892 -0.7764 -0.2073
10448SOL     OW32559   4.400   0.298   8.637 -0.5783  1.1301  0.5127
10448SOL    HW132560   4.425   0.385   8.605  0.8681  0.7223  0.4634
10448SOL    HW232561   4.390   0.245   8.559  0.3054  0.8117  0.6072
10449SOL     OW32562   5.132   8.720   7.837  0.0818 -0.2186  0.4546
10449SOL    HW132563   5.209   8.675   7.802  0.6270 -0.2874  1.6805
10449SOL    HW232564   5.168   8.794   7.886 -0.7263  0.6532 -0.2302
10450SOL     OW32565   4.269   1.585   7.602  0.4825  0.2281 -0.1512
10450SOL    HW132566   4.217   1.610   7.525  0.1081 -0.7814 -0.2506
10450SOL    HW232567   4.311   1.666   7.630  0.0785  0.7545 -1.0086
10451SOL     OW32568   4.321   1.636   7.917 -0.1873 -0.2254 -0.0911
10451SOL    HW132569   4.355   1.719   7.952  2.5122 -0.8245 -1.0893
10451SOL    HW232570   4.341   1.639   7.824 -1.5780 -1.3514 -0.4706
10452SOL     OW32571   4.004   1.002   8.319 -0.0656  0.3474 -0.4901
10452SOL    HW132572   4.074   1.067   8.309  1.2146 -0.9511 -0.3262
10452SOL    HW232573   4.039   0.923   8.278 -0.9255 -0.6994  0.7292
10453SOL     OW32574   4.119   1.762   8.710 -0.1973 -0.7031 -0.3261
10453SOL    HW132575   4.055   1.817   8.755  0.9428 -0.1461  0.6764
10453SOL    HW232576   4.097   1.673   8.736  0.1683 -0.4260  1.0387
10454SOL     OW32577   4.344   0.292   7.576 -0.3011  0.2768  0.0830
10454SOL    HW132578   4.351   0.247   7.491  2.3496 -0.3396  0.5254
10454SOL    HW232579   4.259   0.265   7.610 -0.2439 -1.7403 -1.1582
10455SOL     OW32580   3.703   0.926   8.713 -0.5610 -0.2313  0.1892
10455SOL    HW132581   3.782   0.959   8.670 -0.0856  0.4797  1.5671
10455SOL    HW232582   3.685   0.842   8.669  1.6639 -1.0226  0.6680
10456SOL     OW32583   5.121   1.673   7.773  0.3955  0.2478 -0.2472
10456SOL    HW132584   5.038   1.694   7.730 -0.0342  0.2490  0.5566
10456SOL    HW232585   5.162   1.607   7.717 -0.5543 -0.3912 -0.2190
10457SOL     OW32586   3.953   1.372   7.669  0.3690  0.0763  0.2814
10457SOL    HW132587   3.876   1.416   7.634  0.4661 -1.5339 -2.2940
10457SOL    HW232588   3.925   1.337   7.753 -1.9074 -0.8568 -0.7794
10458SOL     OW32589   5.027   0.631   8.225  0.5168 -0.3638 -0.5266
10458SOL    HW132590   4.965   0.559   8.212 -0.7278  0.2010  1.7334
10458SOL    HW232591   5.004   0.694   8.157 -2.0157  0.1603  0.6794
10459SOL     OW32592   5.490   1.270   7.394  0.3226  0.0552  0.3571
10459SOL    HW132593   5.440   1.265   7.476  0.6643 -0.7730  0.5259
10459SOL    HW232594   5.553   1.198   7.400  0.0853 -0.2682 -0.8170
10460SOL     OW32595   4.001   1.530   8.277 -0.1471  0.4600  0.3453
10460SOL    HW132596   4.029   1.619   8.300  3.5162 -0.5423  0.3692
10460SOL    HW232597   3.954   1.498   8.354  2.3696  0.9123  2.1496
10461SOL     OW32598   4.424   0.161   7.914  0.4371 -0.1641 -0.6675
10461SOL    HW132599   4.406   0.142   7.822 -1.7378  0.8995 -0.5368
10461SOL    HW232600   4.370   0.098   7.962  0.7103 -0.0056 -0.1412
10462SOL     OW32601   3.710   1.252   0.006 -0.2829  0.2070 -0.0473
10462SOL    HW132602   3.693   1.329   0.060  0.1900  0.3099 -0.0393
10462SOL    HW232603   3.674   1.274  -0.080 -2.1232 -0.4205  0.5135
10463SOL     OW32604   5.484   0.990   7.517  0.4469 -0.1343 -0.3555
10463SOL    HW132605   5.427   0.914   7.531  0.0084  0.4217  1.0396
10463SOL    HW232606   5.554   0.981   7.582 -0.9806  1.9019  1.6497
10464SOL     OW32607   4.796   1.586   8.027 -0.1382 -0.0659  0.5872
10464SOL    HW132608   4.702   1.569   8.024 -0.1156 -0.0617 -0.7116
10464SOL    HW232609   4.834   1.517   7.972  0.7947 -1.1330  2.4972
10465SOL     OW32610   5.576   2.010   7.850  0.1749 -0.0296 -0.1103
10465SOL    HW132611   5.563   2.097   7.813  1.0099  1.1147  2.0812
10465SOL    HW232612   5.598   2.026   7.942  0.9674 -2.5370  0.2201
10466SOL     OW32613   4.428   0.530   7.436 -0.3777 -0.2486 -0.6438
10466SOL    HW132614   4.516   0.495   7.450 -0.7860 -1.2852 -0.5324
10466SOL    HW232615   4.373   0.452   7.422 -1.2677  0.3779 -0.7634
10467SOL     OW32616   5.077   0.883   8.534  0.3705  0.0375 -0.0473
10467SOL    HW132617   5.088   0.788   8.528  0.5059 -0.3690  4.0935
10467SOL    HW232618   5.164   0.918   8.513  1.0801 -0.9777  1.0461
10468SOL     OW32619   5.289   1.900   7.898  0.2965  0.0046 -0.1883
10468SOL    HW132620   5.223   1.906   7.829  0.1931 -0.1146 -0.0994
10468SOL    HW232621   5.371   1.924   7.854 -0.0806  2.1020  0.1415
10469SOL     OW32622   4.633   0.998   8.765 -0.3353  0.5015 -0.0298
10469SOL    HW132623   4.598   0.925   8.713  0.7974 -0.8115  0.9543
10469SOL    HW232624   4.665   1.061   8.701 -2.1516  0.5837 -0.9226
10470SOL     OW32625   4.928   0.073   0.003 -0.1475 -0.3498 -0.4828
10470SOL    HW132626   4.897   0.158  -0.030 -0.7712  0.1006  1.1283
10470SOL    HW232627   4.868   0.009  -0.036  0.3629 -0.0722 -1.7580
10471SOL     OW32628   4.704   0.529   7.901 -0.1405  0.1228  0.0496
10471SOL    HW132629   4.632   0.571   7.948  0.7107  1.2886  0.3537
10471SOL    HW232630   4.661   0.477   7.833 -1.2643  0.8536  0.1771
10472SOL     OW32631   3.950   0.933   8.601  0.2721 -0.4451  0.1335
10472SOL    HW132632   4.003   0.857   8.625  1.6525  0.4683  0.0395
10472SOL    HW232633   3.986   0.963   8.518 -1.7095 -0.9952 -1.0034
10473SOL     OW32634   3.862   2.159   8.615 -0.1527 -0.3589  0.4003
10473SOL    HW132635   3.782   2.207   8.634  0.5137  1.4618 -1.2127
10473SOL    HW232636   3.932   2.214   8.649  0.5523 -1.0090  0.0387
10474SOL     OW32637   4.841   0.214   7.965 -0.4309 -0.7847  0.0698
10474SOL    HW132638   4.755   0.180   7.941 -0.2764 -1.1536  0.0205
10474SOL    HW232639   4.892   0.210   7.884 -0.7830  0.7957 -0.2638
10475SOL     OW32640   5.468   0.903   7.993 -0.5993 -0.1907 -0.2971
10475SOL    HW132641   5.536   0.843   8.023 -0.0259  1.1410  1.2376
10475SOL    HW232642   5.421   0.855   7.926  0.8003 -1.7695 -0.2063
10476SOL     OW32643   4.079   0.290   8.582  0.5321  0.3216 -0.1119
10476SOL    HW132644   4.045   0.336   8.659  0.3997 -1.3457  0.8861
10476SOL    HW232645   4.162   0.251   8.612  0.1707 -0.8780 -0.5837
10477SOL     OW32646   4.729   1.194   7.882  0.4610 -0.4194 -1.1013
10477SOL    HW132647   4.731   1.180   7.977 -1.5199 -1.3281 -1.1351
10477SOL    HW232648   4.684   1.277   7.871  0.8660 -0.2186 -1.2444
10478SOL     OW32649   4.121   1.776   8.391 -0.1456 -0.0983  0.5190
10478SOL    HW132650   4.117   1.749   8.483 -1.0744 -0.0108  0.5082
10478SOL    HW232651   4.061   1.850   8.385 -1.6005 -1.3272 -0.5662
10479SOL     OW32652   5.342   0.702   8.175  0.6130  0.2465 -0.6200
10479SOL    HW132653   5.247   0.698   8.180  0.6449 -1.2563 -0.6722
10479SOL    HW232654   5.362   0.684   8.083  0.9248  2.0653 -0.9511
10480SOL     OW32655   3.856   0.817   7.399  0.2654 -0.0481 -0.4789
10480SOL    HW132656   3.804   0.749   7.443  0.1700  0.6988  0.5925
10480SOL    HW232657   3.945   0.782   7.398  0.1439 -0.3662 -0.2992
10481SOL     OW32658   5.013   0.601   8.495 -0.1118  0.2690  0.0533
10481SOL    HW132659   5.014   0.609   8.400 -2.4741  0.1233 -0.0593
10481SOL    HW232660   5.009   0.507   8.511 -2.2377  0.3064  0.1203
10482SOL     OW32661   5.082   1.840   7.376 -0.2092  0.2583 -0.0244
10482SOL    HW132662   5.026   1.872   7.447 -1.8289 -1.2971 -0.5163
10482SOL    HW232663   5.134   1.915   7.350 -2.1399  1.8220  0.4218
10483SOL     OW32664   5.260   1.501   7.612 -0.2664  0.1618  0.6769
10483SOL    HW132665   5.213   1.542   7.538  0.5132  1.3570  0.8216
10483SOL    HW232666   5.251   1.407   7.596  0.6655  0.3760 -1.4604
10484SOL     OW32667   4.392   1.785   7.359  0.2516 -0.3420  0.4193
10484SOL    HW132668   4.380   1.698   7.395 -0.7193 -0.1133  0.6925
10484SOL    HW232669   4.303   1.816   7.341  0.5199  0.8648  1.0104
10485SOL     OW32670   5.544   0.060   7.897 -0.3707  0.3058  0.3649
10485SOL    HW132671   5.614   0.026   7.951 -1.2969 -1.6147  0.4294
10485SOL    HW232672   5.585   0.129   7.844  1.1935  0.2088  1.4064
10486SOL     OW32673   3.813   1.884   8.244  0.4702  0.0163  0.0519
10486SOL    HW132674   3.864   1.893   8.164  0.9627  1.0721  0.4689
10486SOL    HW232675   3.862   1.934   8.309 -0.6299  0.2873  0.6847
10487SOL     OW32676   4.335   1.255   7.978  0.0254  0.0095  0.1083
10487SOL    HW132677   4.289   1.257   7.895  0.1314 -0.5351  0.0334
10487SOL    HW232678   4.272   1.287   8.042 -0.6068 -1.1047  0.0739
10488SOL     OW32679   4.142   0.939   7.672  0.0844  0.1695  0.1340
10488SOL    HW132680   4.081   0.918   7.743  0.3357  0.6048  0.4868
10488SOL    HW232681   4.126   0.873   7.606  1.6155 -1.8619  1.6685
10489SOL     OW32682   4.373   0.032   7.674 -0.2355 -0.8555  0.6405
10489SOL    HW132683   4.364  -0.057   7.710  0.3647 -1.4111 -0.5322
10489SOL    HW232684   4.437   0.023   7.604 -0.4089  0.4540  0.2962
10490SOL     OW32685   4.908   1.831   8.120 -0.2295  0.2414  0.1022
10490SOL    HW132686   4.893   1.739   8.098 -1.2430  0.3610  0.2635
10490SOL    HW232687   4.853   1.880   8.058 -0.3432  0.7045  0.5623
10491SOL     OW32688   4.516   1.117   8.130  0.1402 -0.3671 -0.1691
10491SOL    HW132689   4.606   1.149   8.140  0.5258 -1.1711 -0.9855
10491SOL    HW232690   4.471   1.188   8.084  0.7667 -0.5928 -1.1635
10492SOL     OW32691   4.848   0.932   8.406 -0.1107 -0.0009  0.1922
10492SOL    HW132692   4.872   0.970   8.322  1.3022  0.3657  0.7280
10492SOL    HW232693   4.932   0.919   8.451 -0.8192 -0.3945  1.4466
10493SOL     OW32694   4.380   0.114   8.391  0.4543 -0.6539 -0.0128
10493SOL    HW132695   4.446   0.131   8.323 -1.3947  2.8019 -1.1759
10493SOL    HW232696   4.406   0.030   8.428  3.3487 -1.2490 -2.8866
10494SOL     OW32697   5.510   1.092   7.059 -0.7371 -0.2494 -0.2175
10494SOL    HW132698   5.455   1.161   7.094 -0.4321 -0.4473  0.6635
10494SOL    HW232699   5.546   1.048   7.135  0.8976  0.0792 -0.7594
10495SOL     OW32700   4.310   0.402   7.952 -0.0837 -0.1813 -0.4942
10495SOL    HW132701   4.352   0.320   7.929 -0.0274  0.2329 -2.0426
10495SOL    HW232702   4.381   0.465   7.959 -0.3221  0.3571 -2.3627
10496SOL     OW32703   4.563   8.476   7.888  0.4392  0.2908 -0.2551
10496SOL    HW132704   4.606   8.411   7.833  2.4234  1.4167 -0.1238
10496SOL    HW232705   4.515   8.425   7.953 -0.1244 -1.0282 -1.6563
10497SOL     OW32706   5.055   0.803   7.754  0.4806  0.1595  0.2673
10497SOL    HW132707   5.043   0.895   7.729 -0.6658  0.1168  0.6277
10497SOL    HW232708   4.989   0.756   7.705  1.8350 -0.6674 -0.8413
10498SOL     OW32709   4.568   0.993   7.800  0.1559 -0.7473  0.0370
10498SOL    HW132710   4.483   1.037   7.805 -0.3355 -1.7667  1.2576
10498SOL    HW232711   4.631   1.061   7.823 -0.1898  0.2875 -1.8489
10499SOL     OW32712   5.050   1.416   7.884  0.7227  0.0699  0.3471
10499SOL    HW132713   5.085   1.505   7.878 -0.5574  0.6260  0.8667
10499SOL    HW232714   5.015   1.397   7.797 -0.0308  0.5264  0.5418
10500SOL     OW32715   4.651   0.475   7.248  0.5463 -0.0257  0.3543
10500SOL    HW132716   4.706   0.504   7.176 -0.3088 -0.9775 -0.7220
10500SOL    HW232717   4.645   0.380   7.237 -1.8901  0.1075 -0.0299
10501SOL     OW32718   4.244   0.556   8.514 -0.4255  0.5925 -0.9451
10501SOL    HW132719   4.314   0.520   8.461 -1.2942  0.2595 -1.9041
10501SOL    HW232720   4.282   0.567   8.601  0.2344 -1.4369 -0.9383
10502SOL     OW32721   4.578   0.414   8.159 -0.0019  0.6980  0.5721
10502SOL    HW132722   4.582   0.321   8.185  0.0693  0.9110  1.3623
10502SOL    HW232723   4.667   0.434   8.130  0.3739  0.8782  1.7566
10503SOL     OW32724   4.619   0.147   8.248  0.5056  0.3063  0.1363
10503SOL    HW132725   4.627   0.070   8.191  0.7630  1.1952 -1.0850
10503SOL    HW232726   4.694   0.140   8.307  0.6330 -0.2885 -0.0813
10504SOL     OW32727   5.454   0.805   8.790  0.0282 -0.7190  0.0332
10504SOL    HW132728   5.368   0.836   8.818  0.2097 -0.0555 -0.1152
10504SOL    HW232729   5.491   0.879   8.741  1.7363  0.0057  2.2363
10505SOL     OW32730   5.634   0.482   8.326  0.0079 -0.2482  0.2906
10505SOL    HW132731   5.603   0.447   8.410  0.0681 -0.1339  0.3598
10505SOL    HW232732   5.625   0.577   8.335  2.2212 -0.0651  1.0435
10506SOL     OW32733   6.065   0.581   7.958  0.2929  0.4139 -0.3679
10506SOL    HW132734   6.016   0.500   7.941  0.4395  0.1014  0.6610
10506SOL    HW232735   6.135   0.580   7.893  0.2553 -0.2550 -0.4040
10507SOL     OW32736   4.340   1.515   7.321  0.1602  0.2247  0.4772
10507SOL    HW132737   4.353   1.528   7.227  1.5528  1.5991  0.8229
10507SOL    HW232738   4.263   1.459   7.327  0.1031  0.0324 -1.4834
10508SOL     OW32739   5.042   0.871   8.035  0.0974 -0.0100 -0.3896
10508SOL    HW132740   4.970   0.842   7.979 -0.8918 -0.5437  1.0804
10508SOL    HW232741   5.093   0.931   7.980  1.0345 -2.8250 -2.8832
10509SOL     OW32742   5.257   0.310   7.772 -0.2986  0.3321 -0.1606
10509SOL    HW132743   5.308   0.335   7.695  1.0439 -0.1335  0.5402
10509SOL    HW232744   5.167   0.307   7.741  0.3653 -1.4804 -2.1585
10510SOL     OW32745   3.654   0.721   7.820  0.4433 -0.7096  0.2287
10510SOL    HW132746   3.668   0.736   7.913 -2.4951  0.6900  0.5696
10510SOL    HW232747   3.742   0.710   7.784  1.8239  0.7197  2.8389
10511SOL     OW32748   5.733   1.032   0.215  0.3425 -0.2067  0.4478
10511SOL    HW132749   5.758   0.946   0.250 -0.2909 -1.1089 -1.2377
10511SOL    HW232750   5.659   1.059   0.270  1.6626  0.1445  2.1576
10512SOL     OW32751   4.993   1.088   8.196 -0.0764  0.3905  0.2634
10512SOL    HW132752   5.014   1.011   8.144 -2.4731 -0.1941  0.0399
10512SOL    HW232753   5.078   1.129   8.215  1.0629 -0.9985 -1.5775
10513SOL     OW32754   5.125   0.470   8.734 -0.5778 -0.5729 -0.5955
10513SOL    HW132755   5.083   0.487   8.819  1.7604  0.0245  0.5344
10513SOL    HW232756   5.088   0.536   8.676 -1.9452 -0.7379  0.0463
10514SOL     OW32757   4.517   1.071   7.467 -0.0763  0.0021 -0.0968
10514SOL    HW132758   4.492   1.163   7.456 -1.4544 -0.3395  0.0267
10514SOL    HW232759   4.469   1.042   7.545 -2.1063 -1.6202 -1.8401
10515SOL     OW32760   4.195   1.070   0.057 -0.2624 -0.1941 -0.5053
10515SOL    HW132761   4.101   1.052   0.062 -0.4799  1.0144  0.3368
10515SOL    HW232762   4.201   1.158   0.020  0.4824  0.0847  0.2364
10516SOL     OW32763   5.018   0.249   8.396 -0.2604 -0.4092 -0.3592
10516SOL    HW132764   5.057   0.231   8.481  0.2943 -0.8201 -0.6954
10516SOL    HW232765   5.007   0.163   8.355 -1.6688 -0.3255 -0.2160
10517SOL     OW32766   4.530   1.269   0.623 -0.6772  0.0258  0.1489
10517SOL    HW132767   4.582   1.230   0.553 -1.2722  0.3102 -0.4597
10517SOL    HW232768   4.441   1.238   0.607 -0.6721 -0.6371  1.3105
10518SOL     OW32769   4.199   1.196   8.215 -0.3131 -0.0742 -0.1253
10518SOL    HW132770   4.196   1.290   8.232  2.0660 -0.2574  1.9198
10518SOL    HW232771   4.276   1.165   8.263  0.2463 -2.7450 -2.4483
10519SOL     OW32772   3.967   0.842   7.882 -0.4699 -0.2332 -0.1291
10519SOL    HW132773   3.925   0.839   7.968 -1.0314 -0.1117 -0.3926
10519SOL    HW232774   4.050   0.797   7.894 -1.2804 -1.7475  0.0662
10520SOL     OW32775   4.992   1.087   7.794  0.2197 -0.4914 -0.0604
10520SOL    HW132776   4.933   1.151   7.833  0.7690  0.3609 -0.5912
10520SOL    HW232777   5.069   1.088   7.851  1.0987  0.8897 -1.2153
10521SOL     OW32778   4.964   1.338   8.578 -0.1039  0.8450 -0.2915
10521SOL    HW132779   5.054   1.366   8.558 -0.1884  0.9600 -0.5223
10521SOL    HW232780   4.972   1.289   8.659  0.1734  0.8342 -0.3211
10522SOL     OW32781   5.290   0.087   7.918 -0.1510  0.4070  0.1828
10522SOL    HW132782   5.283   0.180   7.896  1.5460  0.8489  1.2917
10522SOL    HW232783   5.382   0.067   7.904  0.2767 -0.1772  3.2349
10523SOL     OW32784   4.688   1.190   0.408 -0.4939 -0.1876  0.2479
10523SOL    HW132785   4.656   1.195   0.318 -0.5586  0.3006  0.2960
10523SOL    HW232786   4.783   1.202   0.400 -0.5578  0.4008  0.2873
10524SOL     OW32787   4.359   1.199   8.481  0.2673 -0.1986 -0.0953
10524SOL    HW132788   4.271   1.192   8.518 -0.1135  0.3983 -0.8677
10524SOL    HW232789   4.414   1.223   8.556  0.2626 -3.0888  0.9369
10525SOL     OW32790   4.727   0.684   8.458  0.3507 -0.0259 -0.1797
10525SOL    HW132791   4.729   0.779   8.447 -1.5867 -0.0947 -1.8099
10525SOL    HW232792   4.819   0.659   8.468  0.9198  1.9847  0.0478
10526SOL     OW32793   5.025   0.609   7.454 -0.1765  0.1205  0.4877
10526SOL    HW132794   5.012   0.518   7.483  0.1682  0.5243  2.0104
10526SOL    HW232795   4.938   0.648   7.458 -0.4650 -0.3355 -0.9442
10527SOL     OW32796   3.651   0.352   8.672 -0.0789 -0.0987  0.0813
10527SOL    HW132797   3.627   0.265   8.641 -0.6716 -0.1669  0.6930
10527SOL    HW232798   3.599   0.363   8.752 -0.7923  1.2077 -0.5299
10528SOL     OW32799   3.980   1.715   0.711  0.2438 -0.0401 -0.5371
10528SOL    HW132800   4.030   1.636   0.695 -0.7890 -0.7531 -0.3314
10528SOL    HW232801   4.031   1.764   0.775  0.0552 -1.3737  0.6876
10529SOL     OW32802   4.502   0.744   7.936 -0.0780  0.2393  0.1399
10529SOL    HW132803   4.516   0.762   8.029  0.1402 -0.0688  0.1689
10529SOL    HW232804   4.513   0.828   7.893  2.6443 -0.0649  0.0600
10530SOL     OW32805   4.147   0.578   7.763 -0.0099  0.5539  0.2408
10530SOL    HW132806   4.165   0.541   7.849  1.4512  1.5344  0.3831
10530SOL    HW232807   4.229   0.620   7.737  0.0679 -0.9644 -2.2788
10531SOL     OW32808   5.737   0.724   8.017 -0.3938 -0.3897 -0.0365
10531SOL    HW132809   5.736   0.708   7.922 -1.9406 -0.7258  0.0069
10531SOL    HW232810   5.779   0.647   8.055 -0.7370 -0.7516 -0.3816
10532SOL     OW32811   4.684   0.786   8.143  0.7493  0.3664  0.0521
10532SOL    HW132812   4.634   0.867   8.153 -0.9538 -0.5109 -0.8911
10532SOL    HW232813   4.708   0.761   8.232  1.4164  1.9400  0.3507
10533SOL     OW32814   5.014   0.112   7.735  0.3830 -0.1069  0.1018
10533SOL    HW132815   5.077   0.115   7.664  0.7774 -0.9487  0.4110
10533SOL    HW232816   5.008   0.020   7.759  0.3432  0.1673  1.2267
10534SOL     OW32817   4.891   0.297   7.228 -0.0314  0.2424  0.2610
10534SOL    HW132818   4.918   0.363   7.292  1.3750  0.0684 -0.1141
10534SOL    HW232819   4.933   0.325   7.147  1.6380 -1.7323  0.3586
10535SOL     OW32820   4.884   0.460   8.087 -0.3156  0.6933 -0.6750
10535SOL    HW132821   4.901   0.370   8.062 -1.5839  0.6856 -1.5968
10535SOL    HW232822   4.818   0.491   8.025 -2.4266  1.1838  1.6165
10536SOL     OW32823   4.041   1.115   8.021  0.2775  0.2884  0.1780
10536SOL    HW132824   4.104   1.150   8.085  0.2079 -0.4633  0.6594
10536SOL    HW232825   4.048   1.020   8.029  0.1684  0.1833 -0.8434
10537SOL     OW32826   3.711   0.700   8.566  0.1653 -0.9138  0.3738
10537SOL    HW132827   3.783   0.639   8.579  1.2172 -0.2683 -1.8639
10537SOL    HW232828   3.738   0.753   8.491 -1.7204  0.7725  0.7958
10538SOL     OW32829   5.123   0.149   8.614 -0.1678 -0.7262 -0.7117
10538SOL    HW132830   5.127   0.055   8.629 -1.0287 -0.4984  1.2925
10538SOL    HW232831   5.179   0.187   8.681 -1.4504  0.2649 -0.1522
10539SOL     OW32832   3.691   1.429   7.575 -0.2010 -0.2173  0.4122
10539SOL    HW132833   3.636   1.379   7.516  0.0316  0.4093 -0.3589
10539SOL    HW232834   3.635   1.450   7.650  0.1743 -3.0894  1.6242
10540SOL     OW32835   3.793   1.541   8.478 -0.2333 -0.7601 -0.1261
10540SOL    HW132836   3.709   1.528   8.433 -0.8284  2.5134 -0.2376
10540SOL    HW232837   3.768   1.570   8.566  0.8317 -0.9282  0.2476
10541SOL     OW32838   4.421   1.518   8.376  0.0346 -0.0357  0.1950
10541SOL    HW132839   4.336   1.533   8.334 -0.1218  0.5173  0.6945
10541SOL    HW232840   4.432   1.423   8.375 -0.0678 -0.0516 -0.8955
10542SOL     OW32841   4.810   0.524   8.761 -0.2278 -0.4539  0.2005
10542SOL    HW132842   4.727   0.563   8.789 -0.0226  0.6435 -0.6496
10542SOL    HW232843   4.786   0.462   8.693 -0.4194 -0.6675  0.4638
10543SOL     OW32844   3.463   0.451   8.462 -0.1322 -0.4665 -0.5406
10543SOL    HW132845   3.531   0.443   8.529 -0.5610 -0.6357 -0.1238
10543SOL    HW232846   3.386   0.411   8.501 -0.0989 -1.5731 -1.5571
10544SOL     OW32847   4.371   0.690   7.658  0.5217  0.1879  0.2509
10544SOL    HW132848   4.461   0.715   7.677  0.7707 -1.1007  0.8880
10544SOL    HW232849   4.377   0.637   7.578  0.3824 -0.1875  0.4856
10545SOL     OW32850   5.382   0.502   8.533  0.2688  0.5196  0.0179
10545SOL    HW132851   5.325   0.517   8.609  1.8016  0.9819  1.1429
10545SOL    HW232852   5.427   0.586   8.521  0.5685  0.2265 -0.9550
10546SOL     OW32853   4.374   0.680   8.745 -0.6528 -0.3582  0.5744
10546SOL    HW132854   4.343   0.736   8.817 -2.2190  0.0980 -0.4001
10546SOL    HW232855   4.423   0.738   8.688 -1.1186 -0.2595  0.2647
10547SOL     OW32856   4.563   1.617   8.705  0.0616  0.1056  0.0388
10547SOL    HW132857   4.598   1.645   8.789 -1.6520  0.2239  0.7630
10547SOL    HW232858   4.508   1.690   8.677 -1.8508 -1.1568  0.3439
10548SOL     OW32859   3.914   0.627   7.626  0.2870  0.3467 -0.0882
10548SOL    HW132860   3.965   0.612   7.706  0.2226  0.8132  0.0465
10548SOL    HW232861   3.978   0.623   7.555  0.7996  2.3647  0.1925
10549SOL     OW32862   4.289   1.091   0.543  0.6394  0.5798 -0.1444
10549SOL    HW132863   4.321   1.107   0.454  1.0866 -0.1760 -0.1275
10549SOL    HW232864   4.219   1.026   0.532 -1.4221  2.6736 -0.2570
10550SOL     OW32865   4.985   0.648   0.048 -1.0243  0.2405  0.3954
10550SOL    HW132866   5.000   0.735   0.013  2.7457 -0.9415 -1.4270
10550SOL    HW232867   4.906   0.617   0.002 -0.7065  1.6258 -1.1699
10551SOL     OW32868   4.832   0.977   7.362  0.5070 -0.4250 -0.0040
10551SOL    HW132869   4.809   0.885   7.379  0.6183 -0.4812 -0.1514
10551SOL    HW232870   4.751   1.016   7.330 -0.1266  0.0584  2.0365
10552SOL     OW32871   5.823   1.450   8.374 -0.0497 -0.1098 -0.3170
10552SOL    HW132872   5.739   1.495   8.361 -0.9126 -1.5605  0.0745
10552SOL    HW232873   5.881   1.490   8.309 -1.0472  0.8605 -0.6573
10553SOL     OW32874   5.101   1.508   8.275  0.5012 -0.0095 -0.2336
10553SOL    HW132875   5.057   1.460   8.205 -3.0718 -2.8031  3.4395
10553SOL    HW232876   5.182   1.458   8.290  0.6000 -0.2259 -1.4197
10554SOL     OW32877   4.065   1.230   8.532  0.1615 -0.0388 -0.2195
10554SOL    HW132878   4.018   1.300   8.487 -0.4266 -1.2478 -1.5819
10554SOL    HW232879   3.997   1.184   8.582  0.5480  0.3527  0.6871
10555SOL     OW32880   5.600   0.397   7.875  0.6123  0.6052  1.0148
10555SOL    HW132881   5.537   0.377   7.944 -0.3474 -0.4456 -0.1327
10555SOL    HW232882   5.639   0.481   7.902  0.9958 -0.2415  3.3212
10556SOL     OW32883   5.349   1.531   7.876 -0.1260 -0.2478 -0.4393
10556SOL    HW132884   5.295   1.610   7.885 -2.5971 -1.6686 -1.7550
10556SOL    HW232885   5.352   1.514   7.782  1.6206 -0.9601 -0.3013
10557SOL     OW32886   5.457   0.755   7.703  0.1415  0.1664 -0.4326
10557SOL    HW132887   5.390   0.744   7.770  1.5260  0.0024  0.9601
10557SOL    HW232888   5.417   0.718   7.624 -0.7935 -1.4256  0.7276
10558SOL     OW32889   4.978   1.760   7.125  0.4669 -0.1562 -0.7642
10558SOL    HW132890   4.922   1.825   7.167  1.0390 -0.3350  0.3098
10558SOL    HW232891   5.041   1.735   7.193  1.4462 -0.4327 -1.7459
10559SOL     OW32892   5.928   0.299   8.774 -0.3802  0.1013  0.4145
10559SOL    HW132893   5.994   0.232   8.792  0.3072  0.8425  0.7134
10559SOL    HW232894   5.846   0.250   8.764 -0.1512 -0.6887  2.0020
10560SOL     OW32895   3.350   0.469   7.929 -0.1340 -0.3318 -0.2697
10560SOL    HW132896   3.275   0.503   7.978 -0.2519  1.2443 -1.4481
10560SOL    HW232897   3.425   0.486   7.985 -0.5192 -0.7768  0.3888
10561SOL     OW32898   4.748   1.452   7.245 -0.5070  0.3053 -0.8433
10561SOL    HW132899   4.671   1.498   7.213 -2.0030 -1.7403 -0.3534
10561SOL    HW232900   4.726   1.425   7.334  0.4704 -0.9255 -0.9325
10562SOL     OW32901   5.063   1.030   0.680  0.2871 -0.2447  0.1908
10562SOL    HW132902   4.968   1.016   0.685  0.4796 -2.7307 -1.3782
10562SOL    HW232903   5.101   0.959   0.732  1.2776 -1.4925 -2.0626
10563SOL     OW32904   5.246   1.226   7.608 -0.2165 -0.3817 -0.3292
10563SOL    HW132905   5.240   1.162   7.537 -0.5529 -0.7002 -0.0082
10563SOL    HW232906   5.166   1.214   7.659  0.4651 -0.7991  0.6589
10564SOL     OW32907   5.105   1.065   7.422  0.4169  0.0378 -0.4431
10564SOL    HW132908   5.114   1.132   7.355 -0.0800  0.5877  0.0231
10564SOL    HW232909   5.011   1.049   7.427  0.2609  1.2128  1.2520
10565SOL     OW32910   5.355   1.522   8.727 -0.0237 -0.4994  0.1655
10565SOL    HW132911   5.298   1.560   8.660  0.3243 -0.5929 -0.1851
10565SOL    HW232912   5.393   1.445   8.684  2.2852  0.9066 -0.4728
10566SOL     OW32913   5.273   0.789   7.492 -0.2435  0.0849  0.2051
10566SOL    HW132914   5.199   0.729   7.506  0.2816 -0.0905  2.5615
10566SOL    HW232915   5.232   0.874   7.475 -0.9866 -0.2644  0.1929
10567SOL     OW32916   5.275   0.395   8.291  0.1822  0.4632  0.6839
10567SOL    HW132917   5.207   0.458   8.267 -0.1639  0.1243  0.7726
10567SOL    HW232918   5.301   0.421   8.380  0.2854  0.6902  0.5897
10568SOL     OW32919   4.212   1.327   7.670 -0.3536 -0.4559  0.6248
10568SOL    HW132920   4.117   1.326   7.682 -0.5667  1.0268 -0.6014
10568SOL    HW232921   4.235   1.419   7.663  1.2785 -0.7568  1.4053
10569SOL     OW32922   5.444   0.776   0.293 -0.2790  0.1175 -0.2419
10569SOL    HW132923   5.508   0.732   0.237 -1.0165 -1.2774 -0.0355
10569SOL    HW232924   5.491   0.791   0.375  0.2113  0.3782 -0.5672
10570SOL     OW32925   3.879   1.299   7.362  0.3246 -0.2061 -0.4579
10570SOL    HW132926   3.820   1.227   7.385 -0.4520  0.2091 -1.1265
10570SOL    HW232927   3.861   1.366   7.428 -0.4689  0.1957 -1.0673
10571SOL     OW32928   3.943   0.538   7.171 -0.3726 -0.1666 -0.0285
10571SOL    HW132929   3.998   0.555   7.094  0.1600 -1.1030  0.1239
10571SOL    HW232930   3.995   0.477   7.224 -0.5358  0.8184  1.3035
10572SOL     OW32931   3.429   0.241   7.382 -0.1703 -0.4790 -0.3742
10572SOL    HW132932   3.485   0.295   7.326 -1.2117 -0.7658 -1.7635
10572SOL    HW232933   3.482   0.225   7.460  1.7798 -0.8960 -1.6815
10573SOL     OW32934   5.346   1.302   7.157  0.0868 -0.1509  0.4150
10573SOL    HW132935   5.257   1.267   7.167  0.0704  0.1144  1.3035
10573SOL    HW232936   5.386   1.290   7.244  1.1374 -0.8380 -0.1376
10574SOL     OW32937   4.332   0.857   0.105  0.2668  0.2477 -0.1996
10574SOL    HW132938   4.294   0.937   0.069  1.3688  0.1088 -1.7525
10574SOL    HW232939   4.265   0.825   0.166 -1.3485  0.9377 -1.5207
10575SOL     OW32940   5.374   1.658   8.277 -0.4597  0.3744  0.0833
10575SOL    HW132941   5.287   1.675   8.241  0.1875  2.3499 -0.6414
10575SOL    HW232942   5.392   1.732   8.334  1.6338  1.2430 -1.5472
10576SOL     OW32943   3.835   1.636   0.084 -0.0114 -0.1115 -0.6213
10576SOL    HW132944   3.843   1.620   0.178 -0.4530  0.1313 -0.5373
10576SOL    HW232945   3.883   1.718   0.070 -1.0006  0.5284 -0.3826
10577SOL     OW32946   5.843   0.680   8.647  0.1423  0.1487  0.0331
10577SOL    HW132947   5.792   0.758   8.628  1.5233  1.6375  2.0554
10577SOL    HW232948   5.796   0.638   8.719  0.2527 -0.0073  0.0140
10578SOL     OW32949   4.985   0.362   7.508 -0.4827 -0.5336 -0.0773
10578SOL    HW132950   5.039   0.298   7.462 -0.8023 -0.5953 -0.3726
10578SOL    HW232951   4.970   0.323   7.594  0.8451 -0.0298  0.4142
10579SOL     OW32952   4.348   1.100   7.665 -0.0354 -0.1307 -0.6129
10579SOL    HW132953   4.317   1.190   7.676  1.0521  0.1489  0.4601
10579SOL    HW232954   4.269   1.046   7.668 -0.6816  0.7753 -1.0876
10580SOL     OW32955   5.664   1.081   8.782  0.5053 -0.6447  0.1400
10580SOL    HW132956   5.706   1.071   8.868 -1.4155  0.0017  1.2008
10580SOL    HW232957   5.645   1.175   8.775  0.7878 -0.6565 -1.0982
10581SOL     OW32958   4.372   1.242   7.133 -0.0235  0.0739  0.0705
10581SOL    HW132959   4.448   1.197   7.169 -0.3115  0.3471  1.0541
10581SOL    HW232960   4.298   1.206   7.182 -0.5251 -0.1204 -0.8049
10582SOL     OW32961   4.232   1.471   8.132 -0.0372  0.0695  0.2399
10582SOL    HW132962   4.251   1.546   8.075  0.4928  0.2457  0.6391
10582SOL    HW232963   4.145   1.489   8.168 -0.5323 -0.2070 -0.7617
10583SOL     OW32964   4.760   1.226   8.147  0.4423  0.2658 -0.0441
10583SOL    HW132965   4.840   1.174   8.158 -0.5337 -0.9786  1.4784
10583SOL    HW232966   4.768   1.296   8.212 -0.1312 -0.4468  0.8180
10584SOL     OW32967   5.096   1.178   7.126  0.4897 -0.7806 -0.7241
10584SOL    HW132968   5.011   1.214   7.101  1.1471  1.4576 -0.0581
10584SOL    HW232969   5.128   1.134   7.048  0.0048  1.0278 -2.0082
10585SOL     OW32970   5.241   1.051   7.949 -0.2986  0.2405 -0.0493
10585SOL    HW132971   5.312   0.988   7.965 -1.3356 -1.7628 -2.5056
10585SOL    HW232972   5.265   1.128   8.000  2.7780 -0.9457  0.5298
10586SOL     OW32973   3.866   1.529   8.031 -0.0005 -0.1916 -0.9933
10586SOL    HW132974   3.808   1.602   8.011  0.0921  0.2753  0.3287
10586SOL    HW232975   3.905   1.552   8.115  1.3889 -0.9396 -1.4061
10587SOL     OW32976   6.091   0.941   8.536  0.0482 -0.0850  0.3961
10587SOL    HW132977   6.115   0.886   8.611  1.7077 -1.5430 -1.0842
10587SOL    HW232978   6.030   0.886   8.486  1.2840 -0.4110 -0.8109
10588SOL     OW32979   3.717   0.765   8.071 -0.0042  0.2702 -0.0554
10588SOL    HW132980   3.698   0.689   8.126 -0.7516  1.1755  0.9897
10588SOL    HW232981   3.752   0.830   8.131  1.7611  0.3732 -1.1394
10589SOL     OW32982   5.254   1.126   8.285  0.0470 -0.3092 -0.1688
10589SOL    HW132983   5.298   1.061   8.340  0.4511 -2.0004 -2.3571
10589SOL    HW232984   5.294   1.209   8.311  0.3160 -1.0231  1.9469
10590SOL     OW32985   4.282   0.827   8.400 -0.1746 -0.4914 -0.1683
10590SOL    HW132986   4.284   0.773   8.479 -1.6885 -1.9387 -1.0522
10590SOL    HW232987   4.213   0.788   8.346  0.9193  0.3305 -2.2858
10591SOL     OW32988   4.476   1.383   7.542  0.3188 -0.1546  0.1351
10591SOL    HW132989   4.415   1.362   7.613 -0.0386  0.4437  0.0087
10591SOL    HW232990   4.426   1.441   7.484  0.6606 -0.5173 -0.5247
10592SOL     OW32991   5.473   0.331   8.098 -0.6001 -0.5062  0.4397
10592SOL    HW132992   5.392   0.336   8.148 -0.6615  0.1736  0.2807
10592SOL    HW232993   5.537   0.380   8.149 -0.7142  0.3701 -0.2245
10593SOL     OW32994   4.769   0.348   8.486  0.1494  0.3298  0.2911
10593SOL    HW132995   4.715   0.269   8.483 -2.0124  1.7054 -3.1587
10593SOL    HW232996   4.846   0.325   8.435  0.0737  0.1305  0.2630
10594SOL     OW32997   4.642   0.775   7.664 -0.3050 -0.2800  0.2832
10594SOL    HW132998   4.632   0.868   7.684  0.9116 -0.0243 -0.2034
10594SOL    HW232999   4.665   0.735   7.748 -0.4091 -0.0713  0.4122
10595SOL     OW33000   4.549   1.344   8.680 -0.1668 -0.0721  0.3135
10595SOL    HW133001   4.570   1.437   8.679 -0.7724  0.0665  0.0001
10595SOL    HW233002   4.612   1.305   8.620  0.2823  0.0884  0.6757
10596SOL     OW33003   5.142   0.125   7.508  0.1167 -0.4692 -0.3102
10596SOL    HW133004   5.181   0.042   7.479 -0.7314 -1.4338  1.1780
10596SOL    HW233005   5.189   0.192   7.459  0.5381 -1.8499 -1.8774
10597SOL     OW33006   5.213   0.118   8.241 -0.0246 -0.0208  0.3509
10597SOL    HW133007   5.184   0.107   8.151 -0.1014  0.2024  0.3484
10597SOL    HW233008   5.218   0.213   8.254 -2.7274  0.0506  1.4625
10598SOL     OW33009   5.555   0.304   8.619  0.3809 -0.5641  0.4173
10598SOL    HW133010   5.567   0.337   8.708 -1.7933 -0.8861  0.8784
10598SOL    HW233011   5.491   0.364   8.580  2.3827  0.4555 -1.4834
10599SOL     OW33012   3.777   1.074   7.762  0.0401  0.2304  0.3479
10599SOL    HW133013   3.787   1.163   7.796 -0.1516 -0.0182  1.0798
10599SOL    HW233014   3.836   1.022   7.816 -1.2721 -0.4005  1.2123
10600SOL     OW33015   4.591   1.716   7.819 -0.7094 -0.2771  0.1981
10600SOL    HW133016   4.631   1.799   7.847 -1.5228 -0.1230  0.9538
10600SOL    HW233017   4.542   1.739   7.739  0.4897 -0.4208 -0.6055
10601SOL     OW33018   4.030   2.379   8.723 -0.0178  0.4771  0.0867
10601SOL    HW133019   4.122   2.401   8.726 -0.2789  1.4551  1.7099
10601SOL    HW233020   3.987   2.455   8.684 -0.1435 -0.0497 -0.8474
10602SOL     OW33021   3.787   2.274   1.306  0.7963 -0.4001 -0.0983
10602SOL    HW133022   3.882   2.266   1.299  1.4140  3.6261  1.3891
10602SOL    HW233023   3.759   2.295   1.217  1.5183  0.0025 -0.2401
10603SOL     OW33024   3.951   2.147   1.001 -0.0784 -0.5965  0.5479
10603SOL    HW133025   3.917   2.085   1.066  1.0087  0.0320  1.7518
10603SOL    HW233026   4.046   2.144   1.012  0.1450 -0.5121 -1.0729
10604SOL     OW33027   4.332   2.913   1.293  0.2498  0.3917 -0.1465
10604SOL    HW133028   4.424   2.908   1.317  0.0927 -0.4668  0.3194
10604SOL    HW233029   4.294   2.977   1.354  0.4742  0.5184 -0.1411
10605SOL     OW33030   5.477   3.446   0.915  0.6141  0.0634 -0.2836
10605SOL    HW133031   5.426   3.430   0.994  0.3292 -2.0167 -0.8245
10605SOL    HW233032   5.472   3.364   0.866  3.5397  0.1212 -0.8966
10606SOL     OW33033   4.927   2.335   0.313 -0.4055 -0.0506 -0.6747
10606SOL    HW133034   4.904   2.366   0.401 -2.1731 -0.8979 -0.7819
10606SOL    HW233035   4.922   2.413   0.258 -0.2176  0.3138 -0.1871
10607SOL     OW33036   5.901   2.699   8.711 -0.0653  0.1157 -0.4910
10607SOL    HW133037   5.992   2.674   8.693 -0.5714 -1.9241 -0.4635
10607SOL    HW233038   5.875   2.646   8.786 -0.8258  1.8264  0.5101
10608SOL     OW33039   4.751   2.527   1.091  0.2058  0.3861 -0.1494
10608SOL    HW133040   4.824   2.554   1.035  0.4654 -2.7775 -1.5250
10608SOL    HW233041   4.793   2.499   1.172  0.4380 -0.4490 -0.5516
10609SOL     OW33042   4.803   2.487   1.360  0.1917  0.3832 -0.2834
10609SOL    HW133043   4.780   2.413   1.417 -1.8095  1.5982  0.6367
10609SOL    HW233044   4.875   2.530   1.406  1.1167 -0.7527 -0.6331
10610SOL     OW33045   4.551   2.782   0.654 -0.1381  0.3118  0.0114
10610SOL    HW133046   4.508   2.743   0.729  0.3808 -0.3313 -0.0104
10610SOL    HW233047   4.519   2.731   0.579 -0.8159  1.0855 -0.2358
10611SOL     OW33048   4.635   3.060   1.489 -0.7155  0.5564  0.3046
10611SOL    HW133049   4.668   3.149   1.501  0.0823  0.3542 -0.3054
10611SOL    HW233050   4.614   3.030   1.578 -0.2593  1.0817  0.5965
10612SOL     OW33051   4.203   3.718   0.655  0.3688  0.0780 -0.0039
10612SOL    HW133052   4.123   3.728   0.707  0.0229  0.2853 -0.5651
10612SOL    HW233053   4.172   3.695   0.568  0.9018  0.6998 -0.3611
10613SOL     OW33054   5.058   3.226   1.558  0.5810 -0.3786 -0.4109
10613SOL    HW133055   5.078   3.261   1.644  0.8399 -1.1904 -0.1313
10613SOL    HW233056   4.973   3.264   1.536  0.6070 -0.0111  0.1148
10614SOL     OW33057   4.663   2.265   1.524 -0.2740 -0.3100 -0.3524
10614SOL    HW133058   4.749   2.223   1.519 -1.1209 -2.5841  2.0671
10614SOL    HW233059   4.610   2.220   1.458 -0.1060 -0.0659 -0.6639
10615SOL     OW33060   5.105   2.142   0.193 -0.8659  0.5533  0.0996
10615SOL    HW133061   5.084   2.162   0.101 -0.8539 -1.4914 -0.3958
10615SOL    HW233062   5.058   2.208   0.243 -1.7466  1.0660 -1.3371
10616SOL     OW33063   4.131   3.838   0.284 -0.2251 -0.2565 -1.0300
10616SOL    HW133064   4.099   3.840   0.194 -0.2522  0.5049 -1.0080
10616SOL    HW233065   4.185   3.916   0.292  0.7261 -0.9293 -0.7250
10617SOL     OW33066   4.967   3.025   1.935  0.3182  0.4710 -0.6142
10617SOL    HW133067   4.914   3.096   1.971  0.9294  0.4407  0.3677
10617SOL    HW233068   5.036   3.011   1.999  1.4239  0.3810 -1.7700
10618SOL     OW33069   3.445   3.721   0.357 -0.0404  0.3785  0.3132
10618SOL    HW133070   3.488   3.779   0.420  1.5847 -0.4229  0.0078
10618SOL    HW233071   3.461   3.633   0.392  0.4848 -0.0452 -0.9523
10619SOL     OW33072   3.901   2.950   0.622  0.0972 -0.0340  0.2255
10619SOL    HW133073   3.817   2.976   0.660 -1.0968 -1.6449 -1.1814
10619SOL    HW233074   3.880   2.923   0.532  2.2341  0.1743 -0.3879
10620SOL     OW33075   4.150   2.664   0.295 -0.8066 -0.5631  0.0986
10620SOL    HW133076   4.226   2.667   0.353  0.3973 -1.0568 -1.3755
10620SOL    HW233077   4.077   2.639   0.351  0.0839  0.0491  1.5838
10621SOL     OW33078   5.144   1.877   1.578  0.2595 -0.2403 -0.1880
10621SOL    HW133079   5.188   1.848   1.658 -0.5126 -0.7823  0.0429
10621SOL    HW233080   5.073   1.815   1.565 -0.3531  0.5373 -0.6448
10622SOL     OW33081   3.907   2.564   0.578 -0.6384 -0.1665 -0.2668
10622SOL    HW133082   3.851   2.554   0.654 -0.4204 -0.5040 -0.1469
10622SOL    HW233083   3.992   2.590   0.613  0.2532 -2.9337 -0.1129
10623SOL     OW33084   5.371   3.902   0.450  0.2669  0.0489  0.0886
10623SOL    HW133085   5.420   3.972   0.407 -0.3371  0.8324  0.6593
10623SOL    HW233086   5.435   3.832   0.462  1.5642  1.4665  1.8272
10624SOL     OW33087   3.581   3.492   0.438  0.0827  0.1011 -0.1637
10624SOL    HW133088   3.624   3.458   0.517  1.3973  0.3312 -0.7467
10624SOL    HW233089   3.493   3.455   0.441  1.5472 -3.9836 -1.0691
10625SOL     OW33090   5.412   3.004   0.802 -0.0978 -0.4397  0.1842
10625SOL    HW133091   5.396   3.069   0.870  1.9955 -0.1751  0.4800
10625SOL    HW233092   5.330   2.954   0.796 -0.7270  0.3117  2.0225
10626SOL     OW33093   5.385   3.044   0.489  0.0627  0.0375  0.4135
10626SOL    HW133094   5.355   3.064   0.578 -2.0119  1.1345 -0.4654
10626SOL    HW233095   5.375   2.949   0.482  1.8319 -0.3225  1.8285
10627SOL     OW33096   4.281   2.593   1.480 -0.0012 -0.1561 -0.1141
10627SOL    HW133097   4.342   2.599   1.554  0.5500 -2.7347 -0.2518
10627SOL    HW233098   4.208   2.650   1.503  1.6513  1.6935  0.8454
10628SOL     OW33099   4.374   2.603   0.914  0.2260  0.0150 -0.5403
10628SOL    HW133100   4.362   2.698   0.915  3.3884  0.5199  0.4669
10628SOL    HW233101   4.357   2.575   1.004  1.2998 -0.0312 -0.3428
10629SOL     OW33102   5.343   3.181   1.504  0.1132 -0.4511  0.6301
10629SOL    HW133103   5.249   3.196   1.495 -0.1425 -0.7128  2.5907
10629SOL    HW233104   5.383   3.265   1.477 -0.3480 -1.4403 -3.9118
10630SOL     OW33105   4.588   1.923   0.265 -0.2055 -0.2359 -0.3861
10630SOL    HW133106   4.533   1.983   0.215 -1.0501  0.6186  1.4600
10630SOL    HW233107   4.667   1.974   0.285 -1.0704  0.4650  1.4796
10631SOL     OW33108   4.113   3.084   0.906  0.6682  0.2059 -0.2110
10631SOL    HW133109   4.189   3.091   0.964  0.7706 -0.1275 -0.2995
10631SOL    HW233110   4.088   3.174   0.888 -0.4949  0.3376  1.8001
10632SOL     OW33111   5.350   2.939   8.832  0.0225 -0.4537  0.1039
10632SOL    HW133112   5.402   2.957   8.910 -0.3029  0.9653  0.0274
10632SOL    HW233113   5.260   2.957   8.859 -0.0629  0.3492 -0.6672
10633SOL     OW33114   4.903   3.655   1.563  0.1545  0.3462 -0.0564
10633SOL    HW133115   4.912   3.750   1.569 -0.7912  0.6196 -2.0849
10633SOL    HW233116   4.817   3.637   1.601  0.7176  0.1507  1.1816
10634SOL     OW33117   4.502   2.385   1.711  0.1333  0.2976  0.2755
10634SOL    HW133118   4.463   2.460   1.666  0.4008 -0.1464 -0.7311
10634SOL    HW233119   4.562   2.347   1.647 -1.6045 -2.0774 -0.0808
10635SOL     OW33120   4.897   2.978   0.854  0.1211  0.2469  0.0475
10635SOL    HW133121   4.886   2.883   0.865  2.5373 -0.2395 -1.0874
10635SOL    HW233122   4.814   3.007   0.815 -0.7997 -1.3014  0.7178
10636SOL     OW33123   5.096   3.799   0.688  0.0548  0.1489 -0.0259
10636SOL    HW133124   5.110   3.711   0.723 -0.7886  0.1856  0.4372
10636SOL    HW233125   5.021   3.832   0.738 -0.6835  0.5033 -1.3325
10637SOL     OW33126   4.221   2.478   0.087  0.4550  0.0600 -0.4042
10637SOL    HW133127   4.217   2.571   0.110 -0.3306  0.1383 -0.8209
10637SOL    HW233128   4.271   2.475   0.006  1.6645 -0.0350  0.3147
10638SOL     OW33129   4.834   2.092   0.604  0.8095  0.0698 -1.0038
10638SOL    HW133130   4.815   2.004   0.637  0.4219  0.5741  0.1748
10638SOL    HW233131   4.751   2.123   0.569  0.5151  0.5750  0.0890
10639SOL     OW33132   4.767   3.789   0.068 -0.0319 -0.3896 -0.5524
10639SOL    HW133133   4.695   3.765   0.127  0.3859 -1.7464 -0.5516
10639SOL    HW233134   4.797   3.874   0.100  1.0766 -1.6624  2.1445
10640SOL     OW33135   5.371   2.412   1.234  0.5447 -0.3028 -0.0824
10640SOL    HW133136   5.390   2.505   1.239  0.5342 -0.2123 -1.3801
10640SOL    HW233137   5.277   2.406   1.250  0.4758 -0.0425 -0.3762
10641SOL     OW33138   5.224   2.494   1.589 -0.3123 -0.0735  0.2943
10641SOL    HW133139   5.224   2.588   1.607  0.5588 -0.2485  1.3643
10641SOL    HW233140   5.317   2.470   1.589 -0.5164 -0.8945 -0.1628
10642SOL     OW33141   4.698   2.507   0.751  0.2302 -0.0792  0.2826
10642SOL    HW133142   4.682   2.441   0.818 -0.5767 -2.1214 -1.8307
10642SOL    HW233143   4.613   2.521   0.710  0.9606  0.0677 -1.2441
10643SOL     OW33144   5.188   2.093   1.420 -0.2935  0.6496  0.2631
10643SOL    HW133145   5.114   2.067   1.365  0.0076 -1.3805  0.7170
10643SOL    HW233146   5.174   2.046   1.503  2.0357 -0.7150 -0.0264
10644SOL     OW33147   5.220   2.590   0.037  0.4400  0.2585 -0.3106
10644SOL    HW133148   5.289   2.523   0.043  1.1749  0.8937 -1.2859
10644SOL    HW233149   5.268   2.673   0.031 -0.3533  0.6271 -2.1228
10645SOL     OW33150   3.785   2.750   0.825  0.0238  0.3631  0.2115
10645SOL    HW133151   3.875   2.778   0.842  0.6011 -0.8999 -0.6326
10645SOL    HW233152   3.742   2.828   0.789  0.8565  0.8872  0.3327
10646SOL     OW33153   4.426   1.854   8.385  0.3331 -0.1523  0.0553
10646SOL    HW133154   4.335   1.848   8.354  0.4283 -1.4851 -0.0371
10646SOL    HW233155   4.423   1.819   8.474  0.9479 -1.4126 -0.3952
10647SOL     OW33156   5.233   2.568   1.865  0.0063 -0.1757 -0.2785
10647SOL    HW133157   5.155   2.609   1.829 -0.7846 -1.0466  0.4039
10647SOL    HW233158   5.249   2.612   1.948  1.1014  0.9754 -1.0592
10648SOL     OW33159   4.792   2.729   0.376 -0.8559  0.0880 -0.2726
10648SOL    HW133160   4.821   2.674   0.449 -1.6686  1.0357  0.8019
10648SOL    HW233161   4.852   2.708   0.305  2.1517  1.5648  1.6457
10649SOL     OW33162   4.336   1.891   0.582 -0.2239 -0.1896 -0.3498
10649SOL    HW133163   4.319   1.842   0.662 -0.8504  0.3032 -0.1712
10649SOL    HW233164   4.276   1.854   0.517 -2.5495  1.9476  0.4382
10650SOL     OW33165   4.933   3.332   0.211  0.4058 -0.8719 -0.0361
10650SOL    HW133166   4.853   3.312   0.258 -1.0089  0.8185 -1.5725
10650SOL    HW233167   4.999   3.343   0.280 -1.1374 -0.3059  1.4223
10651SOL     OW33168   4.159   3.888   1.249  0.6528 -0.0951 -0.0841
10651SOL    HW133169   4.229   3.932   1.297 -0.2535  1.0758  0.2244
10651SOL    HW233170   4.138   3.811   1.302  0.7343  0.3326  0.5838
10652SOL     OW33171   5.699   2.595   0.344 -0.8823 -0.2741 -0.0818
10652SOL    HW133172   5.794   2.587   0.338 -0.6184  0.4764  2.0946
10652SOL    HW233173   5.667   2.505   0.345 -0.1481 -0.5470 -0.2341
10653SOL     OW33174   4.858   3.397   1.467  0.5304 -0.8360 -0.2292
10653SOL    HW133175   4.869   3.488   1.493 -2.0715 -0.9118  1.5615
10653SOL    HW233176   4.769   3.374   1.496 -0.4138 -2.8362 -3.9930
10654SOL     OW33177   3.955   3.167   0.240 -0.1894 -0.0259  0.1530
10654SOL    HW133178   3.954   3.225   0.315  0.1372 -0.9340  0.8753
10654SOL    HW233179   3.932   3.081   0.276 -3.1159  0.0359 -1.2388
10655SOL     OW33180   5.559   2.200   0.087  0.4390  0.5485 -0.3606
10655SOL    HW133181   5.594   2.135   0.148 -0.6738 -0.4485 -0.7505
10655SOL    HW233182   5.488   2.155   0.042  1.2331  1.2410 -2.4443
10656SOL     OW33183   4.510   2.899   2.114 -0.4262  0.0838 -0.4021
10656SOL    HW133184   4.497   2.943   2.030 -0.1748  1.1745  0.1080
10656SOL    HW233185   4.589   2.846   2.101 -0.3155  0.3451 -0.8211
10657SOL     OW33186   5.321   3.460   0.472 -0.2293 -0.7463  0.6348
10657SOL    HW133187   5.268   3.521   0.524  0.1702  0.7181 -0.5876
10657SOL    HW233188   5.258   3.393   0.443 -0.4804 -1.5377  2.8143
10658SOL     OW33189   4.004   2.237   1.957  0.0695  0.6323  0.1162
10658SOL    HW133190   4.084   2.268   1.914 -0.2431  1.1608 -0.0857
10658SOL    HW233191   3.934   2.292   1.921 -0.5090 -0.3506 -0.3138
10659SOL     OW33192   5.125   3.251   0.465 -0.1506 -0.2245 -0.3109
10659SOL    HW133193   5.148   3.210   0.549  0.4619  0.2361 -0.2431
10659SOL    HW233194   5.124   3.179   0.402 -0.9544 -0.6287  0.1507
10660SOL     OW33195   3.978   3.238   0.527 -0.1986  0.7723 -0.5735
10660SOL    HW133196   3.969   3.146   0.551 -0.6406  0.8153 -0.5788
10660SOL    HW233197   4.068   3.260   0.552 -0.1858  0.4218 -0.3015
10661SOL     OW33198   5.437   2.484   8.545 -0.5606 -0.2133  0.1253
10661SOL    HW133199   5.448   2.569   8.587 -0.4629  0.2070 -0.7263
10661SOL    HW233200   5.518   2.472   8.495 -1.6567  0.4548 -1.9292
10662SOL     OW33201   4.806   3.485   1.045 -0.2389  0.6539  0.0436
10662SOL    HW133202   4.724   3.522   1.079 -1.2387 -1.6699  0.3511
10662SOL    HW233203   4.805   3.508   0.952 -2.2326 -0.8838 -0.3885
10663SOL     OW33204   4.396   2.643   0.420 -0.1110 -0.1909  0.3733
10663SOL    HW133205   4.462   2.642   0.351 -2.6807  0.2243 -2.2623
10663SOL    HW233206   4.404   2.557   0.462 -0.1084 -1.5104 -2.1686
10664SOL     OW33207   5.295   1.981   1.931 -0.1763 -0.3132  0.1842
10664SOL    HW133208   5.207   2.005   1.962  0.3577  0.6861  0.9575
10664SOL    HW233209   5.309   2.037   1.855  0.9188  1.6443  1.7649
10665SOL     OW33210   4.831   2.108   0.886  0.7557 -0.4624 -0.2398
10665SOL    HW133211   4.881   2.037   0.926 -1.1622 -1.5442  0.3567
10665SOL    HW233212   4.850   2.101   0.793  2.9000  0.1841  0.0704
10666SOL     OW33213   4.572   3.617   1.108  0.1574  0.7085  0.1199
10666SOL    HW133214   4.517   3.611   1.030 -0.9666  0.1164  0.9202
10666SOL    HW233215   4.511   3.608   1.181  1.2378  0.7905  1.0643
10667SOL     OW33216   5.207   2.476   0.937 -0.2814 -0.2806  0.0489
10667SOL    HW133217   5.299   2.494   0.919  0.1012 -1.1524  1.0403
10667SOL    HW233218   5.160   2.513   0.862  1.0795 -2.0376 -1.7703
10668SOL     OW33219   4.435   3.591   1.365 -0.4031  0.2730 -0.0530
10668SOL    HW133220   4.466   3.568   1.452 -1.5397 -0.7440  0.1036
10668SOL    HW233221   4.342   3.608   1.377 -0.4555  0.6939 -0.9778
10669SOL     OW33222   4.903   1.836   0.397 -0.5625 -0.2611 -0.4639
10669SOL    HW133223   4.878   1.912   0.345 -2.2014  0.8587  1.7925
10669SOL    HW233224   4.946   1.872   0.474 -1.4579 -1.5927  0.7152
10670SOL     OW33225   4.489   2.237   0.225  0.3866  0.2875  0.5105
10670SOL    HW133226   4.409   2.266   0.269  0.2934  1.0479 -0.1352
10670SOL    HW233227   4.523   2.316   0.183  0.2806 -0.4615 -1.0693
10671SOL     OW33228   5.368   3.079   8.309  0.1126  0.7151 -0.2209
10671SOL    HW133229   5.372   3.042   8.397  1.6910 -0.1279 -0.6066
10671SOL    HW233230   5.337   3.169   8.322 -0.0911  0.4599  1.1447
10672SOL     OW33231   5.016   1.820   8.699  0.9832 -0.7231  0.0805
10672SOL    HW133232   5.009   1.891   8.636  0.1386 -0.2399  0.7016
10672SOL    HW233233   4.935   1.769   8.687  0.0124  0.3021  1.8509
10673SOL     OW33234   4.968   2.921   1.365  0.0787  0.5513  0.3950
10673SOL    HW133235   4.946   2.855   1.431  2.2203 -0.6230  0.0041
10673SOL    HW233236   4.967   2.873   1.282  0.2609  1.3443 -0.0759
10674SOL     OW33237   4.794   3.354   0.558 -0.8334 -0.4416 -0.1050
10674SOL    HW133238   4.791   3.278   0.501 -1.4012 -0.0316 -0.6362
10674SOL    HW233239   4.886   3.377   0.564 -0.8132 -0.1555 -1.3151
10675SOL     OW33240   4.155   2.857   0.568 -0.0287  0.5643 -0.0345
10675SOL    HW133241   4.078   2.903   0.601 -2.0163 -0.2888 -3.0910
10675SOL    HW233242   4.143   2.767   0.598  0.6591  0.7434  0.8162
10676SOL     OW33243   4.633   3.338   0.773  0.8815  0.3775 -0.0387
10676SOL    HW133244   4.683   3.354   0.693 -0.6456  0.6309 -0.9912
10676SOL    HW233245   4.699   3.323   0.840  2.2127 -1.6513 -1.6899
10677SOL     OW33246   5.026   2.191   8.761 -0.1527 -0.1638 -0.2989
10677SOL    HW133247   5.106   2.201   8.710  0.0916  0.0795  0.1298
10677SOL    HW233248   4.986   2.111   8.726  1.8278 -2.0779  1.5361
10678SOL     OW33249   4.297   2.320   1.307  0.4266 -0.1415 -0.5312
10678SOL    HW133250   4.355   2.367   1.247  0.5193  0.5070  0.0486
10678SOL    HW233251   4.277   2.384   1.376 -1.1826 -0.2557 -0.8463
10679SOL     OW33252   4.523   2.109   1.265 -0.2480 -0.3000  0.7849
10679SOL    HW133253   4.461   2.041   1.291  0.0460 -0.0263  2.2476
10679SOL    HW233254   4.480   2.191   1.289 -0.3492  0.0311 -0.4384
10680SOL     OW33255   4.581   2.590   0.215 -0.1953 -0.4808 -0.6322
10680SOL    HW133256   4.644   2.603   0.287 -1.8354 -1.3723  1.0502
10680SOL    HW233257   4.636   2.572   0.138  1.6362 -2.2315  0.9519
10681SOL     OW33258   4.661   1.519   0.225  0.6319  0.3915 -0.4313
10681SOL    HW133259   4.573   1.556   0.224  0.5503  0.1927 -0.6041
10681SOL    HW233260   4.718   1.594   0.206  0.7294  1.0923  2.1855
10682SOL     OW33261   5.206   2.799   0.487 -0.1137 -0.1104 -0.8613
10682SOL    HW133262   5.250   2.714   0.491  1.9271  0.9294  1.0332
10682SOL    HW233263   5.167   2.810   0.574  1.2961  1.6439 -0.3915
10683SOL     OW33264   5.094   2.234   0.635  0.5224 -0.4259 -0.2008
10683SOL    HW133265   5.018   2.185   0.604  1.1410 -1.4951 -0.1221
10683SOL    HW233266   5.133   2.177   0.702  1.1579  0.2837  0.0471
10684SOL     OW33267   5.470   3.048   0.225 -0.5871  0.1798  0.3722
10684SOL    HW133268   5.446   3.138   0.200 -2.8038 -0.1900  0.9050
10684SOL    HW233269   5.440   3.040   0.316 -0.3352 -1.0771  0.3574
10685SOL     OW33270   4.290   3.464   0.166 -0.0772 -0.6267  0.4998
10685SOL    HW133271   4.242   3.388   0.132  1.9766 -1.3723 -0.9633
10685SOL    HW233272   4.289   3.452   0.261  0.2224 -2.5380  0.3041
10686SOL     OW33273   5.050   3.160   0.997 -0.0247 -0.2354 -0.2118
10686SOL    HW133274   5.043   3.169   1.092  0.5290  0.4188 -0.2293
10686SOL    HW233275   4.966   3.123   0.971 -0.8389  1.1655  0.3353
10687SOL     OW33276   5.236   2.191   8.587 -0.1172 -0.5303  0.1595
10687SOL    HW133277   5.241   2.130   8.514  1.2865  1.0353 -1.1076
10687SOL    HW233278   5.315   2.244   8.580 -1.0908  1.1807  1.4535
10688SOL     OW33279   4.506   2.051   8.850  0.3709  0.6014  0.0211
10688SOL    HW133280   4.523   2.117   8.917 -0.2525 -1.1500  2.0162
10688SOL    HW233281   4.413   2.060   8.829 -0.0364 -0.4178  1.2589
10689SOL     OW33282   5.355   2.889   1.421  0.0713 -0.4728  0.6963
10689SOL    HW133283   5.321   2.970   1.382 -0.5391 -0.6048  0.9480
10689SOL    HW233284   5.450   2.904   1.428  0.0068  0.0836  0.4238
10690SOL     OW33285   4.514   3.277   1.110  0.0562  0.0699 -0.4279
10690SOL    HW133286   4.588   3.235   1.153 -0.9273  0.9670  2.3322
10690SOL    HW233287   4.537   3.369   1.105 -0.6169  0.2644 -0.0895
10691SOL     OW33288   5.116   3.301   1.815  0.2485  0.1924  0.4415
10691SOL    HW133289   5.097   3.270   1.903  2.2345 -1.3029  0.3945
10691SOL    HW233290   5.186   3.366   1.826 -1.2742  1.9743  0.1604
10692SOL     OW33291   4.635   3.025   0.790  0.0724 -0.2668 -0.0421
10692SOL    HW133292   4.580   2.949   0.770 -0.5345  0.6628 -2.1361
10692SOL    HW233293   4.573   3.098   0.795  0.7061  0.2090  1.4700
10693SOL     OW33294   5.128   2.893   0.727 -0.2465  0.2010  0.0534
10693SOL    HW133295   5.147   2.970   0.674 -2.6038 -0.9344 -2.7198
10693SOL    HW233296   5.046   2.915   0.773 -0.9446 -0.5841 -0.7667
10694SOL     OW33297   5.025   1.817   1.188  0.2703 -0.5096 -0.2601
10694SOL    HW133298   5.024   1.907   1.222  3.6801 -0.6190  0.4959
10694SOL    HW233299   5.059   1.825   1.099  0.5965 -1.0295 -0.1889
10695SOL     OW33300   4.465   2.959   1.757 -0.2669  0.2968 -0.4057
10695SOL    HW133301   4.523   3.034   1.769  0.1904 -0.0580 -0.3531
10695SOL    HW233302   4.395   2.972   1.821 -0.3763  0.8504 -0.6305
10696SOL     OW33303   4.882   3.102   8.850  0.4007 -0.5849  0.2113
10696SOL    HW133304   4.799   3.066   8.880 -1.5770  2.4728 -1.1588
10696SOL    HW233305   4.902   3.172   8.912 -0.3429  1.4890 -1.7692
10697SOL     OW33306   3.907   3.110   1.211 -0.0100  0.1252 -0.2216
10697SOL    HW133307   3.931   3.121   1.303  1.0787  1.5985 -0.6366
10697SOL    HW233308   3.991   3.109   1.164 -0.5674 -0.0987 -1.2428
10698SOL     OW33309   5.437   2.258   1.451  0.0913  0.2244 -0.0840
10698SOL    HW133310   5.423   2.320   1.380 -0.6421  2.2639  1.7290
10698SOL    HW233311   5.350   2.224   1.470  0.3165 -0.4687 -0.2766
10699SOL     OW33312   4.199   3.628   1.056  0.4087 -0.3742  0.0349
10699SOL    HW133313   4.230   3.715   1.030 -0.8313  0.0532 -0.0575
10699SOL    HW233314   4.183   3.635   1.150  0.2925 -0.4974  0.0249
10700SOL     OW33315   4.244   3.211   0.598 -0.1099  0.0987  0.0099
10700SOL    HW133316   4.259   3.131   0.547 -0.4146 -0.4153  0.7080
10700SOL    HW233317   4.301   3.202   0.675  0.2319  0.7917 -0.1570
10701SOL     OW33318   4.403   2.260   0.872  0.7718 -0.0989 -0.3147
10701SOL    HW133319   4.399   2.208   0.792 -0.2139 -0.4515 -0.0574
10701SOL    HW233320   4.495   2.285   0.881  0.8082  0.4298 -1.8624
10702SOL     OW33321   4.705   3.216   0.315  0.2044 -0.0907 -0.2395
10702SOL    HW133322   4.682   3.152   0.383  1.9174 -0.3819  0.0960
10702SOL    HW233323   4.680   3.173   0.233  0.4485 -0.7976  0.0471
10703SOL     OW33324   5.118   3.489   1.168  0.1544  0.3027 -0.6458
10703SOL    HW133325   5.051   3.425   1.193  1.2671 -0.8455 -0.5166
10703SOL    HW233326   5.070   3.572   1.161 -1.0651 -0.2546  0.5964
10704SOL     OW33327   5.416   2.432   0.144 -0.8257  0.2549  0.6233
10704SOL    HW133328   5.449   2.344   0.124  0.1745  0.3561  1.6903
10704SOL    HW233329   5.376   2.423   0.230  0.3284  1.0675  1.2701
10705SOL     OW33330   4.178   3.202   1.329  0.0381  0.1345  0.6987
10705SOL    HW133331   4.252   3.232   1.382  0.9105 -0.6756 -0.0193
10705SOL    HW233332   4.118   3.276   1.327  1.3557  1.2257  0.3632
10706SOL     OW33333   4.415   2.662   1.708 -0.1541  0.2427  0.0062
10706SOL    HW133334   4.353   2.678   1.778  0.4222  0.3835  0.4954
10706SOL    HW233335   4.467   2.743   1.703  1.8170 -0.8608  1.4952
10707SOL     OW33336   5.514   2.534   1.597  0.2758 -0.4634  0.4188
10707SOL    HW133337   5.535   2.474   1.525  0.4638 -2.0380  1.7121
10707SOL    HW233338   5.565   2.613   1.578  1.4135 -1.3666 -0.4671
10708SOL     OW33339   4.797   2.362   1.861 -0.1413  0.0647 -0.6084
10708SOL    HW133340   4.887   2.355   1.830  0.1085 -0.1791  0.1601
10708SOL    HW233341   4.748   2.394   1.785  0.6212  0.3699 -0.9782
10709SOL     OW33342   4.931   2.185   1.536  0.5051 -0.7288  0.2560
10709SOL    HW133343   4.977   2.201   1.619 -2.6212 -0.5097  2.1232
10709SOL    HW233344   4.901   2.094   1.543 -1.9061  0.0241  0.6049
10710SOL     OW33345   4.434   2.488   0.682  0.2838 -0.3461 -0.6222
10710SOL    HW133346   4.400   2.401   0.662 -1.3605 -0.3348  1.7074
10710SOL    HW233347   4.422   2.497   0.777  2.0913  1.7380 -0.5249
10711SOL     OW33348   4.876   2.487   0.540  0.2695 -0.1266  0.0501
10711SOL    HW133349   4.805   2.461   0.598  0.2897 -0.3397 -0.0196
10711SOL    HW233350   4.956   2.474   0.591  0.3383 -1.0094 -0.2680
10712SOL     OW33351   4.971   2.050   8.528  0.1384  0.1671 -0.0084
10712SOL    HW133352   4.933   2.004   8.453 -2.4682 -0.2426  1.4416
10712SOL    HW233353   5.064   2.056   8.508 -0.4152 -0.1136 -3.1489
10713SOL     OW33354   4.047   2.207   1.324  0.2941  0.0638 -0.1976
10713SOL    HW133355   4.039   2.112   1.324 -0.2786  0.0778  1.3008
10713SOL    HW233356   4.140   2.223   1.306  0.7550 -0.8529  1.1869
10714SOL     OW33357   3.688   3.181   1.077 -0.2146 -0.3910 -0.2244
10714SOL    HW133358   3.767   3.158   1.126 -0.6912 -1.5652  0.0295
10714SOL    HW233359   3.634   3.228   1.140  0.0574 -0.0610 -0.2386
10715SOL     OW33360   4.647   2.312   0.935  0.3523  0.0452 -0.4465
10715SOL    HW133361   4.688   2.372   0.997  2.3717 -0.6052 -1.0905
10715SOL    HW233362   4.716   2.250   0.911 -1.5781 -2.4445  0.0213
10716SOL     OW33363   5.629   3.290   1.847  0.2958 -0.6061  0.4374
10716SOL    HW133364   5.576   3.214   1.822  0.3809 -0.2643 -0.8811
10716SOL    HW233365   5.696   3.255   1.905  1.6546 -2.0046 -1.7844
10717SOL     OW33366   4.280   2.379   0.343  0.0516  0.4590  0.6342
10717SOL    HW133367   4.280   2.436   0.266 -0.6677  0.2858  0.4941
10717SOL    HW233368   4.208   2.413   0.397  0.0530  0.1014  0.8601
10718SOL     OW33369   5.567   2.676   0.081  0.0824 -0.5290 -0.4231
10718SOL    HW133370   5.631   2.657   0.149 -0.9343  0.8674  0.9846
10718SOL    HW233371   5.494   2.617   0.100 -0.2079 -0.1290 -0.2916
10719SOL     OW33372   4.768   1.820   0.701  0.3047 -0.0195  0.1238
10719SOL    HW133373   4.723   1.773   0.771 -0.3847 -1.5632 -1.3013
10719SOL    HW233374   4.707   1.817   0.627  2.2768 -1.2604 -1.5588
10720SOL     OW33375   5.477   3.403   1.446 -0.2112 -0.2589  0.1127
10720SOL    HW133376   5.539   3.419   1.517 -1.5088 -1.8108  1.7076
10720SOL    HW233377   5.474   3.485   1.397  3.0094 -0.1139 -0.0087
10721SOL     OW33378   4.112   2.415   1.708 -0.1304 -0.2578  0.1917
10721SOL    HW133379   4.037   2.430   1.650 -0.3122  1.5765  0.8313
10721SOL    HW233380   4.146   2.503   1.726  1.2507 -0.9490  1.1394
10722SOL     OW33381   5.672   2.116   8.114  0.3555 -0.0378 -0.1292
10722SOL    HW133382   5.603   2.116   8.181  0.0506 -0.0512 -0.4444
10722SOL    HW233383   5.721   2.036   8.131  0.6651  0.2667  0.4746
10723SOL     OW33384   5.151   2.486   8.561  1.5002 -0.1726  0.1408
10723SOL    HW133385   5.156   2.510   8.654  1.6875 -3.0932  0.9796
10723SOL    HW233386   5.243   2.475   8.534  1.4309  0.2681 -0.2887
10724SOL     OW33387   4.339   3.012   0.441 -0.4165 -0.4540 -0.5100
10724SOL    HW133388   4.424   2.970   0.456 -0.3906 -0.2000  0.1024
10724SOL    HW233389   4.276   2.955   0.484 -0.6393 -0.9521 -1.4643
10725SOL     OW33390   4.178   2.595   0.611 -0.2030 -0.0072  0.1142
10725SOL    HW133391   4.272   2.586   0.627 -0.3987  0.7300  2.0364
10725SOL    HW233392   4.138   2.540   0.678 -1.1437  0.5283 -0.0005
10726SOL     OW33393   4.067   2.442   0.807  0.0099  0.1922 -0.4644
10726SOL    HW133394   4.098   2.355   0.780  0.8189  0.1268  0.6444
10726SOL    HW233395   4.004   2.424   0.876 -2.0207  0.3665 -2.1530
10727SOL     OW33396   5.088   2.376   1.368 -0.8588  0.1643 -0.1651
10727SOL    HW133397   5.125   2.421   1.444 -1.6224  0.1750  0.2095
10727SOL    HW233398   5.039   2.302   1.406  2.0121 -2.2901 -0.8354
10728SOL     OW33399   5.005   2.082   1.218  0.1636 -0.0805  0.2925
10728SOL    HW133400   4.915   2.114   1.226  0.7734  1.5744  0.9912
10728SOL    HW233401   5.047   2.144   1.157  0.9557 -0.5417  0.3584
10729SOL     OW33402   3.876   3.946   0.828 -0.1271  0.3856 -0.4300
10729SOL    HW133403   3.894   3.907   0.913 -0.7185  0.2541 -0.3571
10729SOL    HW233404   3.799   4.002   0.843 -0.6142 -0.1147 -1.0029
10730SOL     OW33405   4.258   3.460   0.470 -0.3670  0.1143 -0.1599
10730SOL    HW133406   4.312   3.528   0.512 -0.9085 -0.2151  1.1344
10730SOL    HW233407   4.270   3.383   0.525 -0.7285 -0.4868 -0.9108
10731SOL     OW33408   4.890   2.662   0.900  0.1708 -0.3989 -0.2307
10731SOL    HW133409   4.822   2.609   0.860 -0.4101 -0.1847  0.4627
10731SOL    HW233410   4.968   2.646   0.846 -0.8287  0.6898 -2.0819
10732SOL     OW33411   4.025   2.774   0.966 -0.2474  0.0842 -0.3986
10732SOL    HW133412   4.064   2.861   0.961  0.7012 -0.3180 -0.1048
10732SOL    HW233413   4.073   2.729   1.036 -0.1948 -0.9297 -1.0571
10733SOL     OW33414   4.261   2.196   1.600 -0.5679 -0.2142 -0.4373
10733SOL    HW133415   4.253   2.198   1.505 -1.5514 -0.6338 -0.3777
10733SOL    HW233416   4.195   2.259   1.631  0.7997  1.0901 -0.0677
10734SOL     OW33417   4.600   2.833   1.323 -0.7336 -0.0759 -0.0141
10734SOL    HW133418   4.666   2.830   1.254 -1.0906  0.2229 -0.3697
10734SOL    HW233419   4.641   2.883   1.394 -0.8666  0.8040 -0.5442
10735SOL     OW33420   4.832   2.681   8.742 -0.1112  0.3939 -0.4785
10735SOL    HW133421   4.759   2.728   8.781 -1.0076 -3.5881  3.4534
10735SOL    HW233422   4.807   2.668   8.651 -2.9078  1.6208  0.0336
10736SOL     OW33423   5.124   2.498   0.668 -0.5579  0.1218  0.1964
10736SOL    HW133424   5.189   2.540   0.612  0.4560  1.9709  2.6257
10736SOL    HW233425   5.148   2.405   0.667  0.5809  0.4013 -0.9049
10737SOL     OW33426   4.564   1.781   0.501  0.0588 -0.6331  0.0779
10737SOL    HW133427   4.562   1.806   0.408  0.7113 -1.3461 -0.1419
10737SOL    HW233428   4.484   1.819   0.538 -0.1947 -0.3171 -0.7713
10738SOL     OW33429   4.561   2.789   8.848  0.2560  0.1876  0.0242
10738SOL    HW133430   4.482   2.777   8.795  0.5042 -2.9349  0.1439
10738SOL    HW233431   4.530   2.782   8.938  0.2625  2.4045  0.2411
10739SOL     OW33432   3.897   3.066   2.005  0.1159 -0.1912 -0.3574
10739SOL    HW133433   3.827   3.000   1.998 -0.6663  0.4779  0.7096
10739SOL    HW233434   3.971   3.028   1.959  0.1815 -2.4976  1.4731
10740SOL     OW33435   4.649   3.211   1.804  0.2729  0.1574 -0.1162
10740SOL    HW133436   4.701   3.204   1.884 -0.2260  0.3038  0.2243
10740SOL    HW233437   4.664   3.300   1.773  2.1111 -0.5021 -1.3414
10741SOL     OW33438   5.351   2.037   8.837  0.0827 -0.0867 -0.2204
10741SOL    HW133439   5.273   1.985   8.857 -1.2535  2.0339  0.4228
10741SOL    HW233440   5.336   2.069   8.748  0.8500 -0.6570 -0.5719
10742SOL     OW33441   5.131   3.511   0.851 -0.3714 -0.2203  0.3405
10742SOL    HW133442   5.120   3.600   0.884 -3.5237 -0.6310  0.7191
10742SOL    HW233443   5.146   3.458   0.929  0.2738 -0.1851  0.2432
10743SOL     OW33444   4.838   2.797   1.164  0.6040  0.3459 -0.1313
10743SOL    HW133445   4.892   2.799   1.085  1.6644 -0.9637  0.4995
10743SOL    HW233446   4.781   2.721   1.152 -0.1729  0.9368 -0.2126
10744SOL     OW33447   3.805   3.303   0.846 -0.3613  0.4028 -0.3041
10744SOL    HW133448   3.775   3.266   0.929  0.5927  0.9449  0.3094
10744SOL    HW233449   3.884   3.352   0.869  2.3373 -2.7171 -2.1134
10745SOL     OW33450   4.833   1.608   8.653  0.0927  0.7664  0.3644
10745SOL    HW133451   4.771   1.620   8.725  0.3760  1.1608  0.5436
10745SOL    HW233452   4.871   1.522   8.668 -1.2233  0.0193 -0.3680
10746SOL     OW33453   5.587   2.217   8.624 -0.0185  0.1975 -0.4622
10746SOL    HW133454   5.570   2.290   8.683 -0.5276  0.2460 -0.6636
10746SOL    HW233455   5.666   2.175   8.659  1.1140  1.6570 -1.1123
10747SOL     OW33456   5.046   3.482   0.593 -0.4386 -0.5194  0.4825
10747SOL    HW133457   5.089   3.408   0.552 -0.5504 -0.6482  0.5989
10747SOL    HW233458   5.057   3.469   0.687 -1.1163 -0.7885  0.5304
10748SOL     OW33459   5.397   2.604   0.588  0.1562  0.1049 -0.2504
10748SOL    HW133460   5.432   2.560   0.666 -0.8873  0.5303  0.4814
10748SOL    HW233461   5.471   2.653   0.553  0.2082  1.4279  1.5655
10749SOL     OW33462   4.274   3.179   1.089  0.3899  0.1942 -0.3065
10749SOL    HW133463   4.367   3.193   1.106  0.6763 -1.4767 -0.3402
10749SOL    HW233464   4.232   3.187   1.175  0.6781  0.1309 -0.1607
10750SOL     OW33465   4.395   3.686   8.573 -0.3506 -0.3462  0.3838
10750SOL    HW133466   4.368   3.707   8.663  0.1751 -0.5303  0.5925
10750SOL    HW233467   4.387   3.769   8.526 -0.6150 -0.2439  0.6081
10751SOL     OW33468   5.203   3.667   1.626  0.3555 -0.0389 -0.6244
10751SOL    HW133469   5.178   3.710   1.708  0.9077 -0.0013 -0.4693
10751SOL    HW233470   5.121   3.650   1.581  0.1319  1.6641 -0.9273
10752SOL     OW33471   5.743   2.102   0.568  0.4234  0.1121  0.5357
10752SOL    HW133472   5.831   2.074   0.593  0.9624  1.6100  0.4254
10752SOL    HW233473   5.697   2.114   0.650  0.3776 -0.4866  0.6005
10753SOL     OW33474   3.614   2.105   0.508 -0.3457 -0.4412  0.3630
10753SOL    HW133475   3.559   2.027   0.499  0.4986 -1.2835  2.0565
10753SOL    HW233476   3.703   2.073   0.496  0.1091 -0.0298  2.2641
10754SOL     OW33477   5.093   2.936   0.067 -0.8525  0.4063  1.0782
10754SOL    HW133478   5.009   2.977   0.045 -1.8110  0.0439  3.7817
10754SOL    HW233479   5.086   2.847   0.033 -0.5207  1.0564 -0.8587
10755SOL     OW33480   4.359   2.889   0.914  0.3344  0.4519  0.0838
10755SOL    HW133481   4.373   2.937   0.996 -1.6266 -1.6473  1.7995
10755SOL    HW233482   4.296   2.942   0.865  1.6139  1.7849 -0.1799
10756SOL     OW33483   5.139   3.026   0.314  0.0623 -0.8726  0.3237
10756SOL    HW133484   5.143   2.938   0.352 -2.3917 -0.9196  0.6717
10756SOL    HW233485   5.114   3.011   0.223 -0.6136 -0.5588  0.4489
10757SOL     OW33486   5.082   3.669   8.799 -0.2046 -0.3436  0.0785
10757SOL    HW133487   4.997   3.626   8.805 -1.1556  1.5874  1.7648
10757SOL    HW233488   5.096   3.682   8.705 -0.2127 -3.4359 -0.4574
10758SOL     OW33489   4.155   3.140   1.635  0.4822 -0.3023  0.0584
10758SOL    HW133490   4.250   3.156   1.633  0.4945 -0.4183 -1.9588
10758SOL    HW233491   4.115   3.222   1.607 -0.0450 -0.1696  1.1610
10759SOL     OW33492   5.380   3.373   1.156 -0.0708 -0.2206 -0.2137
10759SOL    HW133493   5.429   3.408   1.230 -0.4951 -0.2287  0.0808
10759SOL    HW233494   5.289   3.400   1.173 -0.3679 -1.2396 -0.1078
10760SOL     OW33495   4.631   2.996   0.462 -0.0778 -0.1264  0.3451
10760SOL    HW133496   4.623   2.985   0.557  2.9834  1.7808  0.9543
10760SOL    HW233497   4.664   2.912   0.430 -0.4784 -0.5619  1.0603
10761SOL     OW33498   4.804   2.082   0.243 -0.4972  0.4461 -0.4689
10761SOL    HW133499   4.845   2.148   0.298  0.4884  1.4511 -2.3125
10761SOL    HW233500   4.784   2.127   0.161 -1.4780 -1.0986 -1.1428
10762SOL     OW33501   3.936   3.654   0.746  0.2411  0.6365 -0.2746
10762SOL    HW133502   3.943   3.603   0.665  0.7547  0.2618 -0.0015
10762SOL    HW233503   3.848   3.691   0.743 -0.1908 -0.3721 -0.4303
10763SOL     OW33504   5.042   2.341   1.772 -0.0561  0.2709 -0.0223
10763SOL    HW133505   5.103   2.405   1.734  0.3031  0.5887  1.0613
10763SOL    HW233506   5.093   2.296   1.839 -1.1640  1.0083  1.3873
10764SOL     OW33507   3.558   3.814   0.606 -0.5222 -0.3099  0.0336
10764SOL    HW133508   3.510   3.741   0.644 -1.7491 -0.0308 -0.9420
10764SOL    HW233509   3.639   3.775   0.573  1.0067 -0.4606  3.5149
10765SOL     OW33510   3.946   2.942   1.757  0.1375 -0.3254 -0.0436
10765SOL    HW133511   4.028   2.991   1.758  1.0616 -1.8023 -0.9611
10765SOL    HW233512   3.910   2.955   1.669 -0.1685 -0.4129  0.0640
10766SOL     OW33513   4.678   1.741   0.943  0.6142  0.3814 -0.1329
10766SOL    HW133514   4.690   1.816   1.001  1.1408  0.1037  0.1278
10766SOL    HW233515   4.704   1.665   0.995  0.1059  0.0154 -0.4004
10767SOL     OW33516   3.805   2.451   0.045 -0.3828  0.1565 -0.5079
10767SOL    HW133517   3.775   2.452  -0.046 -1.0892 -1.1540 -0.3193
10767SOL    HW233518   3.874   2.385   0.047  1.1632  1.7149 -0.5062
10768SOL     OW33519   5.163   2.226   1.034  0.5657 -0.2114  0.0393
10768SOL    HW133520   5.167   2.317   1.006  1.7125  0.1776  1.3240
10768SOL    HW233521   5.162   2.176   0.953  2.2283  0.8970 -0.7208
10769SOL     OW33522   3.590   2.262   8.695 -0.0084  0.0782 -0.1199
10769SOL    HW133523   3.576   2.235   8.786 -1.0514 -1.0263 -0.5978
10769SOL    HW233524   3.561   2.353   8.693 -1.7542 -0.4409  0.2436
10770SOL     OW33525   4.911   2.573   0.155 -0.1741 -0.2842  0.6599
10770SOL    HW133526   4.865   2.613   0.082 -0.1629 -0.1320  0.7354
10770SOL    HW233527   5.002   2.599   0.144 -0.1475 -0.3805  0.6484
10771SOL     OW33528   4.170   2.703   1.220 -0.0425 -0.6101  0.0140
10771SOL    HW133529   4.207   2.791   1.231  1.4266 -1.0509 -1.0978
10771SOL    HW233530   4.233   2.645   1.261  0.0881 -1.3171 -1.1367
10772SOL     OW33531   4.729   3.215   1.244 -0.0887  0.1639  0.1293
10772SOL    HW133532   4.766   3.289   1.293  2.1885  0.5744 -2.0075
10772SOL    HW233533   4.783   3.141   1.270 -2.0014 -0.7213  1.8246
10773SOL     OW33534   5.057   2.556   1.143  0.0526 -0.3063  0.3855
10773SOL    HW133535   5.138   2.522   1.107  0.5844 -0.1519  1.4040
10773SOL    HW233536   5.044   2.508   1.225 -0.2847  0.4485  0.7937
10774SOL     OW33537   5.507   3.060   1.721  0.2708 -0.0171 -0.4846
10774SOL    HW133538   5.425   3.077   1.675 -0.9687 -2.9212  0.4422
10774SOL    HW233539   5.568   3.033   1.653 -0.8499 -1.9575 -0.8027
10775SOL     OW33540   5.671   2.629   0.821 -0.0879  0.1187  0.4055
10775SOL    HW133541   5.613   2.560   0.788 -1.1864 -0.2368  2.8476
10775SOL    HW233542   5.656   2.703   0.763 -0.8475 -0.8729 -0.7153
10776SOL     OW33543   5.274   1.653   0.355  0.1157  0.5099 -0.0024
10776SOL    HW133544   5.216   1.726   0.332  0.7281  0.5775 -1.4431
10776SOL    HW233545   5.259   1.588   0.287 -0.0363 -0.5024  0.9754
10777SOL     OW33546   4.339   2.169   0.619  0.0209 -0.1282 -0.1853
10777SOL    HW133547   4.328   2.074   0.616  1.3746 -0.3121 -0.1463
10777SOL    HW233548   4.261   2.204   0.576 -0.5338 -1.2535 -0.1250
10778SOL     OW33549   5.098   2.183   2.196  0.1764  0.0613 -0.9765
10778SOL    HW133550   5.072   2.223   2.279 -0.0408  0.7771 -1.3833
10778SOL    HW233551   5.159   2.245   2.157  2.6852 -1.6386  0.0043
10779SOL     OW33552   5.449   2.679   1.295 -0.1071 -0.4210 -0.3146
10779SOL    HW133553   5.498   2.724   1.226 -0.0990  0.1080  0.0306
10779SOL    HW233554   5.407   2.750   1.344  1.0878 -0.6760  1.1482
10780SOL     OW33555   4.611   3.098   0.081  0.4222  0.1204 -0.2619
10780SOL    HW133556   4.587   3.163   0.014 -0.6909  2.4384  2.1821
10780SOL    HW233557   4.530   3.049   0.097 -0.1970  1.5438  1.3139
10781SOL     OW33558   4.415   3.205   0.816  0.5525 -0.6841 -0.2204
10781SOL    HW133559   4.386   3.236   0.902 -0.8327 -0.0029 -0.8999
10781SOL    HW233560   4.483   3.266   0.789 -1.9749  1.8288 -1.4383
10782SOL     OW33561   4.605   2.152   0.467  0.2102 -0.1938  0.2260
10782SOL    HW133562   4.578   2.173   0.378  0.6222 -1.5867 -0.2569
10782SOL    HW233563   4.523   2.142   0.516 -0.0322  0.0817 -0.1247
10783SOL     OW33564   4.849   2.841   8.380  0.6500  0.5003  0.4287
10783SOL    HW133565   4.839   2.902   8.307 -1.4343  0.5730  0.7318
10783SOL    HW233566   4.916   2.881   8.436 -0.1573  2.1488  0.2547
10784SOL     OW33567   5.353   3.156   1.017  0.2653  0.2226 -0.7923
10784SOL    HW133568   5.379   3.228   1.075 -2.4363  0.0588  0.8373
10784SOL    HW233569   5.257   3.156   1.021  0.1240 -3.1110 -1.1283
10785SOL     OW33570   4.075   2.736   1.585  0.3602  0.2311 -0.3360
10785SOL    HW133571   4.086   2.830   1.577 -0.8766  0.4811  0.4631
10785SOL    HW233572   4.070   2.721   1.680  2.6491 -0.9388 -0.3316
10786SOL     OW33573   3.792   3.422   0.612  0.1988  0.5066  0.1194
10786SOL    HW133574   3.795   3.376   0.696  0.1491  0.7696  0.2637
10786SOL    HW233575   3.851   3.371   0.556 -1.3124 -0.8804 -0.2958
10787SOL     OW33576   5.589   2.124   0.804 -0.4815  0.0573 -0.2496
10787SOL    HW133577   5.594   2.132   0.899  0.1448 -0.7682 -0.1991
10787SOL    HW233578   5.549   2.038   0.789 -0.1486 -0.0209 -0.7295
10788SOL     OW33579   3.931   2.375   0.372 -0.2635 -0.3860  0.8476
10788SOL    HW133580   3.900   2.407   0.288  2.5553  0.1756 -0.0827
10788SOL    HW233581   3.888   2.431   0.437 -2.7321 -1.0349 -0.0933
10789SOL     OW33582   5.044   3.169   1.279 -0.0297 -0.6702 -0.2789
10789SOL    HW133583   5.066   3.215   1.360 -0.2364 -0.7869 -0.1561
10789SOL    HW233584   5.025   3.080   1.306  0.3929 -0.8358 -0.5224
10790SOL     OW33585   4.502   2.496   1.203 -0.1359 -0.2068  0.2136
10790SOL    HW133586   4.573   2.511   1.142  0.6502  1.2050  1.4036
10790SOL    HW233587   4.542   2.503   1.290 -1.0726 -2.7761  0.9731
10791SOL     OW33588   4.603   3.495   0.451 -0.0307 -0.7871 -0.1137
10791SOL    HW133589   4.666   3.448   0.507 -0.3234 -2.3955 -1.0709
10791SOL    HW233590   4.585   3.434   0.380 -2.3928 -0.2229 -0.0752
10792SOL     OW33591   5.320   2.025   1.164 -0.8114 -0.3174 -0.0259
10792SOL    HW133592   5.316   2.017   1.260 -1.5036  0.0951 -0.0160
10792SOL    HW233593   5.253   2.089   1.142 -1.0206 -0.8001 -0.8442
10793SOL     OW33594   4.989   1.886   0.849  0.1163 -0.4000 -0.2106
10793SOL    HW133595   5.046   1.814   0.874  0.8731 -0.0544 -0.9008
10793SOL    HW233596   4.917   1.844   0.801 -0.4989 -0.8871  1.0804
10794SOL     OW33597   4.540   3.287   8.718 -0.3682  0.2532 -0.2097
10794SOL    HW133598   4.445   3.281   8.716 -0.4710  0.1831  2.1179
10794SOL    HW233599   4.558   3.381   8.709 -0.8776  0.6703  2.4136
10795SOL     OW33600   4.426   3.261   1.448 -1.1527 -0.2385  0.2128
10795SOL    HW133601   4.490   3.320   1.488 -0.0785 -0.5871 -0.9324
10795SOL    HW233602   4.478   3.201   1.395 -2.3769 -1.0311 -0.1401
10796SOL     OW33603   5.167   1.751   0.057  0.1634 -0.1057  0.4163
10796SOL    HW133604   5.103   1.775  -0.011 -0.3015  1.4837  1.3594
10796SOL    HW233605   5.190   1.661   0.037  0.6589  0.5388 -2.3592
10797SOL     OW33606   5.212   1.924   0.252  0.1388 -0.3253  0.4625
10797SOL    HW133607   5.209   1.870   0.173  0.7652  1.9874 -1.2619
10797SOL    HW233608   5.156   1.999   0.232 -0.8374 -0.3519  2.8258
10798SOL     OW33609   5.467   1.889   0.721  0.2671  0.8215  0.0156
10798SOL    HW133610   5.477   1.794   0.721 -1.3858  0.5995  1.2971
10798SOL    HW233611   5.491   1.915   0.632  1.1552 -0.7292 -0.2417
10799SOL     OW33612   4.143   2.860   0.103  0.8369 -0.1232  0.6400
10799SOL    HW133613   4.137   2.789   0.167  0.2683 -0.2405  0.4597
10799SOL    HW233614   4.205   2.922   0.142  1.6967 -0.9335  0.5802
10800SOL     OW33615   4.885   3.700   0.389 -0.3628 -0.1107 -0.1036
10800SOL    HW133616   4.962   3.648   0.412 -1.3554 -1.9172 -0.6766
10800SOL    HW233617   4.840   3.648   0.322 -1.7247  1.2210 -0.2809
10801SOL     OW33618   4.239   2.819   1.880  0.1749  0.3610 -0.0202
10801SOL    HW133619   4.233   2.902   1.928 -2.2703  0.6853 -0.7071
10801SOL    HW233620   4.165   2.767   1.913 -0.2753 -0.2438 -1.8420
10802SOL     OW33621   3.802   2.230   3.191  0.7578 -0.0284 -0.7164
10802SOL    HW133622   3.749   2.307   3.172 -0.0678 -0.2060  0.7584
10802SOL    HW233623   3.883   2.266   3.229 -0.5952  0.1104  2.2655
10803SOL     OW33624   4.006   2.045   2.132 -0.4571 -0.7096  0.1265
10803SOL    HW133625   4.097   2.025   2.112 -0.2247 -0.4059  0.8299
10803SOL    HW233626   3.982   2.115   2.071 -0.1851 -0.7138  0.0164
10804SOL     OW33627   4.023   3.126   3.182 -0.0586  0.6637 -0.4534
10804SOL    HW133628   4.051   3.174   3.260  1.1175 -1.6022  0.6211
10804SOL    HW233629   4.104   3.113   3.132 -0.6987  1.5407 -1.7844
10805SOL     OW33630   4.754   3.337   2.827  0.0832 -0.4293 -0.0565
10805SOL    HW133631   4.741   3.361   2.919  0.4879 -1.6173  0.3281
10805SOL    HW233632   4.820   3.399   2.796  2.9124 -2.3791  1.5824
10806SOL     OW33633   4.487   2.180   2.410 -0.1796  0.4004  0.0869
10806SOL    HW133634   4.438   2.230   2.475  0.8967  0.2405  1.0554
10806SOL    HW233635   4.432   2.182   2.332 -0.6380  2.2389  0.4021
10807SOL     OW33636   5.306   2.657   2.109  0.3449  0.1473  0.2064
10807SOL    HW133637   5.373   2.595   2.138  0.3351  0.0040 -0.0779
10807SOL    HW233638   5.284   2.707   2.188  0.4611 -0.1086  0.4019
10808SOL     OW33639   4.898   2.834   3.076  0.3575  0.5161 -0.2178
10808SOL    HW133640   4.822   2.852   3.132  0.1590  0.5334 -0.4909
10808SOL    HW233641   4.888   2.893   3.001  1.0885  1.1232  0.1436
10809SOL     OW33642   4.433   2.764   4.035 -0.6255 -0.0502 -0.2808
10809SOL    HW133643   4.416   2.692   3.974 -2.0309 -0.3257  0.3964
10809SOL    HW233644   4.438   2.841   3.980 -1.0159 -0.4148 -0.8410
10810SOL     OW33645   4.293   2.292   2.813 -0.4957 -0.2218 -0.0108
10810SOL    HW133646   4.230   2.358   2.842  0.3701  0.3544  0.5857
10810SOL    HW233647   4.245   2.209   2.821 -1.8232  0.3715 -1.4224
10811SOL     OW33648   4.225   3.173   3.801 -0.2466  0.3161 -0.2516
10811SOL    HW133649   4.315   3.163   3.832 -1.0856 -1.2190  1.8744
10811SOL    HW233650   4.213   3.268   3.794  0.9647  0.6169  1.2117
10812SOL     OW33651   4.299   3.261   2.739 -0.0735  0.7933  0.1695
10812SOL    HW133652   4.244   3.213   2.801 -1.3164  0.2468 -1.3038
10812SOL    HW233653   4.241   3.327   2.702  0.0905 -0.0699 -1.7224
10813SOL     OW33654   5.853   3.353   3.744 -0.3613 -0.5773  0.9295
10813SOL    HW133655   5.777   3.342   3.688  0.5117 -0.7030 -0.2766
10813SOL    HW233656   5.875   3.446   3.737  1.7489 -1.1282 -1.7557
10814SOL     OW33657   4.098   1.538   3.692 -0.0929  0.2298  0.5660
10814SOL    HW133658   4.100   1.444   3.712 -1.5719 -0.1648 -0.9644
10814SOL    HW233659   4.177   1.553   3.640 -0.7471 -0.5792 -0.7142
10815SOL     OW33660   5.047   2.609   2.566 -0.5977 -0.5585  0.1207
10815SOL    HW133661   4.999   2.685   2.601 -2.0006 -1.5056  0.3177
10815SOL    HW233662   5.009   2.593   2.480  0.5797 -0.2825 -0.4805
10816SOL     OW33663   3.792   3.293   2.064  0.4715  0.1772  0.1056
10816SOL    HW133664   3.797   3.301   2.159  0.6295  0.5982  0.0639
10816SOL    HW233665   3.831   3.208   2.045  1.4760  0.5731  0.3327
10817SOL     OW33666   5.275   3.226   3.732  0.1216  0.7664  0.2520
10817SOL    HW133667   5.249   3.135   3.746 -1.9744  0.9828 -1.6963
10817SOL    HW233668   5.234   3.275   3.803  0.9724  0.2883  1.1055
10818SOL     OW33669   4.253   3.467   2.339 -0.5755 -0.7243 -0.1426
10818SOL    HW133670   4.318   3.465   2.409 -0.4101 -3.4542 -0.2700
10818SOL    HW233671   4.172   3.437   2.381 -1.8389  2.3892 -0.0341
10819SOL     OW33672   4.163   3.009   2.461 -0.0346 -0.4604  0.4220
10819SOL    HW133673   4.141   3.079   2.400  0.0140 -1.2137 -0.4865
10819SOL    HW233674   4.255   2.990   2.444 -0.2894 -1.3885 -0.0433
10820SOL     OW33675   4.581   2.624   2.019  0.1264 -0.8081  0.2234
10820SOL    HW133676   4.535   2.604   1.938 -0.9363 -0.4569  0.7201
10820SOL    HW233677   4.658   2.674   1.992  0.3738 -1.6194 -0.6411
10821SOL     OW33678   4.744   2.018   3.421 -0.3103  0.4983 -0.1655
10821SOL    HW133679   4.801   2.083   3.381  0.6664 -0.3074 -0.1298
10821SOL    HW233680   4.795   1.984   3.495 -1.2858  0.5483  0.5433
10822SOL     OW33681   3.491   2.510   2.407 -0.3021 -0.2149 -0.4636
10822SOL    HW133682   3.582   2.532   2.427 -0.1045 -0.9641 -0.5248
10822SOL    HW233683   3.444   2.529   2.489  0.2623 -1.8122  0.2757
10823SOL     OW33684   5.551   3.230   2.357 -0.1572 -0.5212 -0.6273
10823SOL    HW133685   5.627   3.284   2.376 -0.7667  0.1659 -0.0943
10823SOL    HW233686   5.535   3.243   2.264  0.7597 -1.1870 -0.8924
10824SOL     OW33687   3.662   3.519   1.964  0.3099 -0.0317 -0.2193
10824SOL    HW133688   3.579   3.537   2.008 -0.5744  0.0179 -1.8122
10824SOL    HW233689   3.690   3.434   1.998 -0.4845 -0.1221  0.2174
10825SOL     OW33690   5.283   2.434   2.375  0.4591  0.8327  0.1745
10825SOL    HW133691   5.201   2.392   2.400 -0.7835  3.1833  0.3955
10825SOL    HW233692   5.333   2.438   2.456  1.7566 -2.3398 -0.3224
10826SOL     OW33693   4.765   3.434   2.496 -0.3548  0.0205 -0.3211
10826SOL    HW133694   4.779   3.528   2.479  0.1704  0.1147  0.5589
10826SOL    HW233695   4.709   3.432   2.573  0.8663 -0.3841  0.5777
10827SOL     OW33696   3.371   2.172   3.662 -0.2730 -0.3829  0.2785
10827SOL    HW133697   3.440   2.126   3.710  0.3287  0.9122  0.7014
10827SOL    HW233698   3.318   2.103   3.623  0.4389 -1.4249  1.1198
10828SOL     OW33699   4.467   3.220   2.488  0.0007 -0.1708 -0.6163
10828SOL    HW133700   4.385   3.229   2.536  0.0212  1.4582 -0.8326
10828SOL    HW233701   4.531   3.194   2.554 -0.4473 -0.2610 -0.2138
10829SOL     OW33702   4.743   3.122   3.432 -0.7436 -0.2747 -0.0555
10829SOL    HW133703   4.710   3.207   3.462  0.9066  0.6590 -0.7421
10829SOL    HW233704   4.824   3.110   3.480  0.3415 -0.2232 -1.7770
10830SOL     OW33705   4.365   2.168   2.140  0.0483  0.3365  0.0233
10830SOL    HW133706   4.342   2.236   2.076 -1.2323 -0.7723 -0.7370
10830SOL    HW233707   4.331   2.087   2.103  0.4916 -0.5567  1.4728
10831SOL     OW33708   3.995   2.042   3.575  0.4363  0.7421 -0.0738
10831SOL    HW133709   4.085   2.060   3.601  1.0865  2.8776 -3.1697
10831SOL    HW233710   3.942   2.098   3.632  1.4072  2.0927 -0.4447
10832SOL     OW33711   4.827   3.153   2.532 -0.6730  0.1098 -0.1404
10832SOL    HW133712   4.806   3.246   2.527 -3.6242 -0.5289 -1.2248
10832SOL    HW233713   4.833   3.134   2.626 -1.0509  1.1781  0.1051
10833SOL     OW33714   4.094   1.620   3.326 -0.3543 -0.1737 -0.2519
10833SOL    HW133715   4.052   1.605   3.242 -2.7019 -0.8381  0.9628
10833SOL    HW233716   4.054   1.700   3.360  0.1671 -0.2012  0.4764
10834SOL     OW33717   4.494   3.130   3.349  0.3049 -0.3236 -0.0590
10834SOL    HW133718   4.580   3.099   3.377 -1.0061 -0.1649  5.2506
10834SOL    HW233719   4.495   3.224   3.366 -0.6910 -0.1905 -0.6666
10835SOL     OW33720   5.126   3.707   2.590  0.3007  0.2305 -0.4743
10835SOL    HW133721   5.222   3.707   2.587  0.3681  0.5525  1.0655
10835SOL    HW233722   5.103   3.785   2.639 -0.6630 -0.8040  0.8096
10836SOL     OW33723   4.547   2.483   2.271  0.0381 -0.1454  0.1615
10836SOL    HW133724   4.513   2.394   2.267 -0.8628  0.2348 -1.3490
10836SOL    HW233725   4.540   2.515   2.181 -0.2107  1.6616  0.7971
10837SOL     OW33726   4.800   1.838   2.591 -0.5356 -0.2905 -0.6455
10837SOL    HW133727   4.779   1.849   2.684 -1.3202  1.5217 -0.9915
10837SOL    HW233728   4.808   1.744   2.579 -0.7520 -0.5733  1.1944
10838SOL     OW33729   5.368   3.226   2.545  0.3197  0.0273  0.1258
10838SOL    HW133730   5.410   3.258   2.626 -1.5241 -1.3311  1.7164
10838SOL    HW233731   5.440   3.219   2.482  1.5019  3.2390  0.8867
10839SOL     OW33732   4.795   1.904   3.851  0.1906 -0.1276 -0.1713
10839SOL    HW133733   4.865   1.928   3.790  0.4729  0.6038  0.4136
10839SOL    HW233734   4.760   1.988   3.880 -1.7260 -0.4775 -1.3196
10840SOL     OW33735   4.554   2.178   4.065 -0.0513 -0.1422 -0.5155
10840SOL    HW133736   4.537   2.183   3.971  0.8317  1.5692 -0.6199
10840SOL    HW233737   4.537   2.266   4.097  3.0720  0.2972  0.2784
10841SOL     OW33738   4.927   2.820   3.469 -0.3206  0.2570 -0.6687
10841SOL    HW133739   5.007   2.776   3.500 -0.6144 -0.6228 -1.1269
10841SOL    HW233740   4.918   2.896   3.527  0.1468 -0.3392  0.2202
10842SOL     OW33741   4.254   2.151   3.588 -0.1166  0.3747 -0.2408
10842SOL    HW133742   4.306   2.129   3.666  1.1645  1.3139 -0.7949
10842SOL    HW233743   4.310   2.126   3.514 -2.0526 -2.2777 -0.9526
10843SOL     OW33744   4.744   2.787   2.473  0.4613  0.0855  0.1361
10843SOL    HW133745   4.723   2.825   2.558  0.3024 -1.4359  0.7906
10843SOL    HW233746   4.754   2.694   2.489  3.5227  0.1103 -0.9177
10844SOL     OW33747   4.075   2.343   2.589  0.1629  0.4714  0.4447
10844SOL    HW133748   4.116   2.424   2.618  1.3444  0.3941 -0.9011
10844SOL    HW233749   3.989   2.343   2.630  0.9285  1.3987  2.1066
10845SOL     OW33750   4.940   2.627   1.559 -0.4322 -0.1738 -0.0664
10845SOL    HW133751   4.925   2.608   1.651 -0.3268  0.2085  0.0302
10845SOL    HW233752   5.032   2.653   1.554 -0.3442 -0.5213 -0.3354
10846SOL     OW33753   5.373   2.189   3.891  0.5081 -0.5085  0.2037
10846SOL    HW133754   5.298   2.198   3.833  1.7855 -1.5797 -1.7482
10846SOL    HW233755   5.345   2.125   3.956 -0.5303 -0.2828 -0.0000
10847SOL     OW33756   4.572   2.893   2.842  0.0968 -0.4561 -0.0196
10847SOL    HW133757   4.533   2.958   2.784 -2.1886 -2.0474 -0.4015
10847SOL    HW233758   4.550   2.923   2.930 -0.8946 -0.6630 -0.1892
10848SOL     OW33759   4.063   2.055   2.679  0.1571  0.3609 -0.0403
10848SOL    HW133760   4.081   2.091   2.766 -0.9424  1.5174 -0.2675
10848SOL    HW233761   4.055   2.131   2.622 -1.9468 -0.1921 -0.5949
10849SOL     OW33762   4.766   3.703   2.437  0.5447 -0.4661  0.3916
10849SOL    HW133763   4.848   3.707   2.388  0.2543 -0.9476 -0.1371
10849SOL    HW233764   4.751   3.793   2.464  0.9201 -0.2639 -0.0518
10850SOL     OW33765   5.334   2.525   3.266 -0.3930  0.0291  0.2007
10850SOL    HW133766   5.294   2.574   3.194  1.6120  0.3264 -0.8012
10850SOL    HW233767   5.360   2.591   3.330 -2.0008 -0.2192  1.1698
10851SOL     OW33768   4.917   3.048   3.641 -0.6766  0.6002  0.6718
10851SOL    HW133769   4.986   3.089   3.589  0.0087  1.5276  2.2550
10851SOL    HW233770   4.890   3.115   3.703 -1.0636 -0.6374  1.8973
10852SOL     OW33771   4.160   2.969   2.100  0.0294  0.0925 -0.2534
10852SOL    HW133772   4.092   2.984   2.166  1.4548 -0.5818  1.4224
10852SOL    HW233773   4.212   3.049   2.101  0.9535 -0.5075  0.5587
10853SOL     OW33774   4.675   2.667   3.033 -0.0165 -0.1826 -0.1687
10853SOL    HW133775   4.741   2.730   3.061 -0.2064  0.8042 -1.7852
10853SOL    HW233776   4.669   2.679   2.938 -2.4959 -0.2185 -0.0920
10854SOL     OW33777   3.773   2.984   3.855  0.1570  0.8048  0.4468
10854SOL    HW133778   3.688   3.020   3.828  0.0745 -0.5084 -1.2250
10854SOL    HW233779   3.836   3.052   3.832 -0.4376  1.9447  2.0331
10855SOL     OW33780   3.942   1.823   3.427 -0.1289 -0.2568  0.0369
10855SOL    HW133781   3.908   1.844   3.340 -0.1957 -0.1691  0.0849
10855SOL    HW233782   3.968   1.907   3.464  1.8005 -0.4684 -0.6887
10856SOL     OW33783   5.140   3.240   2.113  0.0296  0.1744  0.6027
10856SOL    HW133784   5.206   3.306   2.136  0.7636 -0.8732  1.6340
10856SOL    HW233785   5.068   3.257   2.173 -0.4907  1.0380 -0.2275
10857SOL     OW33786   4.264   3.382   2.065  0.0840 -0.2055 -0.1479
10857SOL    HW133787   4.267   3.427   2.149 -0.9704 -1.9843  0.8945
10857SOL    HW233788   4.249   3.452   2.001 -1.3002  0.9594  1.3647
10858SOL     OW33789   5.059   2.037   1.960  0.0278  0.2874 -0.0549
10858SOL    HW133790   5.066   2.091   2.039  1.4200  1.1777 -0.7529
10858SOL    HW233791   4.985   1.979   1.977  0.9176 -0.2539  2.3226
10859SOL     OW33792   4.243   3.039   3.042  0.3498  0.5955  0.6723
10859SOL    HW133793   4.333   3.011   3.061  0.2410  0.3846  0.8779
10859SOL    HW233794   4.199   2.958   3.014  0.7846  1.0590 -1.5708
10860SOL     OW33795   4.050   2.625   1.902 -0.3666 -0.5801  0.0168
10860SOL    HW133796   3.993   2.559   1.864  0.6649 -2.1546  1.0805
10860SOL    HW233797   4.032   2.621   1.996  1.3474 -1.0347  0.3715
10861SOL     OW33798   4.985   1.941   3.652  0.0951 -0.2507  0.2684
10861SOL    HW133799   5.004   1.847   3.653  1.2279 -0.0297  0.7180
10861SOL    HW233800   5.038   1.976   3.580  0.2047  0.1515  0.5416
10862SOL     OW33801   4.681   2.172   2.008  0.4857  0.0224 -0.2176
10862SOL    HW133802   4.643   2.127   1.933 -1.7490  0.6945  0.3985
10862SOL    HW233803   4.687   2.264   1.981  0.7405  0.0852  0.0446
10863SOL     OW33804   4.650   1.511   4.110  0.6357  0.1509 -0.2378
10863SOL    HW133805   4.673   1.604   4.105 -0.1900  0.3491 -0.4375
10863SOL    HW233806   4.619   1.499   4.200  1.1300 -0.0254 -0.0894
10864SOL     OW33807   4.788   2.063   2.970  0.3680  0.0194  0.1505
10864SOL    HW133808   4.819   2.135   2.916  0.9239  0.0306  0.4771
10864SOL    HW233809   4.843   2.066   3.049  0.1462 -0.5241  0.3361
10865SOL     OW33810   4.138   2.591   2.689 -0.0105  0.2170 -0.1155
10865SOL    HW133811   4.182   2.645   2.622 -0.3857  0.1670 -0.4045
10865SOL    HW233812   4.059   2.641   2.711 -1.1231 -0.8879 -1.4426
10866SOL     OW33813   4.649   1.880   3.205  0.1424 -0.1407  0.1556
10866SOL    HW133814   4.676   1.923   3.286  1.0258  0.0089 -0.2133
10866SOL    HW233815   4.584   1.939   3.167 -0.6879 -0.4714  1.0158
10867SOL     OW33816   4.248   1.903   2.045  0.2945 -0.1987 -0.2199
10867SOL    HW133817   4.230   1.819   2.002  0.4539 -0.7692  0.7804
10867SOL    HW233818   4.279   1.878   2.132  0.0716  0.9171  0.1914
10868SOL     OW33819   5.151   2.885   2.617  0.6110  0.0571 -0.5606
10868SOL    HW133820   5.175   2.939   2.541 -0.8057 -0.6687 -1.5665
10868SOL    HW233821   5.193   2.929   2.691  3.6388 -0.2407 -1.9511
10869SOL     OW33822   4.506   1.865   1.932 -0.0073  0.1676  0.4504
10869SOL    HW133823   4.526   1.934   1.869  1.3627 -1.1104 -0.6054
10869SOL    HW233824   4.423   1.891   1.971 -1.1586  0.8234 -2.2023
10870SOL     OW33825   4.362   2.404   2.536 -0.4159  0.3844 -0.3689
10870SOL    HW133826   4.317   2.368   2.612  0.1749  1.8838  0.7229
10870SOL    HW233827   4.304   2.473   2.504 -0.3560  0.2026 -0.8780
10871SOL     OW33828   4.566   2.958   3.848  0.3966 -0.6140  0.1268
10871SOL    HW133829   4.566   3.009   3.929 -0.8440  1.8502 -1.3324
10871SOL    HW233830   4.555   3.022   3.778 -0.3064 -2.7952 -1.9147
10872SOL     OW33831   4.904   3.555   2.773  0.2011  0.2442  0.4058
10872SOL    HW133832   4.842   3.628   2.778 -0.4121 -0.0060 -2.3036
10872SOL    HW233833   4.969   3.582   2.709  0.8904 -0.9419  0.5674
10873SOL     OW33834   3.756   2.599   2.473  0.8065 -0.4473 -0.6448
10873SOL    HW133835   3.777   2.569   2.385  0.3562 -0.3099 -0.8014
10873SOL    HW233836   3.797   2.686   2.479 -0.2574  0.1102 -1.1863
10874SOL     OW33837   5.010   2.711   1.818  0.1724 -0.3701  0.0794
10874SOL    HW133838   5.011   2.796   1.773  1.0296 -0.7476 -0.6361
10874SOL    HW233839   4.946   2.722   1.888 -0.7189  0.4452 -0.8325
10875SOL     OW33840   3.654   2.470   3.251 -0.1840  0.0187  0.0674
10875SOL    HW133841   3.715   2.535   3.286 -0.2770  0.5583 -0.7295
10875SOL    HW233842   3.606   2.518   3.182  0.2011 -1.0737 -0.9914
10876SOL     OW33843   4.338   1.930   2.877 -0.0646  0.5978  0.2077
10876SOL    HW133844   4.392   1.979   2.814 -0.6915  0.8592 -0.1391
10876SOL    HW233845   4.306   1.855   2.828  0.5967  0.0298  0.6355
10877SOL     OW33846   4.591   2.048   2.753  0.0445 -0.2826  0.5805
10877SOL    HW133847   4.677   2.021   2.786  0.2225 -0.9237 -0.3542
10877SOL    HW233848   4.594   2.143   2.753  1.1065 -0.2998 -0.3040
10878SOL     OW33849   4.799   2.001   2.184  0.0951 -0.1404 -0.4206
10878SOL    HW133850   4.786   2.050   2.265  3.0477  0.6256 -0.3177
10878SOL    HW233851   4.760   2.057   2.116 -0.6037  0.1546  0.2028
10879SOL     OW33852   4.884   3.028   2.888 -0.4940  0.4119  0.3485
10879SOL    HW133853   4.952   3.083   2.849 -0.3243 -1.4480 -2.2053
10879SOL    HW233854   4.829   3.090   2.936  0.7552  2.5389 -0.7828
10880SOL     OW33855   5.148   2.698   3.132  0.2001 -0.3206  0.3527
10880SOL    HW133856   5.094   2.769   3.099 -0.4783 -0.8102  0.3840
10880SOL    HW233857   5.102   2.665   3.209 -0.4235 -1.8880 -0.6230
10881SOL     OW33858   5.640   2.639   2.309 -0.3367  0.5655 -0.3434
10881SOL    HW133859   5.586   2.565   2.280  0.0540  0.7519 -1.6278
10881SOL    HW233860   5.612   2.712   2.253  0.6328  0.8825 -0.4342
10882SOL     OW33861   4.392   3.157   1.991  0.0082 -0.6375 -0.5436
10882SOL    HW133862   4.479   3.189   1.968  0.6952 -2.4346 -0.5942
10882SOL    HW233863   4.344   3.235   2.018  1.0347  0.6607 -2.3083
10883SOL     OW33864   5.059   3.223   2.756  0.1616 -0.5552  0.4089
10883SOL    HW133865   5.142   3.176   2.768  0.4374 -0.0469  0.4954
10883SOL    HW233866   5.074   3.280   2.681  0.8355  1.6085  2.0937
10884SOL     OW33867   4.789   2.783   1.997  0.0122  0.3329 -0.1915
10884SOL    HW133868   4.828   2.769   2.083  0.9049  0.2123 -0.6078
10884SOL    HW233869   4.826   2.866   1.967 -0.9828  0.8294 -0.0920
10885SOL     OW33870   4.336   2.321   1.920 -1.0293 -0.1881  0.6695
10885SOL    HW133871   4.261   2.351   1.868 -0.4090 -0.0675 -0.1892
10885SOL    HW233872   4.412   2.347   1.868 -0.2972  1.6440  2.5464
10886SOL     OW33873   5.350   3.185   3.214  0.1964 -0.6283 -0.1507
10886SOL    HW133874   5.375   3.177   3.122 -1.0065  0.6094 -0.6050
10886SOL    HW233875   5.261   3.149   3.218 -0.2220  0.4225  0.2799
10887SOL     OW33876   4.484   3.164   3.692  0.4354 -0.0066 -0.4220
10887SOL    HW133877   4.532   3.231   3.645 -1.8787  1.7163 -0.5325
10887SOL    HW233878   4.410   3.142   3.635 -0.6947 -0.1536  1.0135
10888SOL     OW33879   5.072   3.179   3.449 -1.2924 -0.0849 -0.1640
10888SOL    HW133880   5.072   3.239   3.524  1.8197  0.1276 -0.2208
10888SOL    HW233881   5.045   3.233   3.375 -2.5160  0.1709  0.4336
10889SOL     OW33882   4.774   3.125   3.157  0.1050 -0.0820  0.2368
10889SOL    HW133883   4.717   3.053   3.132 -0.4559  0.9421 -1.5631
10889SOL    HW233884   4.767   3.130   3.252 -2.0692 -0.5955  0.1367
10890SOL     OW33885   5.283   2.986   2.826  0.5534  0.3402  0.3830
10890SOL    HW133886   5.328   3.058   2.869  0.1280  1.3255 -0.7880
10890SOL    HW233887   5.319   2.907   2.868  3.2451  1.0690 -0.3428
10891SOL     OW33888   4.547   1.644   3.579 -0.1378  0.1601  0.0583
10891SOL    HW133889   4.538   1.550   3.596  0.5710  0.2898  1.2758
10891SOL    HW233890   4.586   1.649   3.492  0.4608 -0.7046  0.2618
10892SOL     OW33891   4.722   3.539   3.749 -0.0660  0.2005  0.1342
10892SOL    HW133892   4.774   3.619   3.757  1.8239 -1.0904  1.5387
10892SOL    HW233893   4.653   3.562   3.686  1.5584  2.3275 -1.0178
10893SOL     OW33894   4.270   2.719   2.210 -0.4446  0.4226 -0.3895
10893SOL    HW133895   4.355   2.711   2.168  0.2912 -1.0217  1.2363
10893SOL    HW233896   4.228   2.793   2.166  1.7094  1.3056 -1.1002
10894SOL     OW33897   4.288   2.421   3.657 -0.1605  0.1412 -0.2303
10894SOL    HW133898   4.281   2.493   3.595 -0.8014  0.5492  0.3003
10894SOL    HW233899   4.271   2.342   3.605 -1.5706  0.5447 -0.4151
10895SOL     OW33900   4.928   1.783   3.161  0.1485 -0.4504  0.1397
10895SOL    HW133901   4.952   1.758   3.250 -0.2658  1.5107  0.8639
10895SOL    HW233902   4.839   1.818   3.169  0.3241  0.2810 -0.9173
10896SOL     OW33903   3.819   3.334   2.973 -0.3488 -0.1732 -0.2244
10896SOL    HW133904   3.891   3.342   3.035 -0.2550 -0.9528 -0.2141
10896SOL    HW233905   3.774   3.254   3.001 -0.6661 -0.1951 -0.7948
10897SOL     OW33906   4.260   2.722   2.474  0.5959 -0.5994  0.1270
10897SOL    HW133907   4.336   2.777   2.493  0.3431  0.2601 -1.2121
10897SOL    HW233908   4.261   2.712   2.379 -0.2513 -1.6465  0.2085
10898SOL     OW33909   4.464   2.306   3.333  0.3591  0.1346 -0.1775
10898SOL    HW133910   4.391   2.367   3.327 -0.2842 -0.4497  1.2425
10898SOL    HW233911   4.481   2.280   3.242  1.3911  3.1935 -0.9535
10899SOL     OW33912   4.594   3.307   2.265  0.3895 -0.2406  0.2974
10899SOL    HW133913   4.641   3.367   2.324  0.4182  0.2358 -0.1968
10899SOL    HW233914   4.537   3.257   2.322  1.3278 -0.6702  0.8876
10900SOL     OW33915   4.319   2.998   3.525 -0.7700 -1.0290 -0.0113
10900SOL    HW133916   4.365   3.062   3.470 -0.5234 -1.7782 -0.6891
10900SOL    HW233917   4.228   3.000   3.492 -1.2672  0.4442  1.3215
10901SOL     OW33918   5.231   2.558   2.771 -0.0663 -0.7788  0.5529
10901SOL    HW133919   5.170   2.590   2.706  2.0097 -0.4360 -1.3434
10901SOL    HW233920   5.189   2.480   2.808 -1.0841 -1.3023 -1.5807
10902SOL     OW33921   4.476   2.050   3.459 -0.4313  0.1512 -0.0471
10902SOL    HW133922   4.510   2.126   3.412 -1.1291 -0.3485 -1.4366
10902SOL    HW233923   4.553   2.010   3.500 -0.2287  2.2728  1.8008
10903SOL     OW33924   5.392   2.693   3.461 -0.0410  0.2503  0.0320
10903SOL    HW133925   5.477   2.675   3.503  0.0582 -0.9215 -0.6353
10903SOL    HW233926   5.399   2.784   3.432  1.5451 -0.2270 -1.2318
10904SOL     OW33927   4.354   1.815   3.931 -0.2597 -0.2870 -0.9342
10904SOL    HW133928   4.377   1.847   4.018 -3.2151  0.5120 -0.3148
10904SOL    HW233929   4.384   1.724   3.930  1.9132  0.3467 -0.0181
10905SOL     OW33930   4.371   1.605   3.198  0.2824 -0.4702  0.0745
10905SOL    HW133931   4.397   1.632   3.110 -1.7612 -0.9504 -0.7359
10905SOL    HW233932   4.340   1.686   3.239 -0.4592 -0.5524 -0.3080
10906SOL     OW33933   4.238   2.520   2.999  0.4039 -0.2716  0.0746
10906SOL    HW133934   4.241   2.553   2.909 -0.6086 -0.3824 -0.0075
10906SOL    HW233935   4.176   2.578   3.044 -0.9589 -1.6510  0.0796
10907SOL     OW33936   4.761   2.379   3.064 -0.2944 -0.2146 -0.0954
10907SOL    HW133937   4.763   2.474   3.077  0.6670 -0.3097  0.5726
10907SOL    HW233938   4.669   2.355   3.074 -0.1651  0.2331  3.0882
10908SOL     OW33939   5.248   2.341   2.034 -0.3296 -0.4525 -0.4107
10908SOL    HW133940   5.233   2.432   2.058 -2.6561 -1.1262  1.0430
10908SOL    HW233941   5.334   2.341   1.992 -0.5795  2.4997 -1.1414
10909SOL     OW33942   3.914   1.644   3.098 -0.3899  0.1784 -0.2248
10909SOL    HW133943   3.900   1.722   3.044  1.7213 -0.3733 -1.6877
10909SOL    HW233944   3.939   1.576   3.036  2.7654 -0.3275  1.4136
10910SOL     OW33945   3.770   3.086   3.118  0.3900  0.1685 -0.0901
10910SOL    HW133946   3.850   3.119   3.158  1.8732 -1.2559 -1.7228
10910SOL    HW233947   3.755   3.001   3.158  0.5016 -0.1868 -0.7913
10911SOL     OW33948   4.610   1.893   3.658  0.0318 -0.2359 -0.1198
10911SOL    HW133949   4.580   1.805   3.634 -0.8380  0.3293 -1.1960
10911SOL    HW233950   4.668   1.879   3.733 -2.5806 -1.4617  1.8322
10912SOL     OW33951   5.785   2.824   4.196  0.7995 -0.4773 -0.2848
10912SOL    HW133952   5.707   2.786   4.236 -0.0028  0.6318 -0.7325
10912SOL    HW233953   5.838   2.855   4.270  0.2215 -0.1274 -0.0152
10913SOL     OW33954   3.933   1.785   2.256 -0.1674 -0.7507 -0.4026
10913SOL    HW133955   3.944   1.793   2.351  0.6131  0.1198 -0.5448
10913SOL    HW233956   3.950   1.873   2.223 -2.7239 -0.4641 -1.1752
10914SOL     OW33957   4.947   2.597   2.316 -0.2927  0.1130  0.3721
10914SOL    HW133958   4.927   2.505   2.300 -0.0130 -0.3830  2.5076
10914SOL    HW233959   4.966   2.634   2.230  1.8725 -2.3813 -0.3118
10915SOL     OW33960   4.586   2.643   3.402  0.0761 -0.0533  0.2672
10915SOL    HW133961   4.549   2.700   3.469  1.4043 -0.3656  1.3196
10915SOL    HW233962   4.512   2.621   3.344 -0.7443  1.5487  0.6653
10916SOL     OW33963   5.265   3.515   3.268  0.3095 -0.3212  0.2606
10916SOL    HW133964   5.240   3.605   3.291 -0.0993  0.3256 -2.3922
10916SOL    HW233965   5.287   3.474   3.352 -2.8900  1.1450  1.9838
10917SOL     OW33966   4.088   2.667   4.087  0.3235 -0.5747 -0.6941
10917SOL    HW133967   4.181   2.677   4.107  0.1434  0.8790 -0.5285
10917SOL    HW233968   4.084   2.668   3.992  0.6024 -2.0555 -0.7482
10918SOL     OW33969   5.371   1.878   2.226 -0.2275  0.1258 -0.0268
10918SOL    HW133970   5.292   1.915   2.264  0.1850  0.3289  0.6518
10918SOL    HW233971   5.358   1.886   2.131 -1.1576 -0.1620  0.0689
10919SOL     OW33972   5.023   2.972   1.686  0.1190  0.3694 -0.1809
10919SOL    HW133973   4.999   3.027   1.761 -0.9063  2.4651 -1.9540
10919SOL    HW233974   5.032   3.032   1.613  0.1877 -1.6887 -1.9797
10920SOL     OW33975   4.511   2.466   3.082 -0.0863 -0.5020 -0.4751
10920SOL    HW133976   4.532   2.556   3.058 -1.9480 -0.0379 -0.5283
10920SOL    HW233977   4.417   2.457   3.063 -0.5797 -1.5962  2.0182
10921SOL     OW33978   3.908   2.735   2.847 -0.2242  0.5254  0.3024
10921SOL    HW133979   3.845   2.764   2.780  0.7122  0.0558 -0.8307
10921SOL    HW233980   3.856   2.722   2.926 -1.6975 -0.5353 -0.7907
10922SOL     OW33981   4.514   2.158   3.077  0.0286  0.2979  0.3633
10922SOL    HW133982   4.501   2.226   3.011 -0.1664  0.4111  0.5171
10922SOL    HW233983   4.600   2.122   3.058 -0.6263 -0.6815 -0.8809
10923SOL     OW33984   4.595   2.259   3.808 -0.2476  0.1430 -0.6409
10923SOL    HW133985   4.533   2.198   3.770 -0.4593 -0.6341  0.8760
10923SOL    HW233986   4.612   2.323   3.739 -2.6837  0.3463 -1.1101
10924SOL     OW33987   5.091   2.009   3.412 -0.0859 -0.1377  0.4724
10924SOL    HW133988   5.099   1.928   3.363 -0.0664  0.9665 -1.4738
10924SOL    HW233989   5.029   2.062   3.361  0.7422  1.4784  1.0739
10925SOL     OW33990   3.456   3.220   1.988 -0.6116  0.1727  0.0230
10925SOL    HW133991   3.448   3.221   2.083 -0.4631 -1.4896  0.0801
10925SOL    HW233992   3.450   3.312   1.962  1.0391  0.8387  1.7630
10926SOL     OW33993   4.308   3.576   2.592 -0.1116 -0.2435 -0.3863
10926SOL    HW133994   4.281   3.647   2.533 -0.0733 -0.5444 -0.7712
10926SOL    HW233995   4.269   3.598   2.676  1.0979  1.0104 -0.1117
10927SOL     OW33996   4.504   2.972   3.115 -0.0426 -0.3800 -0.6233
10927SOL    HW133997   4.582   2.928   3.147  0.1705 -1.0020 -1.9227
10927SOL    HW233998   4.473   3.024   3.189  1.0236 -0.9107  0.2167
10928SOL     OW33999   4.020   2.611   3.135 -0.4121  0.5288  0.2574
10928SOL    HW134000   3.944   2.646   3.088 -0.3723  1.8704  1.1127
10928SOL    HW234001   3.984   2.580   3.219 -0.3254 -0.8366 -0.1953
10929SOL     OW34002   4.292   1.521   3.489 -0.7335  0.2542 -0.1864
10929SOL    HW134003   4.358   1.589   3.475 -1.6781  0.7862 -2.6320
10929SOL    HW234004   4.219   1.546   3.432 -1.9567 -1.7545  0.3727
10930SOL     OW34005   5.150   2.994   3.253 -0.1130 -0.0077  0.4415
10930SOL    HW134006   5.089   2.971   3.183  1.6092  0.2591 -1.1950
10930SOL    HW234007   5.097   3.047   3.313 -1.6480 -0.2704 -0.6005
10931SOL     OW34008   4.733   2.513   2.479 -0.2073 -0.0461 -0.2779
10931SOL    HW134009   4.796   2.486   2.413 -0.0138 -0.6757  0.1581
10931SOL    HW234010   4.652   2.531   2.430  0.0076 -0.2557 -0.7071
10932SOL     OW34011   5.196   2.341   2.941 -1.0120 -0.3812 -0.3532
10932SOL    HW134012   5.239   2.257   2.924  0.6430  0.7808 -2.2313
10932SOL    HW234013   5.240   2.375   3.019  1.1305  0.4708 -1.8438
10933SOL     OW34014   4.022   3.290   3.423 -0.4805 -0.5435  0.3040
10933SOL    HW134015   3.996   3.340   3.346 -0.6821 -1.0260  0.0546
10933SOL    HW234016   4.077   3.351   3.474 -0.5838 -0.1305 -0.0732
10934SOL     OW34017   4.364   1.858   3.289 -0.0336  0.1332 -0.3835
10934SOL    HW134018   4.401   1.884   3.374 -0.8978 -0.2861  0.1293
10934SOL    HW234019   4.309   1.931   3.263 -0.8343 -0.3014  0.0701
10935SOL     OW34020   4.670   2.711   1.576  0.0610  0.5035  0.1524
10935SOL    HW134021   4.636   2.715   1.487 -0.9634 -1.5790  0.3923
10935SOL    HW234022   4.760   2.679   1.566 -0.2322 -0.2516 -0.1191
10936SOL     OW34023   3.790   2.757   3.657 -0.0219 -0.3463 -0.7333
10936SOL    HW134024   3.743   2.837   3.636 -1.5705 -0.7247  0.9601
10936SOL    HW234025   3.800   2.760   3.752 -1.0564 -2.6036 -0.4937
10937SOL     OW34026   5.027   2.348   3.588 -0.1126  0.3400  0.3975
10937SOL    HW134027   5.047   2.296   3.511  1.0717  0.3661  0.6798
10937SOL    HW234028   4.932   2.363   3.582 -0.2593 -0.7753 -0.3341
10938SOL     OW34029   4.815   2.988   2.304  0.0783 -0.4929 -0.0861
10938SOL    HW134030   4.810   3.065   2.361  0.1013 -0.3103 -0.3276
10938SOL    HW234031   4.779   2.917   2.357 -1.6974  0.0493 -0.5014
10939SOL     OW34032   5.380   3.253   2.920  0.2704 -0.2238  0.7085
10939SOL    HW134033   5.462   3.272   2.876 -0.8327 -0.2665 -1.4795
10939SOL    HW234034   5.355   3.337   2.960  0.9432 -0.0069  0.6927
10940SOL     OW34035   4.585   3.591   2.661  0.3261  0.0590  0.0092
10940SOL    HW134036   4.491   3.588   2.644  0.0670  0.0089  1.3761
10940SOL    HW234037   4.614   3.673   2.621  0.1255 -0.9280 -2.3142
10941SOL     OW34038   3.784   2.735   3.084  0.3726 -0.4415  0.0084
10941SOL    HW134039   3.696   2.716   3.053 -0.0616  2.7815 -1.0647
10941SOL    HW234040   3.771   2.786   3.164  1.0674  2.4289 -1.5880
10942SOL     OW34041   5.221   1.941   2.579 -0.5198  0.5269 -0.3524
10942SOL    HW134042   5.176   2.013   2.624 -2.6085 -0.9793  0.1122
10942SOL    HW234043   5.172   1.930   2.497 -0.7973 -0.9252 -0.0061
10943SOL     OW34044   4.197   3.520   3.468  0.1495 -0.5666 -0.2065
10943SOL    HW134045   4.182   3.563   3.384  1.4720  0.0886 -0.1344
10943SOL    HW234046   4.280   3.556   3.500  1.4346 -3.2308 -0.1873
10944SOL     OW34047   4.715   2.588   2.765  0.1828  0.2796  0.0478
10944SOL    HW134048   4.692   2.567   2.675  2.8178 -0.2177 -0.5944
10944SOL    HW234049   4.778   2.660   2.758  0.4473  0.2271  1.4984
10945SOL     OW34050   4.623   3.323   3.892 -0.6391 -0.4429 -0.5893
10945SOL    HW134051   4.563   3.316   3.817 -1.5481 -0.5112  0.1378
10945SOL    HW234052   4.677   3.400   3.872 -0.9374 -0.4002 -1.2596
10946SOL     OW34053   5.294   3.503   2.997 -0.1715  0.1007 -0.3714
10946SOL    HW134054   5.210   3.473   2.963  0.5116 -1.6451 -0.6032
10946SOL    HW234055   5.282   3.506   3.092 -0.3245 -0.7029 -0.3638
10947SOL     OW34056   5.078   2.113   2.739  0.2493  0.0665  0.6067
10947SOL    HW134057   5.019   2.184   2.764  1.2955  1.8091 -1.5813
10947SOL    HW234058   5.137   2.103   2.813  0.1432  1.5782  0.9309
10948SOL     OW34059   4.027   2.564   2.191  0.4202 -0.5058 -0.3331
10948SOL    HW134060   4.111   2.598   2.221  0.9696 -0.5015 -1.8001
10948SOL    HW234061   4.023   2.475   2.225  0.8807 -0.4029 -0.0048
10949SOL     OW34062   4.495   2.815   3.623  0.2497 -0.3273  0.2838
10949SOL    HW134063   4.548   2.856   3.691  2.7230 -1.7016 -0.7192
10949SOL    HW234064   4.414   2.867   3.621  1.2855  1.4803  2.2813
10950SOL     OW34065   4.406   2.944   2.395 -0.3130 -0.4773  0.4991
10950SOL    HW134066   4.423   3.037   2.383 -3.9859  0.0671 -2.1441
10950SOL    HW234067   4.412   2.907   2.307  1.7536 -3.0127  1.5603
10951SOL     OW34068   5.290   3.517   1.847 -0.3939  0.4375  0.2520
10951SOL    HW134069   5.363   3.473   1.802  0.7420  0.5913  1.8661
10951SOL    HW234070   5.261   3.583   1.785 -1.2637 -1.6355 -1.6966
10952SOL     OW34071   4.024   3.055   3.545 -0.3461  0.2751  0.0797
10952SOL    HW134072   4.004   3.074   3.636  1.4698  0.6244  0.4484
10952SOL    HW234073   4.005   3.136   3.498 -1.9311 -0.1099 -0.0043
10953SOL     OW34074   5.850   2.986   3.697  0.2895 -0.3172  0.0089
10953SOL    HW134075   5.856   2.928   3.773  0.1170  1.5878  1.5518
10953SOL    HW234076   5.815   3.068   3.732 -2.0875 -0.0767 -2.5342
10954SOL     OW34077   4.887   2.812   2.704 -0.6210  0.1037  0.6645
10954SOL    HW134078   4.964   2.837   2.653 -0.2849 -0.6941  0.7519
10954SOL    HW234079   4.881   2.879   2.773 -1.1858  1.2846 -0.4919
10955SOL     OW34080   4.579   1.654   2.527  0.2054 -0.1898 -0.1275
10955SOL    HW134081   4.510   1.596   2.492  0.8428 -0.6249 -0.6898
10955SOL    HW234082   4.549   1.742   2.506  0.2138 -0.4127 -1.1056
10956SOL     OW34083   4.109   3.193   2.279  0.5312 -0.4277 -0.1063
10956SOL    HW134084   4.099   3.228   2.190 -0.4179 -0.3630  0.0224
10956SOL    HW234085   4.078   3.263   2.336 -0.5308 -1.1267  0.1945
10957SOL     OW34086   5.108   2.574   3.436 -0.1625 -0.0690  0.0029
10957SOL    HW134087   5.195   2.604   3.461  0.4144 -1.5294 -0.1490
10957SOL    HW234088   5.089   2.501   3.496 -1.2370  0.1652 -0.0329
10958SOL     OW34089   3.850   3.329   1.732 -0.1836 -0.1484 -0.0556
10958SOL    HW134090   3.902   3.407   1.751 -1.0924  0.0061  2.0051
10958SOL    HW234091   3.836   3.288   1.817 -1.3779 -1.5129 -0.8666
10959SOL     OW34092   3.518   2.436   3.677 -0.5776 -0.4350  0.0788
10959SOL    HW134093   3.455   2.364   3.669 -0.6790 -0.1410 -2.2635
10959SOL    HW234094   3.472   2.512   3.643  0.0631  0.4437  1.1227
10960SOL     OW34095   4.255   2.066   3.103 -0.0105  0.1354 -0.3092
10960SOL    HW134096   4.272   1.994   3.042  0.2250  0.5703 -0.7674
10960SOL    HW234097   4.338   2.114   3.107 -0.8952  2.0097 -2.2067
10961SOL     OW34098   3.850   2.440   1.797  0.4888 -0.1924  0.1403
10961SOL    HW134099   3.873   2.416   1.707  0.0621  1.5958 -0.4714
10961SOL    HW234100   3.755   2.432   1.800  0.5313 -0.6070  0.5654
10962SOL     OW34101   4.724   2.841   3.277 -0.9883  0.5071 -0.1450
10962SOL    HW134102   4.653   2.782   3.303 -0.2895 -0.9648 -1.4603
10962SOL    HW234103   4.789   2.833   3.347 -2.2919  2.3807  1.4332
10963SOL     OW34104   3.970   1.599   2.043 -0.1600 -0.3987  0.1751
10963SOL    HW134105   3.945   1.658   2.114 -0.3876  0.3942 -0.5499
10963SOL    HW234106   3.960   1.512   2.081  0.4321  0.0089  1.3486
10964SOL     OW34107   5.142   3.441   2.523 -0.0281 -0.4742  0.4357
10964SOL    HW134108   5.132   3.530   2.556 -0.3474 -0.0832 -0.6697
10964SOL    HW234109   5.235   3.434   2.500  0.0980 -0.5910  0.9831
10965SOL     OW34110   4.630   2.395   3.535 -0.1141 -0.1116 -0.1215
10965SOL    HW134111   4.635   2.466   3.471  2.5675 -0.0518  0.0565
10965SOL    HW234112   4.587   2.323   3.488 -0.0733  0.6136 -1.2992
10966SOL     OW34113   5.008   3.440   3.007 -0.3731  0.4804 -0.0768
10966SOL    HW134114   4.970   3.515   3.052 -2.3462 -1.0293  0.9138
10966SOL    HW234115   4.986   3.453   2.915 -0.6309  1.1473  0.0740
10967SOL     OW34116   4.301   2.645   3.487 -0.6689 -0.5320 -0.0637
10967SOL    HW134117   4.364   2.717   3.492 -1.1760 -0.0613 -0.4095
10967SOL    HW234118   4.216   2.686   3.497 -0.9320 -1.1750  0.4294
10968SOL     OW34119   5.492   2.874   3.815 -0.1915 -0.7463  0.1875
10968SOL    HW134120   5.546   2.885   3.737 -0.1783 -0.2234  0.2711
10968SOL    HW234121   5.427   2.808   3.790  0.0568 -0.8715 -0.1340
10969SOL     OW34122   5.653   2.640   3.019 -0.6154 -0.3382 -0.5389
10969SOL    HW134123   5.676   2.629   3.111  0.8315 -0.1649 -0.8513
10969SOL    HW234124   5.557   2.647   3.019 -0.6106  0.2777  1.0142
10970SOL     OW34125   4.889   2.391   2.136 -0.5690 -0.4444 -0.4771
10970SOL    HW134126   4.826   2.413   2.068 -1.8287 -0.2844  0.6941
10970SOL    HW234127   4.892   2.295   2.136 -0.1924 -0.4371 -1.0715
10971SOL     OW34128   4.064   2.131   2.931 -0.2920 -0.0848  0.0896
10971SOL    HW134129   4.006   2.197   2.968 -0.6286 -0.3005 -0.0470
10971SOL    HW234130   4.117   2.102   3.006 -0.3005  0.1723  0.1966
10972SOL     OW34131   5.121   2.212   3.796 -0.5186  0.4857 -0.0761
10972SOL    HW134132   5.071   2.259   3.729 -1.6184  0.0476  0.4168
10972SOL    HW234133   5.056   2.184   3.860  0.5611  1.3650  1.4816
10973SOL     OW34134   5.268   2.731   3.722 -0.0646 -0.0723  0.4646
10973SOL    HW134135   5.285   2.680   3.643  0.2955  1.1373 -0.2524
10973SOL    HW234136   5.189   2.691   3.759 -1.5238  0.6671 -1.6789
10974SOL     OW34137   4.981   3.339   2.312  0.5431  0.5852 -0.2852
10974SOL    HW134138   4.893   3.325   2.348 -0.0690 -0.6786 -2.1175
10974SOL    HW234139   5.024   3.397   2.375 -2.2240  2.8105 -0.2451
10975SOL     OW34140   4.550   2.323   2.842 -0.5037 -0.1917 -0.2981
10975SOL    HW134141   4.564   2.415   2.863  1.0747  0.1097 -2.3803
10975SOL    HW234142   4.457   2.317   2.818 -0.2985  1.1924 -1.5676
10976SOL     OW34143   5.024   2.803   2.137  0.1066  0.4355  0.1113
10976SOL    HW134144   5.117   2.823   2.138 -0.0700  1.2711  0.2087
10976SOL    HW234145   4.991   2.835   2.221 -0.0375 -1.0700  0.6780
10977SOL     OW34146   4.984   3.273   3.219 -0.0995  0.3524  0.4054
10977SOL    HW134147   4.907   3.224   3.190 -0.2288  1.1738 -0.7164
10977SOL    HW234148   5.002   3.335   3.147  0.9765  0.8890  1.1016
10978SOL     OW34149   3.710   3.056   3.529 -0.4687 -0.0276 -0.2983
10978SOL    HW134150   3.640   3.106   3.488 -0.7996 -0.4856 -0.2968
10978SOL    HW234151   3.777   3.121   3.550 -1.0521  0.4725  0.0374
10979SOL     OW34152   3.924   2.851   2.472  0.2466  0.2882 -0.4874
10979SOL    HW134153   4.007   2.897   2.484 -0.2447  0.9547  0.4145
10979SOL    HW234154   3.912   2.848   2.377  1.2154  0.3269 -0.6201
10980SOL     OW34155   4.233   3.450   3.801 -0.0230  0.1977  0.3339
10980SOL    HW134156   4.266   3.511   3.735 -3.0664  2.5614  0.7456
10980SOL    HW234157   4.252   3.492   3.885 -1.7897  0.4921  0.6419
10981SOL     OW34158   5.332   2.104   2.888 -0.4715 -0.0589  0.5278
10981SOL    HW134159   5.348   2.046   2.814 -0.0399  0.8935 -0.1498
10981SOL    HW234160   5.386   2.069   2.958 -1.1501 -1.1794  0.5168
10982SOL     OW34161   3.668   2.040   2.141 -0.2477  0.0018  0.1895
10982SOL    HW134162   3.647   2.081   2.057 -0.5691  0.0886  0.3110
10982SOL    HW234163   3.725   1.966   2.118  1.7151  1.4661  0.0935
10983SOL     OW34164   5.382   2.951   3.370  0.1266  0.0070 -0.3722
10983SOL    HW134165   5.428   3.014   3.315 -0.6621  0.3277 -0.6798
10983SOL    HW234166   5.291   2.954   3.340 -0.2115 -0.2219  0.5697
10984SOL     OW34167   4.182   2.360   3.224 -0.3238 -0.3362 -0.3680
10984SOL    HW134168   4.199   2.275   3.184 -1.4132 -0.6589 -0.1742
10984SOL    HW234169   4.195   2.423   3.153  0.6616 -0.6327 -0.4678
10985SOL     OW34170   4.575   3.164   2.736  0.0889 -0.1144 -0.5697
10985SOL    HW134171   4.631   3.228   2.781  0.7748  0.5250 -2.2342
10985SOL    HW234172   4.486   3.198   2.747  0.3102  0.3756 -0.2714
10986SOL     OW34173   4.735   1.768   2.868  0.5071  0.6083 -0.1522
10986SOL    HW134174   4.744   1.673   2.874  0.2074  0.5771 -0.1846
10986SOL    HW234175   4.770   1.800   2.951  0.6272  0.4739 -0.1487
10987SOL     OW34176   4.485   1.663   2.963  0.5989 -0.0469 -0.2574
10987SOL    HW134177   4.463   1.662   2.870 -0.4672 -0.7228 -0.0068
10987SOL    HW234178   4.531   1.747   2.976  2.2580 -0.6750 -1.7093
10988SOL     OW34179   4.782   3.174   2.084  0.2711  0.0285 -0.2737
10988SOL    HW134180   4.803   3.118   2.159  0.7929 -1.4668 -1.4947
10988SOL    HW234181   4.728   3.244   2.121  0.7748 -0.4861  1.5463
10989SOL     OW34182   4.908   1.790   2.033  0.1984  0.1710 -0.3398
10989SOL    HW134183   4.864   1.866   2.070  0.3805  1.1884 -2.1244
10989SOL    HW234184   4.852   1.763   1.960 -0.2761 -1.9210  0.7191
10990SOL     OW34185   4.765   2.108   2.444  0.0600 -0.6954  0.5536
10990SOL    HW134186   4.676   2.141   2.432  0.1005 -0.7981 -0.0621
10990SOL    HW234187   4.760   2.053   2.522  0.0396  0.9345  1.7768
10991SOL     OW34188   5.080   1.938   2.357  0.1756 -0.0920 -0.8622
10991SOL    HW134189   5.040   1.992   2.289 -0.0913  1.8267  0.7176
10991SOL    HW234190   5.010   1.927   2.422  0.2523 -2.3526 -1.0885
10992SOL     OW34191   3.895   2.819   2.183  0.0654  0.1563  0.2467
10992SOL    HW134192   3.935   2.735   2.158  0.6402  0.1207  1.2400
10992SOL    HW234193   3.823   2.830   2.121 -0.0819 -1.1197  0.1545
10993SOL     OW34194   3.839   2.205   3.723  0.0614 -0.3012  0.5603
10993SOL    HW134195   3.867   2.276   3.667 -0.8870  0.6282  1.2217
10993SOL    HW234196   3.808   2.248   3.803  1.2513 -1.5795  1.7503
10994SOL     OW34197   3.324   2.554   4.214 -0.0803 -0.3462 -0.0455
10994SOL    HW134198   3.359   2.632   4.170 -0.5688 -0.2654 -0.2971
10994SOL    HW234199   3.401   2.506   4.244  0.2149  0.7094  0.9487
10995SOL     OW34200   3.835   1.989   4.819  0.1917 -0.6613  0.1767
10995SOL    HW134201   3.817   1.902   4.785 -2.5968 -0.7463  1.5290
10995SOL    HW234202   3.898   1.975   4.889  1.4472 -1.2476 -1.0364
10996SOL     OW34203   4.337   3.006   5.023  0.1006 -0.2455  0.1765
10996SOL    HW134204   4.387   3.016   5.103  0.1449  2.9179 -0.1482
10996SOL    HW234205   4.252   2.973   5.051  0.5825 -0.5329  1.3357
10997SOL     OW34206   4.896   3.506   3.977 -0.4306  0.6205  0.0767
10997SOL    HW134207   4.964   3.524   3.912 -1.2015 -0.9028 -1.2409
10997SOL    HW234208   4.855   3.591   3.994  1.6595  1.5395  0.7817
10998SOL     OW34209   4.902   2.898   4.478  0.5099  0.6772  0.3235
10998SOL    HW134210   4.820   2.884   4.526  0.7252  0.3088  0.5830
10998SOL    HW234211   4.881   2.968   4.416 -0.2342  0.0535 -0.1585
10999SOL     OW34212   5.427   2.481   3.976 -0.8051 -0.3913  0.5638
10999SOL    HW134213   5.346   2.530   3.960 -1.2053 -0.7820  1.3373
10999SOL    HW234214   5.398   2.390   3.988 -0.2933 -0.4932  1.0934
11000SOL     OW34215   4.456   3.240   4.813  0.6717 -0.4797  0.4507
11000SOL    HW134216   4.540   3.263   4.772 -0.1168 -1.3479 -1.7689
11000SOL    HW234217   4.440   3.312   4.874  3.0634 -0.3399  1.0395
11001SOL     OW34218   3.885   2.718   5.718  0.2501  0.0238  0.0956
11001SOL    HW134219   3.923   2.779   5.781 -0.1017  0.3820 -0.0363
11001SOL    HW234220   3.932   2.735   5.636  1.1635 -0.8943  0.4120
11002SOL     OW34221   4.435   2.423   4.181 -0.5096 -0.3819  0.1681
11002SOL    HW134222   4.495   2.497   4.178 -0.5291 -0.3359  0.8043
11002SOL    HW234223   4.373   2.445   4.250 -0.9189 -0.6866 -0.0974
11003SOL     OW34224   4.499   3.009   5.242  0.7152 -0.4194  0.5439
11003SOL    HW134225   4.506   2.937   5.305 -1.0174  0.6988  2.0975
11003SOL    HW234226   4.578   3.062   5.257  1.1181 -1.0365  0.6214
11004SOL     OW34227   5.122   3.271   4.872 -0.8935 -0.1892  0.0749
11004SOL    HW134228   5.120   3.358   4.833 -2.1431 -0.5608 -0.7496
11004SOL    HW234229   5.035   3.259   4.910 -0.6171 -0.9492  0.4959
11005SOL     OW34230   4.063   2.372   5.367 -0.1504 -0.0628  0.7472
11005SOL    HW134231   3.976   2.334   5.354 -0.6707 -0.1784  3.8110
11005SOL    HW234232   4.053   2.463   5.338 -0.5588 -0.6696 -1.1622
11006SOL     OW34233   5.197   1.871   4.364 -0.0275 -0.0050  0.3310
11006SOL    HW134234   5.272   1.827   4.406  0.1432 -0.1731 -0.1465
11006SOL    HW234235   5.133   1.802   4.351  0.0538 -0.0229  0.0100
11007SOL     OW34236   4.792   3.297   5.620 -0.3295 -0.2048  0.1332
11007SOL    HW134237   4.776   3.232   5.688 -0.2147 -0.9146 -0.5018
11007SOL    HW234238   4.770   3.381   5.661 -1.5002 -0.7357  0.6371
11008SOL     OW34239   4.084   2.970   4.320  0.3475 -0.4088  0.2306
11008SOL    HW134240   4.119   2.901   4.264  1.6489  0.0002  0.5062
11008SOL    HW234241   4.084   3.049   4.265  0.1665 -0.3345  0.3348
11009SOL     OW34242   3.709   2.294   4.561  0.1310 -0.3495  0.1231
11009SOL    HW134243   3.784   2.353   4.555  0.8827 -1.1568  1.0179
11009SOL    HW234244   3.649   2.323   4.493  1.5005 -0.0111 -0.9910
11010SOL     OW34245   4.121   2.613   3.831 -0.0916 -0.5304  0.5247
11010SOL    HW134246   4.167   2.549   3.778 -0.2811 -0.4034  0.2081
11010SOL    HW234247   4.172   2.693   3.823  0.0875 -0.6103  0.8369
11011SOL     OW34248   4.876   2.159   4.615 -0.2716  0.4249 -0.4549
11011SOL    HW134249   4.931   2.132   4.540  0.4651  0.3593  0.0943
11011SOL    HW234250   4.841   2.077   4.649 -0.0454  0.3880 -0.3078
11012SOL     OW34251   3.935   2.336   4.784 -0.2365  0.0833 -0.2214
11012SOL    HW134252   3.952   2.372   4.698 -0.1361  0.8886  0.1272
11012SOL    HW234253   3.988   2.256   4.788 -1.4871 -0.8627 -1.5028
11013SOL     OW34254   6.166   3.622   4.797 -0.2046  0.2147 -0.0407
11013SOL    HW134255   6.244   3.594   4.750 -0.2840  1.5756 -1.0563
11013SOL    HW234256   6.136   3.544   4.843  1.9337 -0.2436  0.6632
11014SOL     OW34257   3.899   3.606   3.606  0.2434  0.4604  0.2132
11014SOL    HW134258   3.873   3.623   3.516 -1.8525  1.2332  0.8950
11014SOL    HW234259   3.978   3.658   3.619 -0.3515  1.6316 -0.7306
11015SOL     OW34260   5.332   3.238   4.561 -0.0989  0.7048 -0.0403
11015SOL    HW134261   5.299   3.321   4.529  0.2689  0.8112 -0.1483
11015SOL    HW234262   5.255   3.181   4.564  0.2329 -0.1852 -3.8126
11016SOL     OW34263   5.453   3.139   4.273 -0.2468  0.5691 -0.2932
11016SOL    HW134264   5.447   3.101   4.185  0.9645 -1.2398  0.3522
11016SOL    HW234265   5.422   3.229   4.262 -1.9439 -0.1557 -2.1834
11017SOL     OW34266   3.482   2.600   5.393 -0.2584 -0.2567 -0.3809
11017SOL    HW134267   3.556   2.651   5.361  1.0668 -1.4179  0.7178
11017SOL    HW234268   3.492   2.599   5.488  0.7257 -3.7829 -0.3598
11018SOL     OW34269   4.038   2.973   4.653 -0.2385  1.1048 -0.1696
11018SOL    HW134270   4.080   2.959   4.569  0.6677  1.0493  0.2819
11018SOL    HW234271   4.040   3.068   4.665 -1.3703  1.2212 -0.6951
11019SOL     OW34272   5.021   2.983   5.063  0.2415  0.4689 -0.2305
11019SOL    HW134273   4.984   3.064   5.028 -2.1642  1.0481  3.1557
11019SOL    HW234274   4.946   2.924   5.070  1.2177 -0.7001  0.8358
11020SOL     OW34275   4.658   1.750   4.511  0.2836 -0.2651 -1.0069
11020SOL    HW134276   4.621   1.819   4.456 -0.0243  1.7060  1.5218
11020SOL    HW234277   4.723   1.794   4.565  1.3136 -2.3144 -0.4542
11021SOL     OW34278   4.252   2.806   4.779 -0.0124 -0.6619 -0.5115
11021SOL    HW134279   4.161   2.823   4.753 -0.7348  0.3428  2.2706
11021SOL    HW234280   4.299   2.885   4.754 -0.8758  0.6734  1.7698
11022SOL     OW34281   5.157   2.995   3.803 -0.4175  0.2966  0.5241
11022SOL    HW134282   5.209   2.923   3.768  0.0476  0.0568  1.6662
11022SOL    HW234283   5.067   2.962   3.801 -0.4692  0.4642 -0.8403
11023SOL     OW34284   3.801   2.260   5.347 -0.0512  0.0388 -0.2725
11023SOL    HW134285   3.776   2.171   5.370 -0.4857  0.7216  2.2105
11023SOL    HW234286   3.727   2.314   5.376  0.9261  1.3460 -0.0819
11024SOL     OW34287   5.055   3.130   4.595  0.4019  0.0926 -0.3061
11024SOL    HW134288   4.983   3.105   4.537  0.0273 -0.9300  0.5594
11024SOL    HW234289   5.026   3.211   4.637  0.2485  0.2918 -0.7894
11025SOL     OW34290   5.252   3.677   4.277 -0.3524 -0.0311 -0.0264
11025SOL    HW134291   5.203   3.723   4.345 -2.0155 -0.3198 -0.9628
11025SOL    HW234292   5.247   3.735   4.201 -0.5868 -0.7699 -0.5835
11026SOL     OW34293   3.796   2.728   3.963 -0.7788  0.3107  0.3007
11026SOL    HW134294   3.858   2.730   4.036 -0.6506  0.6764  0.1829
11026SOL    HW234295   3.773   2.820   3.948  0.1306  0.3695 -0.9088
11027SOL     OW34296   5.008   2.550   4.388  0.5185  0.1102 -0.1158
11027SOL    HW134297   4.949   2.581   4.320 -0.1277  0.0727  0.4154
11027SOL    HW234298   4.951   2.501   4.448  1.4145 -1.7455 -0.7052
11028SOL     OW34299   5.311   3.554   3.939  0.1118 -0.8301  0.0846
11028SOL    HW134300   5.271   3.590   4.018  0.7410 -0.5241  0.2747
11028SOL    HW234301   5.244   3.562   3.872  0.2967  0.9272  0.0692
11029SOL     OW34302   4.780   2.651   5.386 -0.2343  0.0360  1.0070
11029SOL    HW134303   4.759   2.680   5.475 -0.7697  0.3052  0.7942
11029SOL    HW234304   4.695   2.632   5.346 -0.0231  0.3074  0.4195
11030SOL     OW34305   5.398   1.914   5.225  0.0683  0.5852  0.1533
11030SOL    HW134306   5.310   1.883   5.242 -0.5112  0.9910 -1.8743
11030SOL    HW234307   5.395   2.007   5.247 -0.6446  1.0813 -1.8472
11031SOL     OW34308   4.449   2.638   5.723 -0.1986  0.3401  0.4858
11031SOL    HW134309   4.457   2.574   5.653 -1.0784  0.7727 -0.0183
11031SOL    HW234310   4.357   2.665   5.723  0.2472  2.0141  0.2992
11032SOL     OW34311   4.488   2.443   4.897  0.7703 -0.3035 -0.5796
11032SOL    HW134312   4.398   2.409   4.892  1.2281 -1.4178 -1.6688
11032SOL    HW234313   4.477   2.536   4.915 -0.5613 -0.7013  0.9052
11033SOL     OW34314   4.674   2.845   4.124  0.1229  0.4045 -0.2387
11033SOL    HW134315   4.666   2.940   4.127  0.2281  0.4159 -0.3449
11033SOL    HW234316   4.584   2.814   4.114 -0.1799  0.4109  1.9020
11034SOL     OW34317   3.508   2.197   5.043  1.0076 -0.2119  0.0483
11034SOL    HW134318   3.556   2.172   4.964  1.9698  0.9469  0.2397
11034SOL    HW234319   3.479   2.286   5.026  1.7997  0.3031  1.2346
11035SOL     OW34320   3.798   3.705   5.365  0.1204  0.0891 -0.1122
11035SOL    HW134321   3.845   3.737   5.288 -0.9132  1.2651 -0.2857
11035SOL    HW234322   3.787   3.783   5.421 -0.1434 -0.5104  0.6896
11036SOL     OW34323   4.434   2.051   3.777 -0.1280  0.3714  0.4866
11036SOL    HW134324   4.489   2.010   3.711  2.2565  1.6471  1.5587
11036SOL    HW234325   4.406   1.980   3.834  2.6055 -0.0722  1.3965
11037SOL     OW34326   5.513   2.424   5.486  0.0350  0.0773  0.1415
11037SOL    HW134327   5.595   2.403   5.530 -0.4763  0.8413  1.5459
11037SOL    HW234328   5.538   2.441   5.395  1.5434  0.9217  0.6696
11038SOL     OW34329   4.857   3.154   3.888 -0.8299  0.2610 -0.8500
11038SOL    HW134330   4.778   3.189   3.928 -0.8265 -0.2760 -0.3565
11038SOL    HW234331   4.927   3.211   3.919 -0.7824 -0.3287  0.1976
11039SOL     OW34332   4.516   1.817   5.094  0.0265  0.1652  0.4793
11039SOL    HW134333   4.479   1.901   5.066  0.6912  1.1459  2.3979
11039SOL    HW234334   4.553   1.779   5.014  1.0490  2.4104 -0.1821
11040SOL     OW34335   4.500   3.512   4.231 -0.8993 -0.2823  0.4762
11040SOL    HW134336   4.537   3.570   4.164 -0.1738 -0.1991  0.9278
11040SOL    HW234337   4.550   3.534   4.310 -2.7322  0.6708  1.4144
11041SOL     OW34338   5.642   2.948   4.698  0.9862 -0.0446  0.3358
11041SOL    HW134339   5.576   2.964   4.765 -0.2258  1.6618 -1.1472
11041SOL    HW234340   5.591   2.927   4.619  2.3336 -1.3527 -0.2334
11042SOL     OW34341   4.641   3.300   5.089  0.0958 -0.0440 -0.6957
11042SOL    HW134342   4.673   3.338   5.171  1.4946 -1.7054 -0.4047
11042SOL    HW234343   4.557   3.260   5.112 -0.5555  1.2966 -0.6164
11043SOL     OW34344   4.609   3.125   4.066  0.0642  0.3602 -0.4350
11043SOL    HW134345   4.604   3.203   4.010 -0.3469  0.5665 -0.1125
11043SOL    HW234346   4.623   3.159   4.154  1.2920  0.0134 -0.4782
11044SOL     OW34347   5.096   2.448   4.705 -0.1884  0.6831 -0.2869
11044SOL    HW134348   5.160   2.509   4.667 -0.5240  2.5024  1.8369
11044SOL    HW234349   5.012   2.475   4.669 -0.1507  0.4396 -0.5576
11045SOL     OW34350   4.072   2.936   5.077  0.0794  0.5657 -0.1555
11045SOL    HW134351   4.071   3.022   5.034 -4.5831  0.2618 -1.1450
11045SOL    HW234352   3.990   2.933   5.126  0.6277 -2.9051  0.7871
11046SOL     OW34353   3.925   2.606   5.308 -0.3037  0.1108  0.0703
11046SOL    HW134354   3.950   2.662   5.381 -2.1111  0.0499  0.7628
11046SOL    HW234355   3.830   2.612   5.304 -0.3469 -1.0729 -1.3327
11047SOL     OW34356   5.172   3.278   4.070  0.4342  0.4946  0.4107
11047SOL    HW134357   5.232   3.329   4.124 -0.1961  1.7535 -0.0449
11047SOL    HW234358   5.085   3.297   4.106  0.0727  0.7988 -0.5946
11048SOL     OW34359   4.339   4.092   4.151 -0.2486 -0.0664 -0.5394
11048SOL    HW134360   4.305   4.016   4.199 -1.4339 -0.3694 -1.7953
11048SOL    HW234361   4.331   4.165   4.212 -1.4391 -0.4902 -0.1604
11049SOL     OW34362   5.081   2.098   4.459 -0.4681  0.0089  0.3400
11049SOL    HW134363   5.140   2.043   4.408  1.8119  0.6484  2.1360
11049SOL    HW234364   5.106   2.188   4.438  1.1212  0.3129  3.0076
11050SOL     OW34365   3.825   1.761   4.462 -0.0880  0.0029 -0.0179
11050SOL    HW134366   3.834   1.831   4.526  3.4305  0.0534 -0.3805
11050SOL    HW234367   3.814   1.806   4.378 -1.4236 -0.0192  0.1163
11051SOL     OW34368   5.379   1.665   5.087  0.5295  0.4043 -0.2581
11051SOL    HW134369   5.445   1.621   5.141 -0.8504  0.4824  1.6309
11051SOL    HW234370   5.400   1.758   5.095 -0.2742  0.5104  1.1409
11052SOL     OW34371   4.076   1.860   4.008 -0.2823 -0.0388 -0.1252
11052SOL    HW134372   4.036   1.825   3.928  0.0861 -1.0242  0.1065
11052SOL    HW234373   4.166   1.879   3.984 -0.5545  1.0700 -0.3282
11053SOL     OW34374   4.440   1.853   5.511 -0.0630 -0.3483 -0.5461
11053SOL    HW134375   4.430   1.948   5.504  0.8545  0.2578  3.6590
11053SOL    HW234376   4.523   1.834   5.469 -0.7413  0.4642 -2.3619
11054SOL     OW34377   5.286   2.222   4.735 -0.0287  0.2363 -0.0147
11054SOL    HW134378   5.261   2.309   4.704 -1.3973  0.1956  0.8721
11054SOL    HW234379   5.202   2.178   4.753  0.6293 -1.3013 -0.5340
11055SOL     OW34380   4.394   3.047   4.652  0.7360  0.7670 -0.1756
11055SOL    HW134381   4.343   3.120   4.617  0.6242  0.8665  0.1856
11055SOL    HW234382   4.447   3.086   4.722 -0.0971  0.3205  0.7347
11056SOL     OW34383   4.385   2.662   5.000 -0.7526  0.0559 -0.1242
11056SOL    HW134384   4.310   2.635   5.053  0.1725  0.4308  1.4451
11056SOL    HW234385   4.349   2.729   4.941 -1.0867  3.0276  3.0795
11057SOL     OW34386   4.602   2.069   4.420  0.0443 -0.3752 -0.1504
11057SOL    HW134387   4.515   2.094   4.390 -0.2034 -0.7299  0.2699
11057SOL    HW234388   4.625   2.135   4.486 -0.4196 -0.9723  0.6259
11058SOL     OW34389   4.911   2.875   3.919 -0.2084  0.1286  0.1738
11058SOL    HW134390   4.845   2.871   3.988 -1.3503  0.5889 -0.8506
11058SOL    HW234391   4.894   2.958   3.874  1.7465  0.7554  0.5055
11059SOL     OW34392   3.605   1.563   3.803 -0.2861 -0.1436  0.3067
11059SOL    HW134393   3.566   1.604   3.725 -1.4014 -0.0522  0.8917
11059SOL    HW234394   3.666   1.628   3.837  0.0546 -0.1010 -0.3667
11060SOL     OW34395   4.452   1.937   4.167 -0.3908 -0.1587 -0.4972
11060SOL    HW134396   4.535   1.896   4.192 -0.2512  1.8301  2.9509
11060SOL    HW234397   4.478   2.020   4.127 -0.6181  0.8323  1.3061
11061SOL     OW34398   5.147   2.214   5.278 -0.0210 -0.4972  0.4033
11061SOL    HW134399   5.151   2.279   5.347 -1.6139 -2.3010  2.3177
11061SOL    HW234400   5.237   2.205   5.248  0.3380  2.0243  0.5304
11062SOL     OW34401   4.949   3.391   4.620  0.4351  0.3976  0.0336
11062SOL    HW134402   4.925   3.452   4.551 -2.6761  0.5677  1.1068
11062SOL    HW234403   4.995   3.444   4.685  2.8526  0.3458 -1.4937
11063SOL     OW34404   4.585   2.964   4.925  0.3598  0.1579 -0.1248
11063SOL    HW134405   4.609   3.052   4.893 -1.2422 -0.3301 -3.0453
11063SOL    HW234406   4.490   2.967   4.933  0.2570 -1.3879 -0.5347
11064SOL     OW34407   4.854   3.522   4.414  0.0839 -0.4527  0.5917
11064SOL    HW134408   4.897   3.605   4.392 -0.5756 -0.2371  0.0908
11064SOL    HW234409   4.763   3.546   4.428  0.2519 -0.7466  2.5273
11065SOL     OW34410   4.442   2.560   3.823  0.2434  0.5400  0.0287
11065SOL    HW134411   4.442   2.639   3.770  2.0010  0.4755 -0.1400
11065SOL    HW234412   4.406   2.492   3.766  1.1603  0.6865 -0.7338
11066SOL     OW34413   3.450   2.451   4.931  0.0043  0.2607 -0.2550
11066SOL    HW134414   3.535   2.490   4.953 -0.6159  0.9945  0.9246
11066SOL    HW234415   3.402   2.522   4.888 -0.5355  0.3072  0.4106
11067SOL     OW34416   4.324   2.078   4.921  0.7227  0.1060 -0.3805
11067SOL    HW134417   4.405   2.115   4.955  0.2142  1.3915 -0.5372
11067SOL    HW234418   4.264   2.152   4.912 -0.5726 -0.8432 -0.0101
11068SOL     OW34419   4.881   2.665   4.173  0.2010 -0.2853 -0.2226
11068SOL    HW134420   4.857   2.611   4.098 -0.7841  0.1840 -0.2613
11068SOL    HW234421   4.808   2.725   4.184 -0.0564 -0.8463  1.5901
11069SOL     OW34422   4.582   2.373   4.601  0.1775 -0.3632  0.0113
11069SOL    HW134423   4.552   2.448   4.653 -1.2832 -0.8571 -0.0953
11069SOL    HW234424   4.601   2.305   4.666  2.1702  0.2709  0.1666
11070SOL     OW34425   4.854   3.108   4.317  0.0164  0.2141  0.3918
11070SOL    HW134426   4.770   3.154   4.316 -0.4252 -0.5236  1.6359
11070SOL    HW234427   4.915   3.170   4.277 -1.1428  0.6725 -0.7369
11071SOL     OW34428   4.850   2.434   4.553 -0.1641  0.1438 -0.7554
11071SOL    HW134429   4.754   2.426   4.549 -0.1585 -0.9329  0.4460
11071SOL    HW234430   4.879   2.347   4.580  1.1559  0.4727 -1.0954
11072SOL     OW34431   5.289   2.806   4.138 -0.3734 -0.1777  0.1407
11072SOL    HW134432   5.322   2.885   4.096  0.2982 -1.1624 -1.2620
11072SOL    HW234433   5.201   2.830   4.169 -0.3823  0.9534 -0.7078
11073SOL     OW34434   3.928   3.448   3.832  0.0513 -0.2293  0.1627
11073SOL    HW134435   3.976   3.513   3.882 -1.2227  0.3593  0.6690
11073SOL    HW234436   3.910   3.490   3.748 -4.1501  1.7864  1.7800
11074SOL     OW34437   4.940   3.352   4.216 -0.5353 -0.4135 -0.1055
11074SOL    HW134438   4.933   3.404   4.136  2.2339  0.2890  0.0039
11074SOL    HW234439   4.920   3.414   4.286 -0.8553 -0.4733 -0.1423
11075SOL     OW34440   4.884   2.173   3.969 -0.5359 -0.1982 -0.8941
11075SOL    HW134441   4.893   2.266   3.991  0.6295 -0.5920  0.3963
11075SOL    HW234442   4.799   2.149   4.005 -0.4339  0.1508 -0.4006
11076SOL     OW34443   4.088   1.572   4.028  0.3740 -0.4746 -0.0280
11076SOL    HW134444   4.043   1.655   4.048  1.5853  0.8732 -2.4762
11076SOL    HW234445   4.180   1.597   4.018  1.0195 -2.4158  0.5895
11077SOL     OW34446   5.201   2.989   5.258  0.4458  0.0909  0.0864
11077SOL    HW134447   5.127   2.971   5.199  0.1689  2.2080 -0.2838
11077SOL    HW234448   5.243   2.904   5.269 -2.2752 -1.3017  0.6688
11078SOL     OW34449   4.878   3.215   5.004 -0.0710  1.1478  0.4227
11078SOL    HW134450   4.856   3.172   4.921  3.2210 -0.7625  0.4005
11078SOL    HW234451   4.793   3.232   5.045 -1.7129 -1.3757 -1.6221
11079SOL     OW34452   5.013   3.510   5.518  0.1543 -0.4253 -0.0678
11079SOL    HW134453   5.004   3.510   5.423 -0.1262  0.6592 -0.0503
11079SOL    HW234454   4.923   3.507   5.551  0.1600  1.2261  0.1465
11080SOL     OW34455   5.362   3.166   4.848 -0.7669  0.2337 -0.6993
11080SOL    HW134456   5.279   3.198   4.882 -0.2213  1.9037 -0.8289
11080SOL    HW234457   5.353   3.172   4.753 -0.4508  0.6157 -0.7105
11081SOL     OW34458   5.510   2.955   4.961 -0.1084 -0.5263  0.5589
11081SOL    HW134459   5.466   3.036   4.937 -0.8240 -1.0428  0.1012
11081SOL    HW234460   5.595   2.983   4.996 -0.2648  0.4014  0.2119
11082SOL     OW34461   4.660   2.354   5.094 -0.7634 -0.1234 -0.2727
11082SOL    HW134462   4.621   2.386   5.012 -2.1633  2.0193  1.1398
11082SOL    HW234463   4.754   2.347   5.074 -0.7876  2.1769 -1.5790
11083SOL     OW34464   4.689   2.748   5.634 -0.2512  0.0112  0.4075
11083SOL    HW134465   4.724   2.825   5.679 -1.8058  0.9460  0.0952
11083SOL    HW234466   4.624   2.713   5.695 -0.3217 -0.4089  0.0866
11084SOL     OW34467   4.181   2.071   4.430  0.3404 -0.2865 -0.3613
11084SOL    HW134468   4.160   2.061   4.338  0.2030 -0.5338 -0.3019
11084SOL    HW234469   4.252   2.136   4.431 -0.1351  0.2438 -0.5841
11085SOL     OW34470   4.217   2.356   4.987 -0.5549  0.1678 -0.0342
11085SOL    HW134471   4.198   2.443   4.952  0.2026  0.9901  1.4862
11085SOL    HW234472   4.138   2.331   5.034 -0.5813  0.2697 -0.0246
11086SOL     OW34473   4.730   2.861   4.694  0.2655  0.3005 -0.6961
11086SOL    HW134474   4.673   2.850   4.770 -1.1487 -3.6727 -2.0406
11086SOL    HW234475   4.818   2.844   4.728 -0.1706 -0.0302  0.3097
11087SOL     OW34476   3.405   3.589   4.880 -0.6765 -0.0046  0.5276
11087SOL    HW134477   3.407   3.682   4.856 -1.5189 -0.5836 -2.1514
11087SOL    HW234478   3.482   3.551   4.838 -1.1464 -0.7742  0.3357
11088SOL     OW34479   4.119   3.155   4.133  0.1387  0.1395 -0.6572
11088SOL    HW134480   4.143   3.242   4.167 -0.1215 -0.4632  1.1862
11088SOL    HW234481   4.044   3.172   4.075  0.1092  1.1571 -0.3389
11089SOL     OW34482   4.299   2.518   4.432 -0.1784 -0.1099 -0.1503
11089SOL    HW134483   4.217   2.531   4.384 -0.4669 -2.6480 -0.4827
11089SOL    HW234484   4.347   2.601   4.420 -3.6294  2.5237  2.1745
11090SOL     OW34485   4.646   3.805   3.623 -0.6631  0.0714 -0.0280
11090SOL    HW134486   4.618   3.896   3.615 -0.3207  0.0158 -2.3837
11090SOL    HW234487   4.731   3.810   3.666 -0.1645  0.9592 -1.0819
11091SOL     OW34488   5.204   3.248   5.162 -0.5916 -0.3829  0.3135
11091SOL    HW134489   5.118   3.241   5.121 -0.2970  0.5741 -0.4877
11091SOL    HW234490   5.225   3.158   5.189 -0.6873 -1.0949 -1.8414
11092SOL     OW34491   5.015   2.431   4.049  0.1112 -0.0979  0.0233
11092SOL    HW134492   5.085   2.469   4.101 -1.1183  1.0036  0.9454
11092SOL    HW234493   5.019   2.477   3.965 -0.1014  0.6672  0.4237
11093SOL     OW34494   3.744   3.658   4.934 -0.0383 -0.2751 -0.5374
11093SOL    HW134495   3.704   3.608   4.863 -1.1349  0.2665 -0.3229
11093SOL    HW234496   3.706   3.620   5.014  2.3643 -1.9480 -0.0953
11094SOL     OW34497   3.675   2.483   5.177 -0.2661  0.5966  0.5974
11094SOL    HW134498   3.727   2.457   5.101 -2.8507  0.2876 -1.1919
11094SOL    HW234499   3.678   2.579   5.178 -0.3868  0.6060 -0.0331
11095SOL     OW34500   5.234   2.344   5.484  0.2448 -0.4206  0.1448
11095SOL    HW134501   5.330   2.340   5.491  0.2570  1.1872  1.6821
11095SOL    HW234502   5.202   2.306   5.566 -0.2330  2.8490  1.6280
11096SOL     OW34503   4.738   2.033   5.688 -0.5946 -0.5256  0.4940
11096SOL    HW134504   4.670   1.984   5.732  0.3120  1.0632  4.0557
11096SOL    HW234505   4.708   2.124   5.689  1.2683  0.1412  1.6902
11097SOL     OW34506   4.327   1.636   5.182  0.1752  0.0726 -0.2021
11097SOL    HW134507   4.382   1.714   5.191 -0.4601  0.3014  2.4112
11097SOL    HW234508   4.243   1.669   5.152  0.4868  0.1098 -1.0681
11098SOL     OW34509   3.915   2.740   4.559 -0.3981  0.4666  0.1755
11098SOL    HW134510   3.924   2.792   4.638 -0.7138  0.9814 -0.1223
11098SOL    HW234511   3.877   2.800   4.494  2.8045  1.0685 -1.3441
11099SOL     OW34512   5.216   2.541   4.179  0.1101  0.4197 -0.2924
11099SOL    HW134513   5.247   2.631   4.162 -1.2587  0.7723 -1.0278
11099SOL    HW234514   5.176   2.546   4.266  1.7989  0.0160  0.5609
11100SOL     OW34515   4.713   2.511   3.983 -0.0286 -0.0228 -0.7906
11100SOL    HW134516   4.666   2.561   3.915 -1.8803  0.0810  0.4769
11100SOL    HW234517   4.657   2.435   3.999  0.8321 -0.5038 -0.0164
11101SOL     OW34518   3.980   2.225   5.082  0.2086  0.1867 -0.1478
11101SOL    HW134519   3.922   2.220   5.158  0.5627 -0.3067  0.0909
11101SOL    HW234520   3.957   2.148   5.030  0.4058  0.1814 -0.2277
11102SOL     OW34521   3.982   3.447   4.941 -0.1400 -0.0718  0.1361
11102SOL    HW134522   4.022   3.505   5.006  1.7567 -1.0460 -0.0593
11102SOL    HW234523   3.967   3.503   4.865 -0.1457  0.5783  0.6090
11103SOL     OW34524   4.350   2.612   5.452  0.5188 -0.7223  0.5197
11103SOL    HW134525   4.293   2.537   5.467  0.2923 -0.4477  1.0718
11103SOL    HW234526   4.412   2.582   5.386  0.2454 -1.2950  0.5134
11104SOL     OW34527   5.375   2.795   5.339  0.4585  0.1056 -0.9001
11104SOL    HW134528   5.339   2.732   5.277  2.3746 -1.1293 -0.8466
11104SOL    HW234529   5.366   2.752   5.425  0.1569  0.6926 -0.6310
11105SOL     OW34530   4.217   2.534   4.743  0.2369  0.5584  0.1574
11105SOL    HW134531   4.227   2.534   4.648 -2.8431  1.0617 -0.2639
11105SOL    HW234532   4.226   2.626   4.768 -1.8103  0.8619 -0.0901
11106SOL     OW34533   5.801   2.502   4.100 -0.2949 -0.4440  0.2353
11106SOL    HW134534   5.762   2.576   4.146 -0.2029 -0.6321  0.6171
11106SOL    HW234535   5.771   2.511   4.009  0.3641  0.5136  0.1036
11107SOL     OW34536   4.719   3.150   5.369 -0.4569  0.7673  0.4555
11107SOL    HW134537   4.798   3.198   5.395  0.2649  0.2263 -0.6672
11107SOL    HW234538   4.650   3.187   5.424  0.7728  0.4323  2.3487
11108SOL     OW34539   4.749   3.606   5.596 -0.1702  0.2881  0.0036
11108SOL    HW134540   4.718   3.663   5.666  1.2543  0.0321  0.8708
11108SOL    HW234541   4.768   3.665   5.523 -0.3628  0.7157  0.2958
11109SOL     OW34542   5.318   3.631   5.450  0.6572  0.2928 -0.5190
11109SOL    HW134543   5.275   3.683   5.519  1.3110  0.8721 -0.5366
11109SOL    HW234544   5.245   3.592   5.401  0.1300  1.5834 -0.8013
11110SOL     OW34545   4.228   2.962   5.458  0.7452  0.2073  0.4626
11110SOL    HW134546   4.321   2.938   5.459  0.7667  0.2831  0.2984
11110SOL    HW234547   4.222   3.032   5.393  0.7225  0.8355  1.1399
11111SOL     OW34548   5.011   1.938   4.083 -0.1271  0.8803  0.3896
11111SOL    HW134549   4.978   2.014   4.034  1.3579  0.5698 -1.2115
11111SOL    HW234550   5.092   1.968   4.122  1.6203 -0.3534 -2.0156
11112SOL     OW34551   4.806   2.608   3.652  0.5574  0.0444  0.5838
11112SOL    HW134552   4.794   2.658   3.572  0.3897 -0.0717  0.5343
11112SOL    HW234553   4.721   2.566   3.667  1.2709 -1.9734 -0.5797
11113SOL     OW34554   4.690   3.308   4.623  0.1729  0.4758  0.4648
11113SOL    HW134555   4.642   3.386   4.594  1.2705  0.2716 -2.1596
11113SOL    HW234556   4.782   3.336   4.625  0.2659  0.2523  3.3206
11114SOL     OW34557   3.801   2.490   4.945 -0.0334 -0.4192 -0.1889
11114SOL    HW134558   3.881   2.514   4.993 -0.2409  1.0003 -0.5006
11114SOL    HW234559   3.830   2.427   4.880  0.7330 -0.3659  0.0857
11115SOL     OW34560   4.285   2.245   5.272  0.3100  0.4801 -0.4627
11115SOL    HW134561   4.291   2.259   5.178 -0.3780  1.6706 -0.3557
11115SOL    HW234562   4.205   2.291   5.298  0.8528  0.7630  0.8081
11116SOL     OW34563   4.840   2.356   5.358 -0.3188  0.5131  0.5472
11116SOL    HW134564   4.798   2.438   5.386  0.4700  0.8815  0.6760
11116SOL    HW234565   4.794   2.332   5.278 -0.1881  1.3877  0.1968
11117SOL     OW34566   5.104   1.810   5.220  0.3421  0.2245  0.3922
11117SOL    HW134567   5.136   1.754   5.291 -1.1455  0.5342  1.3698
11117SOL    HW234568   5.026   1.852   5.257 -0.4642  0.4110 -1.4293
11118SOL     OW34569   4.363   2.737   4.299 -0.0523 -0.1104 -0.6372
11118SOL    HW134570   4.380   2.749   4.206  0.8067 -0.5495 -0.5483
11118SOL    HW234571   4.385   2.822   4.338  2.0016 -0.6420 -0.5360
11119SOL     OW34572   4.781   2.855   5.075  0.0788 -0.2814  0.2695
11119SOL    HW134573   4.696   2.882   5.039 -0.5978 -1.1506  1.1868
11119SOL    HW234574   4.759   2.796   5.147  1.4738 -0.6315  0.4242
11120SOL     OW34575   3.951   3.217   4.689 -0.6046 -0.5453  0.3575
11120SOL    HW134576   3.901   3.144   4.724 -0.8924  0.1389  1.4359
11120SOL    HW234577   3.885   3.283   4.666 -0.2420  0.5193  2.1487
11121SOL     OW34578   3.593   2.620   5.644  0.0618 -0.3882  0.0431
11121SOL    HW134579   3.543   2.633   5.724 -0.0979  0.1969 -0.1490
11121SOL    HW234580   3.675   2.667   5.658 -0.3730  0.5636 -0.5145
11122SOL     OW34581   5.464   2.685   4.899 -0.1582  0.8608  0.0397
11122SOL    HW134582   5.478   2.779   4.894  0.1204  0.8409  0.3558
11122SOL    HW234583   5.375   2.676   4.932  0.1444  1.0290  0.9310
11123SOL     OW34584   4.217   2.309   3.956 -0.3935 -0.0686 -0.1501
11123SOL    HW134585   4.270   2.365   4.013 -1.7046 -0.3140  1.3820
11123SOL    HW234586   4.227   2.347   3.868  0.4085  1.2825  0.5022
11124SOL     OW34587   5.273   2.658   4.567  0.3147  0.4090 -0.2342
11124SOL    HW134588   5.187   2.701   4.562 -0.1862 -0.5647 -0.0803
11124SOL    HW234589   5.335   2.730   4.558 -0.5016  1.2722  0.7674
11125SOL     OW34590   4.371   3.374   5.145  0.2060  0.1168  0.0024
11125SOL    HW134591   4.374   3.457   5.097 -3.6709  1.1639  1.2197
11125SOL    HW234592   4.393   3.397   5.235 -0.0820 -0.3120  0.1884
11126SOL     OW34593   4.540   2.579   5.238 -0.0591 -0.2217 -0.5753
11126SOL    HW134594   4.556   2.490   5.206  1.5334  0.0397 -0.5537
11126SOL    HW234595   4.494   2.623   5.166 -0.0490 -0.7963 -0.9372
11127SOL     OW34596   3.967   1.763   3.793 -0.0750  0.3165  0.0582
11127SOL    HW134597   4.020   1.686   3.772 -2.0659 -0.9297 -0.6685
11127SOL    HW234598   3.948   1.802   3.707 -1.1447  0.1567  0.2141
11128SOL     OW34599   4.126   3.671   5.084  0.4389  0.6093 -0.7634
11128SOL    HW134600   4.205   3.724   5.096  0.3616  0.2021  2.6077
11128SOL    HW234601   4.056   3.724   5.123 -0.1779 -0.6499 -0.0877
11129SOL     OW34602   5.034   2.746   4.910  0.1681 -0.1839 -0.0129
11129SOL    HW134603   5.043   2.782   4.821  1.9212 -1.4697 -0.4081
11129SOL    HW234604   5.010   2.821   4.964  1.0499  1.0331 -1.2490
11130SOL     OW34605   5.022   2.640   3.841  0.0675  0.2588 -0.0778
11130SOL    HW134606   4.993   2.723   3.878 -1.1151  0.4742 -1.4224
11130SOL    HW234607   4.947   2.608   3.792  0.8579 -1.1015 -0.4463
11131SOL     OW34608   5.622   3.920   4.517  0.0625  0.4775  0.2917
11131SOL    HW134609   5.554   3.917   4.585  0.0090 -1.1079  0.2131
11131SOL    HW234610   5.575   3.943   4.437 -0.3105 -0.1383  0.3281
11132SOL     OW34611   3.765   3.342   4.513  0.5759  0.1592 -0.2124
11132SOL    HW134612   3.815   3.352   4.432 -0.8582  0.6087 -1.0850
11132SOL    HW234613   3.685   3.298   4.486 -0.2048  0.8850  0.8489
11133SOL     OW34614   5.529   1.868   4.016 -0.2185  0.0320  0.1395
11133SOL    HW134615   5.501   1.855   3.925 -1.0721 -0.8374  0.5044
11133SOL    HW234616   5.454   1.909   4.059 -0.5209 -1.1950  0.8468
11134SOL     OW34617   4.945   3.709   4.236  0.4825 -0.3256  0.1477
11134SOL    HW134618   4.905   3.770   4.174  0.7119 -0.3777 -0.0530
11134SOL    HW234619   5.038   3.710   4.215  0.5761 -0.2669  0.5611
11135SOL     OW34620   5.050   2.878   4.212 -0.1543  0.3167 -0.4924
11135SOL    HW134621   5.011   2.949   4.264 -0.2255  0.9299 -1.3504
11135SOL    HW234622   4.995   2.802   4.231  0.1929  0.3579  0.7947
11136SOL     OW34623   4.218   3.172   5.267  0.4032  1.4110 -0.4124
11136SOL    HW134624   4.193   3.181   5.175  1.8316 -1.4826 -1.2155
11136SOL    HW234625   4.289   3.235   5.279 -1.7437  3.9765 -0.3356
11137SOL     OW34626   4.403   3.666   3.756  0.8563  0.1529 -0.2992
11137SOL    HW134627   4.427   3.614   3.679  1.7872 -1.4376  1.0026
11137SOL    HW234628   4.463   3.741   3.754 -0.2253  1.0255 -1.9746
11138SOL     OW34629   5.297   3.578   4.625 -0.0864 -0.3595 -0.3719
11138SOL    HW134630   5.252   3.642   4.569  0.9514  0.1408 -0.6538
11138SOL    HW234631   5.231   3.553   4.690 -0.3797  1.3493  0.0338
11139SOL     OW34632   5.363   1.698   4.505 -0.4861  0.4404  0.0826
11139SOL    HW134633   5.320   1.662   4.583 -0.6956 -0.4937 -0.4467
11139SOL    HW234634   5.457   1.683   4.521 -0.5440  0.0198  0.0529
11140SOL     OW34635   3.646   2.174   4.798  0.4732  0.1428 -0.0604
11140SOL    HW134636   3.675   2.211   4.715  1.0718 -1.0214 -0.3956
11140SOL    HW234637   3.724   2.131   4.833 -0.4213 -1.7096 -0.2202
11141SOL     OW34638   4.795   3.120   4.768 -0.4703  0.2294  0.0776
11141SOL    HW134639   4.780   3.035   4.726 -0.3140 -0.0692  0.6220
11141SOL    HW234640   4.745   3.182   4.715 -0.3385 -0.1526 -0.5091
11142SOL     OW34641   4.409   3.020   4.373  0.2937  0.3313 -0.0308
11142SOL    HW134642   4.501   3.010   4.396  0.1186  1.1248  1.0905
11142SOL    HW234643   4.362   3.019   4.457 -0.6897  0.2440 -0.5583
11143SOL     OW34644   5.351   3.370   3.498  0.6818 -0.5556 -0.2207
11143SOL    HW134645   5.321   3.337   3.583 -1.1794 -0.4575 -0.7988
11143SOL    HW234646   5.324   3.304   3.435 -1.0713  0.9200 -1.1172
11144SOL     OW34647   4.179   3.210   4.488 -0.1791 -0.4962 -0.1985
11144SOL    HW134648   4.167   3.187   4.396 -0.5906  1.1805 -0.6160
11144SOL    HW234649   4.107   3.270   4.507  1.4448  1.4002  0.3798
11145SOL     OW34650   5.548   3.389   4.871 -0.2881 -0.3418 -0.4469
11145SOL    HW134651   5.485   3.317   4.870 -1.3972  0.5942 -0.5495
11145SOL    HW234652   5.593   3.384   4.787 -1.1793 -0.2118 -0.9342
11146SOL     OW34653   4.619   3.267   4.343  0.2764  0.3944  0.2946
11146SOL    HW134654   4.558   3.315   4.287  0.6527 -0.5696 -0.9978
11146SOL    HW234655   4.633   3.324   4.418  1.5394  2.8105 -1.6326
11147SOL     OW34656   4.595   2.129   4.756 -0.0109  0.8810 -0.1787
11147SOL    HW134657   4.588   2.112   4.850 -1.5245 -2.0069 -0.6987
11147SOL    HW234658   4.647   2.056   4.722 -1.7496  0.3467 -1.9011
11148SOL     OW34659   4.242   3.425   4.190 -0.0879 -0.0975 -0.2413
11148SOL    HW134660   4.333   3.455   4.201  1.1437 -1.8928 -4.1266
11148SOL    HW234661   4.191   3.506   4.186  1.4200  0.9856  1.0104
11149SOL     OW34662   5.542   2.442   5.229  0.1054  0.1275 -0.4017
11149SOL    HW134663   5.448   2.458   5.233 -0.2168 -1.3367 -1.2819
11149SOL    HW234664   5.571   2.494   5.153 -0.1468 -0.0768 -0.6414
11150SOL     OW34665   3.581   3.375   3.942 -0.1572  0.0179  0.4444
11150SOL    HW134666   3.639   3.445   3.973  0.8038 -0.9453  0.9044
11150SOL    HW234667   3.583   3.382   3.847 -0.5352  0.9740  0.5016
11151SOL     OW34668   4.097   3.210   5.008 -0.5162 -0.6484  0.6692
11151SOL    HW134669   4.163   3.171   4.951  0.0533 -1.3346  1.7615
11151SOL    HW234670   4.090   3.301   4.979  0.1116 -0.8552 -0.1613
11152SOL     OW34671   4.564   2.087   5.068  0.3488 -0.0188  0.3605
11152SOL    HW134672   4.570   2.152   5.139 -0.2359 -0.7619  1.1184
11152SOL    HW234673   4.637   2.027   5.085  0.5164  0.0921  0.0278
11153SOL     OW34674   4.052   2.763   3.556 -0.0989 -0.0664 -0.1990
11153SOL    HW134675   3.988   2.741   3.624 -0.0563 -0.2553 -0.2190
11153SOL    HW234676   4.052   2.858   3.554  1.4302  0.0325  1.5493
11154SOL     OW34677   5.277   2.514   5.213 -1.1118 -0.0987  0.4969
11154SOL    HW134678   5.256   2.538   5.123  1.1552  1.8022  0.3986
11154SOL    HW234679   5.195   2.527   5.261 -1.7560  1.1619 -0.8823
11155SOL     OW34680   3.727   1.800   3.907  0.0930  0.1964 -0.1084
11155SOL    HW134681   3.734   1.782   4.001 -1.9448  1.1236  0.2847
11155SOL    HW234682   3.816   1.793   3.874  1.0466  1.0594  2.1162
11156SOL     OW34683   4.999   3.334   3.685  0.0996  0.1031  0.3227
11156SOL    HW134684   5.043   3.418   3.698 -1.2590  0.7636  0.8900
11156SOL    HW234685   4.906   3.354   3.696 -0.4339 -1.0977 -1.5325
11157SOL     OW34686   4.117   2.675   5.095 -0.3601  0.1630  0.2327
11157SOL    HW134687   4.050   2.677   5.163 -1.7144  1.0672 -1.0697
11157SOL    HW234688   4.121   2.765   5.063  0.3274 -0.2155 -0.7961
11158SOL     OW34689   4.456   2.356   5.949 -0.2695 -0.4164 -0.2413
11158SOL    HW134690   4.534   2.324   5.994 -0.7732 -0.6635  0.4653
11158SOL    HW234691   4.475   2.448   5.930 -0.4645 -0.0183  1.4054
11159SOL     OW34692   5.022   3.160   5.654  0.2535  0.2876  0.1143
11159SOL    HW134693   4.966   3.225   5.609  0.1259  1.3249  1.6944
11159SOL    HW234694   5.110   3.176   5.619 -0.2238 -0.6782 -1.6446
11160SOL     OW34695   4.440   3.285   5.643 -0.6138 -0.1810  0.4461
11160SOL    HW134696   4.379   3.227   5.689 -0.1774  0.1313  1.4419
11160SOL    HW234697   4.392   3.367   5.632 -1.1238 -0.6173 -0.6937
11161SOL     OW34698   5.504   3.130   5.250 -0.2426  0.0835  0.3256
11161SOL    HW134699   5.446   3.088   5.187 -0.2568 -0.4992  0.7202
11161SOL    HW234700   5.552   3.058   5.290  0.9133  0.5665 -0.1394
11162SOL     OW34701   5.134   2.218   4.163 -0.3193  0.0905 -1.0095
11162SOL    HW134702   5.174   2.277   4.227 -0.4809 -0.3278 -0.5176
11162SOL    HW234703   5.072   2.273   4.115  0.2762  0.5587 -1.2542
11163SOL     OW34704   4.378   2.260   4.453  0.7617  0.2479  0.4801
11163SOL    HW134705   4.337   2.346   4.461  1.0312  0.3975  0.2849
11163SOL    HW234706   4.466   2.271   4.487  0.8003  0.0501  0.4500
11164SOL     OW34707   5.435   2.179   5.275 -1.0530  0.5811 -0.4572
11164SOL    HW134708   5.429   2.186   5.371 -2.3578 -0.2462 -0.4460
11164SOL    HW234709   5.495   2.248   5.249 -1.2720  1.3153  0.8989
11165SOL     OW34710   5.652   2.854   5.262  0.6661  0.5857  0.3000
11165SOL    HW134711   5.686   2.773   5.224  0.6022 -0.0055  1.4507
11165SOL    HW234712   5.560   2.833   5.281  0.4845  1.1408  0.0408
11166SOL     OW34713   5.110   2.876   4.664  0.0560 -0.2088  0.9420
11166SOL    HW134714   5.053   2.861   4.589  0.1207 -1.1042  1.0563
11166SOL    HW234715   5.140   2.966   4.654  0.4301 -0.4524 -0.3576
11167SOL     OW34716   4.217   2.860   3.843 -0.0416 -0.0013  0.0157
11167SOL    HW134717   4.162   2.927   3.884  0.2109  0.2009  0.0245
11167SOL    HW234718   4.246   2.899   3.761 -1.1617 -0.6842 -0.7414
11168SOL     OW34719   5.339   3.420   4.244 -0.0950  0.5468 -0.1353
11168SOL    HW134720   5.280   3.496   4.241 -0.1426  0.4812 -1.2179
11168SOL    HW234721   5.399   3.439   4.316  1.0104  2.4718 -1.4687
11169SOL     OW34722   3.866   3.225   5.136  0.3000 -0.5719  0.1128
11169SOL    HW134723   3.867   3.311   5.179  0.0006 -0.5521  0.0854
11169SOL    HW234724   3.945   3.224   5.082 -0.2213  0.1018 -0.6892
11170SOL     OW34725   3.813   2.944   4.389  0.0208 -0.2119 -0.5847
11170SOL    HW134726   3.769   2.967   4.307  1.3567  1.8923 -0.7577
11170SOL    HW234727   3.906   2.960   4.372  0.8154 -3.2913  0.2008
11171SOL     OW34728   4.484   3.467   5.374 -0.0985 -0.0733 -0.3355
11171SOL    HW134729   4.434   3.433   5.448 -0.6057  0.4128 -0.4477
11171SOL    HW234730   4.573   3.479   5.408  0.2040 -1.8704 -0.3975
11172SOL     OW34731   5.475   2.076   4.590  0.0457 -0.6571 -0.0664
11172SOL    HW134732   5.438   1.992   4.617  1.5421 -0.8371  1.6011
11172SOL    HW234733   5.443   2.139   4.655 -0.6528 -0.0085 -1.0140
11173SOL     OW34734   4.046   2.206   4.155  0.0045  0.8509  0.1547
11173SOL    HW134735   3.983   2.164   4.097  1.7037 -1.2422 -0.3209
11173SOL    HW234736   4.116   2.236   4.097  2.3218 -2.3458  1.0446
11174SOL     OW34737   5.595   3.700   4.289 -0.3697  0.3206 -0.6751
11174SOL    HW134738   5.581   3.629   4.228 -0.7960 -0.3643  0.1927
11174SOL    HW234739   5.540   3.772   4.257 -1.5693 -0.4536 -0.4057
11175SOL     OW34740   4.427   2.134   5.482 -0.1664 -0.0045  0.5181
11175SOL    HW134741   4.391   2.165   5.399 -0.1846  1.4694  1.0439
11175SOL    HW234742   4.447   2.214   5.531 -0.0066 -0.8363  1.8680
11176SOL     OW34743   5.532   2.150   4.326 -1.1333  0.4305 -0.2117
11176SOL    HW134744   5.514   2.121   4.415 -0.0606  1.3912  0.3475
11176SOL    HW234745   5.506   2.242   4.325  0.0388  0.7803 -0.4905
11177SOL     OW34746   4.850   1.973   5.038  0.5603 -0.0015 -0.3727
11177SOL    HW134747   4.835   1.881   5.060  0.7837  0.2105  0.7307
11177SOL    HW234748   4.880   2.013   5.120  0.0236  1.1612 -0.7195
11178SOL     OW34749   4.070   3.628   3.996  0.3200 -0.0458  0.0766
11178SOL    HW134750   4.125   3.705   3.982  1.4068 -0.6965  0.5946
11178SOL    HW234751   4.045   3.633   4.088  1.9677 -1.2548  0.6410
11179SOL     OW34752   4.887   1.589   4.402 -0.0568  0.0660 -0.7719
11179SOL    HW134753   4.882   1.572   4.496  0.3450 -1.5802 -1.0234
11179SOL    HW234754   4.852   1.678   4.392  0.7898  0.6401  1.0263
11180SOL     OW34755   5.182   2.349   4.408  0.4078 -0.0243  0.2141
11180SOL    HW134756   5.128   2.428   4.417 -1.0798 -0.9513 -0.2516
11180SOL    HW234757   5.272   2.382   4.412 -0.1326  1.4653  2.0216
11181SOL     OW34758   5.278   1.659   4.763  0.1718 -0.0768 -0.1399
11181SOL    HW134759   5.309   1.596   4.828 -0.2351  0.9733  1.1254
11181SOL    HW234760   5.294   1.745   4.804  2.6943  0.8080 -2.6285
11182SOL     OW34761   3.763   2.394   3.929 -0.1319  0.4500 -0.0012
11182SOL    HW134762   3.708   2.451   3.874  1.0788  0.6423 -1.0504
11182SOL    HW234763   3.777   2.444   4.009 -1.5893  0.3294  0.3741
11183SOL     OW34764   4.583   3.733   3.986 -0.1349 -0.4265  0.0128
11183SOL    HW134765   4.609   3.652   3.942  0.0300 -0.8519  0.8661
11183SOL    HW234766   4.489   3.739   3.970  0.0898 -0.0370 -1.2400
11184SOL     OW34767   4.006   2.818   5.487 -0.2431  0.0868  0.0723
11184SOL    HW134768   3.944   2.888   5.507  0.1380  0.8760 -1.3765
11184SOL    HW234769   4.089   2.863   5.471 -0.0019 -0.6784 -0.9401
11185SOL     OW34770   4.063   2.244   6.878  0.0027 -0.4228  0.3508
11185SOL    HW134771   3.983   2.194   6.863 -0.1062  0.0516 -0.6970
11185SOL    HW234772   4.052   2.324   6.826  1.8026 -1.0177 -1.0572
11186SOL     OW34773   3.721   2.321   5.880  0.1025 -0.4388 -0.1104
11186SOL    HW134774   3.652   2.287   5.936 -0.7828  0.4544 -0.6337
11186SOL    HW234775   3.707   2.416   5.879  1.9199 -0.1191  0.5530
11187SOL     OW34776   4.529   2.930   6.625 -0.1131  0.1490  0.2127
11187SOL    HW134777   4.587   2.863   6.588  2.1863  1.3389  1.4770
11187SOL    HW234778   4.486   2.886   6.698  1.6140  0.0557  1.2320
11188SOL     OW34779   5.275   3.332   6.182 -0.6323 -0.4070 -0.0566
11188SOL    HW134780   5.329   3.400   6.223  1.0343 -2.1635  0.8016
11188SOL    HW234781   5.257   3.366   6.095  0.2684  1.0862  0.2963
11189SOL     OW34782   4.390   2.734   6.042 -0.0248 -0.0185 -0.1029
11189SOL    HW134783   4.433   2.819   6.048  0.3484 -0.1877 -0.3418
11189SOL    HW234784   4.422   2.698   5.959  2.2444 -1.7251  1.4115
11190SOL     OW34785   5.866   2.858   6.306 -0.3430 -0.3884  0.0595
11190SOL    HW134786   5.921   2.818   6.240  0.0763  0.0519  0.1350
11190SOL    HW234787   5.799   2.906   6.256 -0.1913 -0.2830 -0.0436
11191SOL     OW34788   4.470   3.374   6.688  0.2359  0.0235  0.1672
11191SOL    HW134789   4.541   3.402   6.747  1.7242 -1.6220 -0.7286
11191SOL    HW234790   4.515   3.354   6.606 -1.3374 -0.7602 -0.5286
11192SOL     OW34791   4.490   2.823   7.248 -0.0777 -0.4292  0.3981
11192SOL    HW134792   4.446   2.884   7.190  1.9094 -1.0904 -1.9685
11192SOL    HW234793   4.496   2.742   7.198  1.4388 -1.1521  1.6393
11193SOL     OW34794   4.181   2.988   6.644 -0.0682 -0.1779 -0.3120
11193SOL    HW134795   4.182   3.062   6.584  0.6287 -0.7680 -1.0398
11193SOL    HW234796   4.229   2.919   6.599 -0.5958 -1.0426  0.4053
11194SOL     OW34797   4.415   2.999   7.043 -0.0972 -0.0339 -0.5613
11194SOL    HW134798   4.363   3.074   7.014 -0.2267 -0.1722 -0.6965
11194SOL    HW234799   4.499   3.010   6.999  0.5053  0.9602  0.7875
11195SOL     OW34800   3.880   3.077   6.288 -0.4111  0.3273 -0.4600
11195SOL    HW134801   3.830   3.109   6.212 -2.5728 -0.0283  0.7152
11195SOL    HW234802   3.901   3.156   6.338  0.1730  0.4754 -0.9303
11196SOL     OW34803   5.510   2.835   6.343  0.1087  0.0831 -0.2505
11196SOL    HW134804   5.512   2.931   6.334 -1.3551  0.4534  2.2922
11196SOL    HW234805   5.481   2.804   6.257  1.7907  1.7863 -1.5089
11197SOL     OW34806   4.234   1.763   7.000 -0.2088  0.3301 -0.1691
11197SOL    HW134807   4.296   1.831   6.974  0.5670  0.0455  0.8721
11197SOL    HW234808   4.282   1.709   7.063 -1.7078  0.4738  1.1683
11198SOL     OW34809   4.970   2.492   6.202  0.0323  0.1421  0.2525
11198SOL    HW134810   4.960   2.452   6.115 -0.1622 -0.0369  0.3595
11198SOL    HW234811   4.881   2.517   6.227  0.2033  1.0672 -0.0187
11199SOL     OW34812   4.812   3.179   7.222 -0.0261 -0.1590  0.1167
11199SOL    HW134813   4.726   3.219   7.207 -0.1625 -0.5168 -0.0724
11199SOL    HW234814   4.851   3.173   7.135  0.7274  1.1756  0.3388
11200SOL     OW34815   3.747   3.298   6.139 -0.5316 -0.3555  0.1464
11200SOL    HW134816   3.803   3.369   6.171  0.2924 -0.7907 -0.3083
11200SOL    HW234817   3.658   3.331   6.151 -0.3496 -0.6309  3.2805
11201SOL     OW34818   4.036   2.777   6.745 -0.3309 -0.3525 -0.1013
11201SOL    HW134819   4.097   2.820   6.805 -0.4864 -0.0421 -0.1663
11201SOL    HW234820   3.975   2.846   6.718  0.0848 -0.3466 -1.0771
11202SOL     OW34821   4.402   4.122   6.856 -0.3245  0.2388  0.3107
11202SOL    HW134822   4.395   4.027   6.870 -2.3088  0.2036 -0.5339
11202SOL    HW234823   4.487   4.134   6.815  0.3515 -1.0627  1.2681
11203SOL     OW34824   4.198   2.703   5.686  0.2889  0.2109 -0.1069
11203SOL    HW134825   4.122   2.695   5.744  0.1374 -0.8872 -0.4251
11203SOL    HW234826   4.163   2.745   5.607 -0.1608 -0.9087 -0.5221
11204SOL     OW34827   5.596   1.604   6.602 -0.0942  0.1972 -0.4563
11204SOL    HW134828   5.655   1.672   6.569  0.4149  0.4141  0.8315
11204SOL    HW234829   5.513   1.619   6.556  0.1851  1.3279 -0.6146
11205SOL     OW34830   3.342   2.907   6.454 -0.4312  0.2723 -0.5597
11205SOL    HW134831   3.414   2.960   6.489 -1.1654  1.6132 -1.0343
11205SOL    HW234832   3.287   2.969   6.407 -1.4451 -0.8857 -0.9461
11206SOL     OW34833   5.533   3.488   6.132  0.4906 -0.3613 -0.4021
11206SOL    HW134834   5.493   3.516   6.214 -0.0778 -1.0747 -0.4297
11206SOL    HW234835   5.522   3.564   6.074  0.6860  0.0603  0.1004
11207SOL     OW34836   5.784   2.964   5.821 -0.1873  0.4612 -0.2846
11207SOL    HW134837   5.740   2.954   5.737  1.3482 -3.4149 -0.8268
11207SOL    HW234838   5.870   2.999   5.799  1.1089 -2.7035 -0.8367
11208SOL     OW34839   5.438   2.773   5.725 -0.0684 -0.1167  0.4973
11208SOL    HW134840   5.411   2.829   5.798 -0.8892 -0.0888  0.1774
11208SOL    HW234841   5.376   2.700   5.728 -0.1028 -0.1140 -0.1755
11209SOL     OW34842   3.848   2.558   6.837  0.2605  0.3154  0.0102
11209SOL    HW134843   3.771   2.506   6.813 -1.9094  3.5586 -0.6110
11209SOL    HW234844   3.883   2.590   6.754  1.7809 -0.3585  0.3571
11210SOL     OW34845   4.251   3.129   6.401 -0.4213 -0.0900  0.2458
11210SOL    HW134846   4.226   3.218   6.375 -0.0632  0.0626  0.4091
11210SOL    HW234847   4.346   3.131   6.402 -0.3415 -1.1046 -1.8515
11211SOL     OW34848   4.625   3.065   6.875 -0.4999  0.6348  0.3139
11211SOL    HW134849   4.672   3.146   6.896 -0.0145  0.9776 -1.8263
11211SOL    HW234850   4.609   3.071   6.781 -0.9778 -1.5027  0.2134
11212SOL     OW34851   4.153   1.624   6.093 -0.3413  0.1128  0.0035
11212SOL    HW134852   4.178   1.701   6.043  0.1629 -0.6587 -0.9576
11212SOL    HW234853   4.216   1.557   6.068 -0.2781 -0.4028  1.4229
11213SOL     OW34854   3.896   3.233   6.715 -0.2901  0.1782  0.0886
11213SOL    HW134855   3.977   3.260   6.673  0.2398 -0.2720  0.8065
11213SOL    HW234856   3.914   3.239   6.809 -0.9905 -0.2217  0.2587
11214SOL     OW34857   5.770   2.348   5.552  0.1008 -0.5556  0.2004
11214SOL    HW134858   5.808   2.385   5.631  4.6828 -1.1750 -1.4316
11214SOL    HW234859   5.762   2.255   5.571 -2.0465 -0.2722  0.9559
11215SOL     OW34860   4.842   3.796   7.041  0.1587  0.0478 -0.4134
11215SOL    HW134861   4.906   3.786   7.112  1.4297 -0.4822 -1.5809
11215SOL    HW234862   4.862   3.882   7.004  0.1636 -0.1011 -0.7547
11216SOL     OW34863   3.692   2.327   7.671 -0.7034  0.5674 -0.4165
11216SOL    HW134864   3.785   2.350   7.670 -0.7761  1.1948  1.8555
11216SOL    HW234865   3.656   2.374   7.746 -3.2903  1.8456 -2.3004
11217SOL     OW34866   5.223   3.047   6.573 -0.2035  0.8144  0.2074
11217SOL    HW134867   5.159   3.006   6.630  0.1680 -0.6516 -0.3833
11217SOL    HW234868   5.171   3.104   6.516 -1.0044 -0.3486 -0.2655
11218SOL     OW34869   5.271   3.847   5.973 -0.5302  0.1456 -0.0855
11218SOL    HW134870   5.202   3.912   5.985 -0.0146  0.6285  0.3598
11218SOL    HW234871   5.275   3.800   6.056  0.3954  0.8484  0.2867
11219SOL     OW34872   4.155   2.321   5.627  0.0530  0.3612  0.2807
11219SOL    HW134873   4.086   2.380   5.657 -0.7941 -0.8008  0.6531
11219SOL    HW234874   4.128   2.294   5.540 -0.5482 -0.9695  0.8653
11220SOL     OW34875   4.763   2.109   6.384  0.9327 -0.8801  0.8375
11220SOL    HW134876   4.745   2.179   6.447 -1.4333  0.0340 -0.7178
11220SOL    HW234877   4.707   2.036   6.412  0.2432 -0.6416  0.1273
11221SOL     OW34878   5.529   3.694   5.949 -0.0858 -0.4857  0.6992
11221SOL    HW134879   5.586   3.726   5.880  0.8442  1.1342  2.1483
11221SOL    HW234880   5.446   3.676   5.905  0.3394  0.8955 -0.7651
11222SOL     OW34881   4.832   2.133   6.983  0.7517 -0.2105 -0.6583
11222SOL    HW134882   4.786   2.057   6.949  0.4742 -0.4360  0.1858
11222SOL    HW234883   4.897   2.154   6.916  2.9962 -3.1015  0.3517
11223SOL     OW34884   5.223   2.054   7.284  0.5333  0.0405 -0.0160
11223SOL    HW134885   5.228   2.074   7.190  4.4432 -0.9554 -0.2135
11223SOL    HW234886   5.261   2.132   7.326  0.7958 -0.3734  0.5218
11224SOL     OW34887   4.358   3.248   6.923  0.8682  0.7592 -0.0463
11224SOL    HW134888   4.409   3.225   6.845 -0.0595  1.9669 -1.0578
11224SOL    HW234889   4.393   3.334   6.949  0.3430  0.9250  0.1202
11225SOL     OW34890   4.608   1.789   6.623 -0.0783 -0.7602 -0.3665
11225SOL    HW134891   4.675   1.735   6.582  0.3038 -0.4140 -0.2071
11225SOL    HW234892   4.609   1.763   6.715  0.5628 -0.0312 -0.1597
11226SOL     OW34893   4.655   2.727   6.302 -0.2998  0.0998  0.0614
11226SOL    HW134894   4.724   2.793   6.295 -0.7014  0.5104  0.0152
11226SOL    HW234895   4.573   2.776   6.304 -0.6380 -0.4190 -0.5410
11227SOL     OW34896   4.105   2.502   6.712 -0.1090  0.2697  0.9726
11227SOL    HW134897   4.057   2.580   6.740 -0.4722  1.8386 -3.2209
11227SOL    HW234898   4.197   2.524   6.726 -0.2459  1.2440  0.4890
11228SOL     OW34899   3.505   3.999   7.607  0.0574 -0.2618 -0.0777
11228SOL    HW134900   3.434   4.009   7.670 -1.0632 -0.6865 -1.2364
11228SOL    HW234901   3.481   4.057   7.534  1.1363 -0.0588 -0.2909
11229SOL     OW34902   4.528   1.900   5.804 -0.1485  0.2741 -0.4731
11229SOL    HW134903   4.574   1.817   5.789  1.6213  1.1268 -0.0439
11229SOL    HW234904   4.448   1.892   5.752 -1.0337 -2.4696  1.0812
11230SOL     OW34905   5.898   2.177   7.170  0.1109 -0.4879 -0.4446
11230SOL    HW134906   5.860   2.109   7.115  0.4240 -0.9847 -0.0543
11230SOL    HW234907   5.923   2.246   7.109 -2.7247  0.5311 -0.6171
11231SOL     OW34908   4.999   2.714   5.824  0.2990 -0.3305 -0.2493
11231SOL    HW134909   4.954   2.795   5.797 -1.1397  0.5563  4.0904
11231SOL    HW234910   5.090   2.727   5.795  0.6029  3.8689  1.8360
11232SOL     OW34911   3.939   2.614   6.187  0.8733  0.4608  0.1482
11232SOL    HW134912   4.015   2.564   6.157 -0.0848  0.0787 -1.8564
11232SOL    HW234913   3.967   2.705   6.183  1.7247  0.2575  1.0495
11233SOL     OW34914   4.331   3.781   6.402  0.7059  0.2693  0.2540
11233SOL    HW134915   4.346   3.831   6.321  1.3079  1.6920  1.2025
11233SOL    HW234916   4.412   3.732   6.415  0.1242 -0.9970 -0.6647
11234SOL     OW34917   5.409   2.719   6.068  0.1856 -0.2734 -0.1616
11234SOL    HW134918   5.343   2.680   6.126 -0.6493  0.7834 -0.3886
11234SOL    HW234919   5.368   2.798   6.034  1.1674 -0.1816 -1.1762
11235SOL     OW34920   5.096   3.485   7.141 -0.0973 -0.2315  0.1749
11235SOL    HW134921   5.183   3.526   7.138 -0.2674  0.1238  0.0877
11235SOL    HW234922   5.053   3.514   7.061 -0.2226 -0.5721  0.1203
11236SOL     OW34923   4.484   2.866   5.512 -0.2122 -0.8451 -0.2778
11236SOL    HW134924   4.565   2.836   5.555 -0.5866  1.3646  2.2361
11236SOL    HW234925   4.420   2.798   5.532  0.4235 -1.4088 -0.1124
11237SOL     OW34926   4.805   2.952   6.296 -0.1289  0.3378 -0.7942
11237SOL    HW134927   4.834   2.979   6.383 -3.2509  1.3173  0.0655
11237SOL    HW234928   4.870   2.990   6.236  1.4718  0.5677  0.9900
11238SOL     OW34929   4.317   3.577   6.852 -0.4459 -0.4066  0.6153
11238SOL    HW134930   4.381   3.538   6.911  0.1302  0.5142  0.6108
11238SOL    HW234931   4.333   3.535   6.768  1.3166  1.0254  0.1893
11239SOL     OW34932   4.892   3.451   5.883  0.2238  0.4863 -0.6446
11239SOL    HW134933   4.813   3.498   5.909  0.6381  0.5256  0.5968
11239SOL    HW234934   4.952   3.520   5.852  1.4057  1.0618  2.6074
11240SOL     OW34935   3.967   2.142   7.285 -0.1522 -0.7257  0.0266
11240SOL    HW134936   4.041   2.186   7.244 -0.3960 -0.7037 -0.3919
11240SOL    HW234937   3.919   2.102   7.213 -0.4471 -0.8955  0.3125
11241SOL     OW34938   5.360   2.944   5.919 -0.5701 -0.6558 -0.2122
11241SOL    HW134939   5.298   3.013   5.944 -1.1531 -1.4922  0.7085
11241SOL    HW234940   5.441   2.992   5.898 -1.2801  0.3879 -0.6589
11242SOL     OW34941   4.801   2.133   6.099  0.7509  0.3880  0.5246
11242SOL    HW134942   4.806   2.137   6.194 -1.3849  1.6172  0.6490
11242SOL    HW234943   4.710   2.108   6.080  1.1492  0.0946 -1.1971
11243SOL     OW34944   3.927   3.583   6.550  0.3648 -0.4489 -0.2927
11243SOL    HW134945   3.982   3.598   6.627 -0.8207 -0.4333  0.5810
11243SOL    HW234946   3.934   3.664   6.500 -0.5999  0.4544  0.9517
11244SOL     OW34947   4.009   2.869   6.175  0.4516  0.3712  0.2299
11244SOL    HW134948   3.952   2.928   6.224  1.0387  0.9389  0.2402
11244SOL    HW234949   4.095   2.910   6.179  0.5637  0.3016 -1.0623
11245SOL     OW34950   5.443   1.902   7.268  0.3943 -0.2780 -0.6419
11245SOL    HW134951   5.366   1.956   7.287  0.2440 -1.2838  1.9274
11245SOL    HW234952   5.517   1.959   7.286  0.2360 -0.8192  2.0673
11246SOL     OW34953   4.193   1.710   5.444 -0.0555  0.1567  0.5698
11246SOL    HW134954   4.222   1.623   5.418 -0.1350  0.5668 -0.9976
11246SOL    HW234955   4.273   1.763   5.441 -0.0545  0.1965  1.2619
11247SOL     OW34956   3.978   2.270   7.768 -0.5940  0.1384 -0.1030
11247SOL    HW134957   3.979   2.290   7.674  0.2376 -0.2514 -0.1858
11247SOL    HW234958   4.014   2.182   7.774 -2.0481 -0.4486  0.4647
11248SOL     OW34959   4.538   3.146   6.417  0.0528 -0.2862 -0.0455
11248SOL    HW134960   4.577   3.225   6.453  0.9952 -1.0833  0.7171
11248SOL    HW234961   4.537   3.084   6.489 -0.5527 -1.0272 -0.6648
11249SOL     OW34962   5.100   2.355   6.907 -0.7937  0.0337  0.2150
11249SOL    HW134963   5.096   2.438   6.859  1.9726  0.0092 -0.1669
11249SOL    HW234964   5.066   2.290   6.846  1.6251  0.1807 -1.4096
11250SOL     OW34965   4.246   1.992   6.152  0.5687 -0.4004  0.4457
11250SOL    HW134966   4.322   2.050   6.140 -0.2107  0.7813  1.0488
11250SOL    HW234967   4.231   1.955   6.065  0.1379  1.5275 -0.3603
11251SOL     OW34968   4.254   2.046   5.754  0.1824 -0.0875 -0.3112
11251SOL    HW134969   4.166   2.032   5.719 -0.2105  1.5540 -0.0845
11251SOL    HW234970   4.306   2.071   5.677  0.9531 -2.7774 -0.7707
11252SOL     OW34971   5.371   3.419   5.661 -0.2708 -0.0701 -0.2474
11252SOL    HW134972   5.362   3.458   5.574  1.7572  0.3235 -0.3154
11252SOL    HW234973   5.375   3.324   5.645  1.9232  0.0692 -0.8204
11253SOL     OW34974   3.918   1.755   5.437 -0.0581 -0.2071  1.2631
11253SOL    HW134975   3.896   1.707   5.517  1.2924 -0.8478  1.2862
11253SOL    HW234976   4.014   1.755   5.435 -0.0336 -1.6155 -1.1842
11254SOL     OW34977   4.530   2.036   6.058 -1.0746  0.2396  0.2993
11254SOL    HW134978   4.532   1.982   5.979 -0.0013 -0.7013  0.9359
11254SOL    HW234979   4.537   1.973   6.130  0.0526  1.2096  1.0724
11255SOL     OW34980   4.442   2.571   7.178 -0.0429  0.1838 -0.4177
11255SOL    HW134981   4.476   2.496   7.129 -2.1807 -0.5549 -0.8676
11255SOL    HW234982   4.378   2.533   7.238 -0.2281  1.5284  0.2793
11256SOL     OW34983   3.765   2.895   6.442 -0.1313 -0.0403  0.2157
11256SOL    HW134984   3.815   2.958   6.389  2.9151 -2.2856  0.1569
11256SOL    HW234985   3.786   2.810   6.403 -0.4527 -1.4958  2.9799
11257SOL     OW34986   4.683   2.325   5.729  0.2172 -0.1965 -0.1333
11257SOL    HW134987   4.601   2.299   5.688 -0.0721  0.3012  0.1280
11257SOL    HW234988   4.665   2.410   5.769  0.6093 -0.4742  0.6715
11258SOL     OW34989   3.638   2.410   6.735 -0.1391 -0.0229 -0.0629
11258SOL    HW134990   3.588   2.474   6.685  1.4156 -0.8351 -2.8770
11258SOL    HW234991   3.578   2.337   6.747 -0.1598 -0.4338 -2.2133
11259SOL     OW34992   4.435   1.974   6.899  0.1260  0.1402 -0.1237
11259SOL    HW134993   4.422   2.046   6.960  0.8208  0.0984  0.0863
11259SOL    HW234994   4.386   2.000   6.821 -0.0740  0.5889  0.1474
11260SOL     OW34995   4.218   2.286   6.093  0.0283 -0.8309 -0.9017
11260SOL    HW134996   4.135   2.271   6.047 -0.4680 -1.3351  0.1275
11260SOL    HW234997   4.282   2.296   6.022 -0.8752 -0.5846 -1.7139
11261SOL     OW34998   4.589   1.579   6.293  0.1485  0.4865  0.1555
11261SOL    HW134999   4.564   1.576   6.200  3.5233 -1.3867 -0.8350
11261SOL    HW235000   4.516   1.537   6.339 -0.6978 -0.3678 -1.8729
11262SOL     OW35001   5.111   3.237   6.373 -0.1274  0.1415  0.0430
11262SOL    HW135002   5.180   3.288   6.331 -1.7328  0.2658 -2.6559
11262SOL    HW235003   5.084   3.173   6.307 -0.5314 -1.9721  2.1197
11263SOL     OW35004   4.697   2.483   6.207 -0.2904  0.0076  0.1120
11263SOL    HW135005   4.643   2.410   6.236 -0.1516  0.2311  0.9335
11263SOL    HW235006   4.651   2.561   6.237  0.8907  0.1884  1.5493
11264SOL     OW35007   5.406   2.443   5.916  0.2305  0.5589  0.1094
11264SOL    HW135008   5.352   2.459   5.993 -0.9784  1.4821 -0.8892
11264SOL    HW235009   5.347   2.456   5.841  0.9623 -1.8527 -0.9688
11265SOL     OW35010   3.796   3.000   5.509 -0.1044 -0.3842 -0.0332
11265SOL    HW135011   3.705   2.998   5.479  0.0755  0.2415 -0.6677
11265SOL    HW235012   3.790   2.990   5.604 -0.6159 -3.7307 -0.3096
11266SOL     OW35013   5.443   3.101   6.237  0.1309  0.3161  0.1085
11266SOL    HW135014   5.505   3.136   6.173  0.9514  0.8602  1.1618
11266SOL    HW235015   5.364   3.152   6.224  0.8883  1.7023  0.7307
11267SOL     OW35016   4.921   2.028   5.276  0.3161 -0.0255 -0.0815
11267SOL    HW135017   5.016   2.027   5.265  0.4679 -1.7296  0.9997
11267SOL    HW235018   4.905   2.100   5.337  0.7198  1.2465 -1.4164
11268SOL     OW35019   4.023   1.962   5.664  0.2612 -0.0581  0.3963
11268SOL    HW135020   3.989   1.873   5.671  0.5434 -0.1234  1.0015
11268SOL    HW235021   3.951   2.017   5.696 -0.4239  0.0487 -1.2468
11269SOL     OW35022   5.220   2.910   7.040  0.5980 -0.1551 -0.0208
11269SOL    HW135023   5.306   2.867   7.044  0.7213  0.1274  0.4062
11269SOL    HW235024   5.240   3.000   7.014  0.4085 -0.1522 -0.1542
11270SOL     OW35025   5.011   3.188   6.964 -0.4088 -0.0697  0.6789
11270SOL    HW135026   5.053   3.163   7.047 -1.6590  0.4252  1.5005
11270SOL    HW235027   5.072   3.250   6.924  1.1850 -1.8656  0.1891
11271SOL     OW35028   5.807   3.862   7.800  0.1100  0.0091 -0.3057
11271SOL    HW135029   5.743   3.923   7.836 -1.3115  0.6370 -3.4789
11271SOL    HW235030   5.787   3.779   7.843  0.1263  1.1144  1.9580
11272SOL     OW35031   4.812   3.212   6.516  0.1892  0.3215 -0.1547
11272SOL    HW135032   4.835   3.280   6.579 -2.7785 -0.8358  2.4574
11272SOL    HW235033   4.751   3.254   6.455 -1.8388  0.1138  1.6039
11273SOL     OW35034   5.445   3.278   6.623  0.2720  0.3708 -0.1235
11273SOL    HW135035   5.350   3.276   6.610  0.2103 -1.2247  0.4379
11273SOL    HW235036   5.458   3.345   6.690 -0.3144  1.5318 -1.1279
11274SOL     OW35037   4.941   1.923   6.684  0.1359  0.4665  0.1525
11274SOL    HW135038   4.853   1.932   6.722  0.3455 -3.4776  2.0661
11274SOL    HW235039   4.964   1.832   6.700  4.2090  1.0745 -1.2624
11275SOL     OW35040   4.804   2.849   6.961  0.0896  0.0178 -0.1150
11275SOL    HW135041   4.748   2.902   6.904 -1.6945 -0.0549  1.4709
11275SOL    HW235042   4.793   2.759   6.930  0.7738  0.1972 -0.9251
11276SOL     OW35043   4.372   3.089   5.943  0.3462  0.4151 -0.3499
11276SOL    HW135044   4.288   3.123   5.974 -0.1780  1.7197 -2.9411
11276SOL    HW235045   4.422   3.073   6.023 -2.4427 -0.7705  1.3126
11277SOL     OW35046   4.197   2.724   7.285 -0.2523 -0.4880  0.7512
11277SOL    HW135047   4.189   2.812   7.321  2.6917  0.5174 -0.6923
11277SOL    HW235048   4.257   2.679   7.346  1.7799  0.0350 -0.7383
11278SOL     OW35049   4.942   2.188   6.720 -0.7654 -0.4605  0.5590
11278SOL    HW135050   4.895   2.241   6.655 -0.6153  1.0583  1.6404
11278SOL    HW235051   4.950   2.102   6.679 -1.3089  0.2488 -1.1283
11279SOL     OW35052   4.147   3.351   6.690  0.1816  0.0392  0.7180
11279SOL    HW135053   4.229   3.330   6.735  1.6357  0.7932 -1.4276
11279SOL    HW235054   4.172   3.362   6.598 -2.2963  0.5897  0.0336
11280SOL     OW35055   4.128   3.148   6.040 -0.3693  0.1100 -0.3685
11280SOL    HW135056   4.057   3.184   5.986 -2.8652 -2.5205  0.9060
11280SOL    HW235057   4.113   3.185   6.127  0.0575 -0.1903 -0.1641
11281SOL     OW35058   4.166   2.227   6.411  0.4705  0.3954 -0.3383
11281SOL    HW135059   4.205   2.313   6.428  0.3790  0.8003 -2.0715
11281SOL    HW235060   4.184   2.210   6.319  0.5669 -1.5041 -0.0021
11282SOL     OW35061   5.016   3.063   6.148 -0.1847  0.3318 -0.3578
11282SOL    HW135062   4.947   3.121   6.116  0.4983  0.9561 -0.7560
11282SOL    HW235063   5.075   3.052   6.072 -1.7425 -3.2599 -1.2792
11283SOL     OW35064   5.098   3.378   6.801  0.1169 -0.3494 -0.7389
11283SOL    HW135065   5.115   3.420   6.717 -0.1119 -0.3935 -0.8081
11283SOL    HW235066   5.056   3.445   6.855  0.8601 -0.1209 -0.4352
11284SOL     OW35067   5.103   2.484   5.933  0.0255 -0.2708  0.3709
11284SOL    HW135068   5.017   2.443   5.943 -0.3640  0.8006  1.7266
11284SOL    HW235069   5.084   2.578   5.929  1.0149 -0.0988 -1.0886
11285SOL     OW35070   4.386   3.852   6.913 -0.0670 -0.6312  0.2049
11285SOL    HW135071   4.327   3.788   6.952 -1.5907 -0.1811 -1.2674
11285SOL    HW235072   4.363   3.854   6.820  1.6564  0.2391 -0.2593
11286SOL     OW35073   4.376   2.582   7.471 -0.3368  0.8528  0.2847
11286SOL    HW135074   4.344   2.613   7.555 -2.9065  0.0130 -0.2883
11286SOL    HW235075   4.427   2.504   7.492 -1.0492  0.5801  1.0847
11287SOL     OW35076   5.296   2.464   7.165  0.1357 -0.2173  0.2471
11287SOL    HW135077   5.293   2.410   7.244  1.5043  0.3481  0.7003
11287SOL    HW235078   5.376   2.436   7.120  0.5419  1.0153  0.1846
11288SOL     OW35079   5.074   2.312   7.450  0.3857 -0.1685  0.2396
11288SOL    HW135080   5.041   2.387   7.498  0.2615 -0.5161  0.7108
11288SOL    HW235081   5.026   2.313   7.367  0.9231  0.6910 -0.0683
11289SOL     OW35082   4.332   2.078   7.495 -0.3507 -0.4406 -0.2177
11289SOL    HW135083   4.339   1.990   7.458 -1.3564  0.6558 -3.2519
11289SOL    HW235084   4.240   2.085   7.522  0.1329 -0.8548  1.7470
11290SOL     OW35085   4.625   2.432   6.890  0.1131  0.0018  0.0198
11290SOL    HW135086   4.713   2.448   6.854  0.4370 -2.3740 -0.4325
11290SOL    HW235087   4.624   2.338   6.909 -1.8319  0.2614  1.4733
11291SOL     OW35088   4.918   2.971   6.550  0.6424  0.2344 -0.0684
11291SOL    HW135089   4.888   3.062   6.551  0.3091  0.1165  0.6354
11291SOL    HW235090   4.952   2.955   6.638 -1.1252 -0.9175  0.4607
11292SOL     OW35091   4.490   2.264   6.219 -0.3668  0.4266  0.8874
11292SOL    HW135092   4.520   2.174   6.210  0.7934  0.9473 -1.2364
11292SOL    HW235093   4.404   2.266   6.178 -0.3584  0.3068  0.8658
11293SOL     OW35094   3.619   2.539   7.121 -0.2687 -0.3122 -0.3688
11293SOL    HW135095   3.708   2.571   7.138 -0.1498 -1.1172  0.5673
11293SOL    HW235096   3.581   2.606   7.064 -0.0670  1.6207  1.6088
11294SOL     OW35097   3.667   3.271   7.031  0.5837  0.7707  0.1738
11294SOL    HW135098   3.612   3.261   6.953  0.8747  2.4059 -0.2844
11294SOL    HW235099   3.719   3.190   7.034 -0.5204  0.0072 -0.4274
11295SOL     OW35100   4.305   2.488   6.461 -0.3716 -0.2157  0.1001
11295SOL    HW135101   4.360   2.443   6.525  0.7197  0.8404 -0.0554
11295SOL    HW235102   4.362   2.501   6.386 -2.0802 -2.9488 -1.8820
11296SOL     OW35103   5.223   2.880   7.568  0.2045  0.3922 -0.3572
11296SOL    HW135104   5.212   2.796   7.522 -0.2077 -0.5892  1.4405
11296SOL    HW235105   5.197   2.946   7.504 -2.4205 -1.0255 -0.8967
11297SOL     OW35106   3.895   2.195   6.473 -0.0828 -0.1288 -0.1893
11297SOL    HW135107   3.874   2.262   6.409 -0.3763 -0.2657 -0.2403
11297SOL    HW235108   3.989   2.180   6.463 -0.0284  0.2263 -0.2187
11298SOL     OW35109   5.005   2.514   5.621  0.3548 -0.9017  0.3059
11298SOL    HW135110   4.944   2.446   5.591 -0.9050 -0.1178  1.0034
11298SOL    HW235111   4.950   2.576   5.669  1.4849  0.5841 -0.2469
11299SOL     OW35112   4.410   2.352   6.663  0.3848 -0.5408  0.1068
11299SOL    HW135113   4.382   2.414   6.731 -3.0444  1.0350 -2.4704
11299SOL    HW235114   4.376   2.268   6.693 -1.0395  0.1212  0.4792
11300SOL     OW35115   4.625   3.492   7.985  0.2531 -0.6865  0.1113
11300SOL    HW135116   4.673   3.571   8.008  0.7054 -0.6654 -0.8606
11300SOL    HW235117   4.608   3.500   7.892  2.2383 -2.7076 -0.5222
11301SOL     OW35118   5.351   3.701   6.873 -0.0460 -0.2688  0.3080
11301SOL    HW135119   5.324   3.657   6.792  1.2444  0.2547 -0.4313
11301SOL    HW235120   5.282   3.766   6.889 -0.8824 -1.1118  0.2656
11302SOL     OW35121   4.280   3.027   7.292  0.2852  0.0218 -0.3533
11302SOL    HW135122   4.350   3.014   7.356  0.5978 -0.6167 -0.8103
11302SOL    HW235123   4.323   3.017   7.207 -0.3114 -0.1277 -0.6471
11303SOL     OW35124   5.261   2.569   5.683  0.2480  0.4452  0.0466
11303SOL    HW135125   5.304   2.527   5.608 -1.0588 -2.2945  0.7007
11303SOL    HW235126   5.168   2.557   5.667 -0.0595 -1.3808  2.6340
11304SOL     OW35127   5.060   2.635   5.376  0.1850  0.3542 -0.2584
11304SOL    HW135128   4.978   2.648   5.329  0.8080  1.4382 -1.1129
11304SOL    HW235129   5.042   2.565   5.438 -2.0806  2.1829  1.3015
11305SOL     OW35130   4.156   3.176   5.726  0.0195 -0.0455  0.5633
11305SOL    HW135131   4.106   3.096   5.712  0.4055 -0.0745 -0.8320
11305SOL    HW235132   4.211   3.157   5.802 -1.1786 -0.4469  1.3451
11306SOL     OW35133   4.248   2.787   6.978 -0.4167  0.0685 -0.1994
11306SOL    HW135134   4.310   2.859   6.994 -0.1497  0.1919 -1.7094
11306SOL    HW235135   4.220   2.761   7.066 -0.9800  2.4129  0.4084
11307SOL     OW35136   4.252   2.107   6.729  0.0859 -0.2247 -0.7261
11307SOL    HW135137   4.218   2.137   6.645  1.0898  0.3407 -0.9523
11307SOL    HW235138   4.204   2.157   6.794  1.0629  1.2162 -1.0669
11308SOL     OW35139   4.929   2.317   7.176  0.0168 -0.6560  0.4906
11308SOL    HW135140   4.986   2.378   7.130  0.4961 -1.1747  0.3795
11308SOL    HW235141   4.923   2.241   7.118 -1.8714 -0.0878 -0.1080
11309SOL     OW35142   5.256   2.132   7.011 -0.0359 -0.1417 -0.1711
11309SOL    HW135143   5.203   2.207   6.983 -0.0077  0.2514  0.7973
11309SOL    HW235144   5.338   2.142   6.964  0.1116  0.6637  0.2403
11310SOL     OW35145   4.044   3.296   5.476  0.3442 -0.1946  0.4979
11310SOL    HW135146   4.075   3.276   5.565  1.8435 -0.8993 -0.1398
11310SOL    HW235147   4.124   3.298   5.424 -0.5490 -0.0981 -0.9060
11311SOL     OW35148   3.932   3.326   6.414  0.0440  0.2315 -0.2379
11311SOL    HW135149   3.935   3.383   6.337  1.5358  0.7240  0.1548
11311SOL    HW235150   3.908   3.385   6.485 -0.0925  0.0261 -0.1149
11312SOL     OW35151   4.200   3.459   6.435  0.3507 -0.5621 -0.0117
11312SOL    HW135152   4.133   3.492   6.375  1.1214 -1.2669 -1.3140
11312SOL    HW235153   4.276   3.515   6.418  0.7171 -1.0637 -0.0482
11313SOL     OW35154   4.844   2.489   6.643 -0.2950  0.2741 -0.2841
11313SOL    HW135155   4.938   2.487   6.622 -0.5152 -0.8682 -1.2736
11313SOL    HW235156   4.814   2.574   6.612  0.0573 -0.0936 -1.7399
11314SOL     OW35157   3.021   2.569   6.873  0.6822 -0.6792 -0.4370
11314SOL    HW135158   3.003   2.495   6.931 -1.7810  1.4678  1.8052
11314SOL    HW235159   3.108   2.600   6.900 -0.1923 -0.0360  1.9490
11315SOL     OW35160   4.002   2.527   7.242  0.0535  0.5755  0.2888
11315SOL    HW135161   4.059   2.592   7.283  0.4587  1.0921 -1.0671
11315SOL    HW235162   3.945   2.577   7.184  0.4791 -0.2808 -0.9079
11316SOL     OW35163   5.069   2.906   6.779  0.3673  0.3793 -0.3461
11316SOL    HW135164   5.004   2.876   6.842 -0.0444 -1.2406 -1.4732
11316SOL    HW235165   5.139   2.943   6.833  0.0190 -0.9085  1.0744
11317SOL     OW35166   4.200   2.554   6.133  0.0159 -0.0632 -0.0432
11317SOL    HW135167   4.202   2.460   6.115 -0.6479  0.0620 -0.8026
11317SOL    HW235168   4.291   2.582   6.119  0.0472 -0.4413 -0.6291
11318SOL     OW35169   5.097   2.268   6.365  0.2084 -0.1421 -0.3346
11318SOL    HW135170   5.064   2.181   6.390  0.2939 -0.0162  0.2369
11318SOL    HW235171   5.024   2.308   6.318  0.3251 -0.6885 -0.9983
11319SOL     OW35172   3.864   2.956   6.979  0.6903 -0.6833 -0.3123
11319SOL    HW135173   3.820   2.941   6.895  0.9366  1.5635 -0.8912
11319SOL    HW235174   3.941   3.009   6.958  0.0602  1.0636  1.4360
11320SOL     OW35175   4.126   1.835   6.347 -0.0870  0.0213  0.5063
11320SOL    HW135176   4.137   1.896   6.273 -0.5753 -0.6635 -0.1463
11320SOL    HW235177   4.098   1.753   6.306 -0.2679 -0.3981  1.4521
11321SOL     OW35178   4.843   3.450   7.317  0.4728  0.2787 -0.5639
11321SOL    HW135179   4.931   3.468   7.287  0.8987 -0.1879  0.3593
11321SOL    HW235180   4.832   3.355   7.306  0.7436  0.0449  0.9437
11322SOL     OW35181   4.420   2.341   5.661  0.0400 -0.5260  0.2137
11322SOL    HW135182   4.440   2.322   5.752  0.8396 -2.4427 -0.3010
11322SOL    HW235183   4.324   2.337   5.656 -0.1233  1.2439  1.2516
11323SOL     OW35184   3.506   2.985   7.064 -0.6006  0.0469  0.1063
11323SOL    HW135185   3.467   2.929   7.132 -2.5179  0.6096 -0.4587
11323SOL    HW235186   3.584   2.937   7.036  0.2656 -0.1967  2.6729
11324SOL     OW35187   4.724   2.751   6.557 -0.5666 -0.3881 -0.0162
11324SOL    HW135188   4.694   2.720   6.472 -0.2193 -0.9513  0.0650
11324SOL    HW235189   4.792   2.816   6.536  1.1551 -2.1574 -0.1754
11325SOL     OW35190   5.227   2.571   4.962  0.2775  0.0177 -0.6053
11325SOL    HW135191   5.232   2.490   4.911  0.9751 -1.3283  1.4982
11325SOL    HW235192   5.152   2.618   4.926  1.3591 -0.2972 -3.5939
11326SOL     OW35193   5.637   3.671   6.497 -0.4102  0.4342  0.1919
11326SOL    HW135194   5.712   3.626   6.535 -1.8641 -0.9588  1.6031
11326SOL    HW235195   5.661   3.686   6.406  1.2208 -0.7639  0.3803
11327SOL     OW35196   3.585   2.827   6.673 -0.6237  0.4460  0.2342
11327SOL    HW135197   3.536   2.908   6.660 -1.4745 -0.3731 -2.2614
11327SOL    HW235198   3.660   2.835   6.615 -1.3611 -1.0027 -0.9871
11328SOL     OW35199   4.351   3.438   7.565 -0.5096 -0.3452  0.8700
11328SOL    HW135200   4.446   3.432   7.579 -0.4523 -0.1926  0.5526
11328SOL    HW235201   4.342   3.466   7.474 -0.8766 -2.2578  0.2778
11329SOL     OW35202   5.702   2.091   5.638 -0.1405 -0.0415  0.4773
11329SOL    HW135203   5.790   2.056   5.652 -0.5978 -1.7127 -0.4425
11329SOL    HW235204   5.688   2.152   5.710  0.7065 -1.8826  2.2912
11330SOL     OW35205   5.235   3.423   5.901 -0.0660  0.3921  0.2221
11330SOL    HW135206   5.175   3.497   5.894 -0.2884  0.0571 -2.0942
11330SOL    HW235207   5.293   3.431   5.826  1.4927 -0.4485  1.2731
11331SOL     OW35208   4.109   3.348   7.240 -0.1256  0.4658  0.0320
11331SOL    HW135209   4.090   3.373   7.149 -0.5115  0.5748  0.1402
11331SOL    HW235210   4.201   3.323   7.239 -0.0271  0.8241 -0.3137
11332SOL     OW35211   4.826   2.967   5.760  0.6106  0.7107  0.2967
11332SOL    HW135212   4.899   2.999   5.708  1.5697 -1.2227  0.3611
11332SOL    HW235213   4.764   3.039   5.761  0.9482  1.1712 -2.7226
11333SOL     OW35214   4.643   3.664   6.858 -0.2213 -0.9136  0.3104
11333SOL    HW135215   4.601   3.735   6.809 -0.0246 -0.5370  0.6747
11333SOL    HW235216   4.726   3.702   6.887 -0.2715 -1.1853  0.8072
11334SOL     OW35217   4.306   3.511   5.601  0.3192  0.0890  0.1989
11334SOL    HW135218   4.310   3.607   5.594  2.2138  0.0022 -0.8522
11334SOL    HW235219   4.213   3.491   5.606 -0.1792  1.9403 -0.5570
11335SOL     OW35220   5.301   3.655   7.154  0.3869  0.3544 -0.2109
11335SOL    HW135221   5.328   3.696   7.072  1.0322  1.9129  0.7338
11335SOL    HW235222   5.372   3.676   7.215 -0.7020  0.3827  1.0886
11336SOL     OW35223   5.597   2.221   6.608  0.4600  0.3451  0.1850
11336SOL    HW135224   5.660   2.170   6.556  0.5889 -0.8805  1.5027
11336SOL    HW235225   5.528   2.243   6.546  0.2517 -1.6973 -0.3833
11337SOL     OW35226   3.860   2.475   6.577  0.0675 -0.0875  0.6252
11337SOL    HW135227   3.943   2.465   6.624 -0.1352  1.7536  1.4791
11337SOL    HW235228   3.801   2.413   6.620  1.0617 -1.7201 -0.2624
11338SOL     OW35229   5.147   3.129   5.874  0.4682 -0.0067 -0.3901
11338SOL    HW135230   5.178   3.219   5.882  1.1914 -0.2987  0.3492
11338SOL    HW235231   5.125   3.119   5.781  3.0813  0.1091 -1.1213
11339SOL     OW35232   4.751   3.299   6.873 -0.0067  0.3066  0.7962
11339SOL    HW135233   4.760   3.362   6.801 -0.3089 -1.3122 -0.7157
11339SOL    HW235234   4.840   3.265   6.885 -0.1636 -0.2416  0.4119
11340SOL     OW35235   4.706   2.822   5.989  0.0487 -0.1124 -0.5269
11340SOL    HW135236   4.675   2.887   6.053 -2.2019  0.1694 -1.7891
11340SOL    HW235237   4.799   2.840   5.980 -0.0230  1.3161  0.9784
11341SOL     OW35238   5.087   3.609   5.776 -0.1849 -0.4741 -0.5489
11341SOL    HW135239   5.139   3.685   5.750  1.1474 -1.0626  0.2878
11341SOL    HW235240   5.069   3.563   5.694 -0.2730  0.2846 -0.9635
11342SOL     OW35241   4.105   3.059   6.889 -0.1140  0.1262 -0.3935
11342SOL    HW135242   4.143   3.023   6.808  1.8898  0.4973  0.3142
11342SOL    HW235243   4.179   3.101   6.933 -1.6769  2.1450  0.4575
11343SOL     OW35244   5.417   2.745   6.997 -0.5407  0.3397 -0.0309
11343SOL    HW135245   5.406   2.694   7.077 -1.1687 -1.5742 -1.2520
11343SOL    HW235246   5.505   2.782   7.003  0.3699 -1.7559  0.4941
11344SOL     OW35247   4.577   3.064   6.143 -0.0033  0.3785  0.0602
11344SOL    HW135248   4.549   3.084   6.232  1.0721  3.4857 -0.1508
11344SOL    HW235249   4.670   3.089   6.141  0.7767 -2.2367 -1.2749
11345SOL     OW35250   4.587   1.890   6.274  0.2586 -0.3750  0.0905
11345SOL    HW135251   4.565   1.831   6.347  1.1061  0.9016  1.4342
11345SOL    HW235252   4.676   1.864   6.249  1.2998  1.3074  1.7882
11346SOL     OW35253   5.708   2.063   6.977  0.6649 -0.3274  0.4534
11346SOL    HW135254   5.698   2.136   6.916 -2.3976 -1.6886 -0.9222
11346SOL    HW235255   5.703   1.985   6.921 -1.7968 -1.6212  2.2945
11347SOL     OW35256   3.601   3.258   5.879  0.5281  0.2303  0.6477
11347SOL    HW135257   3.678   3.226   5.927 -0.3364 -0.7603  1.4309
11347SOL    HW235258   3.543   3.292   5.948 -0.5769 -0.8801  0.3090
11348SOL     OW35259   3.865   2.677   7.080 -0.2756  0.3522  0.8720
11348SOL    HW135260   3.858   2.618   7.005  3.0780  1.0212 -0.1107
11348SOL    HW235261   3.861   2.765   7.043 -0.4054  0.7173  1.7145
11349SOL     OW35262   4.822   1.948   7.244 -0.3897  0.5293  0.0004
11349SOL    HW135263   4.835   1.963   7.338 -0.5439  0.7361 -0.0116
11349SOL    HW235264   4.827   2.035   7.205  0.6981  0.3467 -0.3123
11350SOL     OW35265   3.523   2.321   5.353 -0.2270 -0.0771  0.2665
11350SOL    HW135266   3.533   2.319   5.258 -0.4761 -1.2398  0.2516
11350SOL    HW235267   3.499   2.411   5.373  0.0056  0.2152 -0.7549
11351SOL     OW35268   5.107   2.533   6.571 -0.1195  0.1573 -0.6457
11351SOL    HW135269   5.170   2.590   6.615 -0.7227  0.2104  0.2022
11351SOL    HW235270   5.154   2.497   6.496  2.3486 -3.0007  2.0995
11352SOL     OW35271   3.990   2.266   5.914  0.2292  0.2898  0.0124
11352SOL    HW135272   3.897   2.288   5.918 -0.4365 -1.5166 -2.6046
11352SOL    HW235273   4.021   2.307   5.834  0.8154 -1.7444 -0.8760
11353SOL     OW35274   4.816   3.224   6.009 -0.3587  0.1749 -0.0008
11353SOL    HW135275   4.745   3.209   5.947  0.6761 -1.3268 -0.8793
11353SOL    HW235276   4.871   3.291   5.967  0.3309 -0.8256 -0.7575
11354SOL     OW35277   4.346   2.529   6.860 -0.0507  0.0995  0.7775
11354SOL    HW135278   4.294   2.606   6.883 -0.7562 -0.7703  2.2570
11354SOL    HW235279   4.417   2.528   6.925  1.0599  0.5236 -0.3949
11355SOL     OW35280   4.588   2.333   7.247  0.1610 -0.2385  0.0844
11355SOL    HW135281   4.572   2.330   7.341  0.5682  0.7455  0.1931
11355SOL    HW235282   4.682   2.319   7.238  0.2810  0.6625 -0.1053
11356SOL     OW35283   5.125   2.673   7.150  0.2375  0.2818 -0.7374
11356SOL    HW135284   5.185   2.601   7.135  1.7499  1.2379  0.4538
11356SOL    HW235285   5.165   2.748   7.105 -2.1618  0.1229 -3.4727
11357SOL     OW35286   4.605   3.609   7.235  0.3931 -0.7128 -0.5911
11357SOL    HW135287   4.689   3.620   7.279 -0.2296 -0.1616  0.4733
11357SOL    HW235288   4.594   3.689   7.183  0.2369 -0.5160 -0.2515
11358SOL     OW35289   5.283   3.176   7.021 -0.3341  0.1133  0.3081
11358SOL    HW135290   5.372   3.160   7.052  0.5213 -1.3909 -2.5843
11358SOL    HW235291   5.292   3.249   6.959 -1.2120  0.2815  0.3655
11359SOL     OW35292   4.652   2.554   5.942 -0.0446 -0.6628  0.6021
11359SOL    HW135293   4.678   2.646   5.940  1.4132 -0.9912 -3.0918
11359SOL    HW235294   4.682   2.523   6.028 -1.4696  2.4267  2.3927
11360SOL     OW35295   4.174   2.733   6.478  0.6471 -0.4368 -0.2268
11360SOL    HW135296   4.210   2.644   6.477  1.8019 -0.0210  1.1440
11360SOL    HW235297   4.089   2.724   6.521 -0.3198 -1.1987 -2.1774
11361SOL     OW35298   5.659   2.099   7.268  0.1346 -0.6278  0.2907
11361SOL    HW135299   5.636   2.102   7.176  0.0156  0.9718  0.3402
11361SOL    HW235300   5.754   2.114   7.270 -0.1015  1.0787  0.4722
11362SOL     OW35301   5.112   2.831   6.361  0.5561  0.3584 -0.2353
11362SOL    HW135302   5.092   2.910   6.312  3.2958  1.5396  0.3856
11362SOL    HW235303   5.076   2.847   6.449 -0.1610  0.2502 -0.4985
11363SOL     OW35304   4.629   3.185   5.799  0.3540 -0.2071  0.3949
11363SOL    HW135305   4.568   3.139   5.857  0.8248 -3.2989 -1.3372
11363SOL    HW235306   4.572   3.228   5.735 -0.0751  0.5498  1.2617
11364SOL     OW35307   4.406   2.789   6.313 -0.1151  0.6376  0.4792
11364SOL    HW135308   4.389   2.771   6.221  2.3471  0.7033 -0.0557
11364SOL    HW235309   4.322   2.818   6.348 -0.9783  1.1793 -1.8740
11365SOL     OW35310   5.106   2.851   5.548 -0.4389  0.3263  0.5635
11365SOL    HW135311   5.106   2.928   5.490 -1.4538  0.8098  1.1729
11365SOL    HW235312   5.088   2.777   5.490  1.1421  0.4352 -0.1330
11366SOL     OW35313   5.212   2.594   6.233 -0.1248  0.5155  0.5118
11366SOL    HW135314   5.161   2.661   6.281 -0.6227  0.2401  0.3741
11366SOL    HW235315   5.146   2.542   6.188  0.3786  1.7010 -1.7502
11367SOL     OW35316   3.944   2.854   7.581  0.2031  0.3603 -0.2804
11367SOL    HW135317   4.003   2.905   7.636 -0.7779  1.4686 -0.2220
11367SOL    HW235318   3.901   2.919   7.525  1.3295 -0.7428 -2.5346
11368SOL     OW35319   3.753   2.623   6.374 -0.4119  0.7036  0.3820
11368SOL    HW135320   3.785   2.580   6.453  1.1539  0.6611 -0.2175
11368SOL    HW235321   3.815   2.595   6.306 -0.7915  1.9813 -0.5246
11369SOL     OW35322   4.615   3.481   7.707 -0.1082 -0.1908  0.5070
11369SOL    HW135323   4.636   3.569   7.676  1.9952  0.0657  2.3790
11369SOL    HW235324   4.671   3.424   7.655 -0.5550 -0.3027  0.1474
11370SOL     OW35325   5.888   1.623   6.625  0.0475 -0.0097  0.2017
11370SOL    HW135326   5.911   1.714   6.645 -0.0689 -0.1098  0.8024
11370SOL    HW235327   5.881   1.581   6.710 -1.6852 -0.1566  0.0143
11371SOL     OW35328   3.652   2.393   6.252  0.0945 -0.4336 -0.3254
11371SOL    HW135329   3.597   2.324   6.290 -1.2176 -0.1266 -1.5860
11371SOL    HW235330   3.639   2.469   6.310  3.5553 -1.7918  2.6289
11372SOL     OW35331   5.397   3.510   6.376  0.4794 -0.7820  0.4609
11372SOL    HW135332   5.424   3.426   6.413 -2.0677 -2.3008 -0.8011
11372SOL    HW235333   5.352   3.555   6.447 -0.0558 -1.4887  0.5803
11373SOL     OW35334   4.159   2.271   7.136 -0.7934 -0.2360  0.4512
11373SOL    HW135335   4.145   2.360   7.167 -0.4851  0.1463 -0.4664
11373SOL    HW235336   4.130   2.273   7.044 -1.2678 -1.2089  0.5660
11374SOL     OW35337   5.435   2.152   6.809  0.0638 -0.0463 -0.0925
11374SOL    HW135338   5.497   2.191   6.748 -0.5257  0.6846 -0.2441
11374SOL    HW235339   5.378   2.098   6.754  0.1538 -0.1874 -0.0470
11375SOL     OW35340   5.255   2.054   6.618  0.5701 -0.1186 -0.1628
11375SOL    HW135341   5.294   2.030   6.534 -1.0353  2.6115 -1.8304
11375SOL    HW235342   5.179   1.996   6.626 -0.7338  1.2465 -1.9351
11376SOL     OW35343   3.906   2.997   5.782 -0.2418 -0.0049  0.2472
11376SOL    HW135344   3.851   2.943   5.839 -1.4666  0.3953 -0.5416
11376SOL    HW235345   3.929   3.073   5.836  1.2491 -1.0958  1.2671
11377SOL     OW35346   4.521   3.470   6.991 -0.0006 -0.5917 -0.4440
11377SOL    HW135347   4.571   3.436   7.065  1.0867 -0.5348 -1.1327
11377SOL    HW235348   4.575   3.540   6.955 -1.9095  1.5304  0.5684
11378SOL     OW35349   5.217   2.246   5.751 -0.1337 -0.0084 -0.4161
11378SOL    HW135350   5.189   2.329   5.789  1.3366  0.1586  0.3643
11378SOL    HW235351   5.281   2.211   5.813  0.6254 -0.8431 -1.6154
11379SOL     OW35352   4.686   2.250   6.614 -0.0091 -0.9082 -0.2723
11379SOL    HW135353   4.596   2.242   6.646  0.1555 -0.3315  0.3625
11379SOL    HW235354   4.710   2.340   6.634  0.3173 -0.7186 -1.4887
11380SOL     OW35355   5.399   2.283   6.392  0.2378 -0.6582  1.0127
11380SOL    HW135356   5.305   2.288   6.408  0.2538 -1.7932  1.5378
11380SOL    HW235357   5.427   2.374   6.387 -0.7810 -0.3028  1.4887
11381SOL     OW35358   4.069   2.748   5.926 -0.3530 -0.2891  0.0215
11381SOL    HW135359   4.075   2.676   5.989 -0.2901 -0.8996 -0.6590
11381SOL    HW235360   4.055   2.826   5.979 -1.8241 -0.9839  0.7299
11382SOL     OW35361   4.239   2.708   7.709  0.3954  0.6625 -0.0234
11382SOL    HW135362   4.302   2.721   7.780 -0.7194  1.2147  0.8942
11382SOL    HW235363   4.180   2.640   7.741  0.7694 -0.1864 -1.0694
11383SOL     OW35364   4.209   2.255   8.477  0.7191  0.2237  0.4679
11383SOL    HW135365   4.121   2.282   8.450  0.1778 -1.8623  0.0061
11383SOL    HW235366   4.267   2.313   8.427 -0.3631  0.6566 -0.3325
11384SOL     OW35367   3.678   2.888   8.136 -0.6382  0.2303 -0.2762
11384SOL    HW135368   3.600   2.889   8.192 -0.5030  0.0153 -0.0815
11384SOL    HW235369   3.736   2.825   8.178 -0.5420  0.0562 -0.6726
11385SOL     OW35370   4.297   3.178   8.746  0.2791 -0.6202 -0.5061
11385SOL    HW135371   4.251   3.146   8.668  1.2496 -3.0687 -0.1549
11385SOL    HW235372   4.227   3.200   8.808 -0.5418 -3.8977 -0.1077
11386SOL     OW35373   5.418   3.431   8.598 -0.3193 -0.1525 -0.4051
11386SOL    HW135374   5.513   3.445   8.603 -0.2089 -0.8300 -0.4860
11386SOL    HW235375   5.387   3.447   8.687  0.0663 -1.2414 -0.0642
11387SOL     OW35376   5.507   2.330   7.853  0.4611 -0.0689  0.8288
11387SOL    HW135377   5.432   2.372   7.812  2.7884  1.2654 -2.4764
11387SOL    HW235378   5.533   2.390   7.923 -0.9891 -0.1278  1.4452
11388SOL     OW35379   5.622   2.452   7.339  0.0361 -0.0518 -0.4267
11388SOL    HW135380   5.640   2.393   7.266 -2.6087 -0.9597 -0.4621
11388SOL    HW235381   5.560   2.404   7.394  0.4689  1.3646  1.4192
11389SOL     OW35382   4.850   3.073   8.571 -0.4224 -0.6565  0.1195
11389SOL    HW135383   4.854   3.071   8.667 -1.3514 -1.8165  0.1561
11389SOL    HW235384   4.937   3.045   8.543  0.4633  1.4479  0.5776
11390SOL     OW35385   4.391   2.902   7.520 -0.0648 -0.3482 -0.0480
11390SOL    HW135386   4.478   2.867   7.499  0.2414 -0.0954  0.7620
11390SOL    HW235387   4.355   2.838   7.582 -0.1057 -0.0163  0.2748
11391SOL     OW35388   3.950   3.396   8.705 -0.2056 -0.4576 -0.2949
11391SOL    HW135389   4.025   3.421   8.652 -0.1628  0.4056  0.1548
11391SOL    HW235390   3.883   3.371   8.642  0.4389 -1.1949 -0.7024
11392SOL     OW35391   3.996   2.210   0.133 -0.0733  0.4119  0.1642
11392SOL    HW135392   3.956   2.232   0.218  0.7183 -0.8713  0.8887
11392SOL    HW235393   4.041   2.290   0.107 -2.7041  1.8111 -0.5073
11393SOL     OW35394   5.253   2.559   7.809  0.1423 -0.0414 -0.0033
11393SOL    HW135395   5.210   2.622   7.866 -0.0040 -0.5228  0.4288
11393SOL    HW235396   5.181   2.522   7.757  0.2064  0.0467 -0.1533
11394SOL     OW35397   4.078   3.598   7.897 -0.7425 -0.6635  0.1980
11394SOL    HW135398   4.096   3.669   7.959 -0.5669 -1.4246  1.0319
11394SOL    HW235399   4.163   3.577   7.859 -0.6271 -1.0970  0.6887
11395SOL     OW35400   3.481   3.144   7.974 -0.0718 -0.5109 -0.0250
11395SOL    HW135401   3.545   3.169   8.040 -0.3167  0.7216 -0.2326
11395SOL    HW235402   3.404   3.117   8.024  0.0134 -0.3291  0.2043
11396SOL     OW35403   4.544   3.045   8.532  0.1968 -0.1456 -0.9758
11396SOL    HW135404   4.639   3.041   8.535  0.2362  0.8679 -0.4839
11396SOL    HW235405   4.519   3.099   8.607 -0.8759 -1.6222 -0.2029
11397SOL     OW35406   4.624   3.534   8.656 -0.0777 -0.3455  0.1619
11397SOL    HW135407   4.543   3.581   8.632 -0.3932 -1.5390 -1.3216
11397SOL    HW235408   4.683   3.549   8.582  0.3435 -1.0570  0.3404
11398SOL     OW35409   4.733   2.563   7.370  0.7825 -0.1162 -0.2200
11398SOL    HW135410   4.749   2.611   7.289 -0.4237 -0.3631 -0.6217
11398SOL    HW235411   4.641   2.539   7.366  1.3394 -2.5514 -0.1022
11399SOL     OW35412   4.411   2.822   8.471 -0.3414  0.0029  0.2308
11399SOL    HW135413   4.420   2.783   8.558  0.1712  0.2899  0.3050
11399SOL    HW235414   4.462   2.903   8.474 -0.9547  0.4193 -0.0927
11400SOL     OW35415   5.535   4.088   7.652  0.3320  0.3124  0.4793
11400SOL    HW135416   5.504   4.004   7.686  1.8063 -0.1948  0.6158
11400SOL    HW235417   5.516   4.150   7.722  0.0219 -0.0543  0.7257
11401SOL     OW35418   5.353   3.174   7.894 -0.3102 -0.7516  0.1121
11401SOL    HW135419   5.337   3.219   7.977  1.5368 -1.6344  0.9972
11401SOL    HW235420   5.276   3.120   7.881 -1.1372  0.2574  0.6514
11402SOL     OW35421   5.588   3.525   8.095 -0.7352  0.5159  0.4493
11402SOL    HW135422   5.546   3.548   8.179 -0.8307 -0.7219  0.7553
11402SOL    HW235423   5.519   3.539   8.030 -0.5570  1.8288  0.5009
11403SOL     OW35424   4.144   3.317   7.980  0.0225 -0.7688  0.0561
11403SOL    HW135425   4.088   3.379   8.026  0.6999 -0.2841  0.2316
11403SOL    HW235426   4.229   3.324   8.023 -0.1556 -2.6203  0.8065
11404SOL     OW35427   4.631   1.735   7.265  0.0825  0.4568  0.1292
11404SOL    HW135428   4.696   1.805   7.257 -0.2550  0.9709  1.5496
11404SOL    HW235429   4.551   1.779   7.293  0.1136 -0.5552  2.0083
11405SOL     OW35430   4.321   3.058   0.175  0.5802 -0.2590 -0.3060
11405SOL    HW135431   4.322   3.153   0.163 -0.5441 -0.4655 -2.3179
11405SOL    HW235432   4.363   3.045   0.260  1.9231  1.9418 -0.5503
11406SOL     OW35433   4.946   3.291   7.642  0.3076  0.6693 -0.3651
11406SOL    HW135434   4.888   3.222   7.610 -0.5249  0.5629  1.2529
11406SOL    HW235435   5.034   3.264   7.616  0.1395 -1.6063  1.1577
11407SOL     OW35436   5.111   3.674   8.507 -0.5268  0.8252 -0.1545
11407SOL    HW135437   5.197   3.670   8.466 -1.0320  0.1674 -1.1985
11407SOL    HW235438   5.064   3.741   8.457 -1.8218 -1.3766 -2.0812
11408SOL     OW35439   5.546   3.991   7.958  0.2528 -0.0995  0.0760
11408SOL    HW135440   5.541   4.074   7.910  0.4578 -0.3232 -0.3371
11408SOL    HW235441   5.466   3.988   8.009  0.4876  0.6050  0.5023
11409SOL     OW35442   4.492   2.723   7.825  0.0808 -0.3110 -0.6468
11409SOL    HW135443   4.533   2.796   7.779  2.0804 -1.6365 -1.0603
11409SOL    HW235444   4.564   2.679   7.870 -1.5308 -0.1039  2.3997
11410SOL     OW35445   5.283   2.476   8.151 -0.4556 -0.1222 -0.5817
11410SOL    HW135446   5.197   2.467   8.110  0.2841 -0.7096 -2.0963
11410SOL    HW235447   5.302   2.389   8.185  0.6641 -0.7910 -2.7054
11411SOL     OW35448   5.458   3.518   7.791  0.1494  0.2434  0.4970
11411SOL    HW135449   5.408   3.520   7.709 -0.3059 -0.1103  0.7611
11411SOL    HW235450   5.512   3.439   7.785 -0.0071  0.1257  0.6033
11412SOL     OW35451   4.753   2.315   0.036  0.6364 -0.1577 -0.3368
11412SOL    HW135452   4.738   2.375  -0.037 -1.0777 -1.5680 -1.2128
11412SOL    HW235453   4.806   2.244  -0.001  0.8853 -0.2211  0.1346
11413SOL     OW35454   5.288   2.229   8.268  0.0079  0.2491  0.2165
11413SOL    HW135455   5.201   2.194   8.285  1.6181 -3.6409  1.4492
11413SOL    HW235456   5.307   2.203   8.177 -0.5675  2.4335 -0.6015
11414SOL     OW35457   4.769   2.668   7.841  0.5452  0.2002  0.5547
11414SOL    HW135458   4.793   2.720   7.918  0.2602 -0.2429  0.9488
11414SOL    HW235459   4.738   2.732   7.777 -2.5962  0.3617  2.0393
11415SOL     OW35460   4.112   2.845   8.550  0.3954 -0.2054  0.4366
11415SOL    HW135461   4.142   2.854   8.459 -0.7708  0.3686  0.0730
11415SOL    HW235462   4.059   2.924   8.564 -1.9032 -1.6857  0.6019
11416SOL     OW35463   3.622   3.793   0.166  0.5504  0.6651  0.0691
11416SOL    HW135464   3.665   3.707   0.157 -1.5911 -0.2372 -3.5024
11416SOL    HW235465   3.562   3.781   0.240  0.8619 -0.6709  0.1450
11417SOL     OW35466   4.453   2.127   7.831 -0.0081  0.2643  0.2983
11417SOL    HW135467   4.472   2.221   7.820  1.3124  0.1053  1.0224
11417SOL    HW235468   4.364   2.117   7.798  0.4499  1.4451 -1.4595
11418SOL     OW35469   5.074   3.388   7.930 -0.2339  0.8640  0.4694
11418SOL    HW135470   5.032   3.439   7.861  2.8761 -0.3799 -2.6583
11418SOL    HW235471   5.019   3.310   7.939 -0.2929  0.6596 -1.2862
11419SOL     OW35472   4.395   1.869   8.045  0.0593 -0.2223  0.4859
11419SOL    HW135473   4.318   1.916   8.076 -0.5358 -1.3372  0.7751
11419SOL    HW235474   4.469   1.910   8.091 -0.3458  0.8943  0.1580
11420SOL     OW35475   4.474   2.642   8.131 -0.2887 -0.2151 -0.0404
11420SOL    HW135476   4.398   2.631   8.073  0.1640 -0.2656 -0.6332
11420SOL    HW235477   4.460   2.727   8.173 -0.1922  0.2191 -0.8781
11421SOL     OW35478   4.351   3.526   8.351  0.2238 -0.1448 -0.0447
11421SOL    HW135479   4.385   3.573   8.275  0.7337  0.0115  0.2756
11421SOL    HW235480   4.372   3.582   8.425 -0.6709 -0.0802  0.1767
11422SOL     OW35481   5.745   3.307   8.042  0.3219 -0.0097  0.2830
11422SOL    HW135482   5.673   3.370   8.043  1.5604  1.5502 -1.0380
11422SOL    HW235483   5.749   3.277   7.952  1.9693  0.8017  0.0412
11423SOL     OW35484   4.351   2.319   8.043 -0.1630 -0.4751 -0.4764
11423SOL    HW135485   4.347   2.233   8.001  0.6653 -1.1874  0.8070
11423SOL    HW235486   4.295   2.311   8.120  0.6186 -0.1895  0.1458
11424SOL     OW35487   5.423   2.777   7.899  0.1906 -0.1251 -0.0750
11424SOL    HW135488   5.441   2.809   7.987  1.8050  0.3812 -0.5558
11424SOL    HW235489   5.475   2.834   7.841  0.0869 -1.1748 -1.2546
11425SOL     OW35490   4.679   3.764   7.859 -0.3156  0.0981  0.7034
11425SOL    HW135491   4.602   3.781   7.805  0.2438 -0.1674 -0.2026
11425SOL    HW235492   4.753   3.795   7.807  0.1013  1.7093  2.1669
11426SOL     OW35493   5.561   3.277   7.777 -0.7601  0.1104  0.0006
11426SOL    HW135494   5.479   3.234   7.802 -1.3249  0.5021 -1.0954
11426SOL    HW235495   5.610   3.210   7.729  0.0470 -0.4489  1.5627
11427SOL     OW35496   3.839   3.666   7.781 -0.4691 -0.4969 -0.0308
11427SOL    HW135497   3.917   3.624   7.816  0.1071  0.6328  0.0731
11427SOL    HW235498   3.866   3.756   7.761 -1.6501 -0.1782 -0.3061
11428SOL     OW35499   4.871   1.695   7.694 -0.7195  0.4474 -0.4930
11428SOL    HW135500   4.805   1.728   7.755 -0.3060  1.1165 -0.3935
11428SOL    HW235501   4.852   1.602   7.685 -1.5995  0.6131 -0.3738
11429SOL     OW35502   4.012   3.638   0.450  0.0093  0.4073  0.1303
11429SOL    HW135503   4.031   3.710   0.390  1.0056  0.6470  0.7033
11429SOL    HW235504   4.067   3.566   0.419  0.5080  0.5232  0.7131
11430SOL     OW35505   4.479   3.200   8.267 -0.2981  0.4429 -0.2514
11430SOL    HW135506   4.508   3.115   8.234 -0.1965  0.3874 -0.0256
11430SOL    HW235507   4.449   3.182   8.356  2.7790  1.1563  1.0849
11431SOL     OW35508   4.098   2.272   8.160 -0.2389  0.2190  0.0606
11431SOL    HW135509   4.072   2.329   8.232  0.2056  1.0349 -0.4035
11431SOL    HW235510   4.019   2.265   8.105 -0.8397 -1.0992  1.0383
11432SOL     OW35511   4.845   1.930   7.533 -0.2374 -1.7146  0.1194
11432SOL    HW135512   4.806   1.856   7.580 -1.5724  0.2807  2.4075
11432SOL    HW235513   4.885   1.983   7.602 -0.5699  0.4067 -1.2324
11433SOL     OW35514   5.050   3.202   8.287  0.1846  0.0467 -0.1895
11433SOL    HW135515   5.125   3.247   8.249  0.8955 -1.1959 -0.3219
11433SOL    HW235516   5.021   3.258   8.358  0.9666  0.7597 -0.4234
11434SOL     OW35517   4.549   2.950   8.205  0.2516  0.2057  1.2249
11434SOL    HW135518   4.596   2.899   8.138  0.4104 -0.9521  2.1842
11434SOL    HW235519   4.618   2.995   8.254  0.1955  0.3162  1.2043
11435SOL     OW35520   5.011   2.163   8.260 -0.0003 -0.5191  0.0156
11435SOL    HW135521   4.937   2.205   8.303  0.2691  0.9131 -0.8438
11435SOL    HW235522   4.979   2.138   8.174  0.1443 -1.1298  0.1338
11436SOL     OW35523   4.368   1.849   7.670 -0.6548  0.2938 -0.2446
11436SOL    HW135524   4.442   1.903   7.699 -0.1080 -1.4441  1.8415
11436SOL    HW235525   4.290   1.898   7.698 -0.2547  1.1456 -0.5763
11437SOL     OW35526   5.161   3.175   7.489 -0.0772 -0.7269 -0.0732
11437SOL    HW135527   5.218   3.226   7.431 -1.5807  1.6195  0.3570
11437SOL    HW235528   5.110   3.120   7.429  0.0603 -0.0844 -0.8013
11438SOL     OW35529   4.163   2.004   7.756  0.4874  0.3613 -0.9430
11438SOL    HW135530   4.126   1.929   7.802 -1.3854  1.4796 -0.5359
11438SOL    HW235531   4.109   2.014   7.678 -0.4498  2.2906 -0.1249
11439SOL     OW35532   5.126   2.080   7.650 -0.1536  0.1426  0.4509
11439SOL    HW135533   5.106   2.137   7.576 -0.4044 -1.2032 -0.5656
11439SOL    HW235534   5.218   2.055   7.637  0.1160  0.7245  1.1861
11440SOL     OW35535   5.531   3.565   0.047  0.4065 -0.6372  0.3579
11440SOL    HW135536   5.509   3.653   0.078  1.9876  0.3838 -1.2339
11440SOL    HW235537   5.613   3.576  -0.002  0.9692 -3.1125  0.6018
11441SOL     OW35538   4.256   2.988   8.123  0.2762  0.2093  0.1152
11441SOL    HW135539   4.266   2.930   8.048 -2.6108  0.5645 -0.6850
11441SOL    HW235540   4.332   3.046   8.119  1.4033 -1.2693 -1.1119
11442SOL     OW35541   4.708   4.165   8.295 -0.0632 -0.2087  0.3343
11442SOL    HW135542   4.773   4.229   8.267  0.5606  0.0296  2.1874
11442SOL    HW235543   4.760   4.092   8.329 -0.7698 -1.1863 -0.6201
11443SOL     OW35544   4.937   2.577   7.567 -0.0923 -0.7748  0.1677
11443SOL    HW135545   4.879   2.602   7.495  0.3813 -0.4298 -0.0934
11443SOL    HW235546   4.910   2.633   7.640  0.0199 -0.5072  0.0018
11444SOL     OW35547   3.916   1.952   8.844  0.6671 -0.3679 -0.1412
11444SOL    HW135548   3.956   2.033   8.812 -0.8034  0.2004 -0.6158
11444SOL    HW235549   3.869   1.978   8.924  1.2278 -1.0207  0.4110
11445SOL     OW35550   4.912   2.085   7.800 -0.6890 -0.0490  0.0347
11445SOL    HW135551   4.911   2.165   7.852 -0.4408  0.7890 -1.1848
11445SOL    HW235552   4.999   2.084   7.760 -1.3498  0.1213 -1.4844
11446SOL     OW35553   4.562   1.460   7.883  0.0641 -0.4046 -0.1861
11446SOL    HW135554   4.582   1.552   7.866  0.0878 -0.4577 -0.4472
11446SOL    HW235555   4.477   1.462   7.927 -1.7633 -0.4383 -3.4027
11447SOL     OW35556   5.306   3.358   8.343 -0.1076  0.2637  0.2259
11447SOL    HW135557   5.347   3.433   8.301 -0.1668  0.7984  1.1000
11447SOL    HW235558   5.321   3.372   8.437  1.2192 -1.5791  0.3532
11448SOL     OW35559   4.844   3.111   7.495  0.1852  0.2419 -0.3068
11448SOL    HW135560   4.853   3.136   7.404 -1.3062  1.6591 -0.1143
11448SOL    HW235561   4.791   3.031   7.493 -0.9717  0.9939 -0.6524
11449SOL     OW35562   5.748   3.296   8.417 -0.0869  0.0431  0.7393
11449SOL    HW135563   5.694   3.367   8.452 -0.5593  0.3832 -0.5829
11449SOL    HW235564   5.694   3.218   8.427 -0.7642  0.3408 -0.3389
11450SOL     OW35565   4.566   3.306   7.251  0.1444  0.1867  0.5755
11450SOL    HW135566   4.522   3.260   7.322 -2.3444 -0.6893 -1.3862
11450SOL    HW235567   4.549   3.398   7.268 -0.2047  0.0082  1.2400
11451SOL     OW35568   5.429   3.838   7.751  0.3704  0.0582 -0.9827
11451SOL    HW135569   5.413   3.828   7.845 -1.7202 -0.1632 -1.3141
11451SOL    HW235570   5.475   3.757   7.727  0.1377 -0.2903 -0.3011
11452SOL     OW35571   5.440   2.675   7.328  0.1518  1.0309  0.2924
11452SOL    HW135572   5.354   2.676   7.370 -0.5453  1.7107 -1.0835
11452SOL    HW235573   5.450   2.585   7.296 -0.5051  1.2051 -0.4235
11453SOL     OW35574   4.479   2.332   7.493 -0.2133  0.1451 -0.3800
11453SOL    HW135575   4.546   2.316   7.560 -0.0751 -1.0941 -0.8003
11453SOL    HW235576   4.410   2.269   7.512 -2.2004  2.6000  1.1790
11454SOL     OW35577   5.121   3.168   0.730 -0.2911  0.3068  0.4432
11454SOL    HW135578   5.079   3.166   0.816 -0.7273  1.0531  0.2623
11454SOL    HW235579   5.205   3.211   0.745  0.3096 -0.9465  0.7588
11455SOL     OW35580   4.670   2.891   7.688  0.5495  0.3877  0.3355
11455SOL    HW135581   4.734   2.960   7.705  0.9000 -0.1230  1.1433
11455SOL    HW235582   4.674   2.877   7.593  0.3647  1.5708  0.1418
11456SOL     OW35583   4.879   3.427   8.722  0.2274  0.3276 -0.4378
11456SOL    HW135584   4.876   3.354   8.783  1.5645  0.9485  0.4285
11456SOL    HW235585   4.797   3.474   8.736  0.2005  0.0533  0.3812
11457SOL     OW35586   4.467   3.163   7.497 -0.0944 -0.1295  0.0096
11457SOL    HW135587   4.427   3.217   7.565  1.8837  0.7898  0.4881
11457SOL    HW235588   4.440   3.073   7.520 -2.5443  0.4617 -0.2026
11458SOL     OW35589   4.310   2.789   8.756 -0.4167 -0.0118 -0.3309
11458SOL    HW135590   4.248   2.803   8.684 -1.2328 -0.7461  0.2067
11458SOL    HW235591   4.265   2.823   8.833 -0.7697 -1.8047  0.3126
11459SOL     OW35592   5.525   2.127   8.377 -0.4154 -0.1497  0.0254
11459SOL    HW135593   5.547   2.154   8.466 -0.0336  0.5458 -0.2701
11459SOL    HW235594   5.462   2.193   8.348  0.7212  0.6087 -0.8009
11460SOL     OW35595   3.537   3.288   8.712  0.4137  0.3034 -0.3614
11460SOL    HW135596   3.593   3.258   8.784  2.6786  0.3645 -1.9939
11460SOL    HW235597   3.543   3.383   8.714 -0.5810  0.3684  0.1335
11461SOL     OW35598   3.870   3.378   8.095  0.6731  0.7704 -0.6884
11461SOL    HW135599   3.873   3.469   8.125  0.2184  0.6307 -0.2136
11461SOL    HW235600   3.786   3.371   8.049  0.3194  0.3659  0.0085
11462SOL     OW35601   4.631   1.960   8.249 -0.0744 -0.1389  0.4677
11462SOL    HW135602   4.552   1.936   8.296 -0.9529  0.1330 -0.8117
11462SOL    HW235603   4.702   1.917   8.297 -0.7665  1.0395  2.6962
11463SOL     OW35604   4.778   3.243   7.913  0.5659  0.1332 -0.0210
11463SOL    HW135605   4.759   3.280   7.827  2.0067  1.6663  0.2803
11463SOL    HW235606   4.721   3.292   7.973 -2.2458 -2.5200 -0.2314
11464SOL     OW35607   5.021   3.335   8.521  0.3285 -0.0126 -0.0316
11464SOL    HW135608   4.937   3.338   8.566  0.5656 -2.5905  0.7123
11464SOL    HW235609   5.070   3.409   8.559 -0.9462  0.4134  0.8623
11465SOL     OW35610   5.444   2.549   7.597 -0.3615  0.1208  0.2315
11465SOL    HW135611   5.447   2.627   7.542 -0.1722 -0.5885 -0.8066
11465SOL    HW235612   5.375   2.566   7.661 -0.2436  1.1725  0.0827
11466SOL     OW35613   4.128   3.284   0.081 -0.0975 -0.2119  0.0822
11466SOL    HW135614   4.072   3.312   0.009  0.9434  0.3014 -0.5551
11466SOL    HW235615   4.067   3.251   0.148 -1.2094  1.1767 -0.2038
11467SOL     OW35616   4.348   2.442   8.703 -0.4330  0.1905 -0.5372
11467SOL    HW135617   4.375   2.354   8.678  0.2531  0.1888  0.1816
11467SOL    HW235618   4.379   2.499   8.633  2.5610  0.3569  0.8036
11468SOL     OW35619   4.870   2.986   7.849 -0.0629  0.3403  0.1757
11468SOL    HW135620   4.954   2.966   7.891 -1.4915 -1.2557  2.5198
11468SOL    HW235621   4.835   3.058   7.901 -0.6884  0.1463  0.0240
11469SOL     OW35622   5.180   2.666   7.428  0.0030  0.3173 -0.1839
11469SOL    HW135623   5.156   2.652   7.336  0.4198 -1.0107 -0.1018
11469SOL    HW235624   5.116   2.617   7.478  1.4855 -1.4606  0.1029
11470SOL     OW35625   3.993   2.012   8.418 -0.0284  0.2260  0.6995
11470SOL    HW135626   3.935   2.063   8.474 -0.2708 -1.8550  2.4766
11470SOL    HW235627   4.080   2.050   8.432 -0.3419  0.7642  1.2043
11471SOL     OW35628   3.914   3.577   0.048  0.2351  0.0044 -0.0013
11471SOL    HW135629   3.846   3.527   0.092  0.0332  1.1571  1.0772
11471SOL    HW235630   3.945   3.520  -0.022 -0.8127 -1.1170  0.4119
11472SOL     OW35631   4.887   1.849   8.378 -0.3945  0.4632  0.0462
11472SOL    HW135632   4.827   1.776   8.392 -2.4899  1.8007 -1.3646
11472SOL    HW235633   4.910   1.843   8.285 -1.3041  2.0762 -0.3068
11473SOL     OW35634   4.175   2.014   8.120  0.5388  0.1740 -0.0389
11473SOL    HW135635   4.100   1.955   8.109  0.7926 -0.2756  0.5990
11473SOL    HW235636   4.135   2.100   8.138  0.1297 -0.4805  2.6031
11474SOL     OW35637   5.483   2.948   7.676 -0.1732  0.0740 -0.7224
11474SOL    HW135638   5.406   2.905   7.639 -0.2427 -0.7824  0.3821
11474SOL    HW235639   5.486   3.033   7.632 -3.3330  1.3144  1.1423
11475SOL     OW35640   4.990   2.538   8.087 -0.4854 -0.3946 -0.1210
11475SOL    HW135641   4.944   2.463   8.047 -2.5663  0.2080  0.9818
11475SOL    HW235642   4.967   2.533   8.180  0.5157  0.8305  0.2222
11476SOL     OW35643   5.398   1.687   7.091 -0.2867  0.3018 -0.1497
11476SOL    HW135644   5.339   1.740   7.037 -1.7193 -0.6218  0.4419
11476SOL    HW235645   5.405   1.735   7.173  1.4505  1.4265 -0.9004
11477SOL     OW35646   5.513   2.549   8.009  0.2486  0.2371 -0.1057
11477SOL    HW135647   5.457   2.619   7.974  0.4685  0.4612 -0.0106
11477SOL    HW235648   5.471   2.525   8.092 -0.3499 -0.3885 -0.5841
11478SOL     OW35649   4.141   3.175   8.497 -0.2359 -0.1155 -0.2688
11478SOL    HW135650   4.114   3.148   8.409  1.7302  0.3680 -1.0821
11478SOL    HW235651   4.073   3.140   8.555 -2.6627  1.2023 -2.1098
11479SOL     OW35652   4.911   2.349   8.516  0.5129  0.1794  0.1580
11479SOL    HW135653   4.999   2.388   8.522  0.5330  0.4279 -1.3797
11479SOL    HW235654   4.917   2.268   8.567  1.8579 -0.1772 -0.5213
11480SOL     OW35655   4.347   2.445   8.329  0.5995  0.0635  0.1480
11480SOL    HW135656   4.398   2.519   8.361  0.5487 -0.1726  0.7857
11480SOL    HW235657   4.394   2.416   8.251  1.7919 -0.5349  1.0629
11481SOL     OW35658   4.729   1.179   8.565 -0.1440  0.5640 -0.7641
11481SOL    HW135659   4.785   1.256   8.561  0.0866  0.4104 -0.5775
11481SOL    HW235660   4.772   1.115   8.508  0.3780  0.1309  0.0886
11482SOL     OW35661   3.834   3.069   7.228 -0.1616  0.2116  0.1485
11482SOL    HW135662   3.790   3.010   7.290  0.1185  1.4832  1.6066
11482SOL    HW235663   3.861   3.012   7.156 -0.1911 -1.3911  1.3513
11483SOL     OW35664   3.936   3.575   8.360 -0.5823  0.1417  0.2698
11483SOL    HW135665   3.855   3.530   8.381 -0.6219 -0.2021 -0.5900
11483SOL    HW235666   4.005   3.521   8.400 -0.6700 -0.3820 -0.2786
11484SOL     OW35667   4.177   2.783   8.294 -0.1356 -0.4576  0.4771
11484SOL    HW135668   4.215   2.857   8.247 -1.9420  0.5716  0.5591
11484SOL    HW235669   4.249   2.750   8.348  1.0121  0.5157 -0.3957
11485SOL     OW35670   4.542   2.570   8.477 -0.2039 -0.1265 -0.6126
11485SOL    HW135671   4.570   2.626   8.404 -1.5648 -0.3747 -1.3541
11485SOL    HW235672   4.601   2.494   8.472 -1.8827 -1.4076 -3.1504
11486SOL     OW35673   3.974   2.605   8.586 -0.6684  0.1713  0.5283
11486SOL    HW135674   3.893   2.652   8.568 -1.2156 -1.3153 -1.2180
11486SOL    HW235675   4.041   2.674   8.591 -1.5723  1.2139 -0.9748
11487SOL     OW35676   4.828   2.319   7.949  0.6638  0.3279 -0.4891
11487SOL    HW135677   4.773   2.375   7.895  0.2273 -1.8021 -2.3872
11487SOL    HW235678   4.766   2.260   7.992  1.1874  0.5923  0.6675
11488SOL     OW35679   5.465   2.663   8.307  0.2450 -0.2275 -0.5217
11488SOL    HW135680   5.464   2.668   8.402  0.3419  0.9128 -0.5616
11488SOL    HW235681   5.388   2.612   8.284 -0.3745  0.3854  0.1386
11489SOL     OW35682   4.259   2.077   8.704  0.2584 -0.0185  0.7924
11489SOL    HW135683   4.213   2.140   8.759  1.9522  1.3123  0.7900
11489SOL    HW235684   4.250   2.113   8.615 -0.5087 -0.9225  0.4840
11490SOL     OW35685   5.018   2.978   8.099  0.1803  0.5310 -0.7619
11490SOL    HW135686   5.048   3.031   8.173  1.0388  0.4874 -1.0656
11490SOL    HW235687   5.091   2.981   8.037  0.0544 -0.6317 -0.9776
11491SOL     OW35688   4.518   2.401   7.832  0.2027  0.4495  0.4406
11491SOL    HW135689   4.481   2.488   7.823 -0.2345  0.2909  0.6385
11491SOL    HW235690   4.494   2.374   7.921  1.0359  0.4482  0.6762
11492SOL     OW35691   3.714   3.450   0.193 -0.0017 -0.3777 -0.8779
11492SOL    HW135692   3.687   3.469   0.283  0.5587  0.5546 -0.8928
11492SOL    HW235693   3.658   3.377   0.166 -3.0633  1.8746 -1.1384
11493SOL     OW35694   4.808   2.784   8.086 -0.1922 -0.0568  0.0512
11493SOL    HW135695   4.884   2.843   8.094  0.0344 -0.5348  2.0987
11493SOL    HW235696   4.843   2.698   8.111 -0.3403 -1.3225 -3.5760
11494SOL     OW35697   5.098   2.993   7.273  0.3053 -0.3400 -0.1382
11494SOL    HW135698   5.038   2.919   7.271  0.8203 -0.7572 -0.5443
11494SOL    HW235699   5.162   2.974   7.205  1.7665 -0.6332  1.2612
11495SOL     OW35700   5.084   4.100   8.718 -0.2390  0.3813  0.4643
11495SOL    HW135701   5.045   4.165   8.777 -2.0691 -1.1583  1.0545
11495SOL    HW235702   5.121   4.035   8.776 -1.2107 -0.6666 -0.0498
11496SOL     OW35703   4.797   3.583   8.450 -0.3719 -0.4126 -0.2074
11496SOL    HW135704   4.888   3.565   8.473  0.0691  1.1704 -0.6007
11496SOL    HW235705   4.781   3.532   8.371 -0.1231 -1.4124  0.3773
11497SOL     OW35706   4.133   3.458   8.516  0.0821  0.5666 -0.1742
11497SOL    HW135707   4.140   3.366   8.494  2.1609  0.1508  1.8858
11497SOL    HW235708   4.214   3.497   8.483 -1.0488  1.8463 -1.5989
11498SOL     OW35709   5.471   1.721   7.522 -0.1680 -0.2990 -0.4137
11498SOL    HW135710   5.473   1.627   7.507  0.4015 -0.3073 -0.3144
11498SOL    HW235711   5.448   1.759   7.437 -0.1731 -0.5134 -0.5084
11499SOL     OW35712   5.182   3.624   8.222  0.2068  0.6401  0.6582
11499SOL    HW135713   5.168   3.557   8.155  1.2792  2.4362 -1.5013
11499SOL    HW235714   5.101   3.675   8.222 -1.1366 -1.2215  3.2127
11500SOL     OW35715   5.169   2.976   7.850 -0.4100  0.0590  0.1019
11500SOL    HW135716   5.222   2.899   7.829 -2.8446 -2.0865  1.2426
11500SOL    HW235717   5.123   2.996   7.769  0.0715  0.1848 -0.1426
11501SOL     OW35718   3.948   3.606   7.341  0.3806 -0.0660  0.0964
11501SOL    HW135719   4.023   3.577   7.288  0.4580 -0.2611  0.3107
11501SOL    HW235720   3.936   3.536   7.405  0.3355  0.2077  0.3877
11502SOL     OW35721   5.772   2.039   8.712 -0.3475 -0.2385 -0.2219
11502SOL    HW135722   5.800   2.010   8.626  1.6342  0.7272  0.0391
11502SOL    HW235723   5.760   1.958   8.762  2.3218 -0.7981 -0.3104
11503SOL     OW35724   3.935   1.929   7.992  0.2775  0.2392  0.2908
11503SOL    HW135725   3.973   1.878   7.921  0.5659 -1.4846  1.6066
11503SOL    HW235726   3.889   2.001   7.949  0.4586 -0.7328 -1.6117
11504SOL     OW35727   4.841   3.766   7.375 -0.2431 -0.5717 -0.5361
11504SOL    HW135728   4.931   3.777   7.344  0.2287 -0.9505  0.6394
11504SOL    HW235729   4.845   3.691   7.435 -0.6723  1.2645  1.9513
11505SOL     OW35730   4.786   3.094   8.295 -0.0127  0.1338 -0.8688
11505SOL    HW135731   4.866   3.071   8.247 -0.7958 -0.6516 -1.8533
11505SOL    HW235732   4.814   3.102   8.386  1.5183  1.6259 -1.4095
11506SOL     OW35733   4.693   2.869   7.410  0.1265 -0.3459 -0.0780
11506SOL    HW135734   4.606   2.861   7.372 -0.4256 -0.2806  1.1315
11506SOL    HW235735   4.752   2.877   7.334 -1.0164  0.7470 -0.8974
11507SOL     OW35736   5.292   3.368   7.378 -0.4582 -0.1996  0.4126
11507SOL    HW135737   5.241   3.397   7.302  0.5994 -0.2493 -0.3385
11507SOL    HW235738   5.311   3.448   7.427 -1.6155 -0.2305  0.9495
11508SOL     OW35739   5.534   3.280   8.850  0.8301  0.5952 -0.4572
11508SOL    HW135740   5.521   3.370   8.880 -1.4391 -0.1981  1.2194
11508SOL    HW235741   5.450   3.256   8.811  1.3342 -0.8782 -0.6747
11509SOL     OW35742   4.631   2.432   8.204 -0.1042  0.1394  0.1413
11509SOL    HW135743   4.591   2.507   8.160 -0.7852 -0.9373 -1.1459
11509SOL    HW235744   4.710   2.467   8.245  1.3709  0.9684 -3.1078
11510SOL     OW35745   5.149   1.595   8.537  0.0073  0.1550 -0.3387
11510SOL    HW135746   5.106   1.680   8.542  0.1563  0.3712 -2.0897
11510SOL    HW235747   5.153   1.576   8.443  1.6170 -0.9469 -0.0787
11511SOL     OW35748   4.160   3.293   7.712 -0.1681 -0.1429 -0.2237
11511SOL    HW135749   4.183   3.327   7.798 -1.6270  0.1646  0.0756
11511SOL    HW235750   4.195   3.357   7.650  2.2028 -1.1160  0.0171
11512SOL     OW35751   5.985   2.653   8.097  0.0342  0.6200  0.1515
11512SOL    HW135752   6.021   2.658   8.185 -2.6270 -1.2379  1.4512
11512SOL    HW235753   5.890   2.661   8.108 -0.3406  1.6455 -2.7041
11513SOL     OW35754   4.090   3.115   7.518  0.2080  0.2831 -0.0798
11513SOL    HW135755   4.110   3.166   7.597  1.2039 -1.1102  0.6120
11513SOL    HW235756   4.172   3.113   7.469 -0.1810  0.4364 -0.7530
11514SOL     OW35757   4.686   1.624   8.395 -0.8934 -0.4506 -0.5374
11514SOL    HW135758   4.592   1.615   8.380 -0.5800 -3.1383 -1.5955
11514SOL    HW235759   4.699   1.592   8.485 -0.9903 -0.0053 -0.3635
11515SOL     OW35760   3.983   2.359   7.518  0.3269  0.0317  0.2713
11515SOL    HW135761   4.037   2.406   7.454  2.2650 -1.9990  0.3044
11515SOL    HW235762   3.932   2.298   7.465 -0.0884  0.2136  0.4579
11516SOL     OW35763   4.091   1.705   7.437  0.4050 -0.5098 -0.1811
11516SOL    HW135764   4.005   1.684   7.474  0.8290 -3.5856 -0.6801
11516SOL    HW235765   4.071   1.747   7.353 -0.6190 -0.9418 -0.1738
11517SOL     OW35766   4.854   3.544   7.575  0.5816 -0.3780 -0.4021
11517SOL    HW135767   4.875   3.463   7.621  1.5197 -0.6369 -1.2387
11517SOL    HW235768   4.841   3.517   7.484 -1.0447  0.1505 -0.3525
11518SOL     OW35769   5.078   3.001   8.459 -0.4221 -0.0713  0.3534
11518SOL    HW135770   5.170   3.004   8.487 -0.5047 -1.6310  0.8754
11518SOL    HW235771   5.073   3.063   8.386  0.6097  1.4472  1.5029
11519SOL     OW35772   4.954   3.966   8.498 -0.1972  0.2218  0.2028
11519SOL    HW135773   4.999   4.025   8.559  1.4894 -2.6495  1.9407
11519SOL    HW235774   4.904   3.907   8.554  1.1027 -2.2722 -1.0895
11520SOL     OW35775   4.278   3.681   0.008 -0.2152 -0.1414  0.2529
11520SOL    HW135776   4.186   3.683  -0.019  0.1963 -0.4310 -1.2140
11520SOL    HW235777   4.285   3.601   0.061 -0.3699 -1.2451 -1.3347
11521SOL     OW35778   5.360   2.943   8.543  0.6344  0.5699  0.7788
11521SOL    HW135779   5.389   2.853   8.561  0.4837  0.5081  0.7132
11521SOL    HW235780   5.346   2.981   8.630 -1.3600 -0.1383  0.8131
11522SOL     OW35781   5.356   1.979   7.608  1.1438  0.2483 -0.2062
11522SOL    HW135782   5.365   1.889   7.576 -1.3385  0.1686 -0.8687
11522SOL    HW235783   5.445   2.015   7.603  2.2998 -2.2642  0.5098
11523SOL     OW35784   4.633   2.168   8.074  0.2989 -0.2192  0.2383
11523SOL    HW135785   4.612   2.241   8.132  0.0064 -0.2094  0.1208
11523SOL    HW235786   4.626   2.091   8.130 -0.1420 -0.2239  0.1758
11524SOL     OW35787   5.696   3.128   8.677  0.3453  0.2807 -0.1139
11524SOL    HW135788   5.676   3.036   8.697 -1.1862  0.7190  0.4922
11524SOL    HW235789   5.641   3.178   8.737  2.2875  1.6196  0.6254
11525SOL     OW35790   5.068   3.814   7.901  0.6675  0.0709  0.3361
11525SOL    HW135791   5.006   3.759   7.947  0.0841  0.7631  0.3989
11525SOL    HW235792   5.025   3.835   7.818  0.4562  1.2180  0.7177
11526SOL     OW35793   4.350   3.594   7.811  0.3779 -0.1399  0.1239
11526SOL    HW135794   4.404   3.661   7.768  1.2515 -0.3879  0.8079
11526SOL    HW235795   4.396   3.512   7.794 -0.0250 -0.4115  0.3431
11527SOL     OW35796   4.822   2.580   8.339 -0.0270 -0.6059  0.4837
11527SOL    HW135797   4.835   2.668   8.373  0.7015 -0.3774 -0.3526
11527SOL    HW235798   4.878   2.524   8.394 -0.6485 -0.5843  1.1461
11528SOL     OW35799   4.904   2.820   7.219 -0.1565  0.1315 -1.1350
11528SOL    HW135800   4.862   2.856   7.141 -0.8377 -0.1790 -0.9219
11528SOL    HW235801   4.965   2.754   7.185 -0.9113 -0.4557 -1.3799
11529SOL     OW35802   5.430   3.654   8.271  1.0044 -0.0470  0.0005
11529SOL    HW135803   5.448   3.744   8.298 -1.3425  1.4963 -2.9165
11529SOL    HW235804   5.335   3.652   8.257  1.2601 -2.2761 -2.1090
11530SOL     OW35805   4.235   2.548   7.930  0.4335  0.3213 -0.1354
11530SOL    HW135806   4.264   2.466   7.970  1.4856  0.4140 -0.6684
11530SOL    HW235807   4.142   2.536   7.913  0.4548 -0.5328  0.3474
11531SOL     OW35808   5.234   1.959   8.437 -0.6241 -0.3448 -0.1678
11531SOL    HW135809   5.207   1.949   8.346 -0.5414  0.5499 -0.2980
11531SOL    HW235810   5.326   1.931   8.438 -1.0212 -1.6899 -0.0736
11532SOL     OW35811   4.670   1.966   7.799  0.1397  0.1418 -0.2957
11532SOL    HW135812   4.754   2.011   7.795  0.4464 -0.4866 -1.1072
11532SOL    HW235813   4.606   2.037   7.809  0.8658  0.5389  2.6354
11533SOL     OW35814   5.894   3.482   0.090 -0.4081  0.1304 -0.1068
11533SOL    HW135815   5.871   3.423   0.018  0.7936  0.5667 -0.8654
11533SOL    HW235816   5.846   3.563   0.071 -2.1341 -0.5618  0.9840
11534SOL     OW35817   3.968   2.391   8.386 -0.9399 -0.1641 -0.0718
11534SOL    HW135818   3.985   2.474   8.431 -0.4577 -0.0011 -0.5365
11534SOL    HW235819   3.874   2.378   8.393 -0.7175 -1.0144  2.4946
11535SOL     OW35820   4.417   3.331   8.047 -0.3402  0.3215  1.0599
11535SOL    HW135821   4.469   3.409   8.028  1.0660 -0.9951 -0.8999
11535SOL    HW235822   4.440   3.308   8.138 -2.7740  3.5170  2.7067
11536SOL     OW35823   5.183   1.859   8.160  0.2612  0.0763  0.1893
11536SOL    HW135824   5.091   1.833   8.152  0.2436 -0.3701  1.5870
11536SOL    HW235825   5.209   1.883   8.071 -0.9027 -0.8096 -0.4188
11537SOL     OW35826   4.798   1.392   8.355  0.0057 -0.4481 -0.0749
11537SOL    HW135827   4.871   1.410   8.415  0.4396 -0.9272 -0.4595
11537SOL    HW235828   4.756   1.478   8.343 -0.8326 -0.5413  1.8674
11538SOL     OW35829   4.460   3.172   7.780 -0.6593 -0.7554  0.0262
11538SOL    HW135830   4.457   3.211   7.867 -0.1289 -0.9073  0.1198
11538SOL    HW235831   4.522   3.100   7.788  0.3486 -0.0172 -0.7520
11539SOL     OW35832   4.746   3.379   8.270 -0.5330 -0.2660  0.1308
11539SOL    HW135833   4.763   3.293   8.232 -0.0318 -0.1421  0.0669
11539SOL    HW235834   4.657   3.373   8.305  0.5407 -1.8120  2.8736
11540SOL     OW35835   4.732   1.300   7.521 -0.0655  0.3015 -0.2584
11540SOL    HW135836   4.711   1.207   7.529  0.7671  0.1612  0.4785
11540SOL    HW235837   4.650   1.345   7.538 -0.2844 -0.2809  0.2515
11541SOL     OW35838   5.309   2.145   8.024  0.1706 -0.2694  0.2032
11541SOL    HW135839   5.356   2.192   7.955  2.9141 -1.1434  1.3458
11541SOL    HW235840   5.297   2.057   7.987 -0.8427  0.0166 -0.1765
11542SOL     OW35841   5.753   2.558   8.149 -0.4726 -0.1632  0.7033
11542SOL    HW135842   5.760   2.474   8.194  1.0527 -1.9066 -2.4088
11542SOL    HW235843   5.664   2.558   8.113  0.1477 -1.5703 -1.0240
11543SOL     OW35844   3.510   2.889   7.750 -0.9177  0.9058  0.2907
11543SOL    HW135845   3.483   2.973   7.714  0.3071  1.6392  1.0191
11543SOL    HW235846   3.598   2.904   7.784 -0.9065 -0.5136  0.9837
11544SOL     OW35847   4.350   3.538   7.301  0.5718 -0.4287 -0.2651
11544SOL    HW135848   4.439   3.565   7.281  0.2992 -0.2408 -1.2441
11544SOL    HW235849   4.295   3.582   7.236 -0.3214  0.0499  0.7663
11545SOL     OW35850   3.852   4.419   0.039 -0.3104  0.1128  0.0847
11545SOL    HW135851   3.761   4.392   0.053 -0.2832  0.3780  0.8255
11545SOL    HW235852   3.893   4.345  -0.005 -0.1554 -1.1819  2.3033
11546SOL     OW35853   3.676   4.260   1.472 -0.6023  0.5504 -0.2985
11546SOL    HW135854   3.595   4.275   1.521 -0.1319  0.8133  0.4112
11546SOL    HW235855   3.648   4.250   1.381 -1.5620 -0.6347  0.1057
11547SOL     OW35856   3.722   4.177   0.730 -0.0786  0.3588 -0.0556
11547SOL    HW135857   3.657   4.135   0.673  2.0451 -1.5581 -1.2701
11547SOL    HW235858   3.789   4.208   0.669  1.7487 -0.7718  1.3045
11548SOL     OW35859   3.882   5.437   1.205 -0.0586  0.0868 -0.5988
11548SOL    HW135860   3.945   5.477   1.265 -0.0058 -1.1598  0.2028
11548SOL    HW235861   3.825   5.385   1.261 -0.4264 -0.5744 -1.5543
11549SOL     OW35862   5.256   5.377   0.672 -0.2935 -0.4645  0.1331
11549SOL    HW135863   5.189   5.311   0.690 -0.0205 -0.4422  1.3060
11549SOL    HW235864   5.219   5.430   0.602 -1.9816  0.1978  1.4529
11550SOL     OW35865   4.427   4.808   0.526 -0.1755 -0.0682  0.6600
11550SOL    HW135866   4.408   4.730   0.475 -2.1610  0.7239  0.0916
11550SOL    HW235867   4.362   4.807   0.597  0.4383  0.5421  1.2460
11551SOL     OW35868   4.813   4.504   0.194 -0.5780 -0.1155 -0.1320
11551SOL    HW135869   4.851   4.459   0.269  0.2942  0.0329 -0.4648
11551SOL    HW235870   4.761   4.575   0.232  2.4803  2.0768  0.3774
11552SOL     OW35871   4.554   5.235   1.317 -0.1311  0.4195  0.9611
11552SOL    HW135872   4.522   5.159   1.367  2.0105 -0.1941  1.5261
11552SOL    HW235873   4.521   5.311   1.365 -2.4402 -0.1040  0.3061
11553SOL     OW35874   4.015   4.685   1.395  0.2668  0.7110 -0.1127
11553SOL    HW135875   3.955   4.612   1.407 -1.2705  1.8639 -0.3557
11553SOL    HW235876   4.077   4.678   1.468  1.9769 -2.4012 -1.6569
11554SOL     OW35877   4.442   4.320   0.809  0.6545 -0.3434 -0.4824
11554SOL    HW135878   4.391   4.277   0.878 -0.5497  0.2512 -0.9787
11554SOL    HW235879   4.457   4.252   0.744  2.0092 -0.9792  0.4373
11555SOL     OW35880   4.106   4.892   1.632  0.0774  0.2854  0.2315
11555SOL    HW135881   4.200   4.886   1.618  0.4707  1.0447  2.1700
11555SOL    HW235882   4.094   4.868   1.724 -1.6751 -0.1256 -0.0659
11556SOL     OW35883   4.351   5.632   1.401 -0.1411  0.0870 -0.0572
11556SOL    HW135884   4.351   5.571   1.327  0.0459 -0.6906  0.5705
11556SOL    HW235885   4.351   5.718   1.360  3.3598 -0.2425 -1.0825
11557SOL     OW35886   5.121   5.513   1.234 -0.3961 -0.3293 -0.3756
11557SOL    HW135887   5.213   5.488   1.247 -0.1863  1.0302  1.1146
11557SOL    HW235888   5.085   5.518   1.322 -1.5158  0.4813 -0.8548
11558SOL     OW35889   4.347   4.245   1.067 -0.4978  0.1031 -0.1439
11558SOL    HW135890   4.443   4.240   1.074 -0.5552  0.5807  1.3603
11558SOL    HW235891   4.317   4.259   1.157 -2.0958 -1.5809 -0.3487
11559SOL     OW35892   5.301   4.576   0.940  0.9975 -0.3986  0.7812
11559SOL    HW135893   5.278   4.484   0.950  1.7339 -0.3400  3.8648
11559SOL    HW235894   5.276   4.597   0.850 -1.6894 -2.8835  0.8044
11560SOL     OW35895   3.972   4.973   0.824 -0.3116  0.0196 -0.3130
11560SOL    HW135896   3.920   4.906   0.781  0.4281 -0.6747 -0.1587
11560SOL    HW235897   3.941   5.056   0.787 -1.6520 -0.3543 -0.0608
11561SOL     OW35898   4.871   4.974   2.185 -0.4054 -0.8321  0.3134
11561SOL    HW135899   4.849   4.884   2.159 -1.1591 -1.1438  1.9237
11561SOL    HW235900   4.936   5.002   2.121  1.4003 -3.2602  0.9426
11562SOL     OW35901   3.764   5.187   0.548 -0.5674 -0.3746 -0.9185
11562SOL    HW135902   3.685   5.141   0.519 -1.6225  1.7442 -1.6561
11562SOL    HW235903   3.746   5.279   0.528  1.0266  0.5055  1.3328
11563SOL     OW35904   3.825   4.826   0.656 -0.1246  0.6825 -0.1125
11563SOL    HW135905   3.780   4.753   0.698  0.9096  0.6066  0.9220
11563SOL    HW235906   3.765   4.856   0.588  0.0885 -2.2125 -1.7618
11564SOL     OW35907   4.153   5.902   1.192 -0.1105  0.6743  0.2581
11564SOL    HW135908   4.248   5.903   1.203 -0.3023  1.8397  2.2243
11564SOL    HW235909   4.138   5.840   1.120  2.0744  0.0086  0.3030
11565SOL     OW35910   4.177   5.192   0.267  0.3267 -0.3237 -0.4975
11565SOL    HW135911   4.223   5.110   0.252  0.0004 -0.2622 -2.0745
11565SOL    HW235912   4.244   5.260   0.252  0.2526 -0.2761 -0.6153
11566SOL     OW35913   5.040   3.977   1.396  0.3650 -0.4544 -0.4094
11566SOL    HW135914   5.083   4.016   1.472  1.6721  1.6224 -2.0884
11566SOL    HW235915   5.081   3.891   1.388 -0.4452 -1.1032  1.6908
11567SOL     OW35916   3.965   4.118   0.222 -0.4730 -0.0793 -0.1084
11567SOL    HW135917   4.038   4.129   0.284 -0.8024  0.7598  0.1384
11567SOL    HW235918   3.905   4.059   0.266 -0.7301  0.5563  0.4032
11568SOL     OW35919   5.679   5.419   0.497 -0.6506  0.1484 -0.3049
11568SOL    HW135920   5.599   5.376   0.526 -0.1107  0.7370  2.3304
11568SOL    HW235921   5.664   5.512   0.514  0.1665  0.4086 -0.9195
11569SOL     OW35922   3.761   4.904   8.639  0.2626 -0.0002 -0.2468
11569SOL    HW135923   3.825   4.952   8.692  0.0336  1.2962 -1.1107
11569SOL    HW235924   3.806   4.888   8.556 -0.5340  0.9519 -0.8761
11570SOL     OW35925   5.224   4.986   0.758 -0.2143 -0.2692 -0.7609
11570SOL    HW135926   5.200   4.917   0.696 -2.0469 -0.2033 -0.1855
11570SOL    HW235927   5.209   5.068   0.711 -0.5729 -0.2302 -0.5789
11571SOL     OW35928   5.402   4.837   0.550 -0.1441 -0.0400 -0.5113
11571SOL    HW135929   5.418   4.869   0.461 -0.8785  0.1559 -0.5779
11571SOL    HW235930   5.459   4.890   0.606  0.8014 -0.5895 -0.9176
11572SOL     OW35931   3.534   4.393   1.256 -0.2081  0.0716 -0.0784
11572SOL    HW135932   3.565   4.423   1.170 -0.6082  0.2260 -0.1719
11572SOL    HW235933   3.446   4.361   1.239 -0.8360  1.3913  0.5172
11573SOL     OW35934   4.345   4.537   0.951  0.4468 -0.1034  0.0550
11573SOL    HW135935   4.349   4.525   1.046 -2.3081  0.8533  0.3893
11573SOL    HW235936   4.401   4.469   0.916  0.0481 -1.7416  2.3311
11574SOL     OW35937   5.253   5.140   1.590  0.1810 -0.1166  0.2632
11574SOL    HW135938   5.222   5.145   1.681  0.3038  0.9281  0.2577
11574SOL    HW235939   5.173   5.142   1.538  0.1393 -0.1178  0.3263
11575SOL     OW35940   4.544   3.745   0.205  0.4881  0.4152 -0.8041
11575SOL    HW135941   4.486   3.671   0.219 -1.0310  1.3154 -2.0319
11575SOL    HW235942   4.501   3.796   0.137  2.8315  1.0240 -1.9179
11576SOL     OW35943   3.365   4.737   1.210 -0.0464 -0.3585 -0.0493
11576SOL    HW135944   3.415   4.785   1.144  0.1634  0.0057  0.3784
11576SOL    HW235945   3.322   4.805   1.262 -0.6081 -0.6564 -0.1156
11577SOL     OW35946   5.201   5.179   0.407  0.9168 -0.3626 -0.1544
11577SOL    HW135947   5.188   5.260   0.359  1.6253  0.6945  1.3378
11577SOL    HW235948   5.113   5.149   0.428  0.6503  0.2306 -0.3916
11578SOL     OW35949   4.687   5.753   1.638  0.7484 -0.3618 -0.1925
11578SOL    HW135950   4.724   5.800   1.713  1.5723  1.2429 -1.5499
11578SOL    HW235951   4.763   5.714   1.594  0.8634  2.0273 -2.3730
11579SOL     OW35952   5.049   5.213   0.699 -0.0535 -0.4377  0.4975
11579SOL    HW135953   4.981   5.221   0.765 -0.4309 -1.0770  0.1915
11579SOL    HW235954   5.009   5.162   0.628  1.3618 -2.6356  1.1735
11580SOL     OW35955   5.891   5.699   0.657 -0.4055  0.1920 -0.1739
11580SOL    HW135956   5.821   5.708   0.593  0.1657  2.3382 -0.5770
11580SOL    HW235957   5.854   5.642   0.725 -1.4115 -1.2143 -1.8076
11581SOL     OW35958   4.262   4.340   0.094 -0.2314 -0.2873 -0.1957
11581SOL    HW135959   4.225   4.427   0.076 -1.3383 -0.9374 -1.2492
11581SOL    HW235960   4.355   4.357   0.110 -0.2974  1.0278 -1.0098
11582SOL     OW35961   4.783   4.060   1.292  0.4583  0.4142  0.0106
11582SOL    HW135962   4.875   4.046   1.314  0.2278  0.4962  1.0919
11582SOL    HW235963   4.743   3.973   1.303  0.0889  0.7202  1.2688
11583SOL     OW35964   5.711   5.665   0.074  0.0116 -0.1562 -0.2421
11583SOL    HW135965   5.770   5.651   0.149  2.4031  1.0838 -1.7856
11583SOL    HW235966   5.706   5.579   0.031  3.2790  0.2936 -1.7879
11584SOL     OW35967   4.369   4.186   1.619 -0.2533  0.2639  0.3458
11584SOL    HW135968   4.454   4.212   1.585 -0.3614 -0.4853 -0.5335
11584SOL    HW235969   4.386   4.108   1.671 -0.5647 -0.6196 -0.8573
11585SOL     OW35970   5.138   4.214   1.866 -0.0039  0.2471 -0.0532
11585SOL    HW135971   5.118   4.270   1.941 -1.3022 -0.7077  0.3672
11585SOL    HW235972   5.100   4.129   1.890 -2.7019  0.5127 -2.7629
11586SOL     OW35973   4.595   4.699   1.475 -0.0923 -0.1198 -0.1815
11586SOL    HW135974   4.549   4.738   1.550 -0.5618  0.0711 -0.5612
11586SOL    HW235975   4.567   4.607   1.477  1.9657 -0.7792  1.4402
11587SOL     OW35976   4.911   3.716   1.211 -0.2202  0.7868 -0.4594
11587SOL    HW135977   4.863   3.638   1.180 -0.4650  1.1511 -1.0185
11587SOL    HW235978   4.843   3.772   1.248  0.1171  0.1874  1.1513
11588SOL     OW35979   5.109   4.588   0.465  0.1651  0.0899 -0.0929
11588SOL    HW135980   5.055   4.667   0.464  0.4952  0.3413  0.9638
11588SOL    HW235981   5.171   4.600   0.394  0.8583  1.2535  0.6774
11589SOL     OW35982   4.250   4.751   0.739 -0.1102 -0.0178 -0.0568
11589SOL    HW135983   4.211   4.825   0.785  2.3450  1.1247  0.3853
11589SOL    HW235984   4.283   4.694   0.809  0.0720 -0.3455 -0.4041
11590SOL     OW35985   3.844   6.093   1.693 -0.3237 -0.4713  0.0862
11590SOL    HW135986   3.790   6.014   1.695 -1.5656  0.3508  0.1973
11590SOL    HW235987   3.808   6.148   1.762  1.0926 -0.1496  0.6047
11591SOL     OW35988   4.450   4.140   0.315 -0.1531  0.2293  1.0244
11591SOL    HW135989   4.354   4.139   0.324 -0.3461  1.7888 -0.3226
11591SOL    HW235990   4.466   4.117   0.224  0.5700  2.2012  0.5914
11592SOL     OW35991   5.202   4.689   2.230 -0.5200  0.0481 -0.1433
11592SOL    HW135992   5.138   4.620   2.249 -1.9893  1.7142  1.4348
11592SOL    HW235993   5.229   4.721   2.317  0.8896  0.7826 -0.8240
11593SOL     OW35994   4.783   5.444   0.461  0.4208  0.3511  0.4484
11593SOL    HW135995   4.709   5.438   0.521  0.5411 -0.5237  0.5206
11593SOL    HW235996   4.808   5.536   0.463 -0.7015  0.6688  0.3696
11594SOL     OW35997   3.873   4.555   0.815  0.1389 -0.1443 -0.0824
11594SOL    HW135998   3.889   4.546   0.909  0.4123 -1.8071 -0.2552
11594SOL    HW235999   3.943   4.505   0.774 -0.5872 -0.3315 -1.1399
11595SOL     OW36000   4.826   5.719   0.511 -0.2123  0.2396  0.2089
11595SOL    HW136001   4.874   5.776   0.572  0.6714 -0.7345  0.4573
11595SOL    HW236002   4.735   5.747   0.519  0.1648  1.4316  0.5197
11596SOL     OW36003   4.420   5.678   0.529  0.3791 -0.0732 -0.5987
11596SOL    HW136004   4.509   5.646   0.548  0.9321 -0.1317 -2.9323
11596SOL    HW236005   4.365   5.600   0.537  0.9219 -0.5507 -1.3129
11597SOL     OW36006   5.593   4.587   0.966  0.2141 -0.4955  0.3180
11597SOL    HW136007   5.499   4.601   0.980 -0.2175 -2.3701 -0.3224
11597SOL    HW236008   5.636   4.652   1.022 -1.4488  0.7767  0.2116
11598SOL     OW36009   5.303   5.583   1.461  0.5552 -0.3232 -0.0834
11598SOL    HW136010   5.224   5.632   1.483  0.3535  0.0814 -1.5767
11598SOL    HW236011   5.300   5.506   1.516 -1.4080 -0.8061 -0.7943
11599SOL     OW36012   4.146   4.408   0.404 -0.0768  0.1003  0.0428
11599SOL    HW136013   4.188   4.485   0.367 -0.2465 -0.0999 -0.5848
11599SOL    HW236014   4.061   4.404   0.360 -1.1318  0.9669  1.8663
11600SOL     OW36015   4.699   4.622   0.652  0.0808 -0.1668 -0.1737
11600SOL    HW136016   4.681   4.658   0.738 -1.8553  0.8421 -0.9483
11600SOL    HW236017   4.613   4.600   0.616  0.7951 -0.0632 -2.0536
11601SOL     OW36018   4.166   5.238   1.584 -0.1799 -0.3539 -0.0125
11601SOL    HW136019   4.192   5.327   1.561  2.6330 -0.5958  1.6975
11601SOL    HW236020   4.214   5.183   1.523 -0.8992 -0.7415 -0.2390
11602SOL     OW36021   4.665   5.845   0.268 -0.0799 -0.1409 -0.6081
11602SOL    HW136022   4.745   5.804   0.234  0.6912  1.5382 -0.8894
11602SOL    HW236023   4.688   5.874   0.356 -0.9064 -1.0797 -0.0574
11603SOL     OW36024   5.460   5.246   0.510 -0.0872  0.1046  0.2144
11603SOL    HW136025   5.398   5.231   0.439 -0.1697 -1.4443  0.5760
11603SOL    HW236026   5.405   5.262   0.587  0.0014  1.6500 -0.0065
11604SOL     OW36027   4.212   5.347   0.888 -0.3190  0.1347  0.3873
11604SOL    HW136028   4.292   5.329   0.937  1.0377  0.8660 -1.4316
11604SOL    HW236029   4.213   5.286   0.815 -1.5895 -0.0312  0.4767
11605SOL     OW36030   4.807   3.621   0.787 -0.2025 -0.2045  0.0187
11605SOL    HW136031   4.861   3.581   0.719  0.0134  0.7995 -0.4237
11605SOL    HW236032   4.719   3.623   0.750  0.0959  1.2736 -0.6845
11606SOL     OW36033   3.441   5.475   1.729  0.1105 -0.9847  0.1035
11606SOL    HW136034   3.535   5.494   1.726  0.5164 -2.6133  1.0083
11606SOL    HW236035   3.432   5.410   1.799 -1.9270  0.3079  1.1370
11607SOL     OW36036   5.030   5.181   1.401  0.0318 -0.1342  0.0120
11607SOL    HW136037   5.066   5.205   1.315 -0.9155 -0.6067 -0.5291
11607SOL    HW236038   4.955   5.125   1.381 -0.5322  0.1886  1.1364
11608SOL     OW36039   4.061   4.111   0.663  0.7571  0.0921  0.5941
11608SOL    HW136040   4.138   4.112   0.719  0.9014  1.2267  0.4084
11608SOL    HW236041   3.994   4.066   0.714  1.4912 -0.7868  0.8100
11609SOL     OW36042   5.429   3.897   1.849  0.2735 -0.4039  0.0833
11609SOL    HW136043   5.350   3.852   1.821  0.1552  0.0685 -0.3576
11609SOL    HW236044   5.398   3.974   1.896  0.3560  1.6072 -2.8571
11610SOL     OW36045   4.569   3.873   1.670 -0.1741  0.3067  0.1240
11610SOL    HW136046   4.574   3.782   1.640  0.9234  0.8119 -1.2769
11610SOL    HW236047   4.659   3.898   1.688 -0.4631  1.1620  0.4432
11611SOL     OW36048   4.396   5.081   1.536 -0.2620 -0.7227 -0.2358
11611SOL    HW136049   4.403   4.986   1.550  3.2519 -0.4731  0.7121
11611SOL    HW236050   4.420   5.119   1.620  1.9704  0.9499 -1.5265
11612SOL     OW36051   5.068   4.430   1.253  0.3184 -0.0384  0.4657
11612SOL    HW136052   5.025   4.510   1.284  2.5828  1.7524 -0.6414
11612SOL    HW236053   5.002   4.386   1.199 -0.1888  2.6576 -1.3165
11613SOL     OW36054   4.855   5.367   1.164  0.4205 -0.4914  0.0999
11613SOL    HW136055   4.949   5.351   1.172  0.5234 -0.1157 -0.3542
11613SOL    HW236056   4.816   5.280   1.177  0.7745 -0.5290  1.0618
11614SOL     OW36057   4.641   5.145   0.843 -0.1445 -0.1224  0.2980
11614SOL    HW136058   4.726   5.111   0.872  0.2702 -0.2989 -1.0717
11614SOL    HW236059   4.580   5.117   0.911  0.8042 -0.3808  1.0788
11615SOL     OW36060   4.610   4.327   0.428  0.4531 -0.0794 -0.7175
11615SOL    HW136061   4.688   4.316   0.373  1.4719 -1.0771  0.8456
11615SOL    HW236062   4.548   4.262   0.395  0.6323  0.0939 -1.4003
11616SOL     OW36063   5.171   5.066   0.010 -0.4086  0.0445 -0.2834
11616SOL    HW136064   5.250   5.013   0.012  0.5752  1.4284 -0.4790
11616SOL    HW236065   5.160   5.089  -0.082 -0.9930 -0.0607 -0.2441
11617SOL     OW36066   4.575   3.691   0.635  0.5698 -0.0105  0.1265
11617SOL    HW136067   4.603   3.781   0.618  0.8143  0.2756  1.8817
11617SOL    HW236068   4.589   3.646   0.552  2.6017  1.0409 -0.1853
11618SOL     OW36069   4.550   4.619   1.762  0.5548 -0.7772  0.3928
11618SOL    HW136070   4.564   4.655   1.850 -0.5478  1.4502 -0.2782
11618SOL    HW236071   4.475   4.560   1.772  0.1273 -0.1693  0.8650
11619SOL     OW36072   5.652   5.817   0.858 -0.2653  0.7438  0.3490
11619SOL    HW136073   5.639   5.891   0.799 -3.0588  0.5628  0.6099
11619SOL    HW236074   5.576   5.761   0.844  1.2153 -1.5928  0.9288
11620SOL     OW36075   4.040   4.389   0.659 -0.4451  0.1444 -0.0163
11620SOL    HW136076   4.054   4.294   0.656  0.5036  0.1882  1.4422
11620SOL    HW236077   4.067   4.420   0.573 -0.5534 -0.8852 -0.4394
11621SOL     OW36078   5.302   5.657   0.376 -0.8826  0.3029 -0.1405
11621SOL    HW136079   5.359   5.646   0.300  0.1638 -1.3652  0.8459
11621SOL    HW236080   5.238   5.586   0.369 -0.2059 -0.4527  1.0014
11622SOL     OW36081   4.523   4.365   0.075  0.0203 -0.1239 -0.8836
11622SOL    HW136082   4.533   4.279   0.114  1.0146 -0.9628 -2.8473
11622SOL    HW236083   4.594   4.371   0.011  0.7819  2.6665  0.0453
11623SOL     OW36084   3.786   4.515   1.416  0.2249  0.2215 -0.2992
11623SOL    HW136085   3.720   4.511   1.347 -0.1414 -1.1442  0.0940
11623SOL    HW236086   3.771   4.436   1.468  0.4737  1.2264  1.3736
11624SOL     OW36087   4.285   3.881   1.007  0.1674  0.1506  0.2813
11624SOL    HW136088   4.375   3.892   1.039  0.5072  1.7636 -1.0955
11624SOL    HW236089   4.230   3.909   1.080  0.8229  0.5695  0.6227
11625SOL     OW36090   4.708   4.551   1.233  0.0823 -0.1287 -0.0179
11625SOL    HW136091   4.647   4.504   1.289 -0.2922  0.4785  0.0950
11625SOL    HW236092   4.753   4.482   1.184  0.1828 -0.6466  0.7802
11626SOL     OW36093   4.431   3.634   0.877 -0.2360 -0.4290  0.6383
11626SOL    HW136094   4.459   3.655   0.788 -0.3512  0.7132  0.8582
11626SOL    HW236095   4.347   3.590   0.866 -1.0395  1.1341  0.2395
11627SOL     OW36096   4.933   4.743   0.595  0.5089 -0.2866 -0.2149
11627SOL    HW136097   4.858   4.684   0.600  1.5285 -1.6051 -0.1137
11627SOL    HW236098   4.933   4.788   0.680 -0.6703  0.4147 -0.5477
11628SOL     OW36099   4.738   4.710   0.912 -0.1480  0.4744 -0.5457
11628SOL    HW136100   4.660   4.657   0.929  0.9820 -0.8742  0.7275
11628SOL    HW236101   4.726   4.790   0.963 -1.6879  1.3437 -2.1658
11629SOL     OW36102   5.399   4.634   1.206  0.3698 -0.3301  0.2478
11629SOL    HW136103   5.355   4.644   1.121  1.5037 -1.5345 -0.5181
11629SOL    HW236104   5.359   4.556   1.245  0.8282 -0.6015  0.1810
11630SOL     OW36105   4.038   5.116   0.518  0.6698  0.3268  0.2932
11630SOL    HW136106   3.946   5.135   0.539  0.0884 -0.7712 -1.0692
11630SOL    HW236107   4.037   5.100   0.423  2.6439  2.3553 -0.1365
11631SOL     OW36108   5.762   5.187   0.762 -0.1316 -0.2429  0.9712
11631SOL    HW136109   5.775   5.275   0.728  1.8412 -1.3061 -1.2694
11631SOL    HW236110   5.729   5.200   0.851  0.1659  2.7259  0.7296
11632SOL     OW36111   4.327   4.952   0.208 -0.1446 -0.2159 -0.3345
11632SOL    HW136112   4.350   4.950   0.115 -0.0853  2.0530 -0.4115
11632SOL    HW236113   4.411   4.954   0.254 -0.1731 -1.3868 -0.1973
11633SOL     OW36114   4.888   3.997   0.805  0.0741  0.0017  0.5779
11633SOL    HW136115   4.864   3.934   0.873  1.8623 -0.8450  0.4970
11633SOL    HW236116   4.806   4.018   0.761 -1.2125  0.8563  3.2076
11634SOL     OW36117   5.154   5.185   1.838  0.1163 -0.3190 -0.6252
11634SOL    HW136118   5.179   5.103   1.880  1.5898 -0.1218 -1.0773
11634SOL    HW236119   5.104   5.231   1.905 -0.8296 -1.6076 -0.3965
11635SOL     OW36120   4.787   5.107   1.257 -0.5560 -0.3328 -0.4890
11635SOL    HW136121   4.782   5.014   1.237 -1.7448 -0.2751 -0.5528
11635SOL    HW236122   4.697   5.131   1.280  0.0718  0.3872  1.4040
11636SOL     OW36123   5.492   5.773   1.617 -0.0601  0.4744  0.2065
11636SOL    HW136124   5.430   5.731   1.676  0.5250 -1.4727 -0.5087
11636SOL    HW236125   5.539   5.701   1.575 -0.2397  1.7753 -2.4172
11637SOL     OW36126   4.909   5.128   0.922  0.4463 -0.3478  0.0885
11637SOL    HW136127   4.999   5.095   0.916  0.7317  0.3275  0.5409
11637SOL    HW236128   4.875   5.091   1.004 -0.3430 -2.1164 -0.9686
11638SOL     OW36129   5.669   4.845   1.078  0.2468  0.1728 -0.0554
11638SOL    HW136130   5.741   4.841   1.142  0.4725 -0.2315 -0.3296
11638SOL    HW236131   5.666   4.937   1.051  0.8467  0.1450 -0.2434
11639SOL     OW36132   4.624   4.155   1.494  0.1638 -0.2579 -0.1573
11639SOL    HW136133   4.688   4.155   1.566 -0.6068 -0.5777  0.5518
11639SOL    HW236134   4.666   4.107   1.423  0.6871 -0.5201  0.3266
11640SOL     OW36135   5.023   4.853   1.801  0.0669 -0.4162  0.2450
11640SOL    HW136136   5.063   4.773   1.768 -0.1868 -1.0239  1.3417
11640SOL    HW236137   5.072   4.873   1.881 -0.2297  0.2094  0.2756
11641SOL     OW36138   4.688   4.915   0.499  0.1599  0.3659 -0.1578
11641SOL    HW136139   4.596   4.887   0.494  0.3724 -0.3229 -0.3297
11641SOL    HW236140   4.735   4.836   0.526  0.8328  0.4417 -1.0714
11642SOL     OW36141   3.515   4.758   0.949 -0.0344  0.0916 -0.1706
11642SOL    HW136142   3.506   4.663   0.936  0.3271  0.1494 -0.9172
11642SOL    HW236143   3.505   4.795   0.861  0.0522  0.7282  0.0822
11643SOL     OW36144   5.529   4.353   1.303  0.1216  0.2244 -0.3977
11643SOL    HW136145   5.593   4.423   1.293 -0.8419  1.2523  0.4559
11643SOL    HW236146   5.486   4.347   1.218  0.3238  0.5511 -0.5235
11644SOL     OW36147   3.729   5.506   1.651 -0.2440  0.1983  0.0210
11644SOL    HW136148   3.720   5.437   1.586 -0.9518 -0.0710  0.4026
11644SOL    HW236149   3.792   5.472   1.714  0.3188  0.3931 -0.4269
11645SOL     OW36150   4.224   5.121   0.698 -0.3426 -0.2111 -0.2384
11645SOL    HW136151   4.160   5.110   0.628 -0.1696  0.0383 -0.4358
11645SOL    HW236152   4.194   5.062   0.767  0.0047 -1.1752 -0.8872
11646SOL     OW36153   4.285   4.096   0.842  0.4622 -0.4891  0.1205
11646SOL    HW136154   4.277   4.011   0.885 -1.6032 -0.4243 -0.0696
11646SOL    HW236155   4.275   4.160   0.913  0.5978 -0.3974  0.0582
11647SOL     OW36156   5.082   5.489   0.490 -0.9550  0.0339  0.4115
11647SOL    HW136157   5.021   5.439   0.544 -1.4409 -0.2749 -0.4208
11647SOL    HW236158   5.062   5.464   0.400  0.2388  0.1108  0.1063
11648SOL     OW36159   5.418   5.168   0.952  0.2707 -0.6488  0.1905
11648SOL    HW136160   5.370   5.103   0.900  0.4504 -0.7905  0.1992
11648SOL    HW236161   5.368   5.248   0.943  0.4398 -0.6017 -0.4208
11649SOL     OW36162   4.976   4.414   0.669  0.3076  0.2743  0.8397
11649SOL    HW136163   4.932   4.454   0.744 -0.9357  1.5148 -0.4849
11649SOL    HW236164   5.022   4.487   0.627  1.5919 -0.5440  0.7799
11650SOL     OW36165   4.163   5.519   1.537 -0.5376 -0.0467 -0.0522
11650SOL    HW136166   4.229   5.564   1.484  0.4273  0.4235  1.4689
11650SOL    HW236167   4.081   5.565   1.517  0.2790  1.9305  0.8222
11651SOL     OW36168   3.833   4.908   1.463 -0.4593 -0.0787  0.2058
11651SOL    HW136169   3.898   4.837   1.465  0.1280  0.3740 -1.4677
11651SOL    HW236170   3.783   4.894   1.383 -0.4795  1.2469 -0.0474
11652SOL     OW36171   5.376   4.129   1.970 -0.7178 -0.0589 -0.0223
11652SOL    HW136172   5.302   4.187   1.950 -0.5444  0.6333  1.2581
11652SOL    HW236173   5.399   4.150   2.060 -0.5584 -2.0503  0.4368
11653SOL     OW36174   4.343   4.079   1.326 -0.3548  0.4543  0.5748
11653SOL    HW136175   4.338   4.036   1.411 -0.5155  0.8373  0.7619
11653SOL    HW236176   4.324   4.171   1.344  2.0242  1.0355  0.5286
11654SOL     OW36177   4.573   4.924   1.041  1.1620 -0.1007  0.2507
11654SOL    HW136178   4.489   4.886   1.065  0.8242 -0.3109 -1.1820
11654SOL    HW236179   4.626   4.919   1.121 -0.5163  1.0132  1.5011
11655SOL     OW36180   4.894   4.305   0.408  0.7792 -0.2853 -0.3358
11655SOL    HW136181   4.941   4.233   0.366  0.7040  0.0506 -1.0194
11655SOL    HW236182   4.949   4.331   0.481  1.1678 -0.5522 -0.5301
11656SOL     OW36183   4.504   3.943   1.142 -0.1267  0.5685  0.4037
11656SOL    HW136184   4.452   4.007   1.190  0.0808  0.0892  1.2852
11656SOL    HW236185   4.572   3.994   1.099 -0.1123  0.9718  0.9019
11657SOL     OW36186   3.476   5.752   1.882 -0.2566  0.2829  0.1918
11657SOL    HW136187   3.522   5.692   1.940  0.5159 -0.2252 -0.9217
11657SOL    HW236188   3.503   5.726   1.794  0.8499  2.8198 -0.3182
11658SOL     OW36189   4.621   3.978   0.762  0.8347  0.1939  0.6359
11658SOL    HW136190   4.528   3.992   0.743  0.9549 -0.2389 -0.3567
11658SOL    HW236191   4.621   3.923   0.840  0.1142 -2.7356 -1.2382
11659SOL     OW36192   5.407   4.630   2.025  0.6248  0.0217 -0.5941
11659SOL    HW136193   5.349   4.618   2.100  1.2264  0.9485  0.0523
11659SOL    HW236194   5.486   4.581   2.048  0.3367 -0.7573 -1.2128
11660SOL     OW36195   3.755   3.712   0.453 -0.1686  0.4193  0.1671
11660SOL    HW136196   3.850   3.700   0.462 -0.1136  1.1540  0.7487
11660SOL    HW236197   3.719   3.624   0.450  0.5830  0.1285 -0.6663
11661SOL     OW36198   5.150   4.109   0.316 -0.8336 -0.1553 -0.2479
11661SOL    HW136199   5.173   4.089   0.225 -2.5979  0.2580 -0.8280
11661SOL    HW236200   5.183   4.197   0.330  0.8757 -0.8018  0.0799
11662SOL     OW36201   4.346   5.571   1.130 -0.0778  0.0118  0.4800
11662SOL    HW136202   4.434   5.600   1.102 -0.1279  0.6862  0.9871
11662SOL    HW236203   4.346   5.477   1.114  0.3151  0.1781 -0.6659
11663SOL     OW36204   4.798   5.298   1.791  0.3687 -0.2520  0.7478
11663SOL    HW136205   4.839   5.212   1.795  0.8702 -0.0390  0.1468
11663SOL    HW236206   4.705   5.280   1.806  0.6541 -0.7310  2.1283
11664SOL     OW36207   5.451   5.549   1.790 -0.3862  0.1833  0.2239
11664SOL    HW136208   5.383   5.496   1.750 -0.4335 -0.4592  1.1173
11664SOL    HW236209   5.521   5.487   1.810 -0.3226  0.4886  1.0149
11665SOL     OW36210   5.257   3.896   0.000  0.4969 -0.1962  0.1064
11665SOL    HW136211   5.196   3.823   0.003  0.9725 -0.5901  0.5451
11665SOL    HW236212   5.339   3.860   0.035  0.8534  0.4344 -0.0589
11666SOL     OW36213   4.806   4.701   8.831 -0.6140 -0.2200 -0.2341
11666SOL    HW136214   4.787   4.651   8.751  0.4489  0.0244 -0.6539
11666SOL    HW236215   4.818   4.634   8.899  0.3074 -0.5315 -0.6853
11667SOL     OW36216   5.234   5.378   0.957 -0.2327 -0.4049  0.2442
11667SOL    HW136217   5.241   5.418   0.870  0.3264 -0.0927  0.4253
11667SOL    HW236218   5.292   5.430   1.012 -0.6630 -0.5362  0.8322
11668SOL     OW36219   4.260   4.349   1.302 -0.2992  0.6593  0.1414
11668SOL    HW136220   4.168   4.350   1.277 -1.0082  2.3913  2.5084
11668SOL    HW236221   4.287   4.441   1.299  1.4523  0.1660 -0.7157
11669SOL     OW36222   3.643   4.447   1.005 -0.4425 -0.3625  0.5540
11669SOL    HW136223   3.596   4.431   0.924  1.4964  0.6949 -0.8566
11669SOL    HW236224   3.699   4.370   1.016 -0.7950 -0.5657  1.0020
11670SOL     OW36225   5.105   4.578   1.755  0.8612  0.2132 -0.5580
11670SOL    HW136226   5.013   4.581   1.729  1.1114  2.0743 -1.3274
11670SOL    HW236227   5.113   4.495   1.802 -1.6358  0.8486  1.1753
11671SOL     OW36228   4.825   3.925   1.732  0.3757 -0.0083 -0.9351
11671SOL    HW136229   4.871   3.879   1.802  0.0492  0.9441 -0.0712
11671SOL    HW236230   4.844   4.018   1.748 -1.0218  0.3345 -1.1452
11672SOL     OW36231   3.719   5.281   1.438 -0.3027 -0.1905  0.2901
11672SOL    HW136232   3.656   5.210   1.425 -0.0244 -0.1213 -1.6849
11672SOL    HW236233   3.784   5.245   1.498 -0.1875 -1.5966 -0.6416
11673SOL     OW36234   4.745   5.929   0.989  0.2663  0.6851 -0.0588
11673SOL    HW136235   4.693   6.005   1.012  0.5405  1.1955 -1.0925
11673SOL    HW236236   4.829   5.943   1.035  0.2679  0.9412 -0.1380
11674SOL     OW36237   4.556   4.374   1.375 -0.5508 -0.1361  0.1558
11674SOL    HW136238   4.463   4.353   1.374 -0.3695 -0.9359 -0.4186
11674SOL    HW236239   4.598   4.297   1.412 -0.1849  0.5783  1.3123
11675SOL     OW36240   3.958   4.674   1.073  0.0083 -0.4357 -0.2236
11675SOL    HW136241   3.990   4.689   0.984  3.4083 -0.6584  0.8358
11675SOL    HW236242   3.927   4.759   1.102 -0.2953 -0.1679 -1.2722
11676SOL     OW36243   5.550   4.363   1.586  0.3295 -0.4278 -0.4204
11676SOL    HW136244   5.468   4.403   1.615  1.2462  2.0213 -1.0248
11676SOL    HW236245   5.540   4.355   1.491  0.3821 -1.1856 -0.3713
11677SOL     OW36246   4.633   3.916   0.426  0.1077 -0.3934  0.5992
11677SOL    HW136247   4.574   3.990   0.408  0.5992 -0.2712 -0.6517
11677SOL    HW236248   4.615   3.854   0.355  1.5058 -0.3154  0.1426
11678SOL     OW36249   5.099   4.697   1.113  0.6167 -0.3416 -0.3493
11678SOL    HW136250   5.163   4.628   1.132  0.1831 -0.6677 -0.0436
11678SOL    HW236251   5.042   4.698   1.190 -0.7729 -1.2405 -1.3177
11679SOL     OW36252   4.351   4.763   1.616 -0.2483  0.2887  0.6607
11679SOL    HW136253   4.393   4.747   1.701  1.2269  2.5436  0.4287
11679SOL    HW236254   4.309   4.680   1.595  2.0773 -1.3704  2.0636
11680SOL     OW36255   4.728   3.818   0.988 -0.5240 -0.3940 -0.6393
11680SOL    HW136256   4.764   3.737   0.952 -0.0154 -0.7744  0.6805
11680SOL    HW236257   4.669   3.789   1.057 -2.0584  0.2994 -1.6190
11681SOL     OW36258   4.882   5.920   1.382 -0.3009  0.3041 -0.5462
11681SOL    HW136259   4.795   5.948   1.411 -0.8460 -0.8658 -0.9974
11681SOL    HW236260   4.894   5.834   1.423  1.6806  1.4284  1.5110
11682SOL     OW36261   4.018   3.822   0.009  0.0527  0.2971 -0.2072
11682SOL    HW136262   3.971   3.739   0.013 -0.0596  0.3741  0.1105
11682SOL    HW236263   3.978   3.869  -0.064  1.0519 -0.4852 -1.2945
11683SOL     OW36264   3.923   4.910   1.156  0.2457 -0.1082 -0.2980
11683SOL    HW136265   3.835   4.911   1.194 -0.5112 -0.7655 -1.9547
11683SOL    HW236266   3.941   5.002   1.136 -0.0478  0.0268  0.0342
11684SOL     OW36267   5.125   4.965   1.027 -0.0660  0.2771  0.6054
11684SOL    HW136268   5.179   4.927   0.957 -0.2808  0.3268  0.4104
11684SOL    HW236269   5.090   4.889   1.074 -0.5445  0.2297  0.1780
11685SOL     OW36270   4.620   4.623   0.315 -0.4413  0.1236  0.5864
11685SOL    HW136271   4.572   4.565   0.257  0.0852  0.7223 -0.4836
11685SOL    HW236272   4.583   4.607   0.402 -1.9419 -0.0776 -0.0596
11686SOL     OW36273   5.127   5.210   1.165  0.1912 -0.0829 -0.2712
11686SOL    HW136274   5.134   5.142   1.097  0.0696  0.9170 -1.3144
11686SOL    HW236275   5.163   5.289   1.123 -0.5341  0.7246  0.5943
11687SOL     OW36276   5.362   5.716   0.900  0.2659 -0.2076 -0.6326
11687SOL    HW136277   5.351   5.753   0.987  0.3401 -1.1405 -0.2175
11687SOL    HW236278   5.273   5.700   0.869  0.2178  0.7221 -1.0008
11688SOL     OW36279   3.507   5.129   1.314 -0.4802 -0.7862 -1.2221
11688SOL    HW136280   3.549   5.063   1.259 -0.0449 -1.5542 -0.0227
11688SOL    HW236281   3.456   5.078   1.377 -0.5638  0.0381 -0.6003
11689SOL     OW36282   4.318   4.961   2.412  0.0116 -0.1798 -0.0999
11689SOL    HW136283   4.404   4.943   2.450  0.1355 -2.9990 -1.4099
11689SOL    HW236284   4.285   4.874   2.388 -1.8216  1.0868 -2.5402
11690SOL     OW36285   4.337   4.191   8.731  0.2119  1.0053  0.1559
11690SOL    HW136286   4.308   4.247   8.803 -1.1277  0.1636  0.2895
11690SOL    HW236287   4.295   4.227   8.654 -0.8892  0.0466  0.2837
11691SOL     OW36288   5.022   5.425   0.223  0.1457 -0.2246  0.6107
11691SOL    HW136289   4.951   5.379   0.180  0.2244  0.3285 -0.1203
11691SOL    HW236290   5.099   5.407   0.169  0.8776 -1.9574  2.1352
11692SOL     OW36291   3.273   5.889   2.105 -0.2519 -0.0299 -0.1474
11692SOL    HW136292   3.232   5.888   2.018 -1.6775  0.5856  0.4701
11692SOL    HW236293   3.364   5.864   2.090 -0.6755 -0.7460 -1.7010
11693SOL     OW36294   4.786   5.400   0.824  0.3823 -0.4485 -0.1742
11693SOL    HW136295   4.741   5.317   0.809 -0.6677  0.1616 -0.5665
11693SOL    HW236296   4.818   5.394   0.914 -1.3540 -0.5428  0.4709
11694SOL     OW36297   4.427   4.891   1.285  0.7440 -0.0516  0.6544
11694SOL    HW136298   4.337   4.902   1.317 -0.2174 -0.0332 -1.8302
11694SOL    HW236299   4.452   4.803   1.315  0.3099  0.3152  2.1986
11695SOL     OW36300   4.800   5.341   0.084 -0.0271 -0.0671 -0.5016
11695SOL    HW136301   4.718   5.383   0.111 -0.9030 -2.1661  0.3319
11695SOL    HW236302   4.772   5.263   0.036  1.4534 -1.3036  0.5544
11696SOL     OW36303   5.148   5.791   1.615 -0.1282 -0.3703 -0.0076
11696SOL    HW136304   5.175   5.878   1.583  0.1015 -1.4190 -2.9486
11696SOL    HW236305   5.157   5.797   1.710 -0.2091  2.8465 -0.0830
11697SOL     OW36306   5.267   4.297   0.920 -0.3027  0.6020 -0.4411
11697SOL    HW136307   5.207   4.257   0.857  0.6800  1.3018 -1.8795
11697SOL    HW236308   5.291   4.226   0.979 -1.4042 -0.0321 -0.7191
11698SOL     OW36309   3.808   4.214   1.010 -0.1569 -0.3269 -0.1503
11698SOL    HW136310   3.791   4.215   0.916 -0.0409 -0.5264 -0.1765
11698SOL    HW236311   3.869   4.140   1.022  0.8687  0.4968 -0.0961
11699SOL     OW36312   4.919   5.112   0.459  0.2428  0.3214 -0.6617
11699SOL    HW136313   4.868   5.183   0.420 -0.5014  1.4993  2.2077
11699SOL    HW236314   4.857   5.040   0.467  0.3507  0.1350 -1.4232
11700SOL     OW36315   4.200   5.222   1.248 -0.7476  0.1086 -0.3920
11700SOL    HW136316   4.199   5.135   1.289 -1.7943  1.3990  2.6451
11700SOL    HW236317   4.114   5.230   1.207 -0.7860 -0.1609 -0.3688
11701SOL     OW36318   4.540   4.027   0.090 -0.7529  0.3757  0.7158
11701SOL    HW136319   4.635   4.026   0.094 -0.7746  1.3986  2.4763
11701SOL    HW236320   4.519   4.043  -0.002  0.7714  0.7436  0.4199
11702SOL     OW36321   5.978   5.496   0.002 -0.3779  0.0789 -0.7132
11702SOL    HW136322   5.997   5.521   0.092 -1.6272  0.5240 -0.5548
11702SOL    HW236323   6.046   5.540  -0.050 -0.9124  1.5907 -0.1833
11703SOL     OW36324   4.176   4.900   0.994  0.7430 -0.0232  0.2987
11703SOL    HW136325   4.103   4.943   0.950  1.6103  0.6140 -0.5933
11703SOL    HW236326   4.221   4.970   1.040  0.2751 -0.5680  1.6193
11704SOL     OW36327   5.552   4.696   1.661  0.2539 -0.0193  0.2857
11704SOL    HW136328   5.493   4.631   1.699  2.2969 -1.7286  0.7557
11704SOL    HW236329   5.536   4.776   1.712 -0.7982 -0.7706  1.1843
11705SOL     OW36330   4.721   4.818   1.245 -0.2486  0.7995 -0.0893
11705SOL    HW136331   4.698   4.726   1.233  0.9670  0.4083  0.4226
11705SOL    HW236332   4.717   4.832   1.339  0.6232  0.9668 -0.0675
11706SOL     OW36333   4.651   4.163   1.058 -0.2447 -0.4762 -0.9355
11706SOL    HW136334   4.704   4.212   0.995  0.6488 -0.2590 -0.0379
11706SOL    HW236335   4.710   4.148   1.132 -1.2362 -0.8562 -0.2123
11707SOL     OW36336   4.411   5.291   1.093 -0.2819  0.6002 -0.2889
11707SOL    HW136337   4.481   5.268   1.154 -0.2675 -1.2745 -0.9508
11707SOL    HW236338   4.331   5.264   1.136 -0.2199 -1.4218 -1.3329
11708SOL     OW36339   4.995   4.549   0.902 -0.1163 -0.1259  0.2288
11708SOL    HW136340   4.917   4.605   0.897 -0.5077 -0.6012  0.8870
11708SOL    HW236341   5.056   4.597   0.958 -0.7439 -0.6666  1.4288
11709SOL     OW36342   3.947   5.025   0.183  0.1793  0.3562 -0.0247
11709SOL    HW136343   4.023   5.076   0.211 -1.0777  1.6422  1.2514
11709SOL    HW236344   3.926   5.059   0.096 -0.9653  2.5535  1.0186
11710SOL     OW36345   3.668   5.040   1.646 -0.1483  0.6448  0.1539
11710SOL    HW136346   3.709   4.984   1.581 -0.7166 -1.2251  1.3402
11710SOL    HW236347   3.738   5.096   1.678  0.2378  1.2913 -1.6912
11711SOL     OW36348   4.312   3.895   1.548 -0.6818  0.6215 -0.0312
11711SOL    HW136349   4.288   3.803   1.556 -0.1130  0.4336 -0.3866
11711SOL    HW236350   4.390   3.904   1.603  0.7227  0.2990 -1.8700
11712SOL     OW36351   3.626   3.547   8.728  0.1068  0.4008  0.2251
11712SOL    HW136352   3.680   3.579   8.800  1.6295  0.6163 -0.9495
11712SOL    HW236353   3.624   3.619   8.666 -1.2079  0.2311  0.0342
11713SOL     OW36354   4.946   4.668   1.334  0.3875  0.2949  0.4976
11713SOL    HW136355   4.862   4.629   1.311  0.9000 -1.1293  0.9316
11713SOL    HW236356   4.924   4.738   1.395 -0.6346  1.3551 -1.0263
11714SOL     OW36357   4.162   4.121   0.403 -0.1616 -0.3848  0.2530
11714SOL    HW136358   4.137   4.096   0.492 -1.0390 -1.0193 -0.1548
11714SOL    HW236359   4.153   4.216   0.401 -0.3535 -0.3899  0.7788
11715SOL     OW36360   4.539   5.434   0.085  0.0378 -0.3325 -0.2192
11715SOL    HW136361   4.494   5.393   0.159  1.2863  2.0598  2.0293
11715SOL    HW236362   4.475   5.494   0.047 -0.7514 -1.8907 -1.4653
11716SOL     OW36363   4.244   4.627   1.220  0.0012  0.2427  0.0677
11716SOL    HW136364   4.208   4.643   1.133  1.4188 -0.1009 -0.6100
11716SOL    HW236365   4.171   4.645   1.280 -0.8143  1.1000 -1.1393
11717SOL     OW36366   5.401   5.471   1.179  0.4009  0.0288  0.8239
11717SOL    HW136367   5.494   5.451   1.188  1.0105  2.1466 -0.2948
11717SOL    HW236368   5.390   5.555   1.223 -0.7271  0.3913 -0.0986
11718SOL     OW36369   4.378   4.428   1.818 -0.0951  0.4792 -0.0282
11718SOL    HW136370   4.318   4.389   1.882  1.3146  1.9056  2.3074
11718SOL    HW236371   4.454   4.370   1.818 -0.7571 -0.4841 -1.8411
11719SOL     OW36372   5.316   4.886   1.563 -0.4336 -0.4511  0.5190
11719SOL    HW136373   5.332   4.861   1.654 -2.4804 -0.3720  0.9605
11719SOL    HW236374   5.295   4.980   1.568 -1.3334 -0.6172  0.1037
11720SOL     OW36375   4.605   5.492   1.543  1.0028 -0.3058 -0.0396
11720SOL    HW136376   4.628   5.541   1.464  1.3503  0.6132  0.6165
11720SOL    HW236377   4.591   5.560   1.610  1.9239 -1.1187  1.0024
11721SOL     OW36378   5.513   4.880   1.356 -0.2868  0.2479  0.1923
11721SOL    HW136379   5.490   4.821   1.284  2.4084 -0.4068 -0.2483
11721SOL    HW236380   5.444   4.866   1.421 -1.5545 -0.8474 -1.3079
11722SOL     OW36381   5.106   3.764   0.981  0.3450  0.2650  0.1741
11722SOL    HW136382   5.046   3.790   1.052 -0.1929  0.1969 -0.2433
11722SOL    HW236383   5.173   3.832   0.981  0.2084  0.4035  0.5903
11723SOL     OW36384   4.447   4.521   0.521 -0.6169  0.4276 -0.9554
11723SOL    HW136385   4.393   4.487   0.593 -1.0546  0.8941 -1.0609
11723SOL    HW236386   4.494   4.444   0.489  0.3223  0.3740  0.4491
11724SOL     OW36387   5.142   4.031   1.649  0.0306  0.0655  0.6979
11724SOL    HW136388   5.147   3.962   1.715  0.0259 -0.4997  0.1092
11724SOL    HW236389   5.123   4.110   1.699 -1.5795 -0.6174  1.2153
11725SOL     OW36390   5.441   3.992   1.592 -0.3848  0.2485 -0.0854
11725SOL    HW136391   5.365   4.049   1.606 -0.1484  0.7012 -0.6285
11725SOL    HW236392   5.474   3.975   1.681 -0.5560  0.8243  0.0948
11726SOL     OW36393   4.912   5.680   0.266  0.3948  0.4540  0.1242
11726SOL    HW136394   4.947   5.591   0.260  1.0592  0.5466  1.8808
11726SOL    HW236395   4.896   5.693   0.360 -1.4829  1.5327 -0.3066
11727SOL     OW36396   4.473   6.111   0.698  0.0736 -0.1826  0.1223
11727SOL    HW136397   4.550   6.158   0.730 -1.2257  2.6034 -0.5399
11727SOL    HW236398   4.416   6.103   0.775 -1.0806  2.4064 -0.3474
11728SOL     OW36399   3.949   5.178   1.076  0.1788 -0.0194 -0.0351
11728SOL    HW136400   3.949   5.188   0.981  1.4784 -0.9402 -0.1769
11728SOL    HW236401   3.959   5.266   1.110  0.6397  0.2321 -0.7970
11729SOL     OW36402   4.063   4.756   0.516 -0.1581 -0.4173 -0.1768
11729SOL    HW136403   4.127   4.759   0.588  0.8752 -1.4829 -1.0102
11729SOL    HW236404   3.978   4.763   0.559  0.4969  0.5134  1.0128
11730SOL     OW36405   5.489   5.491   0.761 -0.1282  0.2651  0.0621
11730SOL    HW136406   5.412   5.465   0.710 -1.3569  1.3283  1.2962
11730SOL    HW236407   5.457   5.559   0.820  1.4334 -0.3124  1.6607
11731SOL     OW36408   4.266   4.500   1.564  0.0072  0.2224 -0.0497
11731SOL    HW136409   4.305   4.466   1.644 -0.6414  0.1961  0.2670
11731SOL    HW236410   4.193   4.441   1.546 -0.3837  0.7335 -0.1718
11732SOL     OW36411   3.664   5.157   0.997 -0.3788  0.5819  0.2368
11732SOL    HW136412   3.654   5.225   1.064  1.1570 -1.1485  2.3587
11732SOL    HW236413   3.721   5.197   0.931 -0.4138  1.7161  0.8679
11733SOL     OW36414   4.525   5.239   1.702 -0.2021 -0.0650 -0.2224
11733SOL    HW136415   4.453   5.233   1.765 -0.1269 -1.1636 -0.2108
11733SOL    HW236416   4.511   5.322   1.656 -0.3902  0.6363  1.0700
11734SOL     OW36417   5.378   3.757   1.424  0.4824  0.5129  0.7623
11734SOL    HW136418   5.405   3.834   1.474  0.8640  0.4709  0.6262
11734SOL    HW236419   5.324   3.706   1.484 -2.7348  2.5504 -0.1407
11735SOL     OW36420   3.771   3.963   0.344 -0.7193 -0.3831 -0.1160
11735SOL    HW136421   3.733   3.906   0.277  0.5668 -0.6803 -0.6271
11735SOL    HW236422   3.809   3.904   0.408 -0.7730 -0.0909  0.1921
11736SOL     OW36423   5.669   5.110   1.028  0.8866  0.6427 -0.0735
11736SOL    HW136424   5.585   5.151   1.006  0.1458 -0.1062  1.1790
11736SOL    HW236425   5.671   5.112   1.124 -0.4473 -4.3998  0.3512
11737SOL     OW36426   3.998   4.417   1.240  0.1800 -0.0913  0.0137
11737SOL    HW136427   3.912   4.380   1.262  0.6906 -1.4388 -0.1636
11737SOL    HW236428   3.978   4.502   1.202 -1.2001 -0.9768 -1.3973
11738SOL     OW36429   4.610   5.690   1.054  0.1904  0.4548  0.2031
11738SOL    HW136430   4.678   5.730   1.000 -1.3416  0.5837 -1.7249
11738SOL    HW236431   4.650   5.683   1.141  2.1819  1.7237 -0.5387
11739SOL     OW36432   5.182   4.167   1.259 -0.2247 -0.3798  0.2106
11739SOL    HW136433   5.131   4.110   1.317  2.1558  0.0096  2.8873
11739SOL    HW236434   5.147   4.254   1.276 -0.0922 -0.3726  0.4627
11740SOL     OW36435   4.670   3.817   1.333 -0.0224  0.2358 -0.5481
11740SOL    HW136436   4.597   3.849   1.281  0.1932 -0.4525 -1.3095
11740SOL    HW236437   4.631   3.754   1.394 -0.3161  1.2441  0.3410
11741SOL     OW36438   4.607   5.121   0.312 -0.0835  0.2125 -1.0253
11741SOL    HW136439   4.622   5.107   0.406  0.0004  2.6603 -0.6072
11741SOL    HW236440   4.686   5.088   0.270 -0.4397 -1.6320 -0.3689
11742SOL     OW36441   4.712   5.601   1.302  0.1582 -0.0023 -0.3736
11742SOL    HW136442   4.792   5.625   1.348  0.8913  1.4166 -2.2567
11742SOL    HW236443   4.730   5.515   1.265  1.1969  0.6674 -1.5052
11743SOL     OW36444   4.910   3.965   0.463  0.4852  0.4197 -0.0119
11743SOL    HW136445   4.884   3.873   0.458  0.6133  0.1941  2.3367
11743SOL    HW236446   4.832   4.010   0.495  1.3545  0.5624  2.0420
11744SOL     OW36447   4.708   4.370   0.847  0.3122  0.1763 -0.0160
11744SOL    HW136448   4.620   4.333   0.857 -0.4200  2.1507  1.8432
11744SOL    HW236449   4.714   4.395   0.755 -0.7409 -0.7324 -0.3485
11745SOL     OW36450   4.862   4.392   1.076 -0.4411 -0.0355 -0.7711
11745SOL    HW136451   4.800   4.385   1.004  0.4289 -2.5976 -1.3974
11745SOL    HW236452   4.930   4.451   1.043 -0.8748  0.1087 -1.4240
11746SOL     OW36453   3.772   4.811   0.210  0.3136 -0.1172  0.2062
11746SOL    HW136454   3.823   4.886   0.242 -1.1862  1.5841 -1.1297
11746SOL    HW236455   3.799   4.801   0.119  1.0460 -1.7788  0.5584
11747SOL     OW36456   4.582   5.484   0.630  0.6166  0.2471 -0.0878
11747SOL    HW136457   4.641   5.488   0.705 -0.0066  1.2213  0.3752
11747SOL    HW236458   4.529   5.406   0.645  0.4595  0.4647  0.5288
11748SOL     OW36459   4.456   5.075   3.014  0.2608  0.3579  0.7556
11748SOL    HW136460   4.372   5.036   2.990  0.6039  0.5653 -0.9229
11748SOL    HW236461   4.433   5.163   3.047 -0.2309  0.1039  1.1096
11749SOL     OW36462   5.336   5.329   2.618 -0.1836 -0.4303  0.3504
11749SOL    HW136463   5.240   5.327   2.623 -0.2310  1.0229  0.3574
11749SOL    HW236464   5.361   5.408   2.666  0.9025  0.1790 -1.1489
11750SOL     OW36465   4.644   4.603   2.465  0.3972  0.1372  0.1513
11750SOL    HW136466   4.730   4.634   2.493  0.8404 -1.4765  0.7251
11750SOL    HW236467   4.591   4.604   2.545  0.0637  0.5760 -0.0762
11751SOL     OW36468   4.328   4.625   3.273 -0.3427  0.2030  0.2448
11751SOL    HW136469   4.289   4.673   3.345  0.0220  3.5130 -1.5604
11751SOL    HW236470   4.254   4.589   3.225 -1.0462  2.7105 -0.7061
11752SOL     OW36471   4.538   4.365   2.133 -0.3618 -0.5595 -1.0673
11752SOL    HW136472   4.516   4.321   2.052 -2.3081 -2.0978  0.2047
11752SOL    HW236473   4.499   4.311   2.202  1.3546  0.5626  0.9356
11753SOL     OW36474   4.070   4.693   2.956  0.0508  0.6438  0.2306
11753SOL    HW136475   4.124   4.614   2.964 -0.2318  0.4139 -0.1003
11753SOL    HW236476   3.984   4.666   2.989  0.0778  0.9484  0.5578
11754SOL     OW36477   3.968   4.078   3.416  0.2570  0.4259  0.3957
11754SOL    HW136478   3.881   4.107   3.447 -0.4893 -2.0374  0.7856
11754SOL    HW236479   3.978   3.990   3.452  3.6755  1.2197  1.7375
11755SOL     OW36480   3.796   5.640   2.358 -0.6316  0.3367  0.2289
11755SOL    HW136481   3.834   5.592   2.431  0.6686 -2.0730 -1.8745
11755SOL    HW236482   3.864   5.702   2.332 -0.8889  0.8226  0.6840
11756SOL     OW36483   4.227   4.518   2.543  0.4608  0.3795 -0.0789
11756SOL    HW136484   4.314   4.517   2.583  0.5999  1.0818 -0.3600
11756SOL    HW236485   4.167   4.509   2.617  0.7739 -0.5416  0.0786
11757SOL     OW36486   4.431   4.743   2.002 -0.2581 -0.1014  0.3427
11757SOL    HW136487   4.458   4.694   2.080  0.3076 -0.8730 -0.3215
11757SOL    HW236488   4.351   4.699   1.973 -0.4893  0.2091  0.5063
11758SOL     OW36489   5.213   3.982   3.059 -0.5573 -0.3519  0.4030
11758SOL    HW136490   5.140   4.008   3.115 -0.1713  0.4203  0.5605
11758SOL    HW236491   5.282   4.045   3.078 -0.8106  0.7025 -1.8108
11759SOL     OW36492   4.933   5.531   1.936 -0.0559 -0.3219  0.3783
11759SOL    HW136493   4.881   5.473   1.880 -0.3763  0.2281  0.1033
11759SOL    HW236494   4.878   5.608   1.949 -0.1157 -0.5574  1.7068
11760SOL     OW36495   3.641   4.367   3.578 -0.3150 -0.2984  0.8444
11760SOL    HW136496   3.725   4.353   3.535 -1.0307 -0.1875 -0.6398
11760SOL    HW236497   3.647   4.317   3.659 -0.2349 -3.5793 -1.0046
11761SOL     OW36498   3.945   4.965   2.438 -0.3842 -0.2189 -0.4896
11761SOL    HW136499   3.975   4.931   2.522  1.3597  0.2315 -0.9036
11761SOL    HW236500   3.862   5.009   2.459  0.2483  0.3156  1.1026
11762SOL     OW36501   3.952   4.116   3.117 -0.3044 -0.2871  0.3694
11762SOL    HW136502   4.040   4.089   3.089 -1.2102 -2.9758 -0.1635
11762SOL    HW236503   3.952   4.101   3.212 -0.7268 -2.1194  0.1089
11763SOL     OW36504   5.434   5.060   2.360 -0.1564 -0.4464 -0.5463
11763SOL    HW136505   5.349   5.078   2.321 -0.4556  0.4597  0.4663
11763SOL    HW236506   5.428   4.970   2.392 -1.4011  0.2082  1.1512
11764SOL     OW36507   4.456   5.801   2.921  0.2565 -0.3200 -0.5662
11764SOL    HW136508   4.496   5.845   2.996  0.7986  1.0382 -1.6192
11764SOL    HW236509   4.470   5.708   2.938 -1.0296 -0.1643  1.7843
11765SOL     OW36510   4.042   3.957   3.881 -0.5397 -0.0388 -0.2721
11765SOL    HW136511   4.130   3.990   3.898 -0.9721  1.6412 -1.0849
11765SOL    HW236512   4.000   3.952   3.967  0.0955 -0.1221  0.0351
11766SOL     OW36513   4.974   5.574   2.311 -0.2306 -0.0352  0.1957
11766SOL    HW136514   4.926   5.623   2.245 -0.6100 -0.1378  0.3929
11766SOL    HW236515   4.961   5.623   2.392 -1.0070 -0.7006  0.4899
11767SOL     OW36516   4.964   5.758   2.498 -0.0444  0.5864 -0.2177
11767SOL    HW136517   5.010   5.773   2.581 -1.1729  1.4599  0.2729
11767SOL    HW236518   4.872   5.755   2.522 -0.4291  1.3264 -1.5002
11768SOL     OW36519   4.535   4.614   2.203  0.1060  0.0825 -0.1370
11768SOL    HW136520   4.603   4.613   2.270  1.6561 -0.5214 -1.6462
11768SOL    HW236521   4.531   4.523   2.171 -2.2442 -0.1667  0.6842
11769SOL     OW36522   3.793   5.623   3.491  0.2450  0.1409 -0.1884
11769SOL    HW136523   3.822   5.532   3.488  0.5631  0.2810 -1.6632
11769SOL    HW236524   3.870   5.674   3.466  0.0222  0.8186  0.4667
11770SOL     OW36525   4.497   4.213   1.903 -0.3712  0.0408  0.2750
11770SOL    HW136526   4.404   4.193   1.895 -0.6435  0.8994  1.1728
11770SOL    HW236527   4.539   4.127   1.911 -0.8109 -0.5111 -2.3038
11771SOL     OW36528   4.724   5.054   1.589 -0.4372 -0.4755  0.0016
11771SOL    HW136529   4.710   5.147   1.570  2.2023 -0.1246 -0.6635
11771SOL    HW236530   4.664   5.035   1.661 -1.0536  1.7439  0.1562
11772SOL     OW36531   4.172   4.924   3.032 -0.2129 -0.1261 -0.1281
11772SOL    HW136532   4.133   4.841   3.005 -0.5660 -0.2931  0.8334
11772SOL    HW236533   4.173   4.919   3.128  0.9006  0.4609 -0.0951
11773SOL     OW36534   4.762   5.762   1.911 -0.5138 -0.1982 -0.3147
11773SOL    HW136535   4.758   5.735   2.003  0.1392 -1.4122 -0.6238
11773SOL    HW236536   4.683   5.815   1.898 -0.9432 -0.5521  0.7763
11774SOL     OW36537   4.057   3.810   3.453 -0.2415 -0.1214 -0.4144
11774SOL    HW136538   4.151   3.804   3.466 -0.3950 -3.2078 -0.0575
11774SOL    HW236539   4.042   3.772   3.367 -1.2342 -0.5237 -0.0771
11775SOL     OW36540   5.200   5.144   2.246  0.3010 -0.3915 -0.1016
11775SOL    HW136541   5.201   5.234   2.277  2.1767 -0.9675  1.7375
11775SOL    HW236542   5.141   5.099   2.306  1.9276 -0.9951  1.1168
11776SOL     OW36543   4.486   5.294   2.071  0.0559  0.0355 -0.2789
11776SOL    HW136544   4.498   5.216   2.125 -0.5832  0.3744  0.3709
11776SOL    HW236545   4.428   5.266   2.000  0.4180 -0.2594 -0.4606
11777SOL     OW36546   4.666   5.316   2.829  0.2779 -0.0264  0.3286
11777SOL    HW136547   4.750   5.270   2.824  1.8747  2.6081  1.1022
11777SOL    HW236548   4.642   5.309   2.922 -0.4597 -0.8492  0.0932
11778SOL     OW36549   4.083   4.337   4.028  0.0965  0.2299  0.0872
11778SOL    HW136550   3.999   4.342   4.074 -0.2323  0.6708 -0.5375
11778SOL    HW236551   4.145   4.306   4.094 -0.7113 -0.9015  0.3468
11779SOL     OW36552   4.627   4.984   2.800  0.5274 -0.7934  0.0190
11779SOL    HW136553   4.707   5.035   2.806 -0.0297  0.2854 -1.3154
11779SOL    HW236554   4.573   5.016   2.872  0.4439  0.0359 -0.4061
11780SOL     OW36555   5.193   4.953   2.024 -0.1299  0.8012 -0.0145
11780SOL    HW136556   5.192   5.021   2.092 -1.2733 -0.6464  1.4827
11780SOL    HW236557   5.226   4.875   2.067 -1.2876 -0.2792 -0.9788
11781SOL     OW36558   4.282   5.034   2.704  0.4565 -0.1635  0.5890
11781SOL    HW136559   4.205   4.982   2.726 -0.8861  1.1891 -0.6495
11781SOL    HW236560   4.291   5.026   2.609  2.0271 -0.5089  0.7413
11782SOL     OW36561   4.963   4.705   2.454 -0.3838 -0.1138 -0.3357
11782SOL    HW136562   5.054   4.734   2.465 -0.7850  1.4490 -0.8476
11782SOL    HW236563   4.913   4.761   2.513 -0.9120 -1.8754  0.9766
11783SOL     OW36564   4.795   4.448   1.996  0.3627 -0.2404 -0.8702
11783SOL    HW136565   4.821   4.371   2.047  1.5146  1.0997  0.7020
11783SOL    HW236566   4.700   4.443   1.991  0.2110 -0.5271  1.3472
11784SOL     OW36567   3.846   4.695   3.478  0.1856  0.1537  0.7359
11784SOL    HW136568   3.761   4.734   3.458 -0.0867 -1.6454 -2.1180
11784SOL    HW236569   3.825   4.615   3.526  0.2658 -0.2816  0.0483
11785SOL     OW36570   5.751   4.359   2.367 -0.4462 -0.7129  0.2736
11785SOL    HW136571   5.712   4.285   2.320  1.3224 -0.4786 -1.6902
11785SOL    HW236572   5.721   4.436   2.319  0.1005 -0.3602  0.4882
11786SOL     OW36573   4.463   5.354   2.422 -0.1819  0.0865  0.1326
11786SOL    HW136574   4.470   5.275   2.368  2.2853 -0.5255  1.2215
11786SOL    HW236575   4.468   5.322   2.512  2.5018  1.5486  0.5845
11787SOL     OW36576   4.819   5.375   2.496  0.1294 -0.1629 -0.1555
11787SOL    HW136577   4.802   5.285   2.468 -1.9276 -0.4254  1.7191
11787SOL    HW236578   4.886   5.367   2.563  1.6830  0.0196 -1.5976
11788SOL     OW36579   5.146   4.410   2.073  0.5204  0.1258 -0.1714
11788SOL    HW136580   5.069   4.439   2.122  0.4680 -1.0249  0.4617
11788SOL    HW236581   5.219   4.419   2.134  0.6188 -0.3511 -0.2123
11789SOL     OW36582   5.894   5.199   3.046 -0.2120  0.4961 -0.2119
11789SOL    HW136583   5.888   5.160   3.134  0.5657  0.3643 -0.2074
11789SOL    HW236584   5.885   5.125   2.987  0.4646  0.4083 -0.2161
11790SOL     OW36585   5.155   5.158   3.726  0.0236  0.1515  0.7868
11790SOL    HW136586   5.166   5.133   3.818  0.5116  1.2388  1.0373
11790SOL    HW236587   5.164   5.076   3.678  0.6147 -0.3070  1.6512
11791SOL     OW36588   4.287   4.699   2.339  0.0351 -0.0017 -0.5243
11791SOL    HW136589   4.378   4.681   2.316 -0.3052 -0.7870 -1.3114
11791SOL    HW236590   4.266   4.636   2.408  0.0019 -0.0036 -0.5360
11792SOL     OW36591   4.145   4.525   3.656 -0.5737 -0.1102  0.0898
11792SOL    HW136592   4.166   4.597   3.597  1.9058  0.0610  1.0749
11792SOL    HW236593   4.120   4.453   3.597  0.9876  0.3119 -1.1554
11793SOL     OW36594   4.849   5.118   2.432 -0.0158 -0.2982  0.6237
11793SOL    HW136595   4.939   5.123   2.464 -0.5147 -1.1570  2.3017
11793SOL    HW236596   4.856   5.085   2.343  1.3351 -0.2218  0.6922
11794SOL     OW36597   3.875   4.429   3.400  0.3762  0.0482 -0.2548
11794SOL    HW136598   3.904   4.520   3.409 -1.0883  0.6940 -1.5841
11794SOL    HW236599   3.956   4.378   3.398  1.2996  1.4811 -1.0791
11795SOL     OW36600   4.360   3.801   3.453 -0.7322 -0.6614  0.3492
11795SOL    HW136601   4.439   3.747   3.449 -0.3688 -0.1000 -0.5715
11795SOL    HW236602   4.379   3.867   3.519 -0.7039 -0.9338  0.6157
11796SOL     OW36603   4.499   4.712   2.883  0.2980  0.6189  0.4361
11796SOL    HW136604   4.546   4.795   2.877 -1.2450  1.5558  0.6276
11796SOL    HW236605   4.457   4.714   2.969 -0.5081  0.0677  0.0754
11797SOL     OW36606   5.020   4.501   2.314  0.0979  0.6643  0.1800
11797SOL    HW136607   4.977   4.420   2.341 -0.0996  0.8595  0.4449
11797SOL    HW236608   4.986   4.568   2.373  1.3899  0.6687  0.9633
11798SOL     OW36609   4.123   4.712   3.441 -0.0671  0.4297  0.5252
11798SOL    HW136610   4.029   4.734   3.440 -0.4424 -1.0107  0.9854
11798SOL    HW236611   4.167   4.797   3.447 -1.2753  1.2358 -1.0901
11799SOL     OW36612   5.803   4.546   3.260 -0.4734  0.6285 -0.4648
11799SOL    HW136613   5.893   4.512   3.265 -0.4239  0.8066 -0.1402
11799SOL    HW236614   5.810   4.637   3.290 -0.6695  0.8150 -0.9771
11800SOL     OW36615   4.442   4.014   3.615 -0.2718 -0.0712  0.8176
11800SOL    HW136616   4.358   4.054   3.634 -0.3393  0.1380  0.0709
11800SOL    HW236617   4.502   4.087   3.602 -0.4627 -0.1761 -0.8681
11801SOL     OW36618   4.831   4.242   1.744 -0.4218  0.4852 -0.8362
11801SOL    HW136619   4.837   4.337   1.738 -1.0726  0.5950  0.0597
11801SOL    HW236620   4.884   4.220   1.821  1.2402 -0.0741 -2.0940
11802SOL     OW36621   4.458   4.536   2.673 -0.2554 -0.2441 -0.2851
11802SOL    HW136622   4.438   4.599   2.743  0.0102 -0.3136 -0.1451
11802SOL    HW236623   4.516   4.473   2.714 -0.6093 -0.6474 -0.3962
11803SOL     OW36624   3.384   5.042   2.775  0.4620  0.0271 -0.1167
11803SOL    HW136625   3.403   5.014   2.686  1.3261 -1.7935  0.5731
11803SOL    HW236626   3.411   4.967   2.829 -1.9511  0.2264  1.5224
11804SOL     OW36627   4.145   5.274   2.993 -0.4156 -0.2586 -0.3695
11804SOL    HW136628   4.110   5.241   3.076  0.7311  0.8051  0.5867
11804SOL    HW236629   4.232   5.306   3.015 -0.1660  0.2287 -1.9553
11805SOL     OW36630   3.744   4.152   2.925 -0.2696 -0.4810 -0.2163
11805SOL    HW136631   3.827   4.141   2.972  0.9958  1.2207 -1.8335
11805SOL    HW236632   3.685   4.088   2.963  2.3973 -3.2795 -0.3854
11806SOL     OW36633   4.309   3.997   3.913 -0.5750  0.9883  0.6656
11806SOL    HW136634   4.317   4.022   4.005  0.5635 -0.9667  1.1517
11806SOL    HW236635   4.382   4.041   3.869  0.3873 -0.0344  1.1905
11807SOL     OW36636   4.857   4.180   2.051 -0.3692 -0.1039  0.1335
11807SOL    HW136637   4.790   4.139   2.106  0.2300 -1.3100 -0.0109
11807SOL    HW236638   4.917   4.109   2.029  1.0451  0.9725  0.3719
11808SOL     OW36639   5.435   4.595   3.256 -0.5870  0.0233  0.0299
11808SOL    HW136640   5.425   4.554   3.170  3.4076 -2.0014  0.2984
11808SOL    HW236641   5.507   4.657   3.244  1.5241 -1.8105  2.1994
11809SOL     OW36642   3.801   4.841   3.222 -0.4558 -0.1997  0.3754
11809SOL    HW136643   3.734   4.822   3.288  0.5425 -2.6871  0.8023
11809SOL    HW236644   3.811   4.758   3.174  1.0918  0.6167 -0.8015
11810SOL     OW36645   5.108   5.035   2.470  0.5543  0.5544  0.0674
11810SOL    HW136646   5.154   4.951   2.462 -0.4177  0.1125 -1.3997
11810SOL    HW236647   5.105   5.052   2.564 -0.1796 -1.6311  0.4960
11811SOL     OW36648   5.284   5.367   3.170 -0.0996 -0.0601  0.0851
11811SOL    HW136649   5.344   5.356   3.243  0.1670  0.2297 -0.0891
11811SOL    HW236650   5.221   5.295   3.179 -0.7280  0.6129  1.2251
11812SOL     OW36651   4.075   4.865   2.728  0.0148  0.3666 -0.0988
11812SOL    HW136652   4.032   4.787   2.693  2.5172 -1.2787  0.2659
11812SOL    HW236653   4.114   4.836   2.810  1.2368  1.9219 -0.0918
11813SOL     OW36654   5.454   3.688   2.272 -0.3367 -0.5324 -0.4320
11813SOL    HW136655   5.476   3.731   2.189 -2.5652 -0.8466 -1.2384
11813SOL    HW236656   5.537   3.685   2.319  0.7443  0.8066 -2.1106
11814SOL     OW36657   4.694   5.762   2.530  0.0453  0.1664 -0.5335
11814SOL    HW136658   4.675   5.726   2.616 -0.8485 -0.4695 -0.9759
11814SOL    HW236659   4.700   5.685   2.473  3.1726  0.3461 -0.6433
11815SOL     OW36660   4.279   5.001   2.090  0.1600 -0.0593  0.0615
11815SOL    HW136661   4.214   4.956   2.144  0.8773  0.0551  1.0424
11815SOL    HW236662   4.332   4.930   2.052 -1.2441 -0.2350 -1.7477
11816SOL     OW36663   5.734   5.415   3.034  0.2562  0.5818  0.1658
11816SOL    HW136664   5.798   5.343   3.033  0.8217  1.0767  0.2723
11816SOL    HW236665   5.651   5.374   3.008  0.5443 -0.1361  0.3638
11817SOL     OW36666   5.410   3.685   2.546 -0.8065  0.0595  0.6173
11817SOL    HW136667   5.458   3.723   2.619 -0.5052  0.5362  0.1688
11817SOL    HW236668   5.473   3.627   2.502 -1.7569 -2.5474  2.4229
11818SOL     OW36669   4.537   4.912   2.533 -0.0516 -1.0702 -0.3229
11818SOL    HW136670   4.534   4.912   2.628  0.5048  1.8554 -0.2012
11818SOL    HW236671   4.616   4.863   2.511  0.6211 -0.5501  0.8371
11819SOL     OW36672   4.861   4.697   2.183  0.0604 -0.0689  0.3247
11819SOL    HW136673   4.902   4.711   2.268  0.4622  2.0429 -0.1575
11819SOL    HW236674   4.910   4.624   2.145  0.5205 -0.3988  1.4931
11820SOL     OW36675   5.201   5.425   1.691 -0.2164  0.0240  0.0277
11820SOL    HW136676   5.122   5.478   1.685 -0.8600 -1.0725 -3.8599
11820SOL    HW236677   5.172   5.344   1.733 -1.9534 -1.3581 -3.5043
11821SOL     OW36678   5.265   4.998   3.370 -0.0842 -0.4028  0.5351
11821SOL    HW136679   5.179   4.978   3.334 -0.7348  0.8427  1.3286
11821SOL    HW236680   5.258   4.975   3.463 -0.1056  1.1831  0.9606
11822SOL     OW36681   4.421   5.273   2.692 -0.0216  0.2374 -0.5910
11822SOL    HW136682   4.499   5.276   2.747  0.1632  0.9255 -0.8775
11822SOL    HW236683   4.383   5.186   2.708 -0.0588  0.4820  0.7266
11823SOL     OW36684   5.394   3.799   2.906 -0.9094  0.1215 -0.3950
11823SOL    HW136685   5.353   3.715   2.926 -0.4145 -0.2388 -0.8615
11823SOL    HW236686   5.342   3.864   2.955  0.5554 -0.7443  2.5748
11824SOL     OW36687   4.842   4.574   1.702  0.2294  0.2791  0.3161
11824SOL    HW136688   4.814   4.633   1.632 -1.3824 -1.0466 -0.2174
11824SOL    HW236689   4.768   4.571   1.762 -0.2583 -2.0658 -0.2832
11825SOL     OW36690   4.356   4.294   3.170 -0.4505 -0.4345 -0.3376
11825SOL    HW136691   4.429   4.235   3.185 -0.2967 -0.1984 -0.1383
11825SOL    HW236692   4.353   4.349   3.249  0.6750  1.1573 -1.3553
11826SOL     OW36693   5.030   5.520   2.759  0.3149 -0.0009  0.3546
11826SOL    HW136694   4.993   5.463   2.827 -0.8579 -1.5796 -1.4821
11826SOL    HW236695   5.088   5.462   2.709  0.9870  1.0648 -0.1297
11827SOL     OW36696   4.361   4.341   3.719  0.0388 -0.0046 -0.0232
11827SOL    HW136697   4.418   4.369   3.791 -0.1345  1.8408 -0.5671
11827SOL    HW236698   4.275   4.377   3.741 -0.0756  0.3593 -1.0062
11828SOL     OW36699   5.183   4.891   3.598 -0.8863  0.3017 -0.6655
11828SOL    HW136700   5.231   4.867   3.677  0.6918  0.6320 -1.4809
11828SOL    HW236701   5.103   4.839   3.601 -0.6992  0.0606  0.9651
11829SOL     OW36702   5.635   4.101   3.400 -0.4537  0.1440  0.0988
11829SOL    HW136703   5.685   4.183   3.407 -0.6314  0.2681 -0.0688
11829SOL    HW236704   5.559   4.115   3.457 -0.9007  0.4089 -0.5419
11830SOL     OW36705   5.553   4.823   3.120  0.8868 -0.4432  0.1895
11830SOL    HW136706   5.483   4.877   3.085  0.6242 -0.7509  0.2364
11830SOL    HW236707   5.588   4.777   3.043  1.1417 -0.1756  0.1419
11831SOL     OW36708   4.704   4.833   1.971 -0.1108  0.4298 -0.1037
11831SOL    HW136709   4.623   4.862   2.012  0.4769  0.6922  0.9035
11831SOL    HW236710   4.740   4.768   2.031  0.1479 -0.1169 -0.8244
11832SOL     OW36711   4.836   4.870   2.608 -0.6883  0.2709  0.4139
11832SOL    HW136712   4.825   4.962   2.586 -4.0577 -0.4382 -1.5674
11832SOL    HW236713   4.780   4.858   2.685  0.8109  0.0833  1.5178
11833SOL     OW36714   4.872   4.852   1.513  0.1513  0.1312 -0.0492
11833SOL    HW136715   4.916   4.820   1.592 -3.3535 -1.6839  1.4184
11833SOL    HW236716   4.834   4.936   1.539  0.0750  0.1513 -0.2232
11834SOL     OW36717   5.521   5.114   2.654 -0.4555  0.5182  0.0342
11834SOL    HW136718   5.471   5.194   2.640 -0.2148  0.5276 -0.8382
11834SOL    HW236719   5.477   5.048   2.601 -1.0935 -0.1267  1.3272
11835SOL     OW36720   5.496   3.714   3.356  0.4250  0.0869  0.4614
11835SOL    HW136721   5.486   3.798   3.312  1.1621  0.6289  1.3016
11835SOL    HW236722   5.492   3.649   3.286 -3.2372  0.5355  0.0526
11836SOL     OW36723   5.427   5.090   3.157 -0.0087  0.2626  0.7334
11836SOL    HW136724   5.507   5.091   3.209  0.3088 -0.4710  0.2778
11836SOL    HW236725   5.359   5.060   3.217  0.0696  0.7938  1.0943
11837SOL     OW36726   4.211   4.064   3.055  0.4116  0.4602  0.2999
11837SOL    HW136727   4.271   3.991   3.041 -0.5038 -0.7355  2.2153
11837SOL    HW236728   4.254   4.119   3.121 -0.2046  0.0074  1.1054
11838SOL     OW36729   4.660   5.533   2.369  0.1474 -0.3111 -0.0763
11838SOL    HW136730   4.730   5.484   2.412 -0.4544 -1.4106 -0.2876
11838SOL    HW236731   4.582   5.479   2.382 -0.9005  1.3930  1.0566
11839SOL     OW36732   5.135   3.908   2.768  0.5734 -0.3353  0.0888
11839SOL    HW136733   5.174   3.872   2.847  1.4895  0.8732  0.2068
11839SOL    HW236734   5.096   3.991   2.796  0.7714  0.0255 -0.6886
11840SOL     OW36735   4.506   5.109   2.260  0.6121 -0.3089  0.3840
11840SOL    HW136736   4.452   5.049   2.311 -0.0741  0.9829  1.2147
11840SOL    HW236737   4.596   5.085   2.282  0.3755 -1.4598  0.1797
11841SOL     OW36738   4.343   5.525   2.784 -0.4831  0.3177  0.0351
11841SOL    HW136739   4.363   5.440   2.747 -0.2733  1.0296 -1.5792
11841SOL    HW236740   4.325   5.508   2.876 -0.1588 -1.4138 -0.1955
11842SOL     OW36741   3.760   4.216   3.925 -0.1705 -0.3126  0.6748
11842SOL    HW136742   3.683   4.253   3.882 -0.6334 -0.1598  1.6007
11842SOL    HW236743   3.791   4.148   3.865 -1.0235 -0.3723  0.2827
11843SOL     OW36744   4.273   4.976   5.058 -0.0078 -0.5617 -0.5617
11843SOL    HW136745   4.212   4.922   5.008  1.0815 -0.7493 -1.7321
11843SOL    HW236746   4.344   4.916   5.081 -0.5031 -0.5017  1.3274
11844SOL     OW36747   4.880   4.505   4.582 -0.1215 -0.1458  0.3661
11844SOL    HW136748   4.947   4.482   4.518  1.2012  4.8521 -0.5299
11844SOL    HW236749   4.800   4.516   4.530 -0.1549 -0.4161  0.3618
11845SOL     OW36750   4.840   4.952   5.499  0.6787 -0.0466 -0.3589
11845SOL    HW136751   4.899   4.904   5.442  0.4590 -0.9315  0.1391
11845SOL    HW236752   4.876   5.041   5.503  1.4137 -0.3233 -0.8265
11846SOL     OW36753   4.806   5.185   5.152 -0.0687 -0.3829  0.0576
11846SOL    HW136754   4.878   5.136   5.112 -0.2216  0.5828 -1.4729
11846SOL    HW236755   4.754   5.119   5.197  0.5550 -1.4078 -0.6867
11847SOL     OW36756   5.156   4.046   4.279 -0.0536 -0.5764  0.2107
11847SOL    HW136757   5.079   4.103   4.280  1.6249  1.8389  0.5874
11847SOL    HW236758   5.198   4.065   4.195  1.9411  0.8126  1.4671
11848SOL     OW36759   3.865   5.317   4.086 -0.0659  0.3597  0.8305
11848SOL    HW136760   3.920   5.370   4.143 -0.9706  0.2677  1.8364
11848SOL    HW236761   3.835   5.377   4.018 -0.3523  0.9196  1.4409
11849SOL     OW36762   3.705   5.117   4.565  0.1819  0.3431  0.3532
11849SOL    HW136763   3.700   5.150   4.475 -0.3281 -0.8856 -0.0949
11849SOL    HW236764   3.788   5.069   4.569 -0.3872 -0.6922  0.1288
11850SOL     OW36765   4.403   5.532   5.048 -0.2849  0.1511 -0.5645
11850SOL    HW136766   4.324   5.479   5.041 -1.5172  1.4050  2.2163
11850SOL    HW236767   4.474   5.471   5.029 -1.8576 -0.9606 -3.3791
11851SOL     OW36768   5.351   5.526   3.932 -0.3414  0.2882  0.3205
11851SOL    HW136769   5.393   5.461   3.877 -2.1787  0.3665 -1.3151
11851SOL    HW236770   5.343   5.485   4.017  1.1596 -0.4646  0.1197
11852SOL     OW36771   3.723   5.183   4.291  0.4019 -0.1708  0.1678
11852SOL    HW136772   3.731   5.091   4.264 -0.3983 -0.4670  0.9016
11852SOL    HW236773   3.747   5.233   4.213 -0.4345 -1.0104 -0.6395
11853SOL     OW36774   4.986   4.744   5.301  0.0292  0.4570  0.0868
11853SOL    HW136775   4.955   4.679   5.239  1.0048  0.1162 -0.0634
11853SOL    HW236776   5.077   4.761   5.275  1.0253 -0.9026  2.3574
11854SOL     OW36777   4.515   3.988   4.482  0.5322 -0.1899 -0.3172
11854SOL    HW136778   4.543   3.897   4.470  1.8189  0.2189 -0.4969
11854SOL    HW236779   4.498   3.995   4.576  3.3203  0.1489  0.2317
11855SOL     OW36780   5.074   5.403   5.021 -0.1416 -0.4355 -0.5495
11855SOL    HW136781   5.143   5.367   5.077 -0.5016 -0.5840 -0.1966
11855SOL    HW236782   5.036   5.327   4.978 -0.6195 -0.4442 -0.1257
11856SOL     OW36783   5.102   5.635   4.359  0.3507  0.4617  0.4788
11856SOL    HW136784   5.094   5.541   4.378 -2.8042  0.8669  1.7570
11856SOL    HW236785   5.131   5.674   4.442  0.1470  0.7908  0.3957
11857SOL     OW36786   5.304   5.389   4.166 -0.1257 -0.3711  0.3413
11857SOL    HW136787   5.339   5.415   4.251  1.4081 -0.1623 -0.3233
11857SOL    HW236788   5.210   5.377   4.181  0.3362 -1.9042  2.4294
11858SOL     OW36789   4.650   4.517   5.348 -0.8724 -0.6230  0.3526
11858SOL    HW136790   4.660   4.606   5.317 -0.1024 -1.6037 -2.5471
11858SOL    HW236791   4.568   4.517   5.396 -2.6137  0.9849 -2.3800
11859SOL     OW36792   4.800   4.153   4.544  0.0990  0.0224  0.5258
11859SOL    HW136793   4.725   4.164   4.603 -0.6500  0.4904 -0.4653
11859SOL    HW236794   4.827   4.062   4.556  0.1805  0.2084  1.8266
11860SOL     OW36795   4.948   4.245   4.300 -0.0596  0.1566  0.2045
11860SOL    HW136796   4.878   4.225   4.238 -0.2623 -0.4544  0.6225
11860SOL    HW236797   4.907   4.236   4.386  0.2670  0.8124  0.4351
11861SOL     OW36798   3.770   5.621   5.224  0.0202 -0.3199 -0.7740
11861SOL    HW136799   3.815   5.592   5.303 -0.4181  0.8314 -0.0788
11861SOL    HW236800   3.829   5.598   5.152  1.4631  0.6187  0.0648
11862SOL     OW36801   4.629   4.203   3.607 -0.4135 -0.2443 -0.6165
11862SOL    HW136802   4.718   4.185   3.576  0.0925  1.2421 -0.1127
11862SOL    HW236803   4.630   4.296   3.630 -2.3496  0.0201 -1.4112
11863SOL     OW36804   4.587   4.977   5.127  0.0039 -0.3038  0.0972
11863SOL    HW136805   4.657   4.944   5.071 -0.6713 -0.9008 -0.4079
11863SOL    HW236806   4.572   4.907   5.190 -1.2985 -0.9109 -0.8538
11864SOL     OW36807   4.338   4.943   5.493 -0.6070 -0.3768  0.1468
11864SOL    HW136808   4.401   4.954   5.421  1.0951 -1.2759  1.4105
11864SOL    HW236809   4.360   4.858   5.531 -1.3942  0.1110  1.7840
11865SOL     OW36810   4.986   5.822   3.792  0.4908 -0.3112  0.4963
11865SOL    HW136811   5.040   5.756   3.834 -0.1381 -0.9228  0.3787
11865SOL    HW236812   4.971   5.788   3.704  0.3414  0.0927  0.3631
11866SOL     OW36813   5.511   5.034   3.654 -0.2572  0.0085 -0.4140
11866SOL    HW136814   5.571   5.041   3.728  0.8669  0.5086 -1.3440
11866SOL    HW236815   5.522   4.945   3.622  0.4497  0.2761 -0.9433
11867SOL     OW36816   4.156   5.420   3.896 -0.6256 -0.5226  0.3556
11867SOL    HW136817   4.241   5.462   3.908 -0.0450 -1.6497  0.3044
11867SOL    HW236818   4.177   5.329   3.875 -1.8043 -0.4644 -1.2291
11868SOL     OW36819   5.166   3.836   4.030 -0.1379  0.1396  0.0911
11868SOL    HW136820   5.181   3.931   4.029 -1.2432  0.3341  0.3812
11868SOL    HW236821   5.078   3.826   3.993 -0.1705 -0.7496  0.4035
11869SOL     OW36822   5.220   3.818   5.684 -0.0969 -0.0204  0.0004
11869SOL    HW136823   5.301   3.834   5.733  0.0707 -0.9808  0.0551
11869SOL    HW236824   5.192   3.905   5.656  2.4730  0.1642 -2.4592
11870SOL     OW36825   4.374   4.271   3.457 -0.1079 -0.1617  0.3290
11870SOL    HW136826   4.371   4.286   3.552  0.2087 -0.1875  0.3451
11870SOL    HW236827   4.467   4.260   3.438  0.0390  1.8417 -0.2883
11871SOL     OW36828   4.550   4.430   4.575  0.2230  0.5460  0.0654
11871SOL    HW136829   4.569   4.511   4.528 -1.4089  0.6416 -0.4831
11871SOL    HW236830   4.482   4.454   4.639 -0.2036 -0.3462 -0.0268
11872SOL     OW36831   3.742   3.620   4.057 -0.1426  0.4081  0.8269
11872SOL    HW136832   3.729   3.707   4.095  0.7980  0.7982  0.2868
11872SOL    HW236833   3.814   3.582   4.108  2.0171  1.4314 -1.2619
11873SOL     OW36834   4.669   4.151   4.292  0.0784 -0.0350 -0.0283
11873SOL    HW136835   4.610   4.105   4.233 -0.2020  0.6062 -0.2566
11873SOL    HW236836   4.646   4.119   4.379 -0.5904  0.1946 -0.1201
11874SOL     OW36837   4.636   5.384   3.893 -0.7326  0.3200  0.0295
11874SOL    HW136838   4.680   5.376   3.977 -0.2067  1.0758 -0.1658
11874SOL    HW236839   4.706   5.376   3.828 -1.2481 -1.1527 -0.3818
11875SOL     OW36840   4.665   4.425   4.256 -0.1525 -0.1747 -0.3140
11875SOL    HW136841   4.608   4.454   4.185 -0.9194 -1.6653 -0.3475
11875SOL    HW236842   4.645   4.332   4.266 -0.9339  0.2108  2.6158
11876SOL     OW36843   5.367   4.186   4.674  0.2564  0.7604 -0.3894
11876SOL    HW136844   5.297   4.247   4.653 -0.7449  0.0465  0.7789
11876SOL    HW236845   5.396   4.211   4.762  0.9522  0.5723 -0.5549
11877SOL     OW36846   4.159   3.866   4.277 -0.2984  0.1468 -0.1337
11877SOL    HW136847   4.130   3.775   4.287  0.9241 -0.7311 -3.3299
11877SOL    HW236848   4.106   3.900   4.205  0.6192  1.3365 -0.2773
11878SOL     OW36849   5.360   5.013   5.158 -0.2334  0.3881 -0.4987
11878SOL    HW136850   5.314   4.950   5.213  0.9805  1.2642  1.6151
11878SOL    HW236851   5.381   4.964   5.078 -3.7582 -0.3472 -1.1118
11879SOL     OW36852   4.831   4.887   5.016  0.3604 -0.0833  0.2661
11879SOL    HW136853   4.923   4.881   5.041  0.3052  1.3761  0.8941
11879SOL    HW236854   4.824   4.831   4.938  1.3073 -1.8591  1.3702
11880SOL     OW36855   5.356   5.265   5.319 -0.0261 -0.4568 -0.3311
11880SOL    HW136856   5.298   5.257   5.394  1.7616 -0.4408  1.1172
11880SOL    HW236857   5.330   5.193   5.261 -1.5788 -0.3343  0.1744
11881SOL     OW36858   4.801   4.422   4.872  0.1305  0.2689  0.5125
11881SOL    HW136859   4.890   4.387   4.884 -0.3615 -1.0081  0.5717
11881SOL    HW236860   4.755   4.352   4.825 -0.5138  1.4206 -0.6264
11882SOL     OW36861   5.200   4.977   4.536 -0.0016  0.4215  0.3927
11882SOL    HW136862   5.146   4.909   4.496  1.2720 -0.4168  0.0416
11882SOL    HW236863   5.154   5.059   4.517 -0.4554 -0.1512 -1.0674
11883SOL     OW36864   4.480   4.693   5.613 -0.5152 -0.0643 -0.4639
11883SOL    HW136865   4.422   4.698   5.689 -1.0346  0.5177 -0.8940
11883SOL    HW236866   4.455   4.612   5.569  1.5478 -1.8473  1.3680
11884SOL     OW36867   4.582   4.436   5.067  0.2404  0.1125  0.3750
11884SOL    HW136868   4.607   4.344   5.059  0.1121  0.0374  0.8064
11884SOL    HW236869   4.592   4.471   4.978  0.3222 -0.3073  0.2136
11885SOL     OW36870   4.548   5.257   4.752 -0.3481  0.3893 -0.5195
11885SOL    HW136871   4.591   5.339   4.729 -0.1821  0.3260 -0.4414
11885SOL    HW236872   4.614   5.190   4.732  0.9881  0.4910  2.9415
11886SOL     OW36873   4.695   5.028   4.735  0.5638  0.3752 -0.4327
11886SOL    HW136874   4.689   4.962   4.666 -0.3922 -1.0268  0.9133
11886SOL    HW236875   4.710   4.977   4.815 -0.4039  1.7715  0.6837
11887SOL     OW36876   4.834   3.849   3.986  0.0348 -0.0727 -0.0997
11887SOL    HW136877   4.745   3.822   4.006  0.2404  0.5161  1.7357
11887SOL    HW236878   4.843   3.832   3.892 -2.3389  0.8034 -0.5524
11888SOL     OW36879   4.365   4.467   4.788  0.1185 -0.2700 -0.2074
11888SOL    HW136880   4.285   4.513   4.764  1.0813  0.7577 -1.6042
11888SOL    HW236881   4.335   4.384   4.825 -1.6232  0.8392  1.0209
11889SOL     OW36882   5.028   4.762   4.480  0.4816 -0.3380  0.6100
11889SOL    HW136883   4.952   4.706   4.495 -0.2098  0.3792 -0.1141
11889SOL    HW236884   5.059   4.739   4.392 -0.0695  0.6684  0.1221
11890SOL     OW36885   4.811   5.338   5.378 -0.4253  0.5877  0.1551
11890SOL    HW136886   4.782   5.297   5.297 -1.7646 -0.4309  1.1060
11890SOL    HW236887   4.865   5.271   5.421  1.2927  1.5427 -0.3911
11891SOL     OW36888   5.360   5.537   5.309 -0.3610  0.3888  0.0713
11891SOL    HW136889   5.318   5.451   5.319 -1.3883  0.8586 -0.0804
11891SOL    HW236890   5.453   5.517   5.303 -0.4778 -0.6262  1.2278
11892SOL     OW36891   4.089   4.686   6.229 -0.3791 -0.2277 -0.4332
11892SOL    HW136892   4.062   4.631   6.156  0.0713  0.0945 -0.8437
11892SOL    HW236893   4.066   4.775   6.202  0.6507 -0.0012 -0.5914
11893SOL     OW36894   3.499   5.443   4.426  0.3785 -0.2129  0.3888
11893SOL    HW136895   3.528   5.401   4.507  0.7301 -0.5649  0.0870
11893SOL    HW236896   3.566   5.420   4.362  0.9010  1.2899  0.3458
11894SOL     OW36897   4.569   4.154   4.704 -0.0664 -0.6972  0.6001
11894SOL    HW136898   4.508   4.142   4.777  1.4347 -0.7720  1.8971
11894SOL    HW236899   4.550   4.242   4.671 -0.1209 -0.2704  1.7240
11895SOL     OW36900   4.482   4.470   4.050  0.1668 -0.0418 -0.0533
11895SOL    HW136901   4.497   4.563   4.035  0.7505 -0.2661 -0.9671
11895SOL    HW236902   4.522   4.427   3.975 -2.6839 -0.8886 -1.2084
11896SOL     OW36903   4.046   5.114   5.447  0.2204 -0.2075  0.3865
11896SOL    HW136904   4.081   5.124   5.358  0.3261  1.8032  0.6158
11896SOL    HW236905   3.951   5.119   5.435  0.2676  1.2371  0.4852
11897SOL     OW36906   4.419   4.245   4.433  0.0416  0.5055  0.1759
11897SOL    HW136907   4.422   4.150   4.440 -1.2761  0.4758  0.5023
11897SOL    HW236908   4.496   4.275   4.482  1.3411 -0.4143 -1.1933
11898SOL     OW36909   4.460   5.202   5.013  0.7390  0.0992 -0.1327
11898SOL    HW136910   4.488   5.213   4.922  1.5147 -0.4647  0.0229
11898SOL    HW236911   4.505   5.123   5.042  2.1084  1.3628  1.3708
11899SOL     OW36912   3.921   3.973   4.129  0.3666 -0.0409 -0.5647
11899SOL    HW136913   3.913   4.064   4.158  0.6798 -0.3088  0.3828
11899SOL    HW236914   3.831   3.941   4.123  0.2529  0.3546 -0.9768
11900SOL     OW36915   3.886   4.876   5.494  0.0611  0.0624 -0.4705
11900SOL    HW136916   3.819   4.935   5.460 -0.9697 -0.6263  0.3006
11900SOL    HW236917   3.963   4.932   5.508 -0.3133  0.8419 -1.4559
11901SOL     OW36918   5.030   4.292   4.883 -0.4675 -0.1111  0.2326
11901SOL    HW136919   5.117   4.297   4.923 -1.1465  0.4445  1.7292
11901SOL    HW236920   5.027   4.205   4.843  0.5511 -0.3817  0.7095
11902SOL     OW36921   5.506   5.229   4.967 -0.1624 -0.2227 -0.2468
11902SOL    HW136922   5.447   5.220   4.892 -0.1874 -1.8996 -0.0694
11902SOL    HW236923   5.491   5.149   5.019  1.2089  0.0139  0.5582
11903SOL     OW36924   4.889   5.405   4.795 -0.3709  0.0097 -0.6178
11903SOL    HW136925   4.921   5.320   4.765 -0.5142  0.1180 -1.0842
11903SOL    HW236926   4.834   5.437   4.723 -0.8083  0.2250 -0.1959
11904SOL     OW36927   4.448   5.292   5.279 -0.4670  0.2793  0.0633
11904SOL    HW136928   4.366   5.243   5.276  0.2614 -0.9414 -1.3480
11904SOL    HW236929   4.485   5.283   5.192  1.8042 -0.3292  1.0076
11905SOL     OW36930   5.619   3.908   4.019  0.1179  0.2311 -0.0859
11905SOL    HW136931   5.556   3.980   4.018 -1.0744 -0.7885 -0.3885
11905SOL    HW236932   5.583   3.843   3.958 -0.6695 -2.1254  2.6654
11906SOL     OW36933   3.923   5.558   5.484  0.0978  0.3332 -0.3773
11906SOL    HW136934   4.016   5.545   5.462  0.1909  0.5605 -0.1294
11906SOL    HW236935   3.891   5.471   5.506  0.1053  0.1630 -1.0185
11907SOL     OW36936   4.758   4.857   4.517  0.1500 -1.0296 -0.0809
11907SOL    HW136937   4.682   4.855   4.459  0.9199 -0.3871 -1.1524
11907SOL    HW236938   4.833   4.861   4.458  0.9259  1.0058  0.9165
11908SOL     OW36939   4.391   4.681   5.111 -0.0776  0.1267 -0.2956
11908SOL    HW136940   4.472   4.633   5.128 -0.5500 -0.8180 -0.6590
11908SOL    HW236941   4.397   4.706   5.019  1.1170  2.6474  0.3610
11909SOL     OW36942   5.120   5.674   4.973 -0.4212 -0.3801 -0.4005
11909SOL    HW136943   5.069   5.681   5.054 -0.9989  1.4080 -0.8649
11909SOL    HW236944   5.127   5.580   4.958 -0.8888 -0.7468  1.3526
11910SOL     OW36945   5.144   3.772   4.511  0.2872 -0.3671 -0.1786
11910SOL    HW136946   5.124   3.862   4.485  3.1918  0.4399  0.0384
11910SOL    HW236947   5.121   3.768   4.603 -0.8764 -0.2148 -0.4463
11911SOL     OW36948   4.715   5.550   3.610 -0.5044  0.1709 -0.2510
11911SOL    HW136949   4.764   5.485   3.660 -1.2889 -0.6227 -0.4941
11911SOL    HW236950   4.679   5.501   3.535  1.3054  1.4740 -2.0827
11912SOL     OW36951   4.482   4.752   4.860  0.3680  0.0647 -0.3376
11912SOL    HW136952   4.454   4.698   4.787  1.7281  1.8860 -2.3187
11912SOL    HW236953   4.577   4.739   4.865  0.3578  0.3026  0.8460
11913SOL     OW36954   4.564   5.763   3.689  0.1394  0.2422  0.2800
11913SOL    HW136955   4.486   5.711   3.708  0.3711 -0.0790  0.3574
11913SOL    HW236956   4.626   5.700   3.653  0.1383  0.6136 -0.3873
11914SOL     OW36957   4.177   5.199   5.220 -0.5676  0.6595 -0.2773
11914SOL    HW136958   4.162   5.277   5.165  1.0958  0.8061 -0.5627
11914SOL    HW236959   4.213   5.134   5.160  0.6029  0.5828  0.4842
11915SOL     OW36960   5.061   5.115   4.961 -0.4204  0.4787 -0.4683
11915SOL    HW136961   5.100   5.029   4.978 -0.6477  0.0754 -1.8578
11915SOL    HW236962   5.012   5.103   4.880  0.7711  2.3158 -1.5276
11916SOL     OW36963   4.552   4.677   4.436 -0.1645  1.0614 -0.1691
11916SOL    HW136964   4.529   4.694   4.345  2.1964  0.7392 -0.8822
11916SOL    HW236965   4.477   4.710   4.486 -2.8621 -1.3213 -2.3012
11917SOL     OW36966   4.830   3.892   4.586 -0.2958 -0.3179 -0.2894
11917SOL    HW136967   4.743   3.855   4.572 -0.8879  0.0724  2.0236
11917SOL    HW236968   4.878   3.824   4.632  0.1310  0.0232 -0.2245
11918SOL     OW36969   4.218   4.526   5.700 -0.2822 -0.1459 -0.2844
11918SOL    HW136970   4.213   4.478   5.618  0.1624  2.0332 -1.6801
11918SOL    HW236971   4.292   4.486   5.747 -0.1195 -0.9900 -1.2266
11919SOL     OW36972   3.774   3.887   3.847 -0.2830  0.7940  0.0734
11919SOL    HW136973   3.868   3.903   3.848  0.2158 -1.5467  2.3789
11919SOL    HW236974   3.755   3.855   3.936 -3.1697  0.7255 -0.4810
11920SOL     OW36975   4.876   4.519   5.139 -0.3523  0.1687  0.5908
11920SOL    HW136976   4.781   4.510   5.150 -0.4300  0.4254  0.1548
11920SOL    HW236977   4.894   4.483   5.052 -0.2976  1.6364 -0.0423
11921SOL     OW36978   4.416   4.483   5.472  0.4393  0.6581 -0.0267
11921SOL    HW136979   4.332   4.477   5.428 -0.4943  2.0375  1.4554
11921SOL    HW236980   4.441   4.392   5.489 -0.7442  0.2289 -0.4878
11922SOL     OW36981   5.308   5.739   4.601  0.3947  0.2404 -0.3273
11922SOL    HW136982   5.281   5.653   4.632  1.4487 -0.7113 -1.8956
11922SOL    HW236983   5.269   5.801   4.663 -0.8465 -1.3224  0.5156
11923SOL     OW36984   5.189   4.544   5.045 -0.4723 -0.0639 -0.0244
11923SOL    HW136985   5.208   4.460   5.087  1.0506  0.9097  1.3336
11923SOL    HW236986   5.190   4.607   5.116 -0.4594  1.2804 -1.1810
11924SOL     OW36987   4.968   4.107   3.987  0.0072 -0.1917  0.0990
11924SOL    HW136988   5.061   4.082   3.989  0.6783  2.0025 -0.1289
11924SOL    HW236989   4.920   4.025   3.995  1.9572 -1.5487 -1.2424
11925SOL     OW36990   4.754   4.727   4.810  0.0252  0.0534 -0.4573
11925SOL    HW136991   4.785   4.640   4.837 -0.9716 -0.2387 -0.2203
11925SOL    HW236992   4.767   4.728   4.715  0.3890 -0.2062 -0.4157
11926SOL     OW36993   5.494   5.200   4.609  0.1736 -0.5556 -0.7644
11926SOL    HW136994   5.420   5.174   4.663  0.9109 -0.7496  0.1738
11926SOL    HW236995   5.509   5.125   4.551  0.9440 -1.4112  0.4878
11927SOL     OW36996   4.615   4.808   5.386 -0.0948 -0.1657  0.5080
11927SOL    HW136997   4.689   4.847   5.431  0.9515  0.1131 -1.3734
11927SOL    HW236998   4.572   4.754   5.453  1.7489 -0.2815  1.6630
11928SOL     OW36999   5.458   3.950   4.753  0.1053  1.0186  0.3594
11928SOL    HW137000   5.419   4.011   4.690  1.6762  2.5101  0.7652
11928SOL    HW237001   5.457   3.996   4.836 -0.5122 -0.3277  1.1369
11929SOL     OW37002   4.274   4.356   4.220  0.0414  0.5036  0.3854
11929SOL    HW137003   4.339   4.406   4.170  0.4476  1.0826  1.4594
11929SOL    HW237004   4.316   4.339   4.304  0.9868 -3.9454 -0.7285
11930SOL     OW37005   4.952   5.137   4.702  0.7829  0.1818 -0.0009
11930SOL    HW137006   4.862   5.105   4.706  1.3765 -1.6927 -0.7086
11930SOL    HW237007   4.978   5.124   4.611  1.6690  1.0258  0.1179
11931SOL     OW37008   4.884   4.593   4.270 -0.1230  0.9041  0.2563
11931SOL    HW137009   4.856   4.636   4.188  1.2362 -1.4954 -1.6084
11931SOL    HW237010   4.818   4.526   4.286 -0.7449  1.7929  1.5754
11932SOL     OW37011   4.992   4.035   4.794 -0.1287  0.4611 -0.5035
11932SOL    HW137012   5.047   3.956   4.791  0.7076  1.0088 -0.0865
11932SOL    HW237013   4.922   4.018   4.731  0.6506 -0.1641 -1.2299
11933SOL     OW37014   3.701   4.910   5.686 -0.2884  0.1442 -0.5452
11933SOL    HW137015   3.644   4.835   5.671 -2.0078  1.5426 -1.2740
11933SOL    HW237016   3.789   4.877   5.666 -0.8178 -1.9933  0.3688
11934SOL     OW37017   4.042   4.438   6.395  0.2134 -0.1226 -0.5343
11934SOL    HW137018   4.056   4.358   6.345  1.0453 -0.1944 -0.2030
11934SOL    HW237019   4.068   4.509   6.336 -0.4935 -0.0934 -0.8163
11935SOL     OW37020   3.793   4.292   6.231  0.3725 -0.2973 -0.0383
11935SOL    HW137021   3.751   4.271   6.148  0.3988 -0.4484 -0.0144
11935SOL    HW237022   3.887   4.295   6.210  0.2590  2.1964 -0.5756
11936SOL     OW37023   5.298   5.362   5.748  0.1431 -0.1715  0.2957
11936SOL    HW137024   5.265   5.335   5.662  0.2287 -1.7826  0.7354
11936SOL    HW237025   5.219   5.371   5.802 -0.0463  2.2295 -0.2538
11937SOL     OW37026   5.440   4.375   5.833 -0.4305  0.3102 -0.2193
11937SOL    HW137027   5.507   4.438   5.861 -0.8121 -0.4051  2.6314
11937SOL    HW237028   5.358   4.424   5.836 -0.7231 -0.1954  1.9702
11938SOL     OW37029   4.532   4.672   7.224 -0.4219  0.2334 -0.1483
11938SOL    HW137030   4.622   4.695   7.246 -0.7395  0.3538  1.0885
11938SOL    HW237031   4.521   4.703   7.134  0.9272 -0.2832 -0.5138
11939SOL     OW37032   4.544   4.878   7.511 -0.0871  0.0077  0.4349
11939SOL    HW137033   4.593   4.827   7.447  1.1798  0.8119  0.7454
11939SOL    HW237034   4.512   4.813   7.574 -0.7651 -0.7018 -0.6016
11940SOL     OW37035   4.196   3.742   7.106 -0.0810 -0.3599  0.7993
11940SOL    HW137036   4.104   3.729   7.127 -0.2288  0.9383  1.0608
11940SOL    HW237037   4.223   3.815   7.162  0.6244  0.4631 -0.5561
11941SOL     OW37038   4.156   5.605   6.971  0.3282 -0.0072  0.2070
11941SOL    HW137039   4.235   5.654   6.950 -0.9036  1.3082 -1.6140
11941SOL    HW237040   4.087   5.671   6.979 -0.7730 -1.1822  0.8888
11942SOL     OW37041   3.983   4.716   5.728 -0.0026  0.1058  0.7769
11942SOL    HW137042   4.057   4.657   5.740  0.4664  0.6829  0.7736
11942SOL    HW237043   3.993   4.749   5.639  0.4394  1.1221  1.1871
11943SOL     OW37044   4.876   4.016   6.906 -0.2704 -0.3250 -0.0937
11943SOL    HW137045   4.843   3.957   6.837 -0.4178 -1.3478  0.8275
11943SOL    HW237046   4.884   4.101   6.862 -0.7682 -0.8507 -1.2643
11944SOL     OW37047   3.877   4.306   5.922  0.1117 -0.0334  0.3799
11944SOL    HW137048   3.835   4.373   5.868  0.4905  0.5495  0.7909
11944SOL    HW237049   3.807   4.245   5.944 -0.2279  0.1914 -0.0551
11945SOL     OW37050   5.618   5.346   6.367  0.2596 -0.0661 -0.0224
11945SOL    HW137051   5.669   5.426   6.354 -2.1857  1.8943  1.3330
11945SOL    HW237052   5.676   5.287   6.413  2.1861  0.8837 -1.1189
11946SOL     OW37053   4.085   5.271   5.760  0.3777 -0.6219 -0.4178
11946SOL    HW137054   3.996   5.246   5.736  0.6234 -0.5252 -1.4542
11946SOL    HW237055   4.080   5.288   5.854 -0.9883  0.6475 -0.6813
11947SOL     OW37056   5.556   4.832   6.564  0.2662 -0.6604 -0.5426
11947SOL    HW137057   5.502   4.855   6.640  1.7482 -0.3175  0.4380
11947SOL    HW237058   5.507   4.867   6.489 -0.1641  0.9584  0.4367
11948SOL     OW37059   5.256   4.916   6.108 -0.4566  0.0937  0.1062
11948SOL    HW137060   5.169   4.877   6.104 -0.7165  0.7561 -2.0997
11948SOL    HW237061   5.252   4.991   6.048  1.6106  0.1452 -0.0473
11949SOL     OW37062   3.641   4.203   6.950  0.3149 -0.5173 -0.0342
11949SOL    HW137063   3.585   4.145   7.001 -0.2743 -0.1150 -0.2192
11949SOL    HW237064   3.589   4.282   6.938  0.9788 -0.0774 -0.0761
11950SOL     OW37065   4.936   5.773   7.190  0.0176  0.5931  0.2543
11950SOL    HW137066   4.961   5.687   7.155  1.8281  0.7000  1.1895
11950SOL    HW237067   4.841   5.768   7.197 -0.0259 -0.9339 -0.7271
11951SOL     OW37068   4.101   3.454   6.985 -0.3979  0.4809  0.2192
11951SOL    HW137069   4.172   3.507   6.949 -0.2837 -0.2610 -0.6835
11951SOL    HW237070   4.025   3.477   6.932 -0.2249 -0.6258 -0.5562
11952SOL     OW37071   5.395   4.885   6.333  0.6736 -0.2174 -0.5887
11952SOL    HW137072   5.320   4.879   6.275  0.6253 -0.4101 -0.5066
11952SOL    HW237073   5.419   4.978   6.331 -0.1303  0.0220  0.0923
11953SOL     OW37074   5.648   5.867   6.252 -0.1074 -0.2425 -0.4117
11953SOL    HW137075   5.658   5.876   6.347 -1.6562  3.2442 -0.4110
11953SOL    HW237076   5.567   5.818   6.241 -0.4206  0.1419  0.1025
11954SOL     OW37077   4.440   4.432   5.801  0.4014  0.5023  0.1460
11954SOL    HW137078   4.534   4.437   5.816  0.3747 -0.4915  0.7093
11954SOL    HW237079   4.415   4.345   5.833 -0.9364  1.2898  1.3709
11955SOL     OW37080   5.684   5.364   5.357 -0.5571  0.3342 -0.2524
11955SOL    HW137081   5.690   5.338   5.266 -1.9856  3.6649 -1.4500
11955SOL    HW237082   5.598   5.335   5.386 -0.3428 -0.1964 -0.1439
11956SOL     OW37083   4.536   4.237   7.140  0.0422 -0.1403  0.7184
11956SOL    HW137084   4.533   4.177   7.066  0.2680 -0.9903  1.3741
11956SOL    HW237085   4.516   4.323   7.103 -2.5356 -0.9169  0.0924
11957SOL     OW37086   4.904   4.291   6.833  0.0906 -0.5346 -0.0870
11957SOL    HW137087   4.940   4.356   6.773  0.0039  1.2088  1.6560
11957SOL    HW237088   4.938   4.316   6.919 -1.5811 -1.5960  0.9436
11958SOL     OW37089   4.498   4.451   6.957 -0.8230 -0.1738 -0.6799
11958SOL    HW137090   4.412   4.445   6.916  0.3117  0.3063 -3.3116
11958SOL    HW237091   4.545   4.517   6.906  0.5350  0.9910  1.8695
11959SOL     OW37092   4.644   4.167   6.758  0.0055 -0.3257 -0.2253
11959SOL    HW137093   4.623   4.249   6.712 -3.2211 -1.8987 -1.9402
11959SOL    HW237094   4.734   4.179   6.788 -0.1188  3.6190 -0.8014
11960SOL     OW37095   4.114   5.789   6.707  0.7310  0.5384 -0.3288
11960SOL    HW137096   4.070   5.704   6.703  0.4997  0.6774 -0.7225
11960SOL    HW237097   4.207   5.768   6.695  0.7186  0.3048 -0.0469
11961SOL     OW37098   5.148   4.035   7.357  0.1591 -0.1841 -0.3100
11961SOL    HW137099   5.098   4.110   7.325 -0.0169 -1.0262 -2.1422
11961SOL    HW237100   5.232   4.039   7.311  0.2121 -0.9984 -0.3109
11962SOL     OW37101   4.431   3.927   6.201 -0.1672 -0.3447  0.3526
11962SOL    HW137102   4.388   4.010   6.180 -0.3271  0.6072  3.7025
11962SOL    HW237103   4.521   3.938   6.170 -0.1560  1.1664  0.8407
11963SOL     OW37104   5.745   4.808   6.755 -0.2807  0.3020  0.1803
11963SOL    HW137105   5.682   4.807   6.683  1.0614 -0.3905 -1.0332
11963SOL    HW237106   5.717   4.881   6.811 -2.5806 -0.4684  0.1021
11964SOL     OW37107   4.277   4.938   5.923  0.3922 -0.1510  0.3284
11964SOL    HW137108   4.342   4.872   5.946  2.9561  1.5542 -1.3849
11964SOL    HW237109   4.329   5.016   5.903 -2.4705  2.5300  2.4688
11965SOL     OW37110   4.256   4.628   7.282 -0.0175 -0.0423  0.4699
11965SOL    HW137111   4.232   4.700   7.224  0.8405 -0.6246 -0.6528
11965SOL    HW237112   4.351   4.627   7.282 -0.0180 -1.0512  0.6146
11966SOL     OW37113   4.199   4.167   6.560 -0.6120  0.7081  0.2362
11966SOL    HW137114   4.120   4.171   6.614 -0.7923  1.0134 -0.0507
11966SOL    HW237115   4.197   4.246   6.507 -0.7483  0.1242 -0.6553
11967SOL     OW37116   3.958   5.527   6.647  0.1351 -0.0072  0.0784
11967SOL    HW137117   4.019   5.499   6.579  0.5166  0.1957  0.3303
11967SOL    HW237118   3.872   5.526   6.605  0.5132  1.2979 -0.7656
11968SOL     OW37119   3.734   4.885   6.064  0.6498  0.1618 -0.0568
11968SOL    HW137120   3.826   4.911   6.067  0.9606 -0.8984 -0.1498
11968SOL    HW237121   3.707   4.882   6.156  1.6024 -2.5415  0.2077
11969SOL     OW37122   5.304   3.815   7.502  0.0195 -0.1399  0.3316
11969SOL    HW137123   5.341   3.848   7.583  2.4901  0.2200 -0.8690
11969SOL    HW237124   5.260   3.890   7.463  0.9084  0.3228  0.2047
11970SOL     OW37125   4.555   3.888   7.403 -0.2223  0.3398  0.0075
11970SOL    HW137126   4.646   3.869   7.422 -0.2865 -0.9827 -0.8890
11970SOL    HW237127   4.550   3.886   7.307 -1.0865  0.9479  0.0275
11971SOL     OW37128   5.115   4.368   7.007  0.2848 -0.5742  0.4560
11971SOL    HW137129   5.175   4.302   6.973  0.3411 -0.9874  1.3179
11971SOL    HW237130   5.172   4.428   7.057  0.4391  0.9121 -1.3690
11972SOL     OW37131   4.738   4.471   7.171 -0.6082  0.0149  0.1846
11972SOL    HW137132   4.716   4.448   7.080 -0.5807  0.3183  0.1012
11972SOL    HW237133   4.661   4.517   7.203 -1.0498 -1.0092  0.6567
11973SOL     OW37134   5.181   5.213   6.281  0.0839  0.7302 -0.1799
11973SOL    HW137135   5.100   5.264   6.272 -1.2494 -1.3646 -0.6951
11973SOL    HW237136   5.179   5.180   6.370  0.3808  0.6678 -0.1952
11974SOL     OW37137   4.895   5.274   6.285  0.0183 -0.7189  0.2835
11974SOL    HW137138   4.865   5.271   6.194  0.3846 -2.7515  0.1922
11974SOL    HW237139   4.840   5.212   6.331 -1.0247  1.2201  1.7903
11975SOL     OW37140   3.875   4.041   6.644  0.0005  0.9542 -0.1143
11975SOL    HW137141   3.837   4.071   6.561 -3.1271 -3.0737 -0.4730
11975SOL    HW237142   3.924   3.962   6.621  0.5383  0.7155  1.6711
11976SOL     OW37143   4.607   3.809   6.577  0.0698  0.7200 -0.2814
11976SOL    HW137144   4.581   3.731   6.528  0.3435  0.6621 -0.3345
11976SOL    HW237145   4.556   3.880   6.538 -1.1383  0.3722  0.5971
11977SOL     OW37146   5.463   3.928   6.183  0.3505  0.5595  0.1760
11977SOL    HW137147   5.399   3.981   6.135  0.9101  2.1362  1.0788
11977SOL    HW237148   5.473   3.848   6.131 -0.6578  1.2699 -1.1642
11978SOL     OW37149   4.418   5.150   5.815 -0.1941  0.1039 -0.3125
11978SOL    HW137150   4.483   5.114   5.755 -1.1530  0.3909 -1.5445
11978SOL    HW237151   4.432   5.245   5.811 -0.2155  0.1210 -0.0165
11979SOL     OW37152   5.508   5.024   5.927 -0.3481  0.2108  0.2315
11979SOL    HW137153   5.455   4.949   5.954  1.8817 -0.8887  1.9459
11979SOL    HW237154   5.522   5.074   6.008 -0.2630  1.4655 -0.5371
11980SOL     OW37155   5.148   5.359   6.846  0.0191 -0.2869  0.2670
11980SOL    HW137156   5.112   5.293   6.906 -1.9954  1.4681  1.0992
11980SOL    HW237157   5.230   5.386   6.887 -0.2852 -0.6310  1.1289
11981SOL     OW37158   4.956   3.579   6.931 -0.2756 -0.7050 -0.1231
11981SOL    HW137159   4.905   3.640   6.984  2.9652  1.2930  0.9950
11981SOL    HW237160   4.949   3.612   6.841 -2.4312 -1.6762 -0.3815
11982SOL     OW37161   4.394   4.683   5.966  0.0804  0.0673  0.1038
11982SOL    HW137162   4.423   4.599   5.930  0.8179 -0.9676  2.8198
11982SOL    HW237163   4.475   4.729   5.988 -0.2360 -0.2035  2.0863
11983SOL     OW37164   4.843   3.829   6.719  0.4531 -0.2668  0.5501
11983SOL    HW137165   4.904   3.765   6.683  0.3246 -0.1225  0.0574
11983SOL    HW237166   4.762   3.814   6.669 -0.0732 -0.7840  1.5207
11984SOL     OW37167   3.760   5.460   7.033 -0.2187 -0.6896 -0.4963
11984SOL    HW137168   3.814   5.391   6.994 -0.0280 -0.3105 -0.9147
11984SOL    HW237169   3.757   5.528   6.967 -1.9986 -1.0844 -0.8632
11985SOL     OW37170   4.031   4.542   6.024 -0.3801 -0.2798  0.1531
11985SOL    HW137171   4.015   4.447   6.026  1.3063 -0.5870  1.4713
11985SOL    HW237172   4.091   4.554   5.950 -2.5393  0.1761 -1.6308
11986SOL     OW37173   4.385   4.477   6.158 -0.2682  0.0078  0.2847
11986SOL    HW137174   4.339   4.553   6.122  0.7310  0.2365 -0.5686
11986SOL    HW237175   4.468   4.512   6.190 -0.4742 -0.4712  1.3797
11987SOL     OW37176   5.395   4.473   6.192  0.4936  0.7885 -0.6793
11987SOL    HW137177   5.447   4.482   6.271 -0.2821 -2.1093  0.2732
11987SOL    HW237178   5.318   4.423   6.219 -0.3406  0.6422 -3.0384
11988SOL     OW37179   3.888   5.261   6.881 -0.3309 -0.1281 -0.3030
11988SOL    HW137180   3.896   5.166   6.875 -1.2328 -0.1210 -2.8418
11988SOL    HW237181   3.975   5.293   6.857 -0.5473 -0.3109 -1.3655
11989SOL     OW37182   4.018   4.417   7.049  0.1270  0.6016  0.1790
11989SOL    HW137183   4.075   4.446   7.120  0.9123 -0.2536 -0.0805
11989SOL    HW237184   3.996   4.497   7.002 -0.8208  1.2456  1.6648
11990SOL     OW37185   4.872   3.819   7.681  0.5627  0.3570  0.1288
11990SOL    HW137186   4.903   3.898   7.637  0.6689 -0.7234 -1.8756
11990SOL    HW237187   4.894   3.748   7.620  0.4006 -1.2155  1.8238
11991SOL     OW37188   4.261   3.915   6.657 -0.7947 -0.2518 -0.2237
11991SOL    HW137189   4.231   4.002   6.632 -0.5631 -0.4565 -1.2299
11991SOL    HW237190   4.254   3.862   6.578  0.4478 -0.7784 -0.0170
11992SOL     OW37191   4.518   4.049   6.474  0.2685  0.1139  0.3166
11992SOL    HW137192   4.490   4.062   6.565 -0.1572 -1.9478  0.5178
11992SOL    HW237193   4.442   4.074   6.422 -0.6286 -1.6924  0.6963
11993SOL     OW37194   4.269   4.414   6.825  0.2130 -0.6262  0.1016
11993SOL    HW137195   4.224   4.464   6.758  0.3825 -1.3174 -0.5477
11993SOL    HW237196   4.309   4.341   6.778 -0.5630 -1.7449  1.1024
11994SOL     OW37197   5.491   4.140   5.955  0.4412  0.2279  0.0649
11994SOL    HW137198   5.574   4.162   5.996  1.5551  0.2400 -2.0558
11994SOL    HW237199   5.462   4.221   5.913 -1.7944  0.8377  2.4713
11995SOL     OW37200   5.537   5.326   7.196  0.5722 -0.2326 -0.0991
11995SOL    HW137201   5.460   5.331   7.254  1.4669  0.8887  1.0571
11995SOL    HW237202   5.514   5.381   7.121  0.2395  0.1119  0.2489
11996SOL     OW37203   4.003   4.575   7.381  0.2180  0.3274 -0.4713
11996SOL    HW137204   4.099   4.573   7.381  0.2250  0.7060 -0.5400
11996SOL    HW237205   3.978   4.484   7.398  0.5616 -0.4450 -3.4889
11997SOL     OW37206   5.443   3.903   5.782 -0.4191 -1.0774  0.2267
11997SOL    HW137207   5.380   3.881   5.849 -2.5431  1.3645 -0.7721
11997SOL    HW237208   5.491   3.978   5.818 -1.5890  0.2632 -0.8908
11998SOL     OW37209   3.687   4.351   6.516  0.0030  0.5192 -0.1400
11998SOL    HW137210   3.711   4.396   6.434  0.4821 -0.5763 -0.6240
11998SOL    HW237211   3.647   4.420   6.570  0.7369  1.5266 -0.8347
11999SOL     OW37212   4.109   4.551   6.645  0.4320  0.1265  0.4720
11999SOL    HW137213   4.083   4.509   6.562 -0.7238  0.3887  0.6823
11999SOL    HW237214   4.107   4.645   6.626 -3.4009  0.4479  1.6697
12000SOL     OW37215   4.976   4.302   7.253 -0.3112 -0.2064 -0.1465
12000SOL    HW137216   5.024   4.318   7.172 -1.7202 -0.8819 -1.1511
12000SOL    HW237217   4.893   4.348   7.241 -1.5288 -2.3079 -0.1436
12001SOL     OW37218   4.569   3.867   7.125 -0.3045  0.1225  0.0485
12001SOL    HW137219   4.499   3.860   7.061 -0.3553 -0.1127  0.1281
12001SOL    HW237220   4.650   3.861   7.073 -0.3465 -0.7703  0.0750
12002SOL     OW37221   4.045   4.970   5.734  0.1815 -0.1762 -0.5280
12002SOL    HW137222   4.005   4.885   5.750  0.3767 -0.2936 -0.6604
12002SOL    HW237223   4.101   4.985   5.809 -0.4467  0.1934 -0.1182
12003SOL     OW37224   4.582   4.409   6.662  0.0833  0.2621  0.3421
12003SOL    HW137225   4.615   4.488   6.705 -0.6272 -0.3011  2.0056
12003SOL    HW237226   4.547   4.440   6.579 -0.0327  1.6695  0.8851
12004SOL     OW37227   3.907   4.357   6.780 -0.6555 -0.2371  0.2891
12004SOL    HW137228   3.882   4.366   6.688  0.7436 -2.7864 -0.4369
12004SOL    HW237229   3.966   4.431   6.796  0.0213 -0.4115 -1.2512
12005SOL     OW37230   3.851   4.117   7.130 -0.3182  0.2592 -0.3631
12005SOL    HW137231   3.888   4.035   7.163 -0.2331  1.0316  1.6292
12005SOL    HW237232   3.757   4.110   7.146 -0.1328  1.1458  1.3405
12006SOL     OW37233   3.658   5.365   6.738 -0.7904  0.5907  0.3670
12006SOL    HW137234   3.631   5.275   6.757  0.6415  0.5550  2.6120
12006SOL    HW237235   3.748   5.370   6.771 -0.4404  2.5479 -0.7356
12007SOL     OW37236   4.254   4.205   7.205 -0.0152 -0.2051  0.2230
12007SOL    HW137237   4.212   4.164   7.129  0.9999 -1.6434  0.4085
12007SOL    HW237238   4.347   4.207   7.183  0.1877  0.1575  1.0789
12008SOL     OW37239   4.187   4.259   5.898  0.4321  0.0826  0.1979
12008SOL    HW137240   4.092   4.261   5.903  0.5175  0.5000  2.2757
12008SOL    HW237241   4.206   4.214   5.816 -1.5524 -4.6308  2.0313
12009SOL     OW37242   5.468   5.121   6.623  0.1383  0.1238 -0.5002
12009SOL    HW137243   5.550   5.136   6.575 -0.6906  0.2312 -1.9320
12009SOL    HW237244   5.458   5.199   6.678  1.1779 -0.0628 -0.0232
12010SOL     OW37245   4.780   5.334   6.725 -0.1681  0.0356  0.5237
12010SOL    HW137246   4.845   5.315   6.658  0.1706 -0.6027  1.0225
12010SOL    HW237247   4.749   5.248   6.754 -0.4701  0.3072  1.0316
12011SOL     OW37248   5.772   3.652   6.251 -0.0146 -0.1569 -0.2760
12011SOL    HW137249   5.845   3.590   6.253  0.6244  0.5762 -0.5751
12011SOL    HW237250   5.702   3.605   6.205  1.0832 -0.0030 -2.1769
12012SOL     OW37251   4.035   5.284   7.169  0.4052  0.2992  0.1766
12012SOL    HW137252   3.964   5.313   7.112  1.3829  0.0433 -1.2487
12012SOL    HW237253   4.006   5.200   7.204 -1.0172  1.3475  1.6329
12013SOL     OW37254   5.023   5.234   6.615  0.1318  0.1565 -0.3938
12013SOL    HW137255   5.067   5.275   6.689  0.8628 -0.1985 -0.6253
12013SOL    HW237256   5.090   5.179   6.574 -0.7940 -1.2284 -0.1286
12014SOL     OW37257   3.947   3.978   6.232 -0.0351 -0.5256  0.2729
12014SOL    HW137258   3.937   4.033   6.154 -1.8976  0.1747  0.9586
12014SOL    HW237259   3.967   3.891   6.197 -1.7853 -0.4470 -1.0621
12015SOL     OW37260   5.435   5.559   5.848 -0.0325 -0.2952  0.4136
12015SOL    HW137261   5.387   5.483   5.816 -0.2657  0.4045 -0.9778
12015SOL    HW237262   5.370   5.610   5.897 -1.0884  1.1223 -2.2383
12016SOL     OW37263   4.788   3.443   6.655  0.1367 -0.9845 -0.6059
12016SOL    HW137264   4.723   3.464   6.587 -1.2123 -1.0319  0.6215
12016SOL    HW237265   4.854   3.511   6.646  0.3215 -1.3382 -2.3628
12017SOL     OW37266   3.741   4.400   7.452  0.8056 -0.3075 -0.1203
12017SOL    HW137267   3.818   4.412   7.508 -0.7338 -1.3714  2.4075
12017SOL    HW237268   3.746   4.309   7.424  2.0394  0.4451 -2.6327
12018SOL     OW37269   5.065   3.794   7.227 -0.0849  0.3662 -0.0880
12018SOL    HW137270   5.082   3.886   7.244 -0.1358  0.0382  1.9090
12018SOL    HW237271   5.151   3.757   7.206  0.1429  0.6117  0.4048
12019SOL     OW37272   5.377   5.749   6.290  0.5052  0.0776 -0.1912
12019SOL    HW137273   5.345   5.786   6.373  1.6869  0.1860  0.2230
12019SOL    HW237274   5.321   5.790   6.223 -0.9194 -0.5426  0.5884
12020SOL     OW37275   4.271   3.926   7.350 -0.0715  0.6858  0.0395
12020SOL    HW137276   4.264   4.019   7.325 -1.0074  0.9338  1.1364
12020SOL    HW237277   4.364   3.913   7.365  0.2239  1.1308 -1.2635
12021SOL     OW37278   4.149   5.905   6.986  0.1430 -0.1852 -0.3231
12021SOL    HW137279   4.201   5.983   7.003  0.8519 -0.4511 -1.2282
12021SOL    HW237280   4.157   5.890   6.892  1.9840 -2.6595  0.1104
12022SOL     OW37281   4.385   4.493   6.451 -0.1463  0.3110  0.4072
12022SOL    HW137282   4.419   4.569   6.402  1.0736 -1.4157 -1.5688
12022SOL    HW237283   4.351   4.434   6.384  1.3581 -2.0599  1.5881
12023SOL     OW37284   4.640   4.979   5.671 -0.4752 -0.0948  0.5142
12023SOL    HW137285   4.564   4.928   5.641 -2.2289  2.1832  0.8485
12023SOL    HW237286   4.706   4.966   5.603 -1.3764 -1.6131 -0.1212
12024SOL     OW37287   3.968   5.788   7.156 -0.3707 -0.3922  0.1511
12024SOL    HW137288   3.998   5.780   7.247  0.1007 -0.5951 -0.0164
12024SOL    HW237289   4.042   5.829   7.111  0.1570 -2.0359 -0.5263
12025SOL     OW37290   5.561   5.281   5.736 -0.2910  0.0541 -0.0873
12025SOL    HW137291   5.472   5.316   5.748 -0.5258 -1.0204  1.6388
12025SOL    HW237292   5.556   5.192   5.770  1.4222 -0.0808 -0.1218
12026SOL     OW37293   4.204   4.934   7.225 -0.5353  0.1950 -0.3908
12026SOL    HW137294   4.175   4.944   7.134 -0.7741 -0.6000 -0.4140
12026SOL    HW237295   4.123   4.923   7.275 -0.3287 -1.9203 -0.4344
12027SOL     OW37296   5.387   3.420   6.852 -0.6608 -0.3369 -0.4653
12027SOL    HW137297   5.415   3.510   6.867 -0.4281 -0.4561 -0.1692
12027SOL    HW237298   5.295   3.427   6.827 -1.0078 -0.0945  0.8018
12028SOL     OW37299   4.362   4.182   6.128 -0.1461 -0.6322  0.2118
12028SOL    HW137300   4.372   4.162   6.035  0.7627 -2.1698  0.6080
12028SOL    HW237301   4.367   4.278   6.133 -1.3849 -0.4283 -1.4288
12029SOL     OW37302   5.215   5.075   6.516 -0.1165  0.3030 -0.4865
12029SOL    HW137303   5.296   5.060   6.564 -1.4012  2.0222  2.4418
12029SOL    HW237304   5.171   4.990   6.515 -0.1280  0.2344  1.6726
12030SOL     OW37305   4.123   4.145   6.906 -0.6171 -0.1113  0.0388
12030SOL    HW137306   4.126   4.241   6.913 -1.2334 -0.1486  0.8826
12030SOL    HW237307   4.211   4.121   6.878  0.1370  0.5573  1.7016
12031SOL     OW37308   4.144   5.334   6.840 -0.2871 -0.0429  0.3602
12031SOL    HW137309   4.149   5.427   6.816 -0.5445 -0.0365  0.3281
12031SOL    HW237310   4.223   5.318   6.891 -0.6054  0.3787  1.0041
12032SOL     OW37311   3.494   5.102   5.687 -0.1241  0.4553 -0.1270
12032SOL    HW137312   3.494   5.112   5.592 -0.1158  1.9621  0.0126
12032SOL    HW237313   3.566   5.041   5.704  0.3179  0.7038 -1.0363
12033SOL     OW37314   3.866   4.287   7.751 -0.4404  0.1097 -0.7139
12033SOL    HW137315   3.954   4.273   7.786 -0.8784  0.2397  0.4894
12033SOL    HW237316   3.825   4.201   7.756 -0.7547  0.2878 -0.1766
12034SOL     OW37317   4.162   3.777   8.091  0.3008  0.0961 -0.1613
12034SOL    HW137318   4.244   3.734   8.113 -0.3596 -0.9483  0.3349
12034SOL    HW237319   4.121   3.796   8.176  0.8695  2.3641 -0.3200
12035SOL     OW37320   3.329   3.866   8.022 -0.1723 -0.1171 -0.5238
12035SOL    HW137321   3.397   3.933   8.032 -0.4177 -0.1722  2.2746
12035SOL    HW237322   3.376   3.783   8.035 -0.4714 -0.2489 -0.2674
12036SOL     OW37323   4.064   4.809   8.741  0.0425  0.1081  0.6207
12036SOL    HW137324   4.083   4.899   8.770 -2.1171  1.2175 -1.0965
12036SOL    HW237325   3.995   4.779   8.800  0.1030 -0.0541  0.6080
12037SOL     OW37326   5.394   5.300   7.991 -0.2591  0.6399  0.2425
12037SOL    HW137327   5.384   5.311   8.085 -1.2703  1.1761  0.0901
12037SOL    HW237328   5.335   5.365   7.953 -1.0860 -0.6510 -0.7524
12038SOL     OW37329   5.207   4.918   8.269  0.1373 -0.0047  0.2548
12038SOL    HW137330   5.196   4.994   8.213  2.0832  1.4582  1.7304
12038SOL    HW237331   5.126   4.867   8.258 -1.6747  2.7531 -0.0312
12039SOL     OW37332   5.163   4.795   7.892  0.2125 -0.1655 -0.0316
12039SOL    HW137333   5.236   4.737   7.871  0.3909 -0.7883  2.1025
12039SOL    HW237334   5.126   4.818   7.806  2.3309 -0.5360 -1.1211
12040SOL     OW37335   4.705   4.968   8.500 -0.0077  0.4401  0.2539
12040SOL    HW137336   4.738   4.946   8.587 -0.8198 -1.8432  0.0435
12040SOL    HW237337   4.614   4.936   8.500 -0.3765  1.4146 -1.0670
12041SOL     OW37338   4.087   4.279   8.004  0.3368  0.2481  0.0238
12041SOL    HW137339   4.127   4.298   7.919 -0.7480  0.7294 -0.4001
12041SOL    HW237340   4.161   4.258   8.061  0.9769 -2.2349 -1.5507
12042SOL     OW37341   4.181   4.728   8.195  0.5502  0.1138 -0.0840
12042SOL    HW137342   4.139   4.664   8.253  1.6681 -0.3647  0.2454
12042SOL    HW237343   4.274   4.721   8.217  0.7597  1.4466 -0.4600
12043SOL     OW37344   4.574   4.018   8.675 -0.0218  0.2081  0.5583
12043SOL    HW137345   4.595   3.933   8.638  2.5610  0.5908  0.9621
12043SOL    HW237346   4.478   4.018   8.683 -0.4719 -1.1611 -2.9529
12044SOL     OW37347   5.369   4.215   8.229 -0.1664  0.5636  0.5466
12044SOL    HW137348   5.433   4.272   8.186  1.4366 -0.6808  1.1717
12044SOL    HW237349   5.335   4.268   8.301  2.2940  0.3895  1.9462
12045SOL     OW37350   3.909   5.422   7.925 -0.5252 -0.5337 -0.7757
12045SOL    HW137351   3.845   5.351   7.917 -1.3800 -0.1760  1.9539
12045SOL    HW237352   3.886   5.466   8.007  2.6579  0.2005 -0.1508
12046SOL     OW37353   3.990   5.354   8.274 -0.1671 -0.4964 -0.3703
12046SOL    HW137354   4.050   5.414   8.316 -2.2101  0.5647  1.1781
12046SOL    HW237355   3.943   5.407   8.209 -1.5659 -0.4924  0.5947
12047SOL     OW37356   3.870   4.864   8.087  0.3480  0.4965  0.4486
12047SOL    HW137357   3.947   4.907   8.050 -0.7585  1.3161 -1.0249
12047SOL    HW237358   3.830   4.932   8.142  1.8537 -0.6375  3.1272
12048SOL     OW37359   4.422   5.319   0.302 -0.0882 -0.2902  0.2448
12048SOL    HW137360   4.410   5.341   0.394  0.5761  0.2200  0.2144
12048SOL    HW237361   4.490   5.252   0.302  0.4897  0.2866  0.0752
12049SOL     OW37362   4.017   4.257   7.331 -0.6249  0.5150 -0.4151
12049SOL    HW137363   3.952   4.219   7.272 -1.0522 -0.7123  0.7832
12049SOL    HW237364   4.101   4.236   7.290 -0.9231  0.3010 -0.9385
12050SOL     OW37365   3.686   4.366   8.038 -0.0666  1.0716  0.1561
12050SOL    HW137366   3.644   4.368   8.125 -0.0709  1.8687  0.1464
12050SOL    HW237367   3.707   4.274   8.024 -0.5375  0.8574  0.7800
12051SOL     OW37368   5.707   5.334   7.747 -0.1431 -0.0866  0.2965
12051SOL    HW137369   5.638   5.267   7.755 -0.2950 -0.7816 -4.2453
12051SOL    HW237370   5.788   5.283   7.740  0.1896  0.4266  0.3905
12052SOL     OW37371   4.015   5.297   7.686 -0.0243  0.0399  0.4428
12052SOL    HW137372   4.006   5.345   7.768  0.8779  1.7649 -0.4130
12052SOL    HW237373   4.109   5.283   7.676 -0.0451  0.4712 -0.5986
12053SOL     OW37374   5.533   5.072   8.280  0.7999 -0.5676  0.2965
12053SOL    HW137375   5.450   5.047   8.240  0.2077  1.3519  0.2253
12053SOL    HW237376   5.599   5.020   8.233 -0.0901 -0.0525 -1.6188
12054SOL     OW37377   4.997   5.157   7.909  0.5575 -0.0663  0.3821
12054SOL    HW137378   4.927   5.193   7.854 -1.3346 -0.1951  2.6015
12054SOL    HW237379   5.061   5.124   7.846 -0.6477  1.3715 -1.7424
12055SOL     OW37380   4.311   4.562   7.559  0.3998  0.2311 -0.0111
12055SOL    HW137381   4.254   4.552   7.635 -1.3816  0.0530 -1.2816
12055SOL    HW237382   4.330   4.655   7.555  0.0518  0.3195  0.3582
12056SOL     OW37383   4.475   3.813   7.668 -0.3548  0.3378 -0.1999
12056SOL    HW137384   4.422   3.882   7.709  0.9270  0.9378  0.5213
12056SOL    HW237385   4.479   3.838   7.576 -0.0246  1.1668  0.0287
12057SOL     OW37386   3.479   4.472   0.195 -0.4084 -0.3472 -0.6081
12057SOL    HW137387   3.412   4.505   0.254 -1.1637 -0.2330 -1.5103
12057SOL    HW237388   3.506   4.389   0.233 -1.8392 -0.9182 -0.7980
12058SOL     OW37389   5.320   4.916   7.434 -0.2894 -0.1679  0.1302
12058SOL    HW137390   5.349   4.845   7.376  1.3277  1.1838 -0.7894
12058SOL    HW237391   5.226   4.902   7.443 -0.6390 -0.4337 -2.8767
12059SOL     OW37392   5.277   5.160   8.467  0.2222 -0.6855 -0.4909
12059SOL    HW137393   5.244   5.071   8.457 -0.2437 -0.4920 -0.6659
12059SOL    HW237394   5.361   5.149   8.512 -0.7828 -1.0735  1.4064
12060SOL     OW37395   5.502   5.128   7.803  0.0426  0.4050  0.3320
12060SOL    HW137396   5.512   5.040   7.841  2.8485  0.6674  0.4486
12060SOL    HW237397   5.472   5.182   7.876 -1.1197 -0.3191  0.4163
12061SOL     OW37398   4.407   4.333   7.411  0.1942  0.4339 -0.2068
12061SOL    HW137399   4.363   4.335   7.326 -0.0469 -0.6109 -0.1216
12061SOL    HW237400   4.372   4.409   7.458  2.2370  2.6021 -1.9326
12062SOL     OW37401   5.251   4.418   8.734 -0.4761  1.0316  0.3250
12062SOL    HW137402   5.180   4.426   8.798  1.7337 -1.2206  3.2859
12062SOL    HW237403   5.322   4.471   8.769  1.1142 -0.9866  0.3473
12063SOL     OW37404   5.035   5.437   7.645  0.0023  0.0049 -0.5264
12063SOL    HW137405   4.957   5.397   7.685  0.7643 -0.2960  0.6950
12063SOL    HW237406   5.074   5.366   7.594  1.1775 -0.7873  1.3830
12064SOL     OW37407   4.197   4.692   0.285 -0.4384  0.3054 -0.2827
12064SOL    HW137408   4.241   4.776   0.269 -0.4740  0.4431  0.3042
12064SOL    HW237409   4.144   4.708   0.364  1.0292 -0.8256  0.9720
12065SOL     OW37410   5.105   4.565   8.545  0.6828  0.2865 -0.0517
12065SOL    HW137411   5.179   4.534   8.596  0.4847 -0.7912 -0.4009
12065SOL    HW237412   5.135   4.562   8.454 -0.4671 -2.2895 -0.4258
12066SOL     OW37413   4.844   4.410   7.912  0.5184  0.3867  0.0641
12066SOL    HW137414   4.815   4.497   7.883 -2.6763 -0.6028 -0.0995
12066SOL    HW237415   4.804   4.349   7.850  0.5807 -1.3306  1.6237
12067SOL     OW37416   3.631   4.402   7.769 -0.1124  0.1502  0.0012
12067SOL    HW137417   3.718   4.384   7.734  0.2174 -0.7777  1.2263
12067SOL    HW237418   3.636   4.374   7.861 -1.5157  0.6740  0.2590
12068SOL     OW37419   3.980   5.410   0.372 -0.4335 -0.2356 -0.4384
12068SOL    HW137420   4.068   5.445   0.359  0.0797 -1.5428 -0.5913
12068SOL    HW237421   3.994   5.321   0.405 -1.6951  0.3809  2.0055
12069SOL     OW37422   4.446   4.118   7.570 -0.3358 -0.8256  0.1506
12069SOL    HW137423   4.433   4.198   7.520  2.5836  3.1502  4.8354
12069SOL    HW237424   4.530   4.084   7.541  0.6190  0.5863  1.1369
12070SOL     OW37425   5.174   5.149   8.115  0.3072  0.1104 -0.6017
12070SOL    HW137426   5.109   5.168   8.047 -0.7871 -1.4424 -0.0542
12070SOL    HW237427   5.219   5.232   8.129 -0.7386  0.9294 -1.8713
12071SOL     OW37428   4.269   4.197   8.206 -0.5658 -0.5216 -0.0206
12071SOL    HW137429   4.228   4.137   8.268 -2.1645  0.9512  0.4355
12071SOL    HW237430   4.323   4.254   8.260  0.6941 -1.2969 -0.4157
12072SOL     OW37431   4.904   5.279   8.198 -0.7309 -0.0909 -0.0968
12072SOL    HW137432   4.956   5.227   8.259 -1.4868 -0.7027  0.0476
12072SOL    HW237433   4.937   5.255   8.111 -0.0426  0.3514  0.0400
12073SOL     OW37434   3.932   5.368   8.813 -1.2361 -0.5520 -0.4267
12073SOL    HW137435   3.985   5.406   8.743 -0.3463  0.5573  0.8061
12073SOL    HW237436   3.977   5.392   8.893 -2.1998 -1.8490  0.5511
12074SOL     OW37437   5.982   4.875   8.575  0.0554  0.1536  0.1844
12074SOL    HW137438   6.033   4.906   8.650  1.0616  0.4866 -0.6124
12074SOL    HW237439   6.014   4.927   8.502 -0.6304 -0.4466 -0.5555
12075SOL     OW37440   4.086   4.334   7.584  0.4540  0.4953 -0.1815
12075SOL    HW137441   4.075   4.271   7.513 -1.6128  0.4152  0.1581
12075SOL    HW237442   4.140   4.288   7.648  3.1174  0.8813 -1.9880
12076SOL     OW37443   5.403   4.651   8.109  0.2272 -0.2169  0.8797
12076SOL    HW137444   5.387   4.561   8.080  0.2971 -0.0468  0.3198
12076SOL    HW237445   5.499   4.660   8.106  0.3014 -0.4730  1.9817
12077SOL     OW37446   4.793   5.245   7.763  0.5541  0.4368 -0.4673
12077SOL    HW137447   4.722   5.212   7.819  1.1877  0.5503  0.4278
12077SOL    HW237448   4.777   5.204   7.678 -0.6783  0.5930 -0.3265
12078SOL     OW37449   5.216   5.134   7.740 -0.2850  0.3770  0.3419
12078SOL    HW137450   5.203   5.188   7.663  1.5351  0.0759 -0.2098
12078SOL    HW237451   5.311   5.126   7.749 -0.4553 -2.3759  0.6306
12079SOL     OW37452   4.416   5.380   7.688 -0.1597  0.9400 -0.4008
12079SOL    HW137453   4.421   5.362   7.782  2.0820  1.2790 -0.3966
12079SOL    HW237454   4.353   5.317   7.654  1.9328 -1.9746  0.7392
12080SOL     OW37455   5.298   3.464   8.011  0.0166 -0.6979 -0.4190
12080SOL    HW137456   5.210   3.431   7.995 -0.7932  1.6508 -1.2868
12080SOL    HW237457   5.331   3.487   7.924  0.4691  0.7510  0.1023
12081SOL     OW37458   3.741   5.177   0.008 -0.1307 -0.0841  0.4478
12081SOL    HW137459   3.816   5.220  -0.034  1.6351 -1.8808  1.5707
12081SOL    HW237460   3.708   5.118  -0.060  0.7028 -0.6561  0.5145
12082SOL     OW37461   4.594   5.443   8.172 -0.4044 -0.0166  0.3958
12082SOL    HW137462   4.600   5.538   8.162 -0.3090  0.0142  0.7171
12082SOL    HW237463   4.638   5.426   8.255 -1.5000 -0.2059  0.9541
12083SOL     OW37464   3.993   3.860   8.329  0.3049 -0.3283  0.1903
12083SOL    HW137465   3.983   3.766   8.318 -1.9275  0.0499 -1.5594
12083SOL    HW237466   3.919   3.887   8.384  0.7583  0.4656  0.4381
12084SOL     OW37467   4.134   3.759   7.538  0.0901  0.1319 -0.2515
12084SOL    HW137468   4.172   3.788   7.455  2.1097 -1.0482  0.2051
12084SOL    HW237469   4.104   3.670   7.521 -0.6770  0.3401 -0.0378
12085SOL     OW37470   3.968   5.127   8.496  0.2761  0.1212 -0.0428
12085SOL    HW137471   3.883   5.163   8.468  0.3964  0.3181 -0.1573
12085SOL    HW237472   4.014   5.109   8.415  0.7375  0.9608  0.0142
12086SOL     OW37473   4.414   4.849   8.516 -0.1157  0.1283 -0.8412
12086SOL    HW137474   4.373   4.919   8.466 -2.4136 -0.9423 -0.5680
12086SOL    HW237475   4.416   4.774   8.456 -2.7712 -1.1293  0.4649
12087SOL     OW37476   4.819   3.877   8.069  0.0590 -0.1264 -0.4540
12087SOL    HW137477   4.818   3.968   8.041 -3.1962  0.1270  0.0680
12087SOL    HW237478   4.768   3.831   8.002 -0.3240 -1.1296  0.4992
12088SOL     OW37479   4.411   3.668   8.107 -0.4161 -0.3519  0.1028
12088SOL    HW137480   4.426   3.599   8.042  1.1209 -3.3257  3.2593
12088SOL    HW237481   4.498   3.701   8.127 -0.6494 -0.5372  1.5669
12089SOL     OW37482   4.048   3.970   7.866 -0.2474  0.5429 -0.3022
12089SOL    HW137483   4.086   3.914   7.934  0.8701 -0.9441 -2.0790
12089SOL    HW237484   4.106   4.046   7.863  0.4634  0.0115 -0.4416
12090SOL     OW37485   4.898   4.314   8.172 -0.0871 -0.0981 -0.2080
12090SOL    HW137486   4.863   4.311   8.083 -0.4591 -2.0014 -0.0389
12090SOL    HW237487   4.988   4.282   8.163  0.2134  0.6570 -0.0162
12091SOL     OW37488   5.329   5.347   8.261 -0.9011  0.0259 -0.1474
12091SOL    HW137489   5.314   5.422   8.319  1.8034  0.7879 -0.3082
12091SOL    HW237490   5.325   5.271   8.318 -0.3599  0.5839  0.6557
12092SOL     OW37491   3.921   4.448   8.156  0.3504 -0.5781 -0.1877
12092SOL    HW137492   3.988   4.384   8.132 -0.9792 -2.5218  1.0134
12092SOL    HW237493   3.840   4.415   8.115 -0.5732 -0.2665  1.3038
12093SOL     OW37494   4.932   5.554   8.165  0.1076  0.0828  0.1286
12093SOL    HW137495   4.919   5.463   8.194  1.0796  0.1962  1.0096
12093SOL    HW237496   4.900   5.556   8.075  1.8114 -1.6433 -0.6017
12094SOL     OW37497   4.688   4.274   7.394  0.0266  0.0318 -0.0034
12094SOL    HW137498   4.597   4.304   7.396  0.5475  1.7651 -0.2823
12094SOL    HW237499   4.696   4.225   7.313 -0.5421  0.2902 -0.2211
12095SOL     OW37500   4.550   4.257   8.505  0.9309  0.2691  0.6858
12095SOL    HW137501   4.562   4.169   8.542 -0.8221 -0.2279  0.1686
12095SOL    HW237502   4.572   4.247   8.412  0.6078  0.3533  0.6008
12096SOL     OW37503   4.788   4.089   7.893 -0.2881 -0.1366 -0.0545
12096SOL    HW137504   4.717   4.150   7.874 -0.7226 -0.7543 -0.4672
12096SOL    HW237505   4.811   4.051   7.808  3.3554  2.9445 -0.7009
12097SOL     OW37506   4.685   3.709   8.216  0.2895 -0.2277  0.4474
12097SOL    HW137507   4.719   3.755   8.139 -0.4216 -1.2607 -0.5252
12097SOL    HW237508   4.749   3.727   8.285  0.9620  0.7044 -0.3861
12098SOL     OW37509   5.452   4.917   8.022 -0.1995 -0.4176 -0.0571
12098SOL    HW137510   5.427   4.845   8.080  1.2170 -0.5809  0.3919
12098SOL    HW237511   5.373   4.971   8.016 -0.9153 -1.3519  0.5814
12099SOL     OW37512   5.165   4.579   8.290 -0.0936  0.0381 -0.3570
12099SOL    HW137513   5.251   4.583   8.248 -0.1099 -0.1952 -0.4166
12099SOL    HW237514   5.107   4.628   8.232  0.7890  3.9696  1.7455
12100SOL     OW37515   5.741   4.887   8.283  0.5902  0.7122  0.7765
12100SOL    HW137516   5.710   4.801   8.255  1.4634 -0.5636  3.4433
12100SOL    HW237517   5.828   4.895   8.245  0.0269  1.0124 -0.5031
12101SOL     OW37518   4.207   5.479   7.216  0.0754 -0.3744 -0.3114
12101SOL    HW137519   4.150   5.403   7.228 -0.4674 -0.0821 -0.9996
12101SOL    HW237520   4.188   5.509   7.127 -0.1378  0.9255  0.1672
12102SOL     OW37521   6.153   4.538   7.462 -0.0650  0.3624  0.3966
12102SOL    HW137522   6.199   4.566   7.383  0.5792 -2.5875 -0.3850
12102SOL    HW237523   6.077   4.488   7.429  0.4894 -1.3461  1.5755
12103SOL     OW37524   5.087   4.390   7.748 -0.2330 -0.1820 -0.2400
12103SOL    HW137525   5.038   4.391   7.666 -0.9233 -1.4415  0.1224
12103SOL    HW237526   5.019   4.382   7.816  0.4481 -1.8823  0.2837
12104SOL     OW37527   4.324   3.982   7.921 -0.4923 -0.3682 -0.4078
12104SOL    HW137528   4.298   3.900   7.962  2.0596 -1.1940 -0.2670
12104SOL    HW237529   4.404   4.007   7.967 -0.8783  1.9144 -0.8654
12105SOL     OW37530   5.395   5.095   0.218  0.0224 -0.0131 -0.0174
12105SOL    HW137531   5.422   5.187   0.223  0.7330 -0.2138 -0.1241
12105SOL    HW237532   5.307   5.094   0.258  0.3043  0.5869  0.6460
12106SOL     OW37533   4.939   5.108   8.404 -0.0811 -0.4917 -0.2003
12106SOL    HW137534   5.004   5.051   8.445 -0.6440 -0.2372  1.1118
12106SOL    HW237535   4.861   5.053   8.397 -0.1232 -0.3928 -0.5219
12107SOL     OW37536   5.259   4.891   8.536 -0.2848 -0.3306  0.5391
12107SOL    HW137537   5.280   4.837   8.460  0.1604  0.0765  0.3686
12107SOL    HW237538   5.183   4.848   8.576 -0.3155 -0.7319  0.0560
12108SOL     OW37539   4.813   4.910   7.856  0.4968 -0.1228  0.0496
12108SOL    HW137540   4.908   4.915   7.849  0.4537 -0.9980 -2.0902
12108SOL    HW237541   4.781   4.983   7.803  0.0060 -0.7873 -0.5978
12109SOL     OW37542   4.194   4.599   0.011 -0.1023  0.4956  0.5288
12109SOL    HW137543   4.200   4.623   0.103  2.4233  1.4173  0.1950
12109SOL    HW237544   4.181   4.682  -0.035  1.3663  0.4086 -0.1057
12110SOL     OW37545   4.921   4.273   0.048 -0.4597 -0.1020  0.4353
12110SOL    HW137546   4.948   4.359   0.082  0.6570  0.2650 -1.2544
12110SOL    HW237547   4.835   4.288   0.009  0.2739  0.5922 -0.9876
12111SOL     OW37548   4.298   5.075   8.384  0.2740 -0.2274 -1.1030
12111SOL    HW137549   4.217   5.100   8.339 -0.8294 -0.3527  0.7179
12111SOL    HW237550   4.353   5.153   8.378 -0.7577  0.5539 -0.6938
12112SOL     OW37551   4.058   4.578   7.723 -0.5761 -0.0109 -0.2396
12112SOL    HW137552   3.976   4.622   7.696 -1.1088 -1.9254 -2.0174
12112SOL    HW237553   4.061   4.499   7.669  2.6501  0.1632 -0.4892
12113SOL     OW37554   4.508   4.082   8.098  0.1334 -0.1716  0.2865
12113SOL    HW137555   4.460   4.161   8.126  0.8050 -0.1778  1.5296
12113SOL    HW237556   4.587   4.082   8.152 -0.1057 -1.9838  0.6958
12114SOL     OW37557   4.765   4.900   8.185 -0.5177 -0.3121 -0.2622
12114SOL    HW137558   4.722   4.958   8.122 -2.1379 -1.3202 -0.1239
12114SOL    HW237559   4.710   4.904   8.263  1.0297  0.2995  0.8505
12115SOL     OW37560   5.207   5.322   0.064 -0.2515 -0.2087  0.1731
12115SOL    HW137561   5.277   5.352   0.007 -1.0250  0.5744 -0.4011
12115SOL    HW237562   5.201   5.228   0.047 -1.2481  0.1714 -1.9940
12116SOL     OW37563   5.032   4.765   8.127 -0.0469 -0.0609  0.2604
12116SOL    HW137564   4.953   4.818   8.115 -0.1106 -0.0172  0.8484
12116SOL    HW237565   5.076   4.767   8.042 -1.6722 -1.6819 -0.6890
12117SOL     OW37566   4.180   5.522   8.400 -0.0216 -0.3234  0.9041
12117SOL    HW137567   4.172   5.506   8.494 -1.5256 -1.1746  0.6557
12117SOL    HW237568   4.165   5.615   8.389  0.2488 -0.2071  1.5075
12118SOL     OW37569   4.426   4.948   8.804 -0.1320  0.6126 -0.3348
12118SOL    HW137570   4.411   4.986   8.718  1.0630 -1.3580 -1.4732
12118SOL    HW237571   4.419   4.854   8.791  1.7681  0.1699  1.3273
12119SOL     OW37572   5.734   4.463   8.435  0.4110 -0.4168  0.0806
12119SOL    HW137573   5.781   4.384   8.464  1.2456  0.0331 -0.0017
12119SOL    HW237574   5.642   4.441   8.444  0.6148 -1.6545 -0.5784
12120SOL     OW37575   4.914   4.345   7.509  0.1959  0.0373  0.2100
12120SOL    HW137576   4.826   4.320   7.481 -0.2703 -1.1369  2.4500
12120SOL    HW237577   4.968   4.333   7.431 -1.5473  0.4605 -1.1367
12121SOL     OW37578   4.480   3.863   8.340 -0.8828  0.1474  0.0198
12121SOL    HW137579   4.500   3.943   8.290  0.6480  0.4411  1.0167
12121SOL    HW237580   4.536   3.796   8.300 -0.3848  0.1541  0.6853
12122SOL     OW37581   4.436   4.669   8.278 -0.2762  0.0760  0.4679
12122SOL    HW137582   4.415   4.578   8.297 -1.3677  0.1700 -0.1814
12122SOL    HW237583   4.504   4.665   8.211 -1.9727 -0.3187 -1.3278
12123SOL     OW37584   4.426   4.426   7.954 -0.3032  0.4304 -0.0036
12123SOL    HW137585   4.499   4.462   8.004 -1.4822  0.5441  1.7025
12123SOL    HW237586   4.361   4.496   7.952 -1.0362 -0.2348 -0.0800
12124SOL     OW37587   5.002   3.829   8.262 -0.8722  0.0496  0.4530
12124SOL    HW137588   4.931   3.840   8.199  0.1124 -0.4723 -0.7922
12124SOL    HW237589   4.987   3.898   8.327 -0.8389  1.8823 -1.3763
12125SOL     OW37590   5.317   3.846   7.996 -0.0650  0.2123  0.4395
12125SOL    HW137591   5.233   3.847   7.950  0.6327  1.1355 -0.8700
12125SOL    HW237592   5.317   3.762   8.043 -0.2576 -1.4960 -2.3666
12126SOL     OW37593   5.018   4.803   8.696 -0.2623 -0.0665  0.1588
12126SOL    HW137594   4.995   4.715   8.664 -0.4109  0.3346 -0.8768
12126SOL    HW237595   4.958   4.819   8.768 -0.1385 -0.8758  0.4493
12127SOL     OW37596   4.968   4.065   7.605  0.2538 -0.0652  0.2543
12127SOL    HW137597   5.044   4.085   7.550 -0.6136  2.0156 -0.2735
12127SOL    HW237598   4.914   4.144   7.602 -1.0209 -0.7787  2.1568
12128SOL     OW37599   5.005   4.708   7.233 -0.1999 -0.5456  0.3045
12128SOL    HW137600   5.079   4.768   7.233 -1.5730  1.4687 -3.2278
12128SOL    HW237601   5.029   4.640   7.170 -1.2939  0.2217 -1.0077
12129SOL     OW37602   4.656   5.167   8.163  0.7211 -0.6088  0.0233
12129SOL    HW137603   4.641   5.259   8.140  0.7989 -1.0070 -1.7732
12129SOL    HW237604   4.749   5.163   8.186  0.4119 -0.0027  1.4611
12130SOL     OW37605   3.595   4.498   8.264 -0.0808  0.0363 -0.7832
12130SOL    HW137606   3.636   4.528   8.345 -0.4418 -0.5826 -0.3618
12130SOL    HW237607   3.619   4.564   8.198 -0.4707  0.9875  0.0046
12131SOL     OW37608   3.692   4.457   8.619  0.1111  0.5175  0.6567
12131SOL    HW137609   3.720   4.365   8.618 -1.3979 -0.0300 -2.2400
12131SOL    HW237610   3.750   4.500   8.556 -2.1778  0.4042 -1.6882
12132SOL     OW37611   4.821   4.024   0.200  0.0525  0.0682  0.2365
12132SOL    HW137612   4.851   3.988   0.283  0.2073 -0.3021  0.0236
12132SOL    HW237613   4.862   4.110   0.195 -0.7085  0.4984  0.9747
12133SOL     OW37614   4.219   4.957   7.824  0.2831  0.2662  0.2754
12133SOL    HW137615   4.176   4.877   7.794 -1.4917  1.4655 -0.6662
12133SOL    HW237616   4.298   4.928   7.868 -0.8998 -2.0550  1.0290
12134SOL     OW37617   3.857   5.560   8.164  0.7801  0.1027  0.5906
12134SOL    HW137618   3.916   5.632   8.140  0.8785  0.0630  0.7156
12134SOL    HW237619   3.774   5.603   8.186  0.9718  0.2112  1.1023
12135SOL     OW37620   4.028   5.089   8.241  0.7061 -0.1868  0.1747
12135SOL    HW137621   4.023   5.184   8.241  2.5768 -0.0346  1.2805
12135SOL    HW237622   4.062   5.066   8.155  1.2744  0.2508  0.2738
12136SOL     OW37623   4.700   4.956   8.848 -0.1681 -0.3771  0.7776
12136SOL    HW137624   4.735   4.867   8.847  0.5580 -0.1329  2.3945
12136SOL    HW237625   4.607   4.945   8.827  0.0968 -1.4085  0.0700
12137SOL     OW37626   3.924   4.259   8.408  0.2823 -0.3182 -0.0292
12137SOL    HW137627   3.974   4.280   8.487 -2.8726  0.8775  1.8173
12137SOL    HW237628   3.944   4.330   8.347 -0.2627  0.9926  1.2573
12138SOL     OW37629   4.602   4.260   7.790 -0.2892  0.2627  0.6012
12138SOL    HW137630   4.529   4.255   7.729  0.5457  3.2974 -0.8603
12138SOL    HW237631   4.561   4.283   7.874 -1.0873  1.9526 -0.2013
12139SOL     OW37632   5.536   4.495   8.790  0.2267  0.1354 -0.1191
12139SOL    HW137633   5.603   4.559   8.812  2.4203 -1.2883 -2.0837
12139SOL    HW237634   5.524   4.444   8.870  1.1112  0.7792  0.4408
12140SOL     OW37635   4.714   4.369   8.718  0.3931 -0.5125 -0.2452
12140SOL    HW137636   4.661   4.346   8.641 -0.4131  2.0616 -0.5740
12140SOL    HW237637   4.779   4.430   8.683  0.2873  0.3525  1.0179
12141SOL     OW37638   4.307   5.209   8.762 -0.1543  0.0254 -0.1115
12141SOL    HW137639   4.372   5.197   8.692 -1.8151 -3.0797 -1.3117
12141SOL    HW237640   4.352   5.180   8.841 -0.5377 -4.4182 -1.2710
12142SOL     OW37641   4.230   4.158   7.734  0.5121  0.3734  0.1114
12142SOL    HW137642   4.261   4.106   7.808  0.8292  0.8003  0.2822
12142SOL    HW237643   4.289   4.135   7.662 -0.7632 -1.2579 -0.4868
12143SOL     OW37644   4.305   4.400   8.389  0.1341 -0.4048 -0.1154
12143SOL    HW137645   4.238   4.441   8.444 -0.1661  0.3614 -1.0283
12143SOL    HW237646   4.372   4.371   8.450  0.1370  1.0525  0.6014
12144SOL     OW37647   5.263   4.702   8.811  0.8447  0.4080 -0.0469
12144SOL    HW137648   5.324   4.775   8.806 -0.1584  1.2509 -0.3170
12144SOL    HW237649   5.181   4.737   8.777  1.0006 -1.6046 -2.8884
12145SOL     OW37650   5.058   4.922   7.658  0.2232 -0.1378  0.5553
12145SOL    HW137651   5.101   5.004   7.680 -1.5635  0.5018  2.0022
12145SOL    HW237652   5.011   4.940   7.576 -2.2265  1.2239  2.1229
12146SOL     OW37653   5.444   5.352   8.753 -0.0029  0.1569 -0.4323
12146SOL    HW137654   5.534   5.359   8.783  0.1392  0.3569 -0.8903
12146SOL    HW237655   5.450   5.301   8.672 -0.5140 -1.4667  0.5148
12147SOL     OW37656   4.755   5.420   8.395  0.1335  0.2869  0.2095
12147SOL    HW137657   4.799   5.473   8.461  0.4414  0.6511 -0.2832
12147SOL    HW237658   4.819   5.352   8.373  1.4647  2.2295 -2.2760
12148SOL     OW37659   3.668   5.224   8.487  0.2002 -0.3084  0.1046
12148SOL    HW137660   3.579   5.252   8.507  0.1036 -1.4294  1.3737
12148SOL    HW237661   3.659   5.154   8.424  0.1981 -0.2533  0.0439
12149SOL     OW37662   5.738   3.908   8.410 -0.5945  0.4465  0.1859
12149SOL    HW137663   5.651   3.886   8.444 -0.2338 -0.1154  0.7529
12149SOL    HW237664   5.728   3.903   8.315 -1.3522  1.0449  0.2158
12150SOL     OW37665   5.150   5.468   7.897  0.2480 -0.1812  0.2494
12150SOL    HW137666   5.142   5.434   7.808  0.5584 -0.6393  0.3922
12150SOL    HW237667   5.061   5.465   7.932  0.1914 -0.3795  0.0909
12151SOL     OW37668   5.676   4.896   7.861  0.1465 -0.0978 -0.1231
12151SOL    HW137669   5.607   4.897   7.927 -0.1783  0.9115 -0.4647
12151SOL    HW237670   5.755   4.919   7.910 -0.1911  1.2400 -0.1641
12152SOL     OW37671   4.241   5.168   7.637  0.4244 -0.2820  0.2284
12152SOL    HW137672   4.224   5.096   7.697 -2.5499 -0.0403 -0.1766
12152SOL    HW237673   4.279   5.126   7.559  0.2346 -1.1977  0.6187
12153SOL     OW37674   5.809   3.919   8.707 -0.0867  0.1234  0.2020
12153SOL    HW137675   5.829   3.853   8.641  0.4898  0.0434  0.4459
12153SOL    HW237676   5.718   3.942   8.692 -0.0443 -0.1030 -0.4390
12154SOL     OW37677   3.541   3.641   8.282 -0.5369  0.1998 -0.0472
12154SOL    HW137678   3.600   3.667   8.212 -1.4076 -2.2646 -1.8320
12154SOL    HW237679   3.454   3.646   8.243 -1.1708  0.0510  1.2996
12155SOL     OW37680   4.510   5.183   8.573  0.8239  0.3675 -0.0073
12155SOL    HW137681   4.482   5.241   8.503 -0.7577 -1.1704 -0.7305
12155SOL    HW237682   4.593   5.147   8.542  0.0108 -0.5130 -1.3072
12156SOL     OW37683   4.738   4.608   7.571 -0.2959 -0.8067 -0.9317
12156SOL    HW137684   4.766   4.525   7.535 -0.2902 -0.7117 -1.1449
12156SOL    HW237685   4.756   4.672   7.502  0.2622 -0.5354 -0.5402
12157SOL     OW37686   5.346   5.347   7.404 -0.3708  0.4831  0.1975
12157SOL    HW137687   5.269   5.309   7.447 -0.5045 -0.2192 -0.6497
12157SOL    HW237688   5.420   5.298   7.440 -0.6219 -1.4104 -1.7017
12158SOL     OW37689   5.362   5.388   0.276 -0.4992 -0.1421  0.1312
12158SOL    HW137690   5.308   5.398   0.198 -1.6588  1.1930  1.0650
12158SOL    HW237691   5.440   5.441   0.259 -0.6470 -0.0283 -0.2013
12159SOL     OW37692   4.719   4.670   7.853  0.5728  0.4125  0.3877
12159SOL    HW137693   4.746   4.761   7.846 -0.6109  0.6571 -2.2028
12159SOL    HW237694   4.731   4.635   7.765 -1.3913 -1.2092  0.7069
12160SOL     OW37695   4.843   4.547   8.580  0.2475  0.0124  0.0707
12160SOL    HW137696   4.939   4.544   8.581  0.3197  1.6730  0.4860
12160SOL    HW237697   4.820   4.547   8.487  0.5850 -1.1808 -0.0384
12161SOL     OW37698   4.466   4.732   7.759  0.2846 -0.2875  0.6704
12161SOL    HW137699   4.552   4.739   7.800  0.5590 -2.0038  0.4270
12161SOL    HW237700   4.426   4.656   7.800 -0.1456 -0.9732 -0.9450
12162SOL     OW37701   5.091   4.490   0.116 -0.6988  0.0197  0.4893
12162SOL    HW137702   5.144   4.455   0.188  0.6642  1.4094  0.2175
12162SOL    HW237703   5.051   4.569   0.151 -0.6693  0.2660 -0.0177
12163SOL     OW37704   4.241   4.633   7.913 -0.1875 -0.1028  0.3592
12163SOL    HW137705   4.186   4.665   7.984 -1.1918 -0.2521 -0.3256
12163SOL    HW237706   4.179   4.607   7.845  0.7303 -0.5067 -0.3428
12164SOL     OW37707   4.167   4.428   8.641 -0.1409 -0.5649 -0.5774
12164SOL    HW137708   4.211   4.464   8.718  1.4762  0.5683 -1.9476
12164SOL    HW237709   4.092   4.380   8.676  1.0870 -0.9200  1.7534
12165SOL     OW37710   3.907   3.725   6.996 -0.3435  0.3485 -0.1232
12165SOL    HW137711   3.982   3.736   6.937 -1.2408  0.3335 -1.2983
12165SOL    HW237712   3.871   3.639   6.972 -2.7098  1.7255 -1.9389
12166SOL     OW37713   3.584   3.587   7.284 -0.4612 -0.6244 -0.3990
12166SOL    HW137714   3.516   3.636   7.236  0.0317  0.6106  0.1096
12166SOL    HW237715   3.564   3.604   7.376 -1.3603 -2.9154 -0.1171
12167SOL     OW37716   4.714   5.102   7.542 -0.0867  0.1011  0.0036
12167SOL    HW137717   4.789   5.094   7.483 -0.4072 -0.5060 -0.3239
12167SOL    HW237718   4.657   5.030   7.519 -0.3199 -0.0231  0.9184
12168SOL     OW37719   4.468   5.248   0.648 -0.3498 -0.0114 -0.0379
12168SOL    HW137720   4.379   5.214   0.657 -0.6144  0.9129  1.1398
12168SOL    HW237721   4.520   5.195   0.708  0.0927 -1.0915 -1.3157
12169SOL     OW37722   5.348   5.624   8.718 -0.9339 -0.5166 -0.0443
12169SOL    HW137723   5.384   5.535   8.719  0.0849 -0.1326  1.6112
12169SOL    HW237724   5.400   5.671   8.783 -2.7707  0.7834  0.5572
12170SOL     OW37725   3.769   5.469   0.559 -0.4246 -0.2947 -0.0863
12170SOL    HW137726   3.850   5.475   0.509 -0.9241  0.7298 -0.8037
12170SOL    HW237727   3.795   5.490   0.649  0.4932 -2.2453  0.1394
12171SOL     OW37728   5.412   4.931   8.760  0.3379  0.4420  0.0359
12171SOL    HW137729   5.363   4.920   8.679  0.2666  1.4749 -0.0716
12171SOL    HW237730   5.489   4.983   8.735  0.2904  0.8123  0.6338
12172SOL     OW37731   5.125   4.212   8.093  0.6779 -0.3873 -0.0261
12172SOL    HW137732   5.109   4.118   8.090 -0.4870 -0.2542  0.9216
12172SOL    HW237733   5.211   4.221   8.134  0.6065 -1.0290  0.2768
12173SOL     OW37734   3.984   4.049   8.149 -0.0685  0.0311  0.4115
12173SOL    HW137735   4.058   4.108   8.161 -0.0293  0.1384 -0.3170
12173SOL    HW237736   3.985   3.992   8.226  0.3967  0.4333  0.7049
12174SOL     OW37737   5.301   4.616   0.259  0.2560  0.0197  0.2873
12174SOL    HW137738   5.282   4.628   0.166  1.3667  0.3556  0.0950
12174SOL    HW237739   5.380   4.667   0.275 -0.1704  0.3297  1.5251
12175SOL     OW37740   5.065   5.275   8.611  0.3816  0.1259  0.4088
12175SOL    HW137741   4.993   5.230   8.566 -0.8434  1.1936  1.2204
12175SOL    HW237742   5.139   5.268   8.551 -0.7047 -0.0204 -0.9723
12176SOL     OW37743   4.611   4.585   8.100  0.7373 -0.1090  0.4260
12176SOL    HW137744   4.684   4.566   8.158  1.3681 -1.7538 -0.8099
12176SOL    HW237745   4.649   4.635   8.028  0.3031  0.4780  0.5980
12177SOL     OW37746   4.810   4.802   7.363  0.1911  0.2013 -0.2916
12177SOL    HW137747   4.844   4.891   7.362  0.5585  0.0815 -1.7178
12177SOL    HW237748   4.880   4.749   7.323  0.7719 -1.0669  2.2020
12178SOL     OW37749   5.652   5.332   8.380 -0.5143 -0.7096  0.3043
12178SOL    HW137750   5.623   5.381   8.302 -1.8389 -0.2717  1.0328
12178SOL    HW237751   5.657   5.241   8.350 -0.6935 -0.5039 -0.3812
12179SOL     OW37752   3.877   4.753   7.627  0.9538  0.4169  0.3585
12179SOL    HW137753   3.858   4.821   7.692  0.4000 -0.4292  1.1042
12179SOL    HW237754   3.792   4.726   7.595  1.2419  1.1841 -1.1410
12180SOL     OW37755   5.508   3.855   0.129  0.2819  0.2582  1.1189
12180SOL    HW137756   5.598   3.823   0.136  0.3331 -0.0627 -0.5476
12180SOL    HW237757   5.512   3.945   0.161  1.0546  0.0199  1.7104
12181SOL     OW37758   3.711   3.780   8.152 -0.0447 -0.9475 -0.2142
12181SOL    HW137759   3.755   3.806   8.071 -1.3126 -0.4147 -0.7611
12181SOL    HW237760   3.712   3.858   8.207 -2.0729 -0.2318 -1.0630
12182SOL     OW37761   5.534   5.177   8.561  0.4342  0.3126 -0.3672
12182SOL    HW137762   5.574   5.248   8.512  0.4363 -0.6459 -1.8087
12182SOL    HW237763   5.576   5.098   8.527 -0.4246 -0.4703  0.3488
12183SOL     OW37764   3.990   4.194   8.783  0.7313 -0.4488 -0.4442
12183SOL    HW137765   4.003   4.189   8.878 -0.3016  0.9614 -0.1967
12183SOL    HW237766   3.947   4.111   8.761 -3.0796  0.8796  1.0986
12184SOL     OW37767   4.588   5.149   7.897 -0.4448 -0.2783  0.1163
12184SOL    HW137768   4.497   5.172   7.880 -0.7636 -1.4950  0.0976
12184SOL    HW237769   4.584   5.081   7.964  0.6238  1.7523  2.4074
12185SOL     OW37770   5.354   4.193   8.609  0.2132 -0.7995  0.0475
12185SOL    HW137771   5.326   4.274   8.652 -0.3179 -1.3133  0.6730
12185SOL    HW237772   5.276   4.138   8.606  0.3535 -0.9784 -1.1420
12186SOL     OW37773   4.822   3.801   8.663  0.2216 -0.8313 -0.1851
12186SOL    HW137774   4.807   3.811   8.758 -1.5770  0.3751 -0.5336
12186SOL    HW237775   4.764   3.730   8.637  0.3269 -0.8182 -0.4559
12187SOL     OW37776   4.394   5.067   7.413  0.5302  0.4424  0.2275
12187SOL    HW137777   4.428   4.985   7.448  1.4093  0.5843 -0.2413
12187SOL    HW237778   4.329   5.041   7.348  1.2578  0.0927 -0.3698
12188SOL     OW37779   4.048   5.068   8.767  0.4592  0.4831  0.2330
12188SOL    HW137780   4.016   5.089   8.679  1.0878 -1.8290 -0.6201
12188SOL    HW237781   4.138   5.103   8.768  1.6291 -2.1838 -1.2939
12189SOL     OW37782   5.401   3.555   7.509 -0.2823 -0.0552  0.3082
12189SOL    HW137783   5.348   3.629   7.480 -1.6150 -0.6157  1.2182
12189SOL    HW237784   5.491   3.587   7.505 -0.7864  1.4324  0.1873
12190SOL     OW37785   4.828   4.571   8.297 -0.0277  0.6495 -0.0505
12190SOL    HW137786   4.896   4.639   8.296  0.1035  0.5956  1.5559
12190SOL    HW237787   4.874   4.491   8.271  0.3517  0.7573  0.2789
12191SOL     OW37788   5.407   3.917   8.343  0.0778  0.2646 -0.0961
12191SOL    HW137789   5.380   3.973   8.416 -1.6121 -1.0004  0.2980
12191SOL    HW237790   5.423   3.978   8.271 -1.8285  1.2802  0.2731
12192SOL     OW37791   4.105   4.837   7.456  0.3700 -0.0392 -0.0051
12192SOL    HW137792   4.038   4.771   7.475  1.2211 -0.4264  1.8528
12192SOL    HW237793   4.161   4.795   7.390 -0.2183 -0.3816 -0.2983
12193SOL     OW37794   4.862   5.499   7.918  0.1878 -0.4181  0.0672
12193SOL    HW137795   4.810   5.432   7.875  0.8899 -0.6965 -0.3516
12193SOL    HW237796   4.800   5.570   7.934 -0.3289 -0.7578 -0.3977
12194SOL     OW37797   3.934   6.278   0.046  0.7099  0.0229 -0.4389
12194SOL    HW137798   3.974   6.194   0.070  1.3880  0.8382  1.4636
12194SOL    HW237799   4.008   6.339   0.042  0.0481  0.8519 -0.2690
12195SOL     OW37800   3.486   6.024   0.779 -0.1394 -0.4672 -0.2521
12195SOL    HW137801   3.440   6.040   0.861 -1.1539 -0.1264 -0.8740
12195SOL    HW237802   3.419   6.030   0.712  0.4677 -1.8243 -1.0303
12196SOL     OW37803   3.730   5.990   0.429 -0.2187 -0.1570 -0.1227
12196SOL    HW137804   3.646   5.968   0.390 -0.8417 -1.0190  1.5984
12196SOL    HW237805   3.736   6.086   0.422 -1.4993 -0.0584  0.0146
12197SOL     OW37806   4.278   6.614   1.018  0.3237  0.2833 -0.2543
12197SOL    HW137807   4.317   6.691   0.978  1.2832  0.3571  0.7609
12197SOL    HW237808   4.223   6.648   1.088 -2.1292  0.2164 -2.0265
12198SOL     OW37809   5.425   6.744   0.882 -0.0375  0.0949  0.5548
12198SOL    HW137810   5.337   6.775   0.903 -0.3874 -0.2488 -0.3570
12198SOL    HW237811   5.428   6.740   0.787  0.7249 -0.5809  0.5884
12199SOL     OW37812   4.499   6.496   0.724 -0.1893 -0.0114 -0.2673
12199SOL    HW137813   4.537   6.472   0.809 -0.8789  3.4898  1.2344
12199SOL    HW237814   4.405   6.487   0.737 -0.2442 -0.9942 -1.2529
12200SOL     OW37815   5.407   6.190   0.160 -0.2582 -0.2152 -0.4560
12200SOL    HW137816   5.353   6.143   0.224 -0.9050 -0.3880 -1.1159
12200SOL    HW237817   5.367   6.170   0.076  0.6633 -0.0946 -0.9358
12201SOL     OW37818   4.618   6.326   1.200  0.1361 -0.3875  0.3725
12201SOL    HW137819   4.675   6.328   1.277 -1.6001 -0.2462  1.7148
12201SOL    HW237820   4.581   6.414   1.195 -0.4656 -0.6607 -0.0770
12202SOL     OW37821   4.211   6.217   1.485  0.4109  0.1711  0.6115
12202SOL    HW137822   4.241   6.292   1.537  1.5389 -0.7428  1.3442
12202SOL    HW237823   4.237   6.141   1.537  1.3565 -0.7840 -1.1668
12203SOL     OW37824   4.941   6.031   1.141  0.0161 -0.3509  0.2637
12203SOL    HW137825   4.929   6.125   1.155  1.7176 -0.2486  1.4356
12203SOL    HW237826   4.943   5.994   1.229  0.4579 -1.3168 -0.1381
12204SOL     OW37827   4.686   6.461   1.711 -0.1573  0.2736 -0.1525
12204SOL    HW137828   4.625   6.465   1.785  0.3743  0.7574  0.2675
12204SOL    HW237829   4.772   6.452   1.751  0.0389 -0.5929 -0.7522
12205SOL     OW37830   4.083   6.861   1.080  0.4289 -0.4378 -0.0237
12205SOL    HW137831   4.064   6.952   1.058 -0.7325 -0.0188  2.4170
12205SOL    HW237832   4.138   6.866   1.158  0.0723 -1.8214  0.3494
12206SOL     OW37833   4.575   7.322   1.350  0.2528  0.4048 -0.5087
12206SOL    HW137834   4.560   7.246   1.294 -0.3155  0.4489 -0.4259
12206SOL    HW237835   4.592   7.393   1.288  3.1112 -0.2280 -0.5456
12207SOL     OW37836   3.497   6.197   1.377 -0.4698  0.4042  0.2428
12207SOL    HW137837   3.590   6.211   1.357 -0.8448 -1.7424 -4.3092
12207SOL    HW237838   3.495   6.111   1.420 -0.3691  0.0799 -0.3880
12208SOL     OW37839   5.281   6.050   0.346 -0.2132  0.0014  0.1669
12208SOL    HW137840   5.231   6.092   0.416  0.5531 -0.1515  0.8228
12208SOL    HW237841   5.217   5.997   0.299 -0.6013 -0.4980  1.2308
12209SOL     OW37842   4.406   7.375   0.349  0.7314  0.0509 -0.6484
12209SOL    HW137843   4.424   7.290   0.307 -0.7877  0.1393 -1.5896
12209SOL    HW237844   4.310   7.383   0.346  0.7327  1.0850  0.8980
12210SOL     OW37845   4.637   6.818   1.933  0.0786  0.4576 -0.0173
12210SOL    HW137846   4.667   6.745   1.878 -0.5637 -1.0433  1.5500
12210SOL    HW237847   4.716   6.868   1.951  0.4993  0.3033 -1.3103
12211SOL     OW37848   4.353   7.065   0.612  0.0085  0.6721 -0.3487
12211SOL    HW137849   4.338   7.072   0.518  0.3821 -1.3709 -0.6165
12211SOL    HW237850   4.403   6.983   0.622 -0.9668  0.2630  1.7191
12212SOL     OW37851   4.077   6.621   0.346  0.0823 -0.0286  0.0755
12212SOL    HW137852   4.140   6.623   0.274  0.5485 -0.2789  0.4736
12212SOL    HW237853   4.068   6.529   0.369 -0.1796  0.0372  0.2462
12213SOL     OW37854   4.426   7.538   1.445 -0.3396  0.0137  0.6461
12213SOL    HW137855   4.349   7.533   1.389 -1.0033  0.1864  1.5114
12213SOL    HW237856   4.467   7.452   1.438  0.9396  0.7615 -1.9243
12214SOL     OW37857   4.285   5.964   0.465 -0.2303  0.3279  0.7758
12214SOL    HW137858   4.307   5.890   0.520  1.6627 -0.3964 -0.8366
12214SOL    HW237859   4.219   6.013   0.515 -0.8266 -1.8839  2.2915
12215SOL     OW37860   5.236   6.383   1.250 -0.3015 -0.0206  0.0103
12215SOL    HW137861   5.308   6.424   1.298 -1.8920 -0.1194  2.6680
12215SOL    HW237862   5.260   6.290   1.246 -0.8842 -0.3388  2.2865
12216SOL     OW37863   3.677   6.215   0.703 -0.6539  0.7478  0.4573
12216SOL    HW137864   3.623   6.143   0.736  0.7000 -0.2110  0.6197
12216SOL    HW237865   3.701   6.265   0.781  0.5352 -0.1203  0.6608
12217SOL     OW37866   5.455   7.547   0.631 -0.2989  0.6123  0.3229
12217SOL    HW137867   5.546   7.561   0.656 -0.2645  2.7035 -0.8249
12217SOL    HW237868   5.407   7.615   0.677 -0.7488  1.9514 -1.9981
12218SOL     OW37869   4.061   6.909   0.090 -0.3090  0.9359 -0.4389
12218SOL    HW137870   4.001   6.917   0.164  0.0183 -1.5323  0.1580
12218SOL    HW237871   4.148   6.910   0.130 -0.1034  0.2440 -0.8644
12219SOL     OW37872   5.452   6.786   0.554 -0.0133  0.8724  0.0684
12219SOL    HW137873   5.360   6.795   0.527  0.0698  1.3864 -0.0621
12219SOL    HW237874   5.477   6.698   0.528 -0.0916  1.1662 -1.0496
12220SOL     OW37875   5.295   6.432   0.243  0.0742  0.3766  0.0342
12220SOL    HW137876   5.200   6.418   0.243  0.1096  0.0377 -1.0269
12220SOL    HW237877   5.332   6.350   0.211  0.8838 -0.2106  2.3261
12221SOL     OW37878   3.829   6.359   1.266 -0.2307  0.2124 -0.0083
12221SOL    HW137879   3.844   6.315   1.350 -0.3933  0.1957  0.0115
12221SOL    HW237880   3.896   6.324   1.208 -0.5374 -0.2741 -0.0754
12222SOL     OW37881   4.777   7.273   0.578 -0.4427  0.3463  0.3127
12222SOL    HW137882   4.752   7.192   0.533  0.0782  0.0462  0.5509
12222SOL    HW237883   4.854   7.304   0.531 -1.6614  1.6756 -0.8962
12223SOL     OW37884   4.834   7.283   1.053 -0.2734  0.0867  0.3447
12223SOL    HW137885   4.845   7.356   1.114  0.5754 -0.6494  1.0905
12223SOL    HW237886   4.779   7.220   1.099  2.0510 -1.3929  1.2245
12224SOL     OW37887   4.604   5.871   0.552 -0.2320 -0.0856 -0.1011
12224SOL    HW137888   4.564   5.944   0.600 -0.2869  2.0164 -3.0376
12224SOL    HW237889   4.529   5.819   0.522 -0.2130 -1.1826  1.6092
12225SOL     OW37890   3.881   6.647   1.060  0.0984  0.1953  0.5084
12225SOL    HW137891   3.928   6.588   1.119 -0.8466  0.2891  1.3830
12225SOL    HW237892   3.937   6.724   1.054  0.5961 -0.1548  0.6358
12226SOL     OW37893   5.424   6.624   8.766  0.8156 -0.4064  0.0359
12226SOL    HW137894   5.329   6.625   8.783  0.8951 -0.4429  0.4827
12226SOL    HW237895   5.455   6.707   8.801  0.7104  0.3386 -1.5469
12227SOL     OW37896   4.519   7.581   1.708  0.6466 -0.1362  0.1128
12227SOL    HW137897   4.542   7.495   1.743 -0.7995 -0.0659  1.3171
12227SOL    HW237898   4.515   7.569   1.614 -2.5448 -2.2313  0.3844
12228SOL     OW37899   4.324   5.203   1.893 -0.1999 -0.1578  0.4891
12228SOL    HW137900   4.253   5.249   1.849  0.2630 -1.1691 -1.4380
12228SOL    HW237901   4.280   5.138   1.947 -0.7680  0.2496  0.5259
12229SOL     OW37902   5.196   6.904   1.039 -0.1240  0.2603 -0.1469
12229SOL    HW137903   5.140   6.886   0.964  1.3793 -2.7966 -0.6923
12229SOL    HW237904   5.145   6.876   1.115 -0.3248 -0.0024 -0.3761
12230SOL     OW37905   5.202   7.540   0.449  0.0351 -0.3580  0.6176
12230SOL    HW137906   5.287   7.550   0.492  0.2329  0.9786 -0.0424
12230SOL    HW237907   5.159   7.624   0.460 -0.4651 -0.4369 -0.5877
12231SOL     OW37908   4.463   6.025   0.239  0.1820 -0.0055  0.3734
12231SOL    HW137909   4.410   6.014   0.317 -1.6697  0.4474 -0.7680
12231SOL    HW237910   4.543   5.974   0.257  0.9982  2.1104  3.5380
12232SOL     OW37911   5.007   6.169   0.804 -0.1071 -0.1926  0.1149
12232SOL    HW137912   5.041   6.254   0.833 -0.8161  0.7475 -1.6111
12232SOL    HW237913   5.013   6.113   0.881 -0.7381  1.7540  1.6773
12233SOL     OW37914   5.343   7.588   0.948  0.0276 -0.2329  0.5613
12233SOL    HW137915   5.405   7.655   0.920  0.0572 -1.2961 -2.2010
12233SOL    HW237916   5.262   7.609   0.900  0.0071 -2.0473 -0.2739
12234SOL     OW37917   4.759   6.331   1.421 -0.1414  0.4333  0.3678
12234SOL    HW137918   4.849   6.349   1.395 -0.2995  1.9561  0.7575
12234SOL    HW237919   4.749   6.374   1.506 -0.9878 -0.4684  0.7599
12235SOL     OW37920   5.157   6.134   2.071 -0.4607 -0.0441  0.5066
12235SOL    HW137921   5.122   6.213   2.111 -0.0146  0.4980 -0.1525
12235SOL    HW237922   5.143   6.066   2.137 -2.1599  0.2705  0.5362
12236SOL     OW37923   3.978   6.375   1.974  0.1745  0.4005  0.1982
12236SOL    HW137924   4.012   6.307   2.033 -1.3299  0.3179  1.0075
12236SOL    HW237925   3.887   6.349   1.957  0.0534  1.3813 -0.7460
12237SOL     OW37926   4.662   6.673   1.208 -0.5282  0.0107  0.4271
12237SOL    HW137927   4.666   6.707   1.119 -1.1236 -0.6490  0.1444
12237SOL    HW237928   4.752   6.649   1.229 -0.1415  1.4587  0.5266
12238SOL     OW37929   4.336   6.513   0.212  0.3711  0.3936  0.2237
12238SOL    HW137930   4.410   6.454   0.196  0.7654  0.7501  0.7127
12238SOL    HW237931   4.292   6.475   0.287  0.5010  0.6019  0.4058
12239SOL     OW37932   3.911   6.567   0.722  0.2645 -0.4901 -0.2703
12239SOL    HW137933   3.953   6.653   0.730  0.2119 -0.4361 -0.5733
12239SOL    HW237934   3.818   6.585   0.729  0.2920 -0.6345  0.6132
12240SOL     OW37935   3.962   7.266   1.356 -0.3813 -0.0326 -0.6656
12240SOL    HW137936   3.994   7.177   1.375 -0.0947 -0.2069 -1.9029
12240SOL    HW237937   3.913   7.257   1.274 -0.2640  0.9752 -0.8569
12241SOL     OW37938   4.877   6.090   0.391 -0.1378  0.4861  0.6790
12241SOL    HW137939   4.804   6.146   0.365 -0.5598  0.2340  1.2833
12241SOL    HW237940   4.871   6.087   0.487  0.0304 -0.3819  0.6713
12242SOL     OW37941   5.702   6.132   1.611  0.4292  0.0365  0.1256
12242SOL    HW137942   5.723   6.085   1.531 -0.8197  0.3122 -0.3872
12242SOL    HW237943   5.610   6.158   1.600  0.2428  0.0933  1.6339
12243SOL     OW37944   5.150   6.422   0.619  0.6964  0.4621  0.2717
12243SOL    HW137945   5.161   6.332   0.588 -2.0747 -0.1777  0.9136
12243SOL    HW237946   5.125   6.471   0.541 -0.2290  0.1267  0.3441
12244SOL     OW37947   4.411   5.899   1.329 -0.2656  0.5586 -0.1242
12244SOL    HW137948   4.397   5.961   1.400  0.9496 -0.0550  0.6956
12244SOL    HW237949   4.484   5.935   1.279  0.8853 -0.4581  0.7349
12245SOL     OW37950   5.176   6.963   0.636 -0.0343 -0.6554 -0.2835
12245SOL    HW137951   5.085   6.958   0.608 -0.4096  1.1290  0.4485
12245SOL    HW237952   5.173   7.010   0.719  1.6771  1.5042 -1.3162
12246SOL     OW37953   4.010   7.259   0.599  0.5544 -0.2622  0.1465
12246SOL    HW137954   3.964   7.179   0.576 -0.1390  0.3229 -0.5654
12246SOL    HW237955   4.034   7.298   0.515 -2.3007  2.0814  0.2733
12247SOL     OW37956   5.817   6.624   0.848  0.2332 -0.3050  0.1220
12247SOL    HW137957   5.823   6.595   0.757  1.5372 -0.9851  0.3911
12247SOL    HW237958   5.728   6.604   0.874  0.0584 -0.7697 -0.7908
12248SOL     OW37959   4.368   7.060   1.397  0.4096  0.5792 -0.0510
12248SOL    HW137960   4.355   7.069   1.491  0.2831 -0.7809  0.0770
12248SOL    HW237961   4.463   7.053   1.386  0.4132  0.5716 -0.0163
12249SOL     OW37962   4.135   6.365   0.377 -0.3583 -0.2413 -0.1472
12249SOL    HW137963   4.082   6.334   0.450 -0.4930 -1.2623 -0.6534
12249SOL    HW237964   4.215   6.313   0.382 -0.2788 -0.1633 -0.5918
12250SOL     OW37965   5.517   5.866   0.416 -0.3071 -0.0623  0.4957
12250SOL    HW137966   5.431   5.832   0.441 -0.3713  0.2996  0.7772
12250SOL    HW237967   5.497   5.946   0.367 -0.0852  1.1060  2.2273
12251SOL     OW37968   3.835   6.809   1.539 -0.5452 -0.7343  0.4600
12251SOL    HW137969   3.867   6.888   1.495 -0.7182 -0.0125  1.5698
12251SOL    HW237970   3.740   6.812   1.526 -0.9756  1.0387  3.1772
12252SOL     OW37971   4.773   7.029   0.188  0.2127 -0.1533 -0.2280
12252SOL    HW137972   4.762   7.111   0.139  1.6912  0.2072  0.0241
12252SOL    HW237973   4.846   6.985   0.145  0.1676 -0.8181  0.3658
12253SOL     OW37974   3.951   6.185   1.451  0.3850 -0.1256 -0.8179
12253SOL    HW137975   4.040   6.205   1.482 -0.4362  0.5232  1.3069
12253SOL    HW237976   3.910   6.139   1.524 -0.9514 -0.7110 -1.8871
12254SOL     OW37977   5.194   6.790   0.384  0.3967  0.1049  0.0168
12254SOL    HW137978   5.196   6.764   0.292  1.1410 -0.3090  0.1408
12254SOL    HW237979   5.107   6.826   0.397  0.7334  1.4390 -1.2052
12255SOL     OW37980   4.224   7.246   0.105  0.2985 -0.3037  0.6909
12255SOL    HW137981   4.276   7.173   0.075 -0.7315 -0.4102 -0.9385
12255SOL    HW237982   4.231   7.312   0.036 -0.4583  0.2970  1.1608
12256SOL     OW37983   5.741   5.717   0.420  0.3299  0.2096 -0.0697
12256SOL    HW137984   5.653   5.755   0.417 -0.6068 -1.7385  1.0673
12256SOL    HW237985   5.781   5.744   0.337 -1.6155  0.4623 -0.9831
12257SOL     OW37986   4.503   7.281   0.940  0.1396 -0.1598  0.2326
12257SOL    HW137987   4.439   7.284   1.011 -1.8553 -0.8301 -1.4615
12257SOL    HW237988   4.532   7.190   0.937 -2.4260 -1.0362 -1.9318
12258SOL     OW37989   4.560   7.930   0.868  0.2540 -0.4834 -0.4166
12258SOL    HW137990   4.519   7.901   0.787  1.3059 -0.5158 -0.9547
12258SOL    HW237991   4.500   7.903   0.937  0.0334 -1.7562 -1.0813
12259SOL     OW37992   4.226   6.467   0.824 -0.0558  0.6790  0.5744
12259SOL    HW137993   4.257   6.517   0.899 -0.1177  0.2101  0.9189
12259SOL    HW237994   4.131   6.472   0.830 -0.0822 -0.2541  1.1538
12260SOL     OW37995   5.295   5.780   1.160 -0.1844 -0.0706 -0.7728
12260SOL    HW137996   5.203   5.773   1.185 -0.0871  1.3415  0.0981
12260SOL    HW237997   5.341   5.802   1.241  1.2029 -2.3738 -0.8468
12261SOL     OW37998   4.816   6.803   1.558  0.4193 -0.3422  0.0103
12261SOL    HW137999   4.873   6.874   1.587  0.8677 -1.4849  2.1438
12261SOL    HW238000   4.876   6.737   1.523  0.2985 -0.9691  0.9687
12262SOL     OW38001   4.451   7.346   0.696  0.4177  0.2836  0.2884
12262SOL    HW138002   4.435   7.260   0.657  1.3724 -0.1045  0.7137
12262SOL    HW238003   4.470   7.327   0.788  3.3710  0.6325 -0.1584
12263SOL     OW38004   5.036   6.822   1.828 -0.3710 -0.1510 -0.6935
12263SOL    HW138005   4.966   6.775   1.873 -0.7063 -0.1019 -1.1580
12263SOL    HW238006   4.996   6.906   1.803  0.0428  0.1410 -0.4023
12264SOL     OW38007   4.723   6.762   0.960 -0.3881 -0.1885 -0.4178
12264SOL    HW138008   4.814   6.790   0.944 -0.2807 -0.8706 -1.0620
12264SOL    HW238009   4.701   6.708   0.884 -0.8087 -1.3040  0.4717
12265SOL     OW38010   4.954   5.626   1.052 -0.4583 -0.2205  0.3246
12265SOL    HW138011   4.885   5.568   1.084  0.1613  0.7666  3.8225
12265SOL    HW238012   5.035   5.586   1.082  0.4130 -0.1955 -1.8127
12266SOL     OW38013   3.994   5.770   0.747 -0.4296 -0.4132  0.3581
12266SOL    HW138014   4.019   5.852   0.788  1.1086 -0.2023 -0.9006
12266SOL    HW238015   3.904   5.755   0.776 -0.4676  1.2988  1.2356
12267SOL     OW38016   5.605   6.885   0.298  0.0981 -0.2634  0.5116
12267SOL    HW138017   5.659   6.964   0.302 -0.4677  0.0835  2.6219
12267SOL    HW238018   5.630   6.836   0.377 -0.1150 -1.8268 -0.3681
12268SOL     OW38019   4.642   6.247   0.399  0.4519 -0.3535  0.2223
12268SOL    HW138020   4.690   6.231   0.480  0.9787 -2.5003 -0.4593
12268SOL    HW238021   4.554   6.274   0.428 -0.1762 -3.4424  1.6025
12269SOL     OW38022   4.987   6.297   1.172  0.3092  0.1096 -0.0703
12269SOL    HW138023   4.992   6.309   1.077  0.3721  2.0659  0.1490
12269SOL    HW238024   5.069   6.333   1.205  0.9429 -1.8333  0.6724
12270SOL     OW38025   4.772   7.625   0.666 -0.0446  0.1974 -0.4414
12270SOL    HW138026   4.696   7.606   0.612  0.4805 -0.5170 -0.9484
12270SOL    HW238027   4.797   7.540   0.703 -1.4899  0.9138  2.4264
12271SOL     OW38028   4.493   6.835   0.606 -0.0715  0.1336  0.1219
12271SOL    HW138029   4.464   6.763   0.550 -0.7055 -0.2811  0.9510
12271SOL    HW238030   4.578   6.862   0.571  0.3859 -1.3183  0.0692
12272SOL     OW38031   5.102   7.776   0.589 -0.1930 -0.2834 -0.5401
12272SOL    HW138032   5.017   7.821   0.594  0.4434  0.8731  0.1580
12272SOL    HW238033   5.166   7.844   0.606  0.7479 -1.7089  2.0735
12273SOL     OW38034   4.710   6.382   0.176  0.5298  0.4757 -0.3687
12273SOL    HW138035   4.688   6.320   0.245  2.6487  0.0062 -0.0780
12273SOL    HW238036   4.645   6.365   0.108 -1.9095  1.2720  1.6022
12274SOL     OW38037   3.695   6.208   1.911  0.0675  0.4083 -0.1277
12274SOL    HW138038   3.659   6.290   1.876 -0.4167  0.1310 -0.2950
12274SOL    HW238039   3.713   6.227   2.003 -0.7055  0.5031  0.0170
12275SOL     OW38040   4.022   5.992   0.882 -0.2023  0.3575 -0.7198
12275SOL    HW138041   3.965   5.985   0.958 -0.2673  0.2246 -0.7797
12275SOL    HW238042   4.104   5.951   0.911  1.4501  4.2513  0.8554
12276SOL     OW38043   4.133   6.112   0.646  0.0349  0.1759 -0.8564
12276SOL    HW138044   4.070   6.183   0.637 -0.4020 -0.1766 -0.6025
12276SOL    HW238045   4.114   6.072   0.731  1.3632  0.7989 -0.2352
12277SOL     OW38046   4.906   5.910   0.682  0.1517 -0.3073 -0.0956
12277SOL    HW138047   4.976   5.951   0.733  0.3294 -2.0660  1.1789
12277SOL    HW238048   4.826   5.931   0.731  0.1715 -0.9319  0.2112
12278SOL     OW38049   4.991   6.750   0.890  0.0342 -0.1053 -0.4526
12278SOL    HW138050   4.968   6.694   0.816 -0.7063  0.7142 -0.8531
12278SOL    HW238051   5.030   6.690   0.954  0.5949 -0.8419 -1.4544
12279SOL     OW38052   5.374   6.134   1.214 -0.3940 -0.2322 -0.1384
12279SOL    HW138053   5.381   6.060   1.274 -2.0386  0.0037  0.3953
12279SOL    HW238054   5.367   6.094   1.127 -2.5233 -0.8103  0.2464
12280SOL     OW38055   5.438   6.140   0.667 -0.4696 -0.3779  0.2030
12280SOL    HW138056   5.515   6.084   0.673  0.1000  0.5459  3.2643
12280SOL    HW238057   5.469   6.220   0.623 -0.0897 -0.6289  0.0158
12281SOL     OW38058   4.588   6.809   0.152  0.2151 -0.5454 -0.0044
12281SOL    HW138059   4.623   6.869   0.218 -1.8807  0.4927  0.2475
12281SOL    HW238060   4.643   6.823   0.075  0.7871  0.4701  0.5680
12282SOL     OW38061   5.502   7.016   0.742 -0.7112  0.0158  0.2316
12282SOL    HW138062   5.595   7.000   0.757 -0.9836 -0.0647  2.0225
12282SOL    HW238063   5.479   6.958   0.668  1.1161  1.7194 -1.7971
12283SOL     OW38064   5.080   5.875   8.612  0.2672  0.3529  0.0086
12283SOL    HW138065   5.049   5.846   8.526  0.4859 -4.6193  1.3125
12283SOL    HW238066   5.171   5.900   8.598  0.0668  0.4172 -1.2965
12284SOL     OW38067   3.993   5.478   0.749  0.7666  0.2626 -0.0639
12284SOL    HW138068   3.998   5.572   0.732  0.6206  0.3663  0.4686
12284SOL    HW238069   4.066   5.461   0.809  0.4821  0.1247  0.2412
12285SOL     OW38070   5.470   6.653   1.654  0.7814  0.2582  0.2219
12285SOL    HW138071   5.557   6.681   1.627  0.6779  1.3136  0.9207
12285SOL    HW238072   5.467   6.671   1.748  0.2133 -0.8547  0.4291
12286SOL     OW38073   4.088   6.514   1.275 -0.1523 -0.2342 -0.5998
12286SOL    HW138074   4.052   6.542   1.359  2.6559  0.6156  0.4132
12286SOL    HW238075   4.170   6.469   1.297 -0.3687 -1.8585 -2.7838
12287SOL     OW38076   5.363   7.302   1.670  0.2200  0.3407 -0.6489
12287SOL    HW138077   5.392   7.349   1.592 -1.1329  0.4646 -1.1073
12287SOL    HW238078   5.316   7.367   1.722  1.0282  0.2338  0.2415
12288SOL     OW38079   4.378   6.456   1.309 -0.3288  0.7229 -0.3524
12288SOL    HW138080   4.393   6.538   1.262  1.1023  0.1533 -0.9407
12288SOL    HW238081   4.435   6.462   1.386 -1.3456  0.9001  0.4076
12289SOL     OW38082   4.998   6.815   1.252 -0.5424  0.3617 -0.3018
12289SOL    HW138083   4.970   6.905   1.269 -3.9978 -0.9685  2.1015
12289SOL    HW238084   5.002   6.774   1.339 -0.0738 -2.0710 -1.3915
12290SOL     OW38085   5.010   6.380   1.577  0.1368  0.3779  0.4061
12290SOL    HW138086   5.087   6.425   1.611  2.2955 -2.5025 -0.2004
12290SOL    HW238087   4.969   6.341   1.654 -0.4996  1.5560  0.6817
12291SOL     OW38088   4.887   6.204   1.746 -0.2115  0.4540  0.4919
12291SOL    HW138089   4.793   6.198   1.733 -0.1518  1.4512 -0.5834
12291SOL    HW238090   4.906   6.141   1.815 -1.4558 -0.8624 -0.3071
12292SOL     OW38091   4.451   7.088   0.258  0.5138  0.0648  0.3465
12292SOL    HW138092   4.501   7.128   0.186  0.3192  0.6344  0.5244
12292SOL    HW238093   4.363   7.078   0.222  0.0065  1.8135  1.0136
12293SOL     OW38094   3.670   6.762   0.903  0.2090  0.2143 -0.1512
12293SOL    HW138095   3.683   6.854   0.924 -0.2356  0.2311  0.0604
12293SOL    HW238096   3.743   6.717   0.947  0.2988  0.4418 -0.0685
12294SOL     OW38097   5.396   6.041   0.935  0.2196  0.1411 -0.2160
12294SOL    HW138098   5.388   6.062   0.842 -2.6468  1.8180  0.3057
12294SOL    HW238099   5.335   5.969   0.949 -0.6755  1.0285  0.6376
12295SOL     OW38100   3.662   7.079   1.235 -0.0803  0.4393  0.1648
12295SOL    HW138101   3.726   7.096   1.304 -1.2893  2.2797  0.9100
12295SOL    HW238102   3.629   6.991   1.254  1.5900 -0.2041  0.2504
12296SOL     OW38103   4.112   6.464   0.041 -0.1731 -0.3590  0.2305
12296SOL    HW138104   4.157   6.495  -0.037  1.7931 -1.2511  0.9276
12296SOL    HW238105   4.181   6.454   0.106 -1.7091  0.1154  2.0322
12297SOL     OW38106   3.916   5.948   1.322  0.2594 -0.0443  0.4866
12297SOL    HW138107   3.932   6.036   1.357  0.6022 -0.2930  0.9723
12297SOL    HW238108   4.004   5.916   1.299 -0.0553  0.6604 -1.9991
12298SOL     OW38109   5.004   7.092   0.903 -0.3465 -0.3836  0.2434
12298SOL    HW138110   5.061   7.153   0.856 -0.5564 -1.4483 -1.4858
12298SOL    HW238111   4.934   7.148   0.937 -0.2116  0.4441 -0.7622
12299SOL     OW38112   4.927   7.069   1.349 -0.0037  0.1365 -0.3713
12299SOL    HW138113   4.959   7.052   1.438 -1.3026  0.0323  0.1022
12299SOL    HW238114   4.931   7.165   1.340 -0.4780  0.2070  0.0640
12300SOL     OW38115   5.061   6.296   0.289  0.7198 -0.0205 -0.1476
12300SOL    HW138116   5.042   6.345   0.369 -0.0862 -0.5840  0.0141
12300SOL    HW238117   5.027   6.208   0.305 -0.7346  0.2192 -1.6180
12301SOL     OW38118   4.528   6.944   1.020 -0.2654 -0.2205 -0.0553
12301SOL    HW138119   4.586   6.870   1.001 -1.0395 -0.5111 -1.3943
12301SOL    HW238120   4.446   6.922   0.976 -2.5435 -1.2540  4.1516
12302SOL     OW38121   3.984   6.472   2.243  0.3076  0.2979 -0.2489
12302SOL    HW138122   3.894   6.460   2.272  0.4670 -2.1229 -0.5301
12302SOL    HW238123   3.980   6.463   2.148  0.4139  3.8842 -0.7478
12303SOL     OW38124   5.746   6.422   1.943 -1.1473 -0.1679  0.6565
12303SOL    HW138125   5.680   6.369   1.897  0.7127  0.9957 -3.9859
12303SOL    HW238126   5.728   6.512   1.916  1.2774  0.3657  0.5321
12304SOL     OW38127   4.776   5.717   2.169  0.1746  0.2268 -0.3035
12304SOL    HW138128   4.713   5.782   2.198 -0.7072 -0.4911 -0.5551
12304SOL    HW238129   4.761   5.642   2.227 -0.0375 -0.3852 -1.1368
12305SOL     OW38130   4.279   6.019   1.637  0.2541  0.0104 -0.3241
12305SOL    HW138131   4.306   5.927   1.633  1.0041  0.2421 -0.7919
12305SOL    HW238132   4.279   6.041   1.730 -1.2911 -0.8367 -0.0802
12306SOL     OW38133   4.347   6.835   0.856  0.0268  0.2022  0.5659
12306SOL    HW138134   4.402   6.812   0.781  1.8557 -1.4778  2.2967
12306SOL    HW238135   4.261   6.855   0.818  1.3245  1.2266 -2.0945
12307SOL     OW38136   5.511   6.275   1.013 -0.2902  0.2615 -0.4135
12307SOL    HW138137   5.480   6.191   0.979  1.1864 -0.4224 -0.1126
12307SOL    HW238138   5.488   6.273   1.106  0.1536  0.0015 -0.3110
12308SOL     OW38139   5.086   6.177   8.714 -0.2367 -0.1199  0.1292
12308SOL    HW138140   5.070   6.086   8.688  0.9966  0.0298 -1.3024
12308SOL    HW238141   4.999   6.215   8.725 -0.7651 -1.3505  0.3120
12309SOL     OW38142   3.523   5.921   1.525 -0.1758  0.1781 -0.4735
12309SOL    HW138143   3.431   5.904   1.547  0.5167 -1.5188  1.5727
12309SOL    HW238144   3.572   5.872   1.592  2.2313 -0.0406 -2.2773
12310SOL     OW38145   3.492   7.285   1.379  0.0146  0.0249  0.4940
12310SOL    HW138146   3.476   7.197   1.347 -0.5172  0.2946  0.0112
12310SOL    HW238147   3.576   7.279   1.425  0.1971 -0.6272  0.0810
12311SOL     OW38148   4.276   6.225   1.210  0.2186 -0.7963  0.1602
12311SOL    HW138149   4.217   6.203   1.282  0.3663 -1.5083  0.0699
12311SOL    HW238150   4.327   6.299   1.243 -2.4438  1.6041 -0.6718
12312SOL     OW38151   5.721   6.675   1.862 -0.2743 -0.1219  0.2886
12312SOL    HW138152   5.765   6.694   1.780  0.4460 -0.7291  0.5189
12312SOL    HW238153   5.775   6.717   1.929 -0.8615  0.3827  0.4530
12313SOL     OW38154   4.129   5.708   1.004 -0.2577 -0.4638  0.0434
12313SOL    HW138155   4.204   5.661   1.041 -1.5544 -1.8997  0.9130
12313SOL    HW238156   4.081   5.642   0.955 -0.2589  0.7472 -1.6916
12314SOL     OW38157   5.526   6.257   8.678  0.6181 -0.2782 -0.5631
12314SOL    HW138158   5.489   6.173   8.705  0.1529 -0.0696 -0.5320
12314SOL    HW238159   5.454   6.320   8.691  0.5110 -0.0994 -1.8810
12315SOL     OW38160   4.512   6.073   1.113 -0.3629  0.5502  0.2482
12315SOL    HW138161   4.543   6.152   1.158  0.6814 -0.6454  1.7368
12315SOL    HW238162   4.426   6.098   1.078 -0.8038  1.8789  2.0774
12316SOL     OW38163   4.753   7.240   1.965 -0.3837  0.3677  0.0723
12316SOL    HW138164   4.687   7.239   1.896 -2.1527 -1.7558  1.6619
12316SOL    HW238165   4.725   7.309   2.025  0.4462  1.3417 -0.6180
12317SOL     OW38166   5.540   6.960   1.501  0.2316  0.2967  0.1216
12317SOL    HW138167   5.583   7.018   1.438  1.3585  0.2589  0.8289
12317SOL    HW238168   5.557   6.872   1.467 -0.9478  0.3458 -0.6214
12318SOL     OW38169   3.781   6.219   2.189 -0.4685  0.0214  0.3856
12318SOL    HW138170   3.729   6.249   2.264  0.7734  1.3715  0.7548
12318SOL    HW238171   3.818   6.136   2.218 -2.3541 -0.9758  0.1147
12319SOL     OW38172   5.337   5.870   8.512 -0.0667  0.1393  0.6557
12319SOL    HW138173   5.413   5.833   8.468 -0.6258  0.0983 -0.3105
12319SOL    HW238174   5.372   5.942   8.565  0.7546 -0.4682  0.9503
12320SOL     OW38175   5.122   6.592   8.799 -0.0776  0.7671  0.1054
12320SOL    HW138176   5.029   6.571   8.809  0.0247 -0.4933 -1.1652
12320SOL    HW238177   5.134   6.675   8.844 -1.5886  0.4101  1.2402
12321SOL     OW38178   4.839   7.410   0.828 -0.0232  0.1835  0.3060
12321SOL    HW138179   4.849   7.377   0.917  0.5188 -0.3015  0.0681
12321SOL    HW238180   4.809   7.334   0.777  1.0125  0.1050 -0.1976
12322SOL     OW38181   3.640   6.519   0.782 -0.1392  0.3595  0.3097
12322SOL    HW138182   3.659   6.605   0.819  1.0488  0.2386  0.0010
12322SOL    HW238183   3.668   6.457   0.849 -0.1639  0.1952  0.1687
12323SOL     OW38184   3.749   6.353   0.969 -0.0716  0.1600  0.4533
12323SOL    HW138185   3.833   6.308   0.975  1.3890  2.1115 -2.6930
12323SOL    HW238186   3.752   6.420   1.037  0.3111 -0.6105  1.2137
12324SOL     OW38187   5.312   6.690   1.301 -0.2012  0.2731 -0.1384
12324SOL    HW138188   5.287   6.758   1.364 -1.3691  0.5539 -0.8794
12324SOL    HW238189   5.358   6.736   1.232 -2.0096  0.5482 -1.2290
12325SOL     OW38190   4.987   6.625   1.449  0.1095 -0.3207 -0.3195
12325SOL    HW138191   5.072   6.659   1.476  0.0291 -0.0107 -0.4483
12325SOL    HW238192   4.987   6.534   1.479  0.0762 -0.0342  0.5976
12326SOL     OW38193   3.770   7.262   0.813 -0.2754  0.4845  0.2210
12326SOL    HW138194   3.765   7.237   0.721  0.9994  1.0693 -0.0295
12326SOL    HW238195   3.821   7.343   0.813 -0.9815  0.9535  1.3689
12327SOL     OW38196   4.145   7.111   0.783 -0.5327 -0.3163  0.5721
12327SOL    HW138197   4.098   7.162   0.717 -0.5525 -0.0640  0.7812
12327SOL    HW238198   4.218   7.073   0.735 -1.1579 -1.0265  0.1532
12328SOL     OW38199   4.481   6.629   1.580  0.4306  0.0075 -0.2263
12328SOL    HW138200   4.529   6.687   1.520 -0.2633  2.2436  1.2856
12328SOL    HW238201   4.541   6.615   1.653 -0.2115  0.6836  0.4501
12329SOL     OW38202   3.658   6.580   1.222 -0.5491 -0.3194 -0.1709
12329SOL    HW138203   3.681   6.492   1.254 -0.8724 -0.0879  0.7126
12329SOL    HW238204   3.741   6.615   1.189 -0.2085 -0.5687  0.4058
12330SOL     OW38205   3.831   5.904   1.968  0.2870  0.2519 -0.3463
12330SOL    HW138206   3.811   5.995   1.989  0.0180  0.4049 -1.2361
12330SOL    HW238207   3.926   5.897   1.980 -0.0268 -0.1765  2.7296
12331SOL     OW38208   5.028   7.044   1.627  0.4330  0.3672  0.2195
12331SOL    HW138209   5.010   7.123   1.679 -0.6088  0.9630 -1.0015
12331SOL    HW238210   5.122   7.028   1.640  0.1785  0.3188  2.4759
12332SOL     OW38211   4.402   6.315   0.503  0.1110 -0.3382 -0.7196
12332SOL    HW138212   4.412   6.390   0.563  0.7165 -1.2656  0.3768
12332SOL    HW238213   4.410   6.238   0.559 -1.2051 -1.2439 -1.7233
12333SOL     OW38214   5.190   6.784   1.555  0.3554 -0.3039 -0.2338
12333SOL    HW138215   5.165   6.771   1.647  1.7538 -3.0757 -0.1392
12333SOL    HW238216   5.233   6.869   1.554 -0.6083  0.2551  1.4525
12334SOL     OW38217   3.650   7.309   1.688  0.3782  0.0724 -0.5897
12334SOL    HW138218   3.635   7.218   1.716 -0.4535  0.6587  1.0308
12334SOL    HW238219   3.581   7.359   1.732  3.0808  2.0336  1.7790
12335SOL     OW38220   4.309   6.206   1.891  0.0783 -0.3530  0.0539
12335SOL    HW138221   4.348   6.256   1.963  0.5876 -0.9962  0.2383
12335SOL    HW238222   4.310   6.266   1.817 -0.2327  0.2420  0.5164
12336SOL     OW38223   4.250   6.834   1.291 -0.6637 -0.5809 -0.1292
12336SOL    HW138224   4.299   6.903   1.336  0.5961 -1.0230 -0.7701
12336SOL    HW238225   4.280   6.753   1.332 -2.0582 -0.7787  0.5497
12337SOL     OW38226   4.068   5.757   0.488  0.5837 -0.2705  0.3078
12337SOL    HW138227   4.065   5.740   0.582 -0.6924  0.2214  0.3802
12337SOL    HW238228   4.070   5.852   0.480  0.4389 -0.3005 -0.1515
12338SOL     OW38229   3.533   6.714   1.536 -0.8196 -0.1800  0.1952
12338SOL    HW138230   3.544   6.621   1.556  0.2049 -0.2871 -0.7810
12338SOL    HW238231   3.523   6.756   1.622 -0.6868 -1.1152  0.6819
12339SOL     OW38232   5.097   6.612   1.114 -0.1857 -0.0933  0.4802
12339SOL    HW138233   5.146   6.557   1.176 -1.2535 -0.9004  0.6168
12339SOL    HW238234   5.051   6.675   1.170 -0.3281 -0.1556  0.4314
12340SOL     OW38235   4.809   6.611   0.261 -0.1002  0.0991 -0.0234
12340SOL    HW138236   4.767   6.527   0.244 -0.0626  0.2002 -0.6544
12340SOL    HW238237   4.811   6.655   0.175  1.2250  0.1185 -0.0141
12341SOL     OW38238   5.442   7.333   1.421  0.5543 -0.3292  0.4096
12341SOL    HW138239   5.476   7.249   1.393 -1.6434 -0.9594 -0.6483
12341SOL    HW238240   5.469   7.394   1.352 -1.2547 -1.0445 -1.0340
12342SOL     OW38241   4.622   7.536   0.958  0.1826 -0.4311 -0.1455
12342SOL    HW138242   4.636   7.562   0.867 -0.5143 -1.0250 -0.4371
12342SOL    HW238243   4.626   7.441   0.957  1.5439 -0.4041  0.7014
12343SOL     OW38244   3.568   6.826   1.298 -0.5599 -0.3201  0.2379
12343SOL    HW138245   3.617   6.752   1.261 -1.8750 -0.7181 -0.7819
12343SOL    HW238246   3.538   6.795   1.384 -1.5621 -1.2045 -0.4081
12344SOL     OW38247   4.007   7.077   1.748  0.4282  0.2003 -0.3601
12344SOL    HW138248   4.048   7.031   1.821  0.7401  1.6510  0.4141
12344SOL    HW238249   3.935   7.126   1.788 -0.3955 -0.2202 -1.2899
12345SOL     OW38250   5.246   5.861   0.050  0.4116 -0.1733 -0.0240
12345SOL    HW138251   5.212   5.799  -0.014 -1.6672  0.5945  0.2700
12345SOL    HW238252   5.170   5.886   0.103  1.4846  1.4509  0.8470
12346SOL     OW38253   5.447   5.665   0.133 -0.0950  0.1933  0.2858
12346SOL    HW138254   5.416   5.755   0.119  0.1541  0.3979  1.0335
12346SOL    HW238255   5.542   5.672   0.132 -0.0757 -0.0639  0.3477
12347SOL     OW38256   5.025   7.315   0.421 -0.1646 -0.4082  0.0130
12347SOL    HW138257   5.094   7.256   0.452  0.5447  0.3079 -0.1685
12347SOL    HW238258   5.070   7.398   0.403 -1.0760  0.0815 -0.0971
12348SOL     OW38259   3.755   7.117   1.513  0.0207  0.3938  0.0055
12348SOL    HW138260   3.824   7.176   1.543 -0.6353  0.9730  0.3977
12348SOL    HW238261   3.703   7.098   1.591 -0.0460 -0.3419 -0.2117
12349SOL     OW38262   5.176   6.127   0.586 -0.1133 -0.1547  0.3280
12349SOL    HW138263   5.118   6.113   0.661  1.3062 -0.9087  1.3255
12349SOL    HW238264   5.264   6.127   0.623  0.5142  2.1649 -0.9641
12350SOL     OW38265   4.238   6.738   1.641  0.5848 -0.1916  0.2147
12350SOL    HW138266   4.323   6.699   1.624  0.9042 -1.2547  3.5511
12350SOL    HW238267   4.253   6.795   1.718 -1.6460 -0.2903  0.7843
12351SOL     OW38268   4.102   7.304   0.326  0.7844  0.1235  0.2305
12351SOL    HW138269   4.132   7.270   0.242 -2.0530 -0.3577 -0.7093
12351SOL    HW238270   4.013   7.269   0.335 -0.0490  2.4672  2.0815
12352SOL     OW38271   4.974   7.356   1.376 -0.1415  0.1314 -0.2799
12352SOL    HW138272   5.062   7.320   1.364 -0.8594 -1.8501  0.1293
12352SOL    HW238273   4.970   7.428   1.313  1.7938  0.3316 -0.2504
12353SOL     OW38274   5.920   5.990   0.673  0.3247 -0.1079  0.1760
12353SOL    HW138275   5.908   5.895   0.673 -1.0241  0.0195  1.3253
12353SOL    HW238276   6.007   6.003   0.709 -0.5263 -0.8791  2.7526
12354SOL     OW38277   3.714   5.844   0.697 -0.1658  0.6368 -0.0448
12354SOL    HW138278   3.659   5.919   0.717  0.4452  0.8114  1.0852
12354SOL    HW238279   3.735   5.853   0.604 -2.7023  0.0986 -0.7545
12355SOL     OW38280   5.377   6.955   0.181 -0.1386  0.1746  0.2053
12355SOL    HW138281   5.304   6.930   0.238 -0.8092 -0.6778 -0.9694
12355SOL    HW238282   5.454   6.918   0.222 -0.2249  1.7278  1.8728
12356SOL     OW38283   4.677   6.048   1.486 -0.4120 -0.0055  0.4163
12356SOL    HW138284   4.705   6.135   1.457  0.5190 -0.0934  1.0111
12356SOL    HW238285   4.608   6.065   1.549 -1.2144  0.2460 -0.5144
12357SOL     OW38286   4.765   6.624   0.535  0.1546  0.1791  0.5865
12357SOL    HW138287   4.672   6.611   0.517  0.2878 -3.7633  1.6440
12357SOL    HW238288   4.810   6.587   0.459  0.8492  0.8791  0.6418
12358SOL     OW38289   5.148   7.227   0.175 -0.1757 -0.4353 -0.6271
12358SOL    HW138290   5.061   7.258   0.196  0.0610  0.2303 -0.6222
12358SOL    HW238291   5.179   7.185   0.256  0.7930  2.2491  0.5041
12359SOL     OW38292   4.271   6.407   1.673  0.6585  0.2287  0.2243
12359SOL    HW138293   4.345   6.455   1.636  1.5941  0.2344  2.0049
12359SOL    HW238294   4.226   6.470   1.729 -0.8383  0.2731 -0.9432
12360SOL     OW38295   5.313   7.035   1.620  0.2823  0.2576 -0.2381
12360SOL    HW138296   5.395   7.001   1.584  0.4044  1.0283 -0.7150
12360SOL    HW238297   5.329   7.129   1.630 -0.0046  0.1704  1.1603
12361SOL     OW38298   4.928   6.556   0.735 -0.1339  0.0256  0.3293
12361SOL    HW138299   4.867   6.581   0.666  2.0631  0.8664 -1.4359
12361SOL    HW238300   4.993   6.502   0.690  0.9399 -0.0585  1.9285
12362SOL     OW38301   5.121   5.650   0.764  0.5762 -0.0233  0.0711
12362SOL    HW138302   5.142   5.640   0.672 -1.2085  0.6189 -0.4499
12362SOL    HW238303   5.025   5.649   0.768  0.5618  1.2139  1.7386
12363SOL     OW38304   4.811   7.362   0.235 -0.0548  0.6401 -0.4963
12363SOL    HW138305   4.739   7.423   0.249 -0.2688  0.7630 -1.9625
12363SOL    HW238306   4.851   7.351   0.321 -0.0225  2.8398 -0.1899
12364SOL     OW38307   5.453   6.421   1.445 -0.2309 -0.9722 -0.0129
12364SOL    HW138308   5.444   6.513   1.471 -0.9423 -0.8461 -0.6693
12364SOL    HW238309   5.545   6.412   1.419  0.0717 -0.6878  0.9279
12365SOL     OW38310   4.341   6.819   8.828 -0.0355 -0.4356 -0.2138
12365SOL    HW138311   4.409   6.793   8.891 -1.6422  2.0286  2.8517
12365SOL    HW238312   4.359   6.911   8.809 -1.1281 -0.4112 -1.2742
12366SOL     OW38313   4.064   6.895   1.947 -0.2682 -0.1705 -0.2253
12366SOL    HW138314   3.995   6.831   1.936 -0.5748 -0.2513  1.7675
12366SOL    HW238315   4.119   6.859   2.017 -0.4357  1.6756  0.9295
12367SOL     OW38316   3.913   5.662   1.416  0.3187 -0.6983  0.5536
12367SOL    HW138317   3.898   5.736   1.356  0.3262 -2.7056 -2.1230
12367SOL    HW238318   3.847   5.674   1.485 -1.8724  0.1211 -1.5248
12368SOL     OW38319   3.682   5.940   0.063  0.1446  0.0993  0.0527
12368SOL    HW138320   3.674   5.980  -0.024 -0.6237 -1.3303 -0.5556
12368SOL    HW238321   3.729   5.859   0.048 -0.1047 -0.2232  0.9618
12369SOL     OW38322   4.603   6.858   1.399 -0.8157 -0.2441  0.4780
12369SOL    HW138323   4.682   6.855   1.453  0.0225  3.0701 -0.3376
12369SOL    HW238324   4.625   6.806   1.322  0.6317  0.6899  0.2291
12370SOL     OW38325   3.490   5.091   0.392 -0.7058 -0.5603  0.1642
12370SOL    HW138326   3.530   5.158   0.338  1.1015 -1.0498  0.8075
12370SOL    HW238327   3.453   5.138   0.466 -0.7100 -0.1416 -0.1037
12371SOL     OW38328   5.039   6.542   0.409  0.2844 -0.3078 -0.0715
12371SOL    HW138329   4.977   6.566   0.341  0.9126 -0.4888 -0.7157
12371SOL    HW238330   5.093   6.620   0.421  1.0881 -0.7345 -0.8016
12372SOL     OW38331   3.817   6.641   1.732 -0.3676  0.5537  0.0641
12372SOL    HW138332   3.911   6.633   1.742 -0.2025  0.0399 -1.6748
12372SOL    HW238333   3.804   6.671   1.642 -1.8260  1.6307  0.5800
12373SOL     OW38334   5.082   7.559   0.796 -0.1272  0.0159  0.2473
12373SOL    HW138335   4.988   7.566   0.809  0.2634  3.9007  2.6070
12373SOL    HW238336   5.100   7.615   0.721  0.2185 -2.1612 -1.3684
12374SOL     OW38337   4.127   5.536   1.805  0.1017  0.2533  0.3194
12374SOL    HW138338   4.130   5.538   1.709 -1.5658 -0.4271  0.2087
12374SOL    HW238339   4.035   5.518   1.825  0.3703  0.6818  2.0641
12375SOL     OW38340   5.215   6.885   2.003  0.0046 -0.5438  0.2167
12375SOL    HW138341   5.297   6.838   1.987  0.2100 -0.0052 -0.3303
12375SOL    HW238342   5.158   6.857   1.931  0.1951  0.1784 -0.2318
12376SOL     OW38343   4.018   6.997   1.442  0.2819 -0.4939  0.0708
12376SOL    HW138344   4.090   6.958   1.392  0.3003 -0.2801 -0.0742
12376SOL    HW238345   4.053   7.008   1.530  0.8067  0.5960 -0.2445
12377SOL     OW38346   5.649   6.746   1.375 -0.4030 -0.5046  0.7207
12377SOL    HW138347   5.695   6.667   1.349 -0.7334 -0.5140  0.1586
12377SOL    HW238348   5.603   6.775   1.296  2.7430  2.4291 -0.2380
12378SOL     OW38349   5.052   5.920   0.250 -0.0875  0.0913  0.6998
12378SOL    HW138350   5.026   5.836   0.287  0.7967  0.0502  1.2340
12378SOL    HW238351   5.001   5.985   0.300 -0.0810 -0.0658  0.9106
12379SOL     OW38352   4.308   6.198   0.933  0.1252  0.1152  0.1108
12379SOL    HW138353   4.287   6.219   1.024  0.4826 -0.1105  0.2474
12379SOL    HW238354   4.262   6.265   0.882 -0.3100  0.0730  0.4400
12380SOL     OW38355   5.409   6.193   1.626 -0.4475 -0.2383  0.6515
12380SOL    HW138356   5.324   6.180   1.667 -0.2691  1.4112  1.6108
12380SOL    HW238357   5.398   6.271   1.571 -0.2706 -1.5469 -1.3601
12381SOL     OW38358   5.793   6.675   1.599 -0.5364 -0.0640  0.0221
12381SOL    HW138359   5.822   6.590   1.565 -3.1899 -0.2664 -2.1282
12381SOL    HW238360   5.772   6.726   1.521  0.3752  2.4125  1.2798
12382SOL     OW38361   5.005   7.039   8.846 -0.6209 -0.2505 -0.1749
12382SOL    HW138362   4.956   7.014   8.768 -0.1437 -0.1673 -0.5112
12382SOL    HW238363   5.090   7.068   8.812 -0.2613 -0.5928  0.4002
12383SOL     OW38364   4.586   7.521   0.229  0.5317  0.8336 -0.0614
12383SOL    HW138365   4.538   7.597   0.195  0.4482 -0.2738 -2.6726
12383SOL    HW238366   4.526   7.482   0.293 -0.3678  1.7151 -0.3401
12384SOL     OW38367   4.648   6.401   0.932  0.4970  0.5127  0.1374
12384SOL    HW138368   4.594   6.335   0.975  1.6195  0.0794  0.9399
12384SOL    HW238369   4.714   6.424   0.998  2.1382  0.0108 -1.2588
12385SOL     OW38370   4.930   6.878   0.421  0.3916  0.0467 -0.4657
12385SOL    HW138371   4.860   6.941   0.402  0.9795  0.7330 -0.4285
12385SOL    HW238372   4.884   6.800   0.451 -0.3272  1.0218  1.1723
12386SOL     OW38373   6.090   7.123   0.957  0.1051 -0.3063 -0.4363
12386SOL    HW138374   6.009   7.115   0.908  0.6746 -1.1801 -1.2757
12386SOL    HW238375   6.156   7.081   0.902  1.0890  0.1926  0.3226
12387SOL     OW38376   4.379   6.890   1.854  0.4351  0.6888  0.3122
12387SOL    HW138377   4.348   6.903   1.944 -0.1463 -2.0748  0.6138
12387SOL    HW238378   4.473   6.875   1.863  0.1132 -1.4406  0.7906
12388SOL     OW38379   4.478   6.657   0.402  0.0679 -0.3443  0.2318
12388SOL    HW138380   4.408   6.602   0.367 -0.3384  0.3496 -0.0585
12388SOL    HW238381   4.532   6.678   0.326  0.4047 -0.6030  0.3986
12389SOL     OW38382   4.288   7.091   1.659 -0.0173 -0.4321 -0.0649
12389SOL    HW138383   4.200   7.115   1.688  0.6137  0.9019  0.8455
12389SOL    HW238384   4.315   7.021   1.718 -0.5389 -0.9888 -0.4799
12390SOL     OW38385   5.072   6.407   0.927 -0.3797  0.4658  0.0478
12390SOL    HW138386   5.044   6.458   0.851  0.7485  1.1463  0.0712
12390SOL    HW238387   5.101   6.473   0.991 -0.9083 -0.1148  0.9118
12391SOL     OW38388   3.959   5.940   0.282 -0.0524  0.4538 -0.2430
12391SOL    HW138389   3.880   5.948   0.336 -0.6262 -0.9382 -0.7985
12391SOL    HW238390   3.945   5.859   0.232  1.7211  0.1891 -0.3843
12392SOL     OW38391   5.158   7.287   0.786 -0.1709  0.5019  0.5402
12392SOL    HW138392   5.121   7.375   0.780 -1.5442 -0.1501 -2.0572
12392SOL    HW238393   5.238   7.291   0.734  1.2692  0.8100  2.6392
12393SOL     OW38394   4.010   6.261   1.024 -0.2057  0.3464  0.0468
12393SOL    HW138395   4.011   6.201   0.950 -0.7119  0.0097  0.3028
12393SOL    HW238396   4.100   6.290   1.034 -0.0323 -0.0614 -0.3352
12394SOL     OW38397   4.501   7.585   0.549  0.2700 -0.2086 -1.1180
12394SOL    HW138398   4.490   7.492   0.569 -0.0391  0.0663  0.0454
12394SOL    HW238399   4.413   7.622   0.552  0.6720  0.6930  1.5191
12395SOL     OW38400   5.070   5.929   0.913 -0.1375  0.4315  0.3107
12395SOL    HW138401   5.057   5.956   1.004  3.7470  0.0113  1.2097
12395SOL    HW238402   5.050   5.835   0.913  4.7658 -0.9774  2.4124
12396SOL     OW38403   4.930   5.645   1.480 -0.5634  0.0865  0.0824
12396SOL    HW138404   4.924   5.557   1.519  2.3152  0.4717  1.7205
12396SOL    HW238405   4.985   5.694   1.541 -0.4599  2.4732 -1.7821
12397SOL     OW38406   4.648   7.010   0.418 -0.3207 -0.4754 -0.1719
12397SOL    HW138407   4.571   7.041   0.370 -0.0045  3.1184  1.3363
12397SOL    HW238408   4.720   7.018   0.355 -0.3749  1.4281 -0.0588
12398SOL     OW38409   4.019   6.582   1.533 -0.5477 -0.3122 -0.5052
12398SOL    HW138410   3.969   6.662   1.519  0.5332  0.2930 -0.9560
12398SOL    HW238411   4.089   6.607   1.593 -1.0753 -1.2760  0.5326
12399SOL     OW38412   5.422   6.027   8.772  0.2019  0.3215  0.0226
12399SOL    HW138413   5.488   5.964   8.742  1.5849  1.0225  1.4826
12399SOL    HW238414   5.361   5.975   8.825  0.8623  0.0682  0.5327
12400SOL     OW38415   4.784   6.254   0.647 -0.2384  0.0966 -0.0258
12400SOL    HW138416   4.774   6.342   0.685 -1.6184 -0.5727  1.2905
12400SOL    HW238417   4.837   6.207   0.711  1.8163  0.3545 -1.4677
12401SOL     OW38418   5.782   6.283   0.895  1.0819 -0.2178  0.3080
12401SOL    HW138419   5.776   6.293   0.800  1.0432  2.0481  0.5067
12401SOL    HW238420   5.692   6.287   0.925  0.7446 -3.9785  0.2964
12402SOL     OW38421   3.383   6.618   0.649 -0.3223  0.0534 -0.0182
12402SOL    HW138422   3.448   6.559   0.685 -1.1260 -0.7517  0.1426
12402SOL    HW238423   3.434   6.682   0.598  0.6600  0.0608  0.9460
12403SOL     OW38424   4.884   7.652   0.208 -0.3172 -0.2440 -0.0243
12403SOL    HW138425   4.805   7.683   0.252 -0.6223  0.0894 -0.7737
12403SOL    HW238426   4.882   7.557   0.218 -1.0468 -0.2796 -0.3848
12404SOL     OW38427   3.693   5.769   1.687 -0.1629 -0.6777  0.8798
12404SOL    HW138428   3.756   5.799   1.753  3.1374  0.4902 -2.4521
12404SOL    HW238429   3.706   5.674   1.685 -0.6179 -0.7933  2.1097
12405SOL     OW38430   3.871   5.479   2.551  0.2490  0.4385 -0.3493
12405SOL    HW138431   3.805   5.413   2.575  0.1855  0.8406  0.6336
12405SOL    HW238432   3.936   5.474   2.620  0.7608  0.7275 -0.8027
12406SOL     OW38433   4.176   5.778   2.930 -0.4164 -0.5167 -0.0134
12406SOL    HW138434   4.269   5.786   2.906 -0.5360 -1.3594 -0.7817
12406SOL    HW238435   4.170   5.694   2.974 -0.2540  0.8724  2.8826
12407SOL     OW38436   4.515   7.280   3.320  0.1520 -0.0181  0.4314
12407SOL    HW138437   4.581   7.229   3.273 -0.1824 -0.1836  0.1355
12407SOL    HW238438   4.431   7.244   3.290 -0.1582  1.7575 -1.0273
12408SOL     OW38439   5.382   7.329   2.217 -0.4402  0.2078 -0.2941
12408SOL    HW138440   5.340   7.289   2.293 -0.8125  1.9346  0.4498
12408SOL    HW238441   5.381   7.261   2.150  0.0301 -1.4140  1.2842
12409SOL     OW38442   5.278   5.858   2.521 -0.2628 -0.1921  0.2045
12409SOL    HW138443   5.341   5.922   2.553  0.9439 -2.2407  2.1869
12409SOL    HW238444   5.210   5.855   2.588 -1.5027  0.5716 -0.9675
12410SOL     OW38445   5.522   6.303   1.847  0.0328 -0.0341  0.4435
12410SOL    HW138446   5.507   6.288   1.753  1.4385 -0.2346  0.2284
12410SOL    HW238447   5.502   6.219   1.888 -0.7250  0.0948  0.3524
12411SOL     OW38448   4.623   7.065   3.013  0.3016  0.3964 -0.6505
12411SOL    HW138449   4.559   7.134   2.997  0.6133  0.7957 -0.2128
12411SOL    HW238450   4.575   6.984   2.998 -0.2481  0.6930 -0.5353
12412SOL     OW38451   4.203   6.531   3.597 -0.0313 -0.1548 -0.2849
12412SOL    HW138452   4.200   6.622   3.625  1.9519 -0.4717  1.2033
12412SOL    HW238453   4.244   6.485   3.671 -0.3763 -2.1311 -1.2698
12413SOL     OW38454   4.328   6.355   2.118  0.3879 -0.3329  0.2375
12413SOL    HW138455   4.411   6.401   2.107 -0.2401  1.2247  1.5894
12413SOL    HW238456   4.290   6.392   2.198 -1.6241 -0.9714 -0.3575
12414SOL     OW38457   4.131   6.691   3.929  0.3072 -0.0375 -0.2409
12414SOL    HW138458   4.115   6.597   3.932 -1.3533  0.1158 -2.2309
12414SOL    HW238459   4.049   6.729   3.897  1.6273  1.8484 -1.6602
12415SOL     OW38460   3.904   6.587   2.990  0.1366  0.3297 -0.1011
12415SOL    HW138461   3.888   6.630   2.905 -1.1095 -2.0820 -1.1808
12415SOL    HW238462   3.850   6.508   2.987  3.9495 -2.5611  0.7788
12416SOL     OW38463   4.878   7.024   3.080 -0.1065 -0.1033 -0.1623
12416SOL    HW138464   4.792   7.039   3.041  0.1320  2.2514  0.0326
12416SOL    HW238465   4.868   6.945   3.133 -1.6324 -0.8742 -1.5261
12417SOL     OW38466   4.176   6.038   3.453  0.0557  0.8054  0.0720
12417SOL    HW138467   4.115   6.069   3.386 -2.1413  0.6096  1.8925
12417SOL    HW238468   4.224   6.117   3.479  0.3512  1.0395 -1.0917
12418SOL     OW38469   5.469   6.074   2.546  0.4831 -0.8955  0.1053
12418SOL    HW138470   5.552   6.120   2.539  0.2818 -0.5169  0.1472
12418SOL    HW238471   5.461   6.050   2.638  0.2841 -0.4221  0.2170
12419SOL     OW38472   3.960   7.321   2.308  0.4399 -0.3387  0.1728
12419SOL    HW138473   3.876   7.364   2.298  0.6738 -0.0709 -0.6444
12419SOL    HW238474   3.985   7.294   2.220  0.5914 -1.6069  0.5736
12420SOL     OW38475   4.781   6.659   3.675 -0.0181  0.5886  0.3821
12420SOL    HW138476   4.767   6.627   3.764  1.5820  0.2433  0.5435
12420SOL    HW238477   4.694   6.667   3.638 -0.8766  2.4712  2.5812
12421SOL     OW38478   3.712   6.979   2.607  0.0245 -0.5907  0.0637
12421SOL    HW138479   3.783   7.015   2.554  0.9674 -1.3368  0.7700
12421SOL    HW238480   3.680   7.053   2.658  1.4109 -0.5398  0.9232
12422SOL     OW38481   3.974   6.296   2.832  0.0142 -0.1418 -0.3276
12422SOL    HW138482   4.050   6.310   2.889  0.4247 -0.5231 -0.7673
12422SOL    HW238483   3.900   6.329   2.882  0.4116 -0.1643  0.2877
12423SOL     OW38484   4.706   7.438   3.021  0.3349  0.2171 -0.5260
12423SOL    HW138485   4.755   7.491   3.083  0.3421  1.5539 -1.6202
12423SOL    HW238486   4.771   7.411   2.956 -0.0975  0.8372 -1.2297
12424SOL     OW38487   4.162   6.555   1.884 -0.3853  0.3301 -0.1608
12424SOL    HW138488   4.182   6.603   1.965 -1.7291  1.4899 -0.4734
12424SOL    HW238489   4.108   6.482   1.912  0.9078 -0.5275  0.2093
12425SOL     OW38490   4.944   5.719   3.537  0.3153  0.6308 -0.6521
12425SOL    HW138491   4.885   5.644   3.533  0.4500  0.4977 -0.2094
12425SOL    HW238492   4.906   5.783   3.476 -1.6789  1.5466  1.3940
12426SOL     OW38493   4.074   6.479   2.599  0.1581 -0.5069 -0.0500
12426SOL    HW138494   4.047   6.415   2.664 -0.2207  0.9644  1.3194
12426SOL    HW238495   4.041   6.445   2.516  1.2917 -2.7986  0.3797
12427SOL     OW38496   5.264   7.778   1.713  0.4131 -0.1333  0.3730
12427SOL    HW138497   5.266   7.705   1.651 -1.6242 -0.1550  0.2716
12427SOL    HW238498   5.203   7.750   1.781  0.5066  0.9937  0.9466
12428SOL     OW38499   3.368   7.368   1.978 -0.5427  0.4362  0.6717
12428SOL    HW138500   3.304   7.429   1.941  1.2370  1.0525 -1.6466
12428SOL    HW238501   3.347   7.284   1.936 -0.6070  0.3433  0.8885
12429SOL     OW38502   5.712   6.853   2.440 -0.1549  0.3398 -0.7100
12429SOL    HW138503   5.688   6.870   2.532 -0.7615  0.3333 -0.8620
12429SOL    HW238504   5.707   6.758   2.432  4.1371 -0.1619  0.3898
12430SOL     OW38505   5.288   6.544   2.233  0.2354  0.3220  0.3763
12430SOL    HW138506   5.247   6.610   2.289  0.0584 -0.1222  0.7729
12430SOL    HW238507   5.378   6.538   2.266 -0.3816 -1.3266  1.9046
12431SOL     OW38508   3.625   6.286   3.495  0.2813 -0.1072 -0.1715
12431SOL    HW138509   3.531   6.271   3.480  0.5278 -1.0675 -0.8604
12431SOL    HW238510   3.629   6.369   3.541 -0.9386 -0.2195  0.1689
12432SOL     OW38511   4.584   6.599   2.537 -0.1160 -0.5486  0.5017
12432SOL    HW138512   4.552   6.603   2.627 -0.0589 -0.2192  0.5100
12432SOL    HW238513   4.581   6.506   2.514  1.0748 -0.8063  1.2828
12433SOL     OW38514   4.960   6.722   3.319 -0.3980  0.4638 -0.3568
12433SOL    HW138515   4.962   6.668   3.398 -0.2615  2.4268  1.0319
12433SOL    HW238516   4.869   6.720   3.291 -0.4910 -0.0667 -0.0357
12434SOL     OW38517   4.056   6.145   2.101 -0.2082  0.0550 -0.5405
12434SOL    HW138518   4.032   6.060   2.137  0.0358  0.3855  0.4506
12434SOL    HW238519   4.122   6.126   2.034 -0.9426 -0.6079 -1.0969
12435SOL     OW38520   3.898   6.891   3.320 -0.2694  0.1465  0.1603
12435SOL    HW138521   3.883   6.902   3.414 -0.6210  2.2086 -0.0857
12435SOL    HW238522   3.993   6.889   3.311 -0.2244  0.5112  0.5172
12436SOL     OW38523   5.442   6.719   1.926 -0.0890 -0.0738 -0.6713
12436SOL    HW138524   5.420   6.636   1.967  0.9896  0.4208  1.0433
12436SOL    HW238525   5.536   6.713   1.909 -0.3484  0.0897 -2.3303
12437SOL     OW38526   5.369   7.263   3.474  0.1036  0.0333  0.1535
12437SOL    HW138527   5.294   7.209   3.498  0.8363 -1.2958 -0.3986
12437SOL    HW238528   5.415   7.211   3.408  1.3357  0.9545  0.2525
12438SOL     OW38529   4.298   5.969   3.823  0.3703 -0.0709 -0.5844
12438SOL    HW138530   4.232   6.037   3.834 -0.7359 -1.2313  0.0685
12438SOL    HW238531   4.264   5.913   3.754  0.6905 -0.6621 -0.2693
12439SOL     OW38532   5.413   6.892   2.411  0.1412  0.3014  0.4745
12439SOL    HW138533   5.354   6.870   2.339  0.5065 -1.1545  0.6050
12439SOL    HW238534   5.500   6.894   2.372  0.3257 -0.3577  0.8352
12440SOL     OW38535   5.184   7.814   2.270  0.2804  0.0440  1.0539
12440SOL    HW138536   5.208   7.903   2.293 -0.2957  0.8975 -1.3749
12440SOL    HW238537   5.265   7.776   2.234 -0.0136  0.3221  0.0858
12441SOL     OW38538   4.311   6.515   2.350 -0.3319 -0.3546  0.4029
12441SOL    HW138539   4.244   6.577   2.377  0.9339  1.3575 -0.2189
12441SOL    HW238540   4.334   6.468   2.431 -2.0096 -0.7517  0.6741
12442SOL     OW38541   5.121   6.050   2.767  0.2818 -0.2259  0.3117
12442SOL    HW138542   5.064   6.110   2.717  0.8383 -1.2896 -1.6962
12442SOL    HW238543   5.060   5.999   2.820 -1.0393 -2.5602 -3.0601
12443SOL     OW38544   5.524   7.011   2.129  0.1189 -0.1673 -0.1067
12443SOL    HW138545   5.592   7.020   2.062 -0.2087  3.2521 -0.1414
12443SOL    HW238546   5.445   7.047   2.088 -1.2182 -2.0283  0.6876
12444SOL     OW38547   4.369   6.082   2.972 -0.3625 -0.9670 -0.0555
12444SOL    HW138548   4.381   6.003   3.024  0.6091 -0.9541 -0.2548
12444SOL    HW238549   4.386   6.054   2.882 -0.0381 -0.5334 -0.1273
12445SOL     OW38550   5.202   5.647   3.529  0.0601 -0.7693  0.5396
12445SOL    HW138551   5.115   5.683   3.509 -0.0117 -1.4651 -0.5268
12445SOL    HW238552   5.188   5.552   3.529  0.8203 -0.8800  0.3749
12446SOL     OW38553   4.547   6.520   3.043  0.0359 -0.1206 -0.8623
12446SOL    HW138554   4.549   6.589   2.977  0.2053 -1.5201 -2.3717
12446SOL    HW238555   4.522   6.441   2.996  1.3276 -1.4216  0.4889
12447SOL     OW38556   4.371   5.933   2.698  0.1699 -0.0429  0.3516
12447SOL    HW138557   4.403   5.876   2.768 -2.1221 -1.0314  0.7034
12447SOL    HW238558   4.347   5.872   2.627 -0.4536  0.6464 -0.0518
12448SOL     OW38559   4.937   6.011   1.927  0.6472  0.7965  0.0419
12448SOL    HW138560   5.019   6.002   1.976 -0.0246  0.1726  1.0829
12448SOL    HW238561   4.898   5.924   1.929 -0.2386  1.1798 -0.1012
12449SOL     OW38562   3.962   6.412   3.676 -0.1999  0.1519  0.2554
12449SOL    HW138563   3.884   6.424   3.622 -0.1931  0.1241  0.2394
12449SOL    HW238564   4.031   6.459   3.630  0.7790 -3.0659 -1.8925
12450SOL     OW38565   3.846   7.328   3.387  0.4905  0.1754 -0.2210
12450SOL    HW138566   3.794   7.248   3.400 -0.8599  0.8488 -1.2224
12450SOL    HW238567   3.884   7.319   3.300  0.7895  0.3710 -0.1121
12451SOL     OW38568   4.425   5.809   1.615 -0.2275 -0.1798  0.4708
12451SOL    HW138569   4.409   5.776   1.527  0.7490 -0.1366  0.2712
12451SOL    HW238570   4.519   5.803   1.627  0.0910  2.8544  0.2762
12452SOL     OW38571   5.235   6.001   3.589  0.3715  0.3024  0.2455
12452SOL    HW138572   5.149   5.967   3.561  0.7744 -1.0016  0.5019
12452SOL    HW238573   5.215   6.081   3.637 -0.6075  0.6684 -0.7386
12453SOL     OW38574   5.395   6.555   2.602 -0.5006  0.1617 -0.3076
12453SOL    HW138575   5.329   6.622   2.582  0.0946  0.7202 -0.4398
12453SOL    HW238576   5.361   6.475   2.563 -0.8863  0.5437 -0.7624
12454SOL     OW38577   4.222   5.561   3.062 -0.1274 -0.2862  0.0431
12454SOL    HW138578   4.149   5.522   3.110  0.1091  0.2036  0.8262
12454SOL    HW238579   4.299   5.515   3.096  0.3461  1.8615  2.1754
12455SOL     OW38580   5.183   6.834   2.270 -0.2584  0.4993 -0.7327
12455SOL    HW138581   5.211   6.862   2.183  1.3708  0.6390 -0.2029
12455SOL    HW238582   5.093   6.864   2.277 -0.6769 -0.1641 -2.6373
12456SOL     OW38583   3.595   7.431   2.619  0.2072 -0.3583 -0.5059
12456SOL    HW138584   3.621   7.387   2.538 -0.5778 -0.7103 -0.5838
12456SOL    HW238585   3.675   7.469   2.654  1.1517 -2.7284  0.1077
12457SOL     OW38586   5.556   6.309   2.735  0.7927 -0.3031 -0.9978
12457SOL    HW138587   5.556   6.404   2.736  2.2199 -0.2925 -0.5162
12457SOL    HW238588   5.475   6.285   2.782  0.7622  0.6685 -0.5309
12458SOL     OW38589   4.702   7.030   3.338 -0.3045  0.1350 -0.8195
12458SOL    HW138590   4.624   6.976   3.347  0.2759 -0.5375  0.4935
12458SOL    HW238591   4.696   7.094   3.409  0.0763  0.4341 -1.0490
12459SOL     OW38592   4.085   6.671   2.393 -0.0916  0.3210  0.3200
12459SOL    HW138593   4.042   6.604   2.340 -0.0074 -0.1139  0.7938
12459SOL    HW238594   4.078   6.640   2.483  2.9282 -0.8019  0.2813
12460SOL     OW38595   5.379   5.995   2.270  0.0970 -0.5159 -0.4078
12460SOL    HW138596   5.415   6.054   2.335  0.2459 -0.1532 -0.8150
12460SOL    HW238597   5.319   5.939   2.319  1.2912 -1.2139  0.3094
12461SOL     OW38598   3.796   6.653   3.817  0.2251  0.0426 -0.6798
12461SOL    HW138599   3.763   6.698   3.894 -0.0399 -0.0040 -0.7617
12461SOL    HW238600   3.791   6.560   3.840  0.1112  0.0271 -0.7658
12462SOL     OW38601   4.615   7.384   2.177  0.1450  0.2573  0.0353
12462SOL    HW138602   4.533   7.351   2.139  1.1565 -1.0086 -1.1476
12462SOL    HW238603   4.622   7.474   2.145 -0.3347  0.0744 -0.6041
12463SOL     OW38604   3.626   5.624   3.699  0.3463 -0.0813 -0.8712
12463SOL    HW138605   3.691   5.632   3.629  0.3325 -0.3285 -0.9119
12463SOL    HW238606   3.555   5.573   3.660  0.1322  0.1778 -0.8234
12464SOL     OW38607   5.923   7.035   2.348 -0.5247  0.1128 -0.5591
12464SOL    HW138608   5.902   7.124   2.320  0.6952 -0.0826 -2.2428
12464SOL    HW238609   5.838   6.993   2.364 -1.1303  2.2808  2.8317
12465SOL     OW38610   4.015   7.220   2.044 -0.3655  0.3819 -0.6147
12465SOL    HW138611   4.049   7.305   2.016  1.4158 -0.2697 -0.5238
12465SOL    HW238612   4.087   7.180   2.092 -1.3732 -0.9563 -0.1744
12466SOL     OW38613   4.636   5.597   2.728  0.3725 -0.0076 -0.2982
12466SOL    HW138614   4.647   5.512   2.685 -1.3285  0.2268 -1.3102
12466SOL    HW238615   4.568   5.582   2.794  0.8518  0.3182  0.2715
12467SOL     OW38616   3.457   6.856   3.296 -0.5883  0.0861  0.5468
12467SOL    HW138617   3.438   6.780   3.351  0.8670  0.6183  1.8561
12467SOL    HW238618   3.504   6.820   3.221  1.4325 -0.2218  1.8782
12468SOL     OW38619   4.677   6.982   2.546  0.7040 -0.2782  0.2340
12468SOL    HW138620   4.678   7.024   2.632  2.2659  0.1269  0.0576
12468SOL    HW238621   4.728   7.041   2.491  2.7579 -2.2314 -0.0964
12469SOL     OW38622   3.903   6.028   2.344  0.1285 -0.3662  0.0210
12469SOL    HW138623   3.853   5.998   2.420 -0.1128  0.9663  0.4261
12469SOL    HW238624   3.977   6.077   2.382 -0.7666  1.5348 -0.5511
12470SOL     OW38625   5.289   5.908   4.057  0.1408  0.2553  0.1586
12470SOL    HW138626   5.288   5.813   4.043  0.1953  0.4249 -1.1071
12470SOL    HW238627   5.223   5.923   4.125 -0.9508 -0.5417 -0.6888
12471SOL     OW38628   4.520   5.883   1.934 -0.7923 -0.2297 -0.2693
12471SOL    HW138629   4.443   5.838   1.900 -0.1350 -0.1499 -1.9683
12471SOL    HW238630   4.490   5.924   2.015 -2.7472  0.4059 -1.2524
12472SOL     OW38631   4.650   6.021   3.648 -0.2049 -0.1042 -0.1448
12472SOL    HW138632   4.608   5.936   3.662 -1.3828  0.0768 -2.2249
12472SOL    HW238633   4.637   6.067   3.731 -0.9868 -1.3495  0.4647
12473SOL     OW38634   4.403   7.708   2.969 -0.1723 -0.4452  0.8390
12473SOL    HW138635   4.495   7.709   2.944 -0.0871  0.1674  1.1479
12473SOL    HW238636   4.401   7.657   3.050  0.1635  0.9623  1.7656
12474SOL     OW38637   5.056   6.286   3.296 -0.1841 -0.5237  0.1221
12474SOL    HW138638   5.084   6.372   3.327  0.5892 -0.2263 -1.2993
12474SOL    HW238639   5.037   6.236   3.375 -3.5574  1.8395  1.0062
12475SOL     OW38640   4.392   6.903   2.989  0.2732 -0.1516 -0.1788
12475SOL    HW138641   4.311   6.861   3.019 -0.6332  1.5264 -0.1588
12475SOL    HW238642   4.364   6.963   2.920  1.4460  0.7517  0.1045
12476SOL     OW38643   4.747   6.142   2.065  0.0279  0.4891  0.4033
12476SOL    HW138644   4.809   6.107   2.002 -1.5160  0.5367 -1.2322
12476SOL    HW238645   4.695   6.067   2.093 -1.3802  0.9089 -0.8951
12477SOL     OW38646   4.026   5.782   2.308 -0.1259  0.0575  0.2879
12477SOL    HW138647   4.020   5.854   2.371  0.8686  0.4895 -0.0903
12477SOL    HW238648   4.075   5.714   2.354  2.5735  1.2015 -0.6780
12478SOL     OW38649   5.581   6.554   2.244 -0.4764  0.0083 -0.0852
12478SOL    HW138650   5.615   6.577   2.330  0.6454  0.3962 -0.6202
12478SOL    HW238651   5.583   6.459   2.242 -1.0809 -0.0324  0.5247
12479SOL     OW38652   4.849   5.048   1.883  0.1451 -0.3190 -0.4433
12479SOL    HW138653   4.931   5.005   1.858  0.4786 -0.0716  0.2054
12479SOL    HW238654   4.793   4.976   1.913  0.0990 -0.4939 -0.9314
12480SOL     OW38655   4.618   6.131   1.761  0.0056  0.3870  0.0440
12480SOL    HW138656   4.542   6.190   1.763 -0.8560 -0.6683 -0.4817
12480SOL    HW238657   4.583   6.047   1.791  0.1714 -0.9661 -3.2174
12481SOL     OW38658   4.724   5.980   3.361 -0.5122 -0.2194  0.0783
12481SOL    HW138659   4.678   5.983   3.445 -0.4499 -1.4361  0.1753
12481SOL    HW238660   4.723   5.887   3.337 -0.5922  0.1220 -1.3035
12482SOL     OW38661   4.865   7.186   2.434 -0.2594  0.1686 -0.0461
12482SOL    HW138662   4.804   7.256   2.408  1.2647  0.5009 -3.1447
12482SOL    HW238663   4.928   7.229   2.491 -0.2115  0.9679 -0.6893
12483SOL     OW38664   4.494   6.685   2.811  0.1354 -0.2458  0.5841
12483SOL    HW138665   4.414   6.634   2.794 -0.4309  0.9271 -0.4602
12483SOL    HW238666   4.464   6.760   2.862  0.5805  0.1674  0.2391
12484SOL     OW38667   4.707   7.440   2.431 -0.1117 -0.8177  0.2495
12484SOL    HW138668   4.695   7.388   2.352  0.3735 -1.1414  0.3826
12484SOL    HW238669   4.619   7.456   2.463 -0.2835 -1.2202 -0.0125
12485SOL     OW38670   5.198   6.190   1.774 -0.3092 -0.3697  0.2901
12485SOL    HW138671   5.108   6.209   1.750 -0.1161  0.4768  0.2020
12485SOL    HW238672   5.197   6.184   1.870 -0.1332  1.5699  0.4548
12486SOL     OW38673   3.527   6.004   3.129  0.9184 -0.0727  0.7872
12486SOL    HW138674   3.586   6.078   3.147  1.1181  0.1270 -0.5797
12486SOL    HW238675   3.578   5.945   3.075  0.1035 -0.2366  0.1702
12487SOL     OW38676   4.059   5.382   2.733 -0.6747 -0.1416 -0.0448
12487SOL    HW138677   4.090   5.332   2.808 -2.5189 -1.5347 -0.1228
12487SOL    HW238678   4.111   5.349   2.659  1.6733  1.7679  0.6419
12488SOL     OW38679   4.291   6.059   2.312  0.4711 -0.0104  0.4719
12488SOL    HW138680   4.340   6.087   2.235  1.8341 -1.8477  0.5941
12488SOL    HW238681   4.274   5.966   2.297  0.0273 -0.2021  2.0076
12489SOL     OW38682   4.312   5.708   1.920  0.3860  0.3406 -0.3009
12489SOL    HW138683   4.250   5.652   1.873 -1.5937  1.0552  1.3271
12489SOL    HW238684   4.367   5.648   1.970 -0.2210 -0.2433 -0.3255
12490SOL     OW38685   5.279   6.301   2.471 -0.0787 -0.9867  0.4822
12490SOL    HW138686   5.199   6.268   2.429  1.1381  0.0114 -2.9826
12490SOL    HW238687   5.325   6.223   2.499 -2.0939 -1.5982  2.3944
12491SOL     OW38688   5.362   5.837   3.058  0.6651 -0.4461 -0.0530
12491SOL    HW138689   5.367   5.837   3.153 -1.6764 -0.9819  0.1482
12491SOL    HW238690   5.303   5.764   3.037  0.7974 -0.0928 -1.8810
12492SOL     OW38691   5.813   6.247   2.144 -0.2368 -0.1530 -0.0088
12492SOL    HW138692   5.782   6.311   2.080 -0.7671  0.7625  1.1084
12492SOL    HW238693   5.753   6.173   2.135 -1.0692  0.4746  0.2441
12493SOL     OW38694   4.105   6.967   2.390 -0.3721  0.2730  0.1353
12493SOL    HW138695   4.021   7.012   2.393  0.1726  1.5631 -1.8980
12493SOL    HW238696   4.083   6.874   2.380 -1.5330  0.5335  0.1937
12494SOL     OW38697   5.514   7.582   2.502  0.0996  0.0234 -0.5100
12494SOL    HW138698   5.448   7.607   2.438  1.0505  1.7217 -0.8918
12494SOL    HW238699   5.584   7.543   2.450  0.2010 -0.0534 -0.3170
12495SOL     OW38700   4.864   6.498   2.310  0.1420  0.6826 -0.6481
12495SOL    HW138701   4.845   6.514   2.218 -2.3597  0.3674 -0.2585
12495SOL    HW238702   4.820   6.416   2.330  0.8944  0.5855  0.7763
12496SOL     OW38703   4.014   5.444   2.088  0.5097 -0.6508  0.2602
12496SOL    HW138704   4.065   5.524   2.100 -0.7467  0.3108 -0.5548
12496SOL    HW238705   4.070   5.374   2.123  1.8165  0.5148  0.5815
12497SOL     OW38706   5.550   6.548   2.866 -0.0229  0.5770 -0.3121
12497SOL    HW138707   5.457   6.535   2.885  0.2834 -1.5383  0.0773
12497SOL    HW238708   5.592   6.551   2.952  0.4687 -0.6018 -0.4897
12498SOL     OW38709   4.399   7.269   3.013 -0.2387 -0.4515 -0.2627
12498SOL    HW138710   4.330   7.286   2.948  0.3245 -1.0648 -1.0475
12498SOL    HW238711   4.451   7.349   3.013 -0.9866  0.0511  0.4003
12499SOL     OW38712   5.376   7.171   2.846  0.0595 -0.3679 -0.6791
12499SOL    HW138713   5.367   7.250   2.792  1.1915 -0.1216 -0.5266
12499SOL    HW238714   5.374   7.099   2.782  0.0717 -0.1589 -0.9181
12500SOL     OW38715   4.928   6.251   2.646 -0.3529 -0.4262  0.6256
12500SOL    HW138716   4.979   6.323   2.609  0.6158  0.1221  2.8637
12500SOL    HW238717   4.854   6.294   2.690 -0.4418 -0.8786  0.9297
12501SOL     OW38718   5.214   6.575   2.856 -0.2487  0.1056 -0.0736
12501SOL    HW138719   5.153   6.599   2.787 -0.8581 -0.2946  0.3209
12501SOL    HW238720   5.253   6.493   2.827 -1.9096 -1.0904  0.9053
12502SOL     OW38721   3.949   5.635   2.786 -0.5050 -0.2255 -0.5693
12502SOL    HW138722   3.928   5.638   2.879  1.2803  1.4075 -0.1569
12502SOL    HW238723   4.001   5.555   2.775  0.0066  0.0184  0.0282
12503SOL     OW38724   4.476   6.915   3.496  0.0881  0.5135 -0.4472
12503SOL    HW138725   4.536   6.921   3.571 -0.0813  1.7295 -0.3874
12503SOL    HW238726   4.401   6.968   3.521 -0.4768  0.0018 -1.0262
12504SOL     OW38727   4.191   6.780   2.171 -0.3280  0.7902  0.0264
12504SOL    HW138728   4.145   6.758   2.252  1.2657 -0.6928  0.6129
12504SOL    HW238729   4.252   6.850   2.197  1.1235 -0.5788  0.5264
12505SOL     OW38730   4.103   6.447   3.923 -0.1182  0.3700 -0.1055
12505SOL    HW138731   4.056   6.413   4.000  1.3365 -3.4579 -0.7181
12505SOL    HW238732   4.048   6.423   3.849  0.6091 -0.0805 -0.5144
12506SOL     OW38733   4.992   5.918   2.951 -0.2786 -0.6578  0.0207
12506SOL    HW138734   4.968   6.004   2.985  1.2590 -0.2902  0.2211
12506SOL    HW238735   4.928   5.858   2.990 -2.1994  0.5170 -1.1427
12507SOL     OW38736   3.755   7.095   3.557  0.7199  0.1313 -0.2670
12507SOL    HW138737   3.671   7.103   3.512  1.7413  1.3015 -2.0694
12507SOL    HW238738   3.762   7.002   3.580  0.0176 -0.4639 -2.2865
12508SOL     OW38739   3.784   6.697   2.486 -0.2327  0.3201  0.5062
12508SOL    HW138740   3.738   6.781   2.490  0.3558  0.6639  0.2129
12508SOL    HW238741   3.739   6.648   2.417  0.3265  0.9608 -0.3345
12509SOL     OW38742   4.456   5.548   2.151  0.0264 -0.3844 -0.0561
12509SOL    HW138743   4.461   5.457   2.122 -2.3639 -0.6923  0.2906
12509SOL    HW238744   4.534   5.561   2.204  1.0498 -1.8307 -1.1349
12510SOL     OW38745   5.184   6.735   2.538  0.4286  0.4558  0.2143
12510SOL    HW138746   5.154   6.817   2.578 -1.6083 -0.2453  0.2384
12510SOL    HW238747   5.188   6.754   2.444  0.5571  0.7595  0.2821
12511SOL     OW38748   5.088   7.082   2.905  0.1483 -0.2399 -0.1876
12511SOL    HW138749   5.007   7.080   2.956 -1.6324 -1.1008 -2.8945
12511SOL    HW238750   5.115   7.174   2.908 -3.0004  0.8853 -2.1771
12512SOL     OW38751   5.075   6.401   2.146  0.7601 -0.0474  0.2718
12512SOL    HW138752   5.155   6.444   2.178  0.2946  0.6942  0.4568
12512SOL    HW238753   5.004   6.444   2.193  0.1679  0.0843 -0.7131
12513SOL     OW38754   3.916   7.017   3.078 -0.2269  0.4815 -0.1909
12513SOL    HW138755   3.902   6.998   3.171  1.3639  3.2453  0.7687
12513SOL    HW238756   3.837   6.986   3.034 -2.3910  1.7214  2.5464
12514SOL     OW38757   3.492   6.124   3.733  0.0078 -0.4218 -0.2644
12514SOL    HW138758   3.580   6.132   3.695  0.6470 -0.8797  1.0618
12514SOL    HW238759   3.483   6.030   3.750  0.4988 -0.0482  2.3883
12515SOL     OW38760   5.303   6.454   3.382  0.3017  0.1822  0.1129
12515SOL    HW138761   5.353   6.507   3.443  0.9304 -0.2343 -0.0257
12515SOL    HW238762   5.284   6.512   3.309 -3.3061  1.7159  2.0493
12516SOL     OW38763   4.735   5.730   3.293 -0.4733  0.0298 -0.2368
12516SOL    HW138764   4.728   5.721   3.198 -0.4876  0.1132 -0.2431
12516SOL    HW238765   4.681   5.658   3.328  1.2111 -1.3360 -0.2965
12517SOL     OW38766   4.308   5.676   3.681 -0.3019  0.3429 -0.0390
12517SOL    HW138767   4.277   5.623   3.754  0.1261  0.5816  0.3167
12517SOL    HW238768   4.243   5.747   3.674 -0.2343  0.4353  0.2427
12518SOL     OW38769   4.468   6.653   3.652 -0.2629 -0.3324  0.3576
12518SOL    HW138770   4.438   6.686   3.567 -1.3899 -1.6302  0.2219
12518SOL    HW238771   4.406   6.691   3.715  0.4187  0.4227  0.5890
12519SOL     OW38772   5.272   6.299   2.825 -0.7550 -0.0024 -0.0364
12519SOL    HW138773   5.273   6.275   2.918  0.6653 -2.3199 -0.5885
12519SOL    HW238774   5.222   6.229   2.783  2.4313 -1.5446 -1.5469
12520SOL     OW38775   5.355   5.766   1.938 -0.1751  0.6189  0.1252
12520SOL    HW138776   5.276   5.722   1.969  0.2127  0.3630  0.7605
12520SOL    HW238777   5.405   5.698   1.892 -0.2340  0.7372 -0.1178
12521SOL     OW38778   3.734   5.253   2.658  0.2861  0.3489  0.1541
12521SOL    HW138779   3.708   5.181   2.600 -1.6307 -0.2461  1.6749
12521SOL    HW238780   3.804   5.217   2.712  0.1155 -0.0107  0.1347
12522SOL     OW38781   4.130   6.834   3.080  0.1689 -0.2450 -0.1397
12522SOL    HW138782   4.096   6.756   3.035  0.8158 -0.5877 -0.0517
12522SOL    HW238783   4.063   6.901   3.066 -0.4610 -0.8524 -0.1095
12523SOL     OW38784   4.299   6.487   2.751  0.4048  0.7964  0.1021
12523SOL    HW138785   4.248   6.452   2.824 -1.8860  1.4178 -1.1073
12523SOL    HW238786   4.234   6.507   2.684  2.3934  0.3566 -2.0965
12524SOL     OW38787   5.413   6.198   3.437  0.3338  0.4148  0.3292
12524SOL    HW138788   5.382   6.284   3.409 -0.0830  0.0147 -0.4860
12524SOL    HW238789   5.368   6.182   3.520 -1.4984 -0.0344 -0.6821
12525SOL     OW38790   4.197   5.272   2.227 -0.2886  0.6759 -0.8503
12525SOL    HW138791   4.280   5.283   2.181 -0.8055  1.7823 -1.5546
12525SOL    HW238792   4.171   5.181   2.210  1.3872 -0.1088  0.4593
12526SOL     OW38793   5.339   6.484   1.946  0.6157  0.1233 -0.2324
12526SOL    HW138794   5.387   6.404   1.926  1.5729  0.4324  0.7176
12526SOL    HW238795   5.289   6.463   2.025 -0.1012  0.0923 -0.6871
12527SOL     OW38796   4.484   6.323   2.894  0.3656  0.2415 -0.3189
12527SOL    HW138797   4.439   6.345   2.813 -0.5671  0.1461  0.1526
12527SOL    HW238798   4.442   6.242   2.924  0.5624  0.3797  0.3510
12528SOL     OW38799   4.695   7.091   3.677 -0.1026  0.1992  0.2809
12528SOL    HW138800   4.696   7.175   3.632 -1.1236  0.2304  0.3073
12528SOL    HW238801   4.781   7.086   3.720  1.0646  0.0091 -1.9116
12529SOL     OW38802   5.798   6.870   3.098 -0.0161 -0.1513  0.4759
12529SOL    HW138803   5.765   6.806   3.161 -1.8333 -0.7947 -1.0074
12529SOL    HW238804   5.726   6.933   3.088  0.9101  0.9172  0.3116
12530SOL     OW38805   3.781   6.114   3.637 -0.0554 -1.0492  0.6922
12530SOL    HW138806   3.728   6.167   3.577  0.7589 -1.0840 -0.0820
12530SOL    HW238807   3.860   6.165   3.651  0.2340 -1.5375  0.8602
12531SOL     OW38808   5.452   6.048   1.976 -0.7782 -0.1834  0.4455
12531SOL    HW138809   5.425   5.956   1.969  0.4953 -0.5854  0.5098
12531SOL    HW238810   5.395   6.085   2.043 -2.1392 -0.5919 -0.4441
12532SOL     OW38811   4.908   6.555   1.893 -0.5885  0.6975 -0.3821
12532SOL    HW138812   5.002   6.537   1.884 -0.9258 -1.1632 -0.6659
12532SOL    HW238813   4.880   6.500   1.966 -1.5518  0.8020 -0.6536
12533SOL     OW38814   4.747   6.247   2.325 -0.1126 -1.0812 -0.6834
12533SOL    HW138815   4.759   6.205   2.240 -1.5983 -1.3577 -0.7811
12533SOL    HW238816   4.721   6.177   2.383  1.4581 -1.0019  0.1896
12534SOL     OW38817   4.379   6.395   3.225  0.5858  0.2046  0.5988
12534SOL    HW138818   4.447   6.440   3.174  0.0415  2.7462  1.9242
12534SOL    HW238819   4.425   6.322   3.267  1.6954 -0.1308 -1.0811
12535SOL     OW38820   3.934   6.017   2.832 -0.3122  0.7801 -0.0018
12535SOL    HW138821   4.014   5.976   2.863 -0.3319  0.4680 -0.3471
12535SOL    HW238822   3.959   6.107   2.810 -0.4014  1.1478  1.3258
12536SOL     OW38823   4.948   6.074   3.529 -0.3220 -0.4358 -0.0585
12536SOL    HW138824   4.910   6.134   3.593  0.5798  2.2786 -1.9144
12536SOL    HW238825   4.878   6.058   3.466 -0.2909 -0.6221 -0.0460
12537SOL     OW38826   4.388   5.869   3.182  0.4261  0.1035  0.1513
12537SOL    HW138827   4.417   5.777   3.181  0.1013  0.0041 -0.7945
12537SOL    HW238828   4.410   5.899   3.270 -0.2139 -1.1240  0.7577
12538SOL     OW38829   3.696   6.508   2.290  0.0252 -0.1171  0.3386
12538SOL    HW138830   3.658   6.476   2.208  0.5288 -1.0250  0.4492
12538SOL    HW238831   3.636   6.478   2.358 -1.5805  2.4642  0.2035
12539SOL     OW38832   3.563   7.770   2.582  0.2579 -0.4494  0.2628
12539SOL    HW138833   3.632   7.742   2.643 -0.2616 -1.3641  0.4571
12539SOL    HW238834   3.482   7.742   2.625 -0.2096  0.2685 -0.1465
12540SOL     OW38835   3.844   7.501   2.703  0.2570  0.4127 -0.4258
12540SOL    HW138836   3.931   7.466   2.726  0.9141  2.2127  0.0121
12540SOL    HW238837   3.863   7.575   2.646 -1.0519  0.3700 -0.9277
12541SOL     OW38838   4.576   6.244   3.336  0.3093  0.3246  0.1347
12541SOL    HW138839   4.661   6.280   3.360  1.3099 -1.5282 -0.4580
12541SOL    HW238840   4.590   6.149   3.330 -1.7354 -0.0153 -0.2291
12542SOL     OW38841   3.850   5.587   3.061 -0.0579 -0.0254 -0.0387
12542SOL    HW138842   3.917   5.577   3.128  0.3209  0.5432 -0.3233
12542SOL    HW238843   3.799   5.507   3.066  2.6575 -2.0979 -2.0464
12543SOL     OW38844   4.096   5.863   3.642 -1.1608 -0.1141  0.0136
12543SOL    HW138845   4.110   5.945   3.596  0.5117 -0.6272 -0.4624
12543SOL    HW238846   4.059   5.804   3.577  0.2046 -0.5198 -0.4366
12544SOL     OW38847   5.027   6.428   3.718  0.4199  0.9193  0.1857
12544SOL    HW138848   4.953   6.416   3.658 -0.0656 -1.5817  1.1413
12544SOL    HW238849   5.015   6.516   3.754 -0.3612  1.7285 -1.8958
12545SOL     OW38850   4.493   6.552   1.885 -0.2035  0.4188 -0.1528
12545SOL    HW138851   4.399   6.568   1.881 -0.3415  0.3586  1.9365
12545SOL    HW238852   4.516   6.566   1.976  1.7091 -0.2078 -0.4929
12546SOL     OW38853   5.389   6.004   2.820 -0.1827 -0.2229  0.5238
12546SOL    HW138854   5.410   5.920   2.862  0.1995 -0.3358  0.1093
12546SOL    HW238855   5.293   6.008   2.824 -0.1699 -0.3611  1.1559
12547SOL     OW38856   4.045   7.119   3.604  0.4986 -0.4648  0.3557
12547SOL    HW138857   3.963   7.165   3.590  0.7888  0.2250  0.8548
12547SOL    HW238858   4.053   7.060   3.529 -0.2477 -0.2488  0.0960
12548SOL     OW38859   4.574   5.967   2.224 -0.1922  0.7793 -0.3039
12548SOL    HW138860   4.505   5.904   2.242 -0.2550  0.9284 -0.0229
12548SOL    HW238861   4.590   6.011   2.308  1.0976 -0.1004 -0.0643
12549SOL     OW38862   4.913   7.751   3.636  0.1371 -0.3529  0.6074
12549SOL    HW138863   4.963   7.690   3.690  1.2977  0.6045  0.6312
12549SOL    HW238864   4.961   7.833   3.641 -1.6533  0.7145  0.9301
12550SOL     OW38865   4.116   5.845   2.051  0.1717  0.4300  0.0910
12550SOL    HW138866   4.190   5.797   2.013  0.4189  0.2861  0.7290
12550SOL    HW238867   4.098   5.799   2.133 -0.4697  0.6201  0.0592
12551SOL     OW38868   3.863   6.791   3.580  0.4130 -0.1639  0.3501
12551SOL    HW138869   3.839   6.757   3.666  0.7566  1.6550  1.2051
12551SOL    HW238870   3.884   6.713   3.528 -1.8736 -1.4489  1.2170
12552SOL     OW38871   4.728   6.063   2.792  0.0505 -0.3236 -0.0602
12552SOL    HW138872   4.763   6.151   2.780 -0.0232 -0.5697 -2.6516
12552SOL    HW238873   4.714   6.055   2.887  1.2127  1.9718  0.3724
12553SOL     OW38874   4.989   6.515   2.547 -0.5394 -0.1993 -0.3177
12553SOL    HW138875   5.053   6.586   2.542 -1.3788  0.7026  1.0458
12553SOL    HW238876   4.936   6.525   2.467  0.2287 -0.1855 -0.8353
12554SOL     OW38877   5.378   6.918   2.704 -0.1016 -0.2731 -0.0778
12554SOL    HW138878   5.397   6.889   2.615  0.2418 -1.6934  0.4467
12554SOL    HW238879   5.287   6.947   2.700  0.4862  1.6741 -1.3578
12555SOL     OW38880   5.075   7.351   3.094  0.2209  0.3539  0.6077
12555SOL    HW138881   5.022   7.301   3.155  0.2225 -0.5586 -0.1173
12555SOL    HW238882   5.120   7.416   3.148  0.6452 -0.7801  1.6432
12556SOL     OW38883   4.207   6.315   2.975 -0.0246 -0.3281 -0.0855
12556SOL    HW138884   4.207   6.220   2.962  0.9495 -0.2394 -0.8161
12556SOL    HW238885   4.258   6.328   3.055  1.7966 -0.2995 -1.2011
12557SOL     OW38886   4.803   7.283   3.485 -0.1023  0.0123  0.0100
12557SOL    HW138887   4.865   7.341   3.531  0.7408 -1.2086  0.4605
12557SOL    HW238888   4.717   7.320   3.505  0.3267  0.3018  1.4572
12558SOL     OW38889   5.645   5.668   2.339 -0.1973  0.2220  0.5151
12558SOL    HW138890   5.625   5.619   2.259 -1.0415  0.2930  0.6756
12558SOL    HW238891   5.562   5.673   2.386  0.2777  0.2026  1.3914
12559SOL     OW38892   5.296   7.165   2.410  0.4067 -0.3710 -0.6133
12559SOL    HW138893   5.320   7.085   2.457  0.9188  0.4097  0.5054
12559SOL    HW238894   5.236   7.136   2.342  0.7382 -1.7305 -0.3536
12560SOL     OW38895   4.106   7.414   3.512  0.3424  0.3358  0.5989
12560SOL    HW138896   4.023   7.400   3.466  0.6288 -0.3658  0.2779
12560SOL    HW238897   4.156   7.334   3.496  1.0243  0.6902  0.9124
12561SOL     OW38898   5.091   6.133   2.370 -0.1539  0.5208 -0.3319
12561SOL    HW138899   4.996   6.125   2.366 -0.0025 -1.8521 -1.1813
12561SOL    HW238900   5.123   6.047   2.341  2.2422  1.0938  0.4033
12562SOL     OW38901   4.160   6.544   3.312 -0.5491 -0.0061 -0.1247
12562SOL    HW138902   4.179   6.536   3.406 -0.4420  0.2047 -0.1267
12562SOL    HW238903   4.237   6.507   3.269 -1.2294 -1.4724 -0.1333
12563SOL     OW38904   4.348   7.011   2.512  0.4741  0.1880 -0.0159
12563SOL    HW138905   4.408   6.939   2.493 -0.1696 -0.0325 -1.3470
12563SOL    HW238906   4.268   6.990   2.463 -0.1993  1.1470  0.6288
12564SOL     OW38907   5.088   7.273   2.580 -0.5211  0.3131 -0.2847
12564SOL    HW138908   5.106   7.316   2.663  0.7311 -2.8748  1.2591
12564SOL    HW238909   5.160   7.299   2.523  0.0534  0.4787  0.5058
12565SOL     OW38910   5.184   5.406   2.316  0.1556 -0.0087 -0.0642
12565SOL    HW138911   5.095   5.435   2.294  0.8959  0.7291 -2.3242
12565SOL    HW238912   5.227   5.485   2.349  0.4089  0.0175 -0.4522
12566SOL     OW38913   4.292   5.702   2.554  0.3225  0.0394 -0.4500
12566SOL    HW138914   4.312   5.659   2.637 -1.0933  0.7955  0.3213
12566SOL    HW238915   4.238   5.640   2.507  0.0347  0.1215 -0.2333
12567SOL     OW38916   4.855   6.967   2.002  0.0370  0.0480  0.0661
12567SOL    HW138917   4.894   6.971   2.089 -0.0489  1.6831  0.0659
12567SOL    HW238918   4.851   7.058   1.973 -1.1375 -0.3359 -1.1106
12568SOL     OW38919   4.760   6.330   2.847 -0.0761 -0.3966 -0.0599
12568SOL    HW138920   4.803   6.354   2.929 -1.3043  2.3871 -0.1262
12568SOL    HW238921   4.667   6.349   2.862 -0.1367  1.8044 -2.5640
12569SOL     OW38922   4.747   6.414   2.066 -1.0695  0.0547 -0.5115
12569SOL    HW138923   4.664   6.438   2.106 -1.4633 -2.2653  0.2482
12569SOL    HW238924   4.741   6.319   2.054  2.5154 -0.7434  2.2254
12570SOL     OW38925   5.378   7.162   1.938 -0.2825 -0.2678  0.2406
12570SOL    HW138926   5.306   7.173   1.877 -0.2179 -0.4232  0.1339
12570SOL    HW238927   5.448   7.217   1.903  0.7900 -2.5765 -1.4904
12571SOL     OW38928   4.168   6.853   3.400  0.5307 -0.3734 -0.1137
12571SOL    HW138929   4.186   6.807   3.318  0.6162  0.1884 -0.4127
12571SOL    HW238930   4.202   6.795   3.468 -2.2682 -2.3287 -0.2037
12572SOL     OW38931   5.285   6.893   3.001  0.5950 -0.0363 -0.0446
12572SOL    HW138932   5.322   6.884   2.913  0.4730 -0.7699 -0.0256
12572SOL    HW238933   5.224   6.967   2.994  1.2069  0.4493 -0.3635
12573SOL     OW38934   4.330   6.193   2.650 -0.3585  0.2389 -0.0655
12573SOL    HW138935   4.332   6.102   2.679 -2.1874  0.2997  0.4239
12573SOL    HW238936   4.276   6.191   2.570  1.9809  0.5224 -1.7443
12574SOL     OW38937   4.673   6.042   2.501 -0.4288  0.5985 -0.0719
12574SOL    HW138938   4.683   6.061   2.594  0.2916  0.4488 -0.1147
12574SOL    HW238939   4.664   5.947   2.497  1.0823  0.4386 -0.2672
12575SOL     OW38940   4.298   7.035   2.788 -0.5693  0.1600 -0.3164
12575SOL    HW138941   4.255   7.118   2.805 -3.9532 -1.2963 -0.9843
12575SOL    HW238942   4.279   7.017   2.696  0.0295 -1.3934 -0.1619
12576SOL     OW38943   5.212   5.586   3.018  0.4384  0.4668  0.1176
12576SOL    HW138944   5.190   5.569   2.926 -1.3389 -0.3870  0.6617
12576SOL    HW238945   5.229   5.499   3.054 -2.0304  0.4202  1.3245
12577SOL     OW38946   3.871   7.091   2.413 -0.7755  0.4272 -0.1518
12577SOL    HW138947   3.847   7.061   2.326  1.0472 -0.4579 -0.3805
12577SOL    HW238948   3.884   7.185   2.404  0.0319  0.2369 -0.9817
12578SOL     OW38949   3.603   6.530   3.670 -0.2885 -0.1359  0.2228
12578SOL    HW138950   3.530   6.539   3.730 -1.5003 -0.1000 -1.1940
12578SOL    HW238951   3.665   6.598   3.697 -1.5565  0.9935  0.3956
12579SOL     OW38952   4.426   5.827   3.444  0.6684 -0.1372  0.2497
12579SOL    HW138953   4.435   5.756   3.507 -0.6019  0.2408  0.8753
12579SOL    HW238954   4.378   5.895   3.490 -1.2190 -0.2475 -1.4055
12580SOL     OW38955   3.880   5.431   1.860 -0.0899 -0.4021  0.3774
12580SOL    HW138956   3.798   5.399   1.897 -0.6770 -0.0213 -0.5646
12580SOL    HW238957   3.937   5.444   1.936 -1.2205  0.2714  1.1408
12581SOL     OW38958   4.824   6.339   3.129  0.2921  0.0692 -0.4024
12581SOL    HW138959   4.908   6.334   3.174 -1.0627 -1.6958  2.2136
12581SOL    HW238960   4.781   6.416   3.166 -0.2465 -0.5472  0.2922
12582SOL     OW38961   3.707   5.831   3.011  0.2282 -0.1588 -0.4304
12582SOL    HW138962   3.774   5.765   3.031 -0.3430 -0.4727  0.5007
12582SOL    HW238963   3.660   5.794   2.937  0.3375 -0.4922 -0.3402
12583SOL     OW38964   4.947   6.944   2.313  0.1848 -0.0799 -0.5997
12583SOL    HW138965   4.901   6.880   2.367  1.8364 -1.7702 -1.0734
12583SOL    HW238966   4.925   7.029   2.351 -1.5236 -0.9629  0.4861
12584SOL     OW38967   4.317   6.271   3.485  0.2235 -0.5948 -0.0965
12584SOL    HW138968   4.408   6.259   3.455  0.3179  0.3905 -0.2349
12584SOL    HW238969   4.304   6.366   3.483 -1.2553 -0.7898 -1.3789
12585SOL     OW38970   4.925   7.329   2.883  0.2017 -0.0482  0.6363
12585SOL    HW138971   4.975   7.334   2.965 -1.3023  0.8101  1.5464
12585SOL    HW238972   4.967   7.394   2.826  1.8152 -1.2636  0.3534
12586SOL     OW38973   4.706   6.592   3.267  0.2027 -0.1128 -0.0179
12586SOL    HW138974   4.655   6.579   3.187 -0.4012 -2.0833  0.6098
12586SOL    HW238975   4.641   6.585   3.338  0.9980 -0.3239  0.7010
12587SOL     OW38976   5.498   6.835   3.200 -0.0722  0.0410  0.3172
12587SOL    HW138977   5.438   6.835   3.125  0.8917 -0.3917 -0.4761
12587SOL    HW238978   5.457   6.895   3.263 -0.7331  0.6872 -0.6890
12588SOL     OW38979   4.427   7.524   3.176 -0.6289  0.2325  0.4254
12588SOL    HW138980   4.470   7.463   3.236  3.0945  1.3831 -0.7998
12588SOL    HW238981   4.336   7.495   3.174  0.1354 -2.8824  2.7803
12589SOL     OW38982   4.749   6.056   3.099 -0.5858  0.4552  0.2939
12589SOL    HW138983   4.749   6.150   3.115  1.8735  0.5658 -0.0099
12589SOL    HW238984   4.743   6.017   3.187 -0.5724  0.8842  0.4886
12590SOL     OW38985   5.159   5.641   2.075 -0.4452 -0.1131 -0.1155
12590SOL    HW138986   5.090   5.598   2.024 -1.7537  0.8310  0.7770
12590SOL    HW238987   5.208   5.570   2.115  0.5771 -0.8705 -2.5974
12591SOL     OW38988   4.087   6.233   2.395 -0.1241  0.6786  0.1756
12591SOL    HW138989   4.162   6.195   2.349 -0.9127  0.9421 -1.4159
12591SOL    HW238990   4.032   6.268   2.325 -1.3978  1.1128  1.3517
12592SOL     OW38991   5.435   5.932   3.329 -0.0749  0.7110 -0.1289
12592SOL    HW138992   5.388   6.012   3.308  0.7837  0.9177 -1.4083
12592SOL    HW238993   5.506   5.929   3.265 -0.5706 -1.4784 -0.6585
12593SOL     OW38994   5.252   6.597   3.150 -0.6419 -0.1807 -0.1777
12593SOL    HW138995   5.269   6.687   3.179  0.2599 -0.0894 -0.9674
12593SOL    HW238996   5.214   6.607   3.063 -0.2925 -0.5715 -0.3775
12594SOL     OW38997   4.467   6.907   2.149 -0.4119 -0.1361 -0.3544
12594SOL    HW138998   4.528   6.862   2.092 -1.3550 -1.0180 -0.6990
12594SOL    HW238999   4.481   6.868   2.235 -0.6963 -0.5714 -0.4992
12595SOL     OW39000   4.147   7.475   3.161  0.4421 -0.2934 -0.0392
12595SOL    HW139001   4.102   7.392   3.175  0.9050 -0.3268  1.4413
12595SOL    HW239002   4.120   7.530   3.234  1.3585  0.3160 -0.1318
12596SOL     OW39003   4.542   6.335   2.516 -0.9926  0.0604  0.3591
12596SOL    HW139004   4.617   6.277   2.498 -0.9822 -0.2148  1.2766
12596SOL    HW239005   4.477   6.278   2.556 -1.0612  0.6516  1.0929
12597SOL     OW39006   5.188   6.532   1.709 -0.2029  0.2884 -0.0776
12597SOL    HW139007   5.250   6.499   1.774 -0.7118 -0.8302 -0.1395
12597SOL    HW239008   5.234   6.604   1.667  1.4661 -1.1231 -0.8007
12598SOL     OW39009   5.816   7.220   2.574 -0.3382  0.1790  0.3494
12598SOL    HW139010   5.877   7.188   2.508 -0.3092  2.5267 -0.8684
12598SOL    HW239011   5.798   7.144   2.629  1.7608 -1.1816 -0.7197
12599SOL     OW39012   3.717   6.391   3.930  0.2887 -0.3737 -0.7037
12599SOL    HW139013   3.680   6.303   3.924 -0.6277  0.0500 -1.5343
12599SOL    HW239014   3.692   6.420   4.018  1.1275 -1.1585 -0.1898
12600SOL     OW39015   3.860   6.738   2.752 -0.3153 -0.4706 -0.2456
12600SOL    HW139016   3.918   6.709   2.682  0.4653 -0.1095  0.2361
12600SOL    HW239017   3.804   6.803   2.712 -1.2409 -1.7066 -1.0313
12601SOL     OW39018   4.329   7.058   3.703 -0.2697  0.3105  0.3337
12601SOL    HW139019   4.407   7.101   3.739  0.1310 -0.9926  1.1368
12601SOL    HW239020   4.260   7.123   3.709  0.6060  1.2886  0.1996
12602SOL     OW39021   5.471   5.322   2.985 -0.1006 -0.4274 -0.0081
12602SOL    HW139022   5.398   5.373   3.021 -0.8778 -1.0111 -0.7003
12602SOL    HW239023   5.457   5.234   3.020 -0.6450 -0.9127 -1.3871
12603SOL     OW39024   4.365   5.786   2.256  0.2253 -0.3306  0.6835
12603SOL    HW139025   4.369   5.711   2.196 -0.8375  1.5062 -1.8479
12603SOL    HW239026   4.334   5.749   2.339 -0.8445 -2.6034 -0.6482
12604SOL     OW39027   5.117   6.982   2.663  0.2914 -0.1662 -0.4481
12604SOL    HW139028   5.086   7.047   2.601 -0.3055 -0.9319 -0.9716
12604SOL    HW239029   5.100   7.020   2.749 -0.5357  0.1422 -0.7428
12605SOL     OW39030   3.891   6.016   3.287 -0.0743  0.0130  0.0451
12605SOL    HW139031   3.831   5.946   3.312  0.8131 -1.1824 -1.0259
12605SOL    HW239032   3.964   5.971   3.244  0.8010  1.5562 -0.1733
12606SOL     OW39033   4.817   6.757   2.483  0.2559  0.1591 -0.0559
12606SOL    HW139034   4.770   6.829   2.526 -0.0815 -0.1860  0.1569
12606SOL    HW239035   4.770   6.678   2.509  2.3889 -0.4988  2.2460
12607SOL     OW39036   5.093   5.762   2.724 -0.2449  0.3523  0.1106
12607SOL    HW139037   5.073   5.669   2.731 -0.7580  0.5339  1.2665
12607SOL    HW239038   5.070   5.798   2.809  0.1605  1.5029 -0.2476
12608SOL     OW39039   4.755   5.732   3.015  0.5573 -0.4538 -0.2567
12608SOL    HW139040   4.688   5.665   3.000 -0.8995  1.3292 -2.2458
12608SOL    HW239041   4.748   5.791   2.940  2.1607  1.6424  1.1200
12609SOL     OW39042   4.545   6.530   2.197  0.0184  0.1215 -0.6132
12609SOL    HW139043   4.455   6.540   2.227 -0.1989  2.5559 -1.8044
12609SOL    HW239044   4.598   6.579   2.260  0.1678  0.9251 -1.3445
12610SOL     OW39045   4.275   7.180   3.264  0.1934  0.0173 -0.3403
12610SOL    HW139046   4.300   7.203   3.174 -0.8439 -0.3028 -0.7330
12610SOL    HW239047   4.228   7.097   3.254 -1.9764  1.1145  0.1802
12611SOL     OW39048   4.914   5.395   1.570  0.0233  0.5516  0.1594
12611SOL    HW139049   4.874   5.354   1.647 -0.8168  1.5632  0.2806
12611SOL    HW239050   4.917   5.325   1.505 -2.1914  0.4704  0.0618
12612SOL     OW39051   5.384   5.625   2.456  0.4969  0.1295  0.0672
12612SOL    HW139052   5.346   5.709   2.478 -0.4251 -0.6241  1.4959
12612SOL    HW239053   5.412   5.588   2.540 -0.5277 -1.6319 -0.3088
12613SOL     OW39054   5.494   5.502   2.776  0.1146  0.4824  0.6122
12613SOL    HW139055   5.512   5.426   2.831  1.5321 -0.3999 -0.9610
12613SOL    HW239056   5.520   5.577   2.829 -0.5002 -0.1624  1.8712
12614SOL     OW39057   3.759   5.941   2.607  0.1545 -0.2362  1.0320
12614SOL    HW139058   3.852   5.918   2.617  0.8145  1.5217 -0.5011
12614SOL    HW239059   3.749   6.020   2.660 -0.2698  0.0158  0.5787
12615SOL     OW39060   4.220   7.182   2.218  0.0192  0.1271 -0.6128
12615SOL    HW139061   4.245   7.248   2.282  0.0683 -0.6795  0.2283
12615SOL    HW239062   4.219   7.100   2.268  1.8561 -0.8369 -2.0002
12616SOL     OW39063   3.678   5.822   3.894 -0.6938  0.0445  0.6626
12616SOL    HW139064   3.742   5.860   3.834 -0.2002 -0.1908  1.0282
12616SOL    HW239065   3.628   5.761   3.841 -1.0164  0.6770  0.2351
12617SOL     OW39066   4.024   5.984   4.583 -0.4172  0.7304 -0.1105
12617SOL    HW139067   3.970   6.034   4.643 -0.0468  1.6026 -0.4865
12617SOL    HW239068   4.113   5.992   4.617 -0.2771  0.8025 -0.4838
12618SOL     OW39069   3.338   5.829   4.823  0.2061  0.2686  0.0967
12618SOL    HW139070   3.373   5.790   4.743 -0.4815  0.5045 -0.3290
12618SOL    HW239071   3.412   5.830   4.883  1.0743  1.2346 -0.9494
12619SOL     OW39072   4.066   7.184   4.649  0.2406  0.3188  0.2690
12619SOL    HW139073   4.072   7.213   4.558 -0.0682  1.0457  0.4780
12619SOL    HW239074   4.044   7.263   4.699 -0.3294 -0.2188  0.8855
12620SOL     OW39075   5.268   6.986   4.558 -0.6065  0.2051 -0.0876
12620SOL    HW139076   5.290   7.031   4.639 -1.0600 -1.1606  0.8125
12620SOL    HW239077   5.226   7.054   4.504  0.2870  1.2860  0.5278
12621SOL     OW39078   5.098   6.180   4.615  0.0758  0.0855  0.0435
12621SOL    HW139079   5.069   6.100   4.570 -0.1569 -0.5065  1.2165
12621SOL    HW239080   5.109   6.153   4.706  0.2592  1.3372  0.3983
12622SOL     OW39081   5.467   6.021   4.273 -0.4276  0.1145  0.0164
12622SOL    HW139082   5.374   5.999   4.284 -0.6095  1.2368  0.8599
12622SOL    HW239083   5.484   6.003   4.180 -1.6197  0.3531 -0.2775
12623SOL     OW39084   4.493   7.339   4.759  0.2943 -0.1490  0.2082
12623SOL    HW139085   4.538   7.264   4.720 -2.1366 -1.6257  0.0555
12623SOL    HW239086   4.454   7.384   4.684  0.8216  0.6606  0.4095
12624SOL     OW39087   4.971   6.097   5.082  0.4982 -0.4725  0.0320
12624SOL    HW139088   5.056   6.110   5.040  0.8044 -1.1479  0.4172
12624SOL    HW239089   4.939   6.014   5.046 -0.6548  0.4575 -1.1601
12625SOL     OW39090   4.108   6.400   4.453  0.5672 -0.5191 -0.5319
12625SOL    HW139091   4.183   6.341   4.453  0.2486 -0.9231 -0.4323
12625SOL    HW239092   4.145   6.485   4.430  0.9564 -0.8353 -1.0819
12626SOL     OW39093   3.961   6.526   5.413  0.8473  0.1654  0.4902
12626SOL    HW139094   4.017   6.549   5.488  0.3137  0.6634  0.7403
12626SOL    HW239095   3.945   6.432   5.423 -0.2567  0.4567  1.7225
12627SOL     OW39096   4.075   6.946   4.260 -0.4319 -0.0556  0.0284
12627SOL    HW139097   4.013   6.986   4.322 -0.0606  0.6293 -0.0371
12627SOL    HW239098   4.141   7.013   4.245 -0.4733 -0.2306 -1.0598
12628SOL     OW39099   5.022   7.602   4.738  0.4683  0.3405 -0.3254
12628SOL    HW139100   5.049   7.578   4.826  1.6784 -2.0627 -1.2552
12628SOL    HW239101   4.929   7.580   4.735  0.5501 -0.0851  0.1944
12629SOL     OW39102   4.073   5.744   5.236 -0.2107  0.6203 -0.1583
12629SOL    HW139103   4.098   5.665   5.285  3.1277  0.6596 -1.5394
12629SOL    HW239104   4.022   5.711   5.162  0.5682 -0.2016 -0.3532
12630SOL     OW39105   4.987   5.963   4.495  0.0533 -0.2243 -0.2998
12630SOL    HW139106   4.976   5.901   4.567 -0.1151  0.6675  0.4591
12630SOL    HW239107   4.908   5.954   4.443  0.5462 -1.4775 -0.8628
12631SOL     OW39108   3.825   7.133   3.850  0.0511 -0.4567  0.5252
12631SOL    HW139109   3.864   7.067   3.908  0.8119  0.6625  1.3228
12631SOL    HW239110   3.842   7.100   3.762  2.3319 -0.3062  0.8503
12632SOL     OW39111   5.023   7.107   5.104 -0.3677  0.1539 -0.1509
12632SOL    HW139112   4.938   7.146   5.126 -0.5571 -0.8755  1.1079
12632SOL    HW239113   5.016   7.083   5.012 -1.3990  0.2051 -0.0972
12633SOL     OW39114   3.815   7.363   4.032 -0.0391  0.5346  0.1798
12633SOL    HW139115   3.751   7.416   3.983  1.9606  2.1413 -0.8802
12633SOL    HW239116   3.846   7.298   3.969 -0.1156  0.2171  0.4662
12634SOL     OW39117   3.881   6.685   4.742  0.5824 -0.2337  0.4906
12634SOL    HW139118   3.941   6.741   4.693  1.8674 -1.4824  0.5913
12634SOL    HW239119   3.885   6.718   4.832  1.0853 -0.2703  0.4843
12635SOL     OW39120   4.049   7.357   5.206  0.0642  0.2321 -0.3502
12635SOL    HW139121   4.007   7.435   5.241 -1.1325 -0.5568  0.0227
12635SOL    HW239122   4.134   7.388   5.174 -0.8290  1.8919 -1.2442
12636SOL     OW39123   4.316   6.357   3.762 -0.0462 -0.1351 -0.2177
12636SOL    HW139124   4.309   6.333   3.854  0.2770  0.9029  0.0922
12636SOL    HW239125   4.258   6.296   3.717  1.2550 -1.9205  0.4284
12637SOL     OW39126   5.155   5.528   4.681  0.3770  0.1487 -0.1381
12637SOL    HW139127   5.106   5.500   4.758  1.3360  0.9417  0.7978
12637SOL    HW239128   5.111   5.486   4.607 -0.6920 -0.4579  0.8198
12638SOL     OW39129   3.282   6.309   4.642 -0.8178  0.6752  0.1557
12638SOL    HW139130   3.377   6.312   4.631 -0.7995  0.1335  0.1724
12638SOL    HW239131   3.250   6.385   4.592 -0.3969  0.7149 -0.0553
12639SOL     OW39132   5.146   6.947   3.981  0.0554  0.0797  0.0450
12639SOL    HW139133   5.199   6.939   3.902 -2.0774 -1.2019 -1.3730
12639SOL    HW239134   5.183   6.883   4.042  0.8505  0.0446 -0.4643
12640SOL     OW39135   3.948   6.934   4.019 -0.3784  0.0406  0.3222
12640SOL    HW139136   3.902   6.854   4.046  0.5094  0.1178  2.2605
12640SOL    HW239137   4.002   6.956   4.095  2.3643  0.3032 -1.5633
12641SOL     OW39138   5.832   6.667   4.489 -0.6579 -0.3152  0.0584
12641SOL    HW139139   5.739   6.686   4.504 -1.0274 -1.3585 -0.8124
12641SOL    HW239140   5.864   6.741   4.437 -0.5147  0.9761  1.8792
12642SOL     OW39141   5.533   6.759   3.936 -0.1682  0.3478 -0.7130
12642SOL    HW139142   5.618   6.731   3.971  0.1849  1.5101 -0.5874
12642SOL    HW239143   5.470   6.732   4.002  0.0835 -0.6005 -0.8416
12643SOL     OW39144   4.045   6.102   5.473  0.1991 -0.6441 -0.3663
12643SOL    HW139145   3.972   6.041   5.480  0.6183 -1.4791 -2.6802
12643SOL    HW239146   4.003   6.186   5.451 -0.2015 -0.5524  0.6638
12644SOL     OW39147   4.536   7.126   4.322  0.1298  1.0587 -0.2224
12644SOL    HW139148   4.615   7.088   4.284  0.5544  1.0195  0.6654
12644SOL    HW239149   4.535   7.216   4.290  0.3107  0.9394 -0.5693
12645SOL     OW39150   5.266   7.154   4.758 -0.2251  0.5793  0.2598
12645SOL    HW139151   5.182   7.113   4.779 -0.3734  1.3448  1.2146
12645SOL    HW239152   5.317   7.148   4.839  0.9556 -0.5907 -0.5364
12646SOL     OW39153   4.388   5.513   3.922 -0.0824  0.1019 -0.5701
12646SOL    HW139154   4.465   5.459   3.900  0.6075  0.6833  0.3800
12646SOL    HW239155   4.418   5.571   3.992 -1.5493 -0.0339  0.2045
12647SOL     OW39156   4.415   6.875   4.582  0.1536  0.4331  0.2432
12647SOL    HW139157   4.368   6.951   4.615  0.2964  0.8475 -0.4738
12647SOL    HW239158   4.386   6.802   4.637 -1.0327  0.7503  0.0560
12648SOL     OW39159   5.539   6.427   3.850 -0.5334 -0.2286  0.1063
12648SOL    HW139160   5.449   6.459   3.854 -0.7765 -0.9815  1.3495
12648SOL    HW239161   5.539   6.348   3.904  0.9629 -0.0254  0.4712
12649SOL     OW39162   5.197   6.933   5.473 -0.4906  0.3034 -0.4116
12649SOL    HW139163   5.104   6.923   5.492 -0.2927 -0.1647  0.3607
12649SOL    HW239164   5.206   6.910   5.381 -0.9598 -0.8383 -0.1812
12650SOL     OW39165   4.800   5.797   5.842  0.4598  0.0001  0.0101
12650SOL    HW139166   4.859   5.808   5.768  2.3763 -0.8780  1.3150
12650SOL    HW239167   4.750   5.717   5.821  1.3093 -0.5012 -0.1431
12651SOL     OW39168   5.276   6.523   4.656  0.0243 -0.2124  0.0364
12651SOL    HW139169   5.314   6.478   4.580 -0.3170 -0.5934  0.0898
12651SOL    HW239170   5.349   6.532   4.717  0.2975  0.0835 -0.3313
12652SOL     OW39171   5.467   7.647   4.208 -0.6063  0.1174  0.4684
12652SOL    HW139172   5.558   7.624   4.229  0.1628  1.9487 -0.6356
12652SOL    HW239173   5.445   7.716   4.271 -0.5728  0.9491 -0.4078
12653SOL     OW39174   4.038   6.103   3.905 -0.0383  0.0727 -0.3680
12653SOL    HW139175   3.990   6.031   3.947  0.9994  0.3805  1.4351
12653SOL    HW239176   4.031   6.175   3.966  0.0933  1.1141 -1.5392
12654SOL     OW39177   4.765   5.932   4.326 -0.5654  0.4068  0.1679
12654SOL    HW139178   4.715   5.887   4.257 -0.2422 -2.0751  1.4458
12654SOL    HW239179   4.714   5.917   4.406  0.0229  1.6095  0.7839
12655SOL     OW39180   5.446   7.205   3.822  0.6125 -0.0895  0.5230
12655SOL    HW139181   5.506   7.131   3.813  0.3300 -0.2302 -0.2492
12655SOL    HW239182   5.390   7.182   3.897 -0.8996 -1.7008 -1.0086
12656SOL     OW39183   4.356   6.324   5.017 -0.0580 -0.1670 -0.1650
12656SOL    HW139184   4.407   6.243   5.015 -0.3841 -0.4056  0.6199
12656SOL    HW239185   4.376   6.367   4.934 -0.0180 -1.1346 -0.6768
12657SOL     OW39186   5.129   6.205   5.525  0.1381 -0.6619  0.0591
12657SOL    HW139187   5.072   6.152   5.581 -1.6259 -0.4016 -1.3950
12657SOL    HW239188   5.071   6.240   5.458  1.5603  1.7250 -0.0482
12658SOL     OW39189   4.579   6.278   5.272 -0.1912 -0.9880  0.3052
12658SOL    HW139190   4.641   6.302   5.341  0.0246 -1.5479  0.3188
12658SOL    HW239191   4.510   6.229   5.318 -0.0009 -1.4400  0.1162
12659SOL     OW39192   4.669   5.933   4.607 -0.7244  0.4460  0.0786
12659SOL    HW139193   4.637   5.859   4.659  0.7811  0.0279  0.4611
12659SOL    HW239194   4.741   5.969   4.659  0.3762  0.4434 -1.3774
12660SOL     OW39195   5.054   5.720   4.092  0.4165 -0.0689  0.0546
12660SOL    HW139196   5.094   5.691   4.174 -0.2931 -0.4528  0.2654
12660SOL    HW239197   5.012   5.803   4.113 -1.1713 -0.9548  0.5018
12661SOL     OW39198   3.344   6.378   4.899  0.1653 -0.1980  0.0829
12661SOL    HW139199   3.279   6.326   4.946 -2.3996  2.1110 -0.6611
12661SOL    HW239200   3.345   6.340   4.811  2.2645 -2.1875  0.8523
12662SOL     OW39201   3.515   7.443   5.274  0.2604  0.1231  0.0563
12662SOL    HW139202   3.591   7.385   5.270  0.0345 -0.1314 -3.1019
12662SOL    HW239203   3.549   7.529   5.247 -0.1123  0.6777  1.2505
12663SOL     OW39204   4.626   6.147   4.128  0.0242  0.0860  0.6677
12663SOL    HW139205   4.643   6.242   4.125 -0.1383  0.1432  1.5040
12663SOL    HW239206   4.685   6.114   4.195 -0.5541 -0.2696  1.0059
12664SOL     OW39207   5.347   6.056   5.300 -0.1035  0.1634 -0.2678
12664SOL    HW139208   5.285   6.110   5.349 -0.1790  0.0311 -0.2171
12664SOL    HW239209   5.347   5.972   5.346 -0.0819  0.0789 -0.4211
12665SOL     OW39210   4.987   6.692   4.321  0.1075  0.3246  0.6893
12665SOL    HW139211   5.009   6.680   4.228 -0.9388  0.5147  0.4050
12665SOL    HW239212   4.991   6.604   4.358  0.7253  0.2730  0.5132
12666SOL     OW39213   4.355   5.915   4.611  0.2582  0.8204  0.4139
12666SOL    HW139214   4.421   5.846   4.620 -1.1767 -0.7839 -0.8648
12666SOL    HW239215   4.357   5.938   4.518 -0.5203  1.2163  0.4853
12667SOL     OW39216   4.765   7.064   4.182  0.1039 -0.2943  0.2544
12667SOL    HW139217   4.794   7.015   4.105  1.6544  1.4052 -0.3048
12667SOL    HW239218   4.817   7.028   4.255 -0.0836 -0.7002  0.1897
12668SOL     OW39219   3.813   7.353   4.285  0.3501 -0.3387 -0.1733
12668SOL    HW139220   3.820   7.355   4.190 -2.1707 -1.0351 -0.4505
12668SOL    HW239221   3.808   7.446   4.310  1.3842 -0.1413 -0.6619
12669SOL     OW39222   5.557   6.825   4.523  0.7982 -0.0038  0.4934
12669SOL    HW139223   5.581   6.882   4.450 -1.3198  0.7350  0.2843
12669SOL    HW239224   5.587   6.871   4.601 -0.2881  1.1109  0.2809
12670SOL     OW39225   5.064   7.449   5.000  0.2566  0.1399 -0.0254
12670SOL    HW139226   5.015   7.368   4.986  1.1972 -0.9649  2.4055
12670SOL    HW239227   5.151   7.430   4.964 -0.3551  1.3345 -2.3922
12671SOL     OW39228   3.764   6.033   4.229 -0.0276 -0.0289 -0.4489
12671SOL    HW139229   3.849   6.040   4.273 -1.6120  0.7484  2.8736
12671SOL    HW239230   3.729   5.948   4.259 -1.7043  1.1093  1.0347
12672SOL     OW39231   5.937   6.674   4.746  0.5852 -0.2544  1.3999
12672SOL    HW139232   5.871   6.633   4.802 -0.9878  0.2034 -0.0382
12672SOL    HW239233   5.895   6.681   4.661  2.6079 -0.1691  0.3396
12673SOL     OW39234   4.959   7.392   3.686 -0.4461 -0.8117 -0.0728
12673SOL    HW139235   4.978   7.426   3.773 -0.5601 -0.8571 -0.0301
12673SOL    HW239236   5.021   7.321   3.674  0.0529 -0.3436 -0.3158
12674SOL     OW39237   3.750   5.971   5.442 -0.1186 -0.8135 -0.7250
12674SOL    HW139238   3.688   5.971   5.515  1.1453  0.0162  0.4208
12674SOL    HW239239   3.798   5.888   5.451  2.6676  0.8444  1.8927
12675SOL     OW39240   5.394   6.414   4.216 -0.0844 -0.3724  0.2708
12675SOL    HW139241   5.337   6.371   4.280  1.0845 -0.8869  1.0076
12675SOL    HW239242   5.453   6.468   4.269  0.6380 -0.4895 -0.3920
12676SOL     OW39243   3.629   7.310   3.721  0.0755 -0.0754  0.7014
12676SOL    HW139244   3.672   7.392   3.748  0.8601  0.2515 -1.3358
12676SOL    HW239245   3.696   7.243   3.732  1.7655  0.6079 -3.5825
12677SOL     OW39246   4.888   5.421   3.772 -0.5245 -0.6601  0.2623
12677SOL    HW139247   4.945   5.498   3.768 -0.3109 -0.8507 -1.4688
12677SOL    HW239248   4.934   5.359   3.827 -0.9146  0.5776  2.0970
12678SOL     OW39249   3.819   7.576   4.945  0.1237  0.0919  0.4178
12678SOL    HW139250   3.735   7.621   4.946  0.0373 -0.0548 -0.1055
12678SOL    HW239251   3.825   7.535   5.032 -0.2019  0.3574  0.5659
12679SOL     OW39252   4.825   7.351   4.103 -0.2738  0.1936 -0.5027
12679SOL    HW139253   4.785   7.265   4.095  0.5177 -0.3480  0.9804
12679SOL    HW239254   4.892   7.353   4.034 -1.0595  0.0918 -1.2822
12680SOL     OW39255   3.389   5.880   3.891 -0.0213  0.4895  0.4827
12680SOL    HW139256   3.465   5.826   3.917 -0.9146 -2.6025 -2.5445
12680SOL    HW239257   3.324   5.862   3.959 -0.2386 -2.3724 -0.3423
12681SOL     OW39258   4.921   5.672   5.238  0.1949  0.6709  0.0491
12681SOL    HW139259   4.827   5.654   5.240  0.0122  1.5603 -0.3406
12681SOL    HW239260   4.961   5.595   5.279 -0.8826  1.5663  2.9717
12682SOL     OW39261   4.719   5.838   3.913 -0.0670 -0.1709  0.6490
12682SOL    HW139262   4.806   5.808   3.885 -0.4374 -2.1622  1.4751
12682SOL    HW239263   4.659   5.797   3.851 -0.4002  2.5457 -0.9756
12683SOL     OW39264   4.682   5.418   5.023 -0.2094 -0.8009  0.2048
12683SOL    HW139265   4.683   5.398   4.930 -0.1977 -2.4173  0.5149
12683SOL    HW239266   4.744   5.356   5.062 -0.1019 -0.0570  1.2633
12684SOL     OW39267   4.647   7.180   4.583 -0.3567 -0.4561 -0.0192
12684SOL    HW139268   4.571   7.151   4.534 -0.5270  1.0908 -0.7568
12684SOL    HW239269   4.701   7.226   4.518  0.5098 -0.2878  0.7906
12685SOL     OW39270   5.195   6.114   4.864  0.4348 -0.4184 -0.4110
12685SOL    HW139271   5.278   6.151   4.894  0.4836  0.4432 -1.5571
12685SOL    HW239272   5.206   6.019   4.876  0.5828 -0.1679  1.8466
12686SOL     OW39273   4.756   6.855   5.046 -1.1450  0.7125 -0.3160
12686SOL    HW139274   4.780   6.790   5.111 -0.2350  0.6780 -0.6657
12686SOL    HW239275   4.832   6.860   4.988 -0.7963  2.7415  0.2292
12687SOL     OW39276   4.318   6.236   4.422  0.5170  0.1534  0.4243
12687SOL    HW139277   4.295   6.165   4.362 -0.3641 -1.0318  2.0594
12687SOL    HW239278   4.401   6.208   4.462  0.6137  0.4606  0.4392
12688SOL     OW39279   4.344   5.777   4.046 -0.4637  0.6847 -0.4529
12688SOL    HW139280   4.269   5.722   4.069  0.4884 -0.4096  0.1318
12688SOL    HW239281   4.314   5.827   3.970 -1.5364 -0.2587 -0.6866
12689SOL     OW39282   5.308   6.538   3.841  0.6112 -0.0298 -0.2608
12689SOL    HW139283   5.229   6.489   3.864  0.6739  0.3293  0.7467
12689SOL    HW239284   5.317   6.603   3.910  2.0833 -0.3941 -0.0937
12690SOL     OW39285   4.103   5.643   4.068  0.2427 -0.4705 -0.8162
12690SOL    HW139286   4.016   5.632   4.107 -0.3542  0.3810 -1.8632
12690SOL    HW239287   4.131   5.554   4.047 -0.7362 -0.6964 -1.2218
12691SOL     OW39288   4.612   5.789   4.161 -0.5151  0.8221 -0.4016
12691SOL    HW139289   4.660   5.764   4.082 -0.5534  1.2292 -0.5581
12691SOL    HW239290   4.520   5.769   4.140 -0.4694  0.4594 -0.2683
12692SOL     OW39291   4.658   6.171   5.018  0.3012 -0.0009 -0.3782
12692SOL    HW139292   4.613   6.162   5.102  0.8418  2.3429  0.2448
12692SOL    HW239293   4.751   6.164   5.039  0.4066 -0.4896 -0.9670
12693SOL     OW39294   5.010   6.444   4.458 -0.2438 -0.0347 -0.0011
12693SOL    HW139295   5.062   6.378   4.412  0.1232  0.0486  0.2884
12693SOL    HW239296   5.043   6.441   4.548 -1.3786 -0.6297  0.4053
12694SOL     OW39297   3.841   6.400   4.503  0.1170 -0.2350 -0.6754
12694SOL    HW139298   3.936   6.393   4.494  0.6531  0.8827  2.6106
12694SOL    HW239299   3.809   6.310   4.492  1.7248 -0.8616 -0.4815
12695SOL     OW39300   5.079   6.702   4.663 -0.3633 -0.6934  0.1463
12695SOL    HW139301   5.163   6.659   4.645  0.1417 -0.3695  1.5792
12695SOL    HW239302   5.042   6.720   4.577  1.6709  0.4084 -0.5518
12696SOL     OW39303   4.803   6.405   3.532  0.2594  0.0666 -0.5407
12696SOL    HW139304   4.742   6.354   3.584 -1.3635  0.3663 -2.0669
12696SOL    HW239305   4.789   6.496   3.560  0.9354  0.0252 -0.0201
12697SOL     OW39306   4.146   5.998   5.253 -0.8234  0.3649 -0.1773
12697SOL    HW139307   4.129   5.904   5.249 -0.3188  0.3003 -1.1202
12697SOL    HW239308   4.118   6.024   5.340  0.9257 -1.0245  0.8524
12698SOL     OW39309   4.384   5.774   4.905  0.1865  0.1188  0.4121
12698SOL    HW139310   4.383   5.701   4.967 -1.6750 -0.1184  0.1627
12698SOL    HW239311   4.442   5.744   4.835  1.2876 -0.1421  1.4024
12699SOL     OW39312   4.152   5.754   4.312  0.2703 -0.0537  0.2230
12699SOL    HW139313   4.123   5.699   4.239 -0.1621 -0.7525  0.9103
12699SOL    HW239314   4.075   5.763   4.367 -0.4375  3.3144 -1.0763
12700SOL     OW39315   5.525   6.564   4.785 -0.4121 -0.5069 -0.1009
12700SOL    HW139316   5.561   6.506   4.718 -1.8424 -1.2492 -0.2868
12700SOL    HW239317   5.488   6.504   4.851 -0.6726  0.1977  0.4040
12701SOL     OW39318   5.636   6.384   4.612 -0.5244 -0.3567 -0.4445
12701SOL    HW139319   5.599   6.308   4.568 -0.1955 -0.5022 -0.4694
12701SOL    HW239320   5.724   6.358   4.637 -1.2134 -0.8695  1.7508
12702SOL     OW39321   5.735   6.347   4.233  0.2472  0.2390  0.4214
12702SOL    HW139322   5.768   6.296   4.307  2.7474 -0.4461 -1.0641
12702SOL    HW239323   5.661   6.396   4.269  0.2297 -1.4296  2.8928
12703SOL     OW39324   3.719   6.717   4.063 -0.7629  0.0384 -0.0061
12703SOL    HW139325   3.735   6.668   4.143 -1.7926  0.4145  0.4602
12703SOL    HW239326   3.624   6.729   4.061 -1.0882 -2.0575 -2.5397
12704SOL     OW39327   5.331   6.894   3.779 -0.3888  0.0726 -0.0174
12704SOL    HW139328   5.406   6.861   3.829 -1.5192 -0.2534  1.5454
12704SOL    HW239329   5.351   6.872   3.688  1.0852 -0.6280  0.4480
12705SOL     OW39330   5.104   5.382   3.559  0.0556 -0.7891 -0.1542
12705SOL    HW139331   5.047   5.368   3.484 -0.4773 -0.0339  0.1000
12705SOL    HW239332   5.094   5.304   3.612  1.9178 -2.2480 -1.7770
12706SOL     OW39333   3.602   6.141   4.035 -0.3947 -0.0515  0.0597
12706SOL    HW139334   3.669   6.110   4.097 -0.6046 -0.5726  0.0370
12706SOL    HW239335   3.591   6.068   3.974 -0.7053  0.1837 -0.1680
12707SOL     OW39336   5.027   6.560   5.089 -0.1729  0.2008  0.5274
12707SOL    HW139337   5.079   6.521   5.019  0.9633  2.7475 -0.1969
12707SOL    HW239338   5.064   6.523   5.170  1.8871  0.8531 -0.0472
12708SOL     OW39339   4.529   6.887   5.187 -0.1221  0.4156 -0.0528
12708SOL    HW139340   4.612   6.897   5.141  1.1843 -0.2891  2.0285
12708SOL    HW239341   4.528   6.795   5.214  0.0703  1.1762  2.8436
12709SOL     OW39342   5.443   7.093   4.994 -0.1018 -0.1237 -0.3545
12709SOL    HW139343   5.413   7.077   5.083 -1.2264 -0.2604 -0.7485
12709SOL    HW239344   5.525   7.044   4.987  0.7751  1.0747  1.0560
12710SOL     OW39345   4.644   6.475   5.048  0.0825  0.2117  0.1509
12710SOL    HW139346   4.723   6.451   5.000 -0.8339  0.5125 -1.6212
12710SOL    HW239347   4.613   6.393   5.086  0.3956 -0.2148 -0.4843
12711SOL     OW39348   5.575   7.186   4.581  0.3789 -0.0475 -0.0123
12711SOL    HW139349   5.632   7.223   4.648 -0.3366  0.5076  0.3027
12711SOL    HW239350   5.488   7.182   4.622  0.1955 -0.9226 -0.4676
12712SOL     OW39351   4.805   5.674   4.835 -0.5832 -0.4355 -0.1051
12712SOL    HW139352   4.834   5.588   4.866 -0.5473 -0.1717  0.6201
12712SOL    HW239353   4.718   5.659   4.800 -0.6570 -0.7312  0.2059
12713SOL     OW39354   4.672   6.766   5.409  0.0234 -0.0052 -0.1350
12713SOL    HW139355   4.719   6.707   5.350  0.2673  0.9018 -0.8728
12713SOL    HW239356   4.693   6.734   5.497  1.8758  0.2386 -0.4484
12714SOL     OW39357   3.954   6.471   4.219 -0.4541 -0.0615 -0.3200
12714SOL    HW139358   3.947   6.548   4.275  1.1754  0.2580 -0.4996
12714SOL    HW239359   3.995   6.405   4.275 -2.3167 -0.9984 -0.0059
12715SOL     OW39360   4.280   6.668   4.779 -0.1071  0.2243  0.3455
12715SOL    HW139361   4.356   6.615   4.801  0.3187  0.8153  0.3239
12715SOL    HW239362   4.212   6.605   4.755 -0.1887 -0.4004  2.0520
12716SOL     OW39363   4.543   6.135   4.516  0.2750  0.1284  0.3380
12716SOL    HW139364   4.591   6.062   4.555  0.1751 -0.1054  0.0270
12716SOL    HW239365   4.611   6.191   4.478  0.4287  0.7082  1.4124
12717SOL     OW39366   3.533   7.445   4.954  0.2378  0.1461 -0.1008
12717SOL    HW139367   3.596   7.424   4.886  0.2919  0.1215 -0.0432
12717SOL    HW239368   3.540   7.373   5.017  0.3157  0.2573  0.0203
12718SOL     OW39369   3.668   6.470   4.216  0.0268 -0.6764 -0.0094
12718SOL    HW139370   3.616   6.412   4.272 -0.5584 -0.9319 -0.7899
12718SOL    HW239371   3.758   6.441   4.228 -0.0033 -0.2617  1.3334
12719SOL     OW39372   4.084   6.515   4.720  0.2667  0.4858 -0.0993
12719SOL    HW139373   4.007   6.571   4.713 -1.0539 -1.0423  1.5085
12719SOL    HW239374   4.068   6.444   4.657 -0.3636 -0.5739  1.1961
12720SOL     OW39375   5.331   6.671   4.104 -0.7072  0.1594  0.1138
12720SOL    HW139376   5.321   6.744   4.166 -2.4628 -1.1149  1.4297
12720SOL    HW239377   5.309   6.593   4.155  4.8992 -2.0083  0.0125
12721SOL     OW39378   5.277   7.322   4.541 -0.4973  0.3429  0.2852
12721SOL    HW139379   5.268   7.269   4.620 -3.4488  0.6402  0.2693
12721SOL    HW239380   5.190   7.358   4.527  0.7953  3.2045 -1.1213
12722SOL     OW39381   5.540   6.566   4.420 -0.4996 -0.0927 -0.7174
12722SOL    HW139382   5.607   6.520   4.470 -1.5659 -0.1772  0.7288
12722SOL    HW239383   5.524   6.646   4.471 -0.4009  0.6812 -1.8785
12723SOL     OW39384   4.273   7.064   4.760  0.5661  0.6885 -0.3670
12723SOL    HW139385   4.206   7.124   4.728  0.6593  0.0630 -1.8036
12723SOL    HW239386   4.284   7.088   4.852 -0.6943  1.6524 -0.4340
12724SOL     OW39387   4.852   6.063   5.397 -0.3942  0.0099 -0.0928
12724SOL    HW139388   4.926   6.024   5.349 -0.5442 -0.6946  0.2392
12724SOL    HW239389   4.798   5.988   5.422 -0.5371  0.4127  0.8168
12725SOL     OW39390   4.970   6.322   5.298  0.2148  0.4779  0.4170
12725SOL    HW139391   4.984   6.241   5.249 -0.6751  1.1719 -1.0322
12725SOL    HW239392   4.905   6.370   5.248 -0.2181  1.5482  1.9275
12726SOL     OW39393   4.697   5.567   5.508 -0.3206  0.3821  0.1152
12726SOL    HW139394   4.687   5.561   5.603  2.5288  3.0024  0.7312
12726SOL    HW239395   4.746   5.488   5.484 -0.5571 -0.0085  0.8808
12727SOL     OW39396   4.194   5.464   5.362 -0.4326 -0.1524  0.3150
12727SOL    HW139397   4.191   5.465   5.266 -0.4065  1.6612  0.3078
12727SOL    HW239398   4.249   5.389   5.384 -1.1229 -1.0901 -1.0634
12728SOL     OW39399   4.103   6.696   4.425  0.0658 -0.3092  0.0900
12728SOL    HW139400   4.095   6.733   4.513  1.2814 -0.6876  0.3872
12728SOL    HW239401   4.120   6.772   4.369  1.6576 -0.2798  0.5611
12729SOL     OW39402   5.137   6.418   4.875 -0.3368  0.6845 -0.1612
12729SOL    HW139403   5.180   6.335   4.855  0.0559  0.9172 -0.2953
12729SOL    HW239404   5.177   6.481   4.814  0.5995  1.3248  1.0737
12730SOL     OW39405   5.188   6.229   3.711  0.0230 -0.4860  0.1742
12730SOL    HW139406   5.134   6.200   3.785  0.1421  2.6800  1.7005
12730SOL    HW239407   5.160   6.319   3.695  1.1894 -0.5174 -2.5899
12731SOL     OW39408   4.097   5.889   4.878 -0.4552 -0.3629  0.3048
12731SOL    HW139409   4.003   5.873   4.885 -0.3365 -0.2977  3.0337
12731SOL    HW239410   4.137   5.804   4.894 -0.0421 -0.1524  0.4148
12732SOL     OW39411   4.084   6.870   4.646 -0.4352  0.1839  0.3444
12732SOL    HW139412   4.137   6.869   4.726 -1.2976 -0.5304  0.9309
12732SOL    HW239413   4.081   6.963   4.621  1.1204  0.2339  0.2488
12733SOL     OW39414   4.208   6.204   4.769  0.3022  0.4542  0.6522
12733SOL    HW139415   4.228   6.293   4.743 -1.4684  0.2795 -1.6395
12733SOL    HW239416   4.113   6.197   4.762  0.4035 -1.6688  0.5044
12734SOL     OW39417   5.539   6.324   5.760  0.2853 -0.2367  0.7675
12734SOL    HW139418   5.487   6.363   5.830 -2.4169  1.1686 -1.8026
12734SOL    HW239419   5.506   6.234   5.753  0.5166 -0.3598  1.2357
12735SOL     OW39420   4.131   5.421   4.262  0.6342  0.0266  0.2485
12735SOL    HW139421   4.208   5.465   4.297  0.6492  0.4774 -0.3287
12735SOL    HW239422   4.164   5.336   4.232  0.3008 -1.1075  2.8457
12736SOL     OW39423   5.158   6.022   4.277  0.5946  0.5198 -0.4043
12736SOL    HW139424   5.143   6.114   4.254  0.0296  0.9820  1.5939
12736SOL    HW239425   5.094   6.004   4.346  1.4851 -1.0384  0.0655
12737SOL     OW39426   4.693   6.350   4.671 -0.3023 -0.3067 -0.1269
12737SOL    HW139427   4.751   6.276   4.652  0.2562  0.4177 -1.4346
12737SOL    HW239428   4.691   6.400   4.588 -3.8440 -0.9987 -0.5777
12738SOL     OW39429   4.348   6.954   5.379  0.4360  0.1799 -0.4404
12738SOL    HW139430   4.415   6.947   5.311  2.4568  2.7174  1.0814
12738SOL    HW239431   4.398   6.955   5.461 -1.4686  1.7617  0.7827
12739SOL     OW39432   5.238   6.971   5.176 -0.4894  0.2630 -0.4655
12739SOL    HW139433   5.161   7.027   5.163 -0.7895  0.0771  0.4290
12739SOL    HW239434   5.250   6.927   5.092  0.0582  2.0291 -1.3739
12740SOL     OW39435   4.215   6.718   5.427  0.0661 -0.2934 -0.1463
12740SOL    HW139436   4.289   6.675   5.470  0.3514  0.9918  0.6885
12740SOL    HW239437   4.252   6.798   5.390 -0.7794  0.0473 -0.2624
12741SOL     OW39438   5.646   5.813   4.239 -0.0435  0.1460 -0.7042
12741SOL    HW139439   5.612   5.899   4.262 -1.7436 -0.5768 -0.3688
12741SOL    HW239440   5.598   5.752   4.294  1.8299 -0.9808 -0.2145
12742SOL     OW39441   4.200   6.794   3.691 -0.4854 -0.2972 -0.1196
12742SOL    HW139442   4.194   6.759   3.780 -3.6218 -1.1643 -0.5643
12742SOL    HW239443   4.210   6.888   3.703  3.4750 -0.6780  1.0622
12743SOL     OW39444   5.035   7.136   4.512  0.2823  0.0077 -0.4780
12743SOL    HW139445   4.975   7.210   4.511  0.2351 -0.0330 -0.6090
12743SOL    HW239446   4.996   7.072   4.454  0.9795  0.4069 -1.4163
12744SOL     OW39447   3.165   6.022   4.747 -0.2391  0.1573 -0.0197
12744SOL    HW139448   3.218   6.100   4.732  0.1530 -0.7725 -4.7251
12744SOL    HW239449   3.228   5.952   4.762 -0.4579  0.0352  0.3729
12745SOL     OW39450   4.328   6.034   5.051  0.2349 -0.5274 -0.1784
12745SOL    HW139451   4.412   6.006   5.086 -0.8819 -4.0359  0.1346
12745SOL    HW239452   4.263   5.996   5.111 -1.5965  0.9006 -1.1474
12746SOL     OW39453   4.847   6.034   4.784 -0.5668 -0.3284 -0.0887
12746SOL    HW139454   4.920   5.974   4.773  0.9032  1.1943  0.9715
12746SOL    HW239455   4.821   6.025   4.876 -1.9011 -0.9962 -0.4926
12747SOL     OW39456   5.266   5.137   4.768 -0.1337  0.0355 -0.0782
12747SOL    HW139457   5.229   5.131   4.680 -1.0984  0.7681  0.2579
12747SOL    HW239458   5.191   5.149   4.826  0.6063  2.2716  0.5537
12748SOL     OW39459   3.361   6.615   3.822 -0.0121  0.3028 -0.4967
12748SOL    HW139460   3.282   6.563   3.828 -0.6114  1.0142 -1.6771
12748SOL    HW239461   3.368   6.660   3.906 -2.0733  1.8557 -1.0671
12749SOL     OW39462   3.877   7.093   4.386 -0.2446  0.1745  0.1265
12749SOL    HW139463   3.833   7.064   4.466  0.5739  0.0026  0.5241
12749SOL    HW239464   3.829   7.171   4.359 -1.4964 -0.6388 -0.0869
12750SOL     OW39465   4.337   6.848   4.101 -0.2591  0.3603 -0.0317
12750SOL    HW139466   4.291   6.929   4.124  0.1748  0.6860 -0.2955
12750SOL    HW239467   4.270   6.792   4.064 -0.6520  0.4328  0.5601
12751SOL     OW39468   4.824   6.255   4.406  0.4009  0.2153  0.1204
12751SOL    HW139469   4.874   6.176   4.387 -0.8571 -0.1788 -1.8763
12751SOL    HW239470   4.889   6.324   4.415  1.4353 -0.7731  0.4013
12752SOL     OW39471   3.931   6.238   4.781 -0.0196  0.5914  0.1894
12752SOL    HW139472   3.847   6.194   4.768  1.0222 -1.1590 -1.1157
12752SOL    HW239473   3.925   6.277   4.868 -2.0247  0.1613  0.2917
12753SOL     OW39474   4.353   6.161   5.404  0.3097 -0.0194 -0.1159
12753SOL    HW139475   4.300   6.087   5.377  0.5333 -0.4399  0.5492
12753SOL    HW239476   4.384   6.137   5.492  0.6368  0.7251 -0.0182
12754SOL     OW39477   4.791   6.645   5.213 -0.4693  0.0182 -0.3365
12754SOL    HW139478   4.742   6.567   5.186 -0.5067 -0.3267  0.7136
12754SOL    HW239479   4.879   6.630   5.178 -0.2607 -0.8775  0.5394
12755SOL     OW39480   4.885   6.357   4.015  0.0698 -0.2236  0.4716
12755SOL    HW139481   4.905   6.278   3.965  0.1303  0.8172 -1.2379
12755SOL    HW239482   4.790   6.367   4.008  0.2703  1.0520 -1.3497
12756SOL     OW39483   5.651   6.016   4.913 -0.2292 -0.3306 -0.5888
12756SOL    HW139484   5.580   6.016   4.977  0.6147  1.6849  0.4395
12756SOL    HW239485   5.623   5.954   4.846 -2.4811 -0.3336  0.2774
12757SOL     OW39486   3.739   7.264   5.289 -0.4833 -0.2588  0.2239
12757SOL    HW139487   3.773   7.201   5.352  1.4229  0.1332 -0.3530
12757SOL    HW239488   3.810   7.326   5.276 -1.2245  0.2934 -1.4998
12758SOL     OW39489   4.519   6.105   4.811  0.4213  0.0020  0.3027
12758SOL    HW139490   4.523   6.172   4.743 -1.3522 -0.0605  0.0747
12758SOL    HW239491   4.577   6.137   4.880  0.4715  1.2178 -0.2727
12759SOL     OW39492   4.513   7.232   5.031 -0.0740 -0.3265  0.2424
12759SOL    HW139493   4.458   7.154   5.037  0.0636 -0.4387  0.0416
12759SOL    HW239494   4.494   7.268   4.944 -0.8811  0.4176  0.7110
12760SOL     OW39495   4.553   6.135   3.870 -0.2749 -0.1957 -1.0551
12760SOL    HW139496   4.596   6.145   3.955  1.1998  1.2862 -1.9147
12760SOL    HW239497   4.478   6.078   3.887  1.0557 -1.4784  0.8498
12761SOL     OW39498   3.784   6.278   5.028 -0.2583 -0.2455  0.6525
12761SOL    HW139499   3.858   6.218   5.043  0.1491  0.3559  1.0948
12761SOL    HW239500   3.710   6.235   5.070 -0.2378 -0.9991 -0.0459
12762SOL     OW39501   4.847   6.379   4.914  0.3686  0.1307 -0.2231
12762SOL    HW139502   4.798   6.339   4.842 -0.3937  1.4820 -0.4870
12762SOL    HW239503   4.937   6.386   4.881  0.5374 -1.3455 -0.1568
12763SOL     OW39504   5.457   6.043   3.897  0.1191 -0.6056 -0.2082
12763SOL    HW139505   5.395   5.989   3.946 -0.6307 -0.2269 -0.7114
12763SOL    HW239506   5.449   6.013   3.807 -3.0102  2.6142 -1.2283
12764SOL     OW39507   5.550   7.302   4.850 -0.3394  0.2508  0.1061
12764SOL    HW139508   5.631   7.317   4.897  0.1452  1.4849 -1.0591
12764SOL    HW239509   5.529   7.210   4.867  2.4543 -0.7572 -1.2358
12765SOL     OW39510   4.815   7.301   4.384  0.0032  0.2614 -0.6143
12765SOL    HW139511   4.889   7.347   4.423  1.1371 -1.1744 -0.9954
12765SOL    HW239512   4.845   7.277   4.296 -0.3924 -1.4942 -0.3067
12766SOL     OW39513   3.676   6.487   4.804  0.1070  0.1985  0.0623
12766SOL    HW139514   3.682   6.415   4.867 -1.7778 -0.6790 -0.6888
12766SOL    HW239515   3.762   6.529   4.807  0.3905 -0.4036  2.4878
12767SOL     OW39516   4.331   7.052   5.032 -0.0975 -0.4818  0.0733
12767SOL    HW139517   4.386   6.991   5.081  0.7768  2.1048  2.5938
12767SOL    HW239518   4.246   7.047   5.074  0.0495  0.1830  0.4625
12768SOL     OW39519   5.378   5.408   4.471 -0.2810 -0.2069  0.1178
12768SOL    HW139520   5.284   5.391   4.471 -0.3386  0.0191 -1.0323
12768SOL    HW239521   5.414   5.344   4.532 -1.0603 -1.0196 -0.2470
12769SOL     OW39522   4.999   6.589   4.080  0.3594 -0.4928  0.1172
12769SOL    HW139523   4.949   6.515   4.044 -0.5648  0.4740 -0.6263
12769SOL    HW239524   5.027   6.639   4.003 -2.4961  2.1735  0.6299
12770SOL     OW39525   3.853   7.541   5.300  0.4014  0.4918  0.0013
12770SOL    HW139526   3.779   7.600   5.284  0.4570  0.3701 -0.7551
12770SOL    HW239527   3.855   7.530   5.395 -0.0538  1.1368  0.0939
12771SOL     OW39528   5.279   6.304   4.453  0.2002  0.1466  0.1634
12771SOL    HW139529   5.363   6.261   4.470  0.6760  1.3964  1.1456
12771SOL    HW239530   5.216   6.254   4.504  0.5150 -0.2054  0.2164
12772SOL     OW39531   4.139   7.084   5.217 -0.9714  0.1372  0.1988
12772SOL    HW139532   4.126   7.028   5.293 -0.5520 -0.6931 -0.3194
12772SOL    HW239533   4.108   7.170   5.244  0.5762  0.2431  1.8208
12773SOL     OW39534   4.078   7.391   3.973 -0.4341  0.2409  0.3525
12773SOL    HW139535   4.070   7.423   3.884  0.2542  0.5019  0.3705
12773SOL    HW239536   3.989   7.391   4.008 -0.5662  1.2918  0.0542
12774SOL     OW39537   5.115   7.290   5.295  0.0306 -0.7546  0.0001
12774SOL    HW139538   5.050   7.238   5.247 -0.8232 -0.4570  0.7921
12774SOL    HW239539   5.104   7.264   5.387  0.4330 -0.0696  0.2550
12775SOL     OW39540   5.424   5.681   5.070  0.2648  0.1567  0.3354
12775SOL    HW139541   5.487   5.613   5.047 -1.6147 -1.2770 -0.9200
12775SOL    HW239542   5.347   5.634   5.101 -1.3830  1.6134 -1.2574
12776SOL     OW39543   4.020   6.084   4.297 -1.2210  0.2268 -0.3219
12776SOL    HW139544   4.008   6.071   4.391  1.3066  0.8228  0.1668
12776SOL    HW239545   4.105   6.044   4.279 -0.4669  2.3698 -1.8158
12777SOL     OW39546   5.007   6.693   3.822 -0.2289 -0.8751 -0.3719
12777SOL    HW139547   5.053   6.776   3.812 -0.8814 -0.5336 -0.5937
12777SOL    HW239548   4.926   6.704   3.773  0.1687 -2.0386 -1.3305
12778SOL     OW39549   4.265   6.734   5.062 -0.4143 -0.1187 -0.4428
12778SOL    HW139550   4.342   6.791   5.067  1.1104 -1.9889 -1.0489
12778SOL    HW239551   4.251   6.719   4.969  0.3388 -2.0563 -0.3028
12779SOL     OW39552   4.723   6.602   4.393 -0.5433 -0.3345  0.1037
12779SOL    HW139553   4.738   6.664   4.464 -1.0656 -2.0412  1.7991
12779SOL    HW239554   4.662   6.646   4.334 -0.6575  0.8731  1.0867
12780SOL     OW39555   5.172   7.086   3.479  0.6118  0.0555 -0.1541
12780SOL    HW139556   5.112   7.122   3.413 -1.2515 -1.5981  0.5589
12780SOL    HW239557   5.191   6.998   3.448  1.3467 -0.0292  0.5183
12781SOL     OW39558   4.000   6.464   5.100 -0.7119 -0.2040  0.6413
12781SOL    HW139559   4.037   6.376   5.099 -1.5644 -0.5738 -0.0015
12781SOL    HW239560   3.925   6.459   5.041  0.4521  1.4853 -1.1006
12782SOL     OW39561   5.267   6.787   4.945  0.2765  0.4227  0.4846
12782SOL    HW139562   5.285   6.701   4.982  0.4608  0.5997  0.8080
12782SOL    HW239563   5.180   6.779   4.906  0.2904  0.0937  0.5177
12783SOL     OW39564   5.087   6.305   4.221  0.1428  0.4986  0.1991
12783SOL    HW139565   5.152   6.368   4.192 -0.9482  1.2326 -0.7213
12783SOL    HW239566   5.012   6.318   4.163 -0.3972 -1.1302  0.4695
12784SOL     OW39567   4.276   5.990   4.305 -0.3296  0.0574 -0.1434
12784SOL    HW139568   4.242   5.901   4.313 -0.9120  0.2882 -0.0245
12784SOL    HW239569   4.339   5.985   4.232  1.0598 -0.8627  1.0538
12785SOL     OW39570   4.490   6.779   4.320 -0.1477  0.0533 -0.0951
12785SOL    HW139571   4.446   6.810   4.241  0.9195  0.9765 -0.3434
12785SOL    HW239572   4.448   6.826   4.391 -0.7197 -0.3549 -0.1515
12786SOL     OW39573   5.911   5.820   5.088  0.4856  0.2877  0.4366
12786SOL    HW139574   5.925   5.728   5.111  1.0491  0.0119 -0.9237
12786SOL    HW239575   5.944   5.828   4.999 -1.1115  1.4229 -0.1075
12787SOL     OW39576   3.743   6.821   4.317 -0.1189 -0.1599  0.6714
12787SOL    HW139577   3.771   6.894   4.372 -0.3133  1.2334 -0.9611
12787SOL    HW239578   3.739   6.746   4.376  0.1885  1.1189  2.4107
12788SOL     OW39579   4.254   6.387   5.268  0.4957 -0.8136  0.3146
12788SOL    HW139580   4.271   6.312   5.325  1.0999 -0.8022  0.1547
12788SOL    HW239581   4.260   6.352   5.179  0.4045 -0.6532  0.2450
12789SOL     OW39582   4.543   5.932   5.173 -0.1116  0.2605 -0.0842
12789SOL    HW139583   4.585   5.848   5.159 -1.4572 -0.7925  1.8318
12789SOL    HW239584   4.604   5.981   5.228  0.1149  0.0323 -0.1329
12790SOL     OW39585   3.075   5.796   3.966 -0.2269  0.1403  0.0753
12790SOL    HW139586   3.054   5.757   3.882 -0.4447  0.1331  0.1321
12790SOL    HW239587   3.038   5.735   4.031  0.9724 -0.4653  0.2052
12791SOL     OW39588   4.948   6.753   4.883 -0.2084  0.4648 -0.1041
12791SOL    HW139589   4.980   6.719   4.800  0.1052  0.3702  0.0505
12791SOL    HW239590   4.935   6.676   4.938 -0.5513  0.5165 -0.1109
12792SOL     OW39591   3.770   5.493   3.882  0.2868  0.0171 -0.0046
12792SOL    HW139592   3.850   5.512   3.833 -0.1890  0.6643 -0.5550
12792SOL    HW239593   3.700   5.535   3.832 -0.5221 -1.2624 -0.0021
12793SOL     OW39594   5.195   6.862   3.289  0.4453 -0.1959  0.1571
12793SOL    HW139595   5.113   6.811   3.295  0.2374  0.0790 -0.3154
12793SOL    HW239596   5.197   6.892   3.198  1.4521 -0.8296 -0.0393
12794SOL     OW39597   4.474   6.496   4.823  0.4737 -0.0488  0.0474
12794SOL    HW139598   4.522   6.517   4.903  1.5807  1.9090 -1.0417
12794SOL    HW239599   4.533   6.440   4.773  1.2710  1.5412 -0.8552
12795SOL     OW39600   5.285   7.213   4.044  0.0771 -0.5350  0.0434
12795SOL    HW139601   5.190   7.203   4.041  0.1051 -0.7440 -0.1798
12795SOL    HW239602   5.305   7.226   4.136 -0.1836 -0.3388  0.0757
12796SOL     OW39603   4.436   6.110   5.702 -0.0625  0.1420 -0.4911
12796SOL    HW139604   4.486   6.191   5.714 -0.0580  0.2615 -1.2526
12796SOL    HW239605   4.458   6.057   5.779  0.5277  0.5602 -0.3608
12797SOL     OW39606   5.010   7.023   4.799 -0.4036  0.1120  0.0079
12797SOL    HW139607   4.993   6.929   4.788  0.0275  0.0535 -0.1627
12797SOL    HW239608   4.964   7.065   4.727 -0.3272  0.0045 -0.1023
12798SOL     OW39609   4.261   7.109   5.944 -0.4218  0.3218  0.2074
12798SOL    HW139610   4.262   7.049   6.018 -0.3238  0.6009  0.4381
12798SOL    HW239611   4.334   7.170   5.962  0.2795 -0.2417 -0.6446
12799SOL     OW39612   5.824   6.438   4.864 -0.1591 -0.1874  0.3494
12799SOL    HW139613   5.827   6.348   4.833  1.5500 -0.4804  1.2525
12799SOL    HW239614   5.747   6.442   4.921  0.2425 -1.3192  0.9951
12800SOL     OW39615   4.936   6.105   3.837 -0.2022  0.0977 -0.1658
12800SOL    HW139616   4.851   6.076   3.869 -0.7040 -0.0315 -1.5265
12800SOL    HW239617   4.980   6.024   3.811  0.0944  0.2129 -0.0198
12801SOL     OW39618   4.640   6.439   4.171  0.4354  0.5458 -0.0853
12801SOL    HW139619   4.703   6.426   4.243  0.9043 -1.8643 -0.8281
12801SOL    HW239620   4.555   6.443   4.215  0.6335 -1.6632  0.6350
12802SOL     OW39621   4.845   5.861   5.027  0.0670 -0.1564  0.3181
12802SOL    HW139622   4.821   5.816   4.946  1.9395 -1.4370  0.3977
12802SOL    HW239623   4.824   5.799   5.096 -0.7217  0.5846  0.7588
12803SOL     OW39624   5.365   6.555   5.025 -0.2724 -0.3492  0.0099
12803SOL    HW139625   5.414   6.591   5.099 -1.5803  1.8804 -0.1436
12803SOL    HW239626   5.355   6.462   5.046  1.5652 -0.3055  1.3614
12804SOL     OW39627   4.694   6.604   3.922 -0.0519 -0.4676  0.2943
12804SOL    HW139628   4.665   6.559   4.001 -2.2408 -2.8353 -1.6558
12804SOL    HW239629   4.629   6.673   3.909  0.4554  0.0858  0.7004
12805SOL     OW39630   4.545   7.382   4.286 -0.2664 -0.3044  0.2446
12805SOL    HW139631   4.530   7.456   4.227  0.8236  1.0273  1.5751
12805SOL    HW239632   4.640   7.375   4.291 -0.2656 -3.1966 -1.4765
12806SOL     OW39633   4.710   6.864   4.593 -0.3023 -0.7729 -0.7373
12806SOL    HW139634   4.699   6.911   4.676  0.0780  1.9954 -2.1167
12806SOL    HW239635   4.624   6.868   4.551  0.3347  1.2336 -2.0159
12807SOL     OW39636   4.607   6.376   3.717 -0.1139  0.5285 -0.6890
12807SOL    HW139637   4.525   6.423   3.732 -0.9179 -1.4128  1.6324
12807SOL    HW239638   4.592   6.289   3.754  3.4588  0.5460  1.2441
12808SOL     OW39639   5.251   6.833   4.318 -0.7556  0.6524  0.1009
12808SOL    HW139640   5.295   6.859   4.398 -0.4561  0.0780  0.1280
12808SOL    HW239641   5.160   6.820   4.343 -0.3435 -1.2180  0.7449
12809SOL     OW39642   3.826   6.235   5.357 -0.1046  0.0655 -0.0356
12809SOL    HW139643   3.786   6.255   5.272  0.6311  0.4956 -0.3024
12809SOL    HW239644   3.774   6.164   5.393 -1.6964  1.2356  0.0883
12810SOL     OW39645   3.717   6.650   4.526 -0.5829  0.0367 -0.0840
12810SOL    HW139646   3.741   6.674   4.615 -0.7100  1.8874 -0.5114
12810SOL    HW239647   3.741   6.558   4.519  0.4659  0.1485  1.5065
12811SOL     OW39648   3.973   7.087   4.987 -0.4545 -0.5060  0.5295
12811SOL    HW139649   3.978   7.175   4.951 -1.6068 -0.3269  0.7863
12811SOL    HW239650   3.999   7.097   5.079  2.6424 -0.9873 -0.1614
12812SOL     OW39651   5.593   5.454   5.074  0.0890 -0.1913 -0.2446
12812SOL    HW139652   5.558   5.387   5.015  0.7213 -1.8539  1.1777
12812SOL    HW239653   5.685   5.430   5.087  0.2298  0.7237  0.6236
12813SOL     OW39654   3.546   5.872   4.407 -0.4196 -0.1109 -0.1698
12813SOL    HW139655   3.540   5.962   4.375  0.4269  0.5024  1.2923
12813SOL    HW239656   3.596   5.826   4.340  0.1801  0.8068 -0.3746
12814SOL     OW39657   5.454   7.284   4.327 -0.1581  0.3104 -0.2640
12814SOL    HW139658   5.455   7.199   4.371  0.2408  1.3143  1.7667
12814SOL    HW239659   5.407   7.342   4.387  0.1755  1.6969 -1.2930
12815SOL     OW39660   4.527   6.826   3.873  0.0077 -0.7230 -0.9086
12815SOL    HW139661   4.494   6.855   3.958 -0.0602 -1.5914 -0.6312
12815SOL    HW239662   4.487   6.887   3.810 -1.2430 -1.0541 -0.4698
12816SOL     OW39663   5.023   5.813   4.726  0.3912  0.1029 -0.7275
12816SOL    HW139664   5.091   5.800   4.793 -0.9361  1.1025  0.9075
12816SOL    HW239665   4.952   5.755   4.753 -0.9776  2.0109 -0.0149
12817SOL     OW39666   4.912   6.934   4.394 -0.3634  0.0984  0.7072
12817SOL    HW139667   4.933   6.850   4.353 -1.3094  0.4609 -0.5955
12817SOL    HW239668   4.837   6.914   4.450 -0.5429  0.0444  0.4527
12818SOL     OW39669   4.274   7.142   4.247  0.2024  0.0909 -0.3043
12818SOL    HW139670   4.362   7.129   4.283  0.5642 -1.8075 -1.7081
12818SOL    HW239671   4.288   7.192   4.167 -0.4140  2.6538  1.0673
12819SOL     OW39672   5.094   5.571   3.879 -0.1077  0.4477 -0.0969
12819SOL    HW139673   5.070   5.616   3.960  1.6437  0.7130  0.3320
12819SOL    HW239674   5.184   5.542   3.894 -0.0917 -0.3785 -1.5879
12820SOL     OW39675   5.502   5.653   4.382 -0.2789 -0.1102  0.4616
12820SOL    HW139676   5.441   5.669   4.454 -2.6439 -0.9054 -1.2210
12820SOL    HW239677   5.492   5.559   4.364 -0.5984  0.2645 -1.5464
12821SOL     OW39678   5.274   5.868   4.873  0.5566 -0.8760 -0.2044
12821SOL    HW139679   5.235   5.791   4.915  1.1701 -1.7468 -1.1738
12821SOL    HW239680   5.351   5.888   4.926  1.9623 -2.6447 -1.4181
12822SOL     OW39681   3.538   6.332   4.644 -0.0738 -0.0332 -0.4310
12822SOL    HW139682   3.571   6.413   4.685 -0.1890 -0.6804  1.0179
12822SOL    HW239683   3.616   6.288   4.611  0.0770  0.2927 -0.5167
12823SOL     OW39684   4.480   7.288   3.797  0.2540 -0.2511 -0.0335
12823SOL    HW139685   4.490   7.310   3.704 -0.5921 -0.0730 -0.0832
12823SOL    HW239686   4.545   7.344   3.841  0.1344  0.2222 -0.4450
12824SOL     OW39687   3.898   6.233   5.852  0.1762 -0.3073  0.0055
12824SOL    HW139688   3.987   6.206   5.828  1.0282  2.8870 -0.9410
12824SOL    HW239689   3.846   6.220   5.772  0.0166 -1.2304  0.2524
12825SOL     OW39690   3.404   5.684   6.439  0.5144 -0.1544 -0.0005
12825SOL    HW139691   3.467   5.748   6.407 -0.2175  0.1748 -0.8561
12825SOL    HW239692   3.443   5.599   6.418  0.7752  0.0444 -0.3250
12826SOL     OW39693   3.952   5.932   6.138 -0.6211  0.8534  0.3832
12826SOL    HW139694   4.005   5.905   6.212 -1.0463  2.1085  1.1684
12826SOL    HW239695   3.924   5.850   6.097  0.0538  0.1576  1.2942
12827SOL     OW39696   4.445   6.942   6.468  0.4697  0.0654  0.4189
12827SOL    HW139697   4.383   7.015   6.473  0.2135 -0.2183  2.4110
12827SOL    HW239698   4.391   6.864   6.464  0.6952 -0.1122  0.7129
12828SOL     OW39699   5.408   6.762   6.423 -0.3602 -0.5149 -0.1851
12828SOL    HW139700   5.314   6.776   6.415 -0.6509 -1.5176  1.1011
12828SOL    HW239701   5.439   6.757   6.333 -1.7112 -1.1767 -0.6431
12829SOL     OW39702   4.973   5.842   5.644  0.2460  0.0836 -0.5555
12829SOL    HW139703   5.051   5.794   5.615  0.1616 -0.0593 -0.5452
12829SOL    HW239704   4.912   5.836   5.571 -0.7848 -2.0690  0.3955
12830SOL     OW39705   5.683   5.918   5.976 -0.0079  0.3739  0.2035
12830SOL    HW139706   5.760   5.872   5.942 -0.0243  0.8428 -0.4930
12830SOL    HW239707   5.680   5.895   6.068  3.0607  3.1019  1.1700
12831SOL     OW39708   4.159   6.711   6.919 -0.2709 -0.2918  0.1687
12831SOL    HW139709   4.099   6.709   6.993 -0.7512  1.1373 -0.1457
12831SOL    HW239710   4.104   6.728   6.843  0.4019 -0.1295 -0.2941
12832SOL     OW39711   4.948   6.504   7.324  0.4247  0.1963 -0.0458
12832SOL    HW139712   5.008   6.509   7.250  0.0842  0.0706 -0.3379
12832SOL    HW239713   4.892   6.429   7.304 -0.0618  0.5299  0.0379
12833SOL     OW39714   4.883   6.694   5.639  0.9059 -1.5762 -0.3255
12833SOL    HW139715   4.898   6.671   5.731  0.8964  0.4966  0.2485
12833SOL    HW239716   4.910   6.786   5.633 -2.7990 -0.4125 -1.4209
12834SOL     OW39717   4.198   6.846   7.798 -0.3914  0.4170 -0.2108
12834SOL    HW139718   4.220   6.853   7.890  1.6860  2.0144 -0.7501
12834SOL    HW239719   4.276   6.877   7.752 -0.7928 -1.7146 -2.5663
12835SOL     OW39720   4.347   7.285   6.809  0.3027  0.1835  0.0122
12835SOL    HW139721   4.289   7.211   6.795  1.3237 -0.4758 -0.8749
12835SOL    HW239722   4.336   7.340   6.731  0.4541  0.3395  0.0984
12836SOL     OW39723   5.073   7.225   6.788  0.3001  0.0290  0.2265
12836SOL    HW139724   5.091   7.143   6.833  0.0946  0.4672  1.1169
12836SOL    HW239725   4.988   7.212   6.746  0.3342 -0.2537  0.2438
12837SOL     OW39726   3.717   5.814   7.023 -0.8245  0.0467 -0.0136
12837SOL    HW139727   3.777   5.854   6.960 -1.1207  1.5697  0.6128
12837SOL    HW239728   3.774   5.774   7.088 -0.5199 -1.2652 -1.0628
12838SOL     OW39729   4.952   6.125   5.709 -0.4103 -0.6602  0.5433
12838SOL    HW139730   4.939   6.032   5.692 -1.4967 -0.6588  1.2885
12838SOL    HW239731   4.905   6.142   5.791  0.6621  0.3242  0.9949
12839SOL     OW39732   3.934   7.216   5.984 -0.1536  0.4843  0.3294
12839SOL    HW139733   3.940   7.128   6.020 -1.4901  0.5501  0.7663
12839SOL    HW239734   3.972   7.209   5.897  0.0918 -0.4330  0.4984
12840SOL     OW39735   4.649   6.935   6.858 -0.0735  0.1518  0.0403
12840SOL    HW139736   4.589   6.891   6.919  4.7864 -4.5737  2.2733
12840SOL    HW239737   4.651   6.879   6.781 -1.0593  2.3266 -1.6729
12841SOL     OW39738   3.962   6.961   6.059  0.3937 -0.2000 -0.4786
12841SOL    HW139739   4.046   6.924   6.086  0.7640 -0.5315 -1.9838
12841SOL    HW239740   3.896   6.909   6.105  0.9945  0.3155  1.0204
12842SOL     OW39741   3.998   6.255   6.635  0.0630  0.6529 -0.5445
12842SOL    HW139742   4.051   6.313   6.690  0.8246  1.5776 -2.1893
12842SOL    HW239743   4.060   6.217   6.573 -0.8452  0.0173 -1.0853
12843SOL     OW39744   4.373   7.372   7.173 -0.1230 -0.3568 -0.0854
12843SOL    HW139745   4.439   7.314   7.133 -0.2430 -1.5120  1.3409
12843SOL    HW239746   4.418   7.412   7.247 -0.1969  1.0558 -0.7632
12844SOL     OW39747   4.568   6.925   5.891  0.1718  0.4913 -0.0264
12844SOL    HW139748   4.518   6.994   5.934  1.4624  1.0205  0.6769
12844SOL    HW239749   4.653   6.924   5.936  0.5034 -0.9602 -0.6058
12845SOL     OW39750   5.199   5.519   6.149 -0.0230 -0.8207  0.0165
12845SOL    HW139751   5.252   5.440   6.145  0.1715 -0.7254  0.6081
12845SOL    HW239752   5.241   5.573   6.216 -0.4750 -0.4522  0.0106
12846SOL     OW39753   3.821   6.126   6.286  0.4064 -0.2899 -0.5509
12846SOL    HW139754   3.728   6.115   6.269  0.5454 -0.8150 -1.0138
12846SOL    HW239755   3.864   6.079   6.215  1.0222 -0.5987  0.0093
12847SOL     OW39756   5.097   7.444   5.602  0.0800 -0.4273 -0.5383
12847SOL    HW139757   5.192   7.434   5.599  0.0331 -0.6504 -2.8298
12847SOL    HW239758   5.077   7.508   5.534 -1.4120 -0.2166  0.0474
12848SOL     OW39759   3.913   6.792   5.287  0.3234 -0.0515 -0.0689
12848SOL    HW139760   3.920   6.708   5.333  1.6039 -0.7066 -1.3763
12848SOL    HW239761   3.851   6.843   5.339 -0.1460 -1.6427  0.9997
12849SOL     OW39762   4.985   6.097   6.443 -0.4944  0.6526 -0.6947
12849SOL    HW139763   4.893   6.100   6.465 -0.9307 -0.2289 -2.2406
12849SOL    HW239764   5.031   6.088   6.527 -1.7901  1.1219  0.0817
12850SOL     OW39765   5.477   6.493   6.192  0.0141  0.3680 -0.1750
12850SOL    HW139766   5.528   6.456   6.264  0.7821 -2.0007 -1.8094
12850SOL    HW239767   5.472   6.586   6.212  1.9195  0.1247  1.9029
12851SOL     OW39768   4.508   6.590   7.452  0.3813  0.2843  0.5502
12851SOL    HW139769   4.576   6.650   7.484 -0.5816  0.7295  1.8644
12851SOL    HW239770   4.493   6.530   7.526 -0.0501 -0.3526 -0.0432
12852SOL     OW39771   4.241   6.360   5.985  0.3037 -0.1023  0.0274
12852SOL    HW139772   4.154   6.396   5.970 -0.2077 -0.6198  1.5864
12852SOL    HW239773   4.226   6.267   6.004  1.1742 -0.1757  0.4423
12853SOL     OW39774   5.076   6.976   6.917 -0.2367  0.0308 -0.0134
12853SOL    HW139775   5.067   6.911   6.847  1.5713 -0.4412  0.1346
12853SOL    HW239776   5.155   6.949   6.965  0.9794  2.6686 -0.3334
12854SOL     OW39777   3.617   6.655   6.812  0.1531 -0.0219 -0.0368
12854SOL    HW139778   3.557   6.723   6.781 -0.3884 -0.1972  0.6108
12854SOL    HW239779   3.688   6.656   6.748 -0.7368 -0.0898 -1.0798
12855SOL     OW39780   5.385   6.414   5.942 -0.0617 -0.6926 -0.2404
12855SOL    HW139781   5.302   6.367   5.955 -1.4796  1.6054 -0.4011
12855SOL    HW239782   5.403   6.455   6.027  0.2578 -0.2039 -0.5385
12856SOL     OW39783   4.891   7.280   7.649 -0.3578 -0.0547  0.6558
12856SOL    HW139784   4.811   7.317   7.610  0.3835  2.7317  1.5156
12856SOL    HW239785   4.953   7.275   7.576 -1.0721 -1.6276  0.1157
12857SOL     OW39786   4.309   6.123   7.049  0.5349  0.3041  0.5037
12857SOL    HW139787   4.246   6.193   7.028  1.6619  1.3806  0.6114
12857SOL    HW239788   4.382   6.138   6.990  1.7316  0.5407  1.9836
12858SOL     OW39789   4.796   6.652   5.957  0.2043 -0.1249 -0.6682
12858SOL    HW139790   4.813   6.739   5.995  0.8542 -0.9096  0.9323
12858SOL    HW239791   4.805   6.592   6.031  0.4699 -1.6412 -1.8938
12859SOL     OW39792   5.285   7.641   5.809  0.9747 -0.0234  0.4709
12859SOL    HW139793   5.293   7.714   5.747 -0.0586 -1.5007 -1.5193
12859SOL    HW239794   5.196   7.647   5.842  0.5476 -0.8786 -0.4484
12860SOL     OW39795   4.164   6.155   5.700 -0.7706 -0.1589  0.1149
12860SOL    HW139796   4.248   6.111   5.714 -0.4822  0.1313 -0.6203
12860SOL    HW239797   4.132   6.118   5.617 -1.8482 -0.9915  0.8827
12861SOL     OW39798   4.729   6.022   6.588  0.0094  0.2968  0.0857
12861SOL    HW139799   4.659   6.079   6.620  1.1905  1.1629  1.1715
12861SOL    HW239800   4.683   5.957   6.534 -1.7672  0.2450  1.5552
12862SOL     OW39801   5.377   6.921   5.827 -0.7129  0.1857  0.1091
12862SOL    HW139802   5.292   6.955   5.856 -0.1527  0.9884  0.8326
12862SOL    HW239803   5.357   6.833   5.794 -1.8827  0.5120 -0.0770
12863SOL     OW39804   4.716   6.232   7.129 -0.2060 -0.0020  0.0080
12863SOL    HW139805   4.629   6.218   7.164 -0.7475 -1.1491 -1.6635
12863SOL    HW239806   4.715   6.322   7.095 -1.4492 -0.6312 -1.7788
12864SOL     OW39807   4.877   6.189   7.333 -0.4028  0.1593  0.4349
12864SOL    HW139808   4.836   6.209   7.249 -0.6642 -0.5810  0.3720
12864SOL    HW239809   4.805   6.155   7.387  0.2446 -2.0722  0.0079
12865SOL     OW39810   4.751   6.773   7.231  0.2269  0.1599 -0.2029
12865SOL    HW139811   4.677   6.825   7.260  0.7199  0.5604  0.3623
12865SOL    HW239812   4.802   6.757   7.311  0.9782  0.2669 -0.6523
12866SOL     OW39813   4.768   5.613   6.718  0.4663  0.4796  0.1000
12866SOL    HW139814   4.789   5.520   6.711  0.9518  0.4213  1.8017
12866SOL    HW239815   4.698   5.627   6.654 -0.5236 -1.3421  0.7130
12867SOL     OW39816   4.738   6.250   5.545 -0.2875 -0.2391 -0.4070
12867SOL    HW139817   4.807   6.227   5.607 -0.0678 -0.4333 -0.7186
12867SOL    HW239818   4.757   6.197   5.467 -0.2229  0.4191 -0.8497
12868SOL     OW39819   3.201   5.901   6.807  0.1278 -0.4441 -0.0723
12868SOL    HW139820   3.120   5.879   6.853  0.7030 -1.4870  0.4863
12868SOL    HW239821   3.235   5.817   6.776  0.8152  0.0149 -0.6092
12869SOL     OW39822   3.966   7.283   7.747  0.2689  0.6210  0.9549
12869SOL    HW139823   3.999   7.363   7.707 -1.3326  1.5326  1.3522
12869SOL    HW239824   4.032   7.216   7.726  1.0065  1.7415 -0.4722
12870SOL     OW39825   4.717   5.668   6.093 -0.9527  0.2410  0.2504
12870SOL    HW139826   4.689   5.660   6.001 -0.3398 -1.5287  0.1852
12870SOL    HW239827   4.767   5.750   6.095 -0.6065  0.0911 -1.0968
12871SOL     OW39828   5.074   6.195   7.554 -0.1920  0.1029 -0.2735
12871SOL    HW139829   5.054   6.276   7.601 -1.4238 -0.2357 -0.2059
12871SOL    HW239830   5.012   6.193   7.481 -0.9447 -1.3252  0.3654
12872SOL     OW39831   5.135   6.683   6.008 -0.2413 -0.3983  0.1140
12872SOL    HW139832   5.118   6.589   6.010  0.1885 -0.4635  1.1774
12872SOL    HW239833   5.197   6.695   5.936  0.4217 -1.0628  0.5694
12873SOL     OW39834   3.996   5.609   6.325  0.4120 -0.6304  0.1754
12873SOL    HW139835   4.036   5.691   6.353 -1.2864 -0.0439  1.0243
12873SOL    HW239836   3.967   5.626   6.236  0.5395 -0.4913  0.1599
12874SOL     OW39837   4.790   7.230   5.088  0.2631 -0.2565 -0.4121
12874SOL    HW139838   4.746   7.302   5.132  0.9091  1.0320 -1.7813
12874SOL    HW239839   4.720   7.183   5.042 -0.1115 -0.2729  0.1676
12875SOL     OW39840   4.529   7.185   6.013  0.0423  0.6828  0.6882
12875SOL    HW139841   4.602   7.155   6.067  0.5724 -0.4394 -0.5978
12875SOL    HW239842   4.570   7.230   5.940 -0.3473 -1.6832 -1.1228
12876SOL     OW39843   5.027   6.489   6.378  0.2279  0.3627  0.4207
12876SOL    HW139844   5.084   6.429   6.329  0.5013  0.5010  0.5684
12876SOL    HW239845   4.969   6.431   6.428 -0.6799  0.2096 -0.7661
12877SOL     OW39846   4.856   7.122   7.291 -0.2552 -0.2567 -0.5234
12877SOL    HW139847   4.857   7.092   7.200  1.7339 -1.5992 -0.1172
12877SOL    HW239848   4.863   7.217   7.285  2.5382 -0.4527 -1.8157
12878SOL     OW39849   4.682   6.406   5.953  0.4660  0.5886  0.0925
12878SOL    HW139850   4.730   6.480   5.915 -0.9212  1.4532 -0.0425
12878SOL    HW239851   4.602   6.400   5.901 -0.1062 -0.0952  1.0251
12879SOL     OW39852   4.575   6.306   6.177  0.2822 -0.0197 -0.1296
12879SOL    HW139853   4.647   6.246   6.162  0.1057  0.1850 -2.0252
12879SOL    HW239854   4.584   6.373   6.110 -1.2026  0.4620  0.1006
12880SOL     OW39855   4.154   7.077   6.744 -0.1208  0.1654  0.2234
12880SOL    HW139856   4.163   6.988   6.776  0.0572  0.8671  2.2492
12880SOL    HW239857   4.078   7.112   6.791  0.7108  1.5327  0.5979
12881SOL     OW39858   5.203   7.275   5.946 -0.0054  0.4317  0.0802
12881SOL    HW139859   5.216   7.319   6.030 -0.4208 -1.0706  0.9467
12881SOL    HW239860   5.110   7.286   5.927 -0.2991 -0.7875  0.7323
12882SOL     OW39861   3.851   5.907   6.818 -0.3948 -0.1149 -0.4985
12882SOL    HW139862   3.820   5.857   6.742  1.4197 -1.5434 -0.3830
12882SOL    HW239863   3.943   5.883   6.826 -0.2675  0.8519  1.5110
12883SOL     OW39864   5.121   7.003   5.873 -0.4436  0.3853 -0.1716
12883SOL    HW139865   5.112   7.095   5.899  3.1470  1.3359 -1.6469
12883SOL    HW239866   5.098   7.002   5.780  0.5746  0.0474 -0.4329
12884SOL     OW39867   4.385   7.346   6.261  0.3594 -0.2487  0.4605
12884SOL    HW139868   4.343   7.417   6.213  2.2561  0.7145  0.1215
12884SOL    HW239869   4.476   7.374   6.270  0.8962 -2.1186  1.3572
12885SOL     OW39870   5.162   5.623   5.587 -0.3921 -0.1939  0.1138
12885SOL    HW139871   5.122   5.551   5.539  0.0751 -0.7145  0.5018
12885SOL    HW239872   5.169   5.592   5.677 -1.2849  0.7819  0.5505
12886SOL     OW39873   4.071   7.392   6.855  0.4375 -0.0102  0.4269
12886SOL    HW139874   4.039   7.482   6.848 -1.1767 -0.3846  2.2812
12886SOL    HW239875   3.995   7.337   6.840  1.2441 -1.0819  0.0905
12887SOL     OW39876   4.636   7.043   6.281 -0.0784 -0.2651  0.1633
12887SOL    HW139877   4.561   7.089   6.242 -0.2743  0.6753  1.5599
12887SOL    HW239878   4.598   6.994   6.354  0.8467  1.5529  1.9419
12888SOL     OW39879   3.781   6.408   6.055 -0.2050  0.7929  0.3565
12888SOL    HW139880   3.810   6.345   5.988 -3.7377 -1.4402  0.6973
12888SOL    HW239881   3.783   6.359   6.137  0.3173  2.2789  1.2705
12889SOL     OW39882   5.278   5.701   7.122  0.1361  0.3251 -0.4486
12889SOL    HW139883   5.210   5.759   7.156 -0.6078 -0.4748 -0.5461
12889SOL    HW239884   5.239   5.613   7.124  1.4356 -0.2730  0.2469
12890SOL     OW39885   4.416   5.753   5.831 -0.3628  0.5130 -0.8068
12890SOL    HW139886   4.504   5.721   5.808  0.2332  1.8238 -0.4424
12890SOL    HW239887   4.360   5.676   5.822  0.7287 -0.2337 -1.5670
12891SOL     OW39888   4.396   5.750   7.428  0.2197  0.1051  0.3367
12891SOL    HW139889   4.361   5.710   7.507  0.2565 -0.0983  0.2484
12891SOL    HW239890   4.450   5.683   7.387  0.8570  0.4712  0.5569
12892SOL     OW39891   4.539   7.251   6.976 -0.2037  0.2872 -0.1255
12892SOL    HW139892   4.552   7.170   6.927 -0.2292 -0.1914  0.6315
12892SOL    HW239893   4.461   7.290   6.938  0.4971  0.5822 -1.3047
12893SOL     OW39894   5.069   5.926   6.964 -0.8103  0.1290  0.6154
12893SOL    HW139895   5.061   5.895   7.054 -2.6577  1.6151  1.0164
12893SOL    HW239896   5.015   5.865   6.913 -1.5123  0.5336  0.8605
12894SOL     OW39897   4.334   6.701   6.419 -1.0065 -0.3027 -0.7216
12894SOL    HW139898   4.253   6.673   6.461 -0.7695 -0.0430 -0.0886
12894SOL    HW239899   4.323   6.675   6.327 -0.9015 -2.2619 -0.2361
12895SOL     OW39900   4.659   6.035   6.108 -0.5917  0.3572 -0.3505
12895SOL    HW139901   4.658   6.003   6.198  0.0159 -0.8097 -0.7398
12895SOL    HW239902   4.569   6.023   6.077 -0.2750 -1.5907 -0.6620
12896SOL     OW39903   3.985   5.659   6.056  0.5978  0.2918 -0.0347
12896SOL    HW139904   3.993   5.573   6.015 -0.2684  0.6251 -0.9289
12896SOL    HW239905   4.036   5.718   6.000  0.9323  0.4171  0.3999
12897SOL     OW39906   5.260   6.153   5.767  0.7715 -0.3591  0.3405
12897SOL    HW139907   5.246   6.058   5.760  1.7725 -0.4613 -0.5223
12897SOL    HW239908   5.241   6.187   5.680 -1.4523  0.5368  1.1060
12898SOL     OW39909   4.385   5.243   5.550  0.4418 -0.3993  0.2137
12898SOL    HW139910   4.406   5.309   5.616 -4.0625  0.2050  1.3624
12898SOL    HW239911   4.439   5.267   5.474  2.4754  1.6232  2.1560
12899SOL     OW39912   4.443   5.751   6.236 -0.0229  0.4525  0.1808
12899SOL    HW139913   4.390   5.716   6.308 -1.3372 -2.4298 -1.9447
12899SOL    HW239914   4.519   5.692   6.231  0.6767  1.3590 -0.0357
12900SOL     OW39915   4.669   5.880   6.935 -0.0626 -0.4282  0.7624
12900SOL    HW139916   4.717   5.847   7.012  0.9873 -2.4089 -0.6710
12900SOL    HW239917   4.731   5.872   6.863 -1.0454  1.3630 -0.3565
12901SOL     OW39918   4.792   6.924   6.056 -0.2681  0.3249  0.0137
12901SOL    HW139919   4.744   6.965   6.128  0.5883  0.7594  0.3537
12901SOL    HW239920   4.884   6.926   6.085  0.3619  2.2869 -1.9365
12902SOL     OW39921   4.361   7.072   6.216  0.3724  0.3388  0.0099
12902SOL    HW139922   4.284   7.066   6.274  0.6527 -1.4731  0.2536
12902SOL    HW239923   4.383   7.165   6.215 -1.3433  0.7911  0.5736
12903SOL     OW39924   4.874   7.459   6.118 -0.3424  0.0924  0.2575
12903SOL    HW139925   4.862   7.550   6.090 -1.9135  0.2560  1.3319
12903SOL    HW239926   4.952   7.461   6.173 -0.3777  0.8023  0.2930
12904SOL     OW39927   4.489   5.575   5.364 -0.0919 -0.0426 -0.6834
12904SOL    HW139928   4.567   5.562   5.418 -2.4256 -1.2700  2.6711
12904SOL    HW239929   4.477   5.491   5.320  0.3446  0.0960 -1.0808
12905SOL     OW39930   4.010   6.055   7.305  0.8409 -0.3570 -0.3367
12905SOL    HW139931   3.942   6.121   7.307  0.1182 -1.0902  0.0969
12905SOL    HW239932   4.037   6.051   7.213  0.9345  0.5603 -0.3585
12906SOL     OW39933   4.328   5.585   6.457 -0.1549 -0.1099  0.5283
12906SOL    HW139934   4.294   5.495   6.454  0.3589 -0.3024  0.1161
12906SOL    HW239935   4.264   5.634   6.507 -0.4768 -0.6990  0.7027
12907SOL     OW39936   4.383   5.956   6.046  0.6537 -1.0673  0.3973
12907SOL    HW139937   4.389   5.884   5.982  1.1339 -1.1714  0.5560
12907SOL    HW239938   4.373   5.911   6.130 -1.5580 -0.9272  0.2665
12908SOL     OW39939   4.965   5.703   6.260  0.0468 -0.1865 -0.1019
12908SOL    HW139940   4.979   5.629   6.319 -1.7203  1.0084  1.9328
12908SOL    HW239941   4.881   5.682   6.217  1.1911 -0.9249 -2.1046
12909SOL     OW39942   4.819   6.513   6.205  0.9080  0.7847  0.5157
12909SOL    HW139943   4.881   6.536   6.275  1.8354  0.6926 -0.2567
12909SOL    HW239944   4.833   6.420   6.191  0.3854  0.7050  0.5275
12910SOL     OW39945   5.256   5.842   6.539  0.4771 -0.0391  0.0001
12910SOL    HW139946   5.199   5.908   6.579  0.0271 -0.0164 -0.6590
12910SOL    HW239947   5.253   5.768   6.599 -0.2085 -0.0140  0.0061
12911SOL     OW39948   5.711   6.503   5.648  0.1727 -0.8109  0.0594
12911SOL    HW139949   5.768   6.515   5.725  1.1763 -1.7771 -0.4943
12911SOL    HW239950   5.668   6.419   5.663 -1.4934  0.1316  0.6875
12912SOL     OW39951   4.075   6.903   5.580 -0.5436 -0.1140 -0.1087
12912SOL    HW139952   4.045   6.862   5.661  0.0699  1.6964  1.0995
12912SOL    HW239953   4.115   6.831   5.530  0.4805 -1.0250  1.9017
12913SOL     OW39954   5.272   6.808   6.710  0.0334 -0.1775  0.2822
12913SOL    HW139955   5.225   6.866   6.649  0.7983 -0.7108 -0.8590
12913SOL    HW239956   5.354   6.855   6.729 -0.9970  0.8741  2.4715
12914SOL     OW39957   5.303   5.791   5.394  0.7145 -0.0498  0.2281
12914SOL    HW139958   5.268   5.742   5.468 -0.1459  0.0923 -0.0777
12914SOL    HW239959   5.312   5.727   5.324 -2.4078  0.5372 -0.8580
12915SOL     OW39960   4.196   5.786   5.649  0.1863 -0.6206  0.7470
12915SOL    HW139961   4.235   5.701   5.670  0.6016 -0.8717 -0.9090
12915SOL    HW239962   4.247   5.818   5.574  0.5947  1.5044  1.8571
12916SOL     OW39963   5.206   7.090   7.241  0.3078  0.4733 -0.2014
12916SOL    HW139964   5.176   7.000   7.255  1.3447  0.2500  0.6556
12916SOL    HW239965   5.292   7.081   7.201 -0.1461  1.1084 -1.3637
12917SOL     OW39966   4.793   7.340   6.915 -0.3804 -0.1242 -0.2125
12917SOL    HW139967   4.707   7.313   6.947 -1.4937  0.3742 -2.5542
12917SOL    HW239968   4.851   7.268   6.939 -1.5184 -0.6842  1.0221
12918SOL     OW39969   5.322   6.916   7.015 -0.0533  0.4095  0.2777
12918SOL    HW139970   5.373   6.944   6.939 -0.0171  0.7437  0.4252
12918SOL    HW239971   5.317   6.820   7.006  1.4139  0.2663  0.7769
12919SOL     OW39972   4.703   6.759   6.640 -0.6547 -0.5477  0.0632
12919SOL    HW139973   4.686   6.678   6.690 -1.7558 -0.7180 -0.5648
12919SOL    HW239974   4.702   6.731   6.549  1.5926 -0.2767 -0.0986
12920SOL     OW39975   5.294   6.641   6.940 -0.1024  0.2587  0.1106
12920SOL    HW139976   5.357   6.580   6.901 -1.0666 -0.8050  0.1450
12920SOL    HW239977   5.259   6.690   6.866 -0.4901 -0.3689 -0.1279
12921SOL     OW39978   4.330   5.623   6.744  0.1151 -0.3047  0.1189
12921SOL    HW139979   4.358   5.612   6.835  2.0844 -0.2015 -0.4080
12921SOL    HW239980   4.367   5.547   6.698 -0.1049  0.0828 -0.7236
12922SOL     OW39981   4.480   6.140   7.722  0.2015 -0.4212 -0.2961
12922SOL    HW139982   4.521   6.056   7.740  0.4646  0.0155  1.2565
12922SOL    HW239983   4.522   6.201   7.782 -1.3350  0.4240 -0.0275
12923SOL     OW39984   4.484   6.897   5.643 -0.7017 -0.0155 -0.0349
12923SOL    HW139985   4.512   6.928   5.729 -1.5204 -0.3626  0.3680
12923SOL    HW239986   4.438   6.815   5.661  0.3838 -0.8637 -0.9533
12924SOL     OW39987   4.092   6.310   7.076  0.1926  0.0524  0.2426
12924SOL    HW139988   4.087   6.389   7.130  1.3118  0.7351 -0.5952
12924SOL    HW239989   4.059   6.338   6.991  1.2175 -0.1862 -0.2488
12925SOL     OW39990   4.978   5.564   7.001  0.3944 -0.1112 -0.2762
12925SOL    HW139991   4.974   5.598   6.911  1.0104  1.3840  0.2287
12925SOL    HW239992   4.988   5.470   6.990 -1.2294 -0.1706 -1.7564
12926SOL     OW39993   4.176   7.087   6.452 -0.2459  0.1054 -0.0603
12926SOL    HW139994   4.137   7.119   6.534  0.7130 -1.0758  0.8966
12926SOL    HW239995   4.113   7.023   6.419  0.2766 -0.9177  0.8524
12927SOL     OW39996   4.036   6.877   6.402  0.4763 -0.1355 -0.2016
12927SOL    HW139997   4.049   6.782   6.403  0.4296 -0.1597  1.5428
12927SOL    HW239998   3.964   6.891   6.341 -0.0976 -1.3041  0.1857
12928SOL     OW39999   4.574   6.343   6.453  0.1849 -0.1615  0.3090
12928SOL    HW140000   4.592   6.436   6.443 -0.3749  0.0185  0.9237
12928SOL    HW240001   4.565   6.311   6.363 -1.8357  0.8348  0.1053
12929SOL     OW40002   5.135   6.740   6.398 -0.5312 -0.2556  0.1128
12929SOL    HW140003   5.105   6.651   6.383 -1.7669  0.2017 -0.2902
12929SOL    HW240004   5.123   6.784   6.313  2.6452 -0.3513 -0.5380
12930SOL     OW40005   5.062   6.933   6.581  0.8018 -0.3509 -0.0347
12930SOL    HW140006   5.079   6.870   6.511  0.6894  1.5751 -1.8994
12930SOL    HW240007   4.966   6.935   6.587  0.7757  0.1430 -0.5029
12931SOL     OW40008   4.908   6.251   6.211  0.4978 -0.0176  0.1487
12931SOL    HW140009   4.944   6.192   6.277  1.1383 -0.0919 -0.2670
12931SOL    HW240010   4.983   6.280   6.160  0.0171  0.0826 -0.5170
12932SOL     OW40011   4.809   7.089   6.669  0.3586  0.0436 -0.1839
12932SOL    HW140012   4.749   7.095   6.594  0.4397  1.9380 -0.1488
12932SOL    HW240013   4.752   7.075   6.744 -0.5118  4.3411  0.2402
12933SOL     OW40014   4.468   6.268   7.265  0.0963 -0.2845  0.2802
12933SOL    HW140015   4.430   6.279   7.352 -0.1169 -0.2674  0.1838
12933SOL    HW240016   4.427   6.188   7.231 -1.6518  1.0099 -0.7827
12934SOL     OW40017   5.345   6.274   7.119  0.2866  0.0879 -0.5873
12934SOL    HW140018   5.358   6.368   7.107 -1.5999  0.5959  0.8926
12934SOL    HW240019   5.251   6.265   7.135  0.6384 -1.8850  0.6497
12935SOL     OW40020   4.556   6.126   6.897  0.0747 -0.0021  0.2696
12935SOL    HW140021   4.627   6.189   6.888 -0.8240  0.9790 -0.1450
12935SOL    HW240022   4.593   6.055   6.950  0.7223  1.4621  1.8548
12936SOL     OW40023   4.097   5.972   7.568 -0.0161  0.4618  0.0224
12936SOL    HW140024   4.029   6.037   7.586 -0.3848  0.0604  0.0957
12936SOL    HW240025   4.118   5.984   7.476 -3.2479 -2.2000 -1.2899
12937SOL     OW40026   4.617   6.553   6.843  0.2777 -0.6359  0.0888
12937SOL    HW140027   4.561   6.628   6.863  2.1283  0.9484 -0.3703
12937SOL    HW240028   4.649   6.524   6.929 -0.5670 -1.0287  0.2817
12938SOL     OW40029   4.752   6.270   6.746 -0.2692  0.2335  0.5104
12938SOL    HW140030   4.811   6.211   6.698  0.1943 -0.6152  2.0515
12938SOL    HW240031   4.724   6.334   6.681  2.3261  0.6631 -0.3249
12939SOL     OW40032   4.669   5.684   5.133 -0.2216  0.8367 -0.2493
12939SOL    HW140033   4.616   5.672   5.212  0.8060 -1.5078  0.1594
12939SOL    HW240034   4.656   5.603   5.083  1.6440  0.9324 -0.9483
12940SOL     OW40035   3.724   5.795   6.587  0.1164  0.7645 -0.0804
12940SOL    HW140036   3.730   5.701   6.572 -1.6567  0.9148 -2.1999
12940SOL    HW240037   3.721   5.834   6.500 -0.4375  2.6780  0.7257
12941SOL     OW40038   3.970   6.693   7.120 -0.1627 -0.0180  0.2402
12941SOL    HW140039   3.904   6.625   7.108  0.4272 -0.6485  0.4862
12941SOL    HW240040   3.922   6.767   7.158 -1.3015  0.6357 -2.2908
12942SOL     OW40041   4.160   6.107   6.066  0.3404  0.0602  0.7484
12942SOL    HW140042   4.243   6.059   6.068  0.7983  0.7247 -0.7023
12942SOL    HW240043   4.093   6.040   6.075  0.9535 -0.9230 -1.4441
12943SOL     OW40044   5.611   6.164   7.086  0.1507 -0.0868 -0.0575
12943SOL    HW140045   5.535   6.204   7.129  0.3366 -1.1246  1.3177
12943SOL    HW240046   5.597   6.069   7.095  1.3148 -0.3034 -0.3046
12944SOL     OW40047   3.612   5.208   6.096 -0.0076  0.0415 -0.0937
12944SOL    HW140048   3.603   5.122   6.137 -0.0401 -0.3845 -0.9714
12944SOL    HW240049   3.705   5.216   6.077  0.2969  0.9768  1.5940
12945SOL     OW40050   5.110   5.613   5.901 -1.1975  0.4617  0.0457
12945SOL    HW140051   5.070   5.700   5.894 -2.9263 -0.3343 -0.2553
12945SOL    HW240052   5.127   5.603   5.995  0.5726  1.7507 -0.0683
12946SOL     OW40053   4.899   5.837   6.772  0.3277  0.0675  0.1868
12946SOL    HW140054   4.894   5.887   6.691 -2.8563  0.7017  0.6316
12946SOL    HW240055   4.869   5.749   6.748 -0.7754  0.2970  0.6528
12947SOL     OW40056   4.695   6.727   7.569  0.1651  0.4084  0.4236
12947SOL    HW140057   4.763   6.777   7.524  0.4944 -1.0671 -0.8077
12947SOL    HW240058   4.737   6.644   7.593 -1.0182 -0.2879  0.1912
12948SOL     OW40059   5.102   7.246   7.461 -0.2243  0.0019 -0.5399
12948SOL    HW140060   5.083   7.197   7.381 -0.7042 -1.1583  0.2549
12948SOL    HW240061   5.180   7.204   7.498 -0.9418 -0.5285  0.4244
12949SOL     OW40062   4.217   6.287   7.711  0.2831 -0.0386 -0.3456
12949SOL    HW140063   4.243   6.379   7.714 -0.0556  0.0555 -0.2995
12949SOL    HW240064   4.300   6.238   7.713  0.4208  0.2095  1.3621
12950SOL     OW40065   5.616   6.161   5.355 -0.5323 -0.0527  0.1613
12950SOL    HW140066   5.641   6.071   5.375 -0.4102  0.2937  1.6478
12950SOL    HW240067   5.522   6.156   5.337 -0.1663 -0.7711 -1.8077
12951SOL     OW40068   5.072   5.909   5.304 -0.3348  0.2547 -0.4885
12951SOL    HW140069   5.023   5.831   5.280 -0.4472  0.0435  0.3825
12951SOL    HW240070   5.156   5.875   5.336 -0.3677  0.4945 -0.1497
12952SOL     OW40071   4.379   6.564   6.155  0.0357  0.5432  0.7024
12952SOL    HW140072   4.319   6.505   6.108  2.5741 -1.1888 -0.6750
12952SOL    HW240073   4.445   6.505   6.192  0.2961  2.2459  3.1874
12953SOL     OW40074   4.006   6.498   6.270  0.3000 -0.4191 -0.6472
12953SOL    HW140075   3.941   6.466   6.333  1.1109  2.5001  1.9397
12953SOL    HW240076   4.070   6.427   6.265 -1.0347 -1.7380 -0.1667
12954SOL     OW40077   3.612   5.843   6.325  0.3364 -0.2344 -0.3781
12954SOL    HW140078   3.552   5.916   6.306  0.1305 -0.4324 -0.4934
12954SOL    HW240079   3.656   5.826   6.242  2.0810  1.2765  0.1842
12955SOL     OW40080   4.682   5.774   7.211 -0.1238 -0.1932  0.0542
12955SOL    HW140081   4.630   5.701   7.243 -0.9936  0.3999  0.0163
12955SOL    HW240082   4.634   5.852   7.237  0.1549  0.3466 -0.9678
12956SOL     OW40083   4.491   5.668   6.958  0.3615 -0.6130  0.1649
12956SOL    HW140084   4.577   5.629   6.968  0.4323 -0.5325 -0.1282
12956SOL    HW240085   4.507   5.753   6.917 -0.0310 -1.5013 -1.9368
12957SOL     OW40086   3.703   6.707   5.824  0.5176 -0.0974 -0.6024
12957SOL    HW140087   3.765   6.779   5.838  1.0372 -0.9084  1.6081
12957SOL    HW240088   3.757   6.634   5.793  0.2471 -0.0803 -1.1430
12958SOL     OW40089   3.843   7.381   6.303 -0.2738 -0.2006  0.4440
12958SOL    HW140090   3.891   7.377   6.386 -1.0120  1.6772  1.0073
12958SOL    HW240091   3.909   7.362   6.237  0.6584 -0.2972  1.3664
12959SOL     OW40092   4.210   6.860   6.088 -0.0365 -0.0279 -0.2942
12959SOL    HW140093   4.231   6.774   6.051  0.6363 -0.8669  1.8733
12959SOL    HW240094   4.281   6.877   6.151 -1.6630  0.7592  1.4398
12960SOL     OW40095   4.411   6.080   6.653  0.0703  0.1213  0.2994
12960SOL    HW140096   4.393   6.174   6.655 -0.8666 -0.0476  0.3154
12960SOL    HW240097   4.435   6.059   6.744  0.2536  0.3322  0.3029
12961SOL     OW40098   3.624   6.101   6.613 -0.1561 -0.8313  0.0879
12961SOL    HW140099   3.624   6.153   6.693 -0.3571  0.4819 -0.7338
12961SOL    HW240100   3.691   6.034   6.628 -1.5178 -1.8398  2.0831
12962SOL     OW40101   3.848   5.856   7.425  0.8171 -0.4323  0.1057
12962SOL    HW140102   3.911   5.926   7.409  0.5656  0.1175  1.3503
12962SOL    HW240103   3.778   5.870   7.361  0.0755  1.3502  1.2501
12963SOL     OW40104   5.068   6.494   7.062  0.4204 -0.1275 -0.1109
12963SOL    HW140105   5.087   6.404   7.038  0.5115  0.3323 -1.9939
12963SOL    HW240106   5.127   6.546   7.006 -0.0386  1.1069  0.5169
12964SOL     OW40107   4.677   5.835   5.427  0.2907  0.0427  0.2100
12964SOL    HW140108   4.687   5.747   5.464  1.9731  0.4420  0.7806
12964SOL    HW240109   4.584   5.840   5.403  0.0715 -1.7371  0.5217
12965SOL     OW40110   5.123   6.055   6.687  0.3024  0.3467  0.1817
12965SOL    HW140111   5.095   6.009   6.766  1.2232 -0.0588  0.2823
12965SOL    HW240112   5.152   6.141   6.719 -1.0461  0.8765  0.0426
12966SOL     OW40113   4.511   6.880   7.278  0.7436  0.1826  0.5481
12966SOL    HW140114   4.459   6.802   7.259  2.3579 -0.4909 -1.4830
12966SOL    HW240115   4.460   6.952   7.240  0.3615 -0.2035  0.3077
12967SOL     OW40116   4.085   6.245   6.311  0.3210  0.8006  0.2903
12967SOL    HW140117   4.017   6.185   6.342 -0.6331  1.6727 -0.0305
12967SOL    HW240118   4.125   6.200   6.236 -1.3968  1.1266 -0.8973
12968SOL     OW40119   4.644   7.056   7.462 -0.3543 -0.1300  0.4421
12968SOL    HW140120   4.588   6.982   7.439  0.6338 -1.2229  1.3881
12968SOL    HW240121   4.686   7.081   7.380 -0.9968 -0.3567  0.0364
12969SOL     OW40122   4.356   5.854   5.408 -0.1346  0.1764 -0.4336
12969SOL    HW140123   4.376   5.761   5.417 -1.6199 -0.2195 -1.0774
12969SOL    HW240124   4.334   5.866   5.316  0.5998  1.3010 -0.4926
12970SOL     OW40125   4.445   6.727   6.952 -0.3875  0.4723 -0.5729
12970SOL    HW140126   4.359   6.761   6.927 -0.7895 -0.2868 -0.2364
12970SOL    HW240127   4.433   6.696   7.042  0.6397  1.7694  0.0458
12971SOL     OW40128   4.932   6.542   6.773  0.0206  0.3483 -0.4608
12971SOL    HW140129   4.938   6.620   6.828  0.0892 -0.6545  0.9938
12971SOL    HW240130   4.846   6.504   6.795  0.1777 -0.2239 -0.8207
12972SOL     OW40131   5.075   6.292   5.969 -0.2366 -0.0737 -0.5109
12972SOL    HW140132   4.992   6.246   5.975 -2.2446  3.0872 -1.5104
12972SOL    HW240133   5.112   6.264   5.885 -2.4618  1.5492 -2.1516
12973SOL     OW40134   5.039   7.324   7.149  0.0886 -0.0533  0.5177
12973SOL    HW140135   5.045   7.231   7.128 -0.1347 -0.3031  1.4998
12973SOL    HW240136   4.945   7.341   7.161 -0.1616  0.8837 -2.0392
12974SOL     OW40137   5.126   7.477   6.791  0.2936 -0.0731  0.0789
12974SOL    HW140138   5.101   7.386   6.779 -0.1742 -0.0263  0.6171
12974SOL    HW240139   5.069   7.508   6.862  0.9617  0.4244  0.4110
12975SOL     OW40140   3.791   6.551   6.634 -0.4423 -0.1175  0.0611
12975SOL    HW140141   3.802   6.495   6.710 -0.7178  1.4781  1.3369
12975SOL    HW240142   3.759   6.492   6.565 -1.3195 -1.3989  1.5056
12976SOL     OW40143   4.670   7.450   7.855 -0.2785 -0.2686 -0.0107
12976SOL    HW140144   4.710   7.473   7.771  1.6691 -2.5016  0.1998
12976SOL    HW240145   4.663   7.355   7.853  0.8670 -0.4988  2.7570
12977SOL     OW40146   5.705   5.637   5.706  0.3015 -0.4198 -0.5768
12977SOL    HW140147   5.614   5.641   5.734  0.2278  1.2560 -0.9380
12977SOL    HW240148   5.737   5.553   5.739 -1.0160 -0.4934  0.5894
12978SOL     OW40149   5.317   7.348   6.191 -0.4437 -0.0444 -0.4249
12978SOL    HW140150   5.338   7.268   6.238  0.4765 -0.9152 -2.2299
12978SOL    HW240151   5.401   7.394   6.183 -0.5810  0.0863 -1.1827
12979SOL     OW40152   3.719   7.160   7.215 -0.3647  0.3104 -0.1628
12979SOL    HW140153   3.666   7.211   7.154 -0.5437  1.4946  0.9307
12979SOL    HW240154   3.660   7.143   7.289  0.6547  1.4098  0.9541
12980SOL     OW40155   4.827   6.170   5.932 -0.0311 -0.8891  0.2477
12980SOL    HW140156   4.791   6.107   5.994  1.6683 -1.6184  0.5803
12980SOL    HW240157   4.773   6.248   5.941 -0.5963 -1.4192  1.7286
12981SOL     OW40158   4.375   6.661   7.214  0.5905 -0.3112 -0.3315
12981SOL    HW140159   4.288   6.630   7.239 -0.1029  0.2438 -1.8982
12981SOL    HW240160   4.436   6.601   7.258 -0.6346 -2.1191 -0.9778
12982SOL     OW40161   4.284   7.565   5.797  0.2703  0.5326 -0.0677
12982SOL    HW140162   4.342   7.547   5.871 -1.1300 -2.1518  0.4952
12982SOL    HW240163   4.318   7.511   5.726  0.3217  1.4288 -0.7463
12983SOL     OW40164   5.302   7.396   7.166 -0.2242  0.2683  0.1570
12983SOL    HW140165   5.208   7.382   7.181 -0.1381  0.9127  1.3939
12983SOL    HW240166   5.319   7.351   7.083 -1.6387  0.1962 -0.1356
12984SOL     OW40167   5.409   5.491   6.354  0.5653  0.5941  0.0453
12984SOL    HW140168   5.492   5.443   6.346  0.8241  1.1029 -0.3656
12984SOL    HW240169   5.431   5.581   6.332 -0.1062  0.7319 -0.0787
12985SOL     OW40170   3.698   5.686   6.093 -0.0466 -0.9103 -0.1187
12985SOL    HW140171   3.648   5.628   6.035  0.0229 -1.6150  0.5141
12985SOL    HW240172   3.783   5.695   6.050 -0.7008  0.3274 -1.2216
12986SOL     OW40173   4.588   7.293   5.423  0.1598  1.0446 -0.2211
12986SOL    HW140174   4.618   7.203   5.435 -1.0061  0.5001 -1.0904
12986SOL    HW240175   4.502   7.284   5.382  0.0762  2.5640 -0.4506
12987SOL     OW40176   4.611   6.617   6.423  0.4723  0.2271 -0.0435
12987SOL    HW140177   4.542   6.681   6.436  0.4583  0.4302 -1.0054
12987SOL    HW240178   4.638   6.630   6.332  1.2540 -0.3586  0.0970
12988SOL     OW40179   5.095   6.891   6.160 -0.5824 -0.4224  0.1006
12988SOL    HW140180   5.107   6.822   6.095  0.7077 -0.2969  0.1805
12988SOL    HW240181   5.142   6.966   6.124 -1.1545  0.1300  0.4725
12989SOL     OW40182   4.934   6.983   5.591  0.0332  0.4966 -0.0442
12989SOL    HW140183   4.843   6.983   5.560  0.5673  0.7908 -1.7203
12989SOL    HW240184   4.954   7.076   5.604  0.4393  0.5139 -0.7769
12990SOL     OW40185   3.787   6.497   7.102 -0.0116  0.2973 -0.0185
12990SOL    HW140186   3.761   6.417   7.148  0.2386  1.5473  2.4941
12990SOL    HW240187   3.704   6.542   7.083 -0.1108 -0.1603 -0.6917
12991SOL     OW40188   5.145   6.356   6.735  0.1625 -0.2196 -0.0892
12991SOL    HW140189   5.074   6.419   6.748 -0.7830 -1.5193  1.4231
12991SOL    HW240190   5.205   6.400   6.676 -1.1350  1.5495 -0.1824
12992SOL     OW40191   4.436   6.350   6.688  0.5088 -0.0609 -0.1409
12992SOL    HW140192   4.487   6.354   6.607  1.2689 -0.5970  0.2920
12992SOL    HW240193   4.494   6.389   6.754  0.2638 -0.4609  0.3176
12993SOL     OW40194   4.596   5.589   6.464  0.4794  0.2087 -0.1645
12993SOL    HW140195   4.501   5.579   6.465  0.6190 -1.4253  0.4690
12993SOL    HW240196   4.629   5.502   6.439  1.8276  0.4127  0.7664
12994SOL     OW40197   4.115   6.460   5.684  0.1190  0.0028  0.2791
12994SOL    HW140198   4.139   6.367   5.683 -0.4378 -0.1592  0.9856
12994SOL    HW240199   4.195   6.506   5.659  0.7078 -0.6136  0.9934
12995SOL     OW40200   5.398   5.432   6.917 -0.9696  0.2851  0.0290
12995SOL    HW140201   5.428   5.458   6.829  0.4645 -0.5248  0.2428
12995SOL    HW240202   5.428   5.503   6.974  0.6023 -0.4762  0.2287
12996SOL     OW40203   3.988   6.600   6.015  0.3890 -0.2541  0.1346
12996SOL    HW140204   4.010   6.570   6.103 -1.1321  0.2344  0.7195
12996SOL    HW240205   3.901   6.561   5.998 -0.0340  0.9286 -0.5110
12997SOL     OW40206   4.010   6.365   7.479  0.9062  0.1903 -0.3996
12997SOL    HW140207   4.058   6.307   7.537  1.0448  0.2701 -0.4353
12997SOL    HW240208   4.062   6.446   7.476  1.4198 -0.1631 -1.4013
12998SOL     OW40209   4.319   5.981   6.431  0.2767 -0.1303 -0.2074
12998SOL    HW140210   4.345   6.010   6.519  0.3349  0.0424 -0.2792
12998SOL    HW240211   4.400   5.984   6.380 -0.0140  1.2376 -0.6545
12999SOL     OW40212   4.094   5.848   5.914 -0.3719 -0.4642  0.2874
12999SOL    HW140213   4.041   5.924   5.890 -0.2972 -0.8697 -1.2983
12999SOL    HW240214   4.138   5.824   5.832  2.0923 -0.2750  1.4614
13000SOL     OW40215   4.776   6.513   7.063  0.2967 -0.2567 -0.2757
13000SOL    HW140216   4.769   6.577   7.134  0.7491  0.1856 -0.6190
13000SOL    HW240217   4.870   6.500   7.053  0.2083 -1.0083 -0.1896
13001SOL     OW40218   3.482   6.365   5.955 -0.4541 -0.1850 -0.6256
13001SOL    HW140219   3.390   6.345   5.938 -0.2168 -0.2181 -2.0211
13001SOL    HW240220   3.530   6.290   5.921  0.1161 -0.0132 -0.2280
13002SOL     OW40221   5.302   6.666   5.774 -0.0263  0.1451  0.4898
13002SOL    HW140222   5.253   6.621   5.705 -2.1514 -0.8357  2.5012
13002SOL    HW240223   5.360   6.598   5.810 -0.1377  0.1750  0.7304
13003SOL     OW40224   4.179   6.428   6.753 -0.2738 -0.6160 -0.2922
13003SOL    HW140225   4.196   6.513   6.795  0.1135 -0.9800  0.3031
13003SOL    HW240226   4.265   6.395   6.729 -0.4534 -0.6672 -0.8745
13004SOL     OW40227   5.109   7.487   6.302 -0.3980 -0.2239 -0.0134
13004SOL    HW140228   5.144   7.485   6.391 -0.7238 -1.2485  0.1007
13004SOL    HW240229   5.176   7.446   6.248 -0.5166 -0.2763 -0.1230
13005SOL     OW40230   4.437   6.013   7.426  0.3188  0.3369 -0.6665
13005SOL    HW140231   4.426   6.047   7.515  0.0152 -1.6259  0.0980
13005SOL    HW240232   4.403   5.924   7.431  0.1248  0.2554 -2.8189
13006SOL     OW40233   5.668   6.623   7.040  0.3439  0.0358  0.2384
13006SOL    HW140234   5.599   6.665   7.092 -1.8641 -0.0025 -2.3996
13006SOL    HW240235   5.749   6.667   7.066 -0.8307  0.9589  2.5993
13007SOL     OW40236   4.128   7.294   7.120 -0.1269 -0.2164  0.4756
13007SOL    HW140237   4.116   7.319   7.028 -0.1209 -1.7358  0.0389
13007SOL    HW240238   4.219   7.314   7.138 -0.2867  0.6842  0.3599
13008SOL     OW40239   5.037   6.200   7.004  0.6776 -0.4599 -0.1939
13008SOL    HW140240   4.943   6.191   6.991  0.7388  0.6583 -1.8414
13008SOL    HW240241   5.074   6.117   6.973  0.3740  0.0804 -2.1870
13009SOL     OW40242   4.698   5.832   6.366 -0.2030  0.0222 -0.0103
13009SOL    HW140243   4.789   5.801   6.364 -0.4354 -0.7226 -2.6249
13009SOL    HW240244   4.648   5.758   6.401  0.1769  0.5862  1.8545
13010SOL     OW40245   4.475   6.350   5.806 -0.2060  0.3574  0.2779
13010SOL    HW140246   4.463   6.428   5.752  0.4004  0.8938  0.8932
13010SOL    HW240247   4.405   6.354   5.871 -0.2425  0.3351  0.2394
13011SOL     OW40248   4.973   5.476   6.451 -0.1588 -0.3806 -0.1228
13011SOL    HW140249   4.913   5.434   6.389 -0.4695 -1.5730  0.9344
13011SOL    HW240250   5.026   5.404   6.485  0.5805  0.3841  0.3635
13012SOL     OW40251   5.487   6.442   6.905 -0.1786  0.6259 -0.2446
13012SOL    HW140252   5.537   6.494   6.968  1.2175  0.8839 -1.5016
13012SOL    HW240253   5.548   6.427   6.833 -0.4042 -2.9925  0.1326
13013SOL     OW40254   4.101   7.147   5.744  0.1228 -0.2589  0.5260
13013SOL    HW140255   4.127   7.067   5.698 -0.8007 -0.8465  1.0013
13013SOL    HW240256   4.139   7.139   5.831 -1.3984 -1.0299  1.1600
13014SOL     OW40257   4.361   7.431   6.543  0.2273 -0.1452  1.1980
13014SOL    HW140258   4.390   7.396   6.459 -0.3840 -3.7561  2.3159
13014SOL    HW240259   4.441   7.446   6.593  0.5259  0.6168  0.5044
13015SOL     OW40260   4.049   6.635   6.556 -0.1981  0.2985  0.0148
13015SOL    HW140261   4.078   6.561   6.610  2.3908 -0.2045 -1.8626
13015SOL    HW240262   3.953   6.627   6.555 -0.2306 -0.8614  2.7499
13016SOL     OW40263   5.137   6.563   5.591  0.4093 -0.0113  0.2547
13016SOL    HW140264   5.131   6.470   5.570  0.1231  0.2121 -0.6774
13016SOL    HW240265   5.046   6.592   5.599  0.4881  0.2864  0.0872
13017SOL     OW40266   5.479   7.040   6.542 -0.0540 -0.3138 -0.0772
13017SOL    HW140267   5.489   6.948   6.517  1.2676  0.1900 -1.5258
13017SOL    HW240268   5.397   7.067   6.501 -1.4072 -1.2826  1.8556
13018SOL     OW40269   4.045   6.987   6.981  0.3664  0.4244  0.2880
13018SOL    HW140270   4.026   6.913   6.923  0.7306  0.8920 -0.4365
13018SOL    HW240271   4.067   6.946   7.065 -1.1222 -0.2253  0.3929
13019SOL     OW40272   3.813   6.334   6.469 -0.3137 -0.3241  0.3304
13019SOL    HW140273   3.874   6.300   6.535  2.6561  2.7114 -0.5729
13019SOL    HW240274   3.797   6.259   6.411  1.7537 -1.5445  1.2087
13020SOL     OW40275   3.862   6.911   7.234 -0.1985  0.1753  0.7250
13020SOL    HW140276   3.850   6.998   7.197  2.0633  0.6385  0.9642
13020SOL    HW240277   3.832   6.919   7.324 -0.9761  0.3992  0.4569
13021SOL     OW40278   5.444   5.155   6.255 -0.1359  0.2178  0.4590
13021SOL    HW140279   5.489   5.228   6.297  0.2868 -0.6269  1.5264
13021SOL    HW240280   5.351   5.177   6.262 -0.0452  0.3771  1.3396
13022SOL     OW40281   4.085   5.870   6.385  0.8424  0.6663 -0.2199
13022SOL    HW140282   4.052   5.864   6.475 -0.6650  1.2705 -0.7047
13022SOL    HW240283   4.173   5.905   6.394  0.4610  1.3662  0.9946
13023SOL     OW40284   5.223   7.139   6.457  0.2204  0.3097 -0.1223
13023SOL    HW140285   5.151   7.087   6.493  0.1505 -0.3937 -1.2373
13023SOL    HW240286   5.193   7.230   6.465 -1.1239 -0.0030 -1.2322
13024SOL     OW40287   3.368   6.205   6.497  0.7791  0.2804 -0.0688
13024SOL    HW140288   3.343   6.173   6.411 -0.4118  0.9021  0.0306
13024SOL    HW240289   3.448   6.157   6.518  1.2753  0.3596 -1.6543
13025SOL     OW40290   4.495   6.646   5.877 -0.6733  0.5952  0.3308
13025SOL    HW140291   4.519   6.609   5.962  1.1851  0.5251 -0.1701
13025SOL    HW240292   4.533   6.734   5.878 -2.3084  1.3366  0.2801
13026SOL     OW40293   5.115   5.626   6.717 -0.7844  0.1978 -0.0992
13026SOL    HW140294   5.142   5.545   6.760  2.9998 -0.0664 -2.5753
13026SOL    HW240295   5.106   5.603   6.624  0.2592  2.5515 -0.8681
13027SOL     OW40296   4.458   5.386   6.628 -0.0057  0.2026 -0.3280
13027SOL    HW140297   4.535   5.363   6.681 -0.7172  0.6881  0.9594
13027SOL    HW240298   4.411   5.303   6.617 -0.7175  0.3721  1.2579
13028SOL     OW40299   4.659   7.027   5.479 -0.2888 -0.3393  0.1831
13028SOL    HW140300   4.621   7.008   5.565  2.0252 -1.2731  1.0737
13028SOL    HW240301   4.654   6.944   5.432 -0.8605 -0.0234 -0.3211
13029SOL     OW40302   4.605   7.453   6.670 -1.0264  0.5124  0.0289
13029SOL    HW140303   4.667   7.392   6.709 -1.3777 -0.0691 -0.3174
13029SOL    HW240304   4.567   7.499   6.745 -2.2558 -1.1291  0.4767
13030SOL     OW40305   5.032   5.473   5.389  0.6491 -0.0193 -0.0450
13030SOL    HW140306   5.096   5.409   5.422  0.8358  0.0178 -0.3304
13030SOL    HW240307   4.947   5.429   5.399  0.7361 -0.1532  0.1358
13031SOL     OW40308   5.132   5.893   6.206 -0.1607 -0.4328 -0.2786
13031SOL    HW140309   5.069   5.824   6.228 -1.3388  1.3412  2.4631
13031SOL    HW240310   5.115   5.962   6.270  1.1403  2.3229 -2.6823
13032SOL     OW40311   5.653   5.614   6.913  0.0559 -0.1477  0.0361
13032SOL    HW140312   5.595   5.690   6.913 -0.6065 -0.6284  0.9446
13032SOL    HW240313   5.740   5.649   6.892 -0.0933  0.9645  1.1792
13033SOL     OW40314   4.658   6.523   5.613 -0.4318 -0.1282  0.1454
13033SOL    HW140315   4.698   6.436   5.601 -1.5673 -0.4177 -2.0146
13033SOL    HW240316   4.732   6.583   5.614  0.3156 -0.5271 -4.7797
13034SOL     OW40317   4.403   6.601   5.612 -0.1648  0.1017 -0.0787
13034SOL    HW140318   4.415   6.626   5.704 -0.1289  0.8516 -0.2762
13034SOL    HW240319   4.492   6.582   5.581 -0.3107 -1.4247  0.3763
13035SOL     OW40320   3.973   6.646   7.492 -0.4144 -0.4467  0.0850
13035SOL    HW140321   3.892   6.628   7.445 -0.8814 -1.0270  1.0906
13035SOL    HW240322   3.945   6.675   7.579  0.3817  2.2579 -0.4487
13036SOL     OW40323   3.878   5.705   8.472 -0.6604  0.0089 -0.0638
13036SOL    HW140324   3.827   5.746   8.403  0.2376  0.4012 -0.5154
13036SOL    HW240325   3.850   5.614   8.472  0.7604 -0.4966 -2.3610
13037SOL     OW40326   3.476   5.789   8.158  0.2080 -0.5966  0.3298
13037SOL    HW140327   3.507   5.716   8.211  1.5636  0.8943  1.6922
13037SOL    HW240328   3.508   5.771   8.070 -1.3086 -2.6675  0.1290
13038SOL     OW40329   5.166   6.820   0.069  0.0150 -0.3919  0.4013
13038SOL    HW140330   5.106   6.895   0.070 -0.0816 -0.4541  1.6839
13038SOL    HW240331   5.253   6.859   0.073  0.0416 -0.3206 -0.6484
13039SOL     OW40332   5.244   7.417   8.400  0.2288 -0.2381  0.1609
13039SOL    HW140333   5.179   7.348   8.394  2.0310 -2.1310  1.2293
13039SOL    HW240334   5.219   7.480   8.331 -0.6825 -2.6281 -1.8241
13040SOL     OW40335   4.595   6.582   8.115 -0.0197  0.3973  0.2529
13040SOL    HW140336   4.672   6.526   8.126 -0.4452 -0.0955  0.7948
13040SOL    HW240337   4.526   6.537   8.164 -1.5023 -0.8250 -2.6631
13041SOL     OW40338   5.344   6.173   7.503 -0.1020 -0.3406  0.1703
13041SOL    HW140339   5.345   6.111   7.430 -0.8020 -0.9350  0.6410
13041SOL    HW240340   5.253   6.173   7.533  0.1303  0.0435  0.9071
13042SOL     OW40341   4.596   6.487   8.759 -0.9565 -0.6952  0.4049
13042SOL    HW140342   4.525   6.551   8.754 -0.0947  0.1602 -1.8880
13042SOL    HW240343   4.559   6.407   8.722 -1.3452 -0.9131  1.2235
13043SOL     OW40344   4.445   6.464   8.528 -0.1530 -0.6145  0.3495
13043SOL    HW140345   4.525   6.422   8.496  1.8976  1.9878  1.6652
13043SOL    HW240346   4.391   6.476   8.450  0.4824 -2.8026 -0.5137
13044SOL     OW40347   4.153   7.055   8.134  0.3136  0.7303  0.6355
13044SOL    HW140348   4.064   7.054   8.097 -0.2482  2.1740  1.8638
13044SOL    HW240349   4.188   7.140   8.110  2.2620 -0.5710 -1.6807
13045SOL     OW40350   4.111   6.061   0.099  0.5085 -0.2703  0.0900
13045SOL    HW140351   4.061   6.019   0.169  1.4995  0.0019  0.9920
13045SOL    HW240352   4.201   6.062   0.132  0.7301  1.3130 -0.4928
13046SOL     OW40353   5.410   5.764   7.751  0.1193 -0.4070 -0.1428
13046SOL    HW140354   5.329   5.719   7.727  0.1036 -0.2151 -0.4594
13046SOL    HW240355   5.430   5.733   7.839 -2.0534  1.9716  1.3460
13047SOL     OW40356   3.686   7.655   7.787 -0.3443  0.3799 -1.2111
13047SOL    HW140357   3.704   7.612   7.703  2.3185 -0.5377 -0.2771
13047SOL    HW240358   3.729   7.740   7.781  3.0917 -1.0683  0.3569
13048SOL     OW40359   4.007   7.194   7.354 -0.0616 -0.1998 -0.4720
13048SOL    HW140360   4.032   7.250   7.280 -0.1845 -1.0248 -1.1636
13048SOL    HW240361   3.926   7.153   7.325  0.1561 -0.9116 -0.0770
13049SOL     OW40362   3.927   6.808   7.728  0.7443  0.4663 -0.1841
13049SOL    HW140363   4.005   6.834   7.777 -0.0706  1.4813  0.6096
13049SOL    HW240364   3.868   6.770   7.794  0.3144  0.2579 -0.6746
13050SOL     OW40365   4.318   7.140   8.651 -0.0535  0.1325 -0.1150
13050SOL    HW140366   4.349   7.122   8.562 -0.1843 -2.2897  0.2586
13050SOL    HW240367   4.223   7.125   8.646 -0.2445  1.1923  0.1807
13051SOL     OW40368   4.239   6.778   8.072  0.0717 -0.0216  0.0089
13051SOL    HW140369   4.144   6.777   8.088  0.2918  1.0032  1.5579
13051SOL    HW240370   4.271   6.852   8.123  1.0568  3.1759 -4.5912
13052SOL     OW40371   3.807   6.170   8.334 -0.5598  0.5793  0.1168
13052SOL    HW140372   3.719   6.170   8.372 -0.9879 -0.1322 -0.8216
13052SOL    HW240373   3.864   6.140   8.404 -1.2042  0.1239  0.4486
13053SOL     OW40374   5.296   7.595   7.842  0.0701 -0.2647  0.3715
13053SOL    HW140375   5.310   7.507   7.807 -0.7828  0.4629 -2.0582
13053SOL    HW240376   5.320   7.653   7.769  0.5427  1.5285  1.8791
13054SOL     OW40377   3.891   7.192   6.817  0.2839 -0.7819 -0.3988
13054SOL    HW140378   3.822   7.143   6.773 -0.1278 -1.4039  0.8774
13054SOL    HW240379   3.917   7.136   6.891 -0.7898  1.2028  1.6286
13055SOL     OW40380   5.610   6.617   7.994 -0.0301 -0.2821 -0.0751
13055SOL    HW140381   5.676   6.548   7.991  1.7943  1.4077 -1.9574
13055SOL    HW240382   5.530   6.575   7.961  0.5548 -1.8833  0.4495
13056SOL     OW40383   5.203   6.935   8.196 -0.1649 -0.1307 -0.1527
13056SOL    HW140384   5.281   6.889   8.227 -0.4770 -1.8499 -1.7715
13056SOL    HW240385   5.236   7.008   8.144  0.3541 -0.2563 -0.0012
13057SOL     OW40386   4.098   7.028   8.398 -0.0050 -0.2619 -0.1752
13057SOL    HW140387   4.106   6.933   8.411  0.1775 -0.6153 -2.4647
13057SOL    HW240388   4.120   7.041   8.306 -1.8514  1.7848 -0.3933
13058SOL     OW40389   4.701   5.716   7.979  0.6580 -0.3094  0.5306
13058SOL    HW140390   4.618   5.748   8.015  0.8083 -0.9883  1.5086
13058SOL    HW240391   4.718   5.773   7.903 -1.0096 -0.5637 -0.0704
13059SOL     OW40392   4.137   5.925   8.679  0.2201 -0.0420  0.4326
13059SOL    HW140393   4.126   5.984   8.753  2.2030 -0.3431  1.0332
13059SOL    HW240394   4.169   5.843   8.719 -0.2679 -0.7610 -0.6052
13060SOL     OW40395   5.391   6.453   7.921 -0.4296 -0.1461  0.4514
13060SOL    HW140396   5.328   6.501   7.867 -0.1411  0.0337  0.2670
13060SOL    HW240397   5.348   6.443   8.006 -1.1037 -0.9032  0.0256
13061SOL     OW40398   5.043   7.023   8.445  0.2041  0.2694  0.3144
13061SOL    HW140399   5.073   6.945   8.398  0.1677 -0.6732  1.7942
13061SOL    HW240400   5.067   7.096   8.388  0.8862 -0.7696 -0.7771
13062SOL     OW40401   5.580   7.750   7.771  0.3091  0.6389 -0.6887
13062SOL    HW140402   5.634   7.725   7.696  1.7280  2.3724 -0.3213
13062SOL    HW240403   5.638   7.736   7.847  1.1111  4.3917 -0.4280
13063SOL     OW40404   4.249   6.007   8.256  0.4180  0.0372 -0.7138
13063SOL    HW140405   4.330   6.008   8.205 -0.0493 -0.0027 -1.4817
13063SOL    HW240406   4.226   6.100   8.265  1.0843  0.1116  0.4085
13064SOL     OW40407   5.279   6.072   8.138 -0.0867  0.2429  0.0959
13064SOL    HW140408   5.372   6.095   8.138 -0.0544  0.1575  1.2836
13064SOL    HW240409   5.254   6.072   8.230 -1.5331  1.3261 -0.2601
13065SOL     OW40410   5.354   7.227   7.874  0.7092 -0.1583  0.5591
13065SOL    HW140411   5.394   7.140   7.879 -0.4355 -0.9392 -2.0540
13065SOL    HW240412   5.406   7.274   7.810 -1.0688 -0.4415 -1.2148
13066SOL     OW40413   4.646   6.000   8.817 -0.0414  0.0875  0.6732
13066SOL    HW140414   4.605   5.960   8.894 -2.1517  0.0567 -0.3977
13066SOL    HW240415   4.718   5.941   8.795 -1.1566 -1.4522  0.9597
13067SOL     OW40416   4.840   5.844   8.745  0.3024  0.0626 -0.1381
13067SOL    HW140417   4.921   5.881   8.712  0.1668 -1.0197 -1.7803
13067SOL    HW240418   4.861   5.753   8.764  0.0694  0.3669  1.7573
13068SOL     OW40419   4.765   6.491   7.672  0.9897  0.0456  0.1482
13068SOL    HW140420   4.827   6.425   7.704  1.4413  1.2458  1.9166
13068SOL    HW240421   4.680   6.461   7.704  1.0803 -0.1059  0.2498
13069SOL     OW40422   4.033   6.223   8.211 -0.2614  0.8334 -0.2226
13069SOL    HW140423   4.030   6.302   8.265 -0.6807 -0.3227  1.5364
13069SOL    HW240424   3.947   6.183   8.221  1.0021 -1.7091  1.9853
13070SOL     OW40425   4.425   6.742   8.394  0.2568 -0.1202 -0.2633
13070SOL    HW140426   4.331   6.750   8.410  0.3885  0.1131  0.4258
13070SOL    HW240427   4.437   6.771   8.303 -0.3376 -0.1855 -0.3646
13071SOL     OW40428   4.288   6.269   7.999  0.6114  0.3258  0.1756
13071SOL    HW140429   4.316   6.323   7.925 -0.2121 -1.3246 -1.4180
13071SOL    HW240430   4.193   6.275   7.998  0.6031  0.8959  1.6430
13072SOL     OW40431   4.737   6.846   8.086 -0.2792  0.3543 -0.3698
13072SOL    HW140432   4.749   6.840   7.991  0.2880 -0.8151 -0.2525
13072SOL    HW240433   4.712   6.757   8.112 -1.5622  0.9375  0.4392
13073SOL     OW40434   4.168   5.444   8.692  0.4481 -0.1433 -0.3262
13073SOL    HW140435   4.219   5.501   8.750 -0.9580  0.4531  0.3657
13073SOL    HW240436   4.218   5.363   8.690  2.2964  0.9506 -1.0232
13074SOL     OW40437   4.583   7.104   7.718 -0.5268 -0.3383 -0.4295
13074SOL    HW140438   4.579   7.012   7.742 -0.0867 -0.2068  0.1844
13074SOL    HW240439   4.591   7.104   7.623 -2.7836 -0.8687 -0.6923
13075SOL     OW40440   4.341   7.542   8.257  0.3212 -0.1639 -0.1613
13075SOL    HW140441   4.333   7.611   8.322 -0.1287 -0.4925  0.1308
13075SOL    HW240442   4.336   7.588   8.173  0.7028  0.2339  0.0283
13076SOL     OW40443   5.463   6.715   8.215  0.1241  0.0739  0.2694
13076SOL    HW140444   5.502   6.656   8.150  2.6672  0.8814  0.9537
13076SOL    HW240445   5.481   6.673   8.299  0.2961  0.9247  0.6666
13077SOL     OW40446   3.969   6.701   8.144 -0.5983 -0.1544  0.5178
13077SOL    HW140447   3.893   6.751   8.176 -1.7460 -2.3521  1.4425
13077SOL    HW240448   3.931   6.637   8.084  0.6762 -0.6317  0.2103
13078SOL     OW40449   5.214   6.155   8.392  0.2980  0.2191 -0.0359
13078SOL    HW140450   5.300   6.195   8.377  0.8225 -0.7956  0.1500
13078SOL    HW240451   5.178   6.203   8.467  0.6371  0.7613 -0.2167
13079SOL     OW40452   5.165   6.959   7.761  0.3205  0.7317 -0.1605
13079SOL    HW140453   5.093   7.014   7.790 -0.5422  0.3512 -1.5163
13079SOL    HW240454   5.136   6.923   7.677  2.2413  0.8925 -0.9501
13080SOL     OW40455   4.852   7.072   7.011  0.2167 -0.6094 -0.6499
13080SOL    HW140456   4.773   7.035   6.971  1.0522 -1.4155 -1.6055
13080SOL    HW240457   4.924   7.023   6.971  1.1676 -0.4205  0.7655
13081SOL     OW40458   4.190   7.606   7.668  0.8096 -0.2066 -0.1271
13081SOL    HW140459   4.205   7.553   7.746  1.7168  1.4331  0.8868
13081SOL    HW240460   4.113   7.568   7.627  1.4154 -2.2624  0.5364
13082SOL     OW40461   4.787   5.854   7.780 -0.1905  0.3530 -0.5673
13082SOL    HW140462   4.738   5.802   7.716 -0.7616  1.3341 -0.9447
13082SOL    HW240463   4.870   5.873   7.737  1.2568 -2.6219  0.6542
13083SOL     OW40464   3.846   7.419   8.540 -0.3084 -0.2820  0.0409
13083SOL    HW140465   3.837   7.324   8.547 -1.5413 -0.0647  3.0076
13083SOL    HW240466   3.776   7.445   8.480 -0.8636 -1.1397  0.2857
13084SOL     OW40467   4.744   7.596   8.420 -0.8237  0.6366  0.0809
13084SOL    HW140468   4.733   7.551   8.336  0.8323  0.0046  0.1768
13084SOL    HW240469   4.684   7.550   8.479  0.4770 -1.2096  0.0597
13085SOL     OW40470   3.783   6.633   7.929  0.1414 -0.0210 -0.3365
13085SOL    HW140471   3.793   6.540   7.946  0.9579  0.0669 -0.3219
13085SOL    HW240472   3.695   6.641   7.893  0.0668 -0.7964 -0.3437
13086SOL     OW40473   4.288   5.617   7.624  0.1320  0.2574 -0.2043
13086SOL    HW140474   4.295   5.524   7.601 -1.3342  0.7780 -3.3270
13086SOL    HW240475   4.229   5.619   7.699 -0.2359 -1.3193 -0.4158
13087SOL     OW40476   4.649   7.590   8.680  0.3601 -0.4855  0.0271
13087SOL    HW140477   4.743   7.603   8.691  0.1821 -1.2237  4.4554
13087SOL    HW240478   4.641   7.498   8.655  0.7877 -0.3709 -0.5666
13088SOL     OW40479   4.701   6.827   8.461  0.0341 -0.2019  0.0746
13088SOL    HW140480   4.750   6.747   8.442 -0.4086 -0.3403 -0.5325
13088SOL    HW240481   4.609   6.803   8.444  0.0761  1.0256 -2.2618
13089SOL     OW40482   4.646   5.841   8.366  0.3554  0.0659 -0.0747
13089SOL    HW140483   4.587   5.836   8.290  0.6365  2.9283 -0.5989
13089SOL    HW240484   4.728   5.804   8.334 -0.2948 -1.3251 -0.2326
13090SOL     OW40485   4.414   5.356   7.988  0.0915 -0.3020 -0.0604
13090SOL    HW140486   4.497   5.397   8.015 -0.2613 -0.8956  2.1579
13090SOL    HW240487   4.346   5.410   8.027 -0.5025 -0.8091 -0.3699
13091SOL     OW40488   5.160   6.820   7.523 -0.1898 -0.4203 -0.3148
13091SOL    HW140489   5.252   6.795   7.507 -0.1916  0.0217 -1.0019
13091SOL    HW240490   5.117   6.737   7.544  0.0285 -0.8700 -1.5864
13092SOL     OW40491   4.130   5.707   7.358 -0.2444  0.6297 -0.1995
13092SOL    HW140492   4.214   5.738   7.392 -0.3366  0.8587 -0.1798
13092SOL    HW240493   4.154   5.642   7.292 -0.0473  0.8358 -0.3350
13093SOL     OW40494   4.740   5.728   7.552 -0.1801 -0.0254  0.1695
13093SOL    HW140495   4.834   5.711   7.550 -0.2660 -0.4850 -0.8021
13093SOL    HW240496   4.700   5.643   7.533 -0.6596  0.8996 -3.8459
13094SOL     OW40497   5.133   7.203   8.266 -0.4850 -0.2974  0.0702
13094SOL    HW140498   5.087   7.227   8.186  1.0558  1.2166 -0.4262
13094SOL    HW240499   5.222   7.183   8.237  0.3446  1.1115  1.4554
13095SOL     OW40500   4.483   6.918   8.179  0.3531  0.5289  0.1720
13095SOL    HW140501   4.475   7.005   8.140  0.5550  0.4518 -0.0382
13095SOL    HW240502   4.575   6.894   8.168  0.2105  0.1126 -0.1483
13096SOL     OW40503   5.112   7.261   7.953  0.2194 -0.3055 -0.2973
13096SOL    HW140504   5.204   7.258   7.929 -0.0047 -1.7969 -1.0705
13096SOL    HW240505   5.071   7.193   7.900 -0.9737 -1.0662  1.5054
13097SOL     OW40506   4.507   5.809   7.753 -0.4499  0.2137 -0.0958
13097SOL    HW140507   4.413   5.830   7.758 -0.3829  0.5389 -0.2037
13097SOL    HW240508   4.512   5.738   7.688 -0.8530 -1.2397  1.3838
13098SOL     OW40509   4.399   5.614   8.671  0.0064 -0.1680 -0.1759
13098SOL    HW140510   4.487   5.651   8.675  0.7093 -1.8330  0.9026
13098SOL    HW240511   4.375   5.618   8.578  1.9313 -1.2082 -0.7836
13099SOL     OW40512   4.929   5.725   8.394  0.8276  0.0382 -0.2374
13099SOL    HW140513   4.956   5.657   8.455 -0.8013 -1.1160 -0.7525
13099SOL    HW240514   4.934   5.684   8.308  1.0389  0.9783 -0.6889
13100SOL     OW40515   4.401   5.327   8.366  0.0185  0.4843 -0.1976
13100SOL    HW140516   4.335   5.397   8.368 -1.9384 -1.1677 -1.7642
13100SOL    HW240517   4.468   5.358   8.305  0.6513  2.1156  1.2617
13101SOL     OW40518   4.823   7.029   8.252  0.3381 -0.3347 -0.9201
13101SOL    HW140519   4.795   6.966   8.186 -0.0872 -0.0567 -1.0107
13101SOL    HW240520   4.837   6.976   8.331 -0.5189 -0.4763 -0.8519
13102SOL     OW40521   5.274   6.414   8.170  0.2754 -0.5469 -0.1432
13102SOL    HW140522   5.256   6.465   8.249  1.0112 -0.6380  0.0894
13102SOL    HW240523   5.310   6.331   8.202 -0.1832 -0.9100 -0.5479
13103SOL     OW40524   5.761   6.378   7.979 -0.3933  0.2697  0.1405
13103SOL    HW140525   5.848   6.397   7.945 -1.3114  2.4061 -1.3110
13103SOL    HW240526   5.723   6.317   7.915 -0.5181  0.6486 -0.1518
13104SOL     OW40527   4.406   7.249   7.483 -0.4038 -0.3030 -0.3000
13104SOL    HW140528   4.328   7.216   7.526  0.2660  0.1151  1.3265
13104SOL    HW240529   4.454   7.171   7.457 -0.0915 -0.6243  1.1426
13105SOL     OW40530   5.553   7.362   8.071 -0.4966  0.2526  0.3869
13105SOL    HW140531   5.587   7.405   7.993  0.0110 -0.2198  0.3420
13105SOL    HW240532   5.541   7.433   8.134  0.5199  0.4472  0.3822
13106SOL     OW40533   4.696   6.007   7.476 -0.1786  0.1109 -0.0476
13106SOL    HW140534   4.604   6.025   7.461 -0.4648  0.6951  2.0153
13106SOL    HW240535   4.699   5.914   7.498  0.0891 -0.4696 -2.3570
13107SOL     OW40536   4.480   5.772   8.134  0.4735  0.0667 -0.0990
13107SOL    HW140537   4.439   5.840   8.080  1.9411  0.2517 -1.0409
13107SOL    HW240538   4.415   5.702   8.138 -0.2981  0.7241 -0.7419
13108SOL     OW40539   5.481   6.557   0.422  0.2312 -0.2994  0.0827
13108SOL    HW140540   5.492   6.493   0.493  2.7065  0.1080  0.1743
13108SOL    HW240541   5.403   6.528   0.375  0.6931 -2.8094  0.7197
13109SOL     OW40542   4.854   6.967   8.630 -0.0030  0.3123  0.0995
13109SOL    HW140543   4.915   6.986   8.559  1.0803 -1.2219  0.5643
13109SOL    HW240544   4.782   6.920   8.588 -0.0706  0.6712 -0.1935
13110SOL     OW40545   5.830   6.542   8.517  0.0272 -0.4847  0.1423
13110SOL    HW140546   5.889   6.560   8.591 -1.3969  0.6148  1.0809
13110SOL    HW240547   5.873   6.472   8.468  1.0425 -1.2407  2.0069
13111SOL     OW40548   4.807   6.591   8.401 -0.4274  0.0492 -0.7116
13111SOL    HW140549   4.890   6.592   8.353 -1.1527 -0.7747 -2.0467
13111SOL    HW240550   4.759   6.518   8.363 -2.1920  1.1568 -0.7044
13112SOL     OW40551   4.023   6.446   8.387  0.3907 -0.1582  0.2994
13112SOL    HW140552   4.050   6.389   8.460  0.7204 -1.6090 -0.9146
13112SOL    HW240553   3.947   6.494   8.421  0.2592 -1.1303  1.4437
13113SOL     OW40554   4.897   5.600   8.830 -0.6817 -0.2951 -0.0822
13113SOL    HW140555   4.914   5.632   8.919  0.9712 -2.0567  0.2963
13113SOL    HW240556   4.877   5.507   8.841  2.5700 -1.3536 -1.6901
13114SOL     OW40557   3.986   6.749   8.741  0.3901 -0.2381  0.5332
13114SOL    HW140558   4.058   6.689   8.719  0.8426  0.7072 -0.6932
13114SOL    HW240559   4.022   6.808   8.806  0.9006  0.5132 -0.4041
13115SOL     OW40560   4.201   7.456   7.882 -0.3623 -0.0232 -0.2483
13115SOL    HW140561   4.197   7.505   7.964 -1.6732 -0.7513  0.1447
13115SOL    HW240562   4.202   7.364   7.909  1.4092 -0.2630 -0.9945
13116SOL     OW40563   4.219   5.805   8.434  0.1553 -0.1423  0.0661
13116SOL    HW140564   4.221   5.883   8.378  1.7800  0.5659  1.0191
13116SOL    HW240565   4.192   5.838   8.520 -2.0732 -1.1781 -0.1683
13117SOL     OW40566   5.215   6.590   7.763 -0.4887  0.2459 -0.0495
13117SOL    HW140567   5.198   6.674   7.806 -1.5878 -0.4682  0.9889
13117SOL    HW240568   5.152   6.587   7.691 -1.2558 -0.1454  0.6107
13118SOL     OW40569   5.173   6.534   8.476 -0.1412 -0.3590 -0.0730
13118SOL    HW140570   5.166   6.492   8.561  1.4485 -2.2881 -0.8165
13118SOL    HW240571   5.220   6.616   8.494 -0.8606 -0.1645  1.0334
13119SOL     OW40572   5.061   6.100   7.887  0.0253 -0.3115  0.0576
13119SOL    HW140573   5.074   6.043   7.811 -3.7070 -1.8750  0.3788
13119SOL    HW240574   5.113   6.059   7.956  3.4463  1.1115 -1.4607
13120SOL     OW40575   4.262   6.620   8.673  0.4381  0.1318 -0.0721
13120SOL    HW140576   4.298   6.699   8.713  0.1877  0.2443 -0.0690
13120SOL    HW240577   4.336   6.582   8.625  0.7231  0.0265  0.4432
13121SOL     OW40578   4.451   6.275   0.131  0.1559  0.5165 -0.1752
13121SOL    HW140579   4.447   6.196   0.185  2.5968  0.8030  0.5494
13121SOL    HW240580   4.448   6.243   0.041  2.5111 -0.6262  0.0733
13122SOL     OW40581   4.994   6.730   8.224  0.0171 -0.1740  0.2107
13122SOL    HW140582   5.023   6.813   8.187 -0.8838  0.2517  0.4406
13122SOL    HW240583   5.064   6.704   8.284 -0.9900  1.9412  2.4599
13123SOL     OW40584   4.625   6.344   7.877 -0.0015  0.4409 -0.2706
13123SOL    HW140585   4.624   6.432   7.914 -0.3145  0.3864 -0.1456
13123SOL    HW240586   4.696   6.299   7.924 -0.8383  0.1650  0.7607
13124SOL     OW40587   4.207   5.689   8.836  0.0356 -0.3977  0.4555
13124SOL    HW140588   4.279   5.671   8.776 -0.1181 -1.2390  0.5083
13124SOL    HW240589   4.242   5.670   8.923  0.2626  0.8340  0.6538
13125SOL     OW40590   3.580   6.465   0.137  0.5866  0.1500  0.1624
13125SOL    HW140591   3.652   6.504   0.088 -0.8932  0.7563 -1.6386
13125SOL    HW240592   3.546   6.396   0.079 -1.7280  1.4295 -0.1166
13126SOL     OW40593   4.613   5.747   8.634  0.5785 -0.1190  0.1771
13126SOL    HW140594   4.680   5.790   8.687  0.1654  0.7322  0.0259
13126SOL    HW240595   4.640   5.761   8.544 -0.3602  1.2009  0.0757
13127SOL     OW40596   4.243   5.642   8.040  0.1211  0.2820 -0.2923
13127SOL    HW140597   4.200   5.631   7.956 -1.1709  2.2825  0.0462
13127SOL    HW240598   4.183   5.695   8.092 -0.0034 -2.3821  2.6224
13128SOL     OW40599   5.251   5.785   8.185 -0.5406 -0.1319  0.0081
13128SOL    HW140600   5.160   5.780   8.154 -0.9849  1.5045  0.9333
13128SOL    HW240601   5.277   5.876   8.167  0.4068 -0.1666  1.1136
13129SOL     OW40602   4.294   6.511   8.246  0.2390 -0.1701  0.2954
13129SOL    HW140603   4.206   6.491   8.278 -0.0783 -0.5632 -0.7964
13129SOL    HW240604   4.282   6.587   8.189 -0.1163 -2.5306 -3.0734
13130SOL     OW40605   5.041   5.737   7.468 -0.3367  0.1178 -0.1614
13130SOL    HW140606   5.127   5.700   7.487 -0.6900 -0.4044  0.4861
13130SOL    HW240607   5.030   5.725   7.373 -0.5549 -1.7407  0.0608
13131SOL     OW40608   5.025   6.589   7.582 -0.6292  0.1323  0.2831
13131SOL    HW140609   4.949   6.554   7.629 -0.3631  0.2084  0.7793
13131SOL    HW240610   5.016   6.555   7.493 -0.7975 -0.5526  0.5559
13132SOL     OW40611   4.435   7.056   8.417 -0.1602 -0.6805  0.3212
13132SOL    HW140612   4.404   7.044   8.327  1.1665  0.8202 -0.3725
13132SOL    HW240613   4.504   6.991   8.428  0.5304 -0.0435 -0.1866
13133SOL     OW40614   4.160   6.756   8.475  0.0752 -0.6217 -0.8235
13133SOL    HW140615   4.119   6.679   8.436  1.0920 -0.9506 -1.2849
13133SOL    HW240616   4.186   6.727   8.563  1.8208 -1.3251 -1.5234
13134SOL     OW40617   3.955   5.998   8.501  0.0967  0.2145 -0.2449
13134SOL    HW140618   3.961   5.905   8.476 -2.1005 -0.8318  2.5565
13134SOL    HW240619   4.019   6.008   8.571  0.0391  0.7088 -0.2617
13135SOL     OW40620   5.606   5.657   8.425  0.6113 -0.5109  0.1109
13135SOL    HW140621   5.529   5.600   8.428  1.0935 -1.1220  1.8748
13135SOL    HW240622   5.667   5.619   8.489  2.3600  0.0027 -1.1566
13136SOL     OW40623   3.803   6.901   7.501 -0.3298 -0.2472  0.6530
13136SOL    HW140624   3.742   6.828   7.510  0.4992 -1.0514  0.0534
13136SOL    HW240625   3.853   6.901   7.583  1.4382 -2.0831 -0.3265
13137SOL     OW40626   4.200   7.318   8.126  0.1290  0.0135 -0.6821
13137SOL    HW140627   4.108   7.336   8.144  0.6626  2.6636 -0.0666
13137SOL    HW240628   4.248   7.370   8.191  2.0966 -2.7625  0.2587
13138SOL     OW40629   4.758   7.495   8.136  0.4833  0.0422  0.3475
13138SOL    HW140630   4.732   7.503   8.045 -0.4397  1.7385  0.7209
13138SOL    HW240631   4.800   7.409   8.142 -0.6340 -0.6627 -1.3633
13139SOL     OW40632   4.839   6.246   8.785  0.3901 -0.7531  0.4971
13139SOL    HW140633   4.824   6.281   8.873 -4.3662 -0.1930 -0.2710
13139SOL    HW240634   4.786   6.167   8.781  0.1983 -0.5668 -1.9645
13140SOL     OW40635   3.306   6.189   0.066 -0.3704 -0.4501 -0.9902
13140SOL    HW140636   3.283   6.282   0.067 -1.3269 -0.6739  1.0470
13140SOL    HW240637   3.377   6.181   0.130  0.3072 -1.0082 -1.7890
13141SOL     OW40638   4.506   6.193   8.165 -0.7273 -0.5276  0.2127
13141SOL    HW140639   4.446   6.252   8.120 -0.8815 -0.3009  0.7023
13141SOL    HW240640   4.571   6.169   8.099 -0.9975 -0.2732 -0.1485
13142SOL     OW40641   5.458   6.366   8.400 -0.5846  0.0034  0.0196
13142SOL    HW140642   5.539   6.366   8.349  0.4584  1.8669  1.5311
13142SOL    HW240643   5.478   6.314   8.477  0.2035  2.6591  1.7355
13143SOL     OW40644   4.573   6.112   8.427  0.3943  0.1008  0.3157
13143SOL    HW140645   4.540   6.144   8.343 -0.1708  0.2012  0.5724
13143SOL    HW240646   4.599   6.021   8.409 -1.9980 -0.7139  0.5676
13144SOL     OW40647   4.790   7.275   8.836  0.0203 -0.2892  0.3675
13144SOL    HW140648   4.873   7.298   8.794 -0.9757 -0.2852 -1.7248
13144SOL    HW240649   4.803   7.299   8.928  2.4165 -0.5541  0.1846
13145SOL     OW40650   4.335   5.973   7.987  0.5528 -0.5426  0.8870
13145SOL    HW140651   4.340   6.068   7.976  1.1040 -0.5046  1.3787
13145SOL    HW240652   4.285   5.943   7.912  1.1858  0.0447  0.2024
13146SOL     OW40653   4.179   6.272   8.528  0.2673  0.0318 -0.2649
13146SOL    HW140654   4.180   6.202   8.593 -0.1443 -0.5788 -0.8997
13146SOL    HW240655   4.263   6.264   8.483 -0.3733 -1.0219 -1.3234
13147SOL     OW40656   4.673   6.355   8.469 -0.2705  0.1185 -0.3574
13147SOL    HW140657   4.640   6.266   8.475  2.4628 -0.9438  0.4996
13147SOL    HW240658   4.765   6.348   8.494 -0.0176  3.2290 -0.0249
13148SOL     OW40659   5.014   6.366   7.775  0.1644  0.0059 -0.0341
13148SOL    HW140660   5.020   6.290   7.832 -1.7880  0.3006  0.6421
13148SOL    HW240661   5.071   6.431   7.815  1.8284 -1.0572 -0.6021
13149SOL     OW40662   5.323   7.593   8.646 -0.0567 -0.1993  0.2152
13149SOL    HW140663   5.316   7.528   8.575 -1.0905  0.2749 -0.1310
13149SOL    HW240664   5.264   7.560   8.714 -0.9629  0.6066 -0.1586
13150SOL     OW40665   5.194   7.134   8.656 -0.5566  0.3794  0.5389
13150SOL    HW140666   5.283   7.099   8.661 -1.3163 -1.5423  1.8959
13150SOL    HW240667   5.159   7.099   8.574 -0.0892  1.1529 -0.0061
13151SOL     OW40668   3.747   6.838   8.336 -0.2574 -0.2238  0.2064
13151SOL    HW140669   3.669   6.809   8.289  0.6326 -1.6460 -0.4533
13151SOL    HW240670   3.755   6.931   8.314 -1.6219 -0.0932  0.1222
13152SOL     OW40671   5.047   5.937   7.665  0.6453 -0.2758 -0.2130
13152SOL    HW140672   5.076   5.866   7.606 -1.0928 -0.1925 -1.2255
13152SOL    HW240673   5.020   6.007   7.605  0.3387  0.4294  0.7418
13153SOL     OW40674   5.398   7.617   8.182 -0.1040  0.4801  0.2399
13153SOL    HW140675   5.331   7.550   8.167 -0.0011 -0.1599  2.3221
13153SOL    HW240676   5.353   7.700   8.168 -0.5464  0.0203 -1.2204
13154SOL     OW40677   4.807   6.433   8.108 -0.0113 -0.1491 -0.3099
13154SOL    HW140678   4.899   6.424   8.082 -0.0599 -2.4261  0.0645
13154SOL    HW240679   4.779   6.343   8.126 -2.0819  0.5886  0.4065
13155SOL     OW40680   4.035   7.526   7.411  0.2626 -0.4811 -0.2303
13155SOL    HW140681   4.015   7.479   7.330  1.5916 -0.9306 -0.3326
13155SOL    HW240682   4.095   7.596   7.383  2.1881 -1.7325  0.5677
13156SOL     OW40683   5.677   5.464   8.110  0.1359 -1.0475 -0.2576
13156SOL    HW140684   5.594   5.468   8.063 -0.2375  0.6851  0.4854
13156SOL    HW240685   5.736   5.418   8.051 -0.7918 -0.4773 -1.6577
13157SOL     OW40686   4.050   5.828   8.130  0.2904  0.0200  0.0263
13157SOL    HW140687   4.132   5.877   8.138  0.2026  0.0413  0.8309
13157SOL    HW240688   3.992   5.866   8.195 -0.4416  0.1489 -0.6900
13158SOL     OW40689   4.319   7.180   7.860 -0.0837 -0.9470  0.2088
13158SOL    HW140690   4.250   7.155   7.799  0.6557  0.2015 -1.1672
13158SOL    HW240691   4.400   7.158   7.815  0.6442  3.5717 -1.1362
13159SOL     OW40692   4.483   6.193   8.711  0.2781 -0.0997  0.1990
13159SOL    HW140693   4.497   6.190   8.616  1.5262 -0.3763  0.3739
13159SOL    HW240694   4.553   6.139   8.747 -0.8836 -0.9660  1.2270
13160SOL     OW40695   4.325   6.567   7.700  0.9643  0.2531 -0.3765
13160SOL    HW140696   4.367   6.605   7.778  1.0239 -0.8943  0.1809
13160SOL    HW240697   4.265   6.635   7.669 -0.5587  0.0334  1.8684
13161SOL     OW40698   5.303   7.114   7.582  0.4001 -0.1362  0.1399
13161SOL    HW140699   5.271   7.069   7.660  0.1412 -1.4117 -0.6613
13161SOL    HW240700   5.377   7.062   7.552 -0.5820 -0.7093 -1.4341
13162SOL     OW40701   5.447   7.070   8.673 -0.1741 -0.8325 -0.2590
13162SOL    HW140702   5.516   7.064   8.739  0.3141  2.0378 -0.3953
13162SOL    HW240703   5.494   7.074   8.589 -0.5081  0.4776 -0.4014
13163SOL     OW40704   4.848   6.590   8.680 -0.1364  0.3014  0.2188
13163SOL    HW140705   4.770   6.548   8.715 -0.3842  0.6249  0.0566
13163SOL    HW240706   4.832   6.598   8.586  0.9535 -1.4854 -0.1646
13164SOL     OW40707   5.338   5.563   8.448  0.2649 -0.1615  0.3348
13164SOL    HW140708   5.321   5.583   8.540 -1.7588  0.5224 -0.1240
13164SOL    HW240709   5.288   5.628   8.399  1.3285 -0.4746 -1.2674
13165SOL     OW40710   4.671   6.842   7.802  0.1290  0.2229 -1.3413
13165SOL    HW140711   4.592   6.796   7.831  0.2607  1.0323  0.4412
13165SOL    HW240712   4.683   6.814   7.712 -1.6935 -0.6031 -1.3787
13166SOL     OW40713   5.814   6.097   8.627 -0.0956  0.8064 -0.5446
13166SOL    HW140714   5.867   6.176   8.635  0.1868  0.4476  1.6526
13166SOL    HW240715   5.727   6.129   8.604  0.2134  1.6852 -0.5260
13167SOL     OW40716   4.163   7.130   7.610 -0.2715 -0.2654  0.7835
13167SOL    HW140717   4.170   7.034   7.607 -0.3550 -0.2554 -0.1095
13167SOL    HW240718   4.106   7.152   7.536  0.5317  0.5442  0.3926
13168SOL     OW40719   4.190   5.556   0.334 -0.0102 -0.4956 -0.0098
13168SOL    HW140720   4.158   5.625   0.392 -0.3881 -0.5583 -0.1411
13168SOL    HW240721   4.270   5.591   0.296  0.1150 -0.3614  0.3744
13169SOL     OW40722   3.781   6.077   7.621  0.3249 -0.1366  0.4087
13169SOL    HW140723   3.708   6.121   7.576  0.1603  0.4184  1.1980
13169SOL    HW240724   3.756   5.985   7.624 -1.3680  0.3180  2.5151
13170SOL     OW40725   3.965   5.667   7.593  0.0848 -0.2085  0.0863
13170SOL    HW140726   3.932   5.731   7.530 -1.0509 -1.3587 -0.5493
13170SOL    HW240727   4.045   5.632   7.553 -0.3843 -0.6051 -0.5214
13171SOL     OW40728   4.119   6.871   7.496  0.2428 -0.4204  0.2982
13171SOL    HW140729   4.074   6.830   7.422 -0.1313 -2.5189  1.6070
13171SOL    HW240730   4.073   6.837   7.573  0.4796  1.8653  1.5183
13172SOL     OW40731   4.402   5.694   0.204  0.4792 -0.1503  1.0237
13172SOL    HW140732   4.486   5.707   0.160  1.0929  1.3642  2.5776
13172SOL    HW240733   4.410   5.740   0.287 -1.3578 -1.2731  1.8870
13173SOL     OW40734   5.237   7.788   8.472 -0.0109  0.4309  0.2094
13173SOL    HW140735   5.278   7.733   8.538 -1.1339  0.1618  0.7067
13173SOL    HW240736   5.146   7.759   8.470  0.0107  0.3908 -1.5140
13174SOL     OW40737   4.411   7.651   8.761 -0.0617  0.2753 -0.1863
13174SOL    HW140738   4.499   7.647   8.723  0.2962 -0.7288  0.6846
13174SOL    HW240739   4.361   7.705   8.701  1.1688  0.8986 -0.6750
13175SOL     OW40740   5.672   6.480   0.021 -0.1344  0.1954  0.7259
13175SOL    HW140741   5.692   6.530  -0.058 -1.5055 -0.5711 -0.1433
13175SOL    HW240742   5.578   6.463   0.016 -0.0629 -0.7291  2.0188
13176SOL     OW40743   4.739   6.143   8.048  0.3766  0.1668 -0.0873
13176SOL    HW140744   4.727   6.079   7.978 -1.5260 -0.2572  0.5687
13176SOL    HW240745   4.810   6.107   8.101  1.1619 -0.0031 -1.2249
13177SOL     OW40746   4.459   6.686   7.913  0.0503 -0.1765 -0.0750
13177SOL    HW140747   4.376   6.715   7.950  0.3834  1.1577 -0.3275
13177SOL    HW240748   4.502   6.639   7.984 -0.6933 -0.4274  0.2162
13178SOL     OW40749   5.282   6.364   8.730  0.2172  0.0197  0.2412
13178SOL    HW140750   5.229   6.284   8.733 -0.1497  0.2365 -0.4053
13178SOL    HW240751   5.224   6.432   8.763  0.5504  0.0242  0.8507
13179SOL     OW40752   4.422   6.885   7.588 -0.4861 -0.0205 -0.3848
13179SOL    HW140753   4.382   6.863   7.504 -0.9794 -0.0597 -0.1444
13179SOL    HW240754   4.489   6.818   7.600  0.5282  0.7710 -1.3741
13180SOL     OW40755   4.579   7.363   8.556  0.0795  0.1749  0.2064
13180SOL    HW140756   4.484   7.355   8.545  0.2466 -0.4880 -1.0236
13180SOL    HW240757   4.613   7.275   8.538  0.7779 -0.1746  2.9119
13181SOL     OW40758   4.843   6.774   0.018  0.3381  0.1599  0.3781
13181SOL    HW140759   4.910   6.836  -0.011  0.1352 -0.0018 -0.4531
13181SOL    HW240760   4.843   6.706  -0.048  1.3349 -1.3449  1.8481
13182SOL     OW40761   4.892   6.871   7.456 -0.1182 -0.5801 -0.1387
13182SOL    HW140762   4.984   6.885   7.481 -0.0620 -0.5712 -0.3498
13182SOL    HW240763   4.865   6.955   7.420 -0.2838 -0.5079  0.1480
13183SOL     OW40764   5.518   7.377   8.444 -0.2017 -0.0724  0.1225
13183SOL    HW140765   5.423   7.364   8.436  0.0996 -1.8879 -1.2693
13183SOL    HW240766   5.540   7.342   8.530 -0.5855 -1.3662 -0.2737
13184SOL     OW40767   3.831   7.401   7.963 -0.2714 -0.2821  0.1688
13184SOL    HW140768   3.804   7.481   7.919  0.4249  0.5745  1.2491
13184SOL    HW240769   3.886   7.355   7.899  0.9349  1.0553  0.2032
13185SOL     OW40770   5.623   5.845   8.723 -0.7788 -0.2856  0.4663
13185SOL    HW140771   5.647   5.772   8.665 -0.4831  0.1236  0.0663
13185SOL    HW240772   5.675   5.831   8.802 -1.5360 -1.1112  0.8323
13186SOL     OW40773   3.732   5.907   8.001 -0.1579  0.3394  0.0935
13186SOL    HW140774   3.761   5.844   7.935  0.2473  0.7229 -0.0977
13186SOL    HW240775   3.793   5.981   7.993  1.4280 -0.5989  2.5464
13187SOL     OW40776   5.309   6.805   8.532  0.0048  0.1587 -0.3719
13187SOL    HW140777   5.314   6.899   8.547 -1.8428  0.0439  1.5113
13187SOL    HW240778   5.398   6.779   8.508  0.6340  2.3031 -0.5015
13188SOL     OW40779   3.880   5.791   8.775  0.0177 -0.1885 -0.7614
13188SOL    HW140780   3.959   5.758   8.818 -0.7970 -2.3303 -0.7969
13188SOL    HW240781   3.894   5.774   8.682 -0.8331 -1.5321 -0.6857
13189SOL     OW40782   4.896   7.269   8.150  0.3222 -0.5189 -0.4283
13189SOL    HW140783   4.888   7.236   8.061  2.7155 -1.5551 -0.3423
13189SOL    HW240784   4.880   7.193   8.206 -1.3039  0.1516  0.0915
13190SOL     OW40785   5.058   5.796   7.989  0.1326  0.0854 -1.2540
13190SOL    HW140786   4.979   5.806   8.042 -0.0138 -0.9763 -1.2463
13190SOL    HW240787   5.027   5.765   7.904  0.5634 -0.8067 -1.1003
13191SOL     OW40788   4.978   5.533   8.583 -0.2438  0.1984  0.5337
13191SOL    HW140789   5.008   5.442   8.588 -3.7534 -1.1290  0.2462
13191SOL    HW240790   4.941   5.551   8.669 -3.3349 -0.2588 -0.5505
13192SOL     OW40791   5.081   6.503   8.021 -0.0112  0.1045  0.3624
13192SOL    HW140792   5.064   6.580   8.076  0.5935  0.1301  0.5220
13192SOL    HW240793   5.160   6.465   8.058  0.1455 -0.1398 -0.2202
13193SOL     OW40794   4.251   7.462   8.504 -0.1720 -0.2587 -0.1680
13193SOL    HW140795   4.286   7.456   8.415 -1.5012 -0.1677 -0.7176
13193SOL    HW240796   4.157   7.472   8.492 -0.2374  1.0800  1.2244
13194SOL     OW40797   5.305   5.614   7.465  0.9386  0.1322 -0.0664
13194SOL    HW140798   5.304   5.519   7.457  0.4266 -0.0039  1.3754
13194SOL    HW240799   5.392   5.635   7.498  0.6185  0.0319  0.8670
13195SOL     OW40800   4.916   5.998   8.250  0.3766  0.1387 -0.4924
13195SOL    HW140801   4.995   6.050   8.261  1.2982 -1.2093 -0.5434
13195SOL    HW240802   4.929   5.922   8.307 -0.7200 -0.2818 -0.7811
13196SOL     OW40803   5.417   5.626   8.010 -0.4416 -0.3058  0.5346
13196SOL    HW140804   5.326   5.603   7.991 -0.9905  0.2661  2.2370
13196SOL    HW240805   5.414   5.663   8.098  1.1426  1.6456 -0.1723
13197SOL     OW40806   3.527   6.696   7.865  0.0688 -0.1781 -0.1434
13197SOL    HW140807   3.498   6.605   7.861 -0.8934  0.0965  0.2372
13197SOL    HW240808   3.454   6.746   7.827  0.0473  0.5324  0.8007
13198SOL     OW40809   4.482   7.225   8.092 -0.1899 -0.1406  0.3543
13198SOL    HW140810   4.424   7.228   8.015 -1.7549 -1.0496  1.4512
13198SOL    HW240811   4.456   7.301   8.144 -0.5086 -0.6225  0.9102
13199SOL     OW40812   3.923   7.789   8.821 -0.5823 -0.1363 -0.6949
13199SOL    HW140813   3.833   7.756   8.820 -0.3405 -0.7968 -0.9276
13199SOL    HW240814   3.920   7.867   8.766 -0.8541 -0.5786 -1.3134
13200SOL     OW40815   3.820   7.929   1.272  0.1226  0.0388 -0.2372
13200SOL    HW140816   3.804   7.851   1.325 -0.9898 -0.3422 -1.1041
13200SOL    HW240817   3.914   7.928   1.255  0.3295 -0.3837  0.8552
13201SOL     OW40818   4.022   7.842   0.688  0.2526  0.3138  0.2731
13201SOL    HW140819   3.954   7.844   0.755 -0.8983  1.5079 -0.8833
13201SOL    HW240820   4.006   7.760   0.640  0.1892  0.1540  0.5677
13202SOL     OW40821   4.399   0.040   1.269  0.1159 -0.2349  0.5937
13202SOL    HW140822   4.391   0.030   1.174 -1.4458 -0.3632  0.7091
13202SOL    HW240823   4.394   0.134   1.284  1.4245 -0.1332  0.4892
13203SOL     OW40824   5.365   0.069   0.640 -0.4369 -0.3256  0.4050
13203SOL    HW140825   5.341   0.038   0.553 -2.0195  0.2767  0.5960
13203SOL    HW240826   5.349   0.163   0.637  1.3417  0.0345  0.7811
13204SOL     OW40827   4.655   8.832   0.197  0.5828  0.1025 -0.0181
13204SOL    HW140828   4.675   8.865   0.285  0.0976  0.3089  0.0154
13204SOL    HW240829   4.618   8.745   0.212  0.9064 -0.0413 -0.0461
13205SOL     OW40830   5.182   8.075   8.696  0.0453  0.3602  0.0507
13205SOL    HW140831   5.223   7.994   8.665 -1.2325  0.4216 -2.0128
13205SOL    HW240832   5.155   8.055   8.786  2.3137 -0.4807  0.6048
13206SOL     OW40833   4.062   8.738   0.989 -0.1912  0.0181 -0.0582
13206SOL    HW140834   4.127   8.795   1.029  0.3107 -0.3148 -0.3975
13206SOL    HW240835   4.054   8.769   0.899 -0.7757  0.2919  0.0813
13207SOL     OW40836   4.569   8.048   1.887  0.4063 -0.1435  0.7847
13207SOL    HW140837   4.542   8.074   1.975 -0.8577  1.0280  0.1029
13207SOL    HW240838   4.664   8.043   1.891  0.3099 -1.6389  2.5997
13208SOL     OW40839   4.112   0.080   0.227  0.1616  0.5864 -0.1312
13208SOL    HW140840   4.162   0.019   0.172  0.0824 -0.5358  0.9889
13208SOL    HW240841   4.045   0.026   0.268 -0.6210  1.6656  0.0408
13209SOL     OW40842   4.617   8.559   1.927  0.3067 -0.1787  0.1682
13209SOL    HW140843   4.529   8.529   1.947  0.0958  0.1521 -0.2503
13209SOL    HW240844   4.612   8.590   1.836  0.2652  2.0609  0.8733
13210SOL     OW40845   4.072   0.193   0.792  0.4367  0.3131  0.6061
13210SOL    HW140846   4.140   0.211   0.857  1.2545  1.2711 -0.4569
13210SOL    HW240847   4.113   0.132   0.731 -0.5793 -1.1799  1.3559
13211SOL     OW40848   3.943   7.703   1.728 -0.5504  0.4286 -0.1273
13211SOL    HW140849   3.979   7.710   1.639 -0.4555  0.9697 -0.0486
13211SOL    HW240850   3.862   7.653   1.717  0.1923 -0.7694 -0.3194
13212SOL     OW40851   5.449   8.311   0.687  0.4768  0.2843  0.0985
13212SOL    HW140852   5.452   8.317   0.782 -1.0981 -0.8407  0.2583
13212SOL    HW240853   5.363   8.346   0.663  0.2575 -0.7625 -0.7671
13213SOL     OW40854   4.378   0.291   1.842 -0.2032  0.1251 -0.1837
13213SOL    HW140855   4.362   0.206   1.802 -1.8632 -0.3676  1.3691
13213SOL    HW240856   4.444   0.273   1.909 -0.0380  0.2107 -0.3235
13214SOL     OW40857   3.800   0.013   0.752  0.9542 -0.2759 -0.1756
13214SOL    HW140858   3.878   0.067   0.742 -1.0024  2.4493 -2.6226
13214SOL    HW240859   3.831  -0.077   0.745  3.9259  0.6555 -0.1925
13215SOL     OW40860   3.886   8.456   0.154  0.1597 -0.2744 -0.3587
13215SOL    HW140861   3.816   8.458   0.220 -0.0475  2.6099 -0.5264
13215SOL    HW240862   3.966   8.475   0.203  0.3905 -0.7129 -0.5667
13216SOL     OW40863   4.962   7.805   1.245  0.3630 -0.3417  0.1101
13216SOL    HW140864   5.033   7.746   1.272  1.6959  1.3569  0.4331
13216SOL    HW240865   4.896   7.795   1.314  0.5382 -1.4393  0.1505
13217SOL     OW40866   4.027   8.080   0.936  0.0028  0.6358  0.5333
13217SOL    HW140867   4.039   8.112   1.026 -1.4742 -0.4731  1.1801
13217SOL    HW240868   4.018   7.985   0.946 -1.9642  0.6518 -0.5313
13218SOL     OW40869   4.984   8.198   0.243 -0.0554  0.4989  0.3154
13218SOL    HW140870   5.029   8.254   0.306  1.0834  3.4308 -2.7889
13218SOL    HW240871   5.052   8.137   0.213  0.0564  0.6544  0.2504
13219SOL     OW40872   5.369   8.673   0.461  0.2978  0.3033 -0.3102
13219SOL    HW140873   5.453   8.627   0.467  0.8658  1.2154 -1.0934
13219SOL    HW240874   5.376   8.726   0.382 -1.0273  0.3949 -0.3883
13220SOL     OW40875   3.674   8.129   2.067 -0.3639 -0.1103 -0.4106
13220SOL    HW140876   3.724   8.210   2.051 -0.7998  0.1051 -0.6923
13220SOL    HW240877   3.673   8.084   1.983  1.1454 -1.1487  0.0783
13221SOL     OW40878   3.922   8.770   0.297  0.5866  0.1644  0.1607
13221SOL    HW140879   3.868   8.760   0.218  1.5284 -0.3367 -0.4329
13221SOL    HW240880   3.858   8.781   0.367 -0.2935 -0.1395 -0.5612
13222SOL     OW40881   4.576   0.059   1.755  0.2972 -0.1042 -0.0386
13222SOL    HW140882   4.503   0.029   1.809 -0.5062  1.7366 -0.0302
13222SOL    HW240883   4.568   0.009   1.674 -1.7735  0.9129 -0.5299
13223SOL     OW40884   4.531   7.236   0.041  0.4461 -0.2876 -0.3311
13223SOL    HW140885   4.502   7.327   0.051 -0.5499 -0.6395  0.1528
13223SOL    HW240886   4.617   7.243  -0.000 -0.6114  0.8167 -2.5454
13224SOL     OW40887   3.796   8.780   1.119  0.3213  0.0426 -0.2331
13224SOL    HW140888   3.883   8.746   1.099  0.3556 -0.4069  0.6597
13224SOL    HW240889   3.811   8.872   1.142  0.4367  0.2201 -0.9950
13225SOL     OW40890   5.355   8.425   8.725  0.5317  0.0425 -0.4509
13225SOL    HW140891   5.280   8.450   8.670  0.6273 -1.0447 -1.1078
13225SOL    HW240892   5.324   8.438   8.815 -0.2554  0.1426 -0.7304
13226SOL     OW40893   3.757   7.549   1.569 -0.1933  0.1730  0.0227
13226SOL    HW140894   3.722   7.469   1.609  0.8071 -0.4408 -0.3212
13226SOL    HW240895   3.691   7.615   1.589 -1.3764 -0.8712 -0.2773
13227SOL     OW40896   5.115   8.765   0.994  0.1407 -0.1454  0.1407
13227SOL    HW140897   5.071   8.739   1.075 -0.0470  0.3039  0.1832
13227SOL    HW240898   5.198   8.802   1.023 -0.1822  0.5703  0.1717
13228SOL     OW40899   4.202   8.397   0.032 -0.1783  0.4257  0.3795
13228SOL    HW140900   4.129   8.442  -0.011 -0.0226 -0.0166 -0.3777
13228SOL    HW240901   4.197   8.425   0.123 -0.8754  0.9407  0.1974
13229SOL     OW40902   4.821   7.873   0.602 -0.2343  0.1454 -0.7659
13229SOL    HW140903   4.773   7.867   0.520  0.9526 -1.0071 -1.4282
13229SOL    HW240904   4.811   7.786   0.642  1.5678 -0.2542 -1.1110
13230SOL     OW40905   4.933   8.516   1.781  0.6390 -0.4234  0.3228
13230SOL    HW140906   4.970   8.603   1.768 -1.7568  0.7791  1.0252
13230SOL    HW240907   4.923   8.481   1.692 -1.2977  1.3917 -0.2628
13231SOL     OW40908   4.949   8.383   1.514 -0.5456 -0.4440 -0.4093
13231SOL    HW140909   4.931   8.366   1.421  0.1782 -0.4187 -0.5603
13231SOL    HW240910   5.042   8.403   1.517 -0.1310 -2.3232  0.5933
13232SOL     OW40911   4.571   7.972   1.621 -0.1215 -0.1809  0.3542
13232SOL    HW140912   4.528   7.996   1.703  1.1408 -1.0891  1.3096
13232SOL    HW240913   4.633   8.043   1.606 -0.0396 -0.2379  0.4210
13233SOL     OW40914   4.332   7.792   1.263 -0.5037 -0.1373 -0.0498
13233SOL    HW140915   4.359   7.754   1.179  0.0156 -0.6755  0.3588
13233SOL    HW240916   4.339   7.720   1.326  0.3810  0.5897  0.7117
13234SOL     OW40917   4.551   8.344   0.201  0.0184  0.3134 -0.0101
13234SOL    HW140918   4.618   8.282   0.173  0.4721 -0.2823  2.1919
13234SOL    HW240919   4.503   8.297   0.270 -1.8437  1.2095 -0.6285
13235SOL     OW40920   3.891   8.627   0.712  0.6187  0.3727  0.4166
13235SOL    HW140921   3.857   8.560   0.653 -0.5727  1.7114 -0.5111
13235SOL    HW240922   3.874   8.593   0.800 -1.9152  0.3173 -0.0234
13236SOL     OW40923   4.937   7.761   8.514 -0.3655 -0.0042 -0.1825
13236SOL    HW140924   4.958   7.711   8.593 -0.2965  0.3010 -0.0041
13236SOL    HW240925   4.862   7.715   8.476 -1.0448  0.4177  0.6077
13237SOL     OW40926   4.936   8.037   1.467  0.4752  0.1330 -0.3024
13237SOL    HW140927   5.026   8.027   1.499  1.0887  1.9450 -1.3120
13237SOL    HW240928   4.918   8.130   1.477 -1.1253 -0.1296 -0.5971
13238SOL     OW40929   5.122   8.710   0.590  0.5995  0.3478  0.7611
13238SOL    HW140930   5.201   8.673   0.550  0.0767 -0.4757  0.4605
13238SOL    HW240931   5.103   8.788   0.538  0.7828  0.1256  0.3520
13239SOL     OW40932   4.232   7.964   0.764 -0.3007 -0.5267  0.5532
13239SOL    HW140933   4.193   8.050   0.776  1.9123  0.8576 -1.4746
13239SOL    HW240934   4.157   7.905   0.751 -1.8210  1.1863  1.2360
13240SOL     OW40935   5.351   8.691   0.804 -0.0619 -0.6647 -0.1902
13240SOL    HW140936   5.256   8.700   0.796  0.0219  2.1640  0.8558
13240SOL    HW240937   5.386   8.751   0.739  1.0056 -0.7310  0.3059
13241SOL     OW40938   3.518   8.374   8.743  0.0125 -0.0819 -0.2904
13241SOL    HW140939   3.531   8.442   8.809  1.0537  1.0403 -1.5736
13241SOL    HW240940   3.505   8.294   8.793 -2.6268  1.2148  1.3060
13242SOL     OW40941   5.159   8.330   0.620  0.3982 -0.0110  0.0498
13242SOL    HW140942   5.146   8.390   0.547  0.2189 -0.3075 -0.1613
13242SOL    HW240943   5.123   8.377   0.695  0.7953  0.3914 -0.0027
13243SOL     OW40944   4.220   8.464   1.439  0.0586  0.2979  0.2814
13243SOL    HW140945   4.153   8.498   1.381 -0.2242 -0.0357  0.4063
13243SOL    HW240946   4.229   8.529   1.508  0.8661  1.0177 -0.4746
13244SOL     OW40947   3.937   7.529   1.364 -0.3978  0.2153 -0.1916
13244SOL    HW140948   3.876   7.564   1.429  1.3921 -0.2231  1.8148
13244SOL    HW240949   3.930   7.434   1.373  0.6955  0.1643  0.1945
13245SOL     OW40950   5.322   0.077   0.336 -0.4539 -0.1362  0.4142
13245SOL    HW140951   5.408   0.107   0.306 -0.5193  0.6810  0.9965
13245SOL    HW240952   5.261   0.103   0.266 -0.1327 -1.4494 -0.3804
13246SOL     OW40953   5.133   7.730   0.201 -0.2382 -0.0630 -0.3211
13246SOL    HW140954   5.042   7.699   0.196 -0.9557  1.7382  0.5806
13246SOL    HW240955   5.186   7.653   0.180 -1.8859 -1.7758  1.4174
13247SOL     OW40956   4.140   8.556   0.260 -0.5139 -0.3951  0.2031
13247SOL    HW140957   4.134   8.572   0.354 -0.2040 -1.5013  0.4309
13247SOL    HW240958   4.170   8.639   0.223 -1.9691  0.4924  0.8985
13248SOL     OW40959   4.546   7.315   1.795 -0.7293  0.2357  0.2162
13248SOL    HW140960   4.521   7.242   1.739 -0.9775 -0.3964  1.1335
13248SOL    HW240961   4.481   7.316   1.865  0.5146 -0.0445  1.4185
13249SOL     OW40962   4.204   7.520   1.743 -0.4421  0.0805 -0.2071
13249SOL    HW140963   4.294   7.548   1.725 -0.2756 -0.2780  0.0505
13249SOL    HW240964   4.149   7.589   1.707 -0.0066  2.4489  3.1453
13250SOL     OW40965   4.874   8.395   1.236  0.6150 -0.3622 -0.2674
13250SOL    HW140966   4.849   8.477   1.194  1.0383  1.4311  2.7028
13250SOL    HW240967   4.792   8.345   1.243 -0.0819  0.7689 -0.1799
13251SOL     OW40968   4.395   8.346   0.832  0.4028  0.3632 -0.1978
13251SOL    HW140969   4.456   8.305   0.895  1.3970  0.6884 -0.9158
13251SOL    HW240970   4.442   8.343   0.749 -1.0740 -0.4613 -1.0418
13252SOL     OW40971   4.109   7.646   0.098  0.5520  0.6298  0.5587
13252SOL    HW140972   4.035   7.685   0.051 -0.9628 -1.3780  1.1203
13252SOL    HW240973   4.119   7.559   0.059  2.0818  0.5269  1.0888
13253SOL     OW40974   5.143   8.307   8.590  0.8216 -0.1435 -0.5197
13253SOL    HW140975   5.173   8.234   8.645  0.9996  0.2819 -0.0543
13253SOL    HW240976   5.130   8.267   8.504 -1.6240 -1.3157  0.3138
13254SOL     OW40977   4.276   8.014   0.214 -1.1669 -0.6508  0.4235
13254SOL    HW140978   4.245   7.998   0.125 -0.5571 -0.7841  0.2261
13254SOL    HW240979   4.363   7.974   0.216 -1.6997 -1.8293  1.4827
13255SOL     OW40980   4.760   7.818   1.427  0.3274  0.2558 -0.2274
13255SOL    HW140981   4.665   7.829   1.431  0.2934  0.7615 -1.7636
13255SOL    HW240982   4.795   7.901   1.460  0.2464  0.0828  0.3055
13256SOL     OW40983   5.111   0.160   0.509  0.6341  0.4389 -0.6157
13256SOL    HW140984   5.152   0.225   0.566 -0.1258  0.0900  0.3507
13256SOL    HW240985   5.184   0.124   0.458  1.3767  0.5973  0.2974
13257SOL     OW40986   3.816   8.360   0.632  0.2067  0.4505 -0.0703
13257SOL    HW140987   3.887   8.300   0.609 -0.5356 -1.4283  2.2551
13257SOL    HW240988   3.816   8.363   0.727 -3.2479 -0.1795  0.0814
13258SOL     OW40989   4.911   8.664   0.245 -0.0937 -0.3587 -0.3065
13258SOL    HW140990   4.862   8.594   0.203 -1.3297  0.2655  0.0400
13258SOL    HW240991   4.863   8.744   0.222  1.0341  0.3321 -0.3409
13259SOL     OW40992   4.082   7.736   1.487 -0.2528 -0.1994 -0.0307
13259SOL    HW140993   4.123   7.784   1.416 -0.9025  0.8651  0.2890
13259SOL    HW240994   4.052   7.654   1.447 -1.6163  0.8598 -1.2698
13260SOL     OW40995   4.420   7.721   1.008  0.0366 -0.2148  0.5050
13260SOL    HW140996   4.500   7.668   1.010  0.0666 -0.1544  1.1003
13260SOL    HW240997   4.369   7.685   0.935  0.3743 -0.5913  0.4511
13261SOL     OW40998   4.518   8.387   0.588  0.3420  0.4859 -0.2537
13261SOL    HW140999   4.471   8.352   0.512 -0.0342  1.3093 -0.4098
13261SOL    HW241000   4.599   8.335   0.592  1.1838  1.5437 -2.2434
13262SOL     OW41001   4.431   7.904   0.611 -0.4124 -0.3424  0.9153
13262SOL    HW141002   4.362   7.960   0.644  0.2018  0.9671  0.0591
13262SOL    HW241003   4.385   7.833   0.565 -1.2473  1.6906 -1.6015
13263SOL     OW41004   4.635   0.055   1.472 -0.0218  0.6396  0.9515
13263SOL    HW141005   4.604   0.135   1.515 -1.9738  1.7657 -2.2418
13263SOL    HW241006   4.707   0.084   1.415 -0.4566  0.0585  0.0886
13264SOL     OW41007   5.351   8.305   0.941 -0.0437 -0.0449 -0.0191
13264SOL    HW141008   5.353   8.232   1.003 -0.2138  0.5625  0.7117
13264SOL    HW241009   5.258   8.323   0.928 -0.0135  1.4816  1.5492
13265SOL     OW41010   5.841   8.443   0.386 -0.1191  0.3018 -0.5001
13265SOL    HW141011   5.929   8.483   0.386  0.3533 -0.7133  0.0014
13265SOL    HW241012   5.858   8.349   0.389 -1.2390  0.1137  0.3307
13266SOL     OW41013   5.611   8.553   0.476 -0.1656  0.1126  0.0094
13266SOL    HW141014   5.688   8.505   0.447 -1.2857 -1.0842 -1.1319
13266SOL    HW241015   5.629   8.574   0.568  1.1595 -0.8626  0.0066
13267SOL     OW41016   4.857   8.193   8.686 -0.6201  0.1111  0.1183
13267SOL    HW141017   4.951   8.190   8.669 -0.6516  1.0636 -0.3000
13267SOL    HW241018   4.841   8.118   8.743  0.1330 -0.9354 -0.9991
13268SOL     OW41019   4.403   7.744   0.177 -0.6563  0.6847  0.1720
13268SOL    HW141020   4.335   7.720   0.240  0.0280  0.2691  0.7666
13268SOL    HW241021   4.387   7.688   0.101  0.7220 -1.5228  1.4106
13269SOL     OW41022   5.069   8.719   1.255  0.5769  0.5118 -0.0899
13269SOL    HW141023   5.034   8.791   1.307  0.3647  0.1526  0.2758
13269SOL    HW241024   5.010   8.645   1.274  0.9646  0.1638 -0.2227
13270SOL     OW41025   4.574   0.227   1.089 -0.4977  0.0845 -0.1576
13270SOL    HW141026   4.661   0.187   1.087  0.7301  2.5587  0.1617
13270SOL    HW241027   4.552   0.232   1.182 -0.0043  1.3395 -0.0867
13271SOL     OW41028   4.922   8.830   0.777 -0.4156 -0.5072  0.6479
13271SOL    HW141029   5.007   8.826   0.819  1.1641  1.2917 -2.0574
13271SOL    HW241030   4.915   8.749   0.726 -0.9204 -1.2101  1.7926
13272SOL     OW41031   4.804   0.046   1.055 -0.1543 -0.1993  0.1415
13272SOL    HW141032   4.814   0.035   0.961 -1.4986  1.4138 -0.2400
13272SOL    HW241033   4.887   0.085   1.083 -0.5063  1.3312 -0.7935
13273SOL     OW41034   4.661   7.116   1.191  0.0789 -0.1678 -0.3900
13273SOL    HW141035   4.611   7.053   1.139  1.1460 -0.7043 -0.7858
13273SOL    HW241036   4.710   7.063   1.254 -1.9773  0.5166  1.9746
13274SOL     OW41037   4.765   8.328   1.869  0.5487  0.4517  0.1160
13274SOL    HW141038   4.792   8.408   1.823  1.9942  0.2683  0.6098
13274SOL    HW241039   4.705   8.359   1.937  0.2158  0.9844 -0.4122
13275SOL     OW41040   4.446   8.461   8.806 -0.3205  0.6979 -0.2307
13275SOL    HW141041   4.353   8.478   8.823 -0.2974  0.9471 -0.3616
13275SOL    HW241042   4.473   8.407   8.881 -1.1317 -1.3366 -1.3301
13276SOL     OW41043   3.506   8.354   1.267 -0.0161 -0.3313 -0.0555
13276SOL    HW141044   3.563   8.281   1.242 -0.7344 -0.8127 -0.3088
13276SOL    HW241045   3.548   8.392   1.344 -0.2740 -1.7925  0.8513
13277SOL     OW41046   4.672   8.315   0.967  0.5836  0.4600  0.7368
13277SOL    HW141047   4.732   8.249   0.932  0.4586 -0.2780  1.8794
13277SOL    HW241048   4.664   8.294   1.060 -1.1857  0.7535  0.6745
13278SOL     OW41049   3.666   8.424   0.364 -0.6628 -0.1314 -0.4091
13278SOL    HW141050   3.613   8.350   0.335 -0.3865 -0.5944  0.2709
13278SOL    HW241051   3.703   8.397   0.447 -0.7844  0.8832 -0.0083
13279SOL     OW41052   4.141   8.275   0.749 -0.8055  0.1049  0.4890
13279SOL    HW141053   4.230   8.306   0.762 -1.7751  3.7729 -0.4049
13279SOL    HW241054   4.111   8.252   0.837  0.5771  0.1747  1.0008
13280SOL     OW41055   4.938   0.247   0.335  0.1112  0.3898 -0.1801
13280SOL    HW141056   4.984   0.211   0.412 -2.1851 -1.1825  0.5670
13280SOL    HW241057   5.003   0.243   0.265  1.3014 -1.2768  0.9250
13281SOL     OW41058   5.172   8.017   0.116 -0.0696 -0.7934 -1.1922
13281SOL    HW141059   5.126   7.935   0.135 -0.1105 -0.2391  1.5708
13281SOL    HW241060   5.263   7.999   0.139 -0.5398  0.6513  2.5319
13282SOL     OW41061   3.972   8.027   1.600 -0.0402  0.2080 -0.0184
13282SOL    HW141062   4.039   8.027   1.532  1.2359 -1.1713  1.1939
13282SOL    HW241063   3.943   7.936   1.605 -0.7521  0.4607  0.7026
13283SOL     OW41064   5.723   8.543   1.099 -0.4571 -0.1353 -0.1191
13283SOL    HW141065   5.657   8.538   1.030  0.1318  1.7578 -0.8781
13283SOL    HW241066   5.757   8.632   1.093  2.5948 -1.1878 -0.1538
13284SOL     OW41067   4.634   7.654   2.111 -0.8470 -0.0243 -0.1428
13284SOL    HW141068   4.684   7.655   2.029 -0.7035 -0.8340 -0.0768
13284SOL    HW241069   4.552   7.698   2.088  0.1413  1.9845 -0.0531
13285SOL     OW41070   4.324   7.220   1.172  0.0332 -0.4836  0.0479
13285SOL    HW141071   4.340   7.148   1.233 -1.0660 -0.7681  0.0243
13285SOL    HW241072   4.250   7.191   1.119 -0.5383  0.7117  0.1391
13286SOL     OW41073   4.514   8.776   0.833 -0.2574 -0.0636 -0.4645
13286SOL    HW141074   4.533   8.698   0.886  0.6200  0.8429  0.6170
13286SOL    HW241075   4.586   8.779   0.770  0.7528  0.8353  0.6724
13287SOL     OW41076   5.064   8.417   0.847  0.4500 -0.0989  0.4302
13287SOL    HW141077   4.972   8.443   0.843  1.0233  2.3101  1.1805
13287SOL    HW241078   5.083   8.408   0.941  1.4873  1.7276  0.4560
13288SOL     OW41079   4.756   8.174   0.124 -0.1734 -0.2309  0.4137
13288SOL    HW141080   4.780   8.088   0.092  0.1790  0.5701 -1.5981
13288SOL    HW241081   4.833   8.204   0.173  0.8756  0.1131 -1.3803
13289SOL     OW41082   4.102   7.596   1.000  0.2433 -0.7324 -0.0641
13289SOL    HW141083   4.075   7.509   0.971  1.6358 -1.5145  0.8208
13289SOL    HW241084   4.194   7.602   0.975 -0.3810  1.4525 -2.1774
13290SOL     OW41085   4.068   0.211   1.143  0.0103 -0.0904  0.0230
13290SOL    HW141086   4.019   0.280   1.097  0.0260  0.3626  0.6725
13290SOL    HW241087   4.065   0.237   1.235  0.1129 -0.9072  0.2615
13291SOL     OW41088   4.362   8.639   0.651  0.6297  0.2082 -0.2028
13291SOL    HW141089   4.415   8.561   0.631  0.7210  0.7764 -2.3883
13291SOL    HW241090   4.417   8.689   0.712  1.1236 -0.8297  0.2299
13292SOL     OW41091   5.808   8.294   2.012 -0.4526 -0.1277  0.0735
13292SOL    HW141092   5.883   8.320   1.959 -0.4901  0.2634  0.2103
13292SOL    HW241093   5.834   8.211   2.052 -0.3387 -0.3110 -0.3776
13293SOL     OW41094   4.241   7.646   0.549  0.1871 -0.1728 -0.1737
13293SOL    HW141095   4.205   7.715   0.494 -2.9258 -1.5014  0.0167
13293SOL    HW241096   4.200   7.565   0.517 -0.2882 -1.2460  2.8193
13294SOL     OW41097   4.566   8.006   0.325 -0.0812  0.0913 -0.0381
13294SOL    HW141098   4.597   8.035   0.411  0.2889  0.4987 -0.3090
13294SOL    HW241099   4.629   8.042   0.263 -0.0969 -0.5693 -0.4495
13295SOL     OW41100   4.830   8.300   0.610  0.0736 -0.2645 -0.0164
13295SOL    HW141101   4.900   8.249   0.652  0.3134 -0.6748 -0.8899
13295SOL    HW241102   4.754   8.243   0.612  0.3543 -0.6928 -1.0371
13296SOL     OW41103   5.819   0.194   2.094  0.2426  0.4084 -0.4594
13296SOL    HW141104   5.888   0.187   2.160  1.3632  0.4663 -1.6001
13296SOL    HW241105   5.744   0.149   2.133  1.2386 -0.5865  0.3716
13297SOL     OW41106   4.041   8.208   1.795  0.0819  0.4021  0.3369
13297SOL    HW141107   4.008   8.277   1.737 -0.6412  1.0403  1.4562
13297SOL    HW241108   4.043   8.130   1.741  0.4282  1.1921 -0.8280
13298SOL     OW41109   4.927   7.615   8.754 -0.0312 -0.4667 -0.2105
13298SOL    HW141110   4.951   7.523   8.740 -1.3707 -1.0601  1.1526
13298SOL    HW241111   4.907   7.621   8.847 -1.0046  0.9539 -0.4775
13299SOL     OW41112   5.112   8.234   8.330  0.6612 -0.2241  0.1548
13299SOL    HW141113   5.097   8.140   8.340  1.7055 -0.3850  0.2946
13299SOL    HW241114   5.202   8.241   8.298  0.0384  0.6430 -1.5493
13300SOL     OW41115   4.110   8.546   0.526 -0.2465 -0.1409  0.0596
13300SOL    HW141116   4.038   8.570   0.585 -0.9813 -2.0564 -0.0236
13300SOL    HW241117   4.187   8.544   0.583 -0.4949  0.5166  0.4321
13301SOL     OW41118   4.090   7.876   1.214  0.3228 -0.3866 -0.0869
13301SOL    HW141119   4.068   7.797   1.165 -0.2385 -0.6004  0.4969
13301SOL    HW241120   4.184   7.869   1.231  0.2023 -1.1155  0.2895
13302SOL     OW41121   4.724   8.219   1.634 -0.2494 -0.4348 -0.6028
13302SOL    HW141122   4.748   8.260   1.717 -1.1207  0.8265 -0.9399
13302SOL    HW241123   4.804   8.222   1.582  0.0510 -0.3569 -0.1444
13303SOL     OW41124   4.630   8.234   1.225 -0.2428  0.0621  0.2372
13303SOL    HW141125   4.561   8.301   1.224 -1.2065 -0.8157 -2.8406
13303SOL    HW241126   4.597   8.168   1.285 -0.1994  1.3665  1.7834
13304SOL     OW41127   4.420   8.427   1.243  0.0436  0.0164  0.2114
13304SOL    HW141128   4.370   8.488   1.297  0.3031 -0.2904  0.8112
13304SOL    HW241129   4.385   8.438   1.154  2.1522  3.3480 -0.3944
13305SOL     OW41130   3.818   8.392   0.905  0.4703  0.3413  0.2641
13305SOL    HW141131   3.886   8.350   0.957  1.0640 -0.0589 -0.8082
13305SOL    HW241132   3.742   8.334   0.914  0.9225 -0.3586 -0.2281
13306SOL     OW41133   3.884   7.932   1.908 -0.0821 -0.5646 -0.1227
13306SOL    HW141134   3.918   7.863   1.851  0.9817 -0.5684  0.4832
13306SOL    HW241135   3.801   7.897   1.942 -0.6149 -0.6460 -1.4748
13307SOL     OW41136   5.232   8.003   1.229 -0.1122 -0.3172  0.1971
13307SOL    HW141137   5.162   8.069   1.227  1.2423  1.1663 -0.8695
13307SOL    HW241138   5.210   7.942   1.159 -2.2000 -1.9863  2.1684
13308SOL     OW41139   4.396   8.242   0.402  0.4762 -0.2190 -0.1696
13308SOL    HW141140   4.403   8.150   0.375 -1.1508 -0.7101  0.9172
13308SOL    HW241141   4.303   8.263   0.390  0.8728  1.3933 -0.6568
13309SOL     OW41142   5.527   8.520   0.910  0.0286  0.4204  0.2961
13309SOL    HW141143   5.466   8.583   0.873  0.0107  0.5999  0.6320
13309SOL    HW241144   5.476   8.439   0.919  0.8253 -0.6418 -3.0785
13310SOL     OW41145   4.514   8.018   1.347  0.0368 -0.0595 -0.3807
13310SOL    HW141146   4.526   8.011   1.442 -0.5855  2.1840 -0.0973
13310SOL    HW241147   4.472   7.935   1.323 -0.4229 -0.3927  1.4017
13311SOL     OW41148   3.909   7.914   0.292 -0.0983  0.4699 -0.3783
13311SOL    HW141149   3.937   7.996   0.252 -0.3592  0.0451 -1.4549
13311SOL    HW241150   3.844   7.879   0.232 -0.8263  0.0291  0.6482
13312SOL     OW41151   3.536   0.383   1.535 -0.1264  0.2610  0.8436
13312SOL    HW141152   3.612   0.402   1.590 -0.1671 -1.4666  1.5759
13312SOL    HW241153   3.463   0.378   1.597 -1.4349  4.2341 -0.0669
13313SOL     OW41154   4.583   8.570   1.002 -0.2213  0.1672  0.0310
13313SOL    HW141155   4.626   8.491   0.969 -0.0801  0.8552 -1.5383
13313SOL    HW241156   4.639   8.600   1.074 -1.1882 -2.0546  1.8143
13314SOL     OW41157   4.984   8.438   0.403 -0.1982 -0.6956 -0.1342
13314SOL    HW141158   4.971   8.526   0.370  0.1422 -0.7136 -0.3132
13314SOL    HW241159   4.895   8.407   0.422 -0.3763 -0.5778 -0.7470
13315SOL     OW41160   3.841   0.050   1.408  0.2994  0.4360 -0.0022
13315SOL    HW141161   3.788  -0.029   1.399  0.3665  0.4497 -0.5470
13315SOL    HW241162   3.798   0.099   1.479 -1.1989  1.0312 -1.2398
13316SOL     OW41163   4.637   7.820   0.036  0.1405 -0.0643 -0.7371
13316SOL    HW141164   4.567   7.805  -0.027 -0.5390  0.9715 -0.2691
13316SOL    HW241165   4.595   7.807   0.121  0.9164 -0.9437 -0.4639
13317SOL     OW41166   5.498   7.989   0.425 -0.3001  0.0090  0.2378
13317SOL    HW141167   5.460   7.963   0.341  0.4440 -1.2451  0.2607
13317SOL    HW241168   5.436   7.958   0.491 -0.1965 -0.2812  0.2004
13318SOL     OW41169   4.898   8.565   0.670 -0.1674 -0.3456  0.1761
13318SOL    HW141170   4.981   8.588   0.630 -0.7306  0.4134 -0.5935
13318SOL    HW241171   4.885   8.473   0.646  0.4732 -0.4813  0.3468
13319SOL     OW41172   4.573   8.651   1.351 -0.5644 -0.7481 -0.0092
13319SOL    HW141173   4.576   8.730   1.404  0.6421 -0.7738  0.0093
13319SOL    HW241174   4.494   8.659   1.299  0.5530  1.4940 -1.5328
13320SOL     OW41175   5.378   7.318   1.025 -0.4468 -0.3466 -0.1621
13320SOL    HW141176   5.349   7.399   0.983 -0.4245 -0.3615 -0.2060
13320SOL    HW241177   5.405   7.345   1.113 -2.3340 -0.6068  0.5511
13321SOL     OW41178   4.166   7.872   0.405 -0.7919  0.3734 -0.4733
13321SOL    HW141179   4.074   7.872   0.377 -1.1576  0.2614  0.6829
13321SOL    HW241180   4.207   7.942   0.353 -1.7968  1.2133 -0.1739
13322SOL     OW41181   4.232   8.465   1.011 -0.0562 -0.2081 -0.0228
13322SOL    HW141182   4.293   8.407   0.965  0.1732  0.1528 -0.1741
13322SOL    HW241183   4.243   8.550   0.969 -0.9844 -0.2332 -0.3595
13323SOL     OW41184   4.552   8.735   8.790 -0.2763 -0.1210 -0.0057
13323SOL    HW141185   4.566   8.772   8.878 -0.1737 -0.4271  0.1062
13323SOL    HW241186   4.495   8.659   8.805 -0.0810 -0.3019 -0.1783
13324SOL     OW41187   4.048   8.569   1.230  0.4994 -0.1305  0.0677
13324SOL    HW141188   4.066   8.655   1.268  1.4753 -0.6489  0.8328
13324SOL    HW241189   4.071   8.578   1.138  0.2488  0.5262  0.0638
13325SOL     OW41190   5.700   0.261   1.462  0.2428 -0.0307 -0.2598
13325SOL    HW141191   5.790   0.263   1.493  0.4521 -2.8751 -0.4171
13325SOL    HW241192   5.698   0.322   1.388  2.0342  0.0530 -0.2798
13326SOL     OW41193   4.686   8.694   0.609  0.1571  0.2609 -0.0621
13326SOL    HW141194   4.760   8.633   0.604 -0.4200 -0.4756  0.2033
13326SOL    HW241195   4.692   8.744   0.528  0.0759 -0.8314 -0.7693
13327SOL     OW41196   4.683   7.759   0.374  0.0229 -0.5132 -0.5584
13327SOL    HW141197   4.624   7.816   0.326 -0.0439 -0.2178 -0.1367
13327SOL    HW241198   4.626   7.700   0.424  0.0881 -0.5637 -0.5421
13328SOL     OW41199   5.102   8.071   0.928  0.4550 -0.8303  0.2847
13328SOL    HW141200   5.032   8.007   0.945  0.0991 -0.2711  0.9963
13328SOL    HW241201   5.076   8.148   0.978  1.1212 -0.2902 -0.1850
13329SOL     OW41202   4.056   8.474   1.916 -0.5076  0.5578 -0.3346
13329SOL    HW141203   4.027   8.384   1.901  0.0228  0.2398  0.4682
13329SOL    HW241204   4.120   8.467   1.987  0.7373  1.3623 -1.3237
13330SOL     OW41205   4.263   7.461   1.258  0.8786  0.1718  0.6203
13330SOL    HW141206   4.167   7.465   1.256  0.8236 -0.9122 -0.2389
13330SOL    HW241207   4.283   7.371   1.230  2.1645  0.6495 -0.0621
13331SOL     OW41208   3.696   7.661   8.769  0.2383  0.3233  0.3895
13331SOL    HW141209   3.684   7.585   8.826 -1.0358  0.9970  1.0669
13331SOL    HW241210   3.685   7.626   8.680 -2.2624 -0.0172  0.7538
13332SOL     OW41211   4.777   8.671   1.182  0.2145 -0.0456 -0.1859
13332SOL    HW141212   4.715   8.689   1.252  1.5762  0.6279  0.8824
13332SOL    HW241213   4.782   8.754   1.133 -0.1308 -0.2728 -0.6202
13333SOL     OW41214   4.246   7.441   8.784  0.3980  0.1222  0.1589
13333SOL    HW141215   4.255   7.401   8.698 -0.5366 -0.1311  0.1685
13333SOL    HW241216   4.289   7.526   8.775 -0.7585  0.6225 -0.9335
13334SOL     OW41217   3.995   8.283   1.135  0.4705  0.0943  0.6238
13334SOL    HW141218   3.971   8.367   1.175 -0.9249 -0.6287  1.3652
13334SOL    HW241219   4.078   8.260   1.177  1.4272  1.5794 -0.3568
13335SOL     OW41220   4.476   7.748   1.918  0.0551  0.0599  0.1577
13335SOL    HW141221   4.487   7.683   1.849 -1.6659 -0.9303  0.7575
13335SOL    HW241222   4.500   7.831   1.876 -1.6671 -0.3805 -1.8993
13336SOL     OW41223   5.048   8.751   1.862 -0.2747  0.4488  0.7410
13336SOL    HW141224   5.111   8.803   1.913  0.7025  0.6356 -0.5974
13336SOL    HW241225   5.018   8.811   1.794 -0.5579 -0.1874  0.2981
13337SOL     OW41226   5.127   8.329   1.110 -0.4011  0.0095  0.2258
13337SOL    HW141227   5.039   8.330   1.148 -0.2020 -1.0242  0.7578
13337SOL    HW241228   5.179   8.384   1.168 -0.4778 -0.2150  0.5147
13338SOL     OW41229   4.636   8.093   0.568  0.0034  0.2725  0.2173
13338SOL    HW141230   4.559   8.044   0.595  1.4962 -2.9566 -0.8239
13338SOL    HW241231   4.709   8.049   0.612  1.4246  2.0655 -0.2128
13339SOL     OW41232   4.613   8.592   0.334 -0.0522  0.3241  0.0874
13339SOL    HW141233   4.578   8.564   0.419  1.4364 -0.6778  0.4136
13339SOL    HW241234   4.633   8.509   0.289 -1.8716  0.7995 -1.7352
13340SOL     OW41235   4.857   7.639   1.623  0.7514  0.1900  0.5460
13340SOL    HW141236   4.823   7.707   1.564  1.1405  0.5803  0.7663
13340SOL    HW241237   4.817   7.558   1.591  1.3405  0.3104 -0.5786
13341SOL     OW41238   5.292   8.564   1.241 -0.1979  0.2697 -0.3418
13341SOL    HW141239   5.367   8.610   1.279 -0.7110 -0.6556  1.9249
13341SOL    HW241240   5.221   8.629   1.242 -0.1853  0.2798  0.2505
13342SOL     OW41241   4.341   0.029   1.003 -0.1050  0.1417 -0.2714
13342SOL    HW141242   4.331   0.122   0.984  2.5059  0.7206  0.7281
13342SOL    HW241243   4.401  -0.003   0.936 -0.6540 -0.7406 -0.3575
13343SOL     OW41244   4.846   8.445   0.044  0.7562  0.4865  0.1070
13343SOL    HW141245   4.787   8.440  -0.031  1.0332  0.7961 -0.1324
13343SOL    HW241246   4.829   8.364   0.093 -1.9750  1.7935  1.6046
13344SOL     OW41247   3.723   0.142   1.626 -0.5501 -0.2219 -0.5502
13344SOL    HW141248   3.650   0.195   1.595 -0.0431  2.7214  2.6970
13344SOL    HW241249   3.697   0.115   1.714  1.1110 -1.6685 -0.4426
13345SOL     OW41250   3.607   8.683   0.296 -0.3678 -0.0238 -0.3215
13345SOL    HW141251   3.630   8.742   0.367 -0.4697  0.1663 -0.4439
13345SOL    HW241252   3.622   8.595   0.331 -0.4549  0.0675 -0.0550
13346SOL     OW41253   4.566   8.624   1.664  0.1291 -0.0447 -0.5485
13346SOL    HW141254   4.470   8.620   1.672 -0.1535  3.6615 -0.5234
13346SOL    HW241255   4.583   8.613   1.571 -0.4472  0.5029 -0.7254
13347SOL     OW41256   5.090   7.424   1.097 -0.4917  0.2329 -0.1037
13347SOL    HW141257   5.104   7.450   1.006  0.5654 -0.1398 -0.0513
13347SOL    HW241258   5.082   7.329   1.094 -1.1738  0.2786  0.1098
13348SOL     OW41259   4.067   8.293   0.414  0.2537  0.1264  0.2373
13348SOL    HW141260   4.079   8.387   0.432 -1.3078  0.0633  1.9421
13348SOL    HW241261   4.039   8.257   0.498 -1.2041 -1.5011 -0.8839
13349SOL     OW41262   5.425   8.796   1.100 -0.0199  0.2044 -0.4460
13349SOL    HW141263   5.441   8.709   1.064 -1.9928 -0.2673 -0.3288
13349SOL    HW241264   5.425   8.783   1.195 -1.1251  0.1373 -0.4411
13350SOL     OW41265   4.280   8.146   1.224  0.2527 -0.1830 -0.2910
13350SOL    HW141266   4.308   8.226   1.268 -2.0447  0.0668  0.8979
13350SOL    HW241267   4.358   8.091   1.220  1.3790  1.2600  0.8105
13351SOL     OW41268   4.908   7.842   0.971 -0.9860 -0.2092 -0.2321
13351SOL    HW141269   4.836   7.783   0.950 -1.0808 -1.1371  2.3924
13351SOL    HW241270   4.922   7.831   1.065  0.4341  2.3715 -0.0460
13352SOL     OW41271   4.831   7.541   1.198  0.0967  0.5692 -0.6399
13352SOL    HW141272   4.894   7.592   1.149 -0.1357  0.4630 -1.0520
13352SOL    HW241273   4.746   7.568   1.163 -0.1643  1.4962  0.6317
13353SOL     OW41274   4.556   0.416   0.467 -0.4682  0.2147  0.1872
13353SOL    HW141275   4.537   0.475   0.541  0.6344 -1.4319  1.8775
13353SOL    HW241276   4.623   0.462   0.416 -0.9604  1.2082  0.4033
13354SOL     OW41277   5.241   7.136   0.435  0.1358 -0.3956 -0.0827
13354SOL    HW141278   5.306   7.185   0.487  1.3707 -0.6545 -1.3208
13354SOL    HW241279   5.204   7.072   0.497 -0.3874  1.0525  1.1515
13355SOL     OW41280   4.790   8.103   0.863 -0.6139 -0.4798  0.0280
13355SOL    HW141281   4.709   8.056   0.884 -0.5541 -0.4876  0.2374
13355SOL    HW241282   4.857   8.035   0.861 -0.3646 -0.2885  1.2123
13356SOL     OW41283   5.387   7.824   0.805  0.5577  0.5008 -0.1901
13356SOL    HW141284   5.466   7.865   0.839  0.6765  0.4372 -0.3825
13356SOL    HW241285   5.340   7.895   0.760  0.9879  0.3405 -0.9194
13357SOL     OW41286   3.374   8.029   8.346 -0.1309 -0.2638 -0.5328
13357SOL    HW141287   3.323   8.023   8.427  1.6955 -1.3937  0.6033
13357SOL    HW241288   3.412   8.117   8.347 -0.0205 -0.3138 -0.0911
13358SOL     OW41289   4.168   8.428   2.184  0.0121  0.0402  0.2272
13358SOL    HW141290   4.132   8.348   2.148  0.2051  0.0532  0.0030
13358SOL    HW241291   4.209   8.400   2.267 -0.9814  0.1226  0.7560
13359SOL     OW41292   3.729   7.738   2.827 -0.1161  0.0150 -0.5315
13359SOL    HW141293   3.794   7.668   2.815  0.3793  0.1964  0.9288
13359SOL    HW241294   3.659   7.698   2.877 -0.2984  0.3008 -0.5553
13360SOL     OW41295   3.604   8.043   2.671  0.3779 -0.1834 -0.1603
13360SOL    HW141296   3.696   8.059   2.691  0.4855 -0.4832 -0.4044
13360SOL    HW241297   3.601   7.952   2.641 -0.3425 -0.9159  1.9778
13361SOL     OW41298   4.065   8.609   3.167  0.5252 -0.1743 -0.5056
13361SOL    HW141299   4.137   8.592   3.106  2.6508 -0.6235  1.9635
13361SOL    HW241300   4.045   8.702   3.156  2.7812  0.4394 -0.0408
13362SOL     OW41301   5.535   0.487   2.280  0.5180  0.6185 -0.3656
13362SOL    HW141302   5.506   0.419   2.340  1.6821  0.0782 -0.3961
13362SOL    HW241303   5.547   0.565   2.335  2.3746 -0.0777  0.3074
13363SOL     OW41304   5.031   8.172   2.423  0.0140  0.2203 -0.5367
13363SOL    HW141305   5.008   8.245   2.479  1.0468  0.4738 -0.4164
13363SOL    HW241306   4.987   8.190   2.340  0.5144  1.1625 -0.6167
13364SOL     OW41307   5.510   8.276   2.141  0.2071  0.2055  0.0112
13364SOL    HW141308   5.563   8.206   2.103  1.6868  1.4801 -0.3955
13364SOL    HW241309   5.528   8.352   2.085  0.5727  1.5181  1.8307
13365SOL     OW41310   4.308   8.639   2.565 -0.0704 -0.5219  0.2956
13365SOL    HW141311   4.313   8.551   2.601 -2.2312 -0.2792  1.3528
13365SOL    HW241312   4.346   8.695   2.632 -0.8209 -0.4323  0.6542
13366SOL     OW41313   4.655   7.652   3.582  0.0606  0.7550  0.4596
13366SOL    HW141314   4.749   7.672   3.586  0.4142 -0.6229 -0.3486
13366SOL    HW241315   4.617   7.729   3.539  1.1631  0.4198 -1.2308
13367SOL     OW41316   4.767   8.120   2.762  0.1363 -0.2480  0.6215
13367SOL    HW141317   4.766   8.110   2.667 -0.0891  1.0026  0.4662
13367SOL    HW241318   4.692   8.068   2.792 -0.0537 -0.3082  0.0697
13368SOL     OW41319   4.516   8.742   3.670 -0.7555  0.2487  0.1067
13368SOL    HW141320   4.575   8.808   3.706 -0.1279 -0.1132 -0.2336
13368SOL    HW241321   4.544   8.660   3.712 -1.5446  0.1883  0.5481
13369SOL     OW41322   4.009   0.033   3.153  0.3869  0.0285 -0.0306
13369SOL    HW141323   3.961   0.115   3.140 -0.6217  0.0199  2.8881
13369SOL    HW241324   4.100   0.060   3.162  0.0197  0.9616  1.3119
13370SOL     OW41325   4.417   8.104   3.422  0.9183 -0.4129  0.1024
13370SOL    HW141326   4.377   8.021   3.444  0.4210  0.0595  1.0509
13370SOL    HW241327   4.396   8.118   3.330  0.3092 -0.9485  0.1575
13371SOL     OW41328   5.438   8.191   1.756  0.4980  0.6651  0.3412
13371SOL    HW141329   5.364   8.236   1.797  2.0071  2.3425  1.3327
13371SOL    HW241330   5.429   8.100   1.786 -0.5688  1.0656  1.3336
13372SOL     OW41331   4.877   8.490   3.724 -0.2636 -0.3276  0.0766
13372SOL    HW141332   4.812   8.472   3.656  0.5011 -1.1171 -0.4669
13372SOL    HW241333   4.843   8.567   3.770 -1.1240 -0.1838 -0.7694
13373SOL     OW41334   4.365   8.358   2.355 -0.1362 -0.2560 -0.6181
13373SOL    HW141335   4.406   8.279   2.322 -0.7865 -0.5040 -0.8437
13373SOL    HW241336   4.370   8.351   2.450  2.3651  0.7795 -0.6037
13374SOL     OW41337   4.190   8.049   1.449 -0.2419 -0.0214 -0.0853
13374SOL    HW141338   4.243   8.114   1.495 -0.3492 -1.0739  1.6436
13374SOL    HW241339   4.203   8.068   1.357  1.3517  1.1617  0.3346
13375SOL     OW41340   5.480   7.275   3.215  0.6554  0.1964  0.3819
13375SOL    HW141341   5.476   7.325   3.133  0.5060  0.1675  0.3703
13375SOL    HW241342   5.475   7.341   3.284 -0.7632  0.1359  0.3768
13376SOL     OW41343   3.938   8.547   2.279 -0.4522  0.3669 -0.8814
13376SOL    HW141344   3.917   8.505   2.363  0.3976 -1.0999 -1.3654
13376SOL    HW241345   4.013   8.498   2.246 -0.6302  1.0690 -2.4002
13377SOL     OW41346   5.272   8.533   2.604  0.2486  0.0541 -0.5162
13377SOL    HW141347   5.280   8.625   2.577 -0.3642 -0.3215 -2.0575
13377SOL    HW241348   5.309   8.483   2.531  1.3747 -0.9291  0.6703
13378SOL     OW41349   5.291   8.511   1.996 -0.0406  0.2474 -0.2365
13378SOL    HW141350   5.277   8.475   2.084  1.6369  0.9873  0.3787
13378SOL    HW241351   5.219   8.572   1.983 -0.8526 -0.5852  0.2029
13379SOL     OW41352   3.759   8.461   3.301 -0.0417  0.2001  0.5462
13379SOL    HW141353   3.753   8.534   3.240  0.6664 -1.0407 -1.0833
13379SOL    HW241354   3.848   8.429   3.291 -0.4106 -1.0326  1.0439
13380SOL     OW41355   4.330   8.643   2.312 -0.2760 -0.0178 -0.0458
13380SOL    HW141356   4.360   8.554   2.298 -0.7115 -0.2084  0.1882
13380SOL    HW241357   4.328   8.653   2.407 -2.0616 -0.4250  0.0016
13381SOL     OW41358   5.210   8.726   3.370 -0.3031 -0.5243  0.6663
13381SOL    HW141359   5.256   8.653   3.327 -1.8089 -0.6628 -0.8077
13381SOL    HW241360   5.143   8.684   3.424  0.6039 -0.2883  2.0298
13382SOL     OW41361   4.513   7.217   2.605  0.3652 -0.7250 -0.4376
13382SOL    HW141362   4.453   7.144   2.593  0.9479 -1.2061 -0.4685
13382SOL    HW241363   4.571   7.189   2.676 -0.5904  0.4812  0.8826
13383SOL     OW41364   3.450   8.024   2.893 -0.5303 -0.3120 -0.0269
13383SOL    HW141365   3.504   8.046   2.817 -1.7435  0.3942 -0.7155
13383SOL    HW241366   3.497   8.060   2.968  0.9099 -1.4161 -0.3593
13384SOL     OW41367   5.056   8.059   1.821 -0.1894  0.2380 -0.3073
13384SOL    HW141368   5.105   8.025   1.747  0.8437 -0.0966  0.5066
13384SOL    HW241369   5.094   8.145   1.837  0.0644  0.0229  0.2621
13385SOL     OW41370   3.916   8.004   3.205  0.5419 -0.2813 -0.0349
13385SOL    HW141371   3.835   7.960   3.231 -0.0002  0.9451  0.4503
13385SOL    HW241372   3.986   7.952   3.245  0.1084 -2.1301 -1.5560
13386SOL     OW41373   4.913   8.539   2.859 -0.1528 -0.0196 -0.0363
13386SOL    HW141374   4.881   8.461   2.905 -2.1607  0.6733 -0.1656
13386SOL    HW241375   4.934   8.601   2.929 -1.7073  0.4754  0.0125
13387SOL     OW41376   4.305   8.319   1.830 -0.4708 -0.1995  0.0024
13387SOL    HW141377   4.216   8.288   1.815 -0.5104  0.5857 -1.6171
13387SOL    HW241378   4.348   8.308   1.745  0.6218  0.5466  0.4411
13388SOL     OW41379   4.733   8.040   3.124  0.5429 -0.1370  0.0135
13388SOL    HW141380   4.824   8.054   3.099  1.4321 -1.0957  2.4145
13388SOL    HW241381   4.697   7.986   3.054  2.2501 -0.9380 -0.2982
13389SOL     OW41382   4.555   7.975   2.872  0.7997  0.8353  0.0034
13389SOL    HW141383   4.564   7.888   2.832  0.1109  0.7772 -0.0281
13389SOL    HW241384   4.502   7.961   2.950  1.5153  1.0758  0.5485
13390SOL     OW41385   4.719   8.191   3.370 -0.2086  0.3588  0.3487
13390SOL    HW141386   4.682   8.113   3.409 -1.1743 -0.3034 -1.7333
13390SOL    HW241387   4.748   8.163   3.283  0.7407  1.9977  0.0888
13391SOL     OW41388   4.473   8.360   3.583  0.7272  0.0154 -0.0625
13391SOL    HW141389   4.384   8.394   3.596  0.5379 -0.3379 -0.3920
13391SOL    HW241390   4.461   8.285   3.525  1.0221 -1.1737  1.3505
13392SOL     OW41391   4.220   7.693   2.770  0.5634 -0.2186 -0.6355
13392SOL    HW141392   4.286   7.720   2.834  0.9245  1.6792 -1.7649
13392SOL    HW241393   4.265   7.698   2.685 -0.8969  0.7054 -1.3799
13393SOL     OW41394   4.961   7.787   2.122  0.4741 -0.3166 -0.6346
13393SOL    HW141395   5.027   7.800   2.189  1.2023  1.0130 -1.5635
13393SOL    HW241396   4.883   7.759   2.170  0.9699  0.6031  0.7677
13394SOL     OW41397   3.829   8.312   2.816 -0.3542 -0.0397  0.4480
13394SOL    HW141398   3.876   8.257   2.754  0.2909  0.6183  0.3463
13394SOL    HW241399   3.856   8.279   2.902 -0.8867 -0.6449  0.3894
13395SOL     OW41400   4.278   7.860   2.143  0.4735 -0.2145  0.2289
13395SOL    HW141401   4.193   7.816   2.146  1.0401 -1.3593  2.8025
13395SOL    HW241402   4.326   7.815   2.073 -0.6938 -0.2434 -0.5676
13396SOL     OW41403   5.385   8.005   3.571  0.3066 -0.8201  0.2875
13396SOL    HW141404   5.435   8.082   3.542  0.5149 -0.0389  2.5232
13396SOL    HW241405   5.399   8.003   3.666 -1.9468 -2.0169  0.6380
13397SOL     OW41406   5.111   0.039   2.767  0.3698 -0.1985  0.4854
13397SOL    HW141407   5.043   0.064   2.829  0.2362  0.5415  0.0624
13397SOL    HW241408   5.065  -0.007   2.697  0.0923  1.3037 -0.3763
13398SOL     OW41409   4.074   7.500   2.878  0.7472 -0.5480  0.0385
13398SOL    HW141410   4.090   7.488   2.972  0.2697  0.1517  0.2198
13398SOL    HW241411   4.114   7.585   2.858 -0.5238  0.0637 -0.0255
13399SOL     OW41412   5.633   7.957   2.908  0.7071  0.0297  0.4541
13399SOL    HW141413   5.683   7.876   2.914 -1.8524 -1.9475 -2.0350
13399SOL    HW241414   5.665   8.000   2.828  0.3029  0.1200  0.3362
13400SOL     OW41415   3.963   8.378   2.497  0.3131 -0.3542 -0.3579
13400SOL    HW141416   3.932   8.288   2.494 -0.0624 -0.2780  0.8749
13400SOL    HW241417   4.029   8.379   2.566 -0.6467  0.5884  0.5895
13401SOL     OW41418   5.114   8.392   2.176 -0.1933 -0.0533  0.0964
13401SOL    HW141419   5.059   8.316   2.161 -0.6747  0.8307 -3.4732
13401SOL    HW241420   5.053   8.464   2.191  0.1787  0.0812  1.0157
13402SOL     OW41421   4.118   8.218   3.707 -0.1558  0.1856 -0.5966
13402SOL    HW141422   4.147   8.173   3.786 -3.7099  1.1373  1.4727
13402SOL    HW241423   4.120   8.151   3.639  0.2199 -1.4932  1.0045
13403SOL     OW41424   4.099   7.702   3.359 -0.0862 -0.0778 -0.3341
13403SOL    HW141425   4.011   7.706   3.322  0.1246 -1.2990 -1.0113
13403SOL    HW241426   4.093   7.755   3.439 -1.8119 -1.2680  0.3877
13404SOL     OW41427   5.194   0.062   2.007  0.1466 -0.0380 -0.4533
13404SOL    HW141428   5.181   0.149   2.044 -0.9925  1.1598 -3.2871
13404SOL    HW241429   5.196   0.003   2.082  0.3357  2.3455  1.5345
13405SOL     OW41430   5.155   7.129   2.164  0.0267  0.3490 -0.1644
13405SOL    HW141431   5.087   7.072   2.129  0.6404 -0.5821  0.1219
13405SOL    HW241432   5.225   7.128   2.098 -0.0383  0.9383 -0.2521
13406SOL     OW41433   4.289   7.967   2.401 -0.3829 -0.3791  0.0856
13406SOL    HW141434   4.356   8.032   2.382 -0.5320 -0.2463  0.0141
13406SOL    HW241435   4.271   7.926   2.317 -3.0504  2.1029 -0.7222
13407SOL     OW41436   5.172   7.771   3.747 -0.5058  0.3638 -0.3287
13407SOL    HW141437   5.255   7.771   3.794 -1.1920  0.6557  0.9425
13407SOL    HW241438   5.107   7.797   3.813 -1.9532 -2.1114 -0.6717
13408SOL     OW41439   4.348   7.243   2.004 -0.1825 -0.3415 -0.0124
13408SOL    HW141440   4.311   7.213   2.086 -1.6599  0.2876 -0.4106
13408SOL    HW241441   4.282   7.303   1.968  1.9714  2.3117  0.0870
13409SOL     OW41442   5.010   7.532   3.939  0.8670 -0.3764  0.8115
13409SOL    HW141443   5.104   7.552   3.940  0.7900  0.6847 -2.2309
13409SOL    HW241444   4.968   7.615   3.962  0.6518 -0.6485  1.4128
13410SOL     OW41445   4.971   8.343   3.232  0.1277 -0.1019 -0.6165
13410SOL    HW141446   5.016   8.321   3.314  0.0145  0.7413 -0.3122
13410SOL    HW241447   4.920   8.421   3.254 -0.9140 -0.6140 -1.1529
13411SOL     OW41448   4.621   7.736   2.751  0.0272  0.1257  0.6624
13411SOL    HW141449   4.608   7.642   2.742  2.2369 -0.0758 -1.8470
13411SOL    HW241450   4.569   7.775   2.681  0.8751  0.5358  0.2347
13412SOL     OW41451   4.217   7.279   2.792  0.0315  0.1615 -0.3494
13412SOL    HW141452   4.159   7.345   2.830  0.4799  0.7583 -0.6795
13412SOL    HW241453   4.250   7.320   2.712  0.0045 -0.6253 -0.7700
13413SOL     OW41454   4.872   8.629   2.040 -0.4105 -0.1568 -0.0762
13413SOL    HW141455   4.942   8.677   1.995 -0.1916  0.5230  0.9611
13413SOL    HW241456   4.834   8.574   1.972  1.2257 -0.6690 -0.6424
13414SOL     OW41457   3.746   7.168   1.996 -0.0958 -0.5208 -0.0418
13414SOL    HW141458   3.711   7.124   2.074  2.0727 -2.9305 -0.2872
13414SOL    HW241459   3.840   7.175   2.012 -0.2011  4.2947 -0.0714
13415SOL     OW41460   4.517   6.822   2.397  0.0177 -0.4277 -0.0448
13415SOL    HW141461   4.547   6.740   2.437  0.8996 -0.5409 -0.9186
13415SOL    HW241462   4.573   6.889   2.436  1.3351 -0.6173 -1.5444
13416SOL     OW41463   4.543   7.882   3.484  0.3275 -0.1290  0.6208
13416SOL    HW141464   4.556   7.846   3.396 -1.7851  0.9907 -0.2267
13416SOL    HW241465   4.551   7.977   3.472  4.4380 -0.0260  2.5473
13417SOL     OW41466   4.378   0.217   2.478 -0.3911  0.3635  0.8592
13417SOL    HW141467   4.458   0.176   2.445 -0.4292  0.5738  0.4928
13417SOL    HW241468   4.405   0.260   2.560 -0.2606 -0.0372  1.0274
13418SOL     OW41469   4.567   8.726   2.193 -0.0850 -0.2134 -0.0657
13418SOL    HW141470   4.596   8.678   2.115  2.2529 -3.2062  2.3602
13418SOL    HW241471   4.482   8.688   2.215  0.0005 -0.5180 -0.2621
13419SOL     OW41472   4.784   7.707   1.890 -0.3120 -0.2496 -0.4452
13419SOL    HW141473   4.799   7.802   1.893 -0.0483 -0.2878 -0.5159
13419SOL    HW241474   4.781   7.686   1.797 -2.3706 -0.0081 -0.4777
13420SOL     OW41475   3.567   7.677   3.145 -0.0155 -0.2751  0.3461
13420SOL    HW141476   3.547   7.587   3.171 -1.5128 -0.1614 -0.3404
13420SOL    HW241477   3.495   7.703   3.088 -0.2265  1.7640  1.4435
13421SOL     OW41478   4.306   7.857   3.302 -0.0488 -0.1121 -0.5322
13421SOL    HW141479   4.389   7.809   3.304  0.1374  0.2130 -0.4210
13421SOL    HW241480   4.241   7.794   3.333  0.1365 -0.4046 -0.7342
13422SOL     OW41481   4.052   8.171   2.068  0.6493 -0.4213 -0.1500
13422SOL    HW141482   4.019   8.094   2.115 -2.1339  1.6305  1.5451
13422SOL    HW241483   4.012   8.164   1.981  0.4471 -0.9026 -0.0266
13423SOL     OW41484   4.383   7.761   2.551 -0.0089 -0.0538 -0.0240
13423SOL    HW141485   4.441   7.693   2.516 -0.6697 -0.4660 -0.3317
13423SOL    HW241486   4.355   7.810   2.475 -0.2620 -0.0112  0.0958
13424SOL     OW41487   5.346   8.810   2.898  0.1483  0.4181 -0.1291
13424SOL    HW141488   5.284   8.852   2.839  0.4703  1.6436  0.3809
13424SOL    HW241489   5.308   8.724   2.916 -1.0993  0.9322 -0.2806
13425SOL     OW41490   4.708   7.922   2.532 -0.2989  0.0596 -1.2884
13425SOL    HW141491   4.732   7.868   2.607  0.1354  2.1109  0.1584
13425SOL    HW241492   4.740   7.874   2.456 -0.7778 -2.1049 -0.1910
13426SOL     OW41493   5.911   8.268   2.290  0.1874 -0.1853 -0.0044
13426SOL    HW141494   5.949   8.324   2.222  1.7250 -1.6812 -0.4627
13426SOL    HW241495   5.987   8.236   2.339 -0.8550  0.4300  2.1096
13427SOL     OW41496   5.570   8.146   2.577 -0.7573 -0.1706  0.1591
13427SOL    HW141497   5.575   8.218   2.515  1.3327  0.2009  0.6696
13427SOL    HW241498   5.519   8.180   2.651 -2.3563 -0.2735 -0.8474
13428SOL     OW41499   5.221   8.007   1.570 -0.4181  0.0563  0.0848
13428SOL    HW141500   5.219   7.912   1.580 -1.0498 -0.0291 -0.6689
13428SOL    HW241501   5.312   8.028   1.552 -0.1125 -0.2933  1.1454
13429SOL     OW41502   4.144   7.458   1.991  0.7360  0.2826 -0.3210
13429SOL    HW141503   4.161   7.479   1.899 -1.0433  1.5714 -0.4227
13429SOL    HW241504   4.142   7.543   2.035  0.7964 -0.2578  0.7649
13430SOL     OW41505   5.144   8.297   3.486  0.4652 -0.0940  0.0226
13430SOL    HW141506   5.126   8.390   3.503  0.5807 -0.1642  0.5473
13430SOL    HW241507   5.228   8.296   3.440  0.8094  0.0231  0.6376
13431SOL     OW41508   4.663   8.633   2.976  0.2854  0.0464  0.8204
13431SOL    HW141509   4.592   8.643   3.039  0.4557  1.8971  0.7567
13431SOL    HW241510   4.741   8.664   3.023  0.3320  1.9499 -0.4305
13432SOL     OW41511   4.716   8.426   3.489  0.2766  0.4015  0.1970
13432SOL    HW141512   4.732   8.349   3.434  0.5366  0.9016 -0.4370
13432SOL    HW241513   4.625   8.418   3.516  0.5291 -0.5632  0.8340
13433SOL     OW41514   5.337   8.415   2.341  0.6276 -0.2520  0.4324
13433SOL    HW141515   5.391   8.364   2.281 -0.6045  0.2529 -1.1649
13433SOL    HW241516   5.248   8.407   2.306  0.3621  2.9687  0.0640
13434SOL     OW41517   5.168   7.205   3.725  0.2744 -0.1137 -0.3764
13434SOL    HW141518   5.184   7.140   3.657  0.1278  1.2227 -1.7531
13434SOL    HW241519   5.254   7.218   3.766  0.4048 -0.8057 -0.4218
13435SOL     OW41520   4.559   8.500   3.773  0.0151  0.0873 -0.0721
13435SOL    HW141521   4.584   8.443   3.845  0.7769  0.9116  0.3330
13435SOL    HW241522   4.511   8.443   3.713  1.9527 -1.3304 -0.3613
13436SOL     OW41523   4.381   8.264   1.552  0.3625  0.2369  0.3183
13436SOL    HW141524   4.475   8.279   1.566  0.8597 -1.6363 -0.6357
13436SOL    HW241525   4.349   8.345   1.514  1.6418  0.8557  0.5044
13437SOL     OW41526   3.999   8.358   3.210  0.4512 -0.4290 -0.4708
13437SOL    HW141527   4.042   8.438   3.178 -0.3819  0.2774  0.1424
13437SOL    HW241528   3.985   8.307   3.130  0.5294  0.2587 -0.9453
13438SOL     OW41529   4.824   7.745   3.145 -0.0407  0.0513 -0.9010
13438SOL    HW141530   4.894   7.775   3.202  0.2850 -0.3105 -1.1054
13438SOL    HW241531   4.856   7.761   3.056 -0.4953  0.5041 -0.9844
13439SOL     OW41532   4.347   8.512   2.006 -0.2130  0.0722 -0.1627
13439SOL    HW141533   4.309   8.490   2.090 -1.4208  1.7955 -0.2076
13439SOL    HW241534   4.337   8.433   1.953  0.5579 -1.0299  1.2743
13440SOL     OW41535   4.094   8.044   2.634 -0.1872 -0.3784 -0.7622
13440SOL    HW141536   4.111   8.125   2.682 -0.8967 -1.2943  1.1542
13440SOL    HW241537   4.148   8.050   2.556  0.5066  1.5050 -0.1867
13441SOL     OW41538   4.781   8.468   2.225  0.1619 -0.1914 -0.3670
13441SOL    HW141539   4.724   8.511   2.289  1.2560  0.9644 -0.1372
13441SOL    HW241540   4.822   8.540   2.178  2.1718 -0.9597  0.1339
13442SOL     OW41541   5.268   8.058   2.313  0.1339  0.2666  0.2162
13442SOL    HW141542   5.296   8.112   2.239 -0.3064 -0.6729 -0.6796
13442SOL    HW241543   5.210   8.114   2.364  2.3092  1.7177  1.2277
13443SOL     OW41544   3.964   7.970   3.831  0.1263  0.1487  0.2095
13443SOL    HW141545   4.026   7.937   3.895  2.4937  1.2093 -1.4055
13443SOL    HW241546   3.964   7.905   3.761  1.3404  1.3011 -0.9067
13444SOL     OW41547   5.365   8.250   3.296 -0.4180 -0.0793  0.1827
13444SOL    HW141548   5.453   8.220   3.271 -0.4682  0.5236 -0.7807
13444SOL    HW241549   5.306   8.191   3.250 -0.5367 -0.9543  1.4218
13445SOL     OW41550   4.771   6.916   3.945  0.0416 -0.3412  0.2753
13445SOL    HW141551   4.820   6.840   3.977 -2.5558 -1.4101  2.0381
13445SOL    HW241552   4.688   6.879   3.915 -0.3520  1.5651 -1.1040
13446SOL     OW41553   4.570   7.383   3.557  0.2770  0.0358 -0.0449
13446SOL    HW141554   4.535   7.469   3.582  0.2899 -0.0445  0.2468
13446SOL    HW241555   4.532   7.367   3.470 -0.9990 -0.3619  0.5634
13447SOL     OW41556   4.457   8.686   3.152 -0.2759 -0.5301 -0.2982
13447SOL    HW141557   4.438   8.682   3.246 -1.3467 -0.6129 -0.5117
13447SOL    HW241558   4.424   8.772   3.125 -0.8694 -0.9066 -0.7878
13448SOL     OW41559   4.536   8.310   2.557  0.3405  0.3258 -0.1070
13448SOL    HW141560   4.617   8.344   2.595  1.7479 -0.6000 -2.1457
13448SOL    HW241561   4.564   8.247   2.491 -2.0734 -0.5736 -0.3873
13449SOL     OW41562   4.834   7.998   1.986  0.2787  0.5909  0.2003
13449SOL    HW141563   4.895   7.950   2.042  2.4068  1.2525 -1.4149
13449SOL    HW241564   4.886   8.021   1.909 -1.8937  1.6987 -1.0106
13450SOL     OW41565   3.942   7.276   3.120 -0.6115 -0.2710 -0.3008
13450SOL    HW141566   3.888   7.317   3.053 -0.4007 -0.5355 -0.6395
13450SOL    HW241567   3.948   7.184   3.093  0.2133 -0.1971 -0.4192
13451SOL     OW41568   3.766   8.734   3.188  0.1328 -0.0527  0.0992
13451SOL    HW141569   3.703   8.784   3.136  0.5662 -1.1416 -1.5279
13451SOL    HW241570   3.846   8.785   3.185  0.2434 -0.2567 -0.5830
13452SOL     OW41571   4.693   8.599   2.464  0.0787  0.8273  0.1283
13452SOL    HW141572   4.612   8.589   2.514  0.8016  0.3522  1.2407
13452SOL    HW241573   4.762   8.575   2.525  0.9931  0.0147 -1.1781
13453SOL     OW41574   5.292   8.235   3.856  0.4736 -0.0952 -0.5671
13453SOL    HW141575   5.205   8.206   3.831  0.1229  0.3288  0.1391
13453SOL    HW241576   5.343   8.155   3.864 -0.1357 -0.4350  0.0523
13454SOL     OW41577   3.964   7.668   2.354  0.2554  0.1447  0.5247
13454SOL    HW141578   3.870   7.652   2.349  0.4599 -0.9431 -0.4514
13454SOL    HW241579   3.976   7.726   2.429 -1.0252 -1.0510  1.6891
13455SOL     OW41580   5.594   7.849   2.065  0.0709 -0.4629 -0.2112
13455SOL    HW141581   5.596   7.931   2.116  1.1268 -0.8446  0.3806
13455SOL    HW241582   5.540   7.870   1.989 -1.0533  0.3071  0.7472
13456SOL     OW41583   4.126   8.321   2.729 -0.8687 -0.5567 -0.5610
13456SOL    HW141584   4.075   8.345   2.806 -0.4332 -0.3779 -0.3273
13456SOL    HW241585   4.209   8.289   2.764 -0.4204  0.1259 -0.9701
13457SOL     OW41586   5.640   0.003   3.503  1.0215  0.0680  0.2879
13457SOL    HW141587   5.555   0.024   3.464  1.6228  1.4580 -0.3465
13457SOL    HW241588   5.688  -0.044   3.434  1.2005  0.3604  0.2114
13458SOL     OW41589   3.695   8.661   3.955  0.3924  0.3417  0.0571
13458SOL    HW141590   3.729   8.585   4.002  1.0066  0.4499 -0.2125
13458SOL    HW241591   3.772   8.706   3.921 -0.0466 -0.9576 -3.0023
13459SOL     OW41592   5.091   7.665   1.906 -0.1448  0.1041 -0.3611
13459SOL    HW141593   4.996   7.660   1.895 -0.4071  3.5064 -0.5465
13459SOL    HW241594   5.104   7.696   1.995  0.7599  0.3020 -0.5466
13460SOL     OW41595   4.913   8.201   2.189  0.6759 -0.2656 -0.1209
13460SOL    HW141596   4.900   8.146   2.112  0.1606  0.8769 -0.8889
13460SOL    HW241597   4.872   8.284   2.165  0.7869  0.2092  1.2789
13461SOL     OW41598   3.854   8.001   2.788 -0.1751  0.0287  0.4109
13461SOL    HW141599   3.930   7.967   2.742 -1.5749 -0.6985 -1.5002
13461SOL    HW241600   3.808   7.924   2.821 -1.4505  0.2356 -0.7827
13462SOL     OW41601   3.847   8.145   2.461  0.7442  0.1578 -0.0764
13462SOL    HW141602   3.900   8.109   2.390 -0.4772 -1.8040 -0.0414
13462SOL    HW241603   3.758   8.116   2.442 -0.2517  2.6895  0.3159
13463SOL     OW41604   5.090   7.971   3.558  0.0102 -0.2058  0.1923
13463SOL    HW141605   5.172   7.935   3.592  0.4933  0.7166  0.0319
13463SOL    HW241606   5.114   8.056   3.522 -0.6705 -0.7013 -1.5595
13464SOL     OW41607   5.131   7.530   3.273  0.3442  0.0618 -0.2867
13464SOL    HW141608   5.160   7.490   3.355  0.5353 -0.1366 -0.4498
13464SOL    HW241609   5.071   7.600   3.300 -0.6346 -0.8509 -0.0214
13465SOL     OW41610   4.018   8.702   1.713  0.5367  0.1957  0.5428
13465SOL    HW141611   4.037   8.647   1.790 -1.0115  0.5078  1.1715
13465SOL    HW241612   3.992   8.786   1.750  0.7197  0.6566 -0.3652
13466SOL     OW41613   4.396   8.222   3.184 -0.3464  0.0148  0.5320
13466SOL    HW141614   4.320   8.253   3.135  0.0338 -0.9760 -0.7649
13466SOL    HW241615   4.461   8.203   3.117  1.1196  0.9671  1.6244
13467SOL     OW41616   3.286   8.495   3.075 -0.3331 -0.0876 -0.2520
13467SOL    HW141617   3.278   8.436   2.999 -2.0381 -1.3383  0.8008
13467SOL    HW241618   3.211   8.472   3.130 -0.3421  2.2611  0.8198
13468SOL     OW41619   3.989   8.193   3.000 -0.2096  0.3738 -0.5610
13468SOL    HW141620   3.944   8.136   3.061 -1.4456  2.1390  0.2702
13468SOL    HW241621   4.039   8.134   2.943 -0.0432 -1.3814  1.3173
13469SOL     OW41622   5.028   8.250   3.742  0.0447  0.2774 -0.1000
13469SOL    HW141623   5.052   8.258   3.650  2.5523 -1.7737  0.2572
13469SOL    HW241624   4.993   8.336   3.765  1.4781  1.5923 -2.4065
13470SOL     OW41625   4.358   8.129   2.082  0.4448  0.7707 -0.2096
13470SOL    HW141626   4.278   8.076   2.090  0.0883  1.3222 -0.0689
13470SOL    HW241627   4.336   8.196   2.018  0.8889  0.7659 -0.3690
13471SOL     OW41628   5.035   7.794   2.835 -0.0467 -0.1230 -0.1526
13471SOL    HW141629   5.032   7.833   2.747 -1.2188 -0.7072 -0.3873
13471SOL    HW241630   5.024   7.700   2.820 -0.8493 -0.1691  0.6439
13472SOL     OW41631   4.311   8.168   2.835 -0.2214  0.2509 -0.3637
13472SOL    HW141632   4.404   8.155   2.814 -0.0200 -0.7815  1.0593
13472SOL    HW241633   4.286   8.088   2.881 -1.6523  0.8165 -0.1285
13473SOL     OW41634   4.057   7.706   2.099  0.5141 -0.1015 -0.0295
13473SOL    HW141635   3.971   7.720   2.060  1.1540  1.7990 -0.8947
13473SOL    HW241636   4.040   7.657   2.179 -1.2634 -0.5543 -0.6379
13474SOL     OW41637   4.023   8.715   3.703 -0.9373 -0.0348  0.1805
13474SOL    HW141638   3.992   8.761   3.624  1.6731  0.4432 -0.6641
13474SOL    HW241639   3.984   8.628   3.697 -0.1340 -0.3092 -2.1628
13475SOL     OW41640   5.045   8.279   2.685 -0.0840  0.0555 -0.0222
13475SOL    HW141641   4.977   8.297   2.750 -0.5605 -0.8743 -0.2373
13475SOL    HW241642   5.126   8.272   2.736 -0.1373  1.1749  0.2356
13476SOL     OW41643   5.657   8.051   2.233 -0.0006 -0.1193 -0.3563
13476SOL    HW141644   5.726   8.115   2.212 -0.4939  0.1949 -1.0696
13476SOL    HW241645   5.609   8.092   2.305 -0.0108  0.0909 -0.4799
13477SOL     OW41646   3.522   8.585   2.950  0.6404 -0.1454  0.1063
13477SOL    HW141647   3.553   8.497   2.930 -0.2907 -0.2630 -0.9545
13477SOL    HW241648   3.432   8.572   2.981 -0.4570  0.5512 -2.4900
13478SOL     OW41649   5.444   7.900   2.516 -0.1404  0.3238 -0.0397
13478SOL    HW141650   5.487   7.978   2.549  0.4498 -0.2749  0.6180
13478SOL    HW241651   5.380   7.934   2.453  1.2981  1.2247 -1.0842
13479SOL     OW41652   4.810   0.053   2.057 -0.0614  0.2391  0.3053
13479SOL    HW141653   4.809  -0.043   2.052 -1.8548  0.2467 -0.1105
13479SOL    HW241654   4.839   0.072   2.146 -0.7283 -0.7350  0.7548
13480SOL     OW41655   4.152   8.672   3.442  0.2396  0.1571  0.0313
13480SOL    HW141656   4.114   8.759   3.459 -0.6691 -0.3221  0.5666
13480SOL    HW241657   4.108   8.643   3.362  1.7723  0.8566 -1.1191
13481SOL     OW41658   5.412   7.731   2.748 -0.4356 -0.5740 -0.1353
13481SOL    HW141659   5.495   7.691   2.772 -0.5186 -0.2522  0.7144
13481SOL    HW241660   5.429   7.773   2.663  0.5882  0.4625  0.5645
13482SOL     OW41661   4.013   7.775   2.603 -0.0709  0.1390  0.1180
13482SOL    HW141662   4.052   7.863   2.603 -0.0617  0.1534  1.5179
13482SOL    HW241663   4.071   7.723   2.658 -0.4323 -0.5882 -0.1771
13483SOL     OW41664   4.220   8.308   3.393  0.3925  0.3482 -0.6438
13483SOL    HW141665   4.164   8.365   3.339  0.6563  1.2168 -0.0138
13483SOL    HW241666   4.302   8.302   3.344  0.4977  0.8280 -0.5312
13484SOL     OW41667   4.520   8.137   2.316 -0.1844  0.1249 -0.1316
13484SOL    HW141668   4.477   8.117   2.233 -0.7744 -1.3694  0.5186
13484SOL    HW241669   4.603   8.089   2.312 -0.1954  0.0840  0.1345
13485SOL     OW41670   4.002   0.059   3.484 -0.9370 -0.1146  0.2072
13485SOL    HW141671   4.035   0.144   3.515  1.7918 -0.4746 -1.4314
13485SOL    HW241672   3.927   0.082   3.429 -1.4155  1.0372  1.2639
13486SOL     OW41673   5.231   8.370   2.885  0.5207 -0.9618 -0.6855
13486SOL    HW141674   5.265   8.411   2.805  4.3925 -0.1784  1.1493
13486SOL    HW241675   5.227   8.441   2.949 -1.8165 -1.7041  0.0880
13487SOL     OW41676   4.496   0.142   2.078 -0.5434 -0.3575  0.3577
13487SOL    HW141677   4.568   0.080   2.093 -0.4891 -0.2247  0.6529
13487SOL    HW241678   4.422   0.087   2.054 -1.1331 -0.7520  2.8515
13488SOL     OW41679   4.528   7.486   2.799 -0.3710  0.3361 -0.0302
13488SOL    HW141680   4.577   7.477   2.880 -1.0900 -1.5992  0.2555
13488SOL    HW241681   4.539   7.402   2.754 -1.6401  0.6180 -0.9533
13489SOL     OW41682   5.473   7.556   3.040  0.2135  0.3455 -0.2133
13489SOL    HW141683   5.436   7.644   3.037  0.4686  0.4738  0.2516
13489SOL    HW241684   5.430   7.509   2.968 -1.6058  0.1753  0.9323
13490SOL     OW41685   3.607   8.337   3.809 -0.5829 -1.3094  0.0959
13490SOL    HW141686   3.594   8.422   3.768  1.6775 -1.4816 -1.1955
13490SOL    HW241687   3.653   8.356   3.891  1.8840 -1.2728 -1.1814
13491SOL     OW41688   4.964   7.197   3.289 -0.2941 -0.2287 -0.1225
13491SOL    HW141689   4.931   7.138   3.222 -0.6351  1.6777 -1.7483
13491SOL    HW241690   4.887   7.218   3.343 -0.2637 -0.8904  0.1863
13492SOL     OW41691   3.636   7.822   1.505 -0.6482  0.1198  0.5234
13492SOL    HW141692   3.541   7.813   1.508 -0.5311 -1.1594  1.1238
13492SOL    HW241693   3.652   7.913   1.532 -1.7007  0.4850 -0.0219
13493SOL     OW41694   4.821   8.614   3.330  0.4851 -0.0258  0.0388
13493SOL    HW141695   4.787   8.702   3.347 -1.2940  0.1919 -3.7760
13493SOL    HW241696   4.752   8.556   3.363  0.7199  0.0766  0.7178
13494SOL     OW41697   3.653   7.475   2.028 -0.4180 -0.3588 -0.2464
13494SOL    HW141698   3.570   7.440   1.997 -0.0845 -0.6028 -0.8711
13494SOL    HW241699   3.720   7.425   1.981  0.0833 -0.0314  0.1035
13495SOL     OW41700   4.163   7.846   3.611  0.0346 -0.4450  0.0101
13495SOL    HW141701   4.230   7.871   3.674  1.9328  0.7813 -2.3216
13495SOL    HW241702   4.142   7.927   3.565 -3.1715 -0.7870  0.6668
13496SOL     OW41703   4.582   7.752   3.249 -0.3178  0.0784  0.0548
13496SOL    HW141704   4.676   7.753   3.230 -0.0421 -0.1565  1.3114
13496SOL    HW241705   4.556   7.661   3.236 -0.3199  0.0946 -0.0546
13497SOL     OW41706   5.378   8.544   3.304  0.3182  0.0973 -0.5628
13497SOL    HW141707   5.466   8.580   3.297  0.8635 -1.0485  0.1133
13497SOL    HW241708   5.391   8.449   3.307 -0.8151 -0.0488  1.0036
13498SOL     OW41709   4.850   8.310   2.954 -0.0233 -0.4138 -0.3151
13498SOL    HW141710   4.805   8.241   2.905  2.6997 -2.3764 -0.3271
13498SOL    HW241711   4.873   8.269   3.038  1.4283  0.5382 -0.2040
13499SOL     OW41712   4.773   7.698   2.354 -0.1286  0.2632 -0.5093
13499SOL    HW141713   4.793   7.611   2.390  0.0310  0.9823  1.2185
13499SOL    HW241714   4.698   7.683   2.297  0.2981 -1.1095 -0.7636
13500SOL     OW41715   4.532   8.376   2.964  0.2684 -0.0922  0.5419
13500SOL    HW141716   4.603   8.379   3.029 -1.2054  1.2082  2.1859
13500SOL    HW241717   4.550   8.450   2.906  1.3055 -0.9494 -0.2713
13501SOL     OW41718   5.301   7.621   3.493 -0.0755  0.4366  0.0982
13501SOL    HW141719   5.315   7.599   3.585 -0.1302 -1.9073 -0.3870
13501SOL    HW241720   5.211   7.653   3.490 -1.3172 -2.6463  0.4551
13502SOL     OW41721   5.152   8.111   3.186 -0.5053 -0.8853  0.6808
13502SOL    HW141722   5.104   8.041   3.143 -1.2050 -0.0731  0.1032
13502SOL    HW241723   5.093   8.186   3.183  0.6318  0.0269  0.3193
13503SOL     OW41724   4.236   0.205   2.189 -0.3091 -0.4408  0.2610
13503SOL    HW141725   4.235   0.119   2.229 -0.3160 -0.0811  1.0538
13503SOL    HW241726   4.326   0.236   2.198 -0.3919 -0.2114  0.3168
13504SOL     OW41727   4.280   8.486   3.023 -0.0764 -0.4890  0.2493
13504SOL    HW141728   4.346   8.536   3.070 -0.4167  1.2967 -1.0535
13504SOL    HW241729   4.328   8.416   2.979  0.8924  0.4814 -0.2666
13505SOL     OW41730   5.197   8.294   1.843  0.4046 -0.0347 -1.0852
13505SOL    HW141731   5.198   8.355   1.918 -0.3257 -0.6132 -0.6016
13505SOL    HW241732   5.174   8.349   1.768 -2.9019 -0.1108 -0.2561
13506SOL     OW41733   3.698   0.355   3.535  0.2752  0.4997 -1.1267
13506SOL    HW141734   3.663   0.444   3.531  0.9682  0.8272 -0.2810
13506SOL    HW241735   3.626   0.302   3.568 -0.0852  0.7765 -1.4599
13507SOL     OW41736   3.824   8.598   2.902  0.1787 -0.2338 -0.0067
13507SOL    HW141737   3.831   8.504   2.891  0.1329 -0.2131 -0.2037
13507SOL    HW241738   3.809   8.610   2.996 -0.7296 -0.4767 -0.1124
13508SOL     OW41739   4.282   0.112   3.162 -0.0721  0.0422  0.5099
13508SOL    HW141740   4.291   0.109   3.258  1.7684 -0.6825  0.3591
13508SOL    HW241741   4.304   0.202   3.139  2.5723 -0.5173  0.5718
13509SOL     OW41742   5.379   7.410   2.746  0.1326 -0.0665  0.3062
13509SOL    HW141743   5.451   7.356   2.714 -1.0035 -0.5374 -1.5863
13509SOL    HW241744   5.394   7.497   2.708 -0.0626 -0.0482  0.2677
13510SOL     OW41745   4.204   7.485   2.379  0.0586 -0.0199  0.4475
13510SOL    HW141746   4.127   7.429   2.387 -1.1095  0.9366 -2.6226
13510SOL    HW241747   4.168   7.574   2.374  1.0693  0.3383 -2.7055
13511SOL     OW41748   5.229   8.580   3.063  0.1698  0.2902 -0.0244
13511SOL    HW141749   5.256   8.549   3.149  0.1336 -1.2363 -0.5297
13511SOL    HW241750   5.138   8.609   3.075  0.6834  1.6574  0.7835
13512SOL     OW41751   4.303   7.961   3.027 -0.2091 -0.2269 -0.2378
13512SOL    HW141752   4.328   7.872   3.002  2.4187  0.5803 -0.8163
13512SOL    HW241753   4.280   7.955   3.119  3.1403 -1.0890  0.6976
13513SOL     OW41754   5.085   7.503   2.767 -0.0171  0.0561 -0.8534
13513SOL    HW141755   5.176   7.502   2.797 -0.8841  1.3685  2.2422
13513SOL    HW241756   5.088   7.548   2.682  2.0848  1.4436 -0.1324
13514SOL     OW41757   4.717   7.165   2.754  0.1171 -0.4698 -0.2042
13514SOL    HW141758   4.713   7.112   2.834  0.0130 -0.3261 -0.1124
13514SOL    HW241759   4.793   7.222   2.767 -0.8596  0.7291  0.5431
13515SOL     OW41760   4.322   0.000   1.864 -0.1567 -0.3125  0.0116
13515SOL    HW141761   4.271  -0.041   1.795 -1.6753  0.9462  0.3280
13515SOL    HW241762   4.295  -0.045   1.944 -0.0198 -0.3140  0.0577
13516SOL     OW41763   5.129   7.672   2.507  0.2272 -0.0273  0.0059
13516SOL    HW141764   5.136   7.686   2.413 -0.0102  1.4017  0.1773
13516SOL    HW241765   5.116   7.760   2.543  1.0934 -0.4684  1.4452
13517SOL     OW41766   4.430   7.484   2.519  0.2919  0.1038 -0.6500
13517SOL    HW141767   4.450   7.401   2.562  1.6117  0.2621 -0.9007
13517SOL    HW241768   4.345   7.471   2.477 -1.3051  0.0907  2.3438
13518SOL     OW41769   4.999   7.935   2.601 -0.1311 -0.0435  0.1247
13518SOL    HW141770   4.934   8.000   2.572  0.0786 -0.6470 -1.8945
13518SOL    HW241771   5.084   7.977   2.585 -0.0017  0.1945  1.3821
13519SOL     OW41772   3.692   0.097   2.390 -0.2132  0.1889  0.1797
13519SOL    HW141773   3.673   0.004   2.376 -1.0416  0.6253 -1.9120
13519SOL    HW241774   3.706   0.132   2.302  1.6091  1.7608  1.0193
13520SOL     OW41775   3.850   8.228   3.638  0.0707 -0.2551 -0.0894
13520SOL    HW141776   3.937   8.230   3.678 -1.0980  0.4547  2.6380
13520SOL    HW241777   3.823   8.320   3.636 -0.1598 -0.3336 -2.0798
13521SOL     OW41778   3.451   7.619   4.474 -0.2896 -0.5191 -0.1813
13521SOL    HW141779   3.470   7.538   4.428  1.4125  0.2815 -0.9869
13521SOL    HW241780   3.356   7.626   4.473 -0.3673 -1.3703 -2.1085
13522SOL     OW41781   3.584   7.803   4.077  0.5185  0.4902  0.3243
13522SOL    HW141782   3.580   7.845   4.163  0.0420  0.9660  0.0734
13522SOL    HW241783   3.636   7.862   4.023  0.4486  0.4037  0.1616
13523SOL     OW41784   4.346   8.769   4.946  0.2461  1.2167 -0.1258
13523SOL    HW141785   4.285   8.699   4.968  0.3616  0.9796 -0.5521
13523SOL    HW241786   4.421   8.755   5.003 -0.2670  1.7646  0.7096
13524SOL     OW41787   5.276   0.020   4.376  0.3393  0.1039 -0.0912
13524SOL    HW141788   5.188  -0.000   4.345  0.8115 -1.2344 -0.6178
13524SOL    HW241789   5.297   0.104   4.335 -1.9164  2.2283  2.6471
13525SOL     OW41790   4.666   8.099   4.452 -0.1010  0.2806 -0.6834
13525SOL    HW141791   4.656   8.188   4.484 -0.4760  0.2834 -0.8051
13525SOL    HW241792   4.595   8.050   4.493  0.6844 -0.1826  0.1660
13526SOL     OW41793   5.504   8.043   3.825 -0.3411  1.1146 -0.6135
13526SOL    HW141794   5.598   8.037   3.806 -0.1703  1.4287  0.1143
13526SOL    HW241795   5.495   8.001   3.911 -1.2494 -1.2584 -1.7794
13527SOL     OW41796   4.244   8.234   4.685  0.1959 -0.4529 -0.0676
13527SOL    HW141797   4.162   8.263   4.726  1.2831 -1.2149  2.9104
13527SOL    HW241798   4.308   8.300   4.711  1.2599 -1.8046  0.8411
13528SOL     OW41799   4.540   7.812   5.851 -0.5577  0.0084  0.3089
13528SOL    HW141800   4.495   7.732   5.881  0.6338 -0.8140 -0.0184
13528SOL    HW241801   4.609   7.780   5.793 -1.4430  1.4343 -1.6313
13529SOL     OW41802   4.065   8.162   4.170  0.2418 -0.1127 -0.5091
13529SOL    HW141803   4.092   8.156   4.261  0.3768  1.8218 -0.3707
13529SOL    HW241804   3.970   8.172   4.173  0.3417  0.9865 -0.4838
13530SOL     OW41805   4.133   8.205   5.660  0.2996  0.1424  0.0193
13530SOL    HW141806   4.118   8.111   5.652 -1.7345  0.1491  2.5260
13530SOL    HW241807   4.207   8.223   5.602 -0.3474 -2.6738 -1.8413
13531SOL     OW41808   3.739   8.561   4.311  0.0277  0.3130 -0.4240
13531SOL    HW141809   3.803   8.610   4.261 -1.0784  3.0313  0.5872
13531SOL    HW241810   3.654   8.587   4.274 -0.6158 -1.1637 -0.0767
13532SOL     OW41811   3.657   7.716   5.256  0.4750 -0.5484  0.0594
13532SOL    HW141812   3.660   7.791   5.198  1.5468 -1.1727 -0.7268
13532SOL    HW241813   3.649   7.753   5.344  1.3600  0.4891 -0.2849
13533SOL     OW41814   5.323   8.142   4.615  0.3077 -0.1236 -0.0956
13533SOL    HW141815   5.382   8.085   4.665 -0.8318  0.6320  2.2913
13533SOL    HW241816   5.237   8.129   4.655 -0.4021  1.6280 -0.9247
13534SOL     OW41817   4.506   8.607   5.433  0.1166 -0.2844 -0.1803
13534SOL    HW141818   4.594   8.629   5.465  0.1909  0.9625 -1.1606
13534SOL    HW241819   4.488   8.521   5.470  1.6573 -0.4622  0.2331
13535SOL     OW41820   3.989   8.305   4.760  0.2863 -0.5085 -0.0701
13535SOL    HW141821   3.965   8.220   4.798  0.2558  0.1417  1.4244
13535SOL    HW241822   3.946   8.369   4.817  0.9922  0.5370 -0.6939
13536SOL     OW41823   4.242   8.487   3.708 -0.0884 -0.1109 -0.1663
13536SOL    HW141824   4.185   8.411   3.697 -0.3548  0.1086 -0.3267
13536SOL    HW241825   4.186   8.562   3.688  0.5389  0.0525 -1.3925
13537SOL     OW41826   5.304   7.451   4.854 -0.0428 -0.0803 -0.3453
13537SOL    HW141827   5.367   7.379   4.861 -0.7594 -0.6095  1.0782
13537SOL    HW241828   5.332   7.499   4.777  0.7169 -1.6395 -1.0997
13538SOL     OW41829   3.754   7.620   4.291  0.3275  0.1128  0.1873
13538SOL    HW141830   3.789   7.693   4.240 -0.8435 -1.1911 -2.7172
13538SOL    HW241831   3.677   7.657   4.335  1.5182  1.3326  1.3724
13539SOL     OW41832   5.462   8.386   4.731  0.0970  0.4478 -0.4256
13539SOL    HW141833   5.412   8.464   4.705 -0.4405  0.0049 -0.7376
13539SOL    HW241834   5.439   8.320   4.666 -1.0866 -0.6015  0.9906
13540SOL     OW41835   5.049   8.583   4.110 -0.0415 -0.1102  0.1897
13540SOL    HW141836   5.093   8.555   4.030  0.1630  0.6208  0.0439
13540SOL    HW241837   5.029   8.676   4.096  0.6342  0.2151  1.2654
13541SOL     OW41838   3.352   7.813   5.387 -0.1212 -0.2582  0.6352
13541SOL    HW141839   3.343   7.755   5.463 -1.9857 -0.8204  0.0367
13541SOL    HW241840   3.422   7.874   5.411 -0.1815 -0.8692  2.5014
13542SOL     OW41841   4.358   8.228   4.311  0.4790 -0.0315  0.2259
13542SOL    HW141842   4.317   8.312   4.334  1.2942  0.3174  0.4584
13542SOL    HW241843   4.375   8.235   4.217  0.9366  0.2451  0.3259
13543SOL     OW41844   4.705   8.366   5.113 -1.1692  0.0540  0.0614
13543SOL    HW141845   4.650   8.298   5.154 -0.3345 -0.6989 -0.0458
13543SOL    HW241846   4.720   8.429   5.183  0.9191 -1.6203  1.2449
13544SOL     OW41847   4.476   7.528   4.031 -0.3250  0.2772 -0.3054
13544SOL    HW141848   4.547   7.510   3.970 -0.1908  0.3000 -0.1577
13544SOL    HW241849   4.411   7.576   3.980 -0.5290 -0.3221 -0.6105
13545SOL     OW41850   4.135   8.135   5.271 -0.0828 -0.2072 -0.3454
13545SOL    HW141851   4.052   8.143   5.223 -0.5573  0.8486  0.5927
13545SOL    HW241852   4.116   8.071   5.340 -0.4190  0.6938  0.4231
13546SOL     OW41853   5.205   8.508   3.901  0.5070  0.1122 -0.4315
13546SOL    HW141854   5.245   8.423   3.884 -2.5298 -1.1904 -1.6672
13546SOL    HW241855   5.219   8.558   3.820 -0.7904 -0.5713 -1.1083
13547SOL     OW41856   4.131   7.806   5.433  0.2610 -0.2851  0.5910
13547SOL    HW141857   4.066   7.785   5.500 -0.0066  0.6972  0.6525
13547SOL    HW241858   4.175   7.723   5.416 -1.1278 -1.0147  0.4060
13548SOL     OW41859   5.133   8.834   4.942 -0.2670 -0.0235 -0.1685
13548SOL    HW141860   5.069   8.772   4.976  0.1518 -0.8991 -0.9507
13548SOL    HW241861   5.085   8.887   4.880 -0.5643  0.2742  0.3083
13549SOL     OW41862   4.118   7.861   4.002  0.4627  0.5176  0.1884
13549SOL    HW141863   4.178   7.800   3.958  0.4172  0.5186  0.1244
13549SOL    HW241864   4.164   7.886   4.082  0.1660 -0.1757  0.5841
13550SOL     OW41865   5.237   7.757   4.648  0.1636 -0.4157 -0.1791
13550SOL    HW141866   5.165   7.699   4.673 -0.7548 -1.0130 -3.7112
13550SOL    HW241867   5.315   7.702   4.657 -0.3337 -1.1757 -0.3596
13551SOL     OW41868   4.721   7.732   5.232 -0.1093 -0.3265 -0.3343
13551SOL    HW141869   4.797   7.715   5.176  1.4504  2.0100  0.8872
13551SOL    HW241870   4.674   7.802   5.188  2.1933  2.9254  1.9580
13552SOL     OW41871   5.328   7.657   5.203  0.2561 -0.3679  0.2044
13552SOL    HW141872   5.368   7.571   5.186  3.8372  0.8053  1.7831
13552SOL    HW241873   5.343   7.706   5.122 -1.2030 -0.9385 -0.4544
13553SOL     OW41874   4.467   8.353   5.510 -0.4691 -0.1771  0.1315
13553SOL    HW141875   4.424   8.294   5.448  0.8314  0.4419 -1.4430
13553SOL    HW241876   4.558   8.324   5.513 -0.4646 -0.0859  1.6657
13554SOL     OW41877   4.381   7.422   4.510  0.0271  0.0628 -0.2513
13554SOL    HW141878   4.302   7.408   4.459  0.6563  1.6893 -1.7651
13554SOL    HW241879   4.452   7.390   4.455  0.6821  1.4096 -0.2320
13555SOL     OW41880   4.175   7.526   4.231 -0.4724  0.3697  0.0358
13555SOL    HW141881   4.142   7.447   4.274  0.8500 -0.9270 -1.2162
13555SOL    HW241882   4.159   7.511   4.138 -0.5844  1.8030 -0.2059
13556SOL     OW41883   3.537   7.861   4.367  0.2866  0.1963  0.0308
13556SOL    HW141884   3.501   7.934   4.417 -0.6247 -0.1386 -0.1212
13556SOL    HW241885   3.506   7.783   4.412  0.2041 -0.1028 -0.5356
13557SOL     OW41886   4.670   7.501   3.830  0.3190 -0.4934 -0.7858
13557SOL    HW141887   4.761   7.472   3.829  0.7665  0.7826  0.1976
13557SOL    HW241888   4.666   7.571   3.765  0.8318  1.5287  1.2199
13558SOL     OW41889   5.181   8.427   5.064  0.1016  0.7155  0.2873
13558SOL    HW141890   5.088   8.437   5.042  0.5054  2.2174 -0.9848
13558SOL    HW241891   5.213   8.358   5.006 -0.0062  0.9236 -0.0217
13559SOL     OW41892   4.661   8.284   3.952  0.0199  0.8058 -0.0678
13559SOL    HW141893   4.707   8.358   3.992 -0.2925  0.2833  1.3094
13559SOL    HW241894   4.643   8.225   4.025 -2.3142  0.7157 -0.6589
13560SOL     OW41895   4.091   7.323   4.389  0.2722 -0.1054 -0.0062
13560SOL    HW141896   3.995   7.321   4.391  0.1726  1.8650 -0.8819
13560SOL    HW241897   4.115   7.240   4.347 -1.0781 -0.3373 -0.3681
13561SOL     OW41898   5.306   8.626   4.848  0.2887  0.0121  0.2456
13561SOL    HW141899   5.254   8.706   4.859  0.6666  0.2588  0.2727
13561SOL    HW241900   5.253   8.557   4.886 -0.5127  0.0672 -0.7361
13562SOL     OW41901   3.626   8.379   4.466 -0.5290  0.1052 -0.1513
13562SOL    HW141902   3.591   8.321   4.399  0.0991 -1.6337  0.9506
13562SOL    HW241903   3.690   8.433   4.420  0.0993 -1.2562 -0.9354
13563SOL     OW41904   4.763   8.511   4.070  0.2384  0.3236 -0.0869
13563SOL    HW141905   4.841   8.552   4.032  0.3671 -1.4977 -2.0178
13563SOL    HW241906   4.779   8.512   4.164  1.5991  1.8774 -0.2770
13564SOL     OW41907   3.579   0.026   5.144 -0.1683  0.4805  0.5970
13564SOL    HW141908   3.579  -0.027   5.064 -0.9150  2.4638 -0.8087
13564SOL    HW241909   3.623  -0.029   5.209 -0.7349 -1.7453 -0.7856
13565SOL     OW41910   3.409   7.696   4.922  0.1655 -0.8700 -0.1467
13565SOL    HW141911   3.370   7.729   5.003  0.9693  1.9032 -0.7763
13565SOL    HW241912   3.446   7.611   4.946 -2.9552 -1.9487  1.3586
13566SOL     OW41913   5.293   8.593   3.639  0.2382 -0.2707 -0.3377
13566SOL    HW141914   5.347   8.671   3.625  0.6290 -0.0703  1.8946
13566SOL    HW241915   5.222   8.601   3.575 -1.5106  3.5969  1.7606
13567SOL     OW41916   5.013   7.183   3.957  0.3858  0.5072  0.4308
13567SOL    HW141917   5.019   7.092   3.987  0.1207  0.7784  1.3213
13567SOL    HW241918   5.071   7.186   3.881  0.5117 -0.3714  0.4758
13568SOL     OW41919   3.890   7.853   4.156 -0.3633 -0.5128 -0.2388
13568SOL    HW141920   3.949   7.849   4.081 -0.6913 -1.0085 -0.4720
13568SOL    HW241921   3.855   7.942   4.154 -0.5269 -0.5833 -0.8022
13569SOL     OW41922   5.156   8.002   5.264  0.2157 -0.1754  0.4750
13569SOL    HW141923   5.198   8.082   5.293  0.9564 -1.0554  1.9597
13569SOL    HW241924   5.091   8.030   5.199  0.8577  1.5333  0.5356
13570SOL     OW41925   4.788   7.620   4.130  0.0741 -0.1196 -0.0322
13570SOL    HW141926   4.790   7.542   4.074  1.3856  0.6339 -1.0995
13570SOL    HW241927   4.842   7.597   4.205  1.6447  0.1915 -1.0148
13571SOL     OW41928   4.197   7.615   4.928  0.3360 -0.3051  0.4198
13571SOL    HW141929   4.245   7.643   4.850  1.1908 -0.5492  0.8401
13571SOL    HW241930   4.169   7.696   4.970  0.7352 -0.1456  0.3790
13572SOL     OW41931   5.338   7.750   4.912  0.1980  0.1147  0.0197
13572SOL    HW141932   5.350   7.660   4.884  2.3143  0.1875  0.4799
13572SOL    HW241933   5.380   7.803   4.844 -0.0257  0.6625  0.2950
13573SOL     OW41934   4.737   7.470   4.734  0.3059 -0.6809 -0.1593
13573SOL    HW141935   4.712   7.511   4.651  0.8560  1.0550  0.4845
13573SOL    HW241936   4.656   7.435   4.769 -0.6280  1.5614  0.1241
13574SOL     OW41937   4.305   7.217   3.995 -0.8108  0.6327 -0.2937
13574SOL    HW141938   4.215   7.245   3.977 -0.9897 -0.3030 -0.9126
13574SOL    HW241939   4.358   7.270   3.935 -0.7292  2.5318  1.3379
13575SOL     OW41940   4.976   8.182   4.180  0.2785 -0.4649  0.6421
13575SOL    HW141941   4.882   8.177   4.190  0.1433 -2.1164 -0.9302
13575SOL    HW241942   4.989   8.242   4.106  0.4258 -0.7097  0.4676
13576SOL     OW41943   3.678   7.556   3.881 -0.1504 -0.7762 -0.0608
13576SOL    HW141944   3.649   7.610   3.954  0.2320 -1.6451  0.7558
13576SOL    HW241945   3.699   7.618   3.812 -2.2484 -0.0268 -0.0786
13577SOL     OW41946   4.723   7.874   4.064 -0.6640 -0.3883 -0.1804
13577SOL    HW141947   4.756   7.787   4.088  0.3589 -0.1314 -0.6214
13577SOL    HW241948   4.756   7.888   3.975 -0.6966  0.5162 -0.0540
13578SOL     OW41949   4.553   7.715   4.911 -0.5755 -0.5339 -0.7432
13578SOL    HW141950   4.495   7.733   4.837 -0.1506  0.1204 -0.9278
13578SOL    HW241951   4.599   7.634   4.886 -2.6148 -2.0725  0.1625
13579SOL     OW41952   4.983   8.837   4.071 -0.5119 -0.0583  0.1107
13579SOL    HW141953   4.965   8.925   4.104  0.3131  0.2038 -0.0958
13579SOL    HW241954   4.926   8.828   3.995  0.6803  1.0232 -0.9737
13580SOL     OW41955   3.977   8.420   4.499 -0.5195  0.3027  0.3300
13580SOL    HW141956   3.908   8.485   4.508 -0.4888  0.3561  0.1766
13580SOL    HW241957   3.998   8.394   4.589 -1.6965 -0.7255  0.3216
13581SOL     OW41958   5.013   7.765   3.398 -0.0420  0.0683  0.4008
13581SOL    HW141959   5.036   7.855   3.423  1.6533 -0.3479  0.5093
13581SOL    HW241960   4.962   7.732   3.471  1.7832  0.0474  1.7503
13582SOL     OW41961   3.270   7.763   5.143 -0.3534 -0.0331  0.0389
13582SOL    HW141962   3.296   7.766   5.235 -1.4312 -1.1562  0.4136
13582SOL    HW241963   3.176   7.783   5.144 -0.3488  0.0682 -0.8241
13583SOL     OW41964   4.220   7.770   5.173  0.6535 -0.2047  0.3022
13583SOL    HW141965   4.233   7.691   5.226 -0.0854 -0.0371  0.7486
13583SOL    HW241966   4.187   7.835   5.235 -0.4442 -0.0732 -0.3848
13584SOL     OW41967   4.581   7.711   4.290  0.2060  0.8254  0.4538
13584SOL    HW141968   4.636   7.678   4.220  1.6587  1.3119  1.3295
13584SOL    HW241969   4.516   7.767   4.246  2.6640  3.2619 -0.3230
13585SOL     OW41970   4.688   7.650   4.537 -0.1417  0.1141  0.3643
13585SOL    HW141971   4.620   7.669   4.472  0.4203  0.1442 -0.2271
13585SOL    HW241972   4.734   7.733   4.549 -1.0890  0.4670  1.8355
13586SOL     OW41973   4.765   8.558   4.357 -0.1489 -0.1089 -0.2729
13586SOL    HW141974   4.689   8.524   4.404 -0.8794 -0.4831 -1.6556
13586SOL    HW241975   4.840   8.535   4.411 -0.6836 -3.0737 -0.6506
13587SOL     OW41976   5.131   8.643   4.593 -0.2179 -0.1245 -0.6912
13587SOL    HW141977   5.170   8.719   4.635  2.9239 -0.8914 -1.8630
13587SOL    HW241978   5.126   8.666   4.500 -4.2427  0.4658 -0.4813
13588SOL     OW41979   5.710   8.293   3.906 -0.2239 -0.2936 -0.1328
13588SOL    HW141980   5.741   8.381   3.928 -0.0366 -1.0187  2.9295
13588SOL    HW241981   5.626   8.308   3.862  0.2349  1.4137 -0.5214
13589SOL     OW41982   5.588   8.842   4.399 -0.4819  0.6232  0.5938
13589SOL    HW141983   5.534   8.763   4.409  2.2877 -1.4189  0.7232
13589SOL    HW241984   5.630   8.853   4.484  1.2670  0.5431 -0.2195
13590SOL     OW41985   4.853   8.034   3.867  0.2931 -0.5426 -0.3712
13590SOL    HW141986   4.768   8.065   3.835  1.0652  3.0524  0.5333
13590SOL    HW241987   4.917   8.091   3.823  2.0012 -1.1393  1.2118
13591SOL     OW41988   4.332   7.595   3.544 -0.8219  1.0356  0.2430
13591SOL    HW141989   4.316   7.689   3.546 -3.7279  0.7009 -1.5128
13591SOL    HW241990   4.246   7.556   3.529  0.5292 -1.8023 -0.9520
13592SOL     OW41991   5.349   8.781   5.328  0.2534  0.0005  0.3926
13592SOL    HW141992   5.365   8.687   5.335  0.7675 -0.0192 -0.8093
13592SOL    HW241993   5.423   8.821   5.374  0.4288 -0.1741  0.2647
13593SOL     OW41994   4.685   8.335   4.845 -0.0908 -0.1122 -0.0339
13593SOL    HW141995   4.644   8.250   4.833 -0.0915 -0.2229  0.6900
13593SOL    HW241996   4.670   8.356   4.937 -0.8715  1.0868 -0.4212
13594SOL     OW41997   4.511   8.539   4.513  0.0024 -0.1336 -0.3918
13594SOL    HW141998   4.451   8.606   4.547  0.3610 -0.0647  0.1153
13594SOL    HW241999   4.454   8.476   4.470 -0.2914  0.9158 -1.6203
13595SOL     OW42000   4.767   8.548   5.302 -0.5047 -0.3374 -0.0996
13595SOL    HW142001   4.823   8.618   5.336 -1.6206  1.5137 -1.9063
13595SOL    HW242002   4.766   8.483   5.372  0.9489  1.2115  1.4616
13596SOL     OW42003   5.016   7.458   4.490  0.2548 -0.0566 -0.0518
13596SOL    HW142004   4.984   7.532   4.439 -1.5021 -0.4702  0.3766
13596SOL    HW242005   5.013   7.489   4.581 -0.9598 -0.7990  0.1703
13597SOL     OW42006   4.315   8.031   5.529 -0.4307 -0.1133  0.6764
13597SOL    HW142007   4.296   7.969   5.459 -0.4918  0.1926  0.4178
13597SOL    HW242008   4.410   8.026   5.542 -0.1572  1.1081 -0.6560
13598SOL     OW42009   3.776   8.404   4.050 -0.2654 -0.1567 -0.4063
13598SOL    HW142010   3.784   8.369   4.139 -0.1748  1.2602  0.1780
13598SOL    HW242011   3.866   8.420   4.022 -0.3386  0.6805 -0.1968
13599SOL     OW42012   3.918   8.053   4.864 -0.7873  0.3394  0.1429
13599SOL    HW142013   3.865   8.038   4.785  0.5007 -0.9621 -0.5198
13599SOL    HW242014   3.978   7.979   4.867  1.8437  2.3296  0.1611
13600SOL     OW42015   4.921   7.702   5.049 -0.0257 -0.4348  0.9699
13600SOL    HW142016   4.976   7.761   4.997 -0.6432  0.9095  1.8068
13600SOL    HW242017   4.955   7.615   5.029  0.6057  0.1395 -0.6623
13601SOL     OW42018   3.912   0.059   3.935  0.1433 -0.1086  0.2998
13601SOL    HW142019   3.993   0.037   3.889  0.9423  1.9860  0.5836
13601SOL    HW242020   3.863   0.114   3.874 -0.1825  0.2207  0.8426
13602SOL     OW42021   4.028   7.624   4.484 -0.6477  0.8109 -0.1694
13602SOL    HW142022   3.990   7.590   4.403  1.2727 -0.2376 -0.7130
13602SOL    HW242023   4.052   7.546   4.533  0.6536  1.3910  0.1638
13603SOL     OW42024   4.309   8.213   4.052 -0.0569  0.0526  0.0427
13603SOL    HW142025   4.222   8.194   4.088  1.1177 -1.5491  2.2386
13603SOL    HW242026   4.355   8.130   4.054  1.1863  0.5945 -2.3134
13604SOL     OW42027   5.209   8.536   4.326 -0.2526  0.0127 -0.2230
13604SOL    HW142028   5.180   8.456   4.370 -0.8473  0.5092  0.3095
13604SOL    HW242029   5.140   8.554   4.261  0.4163 -0.4894 -1.1007
13605SOL     OW42030   3.729   8.118   5.388 -0.3524 -0.5426  0.0683
13605SOL    HW142031   3.767   8.036   5.421  0.7319  0.0059  0.2234
13605SOL    HW242032   3.772   8.132   5.304  1.4235  1.1656  1.1752
13606SOL     OW42033   4.832   8.407   5.556  0.2594  0.2815 -0.2633
13606SOL    HW142034   4.790   8.321   5.565  0.2127  0.0566 -2.2193
13606SOL    HW242035   4.788   8.461   5.621 -1.7497 -0.4576 -0.9253
13607SOL     OW42036   4.299   7.270   5.368  0.4584 -0.5078 -0.1049
13607SOL    HW142037   4.306   7.175   5.369  1.3027 -0.5128 -2.1089
13607SOL    HW242038   4.292   7.293   5.275 -0.6087  1.3424  0.3838
13608SOL     OW42039   3.619   7.768   5.638  0.1081 -0.0063  0.0607
13608SOL    HW142040   3.583   7.681   5.622  1.4580 -0.3764 -1.2228
13608SOL    HW242041   3.599   7.786   5.730 -0.7298 -1.3966  0.1831
13609SOL     OW42042   3.651   8.249   4.717  0.0554  0.0655  0.1917
13609SOL    HW142043   3.618   8.284   4.634 -1.5555 -1.6867  0.0235
13609SOL    HW242044   3.737   8.212   4.695  0.2804  0.8873 -0.3587
13610SOL     OW42045   5.077   8.401   4.703  0.3653  0.4455 -0.5612
13610SOL    HW142046   5.051   8.352   4.625  1.0696  1.9020 -1.7472
13610SOL    HW242047   5.064   8.493   4.680  0.4624  0.9162  1.0973
13611SOL     OW42048   5.012   7.829   3.960 -0.0111  0.1157  0.0228
13611SOL    HW142049   5.051   7.861   4.042  1.1361 -0.9690 -0.0785
13611SOL    HW242050   4.964   7.905   3.926  0.5147  0.9549  1.0706
13612SOL     OW42051   4.033   7.839   4.983  0.2693  0.0266 -0.0284
13612SOL    HW142052   3.998   7.753   4.960  1.1150  0.1109 -1.7967
13612SOL    HW242053   4.079   7.825   5.066 -0.5437 -0.9473  0.2767
13613SOL     OW42054   3.708   8.545   4.706  1.0031  0.2025  0.0847
13613SOL    HW142055   3.741   8.577   4.790  1.2330 -1.6954  0.7600
13613SOL    HW242056   3.694   8.452   4.719  0.7774 -0.1002 -1.9185
13614SOL     OW42057   4.582   8.090   4.866 -0.0459  0.0806  0.4104
13614SOL    HW142058   4.490   8.063   4.865  0.2740 -1.0660 -0.9308
13614SOL    HW242059   4.629   8.014   4.833  1.2413  1.1613 -0.2989
13615SOL     OW42060   5.082   8.288   5.373  0.4755 -0.3376 -0.5150
13615SOL    HW142061   5.021   8.325   5.437  1.6086 -1.3407  1.2239
13615SOL    HW242062   5.026   8.245   5.308 -0.7136  0.8926 -0.3255
13616SOL     OW42063   4.029   7.550   3.760 -1.0570  0.2436  0.0899
13616SOL    HW142064   3.957   7.612   3.753 -0.5353  0.7093 -1.5531
13616SOL    HW242065   4.041   7.517   3.671 -1.1098 -2.0052  0.8543
13617SOL     OW42066   5.309   8.129   4.279  0.3437  0.4566  0.0938
13617SOL    HW142067   5.372   8.170   4.337  0.9212  1.0475 -0.9109
13617SOL    HW242068   5.227   8.126   4.329  1.5811 -2.2858  2.2628
13618SOL     OW42069   4.801   7.897   4.542 -0.1971  0.5184  0.1833
13618SOL    HW142070   4.759   7.976   4.509  1.3341  1.8858  1.3457
13618SOL    HW242071   4.802   7.909   4.637  2.0703  0.1751  0.2372
13619SOL     OW42072   5.609   8.638   4.946 -0.3234  0.2704  0.3533
13619SOL    HW142073   5.626   8.587   4.867 -0.7458  0.8200 -0.1093
13619SOL    HW242074   5.532   8.596   4.985 -0.3432  0.2233  0.2648
13620SOL     OW42075   3.707   8.392   5.566  0.0665  0.1570 -0.0736
13620SOL    HW142076   3.798   8.413   5.586  0.3594  0.0759 -1.2783
13620SOL    HW242077   3.712   8.320   5.502 -0.8269  0.6407 -0.7104
13621SOL     OW42078   5.099   7.904   4.224 -0.3094 -0.1465 -0.1679
13621SOL    HW142079   5.080   7.992   4.191  2.3489  0.1913 -1.0317
13621SOL    HW242080   5.094   7.913   4.319 -0.9470  0.7092 -0.2644
13622SOL     OW42081   4.599   8.126   3.727  0.2351  0.6357  0.5768
13622SOL    HW142082   4.624   8.167   3.810  0.9359  0.5016  0.4364
13622SOL    HW242083   4.571   8.199   3.672  2.2389  1.0512  0.0540
13623SOL     OW42084   4.083   8.115   4.438 -0.1292  0.3176 -0.1686
13623SOL    HW142085   4.127   8.183   4.489 -0.5433  0.7237 -0.3406
13623SOL    HW242086   4.001   8.100   4.485  0.4909 -0.9446  0.5548
13624SOL     OW42087   3.913   7.885   4.437 -0.1150  0.2727  0.1009
13624SOL    HW142088   3.865   7.867   4.356 -1.2036 -0.0127  0.7935
13624SOL    HW242089   3.925   7.799   4.477  0.4383  0.4097  0.2363
13625SOL     OW42090   5.090   7.901   4.931 -0.2094  0.4496 -0.0642
13625SOL    HW142091   5.123   7.969   4.873  1.8424 -0.2351  0.2046
13625SOL    HW242092   5.161   7.836   4.934 -0.0935  0.5458  3.3355
13626SOL     OW42093   4.789   7.484   5.374 -0.0508  0.0897  0.1198
13626SOL    HW142094   4.768   7.554   5.313  0.7446 -0.9076 -1.3501
13626SOL    HW242095   4.704   7.453   5.406 -0.4441  1.0282  0.0074
13627SOL     OW42096   3.535   0.157   3.612  0.1912 -0.4106 -0.4620
13627SOL    HW142097   3.498   0.213   3.681  0.3535  0.8122 -1.3412
13627SOL    HW242098   3.594   0.098   3.659 -2.2197 -1.9146  0.8817
13628SOL     OW42099   4.795   7.882   4.819 -0.1719 -0.3087  0.5565
13628SOL    HW142100   4.757   7.804   4.860  0.6055 -0.1668  1.5911
13628SOL    HW242101   4.880   7.891   4.860 -0.1016  0.8864  0.1767
13629SOL     OW42102   3.542   7.778   4.707 -0.4574 -0.2881 -0.5219
13629SOL    HW142103   3.508   7.747   4.790  0.4289  0.0187 -0.0355
13629SOL    HW242104   3.520   7.709   4.645  0.4130 -1.3489  0.3117
13630SOL     OW42105   3.546   7.492   5.656 -0.4881 -0.1578  0.7199
13630SOL    HW142106   3.618   7.482   5.719  0.9035  1.5697 -0.4732
13630SOL    HW242107   3.533   7.404   5.621  0.1317 -0.7527  1.8918
13631SOL     OW42108   4.642   8.078   5.151  0.1490 -0.0131  0.0377
13631SOL    HW142109   4.571   8.018   5.176  0.4240 -0.4280 -0.1740
13631SOL    HW242110   4.624   8.100   5.060  0.1563  0.0760  0.0571
13632SOL     OW42111   4.370   7.922   3.781  0.3416  0.0292 -0.0283
13632SOL    HW142112   4.407   7.924   3.870  1.3338 -1.0874 -0.3926
13632SOL    HW242113   4.440   7.957   3.726 -0.3551  0.9330 -0.3605
13633SOL     OW42114   5.100   7.924   4.494  0.1220  0.2759 -0.1506
13633SOL    HW142115   5.149   7.876   4.561 -0.0736 -0.1217 -0.2909
13633SOL    HW242116   5.009   7.920   4.523  0.1287  0.7734 -0.0394
13634SOL     OW42117   4.469   7.865   5.129  0.5801 -0.5482 -0.5311
13634SOL    HW142118   4.496   7.805   5.059 -0.6749  1.3069 -2.7203
13634SOL    HW242119   4.385   7.830   5.158  1.3233 -1.5944  0.4524
13635SOL     OW42120   4.280   7.670   3.855  0.1843 -0.6201 -0.1126
13635SOL    HW142121   4.223   7.631   3.789 -0.1711  1.3366 -1.0547
13635SOL    HW242122   4.319   7.745   3.811 -1.7641  2.1538  2.4342
13636SOL     OW42123   3.840   8.463   4.988  0.3462  0.1840 -0.1938
13636SOL    HW142124   3.763   8.424   5.029 -0.2016  0.6941 -0.7196
13636SOL    HW242125   3.852   8.547   5.032  0.1595  0.4317 -0.6106
13637SOL     OW42126   4.947   8.414   4.929 -0.5515 -0.3926  0.1209
13637SOL    HW142127   4.995   8.407   4.847 -0.8735  0.8916 -0.1961
13637SOL    HW242128   4.857   8.390   4.906 -1.2554  2.4701 -0.5692
13638SOL     OW42129   4.691   8.134   4.171 -0.2150  0.2430  0.2579
13638SOL    HW142130   4.677   8.155   4.263 -2.0857 -2.5393  0.7219
13638SOL    HW242131   4.716   8.041   4.171 -0.5246  0.1018 -2.0364
13639SOL     OW42132   3.853   8.761   4.848  0.0306  0.0271  0.1546
13639SOL    HW142133   3.785   8.735   4.909  1.1906 -0.0999  1.4292
13639SOL    HW242134   3.827   8.849   4.819  0.2731  0.7765  2.0820
13640SOL     OW42135   5.347   7.929   4.070 -0.3266  0.1726  0.6180
13640SOL    HW142136   5.288   7.873   4.120 -0.0567 -0.0891  0.6484
13640SOL    HW242137   5.359   8.007   4.125 -2.3229  1.2209 -0.3091
13641SOL     OW42138   4.689   8.355   4.573 -0.7819 -0.1549 -0.2282
13641SOL    HW142139   4.630   8.428   4.559 -0.2958  0.2582 -0.1417
13641SOL    HW242140   4.703   8.352   4.667 -1.4840 -0.9120 -0.1289
13642SOL     OW42141   4.418   8.414   4.799 -0.2706  0.2886 -0.0535
13642SOL    HW142142   4.423   8.504   4.767  0.2777  0.7259  1.1955
13642SOL    HW242143   4.504   8.397   4.837 -0.6919 -0.4036  0.6284
13643SOL     OW42144   5.710   7.603   4.321  0.2594 -0.5169 -0.0923
13643SOL    HW142145   5.715   7.586   4.415  0.4562 -1.2735 -0.2334
13643SOL    HW242146   5.733   7.695   4.312 -2.7078  0.4666  0.9130
13644SOL     OW42147   3.517   7.392   4.328  0.1213  0.3721 -0.3410
13644SOL    HW142148   3.604   7.375   4.363  0.5447  0.6211 -1.2397
13644SOL    HW242149   3.528   7.389   4.233 -0.8576  0.3727 -0.4709
13645SOL     OW42150   4.325   7.996   4.822 -0.1677  0.3847 -0.0411
13645SOL    HW142151   4.292   7.937   4.754  1.8604 -1.5355  0.4974
13645SOL    HW242152   4.307   8.084   4.789 -1.6414 -0.4928 -1.7690
13646SOL     OW42153   4.324   7.691   4.697 -0.6835  0.2873  0.7064
13646SOL    HW142154   4.355   7.606   4.667  1.1556  0.3644  2.2130
13646SOL    HW242155   4.299   7.737   4.617 -2.2339 -1.8177 -0.0978
13647SOL     OW42156   4.154   8.603   5.033  0.6534 -0.3056  0.0959
13647SOL    HW142157   4.137   8.515   5.068 -1.6316  0.4310  1.0930
13647SOL    HW242158   4.093   8.659   5.081  2.7061  2.0160  0.1835
13648SOL     OW42159   5.298   0.116   5.121 -0.3533  0.2236  0.2271
13648SOL    HW142160   5.266   0.044   5.067 -0.4596 -0.0283  0.6180
13648SOL    HW242161   5.314   0.076   5.206  1.0333  0.3264  0.0422
13649SOL     OW42162   4.259   8.480   4.385 -0.2100 -0.4650  0.2787
13649SOL    HW142163   4.238   8.545   4.318  0.6608  2.0824  2.3094
13649SOL    HW242164   4.175   8.464   4.430 -0.1664  0.4227  0.6962
13650SOL     OW42165   5.292   7.521   4.039  0.0003 -0.9772 -0.4771
13650SOL    HW142166   5.264   7.438   4.077 -2.1878  0.2411  0.7786
13650SOL    HW242167   5.352   7.559   4.102  0.3808 -1.2443 -0.6773
13651SOL     OW42168   5.698   7.475   4.556  0.1419 -0.6916 -0.0105
13651SOL    HW142169   5.694   7.480   4.652 -0.6982 -0.5396 -0.0519
13651SOL    HW242170   5.745   7.393   4.539  0.2262 -0.7615  0.5301
13652SOL     OW42171   3.433   8.527   5.455 -0.4801 -0.6295  0.5624
13652SOL    HW142172   3.358   8.512   5.512 -0.9095  0.4400  0.3061
13652SOL    HW242173   3.505   8.480   5.496 -1.2416 -1.5025  0.9198
13653SOL     OW42174   4.295   7.405   5.102 -0.5212  0.1494 -0.2181
13653SOL    HW142175   4.366   7.359   5.056 -0.4244  0.8241 -0.7635
13653SOL    HW242176   4.286   7.488   5.055 -0.9733  0.5118  0.4909
13654SOL     OW42177   3.835   7.761   3.654 -0.1542  0.3262 -0.1180
13654SOL    HW142178   3.821   7.726   3.566  0.9432  0.1805 -0.2454
13654SOL    HW242179   3.790   7.846   3.653  0.5793  0.7287 -1.1212
13655SOL     OW42180   5.114   8.143   4.822 -0.1850 -0.4809 -0.2912
13655SOL    HW142181   5.069   8.224   4.799  0.4168  0.3695  1.3748
13655SOL    HW242182   5.196   8.171   4.863  1.0307 -1.9789 -1.5557
13656SOL     OW42183   3.710   8.014   3.927  0.4972  0.2748  0.0288
13656SOL    HW142184   3.797   8.021   3.888 -0.0236 -1.5254 -1.6622
13656SOL    HW242185   3.650   8.036   3.855 -0.4634  0.2915  0.8083
13657SOL     OW42186   3.852   7.860   5.495  0.0020  0.0607 -0.2290
13657SOL    HW142187   3.913   7.786   5.492  0.7734  0.6114  0.9922
13657SOL    HW242188   3.772   7.824   5.534  0.1808 -0.2459 -0.1469
13658SOL     OW42189   3.874   7.902   5.864 -0.0136 -0.3451 -0.2033
13658SOL    HW142190   3.912   7.908   5.951 -0.0920  0.2001 -0.2006
13658SOL    HW242191   3.914   7.824   5.825 -0.4943 -0.9772  0.5617
13659SOL     OW42192   5.134   8.586   5.332 -0.6530 -0.4544 -0.0215
13659SOL    HW142193   5.141   8.592   5.237  2.5142 -1.5516  0.0183
13659SOL    HW242194   5.127   8.492   5.350 -2.1919 -0.2173  0.8539
13660SOL     OW42195   5.348   8.236   4.945 -0.6543  0.8398 -0.2904
13660SOL    HW142196   5.394   8.163   4.985 -1.0840  1.4251  1.3638
13660SOL    HW242197   5.417   8.289   4.904 -0.4032 -0.7645 -2.0779
13661SOL     OW42198   4.959   7.690   4.364 -0.3029 -0.4056 -0.0063
13661SOL    HW142199   4.983   7.740   4.286 -0.4308 -0.4752 -0.0894
13661SOL    HW242200   4.902   7.748   4.414  1.6910  0.6139  1.2432
13662SOL     OW42201   4.196   7.833   4.477  0.7207 -0.5011  0.0084
13662SOL    HW142202   4.148   7.912   4.453  1.2956 -0.1347  0.0344
13662SOL    HW242203   4.129   7.765   4.485  0.0953  0.2164  1.0059
13663SOL     OW42204   5.624   8.262   5.103  0.7802 -0.4994 -0.7357
13663SOL    HW142205   5.557   8.221   5.158  0.2517 -1.8686 -2.3037
13663SOL    HW242206   5.603   8.355   5.104  1.5441 -0.2595  2.3137
13664SOL     OW42207   4.917   8.204   5.189  0.0236 -0.1582 -0.3299
13664SOL    HW142208   4.852   8.251   5.137  0.0359 -0.4987 -0.6527
13664SOL    HW242209   4.878   8.119   5.205  0.4537 -0.4221 -0.6646
13665SOL     OW42210   4.454   0.002   4.302 -0.1582 -0.0385 -0.3391
13665SOL    HW142211   4.477  -0.060   4.233 -0.2191 -1.1646  0.6068
13665SOL    HW242212   4.444   0.086   4.257 -0.6013 -0.8054 -1.7582
13666SOL     OW42213   4.414   8.005   4.477  0.4068 -0.0986 -0.2701
13666SOL    HW142214   4.389   8.070   4.411 -0.6537 -0.3422 -0.1226
13666SOL    HW242215   4.342   7.943   4.478  1.0624 -0.8748  0.1344
13667SOL     OW42216   4.460   7.925   4.043 -0.2490  0.6944  0.4493
13667SOL    HW142217   4.555   7.916   4.055 -0.1492  0.6689 -0.3006
13667SOL    HW242218   4.422   7.857   4.098  0.3139 -1.4692 -1.6904
13668SOL     OW42219   3.482   8.831   5.490  0.1055  0.0417  0.1580
13668SOL    HW142220   3.451   8.744   5.468  0.6850 -0.0193 -0.4529
13668SOL    HW242221   3.553   8.848   5.427 -0.1628  1.0463  0.1115
13669SOL     OW42222   3.859   0.266   3.740 -0.2275 -0.0076  0.2081
13669SOL    HW142223   3.820   0.302   3.660  0.2729  1.2213  0.4957
13669SOL    HW242224   3.949   0.299   3.740  0.5898 -2.0809  0.0034
13670SOL     OW42225   3.869   8.696   5.140 -0.9553 -1.0348 -0.1903
13670SOL    HW142226   3.850   8.731   5.227  1.0282 -1.5944  0.5216
13670SOL    HW242227   3.874   8.773   5.084  1.5481 -0.2186  0.9932
13671SOL     OW42228   5.935   7.572   4.800 -0.7262  0.1285  0.0698
13671SOL    HW142229   5.963   7.547   4.888  0.1373  1.4887  0.2188
13671SOL    HW242230   5.874   7.645   4.813 -1.4789 -0.3972 -0.4232
13672SOL     OW42231   4.333   7.766   4.231  0.3391 -0.2999 -0.0066
13672SOL    HW142232   4.293   7.807   4.307  1.7727 -1.1841  1.2876
13672SOL    HW242233   4.297   7.678   4.228  0.9612 -0.5696  0.2137
13673SOL     OW42234   5.266   0.032   4.654 -0.1779  0.4387  0.0034
13673SOL    HW142235   5.343  -0.025   4.653  0.4347  1.2446 -1.1521
13673SOL    HW242236   5.248   0.049   4.561 -1.3114  0.8549  0.2841
13674SOL     OW42237   3.776   8.018   4.629 -0.1619 -0.1904  0.4638
13674SOL    HW142238   3.827   7.999   4.550  0.1804 -0.1273  0.6696
13674SOL    HW242239   3.705   7.953   4.627 -0.1807 -0.1615  0.0830
13675SOL     OW42240   5.439   7.579   4.656 -0.3707 -0.1401  0.2230
13675SOL    HW142241   5.434   7.522   4.579  0.3827  1.2543 -0.9111
13675SOL    HW242242   5.525   7.562   4.693 -0.3913 -0.1914  0.2467
13676SOL     OW42243   4.012   7.415   4.830 -0.2677 -0.3927 -0.2162
13676SOL    HW142244   4.092   7.442   4.876  0.0132 -1.4684 -0.0627
13676SOL    HW242245   3.944   7.473   4.865  0.8461  2.3922 -2.2244
13677SOL     OW42246   4.055   8.081   3.471  0.4008 -0.7915 -0.5388
13677SOL    HW142247   3.983   8.121   3.421  0.9052  0.1731 -0.5264
13677SOL    HW242248   4.128   8.142   3.460  0.2814 -0.0680  2.0783
13678SOL     OW42249   5.415   7.743   3.905 -0.2673  0.1040  0.2922
13678SOL    HW142250   5.401   7.658   3.948  0.8121  0.0484  0.5638
13678SOL    HW242251   5.389   7.807   3.972 -1.2815  0.0079  0.0153
13679SOL     OW42252   5.005   8.325   4.449  0.0793  0.1128 -0.6389
13679SOL    HW142253   5.002   8.283   4.364 -0.7022 -1.2110  0.0138
13679SOL    HW242254   4.920   8.307   4.489  0.6007  0.2829  0.6099
13680SOL     OW42255   5.414   7.862   4.397  0.5808 -0.1106  0.2949
13680SOL    HW142256   5.379   7.811   4.470  1.1433 -1.3407 -0.2495
13680SOL    HW242257   5.386   7.952   4.414 -1.7178 -0.8071  0.5477
13681SOL     OW42258   3.379   8.241   4.021 -0.1729  0.0409  0.3669
13681SOL    HW142259   3.427   8.185   3.960  1.1600 -0.4717  1.8274
13681SOL    HW242260   3.314   8.183   4.061 -1.1391  0.4084 -0.6070
13682SOL     OW42261   3.320   7.662   5.612  0.3623 -0.8665 -1.1344
13682SOL    HW142262   3.380   7.617   5.672 -0.2336  0.7207  0.7337
13682SOL    HW242263   3.234   7.652   5.653  0.0773  1.0344 -1.2038
13683SOL     OW42264   4.131   7.557   6.620  0.2924 -0.2802 -0.1476
13683SOL    HW142265   4.155   7.627   6.681 -1.0046  0.5683 -0.5751
13683SOL    HW242266   4.213   7.536   6.575  1.1261 -0.4425  1.3723
13684SOL     OW42267   3.578   7.321   6.378  0.2829 -0.2830 -0.2970
13684SOL    HW142268   3.667   7.342   6.347  0.0293 -0.5364 -1.2113
13684SOL    HW242269   3.531   7.405   6.372  1.1145  0.5051  2.6416
13685SOL     OW42270   4.079   8.770   7.154  0.4524  0.1957 -0.7951
13685SOL    HW142271   4.123   8.693   7.117  1.0486  1.1733 -2.1892
13685SOL    HW242272   4.001   8.734   7.197  1.4258 -1.3261 -0.2002
13686SOL     OW42273   5.046   0.211   6.248  0.0955 -0.4713  0.0714
13686SOL    HW142274   4.992   0.271   6.298  0.1817  0.9847 -1.5071
13686SOL    HW242275   5.025   0.124   6.283 -3.0996  0.0374 -0.3351
13687SOL     OW42276   4.915   7.903   5.837  0.5460  0.0046 -0.4287
13687SOL    HW142277   4.993   7.950   5.807  0.3980  0.7410  0.2893
13687SOL    HW242278   4.847   7.971   5.840 -0.2174 -0.6986 -1.3822
13688SOL     OW42279   4.977   8.048   5.524 -0.5615  0.1868  0.1011
13688SOL    HW142280   5.050   8.083   5.473 -1.0558 -0.4918 -1.1346
13688SOL    HW242281   5.006   7.961   5.551 -0.7655  0.0581 -0.0855
13689SOL     OW42282   4.672   8.732   6.828  0.8273  0.0615  0.3154
13689SOL    HW142283   4.621   8.681   6.765  0.9877  0.8227 -0.4502
13689SOL    HW242284   4.731   8.669   6.868 -0.5797 -0.8150  1.1081
13690SOL     OW42285   4.453   8.069   7.276  0.7037 -0.1934 -0.0808
13690SOL    HW142286   4.373   8.048   7.323  0.5242 -1.4626 -0.8848
13690SOL    HW242287   4.425   8.084   7.186  1.4806 -2.0578 -0.6901
13691SOL     OW42288   4.451   8.362   6.734 -0.8426 -0.5099  0.7765
13691SOL    HW142289   4.359   8.386   6.724 -0.8598 -0.8545  0.0453
13691SOL    HW242290   4.475   8.322   6.651  0.5223  1.3616  0.1766
13692SOL     OW42291   4.377   8.420   7.427 -0.0552 -0.5247  0.2401
13692SOL    HW142292   4.446   8.355   7.418 -0.5865 -1.0562 -0.0689
13692SOL    HW242293   4.297   8.375   7.398 -0.5881 -0.0262  0.8989
13693SOL     OW42294   4.282   8.358   7.160  0.0337  0.2838  0.3530
13693SOL    HW142295   4.250   8.417   7.092 -3.5527 -0.9818  0.7209
13693SOL    HW242296   4.377   8.365   7.155  0.1468 -0.3646 -5.3961
13694SOL     OW42297   4.231   7.658   7.105 -0.7879  0.0989  0.3138
13694SOL    HW142298   4.239   7.686   7.196 -2.5925  0.2230  0.4843
13694SOL    HW242299   4.208   7.565   7.110 -4.1312  0.7884  0.2205
13695SOL     OW42300   4.893   7.524   5.726  0.3530 -0.2227 -0.1923
13695SOL    HW142301   4.920   7.564   5.809  0.1575  1.2999 -0.8413
13695SOL    HW242302   4.975   7.500   5.683  0.5775  1.4221 -0.7193
13696SOL     OW42303   5.102   0.090   7.020  0.0936 -0.1182  0.0569
13696SOL    HW142304   5.091   0.179   7.054 -0.8239  0.4956 -1.6938
13696SOL    HW242305   5.054   0.035   7.081 -0.4810  0.7723  0.4307
13697SOL     OW42306   3.823   8.334   6.588  0.3373 -0.0178  0.4703
13697SOL    HW142307   3.733   8.302   6.579  0.4307 -0.4440  0.9934
13697SOL    HW242308   3.814   8.426   6.610  0.0686  1.1490 -3.6713
13698SOL     OW42309   3.961   8.438   5.654 -0.3633  0.1522  0.0516
13698SOL    HW142310   3.998   8.349   5.660 -2.0321 -0.4659  2.0632
13698SOL    HW242311   4.012   8.489   5.716 -0.5360  0.1909  0.1591
13699SOL     OW42312   5.295   7.669   7.240  0.4081 -0.0179 -0.5307
13699SOL    HW142313   5.383   7.663   7.276 -0.3462 -2.8215  1.1711
13699SOL    HW242314   5.271   7.578   7.220 -1.9029  0.7227 -1.4582
13700SOL     OW42315   3.815   8.293   6.208  0.0262 -0.6860  0.4148
13700SOL    HW142316   3.872   8.217   6.214  2.8090  1.2002 -0.0785
13700SOL    HW242317   3.826   8.339   6.291  0.1066  0.2668 -0.1067
13701SOL     OW42318   5.475   8.164   6.542 -0.1611  0.2986  0.0836
13701SOL    HW142319   5.520   8.213   6.611 -0.1602  1.0082 -0.4090
13701SOL    HW242320   5.427   8.095   6.588 -2.0157  2.1359  1.0627
13702SOL     OW42321   5.520   8.563   6.050  0.2168  0.1146  0.0471
13702SOL    HW142322   5.463   8.580   5.975  3.0313 -0.2453 -2.3790
13702SOL    HW242323   5.559   8.648   6.071  3.1385 -0.4619 -2.3315
13703SOL     OW42324   3.466   8.043   7.045  0.0291  0.5597  0.1012
13703SOL    HW142325   3.454   8.089   7.127 -0.8488  0.1704  0.1963
13703SOL    HW242326   3.523   8.101   6.993  1.6590  0.2323  1.4331
13704SOL     OW42327   4.073   8.690   6.388 -0.4718  0.4799  0.1084
13704SOL    HW142328   4.148   8.636   6.365 -0.8593 -0.0565  0.0744
13704SOL    HW242329   4.095   8.726   6.474 -0.3841 -0.0793  0.3264
13705SOL     OW42330   4.793   8.016   6.785 -0.0463  0.5048  0.1117
13705SOL    HW142331   4.873   7.974   6.755 -1.1652 -1.0765 -0.7999
13705SOL    HW242332   4.784   8.093   6.729  1.0809  0.9995  0.5770
13706SOL     OW42333   4.493   7.592   5.972  0.3774  0.3182 -0.4958
13706SOL    HW142334   4.434   7.606   6.046  1.1655 -0.2560  0.2589
13706SOL    HW242335   4.559   7.531   6.005  0.3709 -0.4894 -1.8672
13707SOL     OW42336   3.604   8.481   7.046 -0.2709 -0.3150 -1.0148
13707SOL    HW142337   3.517   8.466   7.083  0.9088  0.5259  2.5337
13707SOL    HW242338   3.657   8.408   7.079  0.9559  0.6495 -0.7615
13708SOL     OW42339   4.943   8.470   5.895 -0.0372  0.1625  0.1637
13708SOL    HW142340   4.933   8.487   5.802  2.0417  3.0928  0.3524
13708SOL    HW242341   5.004   8.396   5.900 -0.4233 -0.2301 -0.7393
13709SOL     OW42342   3.817   7.713   7.171 -0.2140  0.4590  0.0612
13709SOL    HW142343   3.800   7.781   7.236 -0.0499  0.7384 -0.1836
13709SOL    HW242344   3.746   7.651   7.181 -0.9003  1.1577 -0.3631
13710SOL     OW42345   5.116   8.352   6.287 -0.0008 -0.3610 -0.3392
13710SOL    HW142346   5.145   8.295   6.215 -1.9751 -0.6607 -0.9416
13710SOL    HW242347   5.051   8.410   6.248 -1.5192 -0.8846  1.2941
13711SOL     OW42348   3.976   8.250   5.928 -0.0193 -0.2424  0.2694
13711SOL    HW142349   3.990   8.290   5.842  0.2734 -1.9120 -0.4915
13711SOL    HW242350   3.881   8.244   5.936 -0.0361 -1.0027 -0.3973
13712SOL     OW42351   4.887   7.767   6.147  0.8979  0.1332  0.2444
13712SOL    HW142352   4.940   7.839   6.181  0.3521 -0.1184  1.6719
13712SOL    HW242353   4.808   7.809   6.114  1.2646  0.3371 -0.4003
13713SOL     OW42354   4.314   8.045   7.042 -0.1813 -0.0689  0.0456
13713SOL    HW142355   4.300   8.071   6.950  1.3701 -0.9891 -0.4793
13713SOL    HW242356   4.242   7.985   7.060 -1.8343  1.8377  0.2055
13714SOL     OW42357   5.381   7.878   7.094 -0.6314  0.2024  0.6609
13714SOL    HW142358   5.327   7.955   7.113  0.0204  0.6915  0.5617
13714SOL    HW242359   5.352   7.812   7.157  0.4086  1.2731  2.3304
13715SOL     OW42360   4.956   8.562   7.284 -0.6225  0.3842 -0.2130
13715SOL    HW142361   4.867   8.536   7.260 -1.7638  3.5173  0.1465
13715SOL    HW242362   4.957   8.561   7.380 -1.0146  2.2971 -0.1445
13716SOL     OW42363   4.721   7.740   6.782 -0.2127 -0.5034 -0.2694
13716SOL    HW142364   4.641   7.715   6.828 -1.1251 -0.1790 -1.6429
13716SOL    HW242365   4.712   7.833   6.765  0.1648 -0.5933 -1.0063
13717SOL     OW42366   4.649   7.890   6.093 -0.2755 -0.2161 -0.2192
13717SOL    HW142367   4.580   7.882   6.160 -1.2746 -2.4036 -1.4058
13717SOL    HW242368   4.611   7.850   6.015  1.2038  1.4452 -1.8911
13718SOL     OW42369   3.589   8.153   6.543  0.1355  0.0144  0.1129
13718SOL    HW142370   3.655   8.089   6.516  1.8610  1.5873  0.3961
13718SOL    HW242371   3.508   8.102   6.550  1.4743 -2.1929  0.6422
13719SOL     OW42372   4.482   7.435   5.625 -0.4222  0.5865 -0.0717
13719SOL    HW142373   4.511   7.363   5.569  0.0602  0.4885  0.3011
13719SOL    HW242374   4.493   7.513   5.572  0.0278  0.4925 -0.1204
13720SOL     OW42375   5.144   7.794   7.502  0.5668  0.2332 -0.5014
13720SOL    HW142376   5.183   7.771   7.417  0.7706  0.3795 -0.4481
13720SOL    HW242377   5.219   7.819   7.556  0.2773  1.9578 -0.8397
13721SOL     OW42378   4.866   8.780   5.741  0.0157 -0.2905  0.2629
13721SOL    HW142379   4.848   8.849   5.804 -1.7441 -0.5917  0.1643
13721SOL    HW242380   4.957   8.755   5.757 -0.0253  0.4492  1.8648
13722SOL     OW42381   4.302   7.610   6.181 -0.1295  0.0983 -0.1699
13722SOL    HW142382   4.312   7.691   6.231 -0.1802 -0.1973  0.3245
13722SOL    HW242383   4.209   7.605   6.162 -0.1074  0.2201 -0.3176
13723SOL     OW42384   5.568   8.340   6.375  0.1198  0.1164 -0.2995
13723SOL    HW142385   5.533   8.275   6.435 -1.9994  0.4440 -1.0958
13723SOL    HW242386   5.571   8.421   6.426 -0.8411  0.2049 -0.3792
13724SOL     OW42387   3.649   8.045   5.816 -0.3711 -0.0370  0.7108
13724SOL    HW142388   3.728   7.991   5.818 -1.2242 -1.3167  2.2129
13724SOL    HW242389   3.584   7.994   5.864 -1.9135  1.3040  0.1357
13725SOL     OW42390   5.257   8.199   6.108 -0.2251 -0.1775 -0.4656
13725SOL    HW142391   5.278   8.106   6.105 -1.8563 -0.5487 -1.2328
13725SOL    HW242392   5.340   8.241   6.132  0.9594 -1.6700 -1.6823
13726SOL     OW42393   3.991   8.289   6.866 -0.2647  0.4945  0.4370
13726SOL    HW142394   3.908   8.324   6.898 -0.3617 -0.0293  0.7646
13726SOL    HW242395   3.999   8.324   6.777 -0.9883  0.2907  0.2898
13727SOL     OW42396   3.972   7.653   6.958 -0.4662  0.0482  0.2673
13727SOL    HW142397   3.918   7.690   7.028  0.0912  2.5583 -0.5516
13727SOL    HW242398   4.062   7.670   6.986 -0.0997 -1.8754  0.4310
13728SOL     OW42399   4.689   8.572   5.733 -0.1144  0.3398 -0.2329
13728SOL    HW142400   4.704   8.666   5.739  0.4381  0.2851 -0.6989
13728SOL    HW242401   4.688   8.542   5.824 -0.6035  0.8381 -0.0697
13729SOL     OW42402   4.930   7.255   5.940 -0.4948 -0.1848  0.6120
13729SOL    HW142403   4.890   7.277   5.856 -0.5072 -0.3681  0.5704
13729SOL    HW242404   4.868   7.288   6.005 -1.8638 -2.5022  0.5708
13730SOL     OW42405   3.978   8.063   6.255 -0.2967 -0.4408 -0.1809
13730SOL    HW142406   4.049   8.047   6.194  0.4697 -0.0398  0.5778
13730SOL    HW242407   4.015   8.044   6.341 -0.5594  1.3808  0.3930
13731SOL     OW42408   5.503   7.391   7.705 -1.1643  0.0587 -0.5446
13731SOL    HW142409   5.551   7.472   7.688  0.8143 -1.0478 -0.5259
13731SOL    HW242410   5.444   7.382   7.630 -1.0319  1.2332 -0.8131
13732SOL     OW42411   4.263   7.587   5.358 -0.1984  0.7762 -0.1031
13732SOL    HW142412   4.245   7.494   5.370 -1.3068  1.1376  1.4677
13732SOL    HW242413   4.351   7.599   5.392 -0.0382  0.2826 -0.3469
13733SOL     OW42414   4.683   7.382   7.515  0.2527  0.0107  0.2309
13733SOL    HW142415   4.671   7.470   7.551 -0.0935 -0.2073  0.6671
13733SOL    HW242416   4.594   7.352   7.496  0.3125 -0.4800  0.6762
13734SOL     OW42417   5.220   7.752   6.796 -0.4926 -0.4423 -0.3872
13734SOL    HW142418   5.174   7.668   6.792  0.9086 -1.2167 -1.3392
13734SOL    HW242419   5.304   7.732   6.837 -1.5098  1.2582  2.8904
13735SOL     OW42420   4.626   7.972   6.546  0.2021  0.8361 -0.1695
13735SOL    HW142421   4.538   7.992   6.579  0.9247  2.2591  1.0138
13735SOL    HW242422   4.621   7.881   6.517 -2.0997  1.3681 -1.7070
13736SOL     OW42423   3.722   7.900   6.212  0.0737 -0.2562 -0.1034
13736SOL    HW142424   3.788   7.969   6.221  0.2152 -0.3318 -0.5175
13736SOL    HW242425   3.660   7.916   6.283  0.1559  0.2405 -0.1422
13737SOL     OW42426   4.389   8.489   5.759 -0.2062  0.3093 -0.3529
13737SOL    HW142427   4.470   8.539   5.756  0.4700 -0.7308  0.0722
13737SOL    HW242428   4.384   8.446   5.674  0.0059 -0.1100 -0.1544
13738SOL     OW42429   3.792   7.295   5.711 -0.0833  0.0253 -0.5927
13738SOL    HW142430   3.841   7.377   5.716  2.6913 -1.6047  1.4349
13738SOL    HW242431   3.728   7.301   5.782  0.7536  0.1017  0.1730
13739SOL     OW42432   4.018   7.681   5.827 -0.4592  0.2477 -0.9227
13739SOL    HW142433   3.963   7.624   5.881  0.3359  0.2047 -0.1387
13739SOL    HW242434   4.101   7.634   5.820  0.2300  1.3135 -0.2229
13740SOL     OW42435   5.093   8.689   6.877  0.2021  0.0831  0.0832
13740SOL    HW142436   5.162   8.640   6.921 -0.9916 -1.1868  0.6111
13740SOL    HW242437   5.079   8.765   6.933  0.5374 -0.1225  0.4532
13741SOL     OW42438   5.194   8.320   5.881  0.0945  0.0466  0.1446
13741SOL    HW142439   5.217   8.264   5.807 -2.3749  0.3017 -0.9136
13741SOL    HW242440   5.215   8.267   5.958 -1.0571 -1.9357 -0.8045
13742SOL     OW42441   4.312   8.196   6.323 -0.2611 -0.3683 -0.0802
13742SOL    HW142442   4.218   8.184   6.341 -0.3599 -1.2411 -1.0337
13742SOL    HW242443   4.320   8.180   6.229  0.6241  1.2898 -0.3241
13743SOL     OW42444   4.499   7.642   5.453  0.1226  0.4079 -0.5792
13743SOL    HW142445   4.568   7.646   5.386 -0.5477  2.1459 -1.2205
13743SOL    HW242446   4.505   7.725   5.499 -0.9059  0.1660  0.0222
13744SOL     OW42447   3.580   8.185   6.844  0.4343 -0.3154  0.4403
13744SOL    HW142448   3.643   8.183   6.771  0.6713  0.5978  0.6070
13744SOL    HW242449   3.520   8.255   6.821  0.8932  0.4180  1.4265
13745SOL     OW42450   4.539   7.580   6.915 -0.5552  0.9214  0.4057
13745SOL    HW142451   4.472   7.648   6.928 -0.0952  1.0199  2.5978
13745SOL    HW242452   4.580   7.571   7.001  0.0193 -1.4893 -0.0730
13746SOL     OW42453   4.641   7.431   6.246  0.0154 -0.0355 -0.0093
13746SOL    HW142454   4.654   7.505   6.306  0.2658  0.1193 -0.2546
13746SOL    HW242455   4.729   7.399   6.228 -0.1598 -1.5277  1.4938
13747SOL     OW42456   4.838   7.464   6.445 -0.1217  0.4196 -0.2036
13747SOL    HW142457   4.822   7.371   6.429  0.5844 -0.3771  3.0424
13747SOL    HW242458   4.913   7.485   6.389  1.0120 -1.5546  0.4568
13748SOL     OW42459   4.874   8.474   6.159  0.6089  0.3756  0.3389
13748SOL    HW142460   4.886   8.466   6.065  1.0245 -0.1816  0.4350
13748SOL    HW242461   4.872   8.568   6.176 -0.1833  0.4842 -0.3115
13749SOL     OW42462   5.180   7.823   6.382 -0.0213 -0.1123  0.2430
13749SOL    HW142463   5.128   7.888   6.335  0.6595  0.1268 -0.1776
13749SOL    HW242464   5.115   7.760   6.414 -0.7158  0.8613  0.8249
13750SOL     OW42465   5.329   8.149   5.642  0.1080  0.3408 -0.5271
13750SOL    HW142466   5.406   8.200   5.668  1.8661 -1.5553 -1.7123
13750SOL    HW242467   5.352   8.113   5.556 -1.3928 -1.6905 -0.1542
13751SOL     OW42468   5.784   0.275   5.791  0.0908 -0.2097 -0.4802
13751SOL    HW142469   5.864   0.322   5.814 -0.0222  0.3361 -1.1596
13751SOL    HW242470   5.720   0.303   5.856  0.0468  0.5269 -0.8314
13752SOL     OW42471   4.576   7.904   5.507  0.3790 -0.4436 -0.1694
13752SOL    HW142472   4.646   7.863   5.558  0.2566 -1.4761 -0.8010
13752SOL    HW242473   4.619   7.973   5.457  0.7780 -0.4774  0.1265
13753SOL     OW42474   4.103   7.369   5.574  0.2644 -0.6919  0.3716
13753SOL    HW142475   4.118   7.307   5.503 -1.4376  0.5130 -1.1447
13753SOL    HW242476   4.105   7.316   5.654  0.4271 -2.4083 -0.7192
13754SOL     OW42477   5.472   8.604   7.028  0.4085  0.1332 -0.3341
13754SOL    HW142478   5.398   8.631   7.082  0.1499 -0.5564 -0.3383
13754SOL    HW242479   5.549   8.633   7.078  0.1416  0.9841 -0.4029
13755SOL     OW42480   4.653   8.394   6.924 -0.1911  0.9407  0.0640
13755SOL    HW142481   4.574   8.376   6.874  0.1678 -2.5491  0.5288
13755SOL    HW242482   4.715   8.427   6.860 -0.7874 -0.1997 -1.1510
13756SOL     OW42483   5.192   8.778   6.625  0.3190 -1.0053  0.0513
13756SOL    HW142484   5.280   8.742   6.623 -0.2667 -2.4560 -0.3453
13756SOL    HW242485   5.155   8.747   6.708  0.9750  1.6758  1.4841
13757SOL     OW42486   5.054   8.006   6.228 -0.1539  0.2571 -0.0223
13757SOL    HW142487   4.989   8.052   6.175  0.2753 -1.5646 -2.2542
13757SOL    HW242488   5.135   8.057   6.216 -0.1422  0.0511 -0.8465
13758SOL     OW42489   4.791   7.383   7.264  0.2169  0.4420  0.3278
13758SOL    HW142490   4.748   7.367   7.348 -1.3196 -2.3782 -0.8556
13758SOL    HW242491   4.733   7.444   7.219  0.5844  1.2765  0.9738
13759SOL     OW42492   4.930   8.810   7.181 -0.1151  0.1962  0.3871
13759SOL    HW142493   4.872   8.831   7.254  1.0233 -1.0765  1.7171
13759SOL    HW242494   4.922   8.716   7.170 -0.1068  0.3318 -1.0483
13760SOL     OW42495   4.631   8.466   6.310  0.3891 -0.2779  0.2638
13760SOL    HW142496   4.641   8.409   6.386  1.5546  0.5719  0.7788
13760SOL    HW242497   4.708   8.448   6.256  0.4265  0.3306  0.1075
13761SOL     OW42498   4.480   8.609   7.255  0.0770  0.0383 -0.2859
13761SOL    HW142499   4.431   8.554   7.315 -1.3523  0.9110 -0.6120
13761SOL    HW242500   4.443   8.697   7.267  2.6137  1.0767  0.6036
13762SOL     OW42501   4.934   7.591   6.949 -0.2328  0.0555  0.0606
13762SOL    HW142502   4.873   7.660   6.925  0.4503  0.0470 -1.8092
13762SOL    HW242503   4.889   7.509   6.927 -0.6794 -0.1042  1.4347
13763SOL     OW42504   3.666   8.343   5.822 -0.3440  0.3720  0.3127
13763SOL    HW142505   3.669   8.370   5.731  3.6311  0.5659  0.3175
13763SOL    HW242506   3.663   8.247   5.818  0.3949  0.3545 -0.0876
13764SOL     OW42507   4.372   7.771   6.417  0.5077 -0.2537 -0.1892
13764SOL    HW142508   4.347   7.824   6.492  0.7047  0.5016 -0.6461
13764SOL    HW242509   4.449   7.723   6.446  1.2469  0.8606 -0.2480
13765SOL     OW42510   4.608   8.730   6.040  0.2294 -0.3643 -0.3182
13765SOL    HW142511   4.666   8.681   6.098 -0.2204 -0.0883  0.3805
13765SOL    HW242512   4.663   8.801   6.006  1.0442 -1.6701 -1.7982
13766SOL     OW42513   5.158   7.996   5.810 -0.0826 -0.2147 -0.1122
13766SOL    HW142514   5.220   7.997   5.883 -0.4366 -1.8851  0.2352
13766SOL    HW242515   5.203   8.043   5.740  0.9816 -0.1364  0.6028
13767SOL     OW42516   4.068   8.205   7.120 -0.1423  0.0585  0.1517
13767SOL    HW142517   4.159   8.233   7.132  0.8653 -1.4580 -3.0110
13767SOL    HW242518   4.045   8.232   7.031 -2.8956  0.4608  0.8750
13768SOL     OW42519   5.181   8.674   7.149  0.4855  1.0090  0.1778
13768SOL    HW142520   5.216   8.707   7.231 -0.1290 -0.8487  1.2397
13768SOL    HW242521   5.093   8.644   7.170 -0.1774  1.6412 -1.4707
13769SOL     OW42522   4.939   7.074   7.841 -0.4941 -0.0934  0.0135
13769SOL    HW142523   4.863   7.026   7.872 -0.5714  0.7246  1.2013
13769SOL    HW242524   4.904   7.140   7.782 -0.4692 -0.9902 -1.0266
13770SOL     OW42525   4.250   7.029   7.264 -0.7002  0.0837  0.1108
13770SOL    HW142526   4.170   7.020   7.315 -1.2988 -1.1431 -1.0100
13770SOL    HW242527   4.250   7.120   7.235 -0.6439  0.6496  1.7463
13771SOL     OW42528   4.178   8.475   6.659 -0.1100 -0.0492 -0.9794
13771SOL    HW142529   4.218   8.493   6.573  0.3654  0.0170 -0.7476
13771SOL    HW242530   4.196   8.554   6.710  0.5730 -0.5275 -0.4674
13772SOL     OW42531   4.859   8.148   6.494 -0.0523  0.5269 -0.4376
13772SOL    HW142532   4.788   8.086   6.510 -0.4856  0.9931 -0.5324
13772SOL    HW242533   4.899   8.118   6.412 -1.6849  1.6492 -1.7167
13773SOL     OW42534   4.663   7.373   5.819 -0.2748 -0.0367  0.1220
13773SOL    HW142535   4.595   7.386   5.753  0.5243  0.0403 -0.7018
13773SOL    HW242536   4.734   7.431   5.792  0.4623 -0.7525  0.4802
13774SOL     OW42537   3.989   7.862   6.759  0.5357  0.2848 -0.2969
13774SOL    HW142538   3.922   7.897   6.817  1.3602 -0.4695  1.1671
13774SOL    HW242539   4.016   7.780   6.799  1.3625 -0.1162 -1.5921
13775SOL     OW42540   3.329   8.354   7.122  0.8537  0.4300  0.2653
13775SOL    HW142541   3.293   8.408   7.193  0.5618  0.0842  0.3860
13775SOL    HW242542   3.346   8.269   7.162  2.0407  0.6474  0.2648
13776SOL     OW42543   4.068   8.266   6.474 -0.2724 -0.6245 -0.6286
13776SOL    HW142544   4.119   8.321   6.534  0.7337 -2.0998 -0.0707
13776SOL    HW242545   3.977   8.293   6.487  0.2884  2.1266 -1.6773
13777SOL     OW42546   5.631   8.401   7.204 -0.3794  0.2670 -0.2919
13777SOL    HW142547   5.689   8.434   7.135 -2.1779  0.4143 -1.8160
13777SOL    HW242548   5.601   8.317   7.171 -2.3284  0.9504 -0.3939
13778SOL     OW42549   3.530   7.203   6.107 -0.3652  0.2992 -0.0073
13778SOL    HW142550   3.531   7.108   6.106  1.7807  0.2649 -0.9034
13778SOL    HW242551   3.559   7.226   6.196 -0.5812  0.1069  0.1125
13779SOL     OW42552   5.130   7.822   5.466 -0.7974 -0.5676  0.2416
13779SOL    HW142553   5.141   7.878   5.389  2.3990 -1.0276  0.2422
13779SOL    HW242554   5.111   7.735   5.430  2.5664 -1.2220 -0.2976
13780SOL     OW42555   5.025   7.926   6.664 -0.1198  0.0496  0.5126
13780SOL    HW142556   5.105   7.880   6.692  0.8388  0.5109 -1.3281
13780SOL    HW242557   4.988   7.869   6.596 -0.1491  0.9052 -0.1957
13781SOL     OW42558   5.948   0.306   7.201  0.2495 -0.1452  0.2905
13781SOL    HW142559   6.014   0.374   7.215 -0.7112  0.5908  1.4228
13781SOL    HW242560   5.950   0.253   7.281 -1.3907  0.6690  0.9182
13782SOL     OW42561   3.928   8.572   7.772  0.2710 -0.0814 -0.0082
13782SOL    HW142562   3.984   8.513   7.823 -2.0171 -0.5848  2.0899
13782SOL    HW242563   3.947   8.659   7.807  0.0082 -0.2061  0.4459
13783SOL     OW42564   5.048   7.569   5.362  0.3316 -0.1346 -0.0476
13783SOL    HW142565   5.102   7.506   5.314 -0.0525 -0.1961 -0.4019
13783SOL    HW242566   4.959   7.537   5.352 -0.0582  1.2901 -1.5643
13784SOL     OW42567   4.729   8.160   5.582 -0.5039  0.1991  0.0129
13784SOL    HW142568   4.714   8.118   5.667  1.6598  1.8719  1.3357
13784SOL    HW242569   4.818   8.136   5.558 -0.0077  2.1251 -0.2664
13785SOL     OW42570   3.912   7.707   6.505  0.2470 -0.1884  0.1761
13785SOL    HW142571   3.922   7.772   6.574  0.4239  0.0472 -0.0709
13785SOL    HW242572   3.971   7.636   6.529  1.9141  0.7881 -0.7982
13786SOL     OW42573   4.359   7.971   6.609 -0.7555  0.2798 -0.0714
13786SOL    HW142574   4.344   8.029   6.535  2.0703  2.7402  1.0923
13786SOL    HW242575   4.301   8.003   6.678  0.1882  1.2415  0.2977
13787SOL     OW42576   4.723   7.823   7.191 -0.1156 -0.1170  0.2776
13787SOL    HW142577   4.685   7.836   7.278  2.0030 -0.2134  1.2927
13787SOL    HW242578   4.817   7.828   7.205  0.3102 -0.5041 -1.9816
13788SOL     OW42579   5.000   7.608   7.220  0.0422 -0.2557  1.1660
13788SOL    HW142580   4.985   7.595   7.126  2.7799 -0.7912  0.6894
13788SOL    HW242581   5.001   7.519   7.256 -0.1433 -0.1095  1.5288
13789SOL     OW42582   3.611   8.658   6.042 -0.3642 -0.0403 -0.5272
13789SOL    HW142583   3.679   8.591   6.026 -1.0479 -0.2858 -2.6461
13789SOL    HW242584   3.621   8.679   6.135  1.1978 -1.6324 -0.2647
13790SOL     OW42585   4.156   8.052   6.824  0.1672  0.1330 -0.1406
13790SOL    HW142586   4.121   7.974   6.781  1.0029 -1.1004  1.3370
13790SOL    HW242587   4.084   8.116   6.820 -0.6962 -0.8606 -0.9621
13791SOL     OW42588   3.639   7.895   6.477 -0.5212  0.0631 -0.3675
13791SOL    HW142589   3.544   7.885   6.479 -0.4319 -0.7737  0.3914
13791SOL    HW242590   3.673   7.813   6.514  0.4372  1.0245  1.0350
13792SOL     OW42591   4.044   7.934   7.129  0.1289  0.5333 -0.1461
13792SOL    HW142592   3.981   7.912   7.061  1.1338  1.7255 -1.5330
13792SOL    HW242593   4.039   8.029   7.138  1.3561  0.6044  0.0517
13793SOL     OW42594   5.186   8.392   7.288  0.0845 -0.1837 -0.1553
13793SOL    HW142595   5.110   8.441   7.257  0.2956 -0.4999 -1.2163
13793SOL    HW242596   5.153   8.304   7.303  0.1043 -0.1721 -0.0459
13794SOL     OW42597   4.086   7.887   6.068 -0.9323  0.3589  0.6682
13794SOL    HW142598   4.086   7.825   5.994  0.3907  0.8058  0.2595
13794SOL    HW242599   4.074   7.832   6.145 -2.2721 -0.1268  0.1432
13795SOL     OW42600   5.321   7.951   6.042 -0.5356 -0.6394  0.2784
13795SOL    HW142601   5.316   7.870   6.093  2.0749 -0.8118  0.4059
13795SOL    HW242602   5.381   7.930   5.970  1.4635  1.5588  1.1778
13796SOL     OW42603   4.293   7.704   6.841 -0.0361 -0.6679 -0.0460
13796SOL    HW142604   4.270   7.713   6.934  0.0111 -1.3159  0.0364
13796SOL    HW242605   4.358   7.772   6.826  0.1412 -0.7180  0.4596
13797SOL     OW42606   3.603   7.792   5.903  0.1832 -0.0284  0.0231
13797SOL    HW142607   3.586   7.718   5.962  1.9107  0.3234  1.0231
13797SOL    HW242608   3.697   7.807   5.910  0.0216  1.6412 -0.9297
13798SOL     OW42609   3.383   8.374   6.764 -0.1235  0.1858 -0.0023
13798SOL    HW142610   3.369   8.456   6.810 -0.9284 -1.2126  2.4631
13798SOL    HW242611   3.298   8.353   6.726 -0.7634 -0.8400  1.8578
13799SOL     OW42612   5.229   8.153   6.795  0.4940  0.3750  0.1256
13799SOL    HW142613   5.233   8.186   6.706  0.5211  0.5240  0.1825
13799SOL    HW242614   5.162   8.085   6.793 -1.2783  2.0322  0.5352
13800SOL     OW42615   4.682   8.056   5.845  0.0260  0.1410 -0.0761
13800SOL    HW142616   4.634   7.974   5.859 -1.3069  1.2274  2.3620
13800SOL    HW242617   4.615   8.124   5.849  1.3712  1.5055  0.1252
13801SOL     OW42618   3.840   8.027   6.956  0.2616 -0.5967  0.0054
13801SOL    HW142619   3.788   8.099   6.919  1.9211  1.4516  1.4237
13801SOL    HW242620   3.786   7.992   7.027 -1.0109 -1.5161 -1.3705
13802SOL     OW42621   5.428   7.397   5.791  0.2143 -0.1463 -0.0829
13802SOL    HW142622   5.366   7.332   5.823  0.1683 -0.0231  0.0830
13802SOL    HW242623   5.379   7.479   5.794  0.2614 -0.1102 -0.3218
13803SOL     OW42624   4.855   8.158   6.102  0.1271 -0.7979  0.0613
13803SOL    HW142625   4.835   8.165   6.009 -3.8599 -1.4975  0.7042
13803SOL    HW242626   4.822   8.239   6.140 -2.3704 -2.3162  1.3334
13804SOL     OW42627   4.708   8.486   7.188 -0.0439  0.8728  0.0485
13804SOL    HW142628   4.696   8.473   7.094  1.8024  0.9434 -0.2401
13804SOL    HW242629   4.620   8.500   7.222 -1.0834 -1.8539 -1.2170
13805SOL     OW42630   5.398   7.660   6.409 -0.3310 -0.1942 -0.0519
13805SOL    HW142631   5.411   7.615   6.326  0.7695  0.1822 -0.0995
13805SOL    HW242632   5.315   7.706   6.399  0.3403  0.7828 -1.3890
13806SOL     OW42633   4.013   7.687   6.246  0.3491 -0.6740 -0.2035
13806SOL    HW142634   3.936   7.637   6.220  0.3344 -0.7587  0.0015
13806SOL    HW242635   4.000   7.706   6.339 -0.2357  0.7717 -0.5513
13807SOL     OW42636   4.797   8.154   7.031  0.1847  0.1631  0.1540
13807SOL    HW142637   4.790   8.102   6.951 -1.3889  1.6544 -0.7354
13807SOL    HW242638   4.758   8.238   7.009  0.0843  0.7759  2.3800
13808SOL     OW42639   4.415   8.169   5.824 -0.1682  0.2265 -0.0430
13808SOL    HW142640   4.386   8.255   5.855 -0.2412 -0.0451  0.6433
13808SOL    HW242641   4.359   8.107   5.870 -0.4731 -0.1789 -0.9312
13809SOL     OW42642   3.901   8.641   7.305  0.4102  0.3807 -0.0156
13809SOL    HW142643   3.898   8.550   7.335  0.6435  0.9099  1.7463
13809SOL    HW242644   3.812   8.673   7.316  0.5934  0.7061  0.5757
13810SOL     OW42645   5.425   8.653   6.656 -0.2591  0.0293 -0.4618
13810SOL    HW142646   5.400   8.587   6.721  0.2838  1.1084  0.9073
13810SOL    HW242647   5.506   8.619   6.618  0.9722  0.6128  1.4545
13811SOL     OW42648   4.560   8.603   6.620  0.3655 -0.6073 -0.3934
13811SOL    HW142649   4.505   8.525   6.619  1.1098 -1.1432 -0.5794
13811SOL    HW242650   4.548   8.641   6.533 -1.1711  0.3533  0.1955
13812SOL     OW42651   4.627   7.666   6.507 -0.3127  0.0660  0.3005
13812SOL    HW142652   4.621   7.602   6.578  0.6580  1.1633  1.4257
13812SOL    HW242653   4.716   7.656   6.473 -0.3943  0.3237  0.0055
13813SOL     OW42654   5.599   7.886   6.943  0.0260  0.6145 -0.6675
13813SOL    HW142655   5.579   7.813   6.885  1.0062 -0.2952  0.1034
13813SOL    HW242656   5.524   7.892   7.002  1.2698 -1.9301  1.3744
13814SOL     OW42657   4.115   8.382   7.610  0.6141 -0.1610  0.1805
13814SOL    HW142658   4.089   8.311   7.552  2.0175  1.4787 -2.6700
13814SOL    HW242659   4.035   8.407   7.655 -0.7426 -1.0499 -1.6273
13815SOL     OW42660   4.621   7.578   7.180  0.6231 -0.0564 -0.1123
13815SOL    HW142661   4.668   7.661   7.186 -2.1800  1.6284  0.7072
13815SOL    HW242662   4.549   7.587   7.242 -1.0752 -2.1832 -1.6147
13816SOL     OW42663   3.908   8.138   5.136 -0.0469 -1.1123 -0.1393
13816SOL    HW142664   3.938   8.110   5.049  1.4324 -0.5648  0.1529
13816SOL    HW242665   3.854   8.215   5.120  3.6059  1.6843 -0.4583
13817SOL     OW42666   5.368   7.929   6.610 -0.5581 -0.0469  0.5002
13817SOL    HW142667   5.297   7.913   6.547 -0.1659  1.4034 -0.3812
13817SOL    HW242668   5.347   7.874   6.685 -1.8037 -0.7817 -0.3453
13818SOL     OW42669   3.622   7.336   5.896  0.5430 -0.3710  0.4077
13818SOL    HW142670   3.597   7.405   5.958  0.0165 -1.2721  1.2471
13818SOL    HW242671   3.599   7.255   5.942 -0.6928 -1.0610 -1.3168
13819SOL     OW42672   4.035   8.150   7.409 -0.1852  0.1416  0.4870
13819SOL    HW142673   4.008   8.172   7.320 -0.7857  2.8838  1.2551
13819SOL    HW242674   3.966   8.092   7.441 -1.8979  1.9349  0.2709
13820SOL     OW42675   4.536   7.881   6.961  0.1187  0.7597  0.4227
13820SOL    HW142676   4.477   7.943   7.005 -1.1667 -1.2306  1.6532
13820SOL    HW242677   4.604   7.863   7.026 -0.1289  0.0400  0.4801
13821SOL     OW42678   5.221   8.719   7.424 -0.7676  0.0919 -0.0962
13821SOL    HW142679   5.152   8.691   7.484  0.9383 -1.5055  1.2862
13821SOL    HW242680   5.269   8.638   7.404  0.6619  1.1203 -1.0216
13822SOL     OW42681   5.205   8.239   6.536  0.3495 -0.5258 -0.0099
13822SOL    HW142682   5.174   8.263   6.449  0.3348  0.4481  0.2533
13822SOL    HW242683   5.298   8.219   6.523  0.9564  1.8911  0.1099
13823SOL     OW42684   4.738   7.759   5.666 -0.3407  0.0506 -0.0291
13823SOL    HW142685   4.769   7.671   5.683  0.7819  0.0377 -1.8904
13823SOL    HW242686   4.803   7.816   5.708  2.0477  0.0101 -3.3029
13824SOL     OW42687   4.523   8.258   6.493 -0.5859  0.4220  0.1992
13824SOL    HW142688   4.458   8.245   6.424 -0.2053  0.0928 -0.1031
13824SOL    HW242689   4.571   8.175   6.496 -1.1725  0.1116  1.4707
13825SOL     OW42690   4.990   7.867   7.292  0.1687 -0.2069  0.1999
13825SOL    HW142691   5.016   7.776   7.275  0.9282  0.1159 -0.4590
13825SOL    HW242692   5.014   7.882   7.383  1.7793 -0.1193 -0.2024
13826SOL     OW42693   5.390   8.452   6.825 -0.2983 -0.1390 -0.7065
13826SOL    HW142694   5.433   8.507   6.891 -1.6944 -0.0393  0.1546
13826SOL    HW242695   5.336   8.391   6.876  0.1099 -1.3739 -1.7048
13827SOL     OW42696   4.395   8.262   5.226  0.4004  0.0981  0.0865
13827SOL    HW142697   4.336   8.192   5.198  0.5602  1.2335 -3.6528
13827SOL    HW242698   4.340   8.340   5.231  0.7122  0.2527  1.6114
13828SOL     OW42699   4.971   8.383   6.573 -0.0274  0.0262  0.2334
13828SOL    HW142700   5.064   8.377   6.551 -0.0621 -0.9991  0.3113
13828SOL    HW242701   4.937   8.296   6.555 -0.7082  0.0201  1.4337
13829SOL     OW42702   4.203   8.137   6.061 -0.1732 -0.1949  0.3733
13829SOL    HW142703   4.138   8.197   6.024 -0.6737 -0.1533  1.3030
13829SOL    HW242704   4.166   8.050   6.045 -0.9590 -0.1449  1.7673
13830SOL     OW42705   3.607   0.226   7.590  0.1250 -0.2734  0.5752
13830SOL    HW142706   3.589   0.297   7.651  1.2862  1.2979 -0.7919
13830SOL    HW242707   3.659   0.163   7.641 -1.0239 -0.2369  1.8446
13831SOL     OW42708   3.517   8.356   6.375 -0.1223  0.0835 -0.3027
13831SOL    HW142709   3.560   8.296   6.436 -1.6297 -1.3608 -0.5974
13831SOL    HW242710   3.535   8.443   6.411  1.4450 -0.5605  0.5856
13832SOL     OW42711   3.953   0.046   7.508 -0.6769  0.0875  0.2059
13832SOL    HW142712   3.913   0.016   7.589  1.5529  1.4703  1.9245
13832SOL    HW242713   3.975  -0.034   7.461  1.4517 -0.9885  2.7971
13833SOL     OW42714   5.367   7.263   6.903  0.3997  0.3020  0.3233
13833SOL    HW142715   5.434   7.277   6.837  0.5612  1.1222  0.6534
13833SOL    HW242716   5.284   7.261   6.855  0.7292 -1.9498 -0.2463
13834SOL     OW42717   3.865   7.488   5.948 -0.2986  0.1920 -0.3861
13834SOL    HW142718   3.868   7.401   5.988 -2.3204  0.9087  1.5525
13834SOL    HW242719   3.829   7.544   6.017  1.6453  2.7486 -1.3140
13835SOL     OW42720   5.496   8.310   6.118  0.1656 -0.4870 -0.6593
13835SOL    HW142721   5.530   8.309   6.207  0.4427  1.2824 -0.6918
13835SOL    HW242722   5.520   8.397   6.085 -0.7828 -0.7454 -2.1195
13836SOL     OW42723   3.731   8.280   7.122 -0.3827 -0.2112  0.0023
13836SOL    HW142724   3.741   8.284   7.217  1.0534  0.2346 -0.1419
13836SOL    HW242725   3.783   8.203   7.096 -1.2278 -0.6690 -0.3840
13837SOL     OW42726   5.242   7.438   6.537  0.2836 -0.6090 -0.3747
13837SOL    HW142727   5.200   7.452   6.622  0.7661  2.1477 -0.4862
13837SOL    HW242728   5.335   7.453   6.554  0.3123  0.6112 -1.4538
13838SOL     OW42729   4.843   7.206   6.358 -0.0260  0.4878 -0.2525
13838SOL    HW142730   4.899   7.182   6.284  0.6555  0.0459  0.3905
13838SOL    HW242731   4.775   7.139   6.359  1.5180 -1.1368  1.1553
13839SOL     OW42732   4.430   8.850   5.429  0.7624  0.4332  0.2866
13839SOL    HW142733   4.490   8.863   5.503  0.3437  0.9022  0.5487
13839SOL    HW242734   4.432   8.755   5.413 -0.8108 -0.0139  2.3429
13840SOL     OW42735   4.912   7.245   5.571 -0.3994  0.0421 -0.5129
13840SOL    HW142736   4.982   7.309   5.587  0.0167 -0.8057  1.3786
13840SOL    HW242737   4.859   7.284   5.502 -0.1844  2.4568  0.5736
13841SOL     OW42738   5.020   7.679   5.911  0.0636  0.2832  0.1291
13841SOL    HW142739   4.986   7.764   5.884  2.1082  1.4724  1.0857
13841SOL    HW242740   5.018   7.681   6.007  1.7944 -0.0106  0.1948
13842SOL     OW42741   4.915   7.699   6.547  0.3987  0.1437  0.0478
13842SOL    HW142742   4.901   7.609   6.517 -1.1434  0.0250  1.0369
13842SOL    HW242743   4.864   7.706   6.628 -0.8035  2.3668 -0.8083
13843SOL     OW42744   3.384   8.134   6.209 -0.3734 -0.0392  0.4198
13843SOL    HW142745   3.440   8.191   6.262  1.6490 -1.4463 -0.0879
13843SOL    HW242746   3.335   8.194   6.153 -2.2262  1.4780  3.3965
13844SOL     OW42747   4.087   8.001   7.714  0.3394 -0.3172 -0.4014
13844SOL    HW142748   4.021   7.939   7.747  0.4000 -0.1541  0.0407
13844SOL    HW242749   4.036   8.077   7.686  0.2714 -0.5299 -0.8636
13845SOL     OW42750   3.749   8.134   8.256  0.3722 -0.0022 -0.3322
13845SOL    HW142751   3.720   8.058   8.307 -1.0748  0.3908 -0.5158
13845SOL    HW242752   3.740   8.208   8.316  2.5819 -0.0224  0.1244
13846SOL     OW42753   3.497   8.288   8.339 -0.0642 -0.2692 -0.0652
13846SOL    HW142754   3.439   8.320   8.408 -0.5335 -2.1195  0.4498
13846SOL    HW242755   3.584   8.322   8.363 -0.3216 -0.4191  1.1349
13847SOL     OW42756   3.965   0.208   0.033 -1.0952  0.1539 -0.4965
13847SOL    HW142757   3.951   0.119  -0.000 -1.6989 -0.6582  1.7671
13847SOL    HW242758   3.997   0.196   0.122 -1.7968  2.2103  0.0952
13848SOL     OW42759   5.646   0.116   8.439  0.3862 -0.5213  0.0596
13848SOL    HW142760   5.552   0.095   8.436  0.1032  0.7559 -0.7081
13848SOL    HW242761   5.652   0.189   8.500  1.0513 -1.2931  0.9525
13849SOL     OW42762   4.832   8.440   8.100 -0.1526  0.0732  0.2985
13849SOL    HW142763   4.780   8.370   8.060 -3.1261  1.4823  1.3650
13849SOL    HW242764   4.781   8.520   8.083  2.0685  1.7122  0.8810
13850SOL     OW42765   5.531   8.173   7.100 -0.0556  0.6770  0.0305
13850SOL    HW142766   5.437   8.184   7.085  0.2007  1.3853 -1.2574
13850SOL    HW242767   5.560   8.115   7.029 -0.0413 -2.3720  2.3287
13851SOL     OW42768   4.509   8.732   8.511 -0.3164 -0.5425  0.5949
13851SOL    HW142769   4.515   8.745   8.605 -2.8671  0.3560  0.7290
13851SOL    HW242770   4.595   8.700   8.485  1.2028  1.3231  2.8784
13852SOL     OW42771   4.797   8.606   7.768 -0.2561  0.3359  0.3230
13852SOL    HW142772   4.814   8.625   7.860  1.5054 -1.0972  0.3426
13852SOL    HW242773   4.702   8.619   7.758 -0.5006  0.4157  2.3394
13853SOL     OW42774   4.067   0.790   8.167  0.1886  0.0306  0.0473
13853SOL    HW142775   4.041   0.698   8.167  0.2767 -0.0182 -1.1993
13853SOL    HW242776   4.132   0.797   8.096 -0.0768  1.1211 -0.1169
13854SOL     OW42777   4.437   7.946   8.593 -0.3949 -0.5029 -0.2983
13854SOL    HW142778   4.486   8.028   8.604 -0.6338 -0.5172  0.9362
13854SOL    HW242779   4.352   7.973   8.557 -0.7854 -0.1014  0.8828
13855SOL     OW42780   5.321   7.982   7.942  0.5153 -0.6577 -0.0953
13855SOL    HW142781   5.309   7.940   8.028  0.2440  0.5247  0.4652
13855SOL    HW242782   5.368   8.063   7.962  1.9370 -1.1557 -1.2813
13856SOL     OW42783   4.134   0.218   8.317 -0.1641 -0.0604 -0.0940
13856SOL    HW142784   4.082   0.249   8.392 -0.7111 -0.5012 -0.2859
13856SOL    HW242785   4.204   0.166   8.356  1.4634  2.2734  0.3327
13857SOL     OW42786   4.666   8.346   7.418  0.9198 -0.7346 -0.0198
13857SOL    HW142787   4.700   8.389   7.339  0.7534 -0.1695  0.2154
13857SOL    HW242788   4.656   8.254   7.392  0.3367 -0.4535 -0.8299
13858SOL     OW42789   4.138   0.093   8.074  0.0800 -0.5462 -0.8745
13858SOL    HW142790   4.130   0.000   8.094  0.8292 -0.7264 -1.3303
13858SOL    HW242791   4.186   0.130   8.148  2.9275 -1.2259 -2.2312
13859SOL     OW42792   5.361   8.571   7.780  0.0238 -0.4062 -0.6349
13859SOL    HW142793   5.446   8.613   7.775  0.7560 -1.1513  2.8002
13859SOL    HW242794   5.364   8.501   7.715  0.9270  1.2176 -2.4269
13860SOL     OW42795   5.533   8.714   7.626  0.1373  0.3995  0.0883
13860SOL    HW142796   5.517   8.694   7.534  0.8934 -0.7936  0.2061
13860SOL    HW242797   5.528   8.810   7.630  1.1994  0.5563 -1.4078
13861SOL     OW42798   4.502   0.525   8.402  0.0741 -0.2506 -0.1581
13861SOL    HW142799   4.588   0.565   8.412 -0.0595 -0.2316  1.1464
13861SOL    HW242800   4.491   0.514   8.308  1.5364 -0.3429 -0.3407
13862SOL     OW42801   5.045   7.668   7.923 -0.0585 -0.2904 -0.0799
13862SOL    HW142802   5.140   7.667   7.913  0.0095  0.1428  0.4773
13862SOL    HW242803   5.012   7.632   7.841  0.5361  1.0253 -0.9406
13863SOL     OW42804   3.963   8.777   8.490  0.5639 -0.2746  0.5533
13863SOL    HW142805   3.953   8.861   8.445  1.1535 -0.0399  0.8523
13863SOL    HW242806   3.944   8.797   8.582 -1.0413 -0.8320  0.3866
13864SOL     OW42807   5.806   8.727   7.544 -0.0811 -0.2005 -0.6218
13864SOL    HW142808   5.860   8.707   7.621  0.4523  1.8685 -0.3957
13864SOL    HW242809   5.716   8.720   7.576  0.1164 -0.3757 -0.0828
13865SOL     OW42810   5.410   8.643   8.324 -0.3773  0.6862  0.4521
13865SOL    HW142811   5.391   8.734   8.348  1.8435  1.3857 -0.1874
13865SOL    HW242812   5.366   8.630   8.241  0.6601  1.7810 -0.3030
13866SOL     OW42813   4.263   7.998   7.459 -0.0451  0.1223  0.0487
13866SOL    HW142814   4.206   8.073   7.443  0.0103  0.5937  1.8709
13866SOL    HW242815   4.250   7.977   7.552  1.7041 -0.6420  0.1612
13867SOL     OW42816   4.832   8.341   8.397  0.5794  0.5137 -0.4571
13867SOL    HW142817   4.918   8.340   8.356  0.8154 -1.0368  0.0344
13867SOL    HW242818   4.850   8.341   8.491  0.0288  1.6363 -0.3301
13868SOL     OW42819   3.938   8.031   8.656 -0.0875 -0.0583 -0.5532
13868SOL    HW142820   3.938   8.085   8.577 -0.4127 -0.0708 -0.5645
13868SOL    HW242821   3.872   8.071   8.712 -0.4144 -0.5062 -0.6066
13869SOL     OW42822   4.587   8.162   8.629  0.3049 -0.1385 -0.1398
13869SOL    HW142823   4.655   8.189   8.691  0.1881 -1.1044  0.4175
13869SOL    HW242824   4.636   8.129   8.553  0.4732 -1.0782  0.3673
13870SOL     OW42825   4.711   8.215   7.980  0.0255  0.3142 -0.1131
13870SOL    HW142826   4.688   8.124   7.998 -1.4413  0.5599 -0.6329
13870SOL    HW242827   4.703   8.224   7.885  0.2432  0.9618 -0.0758
13871SOL     OW42828   3.821   0.125   8.362 -0.0991 -0.1064  0.1588
13871SOL    HW142829   3.881   0.161   8.296  0.0186  1.5040  1.0929
13871SOL    HW242830   3.758   0.196   8.378  0.0284 -0.3444  1.9440
13872SOL     OW42831   4.376   7.832   7.658 -0.0995  0.4387 -0.1232
13872SOL    HW142832   4.314   7.763   7.679 -0.4902  1.0025  0.6421
13872SOL    HW242833   4.390   7.824   7.564  0.0642 -0.8347  0.0003
13873SOL     OW42834   5.414   8.330   7.639 -0.3458  0.2493  0.3658
13873SOL    HW142835   5.402   8.361   7.549 -1.1748  0.0937  0.4132
13873SOL    HW242836   5.373   8.244   7.640  2.1899 -1.0528  0.1570
13874SOL     OW42837   4.280   7.807   8.319 -0.0839 -0.2197  0.2230
13874SOL    HW142838   4.361   7.855   8.302 -1.0617  0.8451 -1.9502
13874SOL    HW242839   4.238   7.855   8.390  0.6167 -0.0283  0.5159
13875SOL     OW42840   5.313   8.541   8.070 -0.4566  0.2770 -0.6244
13875SOL    HW142841   5.223   8.564   8.095 -0.8762 -0.3199 -1.5362
13875SOL    HW242842   5.312   8.542   7.974  0.9725  1.9747 -0.6791
13876SOL     OW42843   4.319   8.783   7.367  0.0396 -0.1679  0.2277
13876SOL    HW142844   4.242   8.764   7.313  0.5938  0.0499 -0.6706
13876SOL    HW242845   4.311   8.725   7.442 -0.1529 -1.3503 -0.6794
13877SOL     OW42846   5.071   8.482   8.206 -0.3293 -0.2168  0.0271
13877SOL    HW142847   5.006   8.447   8.144  1.9708 -1.6294 -1.7279
13877SOL    HW242848   5.087   8.411   8.267 -0.2554  0.0475  0.3185
13878SOL     OW42849   5.786   0.413   7.590  0.3822  0.4790  0.5201
13878SOL    HW142850   5.879   0.434   7.580  0.8121 -1.7625 -0.9273
13878SOL    HW242851   5.751   0.415   7.501 -0.3838 -0.9772  0.7465
13879SOL     OW42852   4.657   7.639   7.623 -0.0719  0.0260  0.3560
13879SOL    HW142853   4.714   7.714   7.644 -0.9853  1.1433 -1.0075
13879SOL    HW242854   4.571   7.664   7.659 -0.3368 -0.4591  0.0664
13880SOL     OW42855   4.093   8.447   7.959 -0.1276 -0.1349 -0.5605
13880SOL    HW142856   4.021   8.412   8.011 -0.5903  0.1864 -0.9749
13880SOL    HW242857   4.147   8.370   7.938 -0.7710 -0.5116 -0.9011
13881SOL     OW42858   4.400   7.564   7.398  0.0750 -0.4622 -0.1444
13881SOL    HW142859   4.341   7.634   7.425 -0.3922 -0.0966 -1.9928
13881SOL    HW242860   4.385   7.494   7.461 -0.6358  0.4794  0.7701
13882SOL     OW42861   4.494   7.965   8.253 -0.1818  0.3822  0.0082
13882SOL    HW142862   4.515   7.959   8.160  0.7984  0.8755  0.1869
13882SOL    HW242863   4.573   7.935   8.297  0.0033  1.8042  0.6948
13883SOL     OW42864   4.446   7.658   8.002 -0.3308 -0.2515 -0.7239
13883SOL    HW142865   4.487   7.726   7.949  2.0711 -1.0202  0.0022
13883SOL    HW242866   4.503   7.582   7.990 -0.2729 -0.7431  2.1298
13884SOL     OW42867   4.997   8.575   7.554 -0.4782 -0.3600  0.4973
13884SOL    HW142868   4.922   8.605   7.605 -1.6479 -2.0974 -0.0848
13884SOL    HW242869   5.033   8.503   7.606 -1.8403 -2.3198 -1.1356
13885SOL     OW42870   4.247   7.982   7.950 -0.1970  0.7802  0.3838
13885SOL    HW142871   4.254   7.906   8.008  0.6785  0.7072  0.1979
13885SOL    HW242872   4.200   7.949   7.874 -1.0399  0.7854  0.8924
13886SOL     OW42873   4.951   7.605   7.649  0.4259  0.4014 -0.2632
13886SOL    HW142874   4.881   7.585   7.587  0.3010 -0.8225  0.2461
13886SOL    HW242875   5.013   7.657   7.599 -0.1299  0.2423 -1.1417
13887SOL     OW42876   5.257   0.690   7.900  0.2502 -0.0301  0.4590
13887SOL    HW142877   5.239   0.607   7.945 -0.1458  0.5172  1.3460
13887SOL    HW242878   5.172   0.717   7.866  0.2269  0.3634  0.8133
13888SOL     OW42879   4.093   0.416   8.108  0.1816 -0.1313  1.0283
13888SOL    HW142880   4.164   0.415   8.044 -0.4710  0.2947  0.2610
13888SOL    HW242881   4.114   0.347   8.170 -0.4756 -2.4412 -1.1443
13889SOL     OW42882   4.550   7.864   7.413 -0.2771 -0.2028  0.2088
13889SOL    HW142883   4.517   7.938   7.363 -0.2455  0.0237  0.5222
13889SOL    HW242884   4.616   7.901   7.471 -1.0038 -0.2977  1.1164
13890SOL     OW42885   4.023   7.551   8.376  0.0935  0.3294  0.0556
13890SOL    HW142886   4.023   7.641   8.408 -0.3506 -0.0348  1.1236
13890SOL    HW242887   3.967   7.503   8.438 -0.3940 -0.5062 -1.0000
13891SOL     OW42888   4.307   8.274   7.993 -0.4873  0.6509 -0.1107
13891SOL    HW142889   4.334   8.265   8.085  1.9212 -0.2849 -0.8511
13891SOL    HW242890   4.304   8.184   7.960  2.3456  1.0947 -1.8721
13892SOL     OW42891   5.140   7.518   8.167  0.1311 -0.2097 -0.3426
13892SOL    HW142892   5.130   7.577   8.093 -0.7164  0.0053 -0.0641
13892SOL    HW242893   5.072   7.452   8.154  0.9923 -1.0763 -0.5917
13893SOL     OW42894   5.362   0.047   8.440  0.7327 -0.2191 -0.0198
13893SOL    HW142895   5.312   0.085   8.368  1.7870 -0.9354 -1.1706
13893SOL    HW242896   5.295   0.014   8.501 -0.1748  0.4019 -0.6583
13894SOL     OW42897   5.009   8.166   7.972  0.2115  0.2220 -0.2028
13894SOL    HW142898   5.076   8.169   8.040 -0.2188 -0.6728  0.2760
13894SOL    HW242899   4.930   8.200   8.015  0.4477  1.7438 -0.9037
13895SOL     OW42900   5.964   8.433   7.533  0.2867  0.2289 -0.3842
13895SOL    HW142901   5.991   8.365   7.594 -0.6861 -0.2592 -0.4776
13895SOL    HW242902   5.875   8.408   7.506  0.2089  1.1149 -1.0167
13896SOL     OW42903   5.803   0.172   8.210  0.6356  0.0919 -0.7684
13896SOL    HW142904   5.773   0.094   8.162 -0.0696 -0.1625  0.0598
13896SOL    HW242905   5.749   0.173   8.289  1.4403  0.7895 -0.2221
13897SOL     OW42906   4.988   8.159   7.223 -0.6244  0.0171  0.0682
13897SOL    HW142907   4.918   8.182   7.163 -0.0890  1.6579  0.0092
13897SOL    HW242908   4.985   8.063   7.229 -2.7900  0.0334  0.0174
13898SOL     OW42909   4.438   8.133   7.688 -0.7432  0.7707  0.4563
13898SOL    HW142910   4.357   8.161   7.732 -1.1919 -0.8752  0.7169
13898SOL    HW242911   4.427   8.040   7.673 -0.3975  1.1551 -2.7946
13899SOL     OW42912   5.549   8.792   8.836 -0.2431  0.1733 -0.3443
13899SOL    HW142913   5.468   8.798   8.886 -0.8717 -1.6334 -1.0730
13899SOL    HW242914   5.529   8.731   8.765  2.1668 -1.5241  0.3220
13900SOL     OW42915   4.350   0.131   8.847 -0.0524  0.2574 -0.3007
13900SOL    HW142916   4.274   0.165   8.895 -0.1771 -0.0287 -0.2972
13900SOL    HW242917   4.356   0.187   8.770 -1.5519 -1.0224 -1.4098
13901SOL     OW42918   4.822   8.745   8.660 -0.0695  0.6784 -0.4222
13901SOL    HW142919   4.884   8.672   8.657 -0.0136  0.7336 -0.6218
13901SOL    HW242920   4.743   8.708   8.699  0.0430  0.5738 -0.2959
13902SOL     OW42921   5.718   8.402   8.523  0.2129  0.2588  0.3428
13902SOL    HW142922   5.791   8.399   8.586  1.6242  0.8281 -1.1848
13902SOL    HW242923   5.671   8.483   8.545  1.8771  1.5401 -0.5026
13903SOL     OW42924   4.666   8.299   7.720  0.2425 -0.4224  0.1054
13903SOL    HW142925   4.593   8.240   7.700 -0.5554  0.2411  1.0055
13903SOL    HW242926   4.701   8.323   7.634 -0.7095 -0.6006 -0.3470
13904SOL     OW42927   3.580   8.041   8.632 -0.1090  0.2413 -0.5995
13904SOL    HW142928   3.598   7.988   8.554 -0.6133  0.2488 -0.7217
13904SOL    HW242929   3.557   7.978   8.700  1.7431  0.1202 -0.0341
13905SOL     OW42930   4.999   8.531   8.661 -0.1737 -0.0864  0.2770
13905SOL    HW142931   5.066   8.469   8.631  1.4308  2.1367 -0.9799
13905SOL    HW242932   4.976   8.500   8.748  1.4919 -1.7224  0.2079
13906SOL     OW42933   4.093   0.267   7.643 -0.1329 -0.1630 -0.1333
13906SOL    HW142934   4.031   0.203   7.607  0.5184 -0.2809 -1.0787
13906SOL    HW242935   4.073   0.269   7.737  2.2888 -4.6905  0.7865
13907SOL     OW42936   4.177   8.673   8.118 -0.5170  0.3377  0.1816
13907SOL    HW142937   4.138   8.591   8.090  0.9774 -0.9727  1.6924
13907SOL    HW242938   4.213   8.655   8.205  0.4395  2.4018  0.2986
13908SOL     OW42939   4.915   8.768   7.991  0.1187 -0.3780 -0.2493
13908SOL    HW142940   4.991   8.757   7.933 -0.9462 -0.3274 -1.7157
13908SOL    HW242941   4.889   8.859   7.978  0.3200 -0.1373  0.9361
13909SOL     OW42942   5.040   8.095   7.619  0.1155 -0.6401  0.5682
13909SOL    HW142943   5.020   8.034   7.690 -2.3522  1.0025  1.4087
13909SOL    HW242944   5.023   8.181   7.657  1.2746  0.4536 -1.2723
13910SOL     OW42945   4.306   8.556   8.346 -0.0856 -0.6492  0.2617
13910SOL    HW142946   4.368   8.530   8.278 -1.2125 -0.2716 -0.9454
13910SOL    HW242947   4.358   8.607   8.407  1.3711 -2.5867  0.7341
13911SOL     OW42948   4.728   8.611   8.368  0.1184  0.5795  0.0890
13911SOL    HW142949   4.792   8.676   8.340  1.5108 -0.0067  1.7430
13911SOL    HW242950   4.770   8.526   8.350 -1.2627  0.0915 -1.1190
13912SOL     OW42951   4.738   7.956   7.652  0.5454 -0.5362 -0.5053
13912SOL    HW142952   4.804   7.960   7.722 -1.0535  2.2382  1.0190
13912SOL    HW242953   4.764   8.024   7.591 -1.4123  1.4663  0.7435
13913SOL     OW42954   3.731   7.914   8.431 -0.1018  0.2663 -0.0515
13913SOL    HW142955   3.823   7.895   8.448 -0.2963 -0.9838 -0.2667
13913SOL    HW242956   3.690   7.828   8.421 -1.5998  0.7116  1.6330
13914SOL     OW42957   3.862   0.015   8.721 -0.4144  0.6705 -0.5764
13914SOL    HW142958   3.796   0.003   8.789  0.7752  0.7297  0.6365
13914SOL    HW242959   3.813   0.046   8.645 -1.7359  0.9820  0.3625
13915SOL     OW42960   3.922   8.558   8.377 -0.2049 -0.0456 -0.2387
13915SOL    HW142961   3.992   8.497   8.402 -1.8625 -1.7239  0.5186
13915SOL    HW242962   3.939   8.637   8.429  1.7280  0.0460 -0.8983
13916SOL     OW42963   4.100   7.737   8.093 -0.3091  0.0641 -0.0135
13916SOL    HW142964   4.145   7.739   8.177  0.2695  0.4684 -0.3320
13916SOL    HW242965   4.007   7.748   8.115 -0.1557  0.1785  0.5701
13917SOL     OW42966   4.543   7.886   7.857  0.2742 -0.4307  0.2129
13917SOL    HW142967   4.469   7.881   7.798 -0.4652 -0.4202  1.1110
13917SOL    HW242968   4.614   7.926   7.805 -0.6820  0.6073 -0.3348
13918SOL     OW42969   4.627   8.231   8.287  0.2977  0.2294  0.1406
13918SOL    HW142970   4.691   8.265   8.349  0.1719 -0.8073  0.8607
13918SOL    HW242971   4.670   8.156   8.247 -0.4238 -0.4264  0.5734
13919SOL     OW42972   5.534   7.753   7.329 -0.2978  0.2124 -0.1342
13919SOL    HW142973   5.508   7.845   7.331 -0.4882  0.1981 -1.2754
13919SOL    HW242974   5.608   7.751   7.268 -0.2146 -0.3736 -0.0151
13920SOL     OW42975   5.253   8.142   7.086 -0.6681  0.7497 -0.5664
13920SOL    HW142976   5.183   8.158   7.150  0.1130 -0.7494  0.7189
13920SOL    HW242977   5.211   8.158   7.001 -1.9866  1.8847  0.2505
13921SOL     OW42978   3.750   8.360   8.418  0.5055  0.3972 -0.2474
13921SOL    HW142979   3.756   8.319   8.504  0.5327 -1.5002 -1.0844
13921SOL    HW242980   3.815   8.430   8.419  1.0656 -0.1133  0.9929
13922SOL     OW42981   4.066   8.111   8.117  0.6873 -0.4646  0.0359
13922SOL    HW142982   4.147   8.120   8.166  1.1772  3.3894 -1.1191
13922SOL    HW242983   4.091   8.067   8.036  1.7997  1.0000 -0.4693
13923SOL     OW42984   4.861   7.935   8.818  0.2670  0.1684  0.0377
13923SOL    HW142985   4.907   7.875   8.759  0.6723  1.5786 -1.1128
13923SOL    HW242986   4.777   7.892   8.834 -0.3387  0.2557 -2.5275
13924SOL     OW42987   3.375   8.764   7.301  0.1524  0.0025 -0.0811
13924SOL    HW142988   3.341   8.851   7.322 -2.2818 -0.2793 -2.3125
13924SOL    HW242989   3.434   8.778   7.228 -0.6624 -0.2386 -0.8009
13925SOL     OW42990   4.691   8.470   8.672  0.3191 -0.1940  0.1615
13925SOL    HW142991   4.603   8.458   8.705  0.4483  0.2961  0.6991
13925SOL    HW242992   4.680   8.496   8.581 -0.0892 -0.1933  0.2134
13926SOL     OW42993   3.627   7.670   8.452 -0.2801  0.2948  0.2634
13926SOL    HW142994   3.643   7.578   8.430 -0.1371  0.2535  0.5310
13926SOL    HW242995   3.551   7.694   8.399  0.0421  0.1931 -0.2509
13927SOL     OW42996   4.225   8.646   7.615 -0.2376  0.4844 -0.0391
13927SOL    HW142997   4.176   8.683   7.688  1.0770 -2.0984  2.3157
13927SOL    HW242998   4.183   8.561   7.599 -0.0275  0.6817 -1.8386
13928SOL     OW42999   5.009   7.949   8.333 -0.0014  0.0864 -0.2703
13928SOL    HW143000   4.969   7.933   8.418 -0.3787  1.0062 -0.2567
13928SOL    HW243001   4.958   7.896   8.271  0.3907 -0.7232  0.0962
13929SOL     OW43002   3.981   8.150   8.397 -0.3578  0.0292 -0.3839
13929SOL    HW143003   4.021   8.229   8.364  1.8948 -1.2948 -1.0296
13929SOL    HW243004   3.912   8.129   8.333  0.3882  0.3690 -1.3197
13930SOL     OW43005   4.144   7.761   7.352 -0.5172 -0.2828 -0.6782
13930SOL    HW143006   4.190   7.841   7.375  0.1352 -0.6322 -0.7410
13930SOL    HW243007   4.076   7.789   7.291 -1.0299  0.3799  0.1744
13931SOL     OW43008   3.793   8.543   8.711 -0.8138 -0.4895 -0.0328
13931SOL    HW143009   3.813   8.520   8.802  0.4376 -0.9874 -0.4023
13931SOL    HW243010   3.707   8.584   8.715 -0.8986 -0.7320  1.3405
13932SOL     OW43011   4.950   8.734   8.252  0.3583 -0.0647 -0.2850
13932SOL    HW143012   4.950   8.784   8.171 -1.4322  0.8614  0.2441
13932SOL    HW243013   5.008   8.660   8.235  0.1887  0.2344 -2.3082
13933SOL     OW43014   5.010   8.349   7.733 -0.3484 -0.2364  0.1443
13933SOL    HW143015   5.045   8.325   7.819 -2.2876 -2.1178  0.5241
13933SOL    HW243016   4.918   8.371   7.750 -0.3094  1.1719 -1.2245
13934SOL     OW43017   3.658   0.305   8.231  0.2908 -0.5362  0.1747
13934SOL    HW143018   3.624   0.393   8.241  0.6317 -0.4734  0.9289
13934SOL    HW243019   3.665   0.291   8.137  3.3628  1.4896 -0.0269
13935SOL     OW43020   5.687   7.626   7.520  0.6022  0.6997 -0.3654
13935SOL    HW143021   5.735   7.560   7.470 -2.0571 -1.5125 -0.2250
13935SOL    HW243022   5.606   7.640   7.471 -1.5374 -0.6068  2.4454
13936SOL     OW43023   4.634   8.785   8.087 -0.6018  1.0281  0.2569
13936SOL    HW143024   4.714   8.751   8.047 -0.8961 -0.9057  1.2241
13936SOL    HW243025   4.564   8.757   8.028 -1.0917 -2.2515  2.1361
13937SOL     OW43026   4.688   0.192   0.410  0.2615  0.1029 -0.0361
13937SOL    HW143027   4.758   0.220   0.352  0.8490 -0.4965  0.3725
13937SOL    HW243028   4.641   0.273   0.432  0.7742  0.4959 -0.3742
13938SOL     OW43029   5.631   7.607   8.339  0.5827  0.5635 -0.2735
13938SOL    HW143030   5.554   7.625   8.286  0.0985  3.3567  1.1855
13938SOL    HW243031   5.610   7.526   8.386  0.4929 -1.2422 -3.1773
13939SOL     OW43032   3.571   7.843   8.124  0.7039  0.1645  0.6574
13939SOL    HW143033   3.599   7.764   8.077 -2.3254 -0.4464 -0.3487
13939SOL    HW243034   3.538   7.811   8.208 -1.6945  0.1047 -0.2433
13940SOL     OW43035   4.126   8.377   8.449 -0.3708 -0.5680 -0.3883
13940SOL    HW143036   4.181   8.422   8.385 -1.9466 -0.3448 -1.6691
13940SOL    HW243037   4.187   8.342   8.513  1.0515  2.0570 -0.1614
13941SOL     OW43038   5.422   8.553   7.361 -0.0554  0.0601 -0.3078
13941SOL    HW143039   5.349   8.502   7.325 -0.2546 -0.2844  0.5446
13941SOL    HW243040   5.495   8.536   7.302 -0.1944 -1.0041 -0.2007
13942SOL     OW43041   4.100   8.615   8.725 -0.2654  0.0351  0.0039
13942SOL    HW143042   4.122   8.626   8.632 -1.2965 -0.4323 -0.3091
13942SOL    HW243043   4.007   8.636   8.730 -0.0586  0.7561  1.0694
13943SOL     OW43044   5.525   8.584   8.576 -0.2653  0.9195  0.1122
13943SOL    HW143045   5.482   8.606   8.494  0.8684 -0.2898 -0.8442
13943SOL    HW243046   5.467   8.521   8.618  0.4183 -0.5241 -1.0560
13944SOL     OW43047   4.835   0.045   8.413 -0.3032 -1.0100  0.1388
13944SOL    HW143048   4.815  -0.005   8.492 -3.2402 -3.1687 -1.7297
13944SOL    HW243049   4.872  -0.020   8.353 -1.4093 -0.2876 -1.3832
13945SOL     OW43050   4.654   7.861   8.455  0.1864  0.3186 -0.5213
13945SOL    HW143051   4.633   7.773   8.426 -0.0616  0.5009 -0.9160
13945SOL    HW243052   4.583   7.883   8.516  0.5936  0.0116  0.0617
13946SOL     OW43053   5.484   7.924   8.410 -0.0082 -0.1267  0.1994
13946SOL    HW143054   5.480   8.018   8.424 -0.3888  0.1081 -1.3702
13946SOL    HW243055   5.396   7.893   8.435  0.1415 -0.0941  0.7903
13947SOL     OW43056   4.204   8.048   8.516 -0.2254  0.2008 -0.1598
13947SOL    HW143057   4.137   8.071   8.452 -1.6375  1.1720  1.5889
13947SOL    HW243058   4.226   8.131   8.559  0.1846 -0.5161  1.0711
13948SOL     OW43059   3.871   7.940   7.492 -0.5193  0.1532  0.2182
13948SOL    HW143060   3.780   7.922   7.470  0.0131 -1.1278 -1.1196
13948SOL    HW243061   3.909   7.854   7.510  0.5190  0.6170  0.3306
13949SOL     OW43062   3.524   7.562   8.020 -0.4354 -0.8664 -0.1290
13949SOL    HW143063   3.549   7.616   7.945  0.0212  1.3082  1.4461
13949SOL    HW243064   3.429   7.572   8.026 -0.3753 -0.3242  0.0440
13950SOL     OW43065   4.302   8.252   8.640  0.1358 -0.0661  0.0429
13950SOL    HW143066   4.266   8.276   8.725 -0.5660  0.0040 -0.2630
13950SOL    HW243067   4.396   8.260   8.650  0.1095 -0.9145  1.0638
13951SOL     OW43068   5.348   8.246   8.163  0.5032 -0.6065 -0.1945
13951SOL    HW143069   5.423   8.235   8.222  0.2227 -0.4158  0.2018
13951SOL    HW243070   5.355   8.337   8.132  1.8366 -1.2958 -2.1139
13952SOL     OW43071   4.702   7.961   8.046  0.5305 -0.1867 -0.1931
13952SOL    HW143072   4.625   7.936   7.996  1.0963 -0.3853 -0.9878
13952SOL    HW243073   4.732   7.880   8.087  0.9552 -0.3566 -0.8057
13953SOL     OW43074   4.659   0.076   7.812  0.1363 -0.4078  0.3796
13953SOL    HW143075   4.627   0.037   7.731 -0.8299 -0.0506  0.5755
13953SOL    HW243076   4.580   0.104   7.858  0.7048 -0.0638  1.1719
13954SOL     OW43077   5.710   8.169   8.165 -0.1532 -0.3054 -0.2631
13954SOL    HW143078   5.700   8.259   8.195  0.0396 -0.4275  0.1728
13954SOL    HW243079   5.736   8.177   8.073 -0.5923  0.0705 -0.3547
13955SOL     OW43080   4.555   8.574   7.590  0.3854 -0.4534  0.0359
13955SOL    HW143081   4.460   8.574   7.574  0.1081 -0.2860  1.5347
13955SOL    HW243082   4.586   8.493   7.548 -0.2569 -0.0483 -1.2638
13956SOL     OW43083   4.508   8.470   8.203  0.4789 -0.0629  0.7058
13956SOL    HW143084   4.550   8.386   8.221  2.1118  0.6599  0.4550
13956SOL    HW243085   4.578   8.535   8.215 -0.2639  1.1008 -0.8834
13957SOL     OW43086   5.753   8.302   7.414 -0.2510 -0.8553 -0.9633
13957SOL    HW143087   5.714   8.341   7.336 -3.0295 -1.1235  0.1786
13957SOL    HW243088   5.687   8.240   7.446  0.3971 -0.1603  2.0449
13958SOL     OW43089   3.964   0.226   7.907  0.1922 -0.5821 -0.2166
13958SOL    HW143090   4.024   0.192   7.974 -0.0882 -1.8502 -0.5722
13958SOL    HW243091   3.896   0.271   7.956  0.7085 -0.3189  0.2727
13959SOL     OW43092   5.524   8.187   8.536 -0.6199  0.1862  0.1396
13959SOL    HW143093   5.470   8.240   8.595 -2.7963  0.2653 -1.7798
13959SOL    HW243094   5.600   8.162   8.589 -1.4316  1.9369  2.3030
13960SOL     OW43095   4.327   8.168   8.247  0.2160 -0.1265  0.5843
13960SOL    HW143096   4.386   8.093   8.259 -0.3382 -0.2964  2.7008
13960SOL    HW243097   4.339   8.221   8.326 -0.6331  1.1502 -0.1061
13961SOL     OW43098   5.797   8.729   8.453  0.0215 -0.2618  0.0121
13961SOL    HW143099   5.740   8.694   8.521 -0.5886  1.5249  0.4768
13961SOL    HW243100   5.753   8.809   8.424  0.2018 -1.0038 -2.5797
13962SOL     OW43101   3.993   7.781   8.534 -0.5839  0.0304  0.1971
13962SOL    HW143102   3.913   7.773   8.588 -0.8400  1.6628  0.1117
13962SOL    HW243103   4.038   7.857   8.570  0.9827 -0.8704  0.2473
13963SOL     OW43104   4.876   7.773   8.144 -0.4543 -0.1628 -0.0235
13963SOL    HW143105   4.866   7.680   8.165  0.6540 -0.6087 -1.3094
13963SOL    HW243106   4.935   7.774   8.069 -1.4734  1.5165 -0.8503
13964SOL     OW43107   5.030   7.390   8.696 -0.0595  0.2249  0.0448
13964SOL    HW143108   5.102   7.398   8.759  0.2934 -0.3947 -0.2667
13964SOL    HW243109   5.052   7.312   8.646 -0.1986  0.8623 -1.0247
13965SOL     OW43110   4.783   8.056   7.396 -0.2544  0.0418 -0.5045
13965SOL    HW143111   4.771   7.998   7.321  1.6389 -1.7105  0.4248
13965SOL    HW243112   4.860   8.109   7.374  0.1009 -0.2358  0.0460
13966SOL     OW43113   5.193   7.454   7.612 -0.3471 -0.4010 -0.1823
13966SOL    HW143114   5.124   7.481   7.674  0.3793 -0.2694  0.5878
13966SOL    HW243115   5.147   7.400   7.548 -1.0967 -0.6933  0.5775
13967SOL     OW43116   4.938   7.941   7.827 -0.2703  0.5273  0.3339
13967SOL    HW143117   4.961   7.853   7.856  0.1403  0.1334 -1.0944
13967SOL    HW243118   4.955   7.997   7.902  1.9318 -0.2656  0.4950
13968SOL     OW43119   5.307   7.873   8.186  0.5932  0.6271 -0.3036
13968SOL    HW143120   5.232   7.872   8.246  0.4761 -0.1119 -0.4608
13968SOL    HW243121   5.382   7.889   8.242  0.7718 -2.2129  0.3871
13969SOL     OW43122   3.814   0.228   7.374 -0.0542  0.0822 -0.7235
13969SOL    HW143123   3.744   0.222   7.439  0.9779 -0.9774  0.3379
13969SOL    HW243124   3.884   0.174   7.409  0.1408 -1.4821 -3.2765
13970SOL     OW43125   6.369   0.703   8.375 -0.2032 -0.0530 -0.0608
13970SOL    HW143126   6.313   0.686   8.300  0.9156 -1.5235 -0.6049
13970SOL    HW243127   6.331   0.651   8.446 -0.2262 -0.0785 -0.0913
13971SOL     OW43128   5.634   0.309   0.778 -0.2158 -0.5427 -0.5962
13971SOL    HW143129   5.713   0.337   0.825  0.2109 -1.4556 -0.7405
13971SOL    HW243130   5.615   0.222   0.813 -2.4124  0.4806  0.9561
13972SOL     OW43131   5.592   0.312   0.489  0.1433 -0.3402 -0.1254
13972SOL    HW143132   5.655   0.244   0.464  0.5456 -0.6635  1.6479
13972SOL    HW243133   5.603   0.321   0.584 -0.8949  1.2188 -0.1254
13973SOL     OW43134   6.232   0.830   1.112 -0.2306  0.0205  0.1726
13973SOL    HW143135   6.213   0.855   1.202  1.2255 -0.5809  0.6729
13973SOL    HW243136   6.299   0.893   1.083 -0.8989  0.3940 -0.6008
13974SOL     OW43137   6.936   1.751   0.684  0.0814 -0.3929  0.1388
13974SOL    HW143138   6.855   1.704   0.665 -0.3371 -0.1194  1.1761
13974SOL    HW243139   6.911   1.819   0.747  0.7285  1.0365 -1.0734
13975SOL     OW43140   6.513   0.668   0.406 -0.0356 -0.0462 -0.2559
13975SOL    HW143141   6.425   0.704   0.395  0.0299 -0.1068 -0.9881
13975SOL    HW243142   6.507   0.617   0.487 -0.3413  0.9564  0.3804
13976SOL     OW43143   7.161   0.423   0.202  0.0556 -0.4782 -0.1660
13976SOL    HW143144   7.118   0.457   0.280  0.8536  0.3006 -0.0553
13976SOL    HW243145   7.177   0.331   0.221  0.5501 -0.2182  0.7265
13977SOL     OW43146   5.946   1.420   0.750 -0.0756  0.1086 -0.0618
13977SOL    HW143147   5.944   1.351   0.816 -1.2277  0.6356  0.4833
13977SOL    HW243148   6.030   1.464   0.765  1.3038 -1.9302 -1.2861
13978SOL     OW43149   6.549   0.600   1.984 -0.1966  0.0963  0.1424
13978SOL    HW143150   6.546   0.670   2.049  1.4965  0.3380  0.0160
13978SOL    HW243151   6.577   0.644   1.903 -0.2781 -0.5348 -0.2365
13979SOL     OW43152   6.180   1.114   0.825  0.0210  0.1333 -0.2115
13979SOL    HW143153   6.229   1.160   0.893  0.7031 -1.2386  0.2491
13979SOL    HW243154   6.088   1.135   0.843  0.2542  0.4664  0.6029
13980SOL     OW43155   6.400   1.129   2.020 -0.7984  0.1236  0.6168
13980SOL    HW143156   6.369   1.060   1.962 -1.0997 -0.0916  1.0284
13980SOL    HW243157   6.392   1.092   2.108 -1.1171  0.7448  0.8544
13981SOL     OW43158   5.567   1.325   1.692 -0.1646 -0.1249  0.7430
13981SOL    HW143159   5.509   1.365   1.757 -0.4733  0.9830 -0.1757
13981SOL    HW243160   5.635   1.391   1.677  0.2368 -0.6165  0.3772
13982SOL     OW43161   7.014   1.499   1.214  0.1839  0.4898  0.1513
13982SOL    HW143162   7.101   1.476   1.247 -0.0854 -0.6092  0.1630
13982SOL    HW243163   6.993   1.428   1.153 -2.1378 -1.2204  2.7258
13983SOL     OW43164   6.011   0.396   1.308 -0.2083  0.0290 -0.6763
13983SOL    HW143165   6.098   0.357   1.308  0.1283  0.7704 -0.5257
13983SOL    HW243166   6.021   0.479   1.263 -0.6553  0.5049  0.0704
13984SOL     OW43167   6.889   0.464   0.664  0.2353  0.3851  0.5027
13984SOL    HW143168   6.927   0.538   0.710 -0.4337  1.0521  0.0108
13984SOL    HW243169   6.829   0.424   0.727 -0.6359  1.2609  0.2636
13985SOL     OW43170   6.251   2.277   0.349  0.1769 -0.2570 -0.4780
13985SOL    HW143171   6.298   2.240   0.274 -0.3748 -1.8039 -0.0863
13985SOL    HW243172   6.305   2.255   0.425 -0.2632 -0.4483 -0.2162
13986SOL     OW43173   6.787   1.459   1.493 -0.4834 -0.3084  0.0304
13986SOL    HW143174   6.812   1.368   1.511  1.3091  0.5232  2.2690
13986SOL    HW243175   6.725   1.480   1.562  0.2251  0.5563  0.4254
13987SOL     OW43176   5.358   2.113   0.383 -0.3220  0.6327  0.5960
13987SOL    HW143177   5.406   2.038   0.419  0.4747  0.0206 -1.5470
13987SOL    HW243178   5.284   2.074   0.337 -1.9371  1.4628  2.3883
13988SOL     OW43179   5.880   1.246   0.421  0.0554  0.0462 -0.8752
13988SOL    HW143180   5.813   1.274   0.359 -0.6306  1.3081  0.4135
13988SOL    HW243181   5.945   1.316   0.420  0.0705  0.0452 -0.2033
13989SOL     OW43182   6.311   1.676   1.251  0.4866  0.2748  0.7496
13989SOL    HW143183   6.292   1.584   1.272 -0.2702 -0.1848 -1.6538
13989SOL    HW243184   6.271   1.725   1.323  1.6427 -1.2604  2.5379
13990SOL     OW43185   6.245   1.068   8.826  0.8029  0.2693  0.0776
13990SOL    HW143186   6.250   1.120   8.906  1.5786  2.0104 -1.0220
13990SOL    HW243187   6.154   1.040   8.820  0.6159  0.5744  1.2815
13991SOL     OW43188   6.749   0.013   1.812 -0.0769 -0.1952 -0.3162
13991SOL    HW143189   6.740  -0.072   1.769 -0.4108  0.3907 -1.4240
13991SOL    HW243190   6.700   0.003   1.894 -0.9374 -0.7766 -0.8815
13992SOL     OW43191   5.950   0.420   0.575  0.2050  0.4548 -0.2927
13992SOL    HW143192   5.994   0.364   0.511 -0.7032 -0.3504 -0.2375
13992SOL    HW243193   5.890   0.474   0.523 -0.5061 -0.1736 -0.1435
13993SOL     OW43194   7.347   1.930   0.420 -0.1638  0.4719  0.0154
13993SOL    HW143195   7.357   2.025   0.423 -1.0278  0.5616  0.5524
13993SOL    HW243196   7.315   1.907   0.508  1.5034 -0.5012  0.4051
13994SOL     OW43197   6.261   1.840   8.739  0.1078 -0.1323  0.6673
13994SOL    HW143198   6.171   1.829   8.772 -0.8242  0.8822 -1.3756
13994SOL    HW243199   6.276   1.762   8.685  0.7774 -0.6818  1.6236
13995SOL     OW43200   6.888   1.180   0.536  0.2980  0.6451  0.2740
13995SOL    HW143201   6.953   1.208   0.600 -0.8469  4.4780 -0.0341
13995SOL    HW243202   6.931   1.189   0.451  0.5138 -0.5009  0.2457
13996SOL     OW43203   7.004   1.122   8.765  0.0914  0.4474  0.4075
13996SOL    HW143204   7.071   1.122   8.833  1.1716  1.2937 -0.6054
13996SOL    HW243205   7.046   1.079   8.690 -0.7043  0.4582 -0.0545
13997SOL     OW43206   5.205   0.979   1.536  0.0068  0.2251  0.1509
13997SOL    HW143207   5.269   1.051   1.532  0.0339  0.1665 -0.6154
13997SOL    HW243208   5.185   0.970   1.629  1.0760  0.2866  0.4012
13998SOL     OW43209   5.640   1.590   0.901  0.2926  0.7871 -0.2171
13998SOL    HW143210   5.671   1.512   0.855  0.1370 -0.6009  1.8533
13998SOL    HW243211   5.561   1.615   0.855  0.7782  0.2160 -1.4205
13999SOL     OW43212   6.687   1.358   1.227  0.1592 -0.0271 -0.0352
13999SOL    HW143213   6.699   1.264   1.226 -2.3514 -0.4813  1.6433
13999SOL    HW243214   6.730   1.387   1.308  1.3654  0.4009 -0.7965
14000SOL     OW43215   6.303   8.689   0.264 -0.1418  0.0799 -0.4499
14000SOL    HW143216   6.339   8.687   0.175  0.5592 -1.0402 -0.1590
14000SOL    HW243217   6.307   8.782   0.289 -0.3517  0.4093 -1.5758
14001SOL     OW43218   5.365   1.187   1.550 -0.6528  0.4000  0.3432
14001SOL    HW143219   5.441   1.212   1.603 -0.8178  0.0881  0.7289
14001SOL    HW243220   5.367   1.248   1.476  1.7760 -1.5569 -1.3317
14002SOL     OW43221   6.970   1.082   0.258 -0.7893  0.5504  0.2271
14002SOL    HW143222   6.996   1.146   0.192 -1.0586  0.5215  0.0922
14002SOL    HW243223   6.899   1.032   0.217  0.6195 -1.0633 -0.3783
14003SOL     OW43224   6.950   1.883   1.529  0.2556 -0.2775  0.2661
14003SOL    HW143225   6.993   1.947   1.471 -0.4444 -0.0089  0.0396
14003SOL    HW243226   6.914   1.817   1.470  0.0142 -0.2941  0.4329
14004SOL     OW43227   5.585   8.835   2.386  0.1880  0.4279  0.4737
14004SOL    HW143228   5.672   8.824   2.423  0.3749  2.1055  0.6158
14004SOL    HW243229   5.601   8.858   2.294 -0.1672 -0.5460  0.1545
14005SOL     OW43230   7.133   1.670   0.906 -0.7212 -0.3477  0.8896
14005SOL    HW143231   7.073   1.690   0.834  1.2359 -1.1105 -1.0765
14005SOL    HW243232   7.081   1.617   0.966 -1.3910 -3.5803 -2.1655
14006SOL     OW43233   7.223   2.098   0.871 -0.1888  0.1729  0.0050
14006SOL    HW143234   7.173   2.045   0.933 -0.1412  0.4195  0.2543
14006SOL    HW243235   7.217   2.049   0.788  1.6711 -1.3773  0.7056
14007SOL     OW43236   6.334   0.974   8.426 -0.4040 -0.6268  0.5745
14007SOL    HW143237   6.272   0.964   8.498  0.8211 -1.0081  1.5918
14007SOL    HW243238   6.352   0.884   8.397  0.4367 -0.5978  0.9677
14008SOL     OW43239   6.730   0.624   0.834  0.1872  0.2340  0.1441
14008SOL    HW143240   6.784   0.634   0.912 -0.7474 -0.4785  0.9209
14008SOL    HW243241   6.746   0.703   0.783  0.8147  0.7245  1.0614
14009SOL     OW43242   7.216   2.239   0.310 -0.1430 -0.7593  0.3065
14009SOL    HW143243   7.217   2.291   0.390  0.1235 -0.4731  0.1211
14009SOL    HW243244   7.182   2.298   0.243 -1.2694 -1.2847  0.3958
14010SOL     OW43245   6.166   0.919   1.370 -0.1234 -0.1922 -0.3693
14010SOL    HW143246   6.201   0.921   1.459  4.1376  0.0493 -1.7872
14010SOL    HW243247   6.159   1.012   1.345  0.5137 -0.2564 -0.8250
14011SOL     OW43248   7.015   0.584   2.417 -0.1235 -0.0629  0.6977
14011SOL    HW143249   6.933   0.631   2.402  0.3196  0.0345 -1.7055
14011SOL    HW243250   7.078   0.624   2.358  1.5160 -0.6065  1.9803
14012SOL     OW43251   6.649   1.051   1.263 -0.5272 -0.4695 -0.3597
14012SOL    HW143252   6.565   1.059   1.308 -0.1567 -3.0158  0.9520
14012SOL    HW243253   6.626   1.025   1.174 -1.2415  4.0324 -1.7566
14013SOL     OW43254   6.818   0.309   0.869 -0.0974  0.0233  0.1608
14013SOL    HW143255   6.751   0.340   0.930 -0.3665  0.6210 -0.4206
14013SOL    HW243256   6.795   0.217   0.852  0.5964 -0.4748  1.7573
14014SOL     OW43257   6.201   0.337   0.272 -0.0518  0.6900 -0.7186
14014SOL    HW143258   6.113   0.308   0.296  0.3734 -1.0125 -1.0946
14014SOL    HW243259   6.239   0.262   0.226  1.6596  1.3218 -0.3895
14015SOL     OW43260   5.754   0.890   0.842 -0.8452  0.2472  0.0953
14015SOL    HW143261   5.705   0.848   0.913 -0.1805  0.1849  0.5281
14015SOL    HW243262   5.705   0.970   0.822 -1.5742 -0.2258 -0.0540
14016SOL     OW43263   5.479   2.465   2.183 -0.5404  0.0907 -0.4530
14016SOL    HW143264   5.402   2.443   2.236 -0.6346  0.7314 -0.3151
14016SOL    HW243265   5.513   2.381   2.154  0.2105 -0.3787  1.6045
14017SOL     OW43266   6.407   0.378   8.656 -0.5543 -0.4071  0.0809
14017SOL    HW143267   6.435   0.337   8.574  0.2475  0.0122  0.1339
14017SOL    HW243268   6.356   0.455   8.628  1.1464  0.7261 -0.0799
14018SOL     OW43269   7.203   0.574   1.921  0.4765  0.6881  0.4935
14018SOL    HW143270   7.182   0.489   1.883 -0.9113  0.2129  2.1639
14018SOL    HW243271   7.295   0.589   1.899  0.4669 -0.7627 -0.6784
14019SOL     OW43272   6.759   1.694   0.375  0.4259 -0.0791  0.2054
14019SOL    HW143273   6.747   1.686   0.470  1.7403  1.7711  0.5662
14019SOL    HW243274   6.829   1.631   0.355  1.4269  0.8175  0.7898
14020SOL     OW43275   6.315   0.102   0.969 -0.4363  0.0791 -0.4989
14020SOL    HW143276   6.241   0.044   0.954 -0.4517 -0.5536  1.7108
14020SOL    HW243277   6.278   0.190   0.966 -0.9130 -0.1367 -1.1777
14021SOL     OW43278   6.626   2.204   0.410 -0.1966  1.0204  0.1109
14021SOL    HW143279   6.667   2.124   0.377  1.7884  1.8072  0.5822
14021SOL    HW243280   6.613   2.258   0.331 -1.1006  0.4686 -0.1403
14022SOL     OW43281   5.824   1.567   1.116 -0.4025  0.2788 -0.2452
14022SOL    HW143282   5.748   1.569   1.057  0.1802  0.3122 -1.0055
14022SOL    HW243283   5.897   1.595   1.061  0.1784  0.1597  0.4629
14023SOL     OW43284   6.914   1.021   1.256  0.7293  0.4990 -0.2424
14023SOL    HW143285   6.926   1.011   1.161  1.2156 -1.1748 -0.0253
14023SOL    HW243286   6.819   1.021   1.269  0.6390 -1.8360 -0.5249
14024SOL     OW43287   6.768   1.723   1.386  0.1445 -0.5064  0.2345
14024SOL    HW143288   6.677   1.751   1.396 -0.2379 -1.5432 -0.2052
14024SOL    HW243289   6.774   1.643   1.437  0.1942 -1.6785 -1.5146
14025SOL     OW43290   6.568   0.534   8.845 -0.1407 -0.3038  0.0194
14025SOL    HW143291   6.656   0.512   8.876  0.1433 -0.1645 -0.6721
14025SOL    HW243292   6.552   0.473   8.774  0.2555  1.0350 -1.2639
14026SOL     OW43293   7.172   0.550   1.008 -0.6632  0.4756  0.1163
14026SOL    HW143294   7.101   0.508   1.056  0.1202  0.1960  1.0611
14026SOL    HW243295   7.252   0.522   1.053  0.0921  0.3267 -1.2697
14027SOL     OW43296   5.865   1.251   1.774  0.4366 -0.3109 -0.0153
14027SOL    HW143297   5.778   1.286   1.788  0.5199 -0.4836  0.9693
14027SOL    HW243298   5.877   1.253   1.679 -1.2748 -1.7838 -0.3227
14028SOL     OW43299   6.769   1.980   0.307  0.0711  0.3450 -0.4837
14028SOL    HW143300   6.785   1.886   0.319 -0.5750  0.2732 -0.1372
14028SOL    HW243301   6.844   2.011   0.257 -0.5588 -0.6962 -2.1489
14029SOL     OW43302   5.760   0.594   1.415 -0.7762  0.0707 -0.0491
14029SOL    HW143303   5.794   0.680   1.391 -0.9157  0.7443  1.9857
14029SOL    HW243304   5.705   0.568   1.341 -0.4621  1.5690 -0.8391
14030SOL     OW43305   7.138   2.517   0.291 -0.1447  0.2865  0.0555
14030SOL    HW143306   7.181   2.594   0.253 -0.8436  0.2991 -0.7610
14030SOL    HW243307   7.097   2.549   0.371  2.4197 -0.0194  1.5713
14031SOL     OW43308   6.179   1.461   0.154  0.0725  0.3445 -0.4646
14031SOL    HW143309   6.262   1.504   0.130  0.5909 -0.1795  0.3448
14031SOL    HW243310   6.172   1.388   0.092  0.3278  0.2614 -0.3978
14032SOL     OW43311   7.083   0.303   8.809  0.4424 -0.0279 -0.1357
14032SOL    HW143312   7.170   0.276   8.779  0.8933  0.6002  0.5980
14032SOL    HW243313   7.093   0.316   8.903 -0.0962  1.4254 -0.2676
14033SOL     OW43314   5.631   1.372   1.314  0.0834 -0.4708  0.2212
14033SOL    HW143315   5.598   1.446   1.262 -0.4464 -1.3652 -0.7347
14033SOL    HW243316   5.569   1.364   1.386  0.0101 -0.1410  0.1965
14034SOL     OW43317   6.467   1.457   0.901 -0.2966 -0.1333 -0.3835
14034SOL    HW143318   6.477   1.448   0.806 -1.3854 -1.3131 -0.4038
14034SOL    HW243319   6.468   1.552   0.916 -1.9228  0.1491 -1.7979
14035SOL     OW43320   6.289   0.598   0.133 -0.0417 -0.2695 -0.2038
14035SOL    HW143321   6.277   0.522   0.189  0.6042  0.8304  1.5032
14035SOL    HW243322   6.383   0.599   0.114  0.2269  0.9102  1.0460
14036SOL     OW43323   6.756   8.595   1.903  0.2536  0.0219 -0.3453
14036SOL    HW143324   6.685   8.538   1.934  0.5206 -0.2035 -0.1459
14036SOL    HW243325   6.830   8.535   1.889 -0.0141  0.0298 -1.9308
14037SOL     OW43326   6.366   8.736   8.051 -0.0669 -0.4330 -0.6253
14037SOL    HW143327   6.369   8.641   8.062 -1.8922 -0.3289  1.6261
14037SOL    HW243328   6.448   8.767   8.090 -1.1453 -0.9401  2.3211
14038SOL     OW43329   6.155   0.294   1.980  0.3616 -0.1290  0.5170
14038SOL    HW143330   6.192   0.298   1.892  2.3912  0.9021  1.3629
14038SOL    HW243331   6.209   0.353   2.032 -1.7763  0.5266  2.1335
14039SOL     OW43332   6.108   1.201   1.353 -0.5692  0.1673  1.0514
14039SOL    HW143333   6.030   1.194   1.408 -0.6582 -1.9682  0.7331
14039SOL    HW243334   6.085   1.267   1.287 -1.6333  0.4321  1.6685
14040SOL     OW43335   6.492   0.318   1.422  0.3103  0.7508 -0.4879
14040SOL    HW143336   6.510   0.387   1.486  1.1814 -0.0990  0.2120
14040SOL    HW243337   6.548   0.245   1.449 -1.1380 -0.5177 -0.7430
14041SOL     OW43338   6.410   0.968   0.983 -0.1403 -0.8248  0.0737
14041SOL    HW143339   6.387   1.057   1.009 -0.7501 -1.6844  2.7847
14041SOL    HW243340   6.505   0.970   0.971  0.0256 -0.0482  1.3346
14042SOL     OW43341   6.740   0.064   0.803  0.1152  0.1686  0.1454
14042SOL    HW143342   6.810  -0.002   0.801 -0.4154 -0.4833  1.4619
14042SOL    HW243343   6.659   0.012   0.812 -0.4155  0.9677  0.0801
14043SOL     OW43344   5.947   0.308   0.327  0.2188  0.1303  0.5599
14043SOL    HW143345   5.860   0.347   0.335 -0.2811 -1.1642  1.8469
14043SOL    HW243346   5.933   0.230   0.273  0.8353  0.5554 -0.2468
14044SOL     OW43347   7.134   1.779   0.218  0.4268 -0.3820  0.2788
14044SOL    HW143348   7.183   1.707   0.179  0.4515 -0.2808  0.1231
14044SOL    HW243349   7.138   1.762   0.312 -0.6228 -1.2599  0.1818
14045SOL     OW43350   6.053   8.654   8.847 -0.3162  0.6548 -0.2098
14045SOL    HW143351   6.120   8.625   8.909 -0.9947  0.3353  0.3908
14045SOL    HW243352   6.084   8.739   8.816  0.5858  0.3050 -0.2820
14046SOL     OW43353   6.497   0.025   8.709  0.0012 -0.0484 -0.4526
14046SOL    HW143354   6.448   0.095   8.752  0.7793  1.2261 -1.5930
14046SOL    HW243355   6.569   0.007   8.768 -0.1047  0.2300 -0.2356
14047SOL     OW43356   6.388   0.678   1.377  0.3219 -0.6209  0.5071
14047SOL    HW143357   6.387   0.603   1.436  0.4419 -0.2329  1.0142
14047SOL    HW243358   6.340   0.746   1.425  2.0950  0.3377  1.0087
14048SOL     OW43359   6.710   1.622   0.631 -0.0444  0.1179 -0.2237
14048SOL    HW143360   6.667   1.689   0.684 -0.7974 -0.6962  0.2228
14048SOL    HW243361   6.642   1.556   0.617  0.5935 -0.4115 -0.9175
14049SOL     OW43362   5.922   0.989   0.458  0.1466  0.4587  0.3285
14049SOL    HW143363   5.915   0.995   0.553 -0.6135  1.0316  0.2501
14049SOL    HW243364   5.903   1.078   0.427  1.6061  0.5815 -0.3043
14050SOL     OW43365   6.403   2.000   0.536 -0.2052  0.0952 -0.2060
14050SOL    HW143366   6.405   2.093   0.558 -0.3653 -0.0151  0.2893
14050SOL    HW243367   6.416   1.955   0.620 -0.3458 -0.3302 -0.4087
14051SOL     OW43368   6.944   0.548   8.739 -0.4128  0.1585  0.8419
14051SOL    HW143369   6.986   0.463   8.729  2.8620  1.7844 -0.9553
14051SOL    HW243370   6.939   0.562   8.834  0.0519 -1.5503  1.1447
14052SOL     OW43371   5.398   0.384   1.385 -0.1330 -0.2252 -0.3478
14052SOL    HW143372   5.357   0.323   1.322  0.2316 -0.3901 -0.4257
14052SOL    HW243373   5.456   0.438   1.332 -0.0964 -0.1238 -0.2049
14053SOL     OW43374   6.207   0.080   1.471  0.2099  0.0892  0.3020
14053SOL    HW143375   6.285   0.043   1.512  0.1285  0.7517  1.0879
14053SOL    HW243376   6.166   0.131   1.541 -0.3049  0.6883 -0.4258
14054SOL     OW43377   6.275   0.344   0.669 -0.1860  0.2101 -0.2389
14054SOL    HW143378   6.360   0.299   0.679 -0.1811 -0.2193 -1.9288
14054SOL    HW243379   6.238   0.343   0.757  1.9395  1.2027  0.7511
14055SOL     OW43380   6.414   8.671   0.637  0.2386  0.0072 -0.5642
14055SOL    HW143381   6.378   8.588   0.606 -0.2305 -2.3651  5.0735
14055SOL    HW243382   6.340   8.732   0.632  0.1898 -0.1792 -3.5189
14056SOL     OW43383   7.247   1.217   1.133 -0.4052 -0.8103  0.2968
14056SOL    HW143384   7.342   1.211   1.147 -0.4521 -1.4365  0.3595
14056SOL    HW243385   7.236   1.205   1.039 -0.5103 -1.9576  0.4412
14057SOL     OW43386   7.008   0.232   1.425 -0.2615 -0.0302  0.2334
14057SOL    HW143387   6.938   0.272   1.373  0.9608  1.3994 -0.3959
14057SOL    HW243388   7.023   0.147   1.384 -1.5501 -0.3231  0.3265
14058SOL     OW43389   6.998   0.748   0.470 -0.0857 -0.1986 -0.0269
14058SOL    HW143390   6.969   0.723   0.557 -0.1494 -1.2365 -0.3327
14058SOL    HW243391   6.916   0.763   0.421 -0.0497  0.5601  0.1318
14059SOL     OW43392   6.585   1.103   8.360  0.2552  0.3247 -0.3213
14059SOL    HW143393   6.639   1.082   8.437  1.7818  0.3482 -1.3470
14059SOL    HW243394   6.499   1.068   8.381  0.4131  1.0199  1.7313
14060SOL     OW43395   7.012   1.429   0.634  0.3745  0.5430  0.1407
14060SOL    HW143396   6.971   1.415   0.549 -3.3538  0.3734  1.7747
14060SOL    HW243397   7.018   1.524   0.643 -0.2138  0.5941  0.0596
14061SOL     OW43398   6.984   0.663   0.148 -0.1099 -0.1442 -0.1385
14061SOL    HW143399   6.958   0.729   0.213 -0.5634  1.0563 -1.4716
14061SOL    HW243400   7.079   0.675   0.140 -0.2498  0.7487 -0.7304
14062SOL     OW43401   6.138   0.082   8.821  0.0036 -0.6339  0.3258
14062SOL    HW143402   6.223   0.113   8.851  0.2909 -2.2063  1.2429
14062SOL    HW243403   6.138   0.100   8.726  0.1151  2.0398  0.7576
14063SOL     OW43404   7.281   1.005   1.535 -0.6193  0.1530  0.1838
14063SOL    HW143405   7.358   1.011   1.479 -0.5082  1.4323  0.4402
14063SOL    HW243406   7.252   1.095   1.546 -0.8147 -0.0849  1.9527
14064SOL     OW43407   6.661   1.038   0.980  0.1770 -0.5075 -0.3555
14064SOL    HW143408   6.674   1.132   0.976 -0.0775 -0.4833 -0.6097
14064SOL    HW243409   6.744   1.001   0.950  0.5657 -0.3721  0.5293
14065SOL     OW43410   7.206   1.246   1.613 -0.5006 -0.1837 -0.9832
14065SOL    HW143411   7.149   1.312   1.574  1.6777  0.6350 -3.0181
14065SOL    HW243412   7.262   1.296   1.674 -2.1667 -1.0642  1.4431
14066SOL     OW43413   6.704   1.317   0.890  0.0297  0.3430 -0.0626
14066SOL    HW143414   6.632   1.375   0.913  0.1085  0.3517  0.1633
14066SOL    HW243415   6.713   1.326   0.795  0.4034  1.1295  0.0355
14067SOL     OW43416   6.940   1.293   1.063 -0.4820 -0.3854 -0.3156
14067SOL    HW143417   6.853   1.290   1.023 -0.2813  2.7109 -1.2229
14067SOL    HW243418   6.997   1.250   1.000 -1.1878 -1.7896 -0.0481
14068SOL     OW43419   6.659   0.359   1.079  0.6138 -0.4633  0.2411
14068SOL    HW143420   6.692   0.326   1.162 -1.6011 -0.8212  1.0564
14068SOL    HW243421   6.619   0.444   1.101  2.6219  0.9020 -1.0659
14069SOL     OW43422   6.477   1.268   1.626 -0.4472  0.0481  0.2431
14069SOL    HW143423   6.421   1.295   1.698  0.1994  0.5002  0.5850
14069SOL    HW243424   6.512   1.183   1.653  1.0949  0.9556  1.2341
14070SOL     OW43425   6.233   1.024   0.561 -0.1415 -0.4604  0.2281
14070SOL    HW143426   6.217   1.048   0.652 -0.2210  1.1783 -0.1684
14070SOL    HW243427   6.246   0.930   0.562 -0.2489 -0.4858  1.9156
14071SOL     OW43428   5.887   0.924   1.284 -0.4089 -0.3077  0.5374
14071SOL    HW143429   5.978   0.900   1.305  0.1475  0.6077 -0.6550
14071SOL    HW243430   5.851   0.956   1.366 -0.1459 -2.1005  1.3864
14072SOL     OW43431   6.449   0.514   1.622  0.1881 -0.6954  0.3214
14072SOL    HW143432   6.381   0.564   1.666 -0.3216  0.0926 -1.3072
14072SOL    HW243433   6.522   0.512   1.685  0.3682  2.4119  0.3441
14073SOL     OW43434   5.520   1.671   1.501  0.2010  0.2858 -0.3574
14073SOL    HW143435   5.575   1.663   1.424  1.1406  0.4880  0.2780
14073SOL    HW243436   5.581   1.672   1.575 -0.5177  2.0633  0.2791
14074SOL     OW43437   5.882   1.364   0.069  0.4787  0.7768 -0.4711
14074SOL    HW143438   5.854   1.406  -0.013  0.3318  0.6045 -0.5097
14074SOL    HW243439   5.974   1.389   0.078  0.3924  1.1058 -0.4955
14075SOL     OW43440   6.540   0.292   0.732 -0.0360 -0.0774  0.0464
14075SOL    HW143441   6.608   0.229   0.708  0.7596  0.2248  1.3914
14075SOL    HW243442   6.537   0.288   0.828 -1.8689 -0.0212  0.0248
14076SOL     OW43443   6.696   0.985   0.137  0.6575 -0.8925  0.0476
14076SOL    HW143444   6.715   1.040   0.061  0.1516 -0.6257  0.1126
14076SOL    HW243445   6.654   1.045   0.200 -1.6715 -1.7480 -0.6126
14077SOL     OW43446   6.417   1.182   1.371  0.1227 -0.2825  0.3237
14077SOL    HW143447   6.323   1.169   1.357  0.3338 -1.8129  0.1621
14077SOL    HW243448   6.424   1.206   1.463 -0.3667 -0.9709  0.5488
14078SOL     OW43449   6.702   0.433   0.431  0.0145 -0.3432  0.3159
14078SOL    HW143450   6.753   0.438   0.512  1.0263 -0.1198 -0.3259
14078SOL    HW243451   6.638   0.504   0.439  0.0941 -0.3309  0.9268
14079SOL     OW43452   5.875   1.659   1.381  0.0384 -0.0877 -0.1386
14079SOL    HW143453   5.915   1.744   1.361  0.1894 -0.3240 -0.8652
14079SOL    HW243454   5.842   1.628   1.297  0.3593 -0.9383  0.0449
14080SOL     OW43455   6.154   0.732   1.955 -0.6564  0.0136 -0.3246
14080SOL    HW143456   6.142   0.721   2.049 -3.1451 -1.3563 -0.7005
14080SOL    HW243457   6.091   0.800   1.930  0.9305  1.3597 -0.8616
14081SOL     OW43458   6.884   0.393   1.912 -0.2905 -0.3225  0.1252
14081SOL    HW143459   6.885   0.382   2.007 -1.1973  2.1195  0.4773
14081SOL    HW243460   6.965   0.441   1.893 -0.0952 -0.8336 -0.3568
14082SOL     OW43461   6.319   0.279   1.773  0.1663  0.4480 -0.1024
14082SOL    HW143462   6.311   0.346   1.705 -0.3097 -0.9079 -1.4360
14082SOL    HW243463   6.342   0.199   1.725  1.6736 -0.1550  1.5486
14083SOL     OW43464   5.981   8.322   1.789 -0.8237  0.1133 -0.0822
14083SOL    HW143465   6.010   8.260   1.723  0.4650  2.0948 -1.5030
14083SOL    HW243466   5.906   8.367   1.749 -2.0565 -0.7726  1.1209
14084SOL     OW43467   5.719   1.213   1.129 -0.2934  0.6386  0.2817
14084SOL    HW143468   5.696   1.273   1.200  0.6616  2.0028 -0.5109
14084SOL    HW243469   5.764   1.140   1.172  0.4153  1.5235  1.0928
14085SOL     OW43470   6.875   0.702   1.116  0.0795 -0.0480  0.2182
14085SOL    HW143471   6.787   0.663   1.116 -0.0599  0.2597  0.4272
14085SOL    HW243472   6.934   0.628   1.131 -0.2433 -0.0565  1.6011
14086SOL     OW43473   6.782   0.483   0.159 -0.3236 -0.3019 -0.4505
14086SOL    HW143474   6.757   0.449   0.245 -0.2515  0.3501 -0.1654
14086SOL    HW243475   6.856   0.542   0.177 -0.2868 -0.1867 -0.9646
14087SOL     OW43476   5.884   0.218   1.113 -0.1707  0.2117 -0.4617
14087SOL    HW143477   5.920   0.275   1.181 -4.4387  0.1859  2.2213
14087SOL    HW243478   5.835   0.277   1.056  0.4123 -0.1853 -1.4026
14088SOL     OW43479   5.577   0.822   1.899  0.3105  0.6436 -0.1902
14088SOL    HW143480   5.584   0.908   1.857  1.3740  0.8534  0.3611
14088SOL    HW243481   5.510   0.776   1.850  0.0211  1.6464 -0.7599
14089SOL     OW43482   6.166   0.588   0.809 -0.5366 -0.0897 -0.3601
14089SOL    HW143483   6.142   0.678   0.832 -0.1512 -0.3155  0.9906
14089SOL    HW243484   6.171   0.589   0.713  1.7944  1.9495 -0.3381
14090SOL     OW43485   7.560   0.844   1.743 -0.1436 -0.2825  0.1253
14090SOL    HW143486   7.555   0.754   1.776  1.5775 -1.0797 -1.6013
14090SOL    HW243487   7.646   0.875   1.770 -0.0961  0.2659 -0.6279
14091SOL     OW43488   5.731   0.103   0.387 -0.6457  0.0289  0.4162
14091SOL    HW143489   5.682   0.052   0.450  2.8180 -1.4907  2.1395
14091SOL    HW243490   5.763   0.039   0.324  0.3937  0.6963  0.2440
14092SOL     OW43491   6.919   0.234   0.488 -0.3377 -0.4523  0.4181
14092SOL    HW143492   6.949   0.302   0.547  0.5630  0.3389 -0.9012
14092SOL    HW243493   6.855   0.277   0.431 -0.0660 -0.8024 -0.1621
14093SOL     OW43494   6.757   0.860   0.682 -1.1741 -0.0000  0.3702
14093SOL    HW143495   6.809   0.941   0.680 -1.9294  0.6455  3.0275
14093SOL    HW243496   6.669   0.888   0.656 -1.2820 -0.1094  0.6188
14094SOL     OW43497   6.621   1.515   1.698  0.0526 -0.0586  0.3535
14094SOL    HW143498   6.602   1.423   1.716 -0.1818  0.0952  0.8837
14094SOL    HW243499   6.552   1.543   1.638 -0.2141 -0.0651  0.6590
14095SOL     OW43500   7.065   1.527   1.555 -0.4747 -0.3636 -0.7320
14095SOL    HW143501   6.973   1.515   1.534 -0.1883 -0.6139 -1.9008
14095SOL    HW243502   7.110   1.523   1.471  0.4802  1.0075 -0.3308
14096SOL     OW43503   5.864   1.124   2.143 -0.4036 -0.0098  0.0014
14096SOL    HW143504   5.946   1.100   2.185 -0.1755 -0.6195 -0.7576
14096SOL    HW243505   5.871   1.218   2.127  0.6135 -0.2490 -1.0441
14097SOL     OW43506   7.207   0.152   0.173  0.2673 -0.0362 -0.5107
14097SOL    HW143507   7.185   0.072   0.126 -0.3825 -0.6473  0.7747
14097SOL    HW243508   7.276   0.125   0.234  1.4246  0.8418 -1.4105
14098SOL     OW43509   7.078   0.944   8.534  0.3877  0.0262  0.0507
14098SOL    HW143510   7.019   0.885   8.581  0.9195 -0.5292  0.0279
14098SOL    HW243511   7.065   0.923   8.442  1.4589 -0.9278  0.0910
14099SOL     OW43512   6.227   1.512   0.488 -0.6920  0.4298 -0.2794
14099SOL    HW143513   6.213   1.420   0.466  0.8239  0.2416 -0.5867
14099SOL    HW243514   6.291   1.542   0.424  0.1340  1.2097  0.8746
14100SOL     OW43515   6.043   0.840   0.821 -0.0970  0.0145 -0.1942
14100SOL    HW143516   6.083   0.924   0.845 -1.0161  0.7358 -1.0969
14100SOL    HW243517   5.952   0.849   0.847  0.2792 -1.6784  1.9980
14101SOL     OW43518   5.792   0.626   1.097  0.0046  0.4077  0.3610
14101SOL    HW143519   5.855   0.647   1.029 -0.1850  1.7618  0.5747
14101SOL    HW243520   5.778   0.709   1.144 -2.5748  0.4029 -0.2300
14102SOL     OW43521   6.714   0.439   2.192 -0.1605  0.1385  0.4947
14102SOL    HW143522   6.625   0.412   2.171  0.3692 -0.1612 -1.5537
14102SOL    HW243523   6.725   0.524   2.148  0.8441 -0.2663 -0.0763
14103SOL     OW43524   6.222   0.347   1.010  0.3504  0.4992 -0.3134
14103SOL    HW143525   6.252   0.323   1.097  0.0354  0.5632 -0.1873
14103SOL    HW243526   6.190   0.437   1.019  0.4757  0.5686 -0.5336
14104SOL     OW43527   6.014   2.018   0.219 -0.7451  0.6434  0.3777
14104SOL    HW143528   6.099   1.991   0.184 -1.3693 -0.9422  0.0178
14104SOL    HW243529   6.028   2.026   0.313 -0.0590  1.0115  0.2526
14105SOL     OW43530   6.363   1.219   1.049  0.2490  0.1247  0.0611
14105SOL    HW143531   6.406   1.297   1.013  1.6192 -0.1506  0.9977
14105SOL    HW243532   6.360   1.235   1.144 -1.3636 -0.0711  0.0672
14106SOL     OW43533   6.604   0.649   1.112  0.1766  0.4444 -0.3438
14106SOL    HW143534   6.565   0.685   1.192  3.0015  1.0798  0.8821
14106SOL    HW243535   6.545   0.675   1.042 -2.8701 -0.8365  1.5417
14107SOL     OW43536   5.601   0.444   1.201  0.0697  0.1020  0.0677
14107SOL    HW143537   5.531   0.472   1.141  0.5398  0.1305 -0.4688
14107SOL    HW243538   5.681   0.475   1.160  0.4333 -0.2866  0.4825
14108SOL     OW43539   5.960   0.913   1.989 -0.1088 -0.0822  0.5855
14108SOL    HW143540   5.956   0.831   2.037  0.3950 -0.5159 -0.1032
14108SOL    HW243541   5.905   0.973   2.040  1.6589 -0.0694  2.5946
14109SOL     OW43542   7.145   0.760   2.259 -0.0921  0.2899  0.0057
14109SOL    HW143543   7.154   0.794   2.170  1.0873 -0.8718 -0.3538
14109SOL    HW243544   7.234   0.733   2.283 -0.7537 -1.4729  0.6667
14110SOL     OW43545   6.291   0.799   0.314 -0.3746 -0.1465 -0.5115
14110SOL    HW143546   6.222   0.864   0.306  1.5359  1.9202 -1.4608
14110SOL    HW243547   6.284   0.746   0.235  0.7280  1.8483 -2.0596
14111SOL     OW43548   7.177   0.623   1.357 -0.5684  0.1551  0.7889
14111SOL    HW143549   7.145   0.713   1.351  0.5845  0.4804 -1.3031
14111SOL    HW243550   7.261   0.624   1.312 -0.3825 -1.9180  0.9953
14112SOL     OW43551   5.597   1.673   1.771 -0.1886 -0.0068  0.2903
14112SOL    HW143552   5.632   1.761   1.755  2.0853 -0.9663 -0.3740
14112SOL    HW243553   5.618   1.655   1.862 -2.4777  0.8535  1.0567
14113SOL     OW43554   5.637   0.892   1.179 -0.1163  0.1016 -0.1992
14113SOL    HW143555   5.583   0.964   1.213 -0.6442 -0.4698  0.2036
14113SOL    HW243556   5.720   0.900   1.226  0.1892  1.0410 -0.8808
14114SOL     OW43557   6.302   1.323   1.814 -0.7664 -0.7243  0.1711
14114SOL    HW143558   6.236   1.263   1.848  0.0073 -0.5279  2.1600
14114SOL    HW243559   6.271   1.410   1.841 -0.4980 -0.4698 -0.3149
14115SOL     OW43560   6.415   0.081   8.434 -0.1459  0.4039 -0.3703
14115SOL    HW143561   6.449   0.164   8.468  0.4015  0.6771 -1.5465
14115SOL    HW243562   6.488   0.020   8.444 -0.2031  0.3193 -0.4739
14116SOL     OW43563   5.600   1.061   1.799 -0.1639 -0.2348  0.0966
14116SOL    HW143564   5.590   1.086   1.891  0.5453 -1.7330  0.6226
14116SOL    HW243565   5.568   1.136   1.749 -0.2756  0.7214  1.5645
14117SOL     OW43566   6.921   0.932   0.970  0.2373  0.2389  0.4649
14117SOL    HW143567   6.896   0.855   1.021  0.8298 -0.1814  0.1363
14117SOL    HW243568   6.947   0.897   0.885  0.1191  0.8446  0.1714
14118SOL     OW43569   6.777   0.762   0.334  0.7990 -0.0339  0.0011
14118SOL    HW143570   6.692   0.753   0.378  0.6025  0.8366 -0.1781
14118SOL    HW243571   6.759   0.818   0.259  1.6260  0.5303  0.2119
14119SOL     OW43572   7.379   1.754   0.962  0.1963 -0.2815 -0.0747
14119SOL    HW143573   7.382   1.826   1.025 -0.1020  1.6483 -2.1414
14119SOL    HW243574   7.287   1.731   0.956  0.1694 -0.1720 -0.0959
14120SOL     OW43575   6.495   1.430   0.632  0.1581  0.4747 -0.4022
14120SOL    HW143576   6.545   1.360   0.590  0.6374 -0.1639  1.1668
14120SOL    HW243577   6.433   1.460   0.564 -0.1003 -1.5020 -1.0867
14121SOL     OW43578   5.938   1.197   0.897 -0.0975  0.0357 -0.0571
14121SOL    HW143579   5.895   1.114   0.876  1.6988 -1.8264  2.8735
14121SOL    HW243580   5.893   1.228   0.976  0.4606  0.8880 -0.0566
14122SOL     OW43581   6.114   1.734   1.647 -0.5570  0.6414 -0.2372
14122SOL    HW143582   6.167   1.661   1.615 -0.3646 -0.0426  1.4948
14122SOL    HW243583   6.107   1.794   1.573  0.4997 -0.4587 -1.2651
14123SOL     OW43584   6.370   0.184   0.052  0.1242  0.3718 -0.0817
14123SOL    HW143585   6.367   0.256  -0.011  1.1157 -0.1883 -0.8097
14123SOL    HW243586   6.450   0.199   0.103  0.2561 -0.1201 -0.1327
14124SOL     OW43587   7.195   0.215   1.181  0.1545 -0.0519  0.5042
14124SOL    HW143588   7.265   0.152   1.168 -0.8280 -1.1889  0.5892
14124SOL    HW243589   7.124   0.184   1.125  0.6436  2.6618 -1.8963
14125SOL     OW43590   7.160   1.940   0.632  0.1389 -0.4656  0.1811
14125SOL    HW143591   7.156   1.846   0.615  1.2220 -0.2889 -1.2859
14125SOL    HW243592   7.074   1.973   0.604 -0.9056 -1.2053  2.3508
14126SOL     OW43593   5.684   1.933   1.729  0.5603 -0.4350 -0.0329
14126SOL    HW143594   5.652   2.001   1.670  1.2343 -0.7981 -0.8331
14126SOL    HW243595   5.670   1.969   1.817 -0.1193  0.2632 -0.4174
14127SOL     OW43596   6.626   1.221   0.540 -0.4426 -0.6289 -0.3781
14127SOL    HW143597   6.585   1.145   0.500  0.7032 -1.8269  0.6590
14127SOL    HW243598   6.719   1.201   0.540 -0.0664  0.9474 -0.4203
14128SOL     OW43599   6.265   0.985   1.620 -0.3319 -0.0272 -0.0462
14128SOL    HW143600   6.194   1.041   1.652 -2.7121 -2.0450 -1.4381
14128SOL    HW243601   6.309   0.955   1.699 -0.8324  1.4833  0.8598
14129SOL     OW43602   6.042   1.374   8.551  0.2178 -0.1293 -0.0609
14129SOL    HW143603   5.951   1.382   8.524  0.8388  0.9658 -2.0585
14129SOL    HW243604   6.074   1.464   8.556  0.8926 -0.4166  1.9021
14130SOL     OW43605   7.023   1.770   1.244 -0.6961  0.2490 -0.2354
14130SOL    HW143606   7.024   1.676   1.226 -1.6863  0.1960 -0.0774
14130SOL    HW243607   6.932   1.789   1.269 -0.2647  1.0343  0.8363
14131SOL     OW43608   7.284   0.344   1.496 -0.2491  0.7337 -0.5633
14131SOL    HW143609   7.304   0.428   1.454  0.3082  1.2171  0.6228
14131SOL    HW243610   7.192   0.329   1.475  0.2751  0.4039 -2.8304
14132SOL     OW43611   5.955   0.620   0.233  1.1036  0.3846  0.5183
14132SOL    HW143612   5.905   0.614   0.315  2.3304 -0.6373  1.2334
14132SOL    HW243613   6.019   0.549   0.239 -0.4187 -1.4573 -2.5227
14133SOL     OW43614   7.133   2.082   8.565 -0.0286  0.0920  0.1624
14133SOL    HW143615   7.077   2.140   8.615 -1.1525  0.0174 -0.9645
14133SOL    HW243616   7.203   2.138   8.531  1.4563 -0.0516  2.7010
14134SOL     OW43617   6.420   0.674   0.941  0.1194 -0.3908 -0.4481
14134SOL    HW143618   6.367   0.750   0.964 -0.6306 -0.9807 -0.2021
14134SOL    HW243619   6.357   0.610   0.908  0.9702 -0.1095 -2.8554
14135SOL     OW43620   6.498   1.047   8.711 -0.1501  0.0693 -0.3226
14135SOL    HW143621   6.522   0.955   8.722 -1.2368 -0.2319 -0.4419
14135SOL    HW243622   6.418   1.058   8.762  0.2506  1.0808  0.1167
14136SOL     OW43623   7.409   1.636   0.079 -0.1953 -0.2437  0.0940
14136SOL    HW143624   7.440   1.712   0.127 -0.4589 -1.0688  1.6411
14136SOL    HW243625   7.488   1.585   0.060 -0.2664 -0.8237  1.3058
14137SOL     OW43626   6.378   0.885   1.877  0.3107 -0.3152  0.0075
14137SOL    HW143627   6.318   0.846   1.940 -0.2187  1.8889  0.9791
14137SOL    HW243628   6.441   0.816   1.858 -0.2625 -1.4616  1.9630
14138SOL     OW43629   6.942   0.794   1.410 -0.4176  0.3530 -0.2442
14138SOL    HW143630   6.926   0.743   1.331 -2.4945  0.2346  0.1991
14138SOL    HW243631   6.954   0.884   1.378 -1.7381  0.3934 -0.6906
14139SOL     OW43632   6.536   0.979   0.464 -0.1702 -0.1414  0.8020
14139SOL    HW143633   6.503   0.959   0.551  0.9086 -2.4220  0.7623
14139SOL    HW243634   6.474   0.938   0.405  0.4680 -0.8461  0.6035
14140SOL     OW43635   6.528   8.737   0.856  0.3511  0.3910  0.0895
14140SOL    HW143636   6.531   8.659   0.912 -1.1609  0.7720  0.7611
14140SOL    HW243637   6.493   8.706   0.773 -1.4488  0.5207  0.7532
14141SOL     OW43638   5.929   1.570   0.529 -0.0941 -0.4666 -0.2087
14141SOL    HW143639   6.023   1.559   0.516 -0.2904 -3.0780 -0.0494
14141SOL    HW243640   5.908   1.514   0.604 -1.8182 -0.2508 -0.4757
14142SOL     OW43641   6.909   0.579   1.566 -0.1991  0.3757  0.2766
14142SOL    HW143642   6.916   0.667   1.528  1.8340  1.4111  2.7215
14142SOL    HW243643   6.993   0.538   1.545 -0.3767 -0.2535  0.7901
14143SOL     OW43644   6.228   1.369   8.770  0.8441 -0.7053 -0.5675
14143SOL    HW143645   6.317   1.338   8.753  0.3142 -1.1415 -3.1004
14143SOL    HW243646   6.188   1.373   8.683 -1.1039  1.0934  0.3230
14144SOL     OW43647   5.613   1.187   2.057 -0.1095 -0.6732 -0.1793
14144SOL    HW143648   5.696   1.144   2.076 -1.1514 -1.9542  1.7968
14144SOL    HW243649   5.599   1.245   2.132 -1.2615 -0.8952 -0.2134
14145SOL     OW43650   6.165   0.575   1.159  0.1322 -0.0247 -0.1939
14145SOL    HW143651   6.245   0.578   1.211  0.2003 -1.0522 -0.2241
14145SOL    HW243652   6.164   0.659   1.113  0.2263  0.7771  1.2105
14146SOL     OW43653   5.532   0.560   0.058  0.0989 -0.3997  0.3361
14146SOL    HW143654   5.616   0.548   0.013  0.2283 -1.5201  0.8413
14146SOL    HW243655   5.498   0.642   0.024 -0.0838 -1.4604 -2.2169
14147SOL     OW43656   6.635   0.742   1.771  0.1520 -0.0393  0.2527
14147SOL    HW143657   6.670   0.823   1.807 -1.7016  1.3906 -0.9570
14147SOL    HW243658   6.677   0.734   1.685 -0.0619 -0.0516  0.1482
14148SOL     OW43659   5.728   0.135   8.739 -0.1728 -0.3255  0.1402
14148SOL    HW143660   5.647   0.180   8.717 -0.3152  0.7091  2.5315
14148SOL    HW243661   5.701   0.048   8.767 -0.1659 -0.9094 -1.5372
14149SOL     OW43662   6.971   1.845   8.842 -0.2880 -0.1697  0.4727
14149SOL    HW143663   6.935   1.762   8.810 -0.6307 -0.1607  0.8383
14149SOL    HW243664   7.036   1.819   8.908  0.8044 -0.2127 -0.5728
14150SOL     OW43665   6.091   1.116   1.839  0.2007  0.5220  0.2058
14150SOL    HW143666   6.025   1.165   1.789 -0.3489 -1.8278 -1.5596
14150SOL    HW243667   6.040   1.051   1.887  1.0928 -0.0223  0.4299
14151SOL     OW43668   6.483   1.478   1.420 -0.1517  0.1651  0.2067
14151SOL    HW143669   6.523   1.395   1.444  0.6191  0.1741 -0.9642
14151SOL    HW243670   6.528   1.504   1.339 -1.7508  0.7340 -0.5410
14152SOL     OW43671   5.945   0.548   1.609 -0.0137  0.3077 -0.1045
14152SOL    HW143672   5.898   0.583   1.533 -1.2571  0.1581  0.5802
14152SOL    HW243673   5.888   0.566   1.683  1.4350  0.9625  0.9005
14153SOL     OW43674   6.704   0.938   1.537  0.0201  0.5777  0.1048
14153SOL    HW143675   6.776   0.977   1.487 -0.1655  1.6825  0.6695
14153SOL    HW243676   6.651   0.892   1.472  0.4072  1.0158 -0.5298
14154SOL     OW43677   5.929   2.004   1.366  0.3440 -0.1159  0.3947
14154SOL    HW143678   5.868   1.958   1.308 -0.9035  0.4377  1.2139
14154SOL    HW243679   5.930   2.094   1.334  1.0238 -0.1963  0.1724
14155SOL     OW43680   7.011   0.423   1.184  0.5011 -0.3304 -1.0393
14155SOL    HW143681   7.055   0.474   1.252 -2.5395  0.0063  0.8387
14155SOL    HW243682   7.041   0.334   1.197 -1.3271 -0.6201  2.0654
14156SOL     OW43683   6.630   0.247   0.092 -0.1452 -0.2980 -0.1054
14156SOL    HW143684   6.654   0.324   0.143  1.4223 -0.9915  0.2986
14156SOL    HW243685   6.699   0.239   0.027 -0.7697 -0.8581 -0.7151
14157SOL     OW43686   6.067   0.914   0.228 -0.0880  0.1245 -0.2819
14157SOL    HW143687   6.009   0.849   0.188 -0.9189  0.6616  0.0184
14157SOL    HW243688   6.033   0.925   0.317  1.3881 -0.6259  0.4162
14158SOL     OW43689   6.716   0.435   1.702  0.0357  0.2430  0.1173
14158SOL    HW143690   6.783   0.485   1.656  0.0077  0.6970  0.5650
14158SOL    HW243691   6.752   0.421   1.789  0.2306 -0.9074 -0.1322
14159SOL     OW43692   6.984   0.900   1.683 -0.1598 -0.3186 -0.6621
14159SOL    HW143693   6.998   0.882   1.590 -0.9095 -1.0981 -0.6296
14159SOL    HW243694   6.958   0.817   1.721 -1.4434  0.3299 -0.0651
14160SOL     OW43695   6.631   1.241   0.236  0.2576  0.3178 -0.0535
14160SOL    HW143696   6.597   1.297   0.167 -0.7886 -0.3722 -0.1223
14160SOL    HW243697   6.561   1.238   0.301  0.5257 -0.4502  0.2141
14161SOL     OW43698   6.098   1.428   1.195  0.0575  0.3051 -0.1654
14161SOL    HW143699   6.033   1.483   1.240  0.5893 -0.8702  2.1960
14161SOL    HW243700   6.103   1.465   1.107 -3.2837  0.8785 -0.2547
14162SOL     OW43701   6.429   0.865   0.702 -0.3621 -0.4530 -0.7205
14162SOL    HW143702   6.437   0.772   0.683 -3.1650 -0.9613  0.0420
14162SOL    HW243703   6.422   0.869   0.798  0.2069  0.6056 -0.7074
14163SOL     OW43704   6.611   0.818   8.778  0.2292 -0.3152 -0.6993
14163SOL    HW143705   6.632   0.862   8.861 -0.6910 -0.7915 -0.2018
14163SOL    HW243706   6.575   0.733   8.804  0.6341 -0.7790 -1.6149
14164SOL     OW43707   7.272   1.662   0.585 -0.3442 -0.9334 -0.3732
14164SOL    HW143708   7.267   1.573   0.550 -1.3156 -1.0594  0.0565
14164SOL    HW243709   7.366   1.675   0.602 -0.2961 -2.3194  0.6508
14165SOL     OW43710   5.518   1.621   2.202  0.1756 -0.0022  0.3369
14165SOL    HW143711   5.471   1.697   2.237 -0.9616 -0.7999  0.6099
14165SOL    HW243712   5.566   1.655   2.127 -1.2164  0.7663 -0.2441
14166SOL     OW43713   5.687   2.043   0.275 -0.1692 -0.2874  0.4394
14166SOL    HW143714   5.774   2.060   0.312  0.0176  0.8315 -0.4410
14166SOL    HW243715   5.629   2.038   0.351  0.2318  1.7983  0.9414
14167SOL     OW43716   6.058   1.490   1.835 -0.1117  0.1104  0.0092
14167SOL    HW143717   5.999   1.422   1.866 -0.6537  0.0630 -1.0978
14167SOL    HW243718   6.007   1.539   1.771  1.3869 -0.7114 -1.9344
14168SOL     OW43719   6.997   8.828   0.889  0.3273 -0.3795  0.3668
14168SOL    HW143720   6.966   8.741   0.912  0.3564 -0.6828 -0.6940
14168SOL    HW243721   6.967   8.884   0.960 -0.8436 -1.0310  0.4100
14169SOL     OW43722   6.147   0.757   8.797  0.2635  0.5001  0.1311
14169SOL    HW143723   6.212   0.716   8.855 -0.5139 -2.7389 -1.0426
14169SOL    HW243724   6.063   0.744   8.842 -0.1148 -0.2829 -0.7604
14170SOL     OW43725   7.358   1.453   0.835  0.4627 -0.5367 -0.1679
14170SOL    HW143726   7.312   1.535   0.848 -0.3064 -1.1747  1.2911
14170SOL    HW243727   7.435   1.460   0.892  1.0337 -0.3663 -0.9414
14171SOL     OW43728   5.828   0.995   1.628  0.6299  0.1773  0.0903
14171SOL    HW143729   5.890   0.957   1.690 -0.1635 -1.8603 -0.2967
14171SOL    HW243730   5.748   1.010   1.680  0.3789 -0.3404 -0.1389
14172SOL     OW43731   6.083   1.984   0.501 -0.2254  0.4247 -0.0680
14172SOL    HW143732   6.082   1.986   0.597  0.1315  0.5142 -0.0648
14172SOL    HW243733   6.169   1.950   0.479 -0.3633  0.2568 -0.3586
14173SOL     OW43734   6.681   0.173   1.566 -0.2236  0.0994  0.1287
14173SOL    HW143735   6.719   0.104   1.620  1.3549  0.8304  0.0223
14173SOL    HW243736   6.698   0.253   1.615 -1.0247  0.5212 -0.2738
14174SOL     OW43737   6.280   0.252   1.262 -0.5852  0.0541  0.2533
14174SOL    HW143738   6.360   0.293   1.295 -1.4195  1.4091  0.6613
14174SOL    HW243739   6.273   0.170   1.312  1.0111 -0.5608 -0.4487
14175SOL     OW43740   6.205   1.264   0.410  0.5149 -0.3721 -0.4652
14175SOL    HW143741   6.162   1.240   0.328  1.3859  0.5287 -1.2071
14175SOL    HW243742   6.224   1.180   0.453 -1.8034 -0.8233 -0.1578
14176SOL     OW43743   5.782   1.532   1.615  0.5711 -0.0466  0.9390
14176SOL    HW143744   5.752   1.600   1.676 -1.0504  0.3135 -0.2129
14176SOL    HW243745   5.820   1.581   1.542  0.4356 -0.4144  0.6204
14177SOL     OW43746   6.679   8.812   8.413 -0.0414  0.6233  0.2664
14177SOL    HW143747   6.756   8.755   8.405 -0.0204  0.3959  1.8120
14177SOL    HW243748   6.690   8.876   8.342  0.8541 -0.2134 -0.3939
14178SOL     OW43749   6.460   0.550   0.653 -0.0466  0.2074 -0.7298
14178SOL    HW143750   6.518   0.550   0.729 -0.3190  1.9381 -0.4922
14178SOL    HW243751   6.411   0.468   0.660  0.4923 -0.0273  0.5070
14179SOL     OW43752   6.743   0.183   1.285  0.5636  0.0641  0.0214
14179SOL    HW143753   6.701   0.112   1.237  1.8465 -0.4000 -0.4662
14179SOL    HW243754   6.739   0.155   1.377  0.5305 -0.3637 -0.1055
14180SOL     OW43755   6.064   1.171   0.153 -0.1604  0.5673 -0.3493
14180SOL    HW143756   5.985   1.205   0.112  0.0751  1.1275 -0.3571
14180SOL    HW243757   6.045   1.079   0.171 -1.2241  0.9668  0.6805
14181SOL     OW43758   6.522   1.447   0.088  0.0504 -0.3810  0.7760
14181SOL    HW143759   6.495   1.536   0.067 -0.5045 -0.4124  1.3297
14181SOL    HW243760   6.547   1.409   0.003  2.3472  0.9437  0.7821
14182SOL     OW43761   5.898   0.675   2.130  0.3685 -0.0226  0.1814
14182SOL    HW143762   5.878   0.607   2.065  0.0868  1.7305 -1.6589
14182SOL    HW243763   5.973   0.640   2.178  0.6679 -1.3410 -1.1572
14183SOL     OW43764   5.539   0.191   2.867 -0.0943 -0.0444  0.3085
14183SOL    HW143765   5.613   0.132   2.852  1.2474  1.4237  0.7893
14183SOL    HW243766   5.557   0.230   2.953 -1.2485  0.5939  0.2765
14184SOL     OW43767   5.331   0.522   2.661  0.3383  0.2969  0.0413
14184SOL    HW143768   5.349   0.432   2.634 -1.7740  0.2748 -1.5322
14184SOL    HW243769   5.289   0.514   2.746 -0.5918 -0.3003 -0.4618
14185SOL     OW43770   5.805   1.437   3.215 -0.2115  0.0923  0.1356
14185SOL    HW143771   5.869   1.482   3.160 -2.0865  1.8387 -0.7793
14185SOL    HW243772   5.857   1.384   3.275  1.9897  0.0399 -1.7032
14186SOL     OW43773   6.913   1.484   2.490  0.0673  0.5596 -0.2349
14186SOL    HW143774   6.937   1.524   2.573 -0.3164  1.0465 -0.3528
14186SOL    HW243775   6.960   1.534   2.424 -1.4326  1.7023 -0.4883
14187SOL     OW43776   6.577   0.619   2.441 -0.2576 -0.0526  0.1425
14187SOL    HW143777   6.662   0.651   2.471  0.7476 -2.0634 -0.4092
14187SOL    HW243778   6.566   0.655   2.354  1.0242 -1.3854 -0.6144
14188SOL     OW43779   6.852   0.758   2.122 -0.4409  0.2724  0.3792
14188SOL    HW143780   6.844   0.832   2.061  0.3532  0.0629  0.0092
14188SOL    HW243781   6.889   0.796   2.201 -0.9408  0.4407  0.5389
14189SOL     OW43782   6.152   1.321   3.195 -0.8012 -0.0766  0.3597
14189SOL    HW143783   6.166   1.371   3.276  1.9433  1.6811 -0.9965
14189SOL    HW243784   6.094   1.250   3.220 -0.4785  0.6536  3.7517
14190SOL     OW43785   5.892   0.470   4.060 -0.4356 -0.2409  0.0229
14190SOL    HW143786   5.898   0.564   4.078 -0.6347 -0.1851 -0.1905
14190SOL    HW243787   5.798   0.453   4.054 -0.3880 -0.3168 -0.6300
14191SOL     OW43788   6.179   0.826   2.248  0.1409  0.2471  0.8890
14191SOL    HW143789   6.104   0.879   2.277  0.3598  0.6176  0.7930
14191SOL    HW243790   6.254   0.884   2.260  0.2216  0.4859 -0.5974
14192SOL     OW43791   6.497   0.953   3.976 -0.3785 -0.1189 -0.5850
14192SOL    HW143792   6.539   0.868   3.959 -0.0147  0.0924 -0.7682
14192SOL    HW243793   6.428   0.934   4.039  0.7015 -0.3173  0.5946
14193SOL     OW43794   5.928   1.020   2.859 -0.1556 -0.2184 -0.2254
14193SOL    HW143795   5.990   1.002   2.929 -0.1922 -1.4062 -0.4771
14193SOL    HW243796   5.848   1.047   2.904  0.4689  1.1837  0.1045
14194SOL     OW43797   6.989   1.386   3.351 -0.2090 -0.2405  0.1582
14194SOL    HW143798   7.049   1.315   3.372  1.6376  0.9293 -0.9468
14194SOL    HW243799   6.976   1.432   3.433 -1.2704 -1.6788  0.8465
14195SOL     OW43800   6.185   8.567   3.460 -0.0567  0.0528 -0.5283
14195SOL    HW143801   6.191   8.600   3.550 -1.4103 -0.7852 -0.0988
14195SOL    HW243802   6.269   8.525   3.445  0.0061 -0.2554  0.5540
14196SOL     OW43803   6.603   0.438   3.004  0.3291 -0.1838  0.2450
14196SOL    HW143804   6.563   0.428   2.917  1.4639 -1.4180 -0.1649
14196SOL    HW243805   6.576   0.360   3.052  1.2615 -0.4486  0.3521
14197SOL     OW43806   6.371   1.614   2.572  0.4087 -0.0691  0.1045
14197SOL    HW143807   6.462   1.623   2.547  0.2667  2.2585  0.1734
14197SOL    HW243808   6.367   1.534   2.624  2.4399 -0.0984  0.2671
14198SOL     OW43809   6.573   1.473   3.467  0.5459  0.3594 -0.1253
14198SOL    HW143810   6.609   1.485   3.555  1.0132  0.9936 -0.3884
14198SOL    HW243811   6.530   1.387   3.469 -1.0526  1.1331  1.2523
14199SOL     OW43812   5.674   1.506   2.567 -0.2468 -0.1199  0.2011
14199SOL    HW143813   5.729   1.580   2.594 -0.4790 -0.0858  0.5872
14199SOL    HW243814   5.729   1.456   2.506  0.2601 -0.1589  0.6838
14200SOL     OW43815   6.293   0.819   2.695  0.2824  0.2182  0.0393
14200SOL    HW143816   6.349   0.831   2.771 -0.0167  0.3155  0.2479
14200SOL    HW243817   6.304   0.728   2.669 -1.8971 -0.7118  2.0403
14201SOL     OW43818   5.886   2.025   3.471  0.2571  0.0953  0.3588
14201SOL    HW143819   5.847   2.048   3.555 -0.7364 -0.8594  0.1726
14201SOL    HW243820   5.880   2.105   3.419 -1.6167 -0.0647  0.2781
14202SOL     OW43821   6.290   1.075   2.527 -0.1315 -0.3270  0.4437
14202SOL    HW143822   6.309   1.004   2.588 -0.1653 -1.0347 -0.3565
14202SOL    HW243823   6.204   1.107   2.554 -1.3506 -2.3389 -0.7589
14203SOL     OW43824   7.115   0.701   3.111 -0.3184 -0.3276 -0.2969
14203SOL    HW143825   7.166   0.657   3.179 -0.8025 -0.1531  0.1862
14203SOL    HW243826   7.050   0.636   3.084 -0.3816 -0.2619 -0.3044
14204SOL     OW43827   5.884   0.686   2.562  0.4515 -0.4599  0.0073
14204SOL    HW143828   5.791   0.700   2.583  0.5614  0.1850  0.0846
14204SOL    HW243829   5.930   0.750   2.616  0.9423 -0.7545 -0.0619
14205SOL     OW43830   7.714   1.591   2.191 -0.3504  0.4786  0.1925
14205SOL    HW143831   7.785   1.652   2.212  1.0466 -1.3511  1.0179
14205SOL    HW243832   7.713   1.588   2.095  1.2523 -0.0415  0.1602
14206SOL     OW43833   5.405   1.515   2.583 -0.1635  0.0572 -0.3276
14206SOL    HW143834   5.377   1.464   2.508  1.1919 -2.9301  1.0355
14206SOL    HW243835   5.501   1.509   2.583 -0.1299 -0.5300  1.8657
14207SOL     OW43836   7.247   1.008   2.316 -0.0828 -0.0808 -0.0742
14207SOL    HW143837   7.332   1.011   2.272 -0.2317  1.9031 -0.2955
14207SOL    HW243838   7.215   0.919   2.300  1.8903 -0.8391 -0.0573
14208SOL     OW43839   7.429   1.562   2.183 -0.0192 -0.3739  0.5151
14208SOL    HW143840   7.511   1.566   2.233 -0.3513 -0.6109  1.0861
14208SOL    HW243841   7.362   1.590   2.245 -0.5083 -1.1965  0.3705
14209SOL     OW43842   5.577   0.846   3.820 -0.4180 -0.3233  0.2825
14209SOL    HW143843   5.509   0.817   3.760 -1.3587 -0.3932  1.3466
14209SOL    HW243844   5.595   0.936   3.794 -0.3445 -0.5653 -0.5109
14210SOL     OW43845   6.556   0.805   2.208 -0.2056 -0.1797  0.3130
14210SOL    HW143846   6.468   0.840   2.194  0.5468  1.2011 -1.3225
14210SOL    HW243847   6.615   0.877   2.188  1.4016 -1.9756 -2.0376
14211SOL     OW43848   6.734   1.327   3.227 -0.0683  0.1271 -0.5310
14211SOL    HW143849   6.802   1.370   3.279  0.1828 -1.6819  0.7107
14211SOL    HW243850   6.652   1.355   3.266 -0.0678  1.6884 -1.5413
14212SOL     OW43851   5.999   0.102   2.927 -0.6031 -0.1014 -0.0340
14212SOL    HW143852   6.001   0.182   2.874 -0.9754 -0.1209 -0.0780
14212SOL    HW243853   6.090   0.073   2.929 -0.6333 -0.2990 -0.9660
14213SOL     OW43854   5.791   0.935   3.364 -0.4242  0.1910  0.5104
14213SOL    HW143855   5.722   0.877   3.334  0.1112 -0.7353  1.0490
14213SOL    HW243856   5.860   0.877   3.397  0.8066  1.0637 -0.3913
14214SOL     OW43857   7.173   0.839   2.013  0.2244  0.0648 -0.1163
14214SOL    HW143858   7.229   0.878   1.946 -0.9592  1.4851 -0.3150
14214SOL    HW243859   7.157   0.750   1.981 -1.3197  1.0744 -2.4102
14215SOL     OW43860   6.880   1.737   3.518 -0.7977  0.2552 -0.4498
14215SOL    HW143861   6.862   1.774   3.604 -1.1285 -1.6705  0.3712
14215SOL    HW243862   6.899   1.812   3.462 -0.0311  1.5026  1.4209
14216SOL     OW43863   5.944   8.766   3.453  0.6909 -0.2673  0.3754
14216SOL    HW143864   5.912   8.785   3.541  0.6669 -1.1435  0.5614
14216SOL    HW243865   6.032   8.729   3.466  1.2784  0.9199 -0.0571
14217SOL     OW43866   7.041   1.693   2.683 -0.6374  0.0157  0.1194
14217SOL    HW143867   7.080   1.615   2.643  0.3436 -0.4583  1.9250
14217SOL    HW243868   7.078   1.766   2.633  0.3224 -0.5658 -0.0466
14218SOL     OW43869   7.136   1.912   2.564 -0.2821  0.5531 -0.2975
14218SOL    HW143870   7.228   1.893   2.581 -0.2117  1.6902  0.7266
14218SOL    HW243871   7.137   1.967   2.485 -0.1446  0.1131 -0.6095
14219SOL     OW43872   6.143   0.566   2.246 -0.1467 -0.0428  0.0615
14219SOL    HW143873   6.214   0.523   2.199  0.4483  0.4918  0.4463
14219SOL    HW243874   6.182   0.648   2.277 -0.4608 -0.4713  1.6574
14220SOL     OW43875   6.426   0.327   2.810 -0.0444 -0.4007 -0.0299
14220SOL    HW143876   6.346   0.379   2.813  0.5619  0.5416  0.4826
14220SOL    HW243877   6.432   0.296   2.720 -0.6763  0.0267 -0.2228
14221SOL     OW43878   6.931   1.599   2.040 -0.6165  0.2600 -0.5565
14221SOL    HW143879   6.858   1.642   1.997 -1.4082 -0.5028 -0.0095
14221SOL    HW243880   7.000   1.595   1.973 -1.1718  0.7243 -1.1646
14222SOL     OW43881   6.256   0.636   3.524  0.1982  0.1016 -0.1225
14222SOL    HW143882   6.234   0.543   3.530 -0.9394  0.2960 -0.9115
14222SOL    HW243883   6.327   0.648   3.587 -1.1098 -0.8552  1.6353
14223SOL     OW43884   6.760   0.806   3.292  0.1960 -0.5379 -0.8489
14223SOL    HW143885   6.744   0.901   3.296 -0.1197 -0.6241  1.2179
14223SOL    HW243886   6.678   0.770   3.259 -1.2128 -0.3282  2.0710
14224SOL     OW43887   6.351   0.517   3.929  0.5452 -0.0759 -0.1364
14224SOL    HW143888   6.389   0.558   4.007 -1.7259  1.3054  0.3452
14224SOL    HW243889   6.342   0.589   3.866 -1.2430 -0.2805 -0.1877
14225SOL     OW43890   6.307   0.530   3.249 -0.0178  0.3978 -0.6252
14225SOL    HW143891   6.233   0.475   3.223 -1.0037  0.6522  1.4136
14225SOL    HW243892   6.267   0.612   3.278  0.6461 -0.3863  3.1320
14226SOL     OW43893   6.774   0.999   1.877 -0.0640 -0.1882 -0.2568
14226SOL    HW143894   6.859   1.041   1.862  0.3730 -0.2591  1.6498
14226SOL    HW243895   6.710   1.068   1.862  0.4146  0.1931 -0.5795
14227SOL     OW43896   5.649   0.709   2.672  0.4595 -0.2956  0.1427
14227SOL    HW143897   5.646   0.743   2.761  1.0155 -1.2264  0.5344
14227SOL    HW243898   5.558   0.702   2.645  0.3239  1.0630  0.2112
14228SOL     OW43899   5.670   1.593   3.397  0.2652 -0.9795 -0.0045
14228SOL    HW143900   5.683   1.688   3.397  1.3440 -1.0806  1.5993
14228SOL    HW243901   5.663   1.570   3.304 -0.4741  0.7082 -0.4093
14229SOL     OW43902   6.137   0.157   2.211 -0.4171 -0.0954 -0.4892
14229SOL    HW143903   6.170   0.075   2.176  2.2885  0.0168  1.4978
14229SOL    HW243904   6.121   0.211   2.133  2.3830 -0.8680 -1.7177
14230SOL     OW43905   6.537   0.694   3.532 -0.1316 -0.3389  0.1626
14230SOL    HW143906   6.632   0.693   3.518 -0.0372 -0.7379  0.8090
14230SOL    HW243907   6.507   0.771   3.484  0.3969 -0.7172 -0.8234
14231SOL     OW43908   7.340   1.334   2.459 -0.4237 -0.4298 -0.2644
14231SOL    HW143909   7.304   1.323   2.371  0.3433 -2.7131 -0.3545
14231SOL    HW243910   7.309   1.257   2.507  1.3957 -0.6223  0.6560
14232SOL     OW43911   6.109   8.640   2.772  0.7567 -0.1120  0.0295
14232SOL    HW143912   6.072   8.634   2.684 -1.8157  2.0665  0.8192
14232SOL    HW243913   6.129   8.549   2.796  0.2949 -0.8947 -2.2839
14233SOL     OW43914   6.356   1.435   2.768 -0.2240  0.3418 -0.5255
14233SOL    HW143915   6.403   1.504   2.814  0.2640  0.7832 -1.6531
14233SOL    HW243916   6.360   1.360   2.827  2.2527  0.2468 -0.7052
14234SOL     OW43917   5.695   2.122   2.820  0.2498  0.0686 -0.6223
14234SOL    HW143918   5.618   2.110   2.765  0.3689  1.6356 -1.1770
14234SOL    HW243919   5.729   2.033   2.833 -1.4526 -0.6217 -0.6170
14235SOL     OW43920   7.486   1.555   2.502 -0.2219 -0.1215 -0.2051
14235SOL    HW143921   7.456   1.465   2.494 -0.4253 -0.3249  2.1121
14235SOL    HW243922   7.581   1.548   2.515 -0.0763  0.0881 -1.1047
14236SOL     OW43923   6.587   1.431   3.751  0.0168  0.3136  0.0337
14236SOL    HW143924   6.572   1.342   3.783  2.0956 -0.1878 -0.2806
14236SOL    HW243925   6.662   1.463   3.801 -0.3473  1.7026 -0.2605
14237SOL     OW43926   5.701   0.832   2.203 -0.7152  0.5543 -0.0119
14237SOL    HW143927   5.772   0.769   2.192 -0.3426  0.6892  1.3806
14237SOL    HW243928   5.652   0.828   2.121 -0.1887 -0.8984 -0.2846
14238SOL     OW43929   7.173   1.256   3.001 -0.6627  0.3926  0.6904
14238SOL    HW143930   7.164   1.336   3.053  1.3324  0.6226  0.7579
14238SOL    HW243931   7.116   1.270   2.926 -0.6752  1.7088  0.9189
14239SOL     OW43932   6.306   1.437   3.770 -0.7876  0.5655 -0.0401
14239SOL    HW143933   6.399   1.452   3.756 -0.5906 -0.5728 -0.0083
14239SOL    HW243934   6.263   1.505   3.718  0.0215 -0.4026 -2.0676
14240SOL     OW43935   6.612   1.878   2.241  0.0362  0.4078  0.5309
14240SOL    HW143936   6.682   1.883   2.176  0.2395  0.0110  0.7122
14240SOL    HW243937   6.577   1.789   2.232 -0.0732  0.4202  0.8139
14241SOL     OW43938   6.226   0.302   3.530  0.0576  0.0364  0.0739
14241SOL    HW143939   6.315   0.334   3.542 -0.6631  1.3271  2.7615
14241SOL    HW243940   6.197   0.278   3.618 -1.4603 -2.7197 -1.0426
14242SOL     OW43941   7.458   1.116   2.024 -0.2790 -0.0627  0.0759
14242SOL    HW143942   7.447   1.027   2.057  0.9864 -0.9214 -1.6185
14242SOL    HW243943   7.408   1.118   1.943  0.3905  0.4810 -0.3421
14243SOL     OW43944   5.815   1.768   2.565  0.6983  0.7731 -0.5938
14243SOL    HW143945   5.766   1.831   2.512  0.4518 -0.8976 -2.4644
14243SOL    HW243946   5.901   1.764   2.524  0.3594 -0.8809 -1.1871
14244SOL     OW43947   7.028   0.124   2.410 -0.2756  0.1126  0.5155
14244SOL    HW143948   6.996   0.062   2.345  1.6207 -0.0739 -0.3137
14244SOL    HW243949   6.968   0.198   2.404 -0.5210 -0.1724 -1.0180
14245SOL     OW43950   5.088   2.008   3.091 -0.5907  0.3137 -0.0155
14245SOL    HW143951   5.178   2.009   3.057 -0.6353 -0.1522 -0.1471
14245SOL    HW243952   5.065   1.915   3.097 -1.8594  0.4414 -2.0572
14246SOL     OW43953   6.446   1.934   2.967 -0.2531 -0.3744  0.1782
14246SOL    HW143954   6.541   1.948   2.962 -0.3914  0.6423  0.1766
14246SOL    HW243955   6.422   1.901   2.881 -0.1007  0.7839 -0.3301
14247SOL     OW43956   5.953   0.443   2.405  0.2091  0.2662 -0.3440
14247SOL    HW143957   5.940   0.522   2.457  1.3645  0.7602 -0.7663
14247SOL    HW243958   6.018   0.468   2.339  0.8350 -1.1035 -0.2837
14248SOL     OW43959   6.875   8.770   3.884  0.4616 -0.6676 -0.0039
14248SOL    HW143960   6.930   8.785   3.961  2.1204 -1.3072 -0.9959
14248SOL    HW243961   6.922   8.814   3.813  0.5674 -2.5908 -1.1889
14249SOL     OW43962   6.000   8.629   2.493 -0.3587  0.3171 -0.2962
14249SOL    HW143963   6.034   8.656   2.407 -1.1403 -0.2213 -0.7867
14249SOL    HW243964   6.012   8.534   2.494  0.5821  0.4227  0.6218
14250SOL     OW43965   6.561   0.063   3.571 -0.0195  0.0160 -0.5486
14250SOL    HW143966   6.496   0.031   3.633 -1.4671  0.3443 -1.8515
14250SOL    HW243967   6.593   0.144   3.610 -0.6790  0.0666 -0.0893
14251SOL     OW43968   6.493   1.629   2.885  0.3993 -0.3756 -0.3792
14251SOL    HW143969   6.465   1.651   2.973  0.9173  2.2952 -0.8126
14251SOL    HW243970   6.507   1.713   2.842  1.6750 -1.5985 -2.5323
14252SOL     OW43971   6.668   1.102   3.592 -0.2434 -0.0416  0.0943
14252SOL    HW143972   6.735   1.086   3.526 -1.3800  0.8934 -1.3406
14252SOL    HW243973   6.702   1.173   3.646  0.6289 -0.7130  0.4472
14253SOL     OW43974   6.500   1.128   2.814 -0.1611 -0.0197  0.3623
14253SOL    HW143975   6.429   1.138   2.878  0.9245  2.1323  1.3387
14253SOL    HW243976   6.518   1.035   2.812 -1.6027 -0.3704  1.6673
14254SOL     OW43977   6.563   0.348   2.553 -0.2440 -0.1611  0.4344
14254SOL    HW143978   6.522   0.319   2.471 -0.5361  0.2476  0.4303
14254SOL    HW243979   6.575   0.442   2.541 -0.7539 -0.0100  1.0532
14255SOL     OW43980   5.758   8.701   2.622  0.0198  0.3255 -0.0109
14255SOL    HW143981   5.698   8.633   2.590 -2.1186  2.3476 -0.5650
14255SOL    HW243982   5.840   8.684   2.575 -0.6942 -1.3443 -0.7508
14256SOL     OW43983   7.006   1.124   1.855  0.1600 -0.2919 -0.2316
14256SOL    HW143984   7.059   1.203   1.842  0.2751 -0.3578 -0.1684
14256SOL    HW243985   7.042   1.060   1.794 -0.5323 -0.0143 -0.9486
14257SOL     OW43986   6.303   8.426   2.250  0.0936 -0.3336 -0.2004
14257SOL    HW143987   6.219   8.423   2.295  0.2108  0.5255  0.0936
14257SOL    HW243988   6.360   8.368   2.301 -0.2488 -0.7171 -0.2521
14258SOL     OW43989   6.274   0.074   2.974  0.2965 -0.4653 -0.0478
14258SOL    HW143990   6.298   0.020   3.050 -0.0900 -2.2291 -1.1106
14258SOL    HW243991   6.336   0.147   2.976  1.4849 -1.4518  0.9306
14259SOL     OW43992   6.554   0.441   3.357 -0.0862 -0.3610 -0.0517
14259SOL    HW143993   6.539   0.351   3.329  0.1111 -0.5137  0.3235
14259SOL    HW243994   6.480   0.490   3.322 -0.0146 -0.6059 -0.5521
14260SOL     OW43995   6.993   1.691   2.309 -0.2669  0.5243  0.2620
14260SOL    HW143996   6.974   1.779   2.277 -1.4553 -0.0153 -0.5630
14260SOL    HW243997   6.965   1.633   2.239 -1.1053 -0.6007  1.4872
14261SOL     OW43998   5.797   1.044   2.572  0.1115 -0.0276  0.4117
14261SOL    HW143999   5.747   1.098   2.633 -1.3717 -0.2168 -0.5672
14261SOL    HW244000   5.870   1.010   2.624  1.1937  2.9345  1.0614
14262SOL     OW44001   6.937   1.944   2.260 -0.9075 -0.2208  0.0505
14262SOL    HW144002   6.927   1.986   2.174 -0.9218  0.0435  0.1795
14262SOL    HW244003   6.871   1.987   2.315 -1.0344 -0.5306  0.1398
14263SOL     OW44004   6.230   0.604   1.726 -0.2376 -0.3924 -0.1028
14263SOL    HW144005   6.208   0.636   1.814  0.6080 -0.4182  0.1324
14263SOL    HW244006   6.150   0.617   1.675 -0.6489 -0.0996  0.5932
14264SOL     OW44007   6.099   0.743   3.220  0.9223 -0.1703 -0.1795
14264SOL    HW144008   6.118   0.677   3.153  0.7841  0.8308 -1.2451
14264SOL    HW244009   6.086   0.824   3.170 -1.2798  0.2035  0.8627
14265SOL     OW44010   5.890   0.222   3.584  0.1844  0.3532  0.5072
14265SOL    HW144011   5.984   0.235   3.598  0.0921 -0.0992  1.6429
14265SOL    HW244012   5.883   0.193   3.493  1.0040  1.7186 -0.0081
14266SOL     OW44013   6.491   0.237   2.271 -0.5386  0.1913  0.0544
14266SOL    HW144014   6.436   0.170   2.311  0.0550  0.2841  1.0658
14266SOL    HW244015   6.560   0.188   2.226 -0.1335  0.1048  0.7508
14267SOL     OW44016   6.216   8.521   3.103  0.4557 -0.1945 -0.8187
14267SOL    HW144017   6.199   8.440   3.055  0.2952 -0.2179 -0.7214
14267SOL    HW244018   6.146   8.526   3.168  0.4444  0.0427 -0.8484
14268SOL     OW44019   6.857   0.814   3.000  0.8535  0.7879  0.2111
14268SOL    HW144020   6.949   0.795   2.979  0.7325  3.1192 -3.2835
14268SOL    HW244021   6.858   0.905   3.029 -0.4839  1.7125 -2.3266
14269SOL     OW44022   7.004   0.635   2.801 -0.3916 -0.3995 -0.5901
14269SOL    HW144023   6.956   0.562   2.840 -0.8768 -0.4172 -1.1970
14269SOL    HW244024   7.056   0.595   2.732 -0.8417 -0.1505 -1.0835
14270SOL     OW44025   7.338   0.486   2.402  0.2102 -0.4110  0.2665
14270SOL    HW144026   7.293   0.405   2.378 -0.8096  0.0551  0.5261
14270SOL    HW244027   7.370   0.469   2.491 -1.1350 -0.1103  0.8460
14271SOL     OW44028   5.913   1.409   2.100  0.3742 -0.4963 -0.0962
14271SOL    HW144029   5.978   1.479   2.109 -0.0456 -0.1026 -0.1210
14271SOL    HW244030   5.831   1.448   2.130 -0.2265 -0.4132 -1.7648
14272SOL     OW44031   7.191   2.038   2.336  0.0772  0.7941 -0.3884
14272SOL    HW144032   7.254   2.005   2.272  0.3960 -1.6953  1.0950
14272SOL    HW244033   7.109   1.994   2.313 -0.4275  1.7944 -0.5451
14273SOL     OW44034   6.689   1.034   2.231  0.0434 -0.1391  0.0176
14273SOL    HW144035   6.727   1.112   2.193  0.6453 -0.4898 -0.1061
14273SOL    HW244036   6.759   0.996   2.284  0.4060 -1.6604 -1.4823
14274SOL     OW44037   6.021   0.086   2.556 -0.0440 -0.0257  0.2370
14274SOL    HW144038   6.012  -0.005   2.526 -0.9719  0.1342 -0.0234
14274SOL    HW244039   5.931   0.115   2.571 -0.0394  1.7504 -2.4139
14275SOL     OW44040   7.552   1.125   3.828  0.1977  0.4264 -0.0138
14275SOL    HW144041   7.486   1.179   3.783  0.5489 -0.1081 -1.2133
14275SOL    HW244042   7.632   1.177   3.823  0.2648  0.3142 -0.1041
14276SOL     OW44043   6.321   1.198   3.032  0.0139 -0.5057  0.2458
14276SOL    HW144044   6.386   1.155   3.087  0.2958 -1.7893 -1.0404
14276SOL    HW244045   6.258   1.234   3.095  1.1005 -0.6200  1.4538
14277SOL     OW44046   7.083   1.581   3.953  0.2587 -0.1444  0.5080
14277SOL    HW144047   7.155   1.523   3.928 -0.6541 -1.2527  0.3641
14277SOL    HW244048   7.090   1.655   3.893 -0.6047 -1.7412 -1.6731
14278SOL     OW44049   6.927   1.315   2.807  0.1194  0.2146  0.1238
14278SOL    HW144050   6.850   1.363   2.838  0.6039  1.8373 -1.0202
14278SOL    HW244051   6.891   1.234   2.772 -1.0722  0.8613 -0.2327
14279SOL     OW44052   7.134   1.161   3.410 -0.0759  0.2142  0.0702
14279SOL    HW144053   7.169   1.093   3.352 -0.5954  1.3144 -1.6126
14279SOL    HW244054   7.179   1.147   3.493 -1.8016 -3.5868  0.5618
14280SOL     OW44055   6.441   8.593   3.219  0.2120 -0.3129  0.0067
14280SOL    HW144056   6.420   8.534   3.292 -0.7225  0.5811  0.4956
14280SOL    HW244057   6.363   8.594   3.165 -0.5471  1.8810  1.0142
14281SOL     OW44058   6.525   0.659   4.107 -0.5083 -0.1254  0.2293
14281SOL    HW144059   6.511   0.649   4.201  0.9086 -0.3328  0.4399
14281SOL    HW244060   6.619   0.648   4.096 -0.6558 -0.0575 -1.2158
14282SOL     OW44061   6.391   1.038   2.278  0.4754 -0.2281 -0.1772
14282SOL    HW144062   6.340   1.057   2.357 -0.1166 -0.9376 -0.3706
14282SOL    HW244063   6.482   1.055   2.303  0.2815 -0.3129  0.6159
14283SOL     OW44064   5.963   1.125   3.225 -0.2817 -0.3312  0.5072
14283SOL    HW144065   5.925   1.196   3.277 -0.4213 -0.4640  0.5848
14283SOL    HW244066   5.919   1.046   3.255  1.2994 -0.7427  1.8279
14284SOL     OW44067   6.784   0.527   3.553  0.2403 -0.3726  0.2361
14284SOL    HW144068   6.807   0.457   3.614  1.2531 -0.5050 -0.2759
14284SOL    HW244069   6.719   0.487   3.495  0.0038 -0.5464  0.6133
14285SOL     OW44070   5.915   1.719   3.191  0.2447  1.2326  0.8468
14285SOL    HW144071   5.947   1.714   3.281  1.4011 -1.3207  0.3961
14285SOL    HW244072   5.894   1.811   3.177  0.9018  1.8393  3.4211
14286SOL     OW44073   5.596   1.018   2.367 -0.2060  0.6656 -0.3504
14286SOL    HW144074   5.655   1.026   2.442 -0.2770 -1.6758  0.0546
14286SOL    HW244075   5.653   1.001   2.292 -0.2215  1.3480 -0.5193
14287SOL     OW44076   5.980   0.321   2.761 -0.3685  0.0585  0.3268
14287SOL    HW144077   5.907   0.382   2.775 -0.6318 -0.1532 -0.1205
14287SOL    HW244078   5.975   0.298   2.669 -0.0064 -0.3105  0.3972
14288SOL     OW44079   6.710   1.330   2.336 -0.3271 -0.0378 -0.1896
14288SOL    HW144080   6.638   1.291   2.386  0.3830 -0.5194  0.4733
14288SOL    HW244081   6.758   1.382   2.400  0.7074 -0.8230 -0.3053
14289SOL     OW44082   6.739   1.461   2.976 -0.3152  0.5142 -0.0366
14289SOL    HW144083   6.737   1.417   3.061  0.4337 -1.8062 -1.1335
14289SOL    HW244084   6.647   1.480   2.957 -0.4683  1.3411  1.3914
14290SOL     OW44085   6.870   1.056   2.719 -0.0590  0.6465 -0.0404
14290SOL    HW144086   6.946   1.015   2.678  0.6232 -1.4801  2.9856
14290SOL    HW244087   6.810   0.983   2.736 -0.8278  1.5920  1.4751
14291SOL     OW44088   5.749   1.220   2.983  0.1141  0.0744  0.2197
14291SOL    HW144089   5.680   1.172   3.029  0.8042 -0.7445  0.4137
14291SOL    HW244090   5.768   1.295   3.040 -1.8556  1.3525 -0.6855
14292SOL     OW44091   6.348   0.756   3.780  0.1113 -0.7946  0.0450
14292SOL    HW144092   6.382   0.830   3.730  1.3825 -0.0798  1.8737
14292SOL    HW244093   6.274   0.793   3.829  0.1524 -0.9814  0.2477
14293SOL     OW44094   6.954   0.933   3.710  0.3728  0.7268  0.0237
14293SOL    HW144095   6.912   0.992   3.772  1.1228  0.5819  0.6766
14293SOL    HW244096   6.912   0.953   3.626 -0.6571  0.9153  0.5624
14294SOL     OW44097   6.718   8.543   3.796  0.0884 -0.1855  0.1403
14294SOL    HW144098   6.730   8.467   3.854 -0.4306 -0.1337  0.3211
14294SOL    HW244099   6.719   8.618   3.855 -0.6875 -0.1527  0.1125
14295SOL     OW44100   6.400   8.786   3.748  0.0384  0.4792 -0.1698
14295SOL    HW144101   6.321   8.738   3.725 -0.2596  1.1063 -0.4850
14295SOL    HW244102   6.451   8.726   3.801 -1.7235  0.8619  2.0763
14296SOL     OW44103   6.455   0.785   2.902  0.4665 -0.0548 -0.1815
14296SOL    HW144104   6.456   0.823   2.990 -1.4644 -0.4390  0.0420
14296SOL    HW244105   6.437   0.692   2.916  2.9925 -0.7273 -0.8568
14297SOL     OW44106   6.792   0.718   2.579  0.4755 -0.0856 -0.2924
14297SOL    HW144107   6.740   0.768   2.642 -0.0922 -0.7242 -0.2385
14297SOL    HW244108   6.865   0.683   2.630  1.1249  1.0443 -0.4263
14298SOL     OW44109   6.707   0.082   2.163 -0.1512 -0.0445 -0.1374
14298SOL    HW144110   6.725   0.045   2.249 -0.8296 -1.8585 -0.7256
14298SOL    HW244111   6.789   0.123   2.136  0.8264 -1.5781  0.3679
14299SOL     OW44112   5.674   0.229   3.186  0.6877  0.3542  0.0791
14299SOL    HW144113   5.609   0.178   3.138  1.3577  0.3638 -0.8683
14299SOL    HW244114   5.751   0.171   3.190  0.6611  0.3734  1.1092
14300SOL     OW44115   5.019   1.127   3.379 -0.1697  0.2854 -0.1597
14300SOL    HW144116   5.033   1.143   3.286  0.6185 -0.9393 -0.2760
14300SOL    HW244117   5.064   1.044   3.396 -1.2871 -0.1045  1.0605
14301SOL     OW44118   6.696   0.832   2.793 -0.7201 -0.1854 -0.0966
14301SOL    HW144119   6.607   0.807   2.818 -0.7417 -0.9105 -0.8602
14301SOL    HW244120   6.747   0.823   2.874 -0.9656 -1.6328 -0.0748
14302SOL     OW44121   7.487   0.584   3.800  0.4135  0.8478  0.0594
14302SOL    HW144122   7.533   0.589   3.885  0.1771 -0.2488  0.2740
14302SOL    HW244123   7.395   0.577   3.823  0.3329  0.7451 -0.2917
14303SOL     OW44124   5.787   0.239   2.510  0.1712 -0.1498  0.4387
14303SOL    HW144125   5.694   0.263   2.507  0.6028  1.6209  0.1666
14303SOL    HW244126   5.830   0.304   2.454  1.8771  0.5957  2.4883
14304SOL     OW44127   7.079   0.875   2.643  0.1204  0.0253  0.4109
14304SOL    HW144128   7.092   0.823   2.722 -1.8948  1.8108  2.0373
14304SOL    HW244129   7.144   0.945   2.650  3.1857 -2.2947 -2.0313
14305SOL     OW44130   6.193   0.480   2.784 -0.3506 -0.2916 -0.3340
14305SOL    HW144131   6.131   0.415   2.749  2.1104 -2.0272 -1.8611
14305SOL    HW244132   6.220   0.531   2.707  0.8192 -0.2667  0.0695
14306SOL     OW44133   6.553   1.218   3.914  0.2364  0.2203 -0.1781
14306SOL    HW144134   6.551   1.125   3.936 -0.2613 -0.3087 -2.2425
14306SOL    HW244135   6.469   1.252   3.945  0.7720  0.2132  1.3566
14307SOL     OW44136   7.583   1.210   3.541  0.2292  0.0987  0.2958
14307SOL    HW144137   7.538   1.197   3.458 -0.3398 -0.5625  0.7029
14307SOL    HW244138   7.517   1.246   3.600  0.1052 -1.2295  1.0061
14308SOL     OW44139   6.296   0.911   4.144 -0.1258 -0.1206  0.0111
14308SOL    HW144140   6.264   0.839   4.199  0.9220 -0.5006  0.1413
14308SOL    HW244141   6.217   0.960   4.120 -0.7051 -0.5326  1.0273
14309SOL     OW44142   6.455   0.064   1.953 -0.3779  0.1170  0.3306
14309SOL    HW144143   6.518   0.119   1.998 -0.5303  2.3551 -1.9230
14309SOL    HW244144   6.409   0.125   1.893 -1.5254 -2.2275 -1.3352
14310SOL     OW44145   7.016   1.035   2.101  0.4039  0.3393  0.1446
14310SOL    HW144146   7.069   0.958   2.080  1.1260  0.5934  0.9425
14310SOL    HW244147   7.000   1.077   2.017  0.4783 -0.3824 -0.2358
14311SOL     OW44148   6.691   1.712   2.615 -0.1679 -0.5142 -0.4985
14311SOL    HW144149   6.734   1.632   2.584 -1.1513 -0.9598 -0.7458
14311SOL    HW244150   6.737   1.733   2.697  1.0477 -0.5078 -1.1554
14312SOL     OW44151   6.109   0.955   3.057  0.4236  0.3492  0.4179
14312SOL    HW144152   6.076   1.029   3.107 -1.0119  0.6005 -0.8009
14312SOL    HW244153   6.204   0.958   3.068  0.3903  2.3001  0.4930
14313SOL     OW44154   5.824   0.610   3.041 -0.0494 -0.5913  0.5288
14313SOL    HW144155   5.808   0.588   2.950 -1.2326  0.4474  0.4678
14313SOL    HW244156   5.903   0.561   3.064 -1.2524 -3.0655 -0.2399
14314SOL     OW44157   7.000   0.039   3.663 -0.8508 -0.5144  0.4018
14314SOL    HW144158   6.948   0.007   3.590  2.1358 -1.4589 -1.4957
14314SOL    HW244159   7.048   0.114   3.627 -0.3002 -0.1433  1.8330
14315SOL     OW44160   6.926   0.347   3.324  0.5850 -0.1945  0.0294
14315SOL    HW144161   6.858   0.369   3.388 -0.7177  0.6555 -1.5463
14315SOL    HW244162   6.906   0.403   3.249  1.4815 -1.7989 -1.4769
14316SOL     OW44163   5.613   1.377   2.232 -0.1650  0.3378  0.2085
14316SOL    HW144164   5.582   1.466   2.221 -0.6890  0.3404  1.4640
14316SOL    HW244165   5.561   1.342   2.305 -0.3332 -1.1580 -0.5789
14317SOL     OW44166   5.490   1.846   2.816  0.3234  0.3169 -0.3933
14317SOL    HW144167   5.577   1.886   2.823  0.7592 -0.8722  2.0251
14317SOL    HW244168   5.502   1.756   2.844 -1.3510 -0.4841 -2.0212
14318SOL     OW44169   6.041   0.908   2.637  0.0583 -0.0544  0.5745
14318SOL    HW144170   6.024   0.973   2.705  0.6676 -0.0290  0.7047
14318SOL    HW244171   6.124   0.867   2.662 -1.1071 -2.0367  1.3966
14319SOL     OW44172   6.396   0.924   3.130  0.2625  0.4734 -0.3829
14319SOL    HW144173   6.386   0.877   3.212  1.1405 -0.2224 -0.6576
14319SOL    HW244174   6.475   0.977   3.142  1.1796 -0.6491 -1.2260
14320SOL     OW44175   5.644   0.801   3.184 -0.0093  0.5074 -0.2779
14320SOL    HW144176   5.602   0.844   3.109 -0.2290 -0.1507 -0.5355
14320SOL    HW244177   5.699   0.734   3.145  0.0794  0.3378  0.1405
14321SOL     OW44178   5.975   0.754   3.473  0.3284 -0.2785  0.3328
14321SOL    HW144179   6.045   0.739   3.536 -0.1082  0.1982  0.9340
14321SOL    HW244180   6.017   0.740   3.388  1.2716  0.4133  0.6648
14322SOL     OW44181   6.816   1.085   3.918  0.2364 -0.5614  0.2464
14322SOL    HW144182   6.791   1.017   3.980 -1.4978 -0.8644 -0.7050
14322SOL    HW244183   6.737   1.138   3.908  0.8249  0.1505 -0.8316
14323SOL     OW44184   6.345   0.434   2.129 -0.4709  0.7222 -0.1405
14323SOL    HW144185   6.388   0.362   2.175 -2.2006 -0.0961  0.2898
14323SOL    HW244186   6.415   0.475   2.078  0.7403 -0.7048  0.2908
14324SOL     OW44187   6.856   0.544   3.120  0.1970 -0.1271 -0.1705
14324SOL    HW144188   6.833   0.637   3.112 -0.9716 -0.2642  1.2331
14324SOL    HW244189   6.796   0.499   3.061 -0.5742 -0.1497  0.6213
14325SOL     OW44190   5.933   1.314   3.437 -0.4532 -0.2163  0.0132
14325SOL    HW144191   5.873   1.359   3.495 -0.7430  0.8224 -1.0568
14325SOL    HW244192   5.966   1.240   3.488 -2.2142 -0.4998  0.8034
14326SOL     OW44193   6.091   0.521   3.033  0.6963  0.3951  0.0170
14326SOL    HW144194   6.139   0.522   2.950  0.2477 -1.5766 -0.2909
14326SOL    HW244195   6.096   0.431   3.063 -1.8201  0.3595  0.5634
14327SOL     OW44196   6.322   1.703   3.272  0.3721  0.2496 -0.3920
14327SOL    HW144197   6.329   1.798   3.285 -0.5555  0.1704  0.8941
14327SOL    HW244198   6.411   1.676   3.252  0.6126  1.4200 -1.0201
14328SOL     OW44199   6.210   0.347   2.482 -0.4061 -0.2210 -0.2846
14328SOL    HW144200   6.213   0.255   2.510  0.0985  0.4188  1.9688
14328SOL    HW244201   6.129   0.354   2.433 -1.7869 -1.3598  1.6736
14329SOL     OW44202   5.893   0.672   3.823  0.4249 -0.1879  0.9370
14329SOL    HW144203   5.833   0.607   3.787 -0.5078  1.1620 -0.0828
14329SOL    HW244204   5.976   0.655   3.779 -0.1822  0.1601 -0.3999
14330SOL     OW44205   6.593   1.094   3.111  0.0266 -0.2901  0.2677
14330SOL    HW144206   6.662   1.066   3.051 -0.7787  0.1759 -0.9144
14330SOL    HW244207   6.632   1.166   3.160  0.6535 -0.5852  0.2144
14331SOL     OW44208   7.139   1.288   2.226  0.0189 -0.4321  0.2218
14331SOL    HW144209   7.044   1.293   2.222 -0.0901 -1.0992  1.4802
14331SOL    HW244210   7.159   1.196   2.211  0.6645  0.0611 -2.5250
14332SOL     OW44211   7.136   1.619   3.292 -0.4282 -0.3435  0.3335
14332SOL    HW144212   7.072   1.679   3.254 -1.2009 -0.3995  1.4697
14332SOL    HW244213   7.085   1.541   3.313  0.3820 -1.0499 -0.3029
14333SOL     OW44214   6.809   1.741   2.862  0.3285  0.1311  0.0192
14333SOL    HW144215   6.784   1.678   2.929  0.5577 -0.0629 -0.0732
14333SOL    HW244216   6.901   1.721   2.844  0.1076 -0.2207 -0.7757
14334SOL     OW44217   5.504   1.135   3.058 -0.2258  0.3650 -0.4579
14334SOL    HW144218   5.442   1.208   3.046  0.2400  0.8231 -0.1369
14334SOL    HW244219   5.464   1.080   3.125 -0.1426  0.8264 -0.0234
14335SOL     OW44220   5.944   2.019   3.806 -0.3060  0.3081  0.7825
14335SOL    HW144221   5.883   1.952   3.776  0.5733 -0.5018  0.7537
14335SOL    HW244222   5.889   2.095   3.823 -1.4433 -0.6434  1.5492
14336SOL     OW44223   6.955   0.158   1.820  0.7289 -0.0265 -0.5879
14336SOL    HW144224   6.919   0.246   1.832 -0.3101 -0.5524  0.3596
14336SOL    HW244225   6.880   0.099   1.833  1.5577 -1.0868 -0.4065
14337SOL     OW44226   6.731   1.404   2.076 -0.1834 -0.5442  0.4269
14337SOL    HW144227   6.709   1.374   2.164 -0.4655  0.2856  0.6530
14337SOL    HW244228   6.804   1.465   2.090 -1.0729  0.6013  0.2532
14338SOL     OW44229   5.677   1.860   3.441  0.2375  0.0290 -0.1968
14338SOL    HW144230   5.615   1.877   3.511 -0.1686 -0.5401 -0.4153
14338SOL    HW244231   5.752   1.916   3.461 -0.6292  1.2736 -0.3282
14339SOL     OW44232   6.887   0.898   2.358  0.3545  0.2763  0.5721
14339SOL    HW144233   6.914   0.865   2.443  1.5033 -1.2727 -0.3334
14339SOL    HW244234   6.968   0.925   2.315 -0.0420 -0.1896 -0.5118
14340SOL     OW44235   6.469   1.268   3.317  0.1042 -0.0053  0.0751
14340SOL    HW144236   6.402   1.203   3.337 -0.1087 -0.6610 -2.5156
14340SOL    HW244237   6.419   1.346   3.290  0.2559 -0.9668 -3.3293
14341SOL     OW44238   6.333   1.761   2.135  0.1557 -0.0427 -0.1301
14341SOL    HW144239   6.343   1.771   2.040 -0.1210 -0.1530 -0.1729
14341SOL    HW244240   6.401   1.698   2.159 -0.2888 -0.6339 -0.3826
14342SOL     OW44241   6.964   1.509   3.595 -0.6245  0.6378  0.2047
14342SOL    HW144242   7.053   1.509   3.631 -0.6551 -0.0311  0.2945
14342SOL    HW244243   6.946   1.601   3.576  0.4176  0.7072 -0.6057
14343SOL     OW44244   7.536   0.322   2.530  0.7606 -0.2633  0.2957
14343SOL    HW144245   7.514   0.355   2.443  0.6381 -0.2454  0.3327
14343SOL    HW244246   7.544   0.227   2.519 -0.5783 -0.4210  0.5280
14344SOL     OW44247   5.520   0.233   2.485 -0.6554  0.3490 -0.0175
14344SOL    HW144248   5.447   0.224   2.546 -0.2863 -0.7517  0.2836
14344SOL    HW244249   5.541   0.143   2.459  0.2415  0.6907 -0.5122
14345SOL     OW44250   6.550   1.603   2.173  0.0748  0.1305 -0.5260
14345SOL    HW144251   6.631   1.576   2.129 -0.3095  0.3791 -1.4132
14345SOL    HW244252   6.497   1.523   2.177  0.5962 -0.1720  0.6036
14346SOL     OW44253   6.410   1.002   3.649  0.1801  0.2070 -0.3960
14346SOL    HW144254   6.494   1.041   3.626 -1.0643  2.2213 -1.9254
14346SOL    HW244255   6.356   1.077   3.676 -0.6329 -1.2357  2.3630
14347SOL     OW44256   6.626   1.226   1.902 -0.0493 -0.1066  0.3708
14347SOL    HW144257   6.550   1.196   1.952 -1.1931  1.8602 -0.0858
14347SOL    HW244258   6.665   1.295   1.956 -1.0838  1.7915 -1.1796
14348SOL     OW44259   6.908   1.361   1.787 -0.1172 -0.0803 -0.5022
14348SOL    HW144260   6.944   1.437   1.835 -1.5262 -0.1665  0.7648
14348SOL    HW244261   6.846   1.322   1.848 -0.7429 -1.2126 -1.8194
14349SOL     OW44262   5.471   1.135   3.594 -0.5507  0.0784  0.3263
14349SOL    HW144263   5.541   1.198   3.610 -0.9297  0.3348  1.0985
14349SOL    HW244264   5.408   1.152   3.665 -1.3825 -0.1444 -0.3442
14350SOL     OW44265   7.029   1.539   2.952 -0.1660  0.7013 -0.0294
14350SOL    HW144266   6.968   1.486   2.900 -0.3529  1.3061 -0.4395
14350SOL    HW244267   7.100   1.560   2.891 -1.2171  2.8728 -0.6088
14351SOL     OW44268   6.630   1.307   2.664  0.0364 -0.0342 -0.2729
14351SOL    HW144269   6.581   1.252   2.725 -0.2416  0.0871 -0.3867
14351SOL    HW244270   6.722   1.289   2.684 -0.0444  0.5052  0.6323
14352SOL     OW44271   6.054   0.264   3.148 -0.2362  0.2980  0.4375
14352SOL    HW144272   5.982   0.218   3.106  0.8064 -1.7577  0.7608
14352SOL    HW244273   6.082   0.205   3.218  2.0945  0.7459 -0.0396
14353SOL     OW44274   6.094   1.215   2.689  0.6600  0.1435  0.2301
14353SOL    HW144275   6.062   1.175   2.769 -2.2986  1.0619 -0.3654
14353SOL    HW244276   6.095   1.309   2.708 -2.8399  0.6969 -1.4762
14354SOL     OW44277   7.275   0.574   3.307 -0.7224  0.2006  0.4482
14354SOL    HW144278   7.272   0.591   3.401 -1.4553 -1.3753  0.7480
14354SOL    HW244279   7.348   0.627   3.275  0.2052 -0.0333  2.0783
14355SOL     OW44280   5.907   1.369   2.470 -0.0104  0.1246 -0.0284
14355SOL    HW144281   5.904   1.291   2.415 -0.5648  0.3303 -0.3046
14355SOL    HW244282   5.928   1.337   2.557  1.1872 -0.1791 -0.4128
14356SOL     OW44283   5.969   1.078   3.602 -0.7295 -0.1607 -0.2319
14356SOL    HW144284   5.941   1.097   3.692 -0.0257 -2.0781  0.4575
14356SOL    HW244285   5.895   1.029   3.565 -0.7920  0.1435 -0.5065
14357SOL     OW44286   6.214   0.132   3.326  0.1109 -0.5810 -0.2252
14357SOL    HW144287   6.302   0.095   3.318 -0.2654 -1.5382 -0.0629
14357SOL    HW244288   6.224   0.209   3.382  1.1522  0.4354 -1.7303
14358SOL     OW44289   5.789   0.638   1.871  0.7811  0.5402  0.6419
14358SOL    HW144290   5.740   0.717   1.852 -1.4229 -0.9892 -0.3727
14358SOL    HW244291   5.730   0.584   1.924  1.2870 -1.3766 -0.6288
14359SOL     OW44292   6.917   1.066   3.080 -0.1119  0.3719  0.3367
14359SOL    HW144293   6.925   1.161   3.092  1.4235  0.3355 -0.2135
14359SOL    HW244294   6.989   1.028   3.130 -0.6985 -0.5144  0.5377
14360SOL     OW44295   5.570   8.500   2.589 -0.3846 -0.3089 -0.6556
14360SOL    HW144296   5.474   8.506   2.590 -0.3336  0.7508  0.7470
14360SOL    HW244297   5.589   8.434   2.522 -2.0525  0.0271 -1.5170
14361SOL     OW44298   6.412   1.366   2.195 -0.1158 -0.7594 -0.0615
14361SOL    HW144299   6.405   1.284   2.146  0.7155 -1.2648  0.6499
14361SOL    HW244300   6.427   1.339   2.285  0.4627  0.1828  0.1342
14362SOL     OW44301   6.376   0.865   3.405 -0.2002  0.3771  0.4570
14362SOL    HW144302   6.316   0.798   3.438 -0.3357 -0.8099 -1.9740
14362SOL    HW244303   6.351   0.945   3.452 -0.3963 -1.1195  3.0243
14363SOL     OW44304   7.225   1.821   3.426  0.0347 -0.3428 -0.3478
14363SOL    HW144305   7.199   1.736   3.390 -2.9256  0.4305 -0.3070
14363SOL    HW244306   7.210   1.883   3.355  0.6347  0.3531  0.1206
14364SOL     OW44307   6.215   0.292   3.798  0.1924 -0.0034  0.1458
14364SOL    HW144308   6.263   0.229   3.852  1.1845 -1.0711 -1.8580
14364SOL    HW244309   6.264   0.374   3.807  1.7959 -0.7956 -0.9864
14365SOL     OW44310   6.874   1.286   3.703  0.2879  0.1225  0.0088
14365SOL    HW144311   6.873   1.371   3.660  0.5468  0.2227  0.1953
14365SOL    HW244312   6.930   1.299   3.780  1.5853 -0.6144 -0.7755
14366SOL     OW44313   5.622   1.811   3.163  0.7986  0.0987  0.0546
14366SOL    HW144314   5.643   1.822   3.256 -1.2482  1.6048  0.4242
14366SOL    HW244315   5.629   1.899   3.126 -0.4483 -0.0960 -0.7100
14367SOL     OW44316   7.051   0.915   3.295 -0.4406  0.0837  0.4075
14367SOL    HW144317   7.061   0.862   3.374 -1.7554 -0.6394  0.1180
14367SOL    HW244318   7.065   0.853   3.223 -1.1981  0.2935  0.0686
14368SOL     OW44319   6.827   0.233   2.672 -0.1014  0.0178 -0.3111
14368SOL    HW144320   6.744   0.279   2.660  0.6045  1.9511  1.5798
14368SOL    HW244321   6.878   0.253   2.593 -0.0142  2.1234  0.2324
14369SOL     OW44322   6.325   0.583   2.544  0.2132 -0.5256  0.1673
14369SOL    HW144323   6.291   0.501   2.509 -0.8828  0.3153 -0.8282
14369SOL    HW244324   6.411   0.592   2.504 -0.8604  0.2206 -2.1340
14370SOL     OW44325   7.217   0.293   3.597 -0.3503  0.1922  0.1091
14370SOL    HW144326   7.297   0.326   3.638 -0.5263 -0.1540  0.7446
14370SOL    HW244327   7.245   0.261   3.511  0.0988  0.5378  0.1240
14371SOL     OW44328   6.869   1.067   3.446 -0.0402  0.4724 -0.3253
14371SOL    HW144329   6.910   1.142   3.488 -0.2965  0.3140  0.2140
14371SOL    HW244330   6.931   1.040   3.378  0.9605 -0.0535  0.7738
14372SOL     OW44331   6.083   1.636   2.095  0.7319  0.4683 -0.1764
14372SOL    HW144332   6.170   1.668   2.118  0.5539  0.9374 -0.1472
14372SOL    HW244333   6.096   1.583   2.016  0.9256  1.2037 -0.6475
14373SOL     OW44334   5.885   1.635   2.925  0.1433 -0.3604 -0.0023
14373SOL    HW144335   5.952   1.568   2.914 -0.8266 -1.4116  0.3782
14373SOL    HW244336   5.901   1.671   3.012  0.4319 -0.3361 -0.0617
14374SOL     OW44337   6.470   1.265   2.465  0.2042 -0.6820 -0.0558
14374SOL    HW144338   6.507   1.290   2.550  1.7678 -2.3110 -0.2013
14374SOL    HW244339   6.419   1.186   2.483 -0.2376 -0.4999 -0.4809
14375SOL     OW44340   6.770   1.205   1.595 -0.1169 -0.4739 -0.1340
14375SOL    HW144341   6.754   1.111   1.605 -1.0840 -0.1778  1.5021
14375SOL    HW244342   6.829   1.228   1.666  0.2780  0.1364 -0.6391
14376SOL     OW44343   7.254   1.687   2.335  0.1234 -0.5026  0.2766
14376SOL    HW144344   7.159   1.693   2.327  0.2798  0.4931 -1.2936
14376SOL    HW244345   7.271   1.700   2.428 -1.2149  0.5309  0.4133
14377SOL     OW44346   5.312   1.361   3.464  0.6983 -0.3873 -0.2731
14377SOL    HW144347   5.381   1.323   3.409  1.8557  0.8727  0.2525
14377SOL    HW244348   5.276   1.286   3.512  1.3971 -1.1313 -0.8837
14378SOL     OW44349   5.692   1.255   2.715 -0.0166 -0.5490 -0.0026
14378SOL    HW144350   5.726   1.273   2.803  0.2059 -1.4943  0.1118
14378SOL    HW244351   5.678   1.342   2.677  0.1663 -0.1310  0.8561
14379SOL     OW44352   6.222   1.212   3.616  0.0458 -0.6499 -0.4687
14379SOL    HW144353   6.144   1.161   3.593 -0.5699  1.0868 -2.5774
14379SOL    HW244354   6.189   1.283   3.671  0.1616 -0.1256 -1.0597
14380SOL     OW44355   7.132   0.471   2.654  0.3383  0.0741  0.2931
14380SOL    HW144356   7.116   0.377   2.651  0.5252  0.0676 -1.3326
14380SOL    HW244357   7.114   0.502   2.565 -1.0537  1.8117  1.1073
14381SOL     OW44358   5.744   0.458   2.809 -0.3033 -0.4792  0.4831
14381SOL    HW144359   5.658   0.423   2.833 -0.8100  1.4150  1.6530
14381SOL    HW244360   5.725   0.528   2.746  0.4250 -0.4360  0.3051
14382SOL     OW44361   7.163   1.429   2.664  0.3655 -0.4604  0.5479
14382SOL    HW144362   7.124   1.343   2.681 -2.3064  0.6223  0.2256
14382SOL    HW244363   7.210   1.418   2.581 -1.6856 -1.1205 -0.5855
14383SOL     OW44364   5.736   0.534   3.482 -0.8455  0.3406  0.3770
14383SOL    HW144365   5.731   0.493   3.568 -1.5136 -0.8380 -0.2081
14383SOL    HW244366   5.814   0.589   3.487  0.0923 -1.0072  1.1919
14384SOL     OW44367   6.224   1.572   3.048  0.0315  0.0161 -0.2973
14384SOL    HW144368   6.218   1.479   3.071  0.0048  0.2436  0.6467
14384SOL    HW244369   6.234   1.617   3.131  2.0135  0.7235 -0.8531
14385SOL     OW44370   6.554   0.675   3.163  0.0710  0.5778 -0.2663
14385SOL    HW144371   6.573   0.602   3.104  1.1475  0.0381  0.6909
14385SOL    HW244372   6.477   0.647   3.212  0.4218  0.1108  0.0283
14386SOL     OW44373   5.759   8.844   2.830 -0.1365 -0.3720 -0.3014
14386SOL    HW144374   5.852   8.868   2.833 -0.2604  0.0831  1.2915
14386SOL    HW244375   5.752   8.785   2.756  1.4914 -0.6653 -0.2775
14387SOL     OW44376   6.053   1.673   2.467 -0.4529 -0.2239 -0.1651
14387SOL    HW144377   6.141   1.636   2.476 -0.8447 -0.8550  1.4902
14387SOL    HW244378   6.002   1.604   2.424 -0.7181 -0.9377  1.2048
14388SOL     OW44379   6.246   1.467   3.401  0.2672 -0.1154  0.7572
14388SOL    HW144380   6.197   1.477   3.482 -0.1512 -0.9227  0.6147
14388SOL    HW244381   6.264   1.557   3.373  1.7612  0.1899  2.5274
14389SOL     OW44382   7.153   8.763   2.153  0.1678  0.5438  0.1242
14389SOL    HW144383   7.196   8.683   2.182  0.1773 -0.2461 -1.8866
14389SOL    HW244384   7.060   8.748   2.167  0.0096 -0.5510 -1.6980
14390SOL     OW44385   6.881   0.344   2.425  0.3765 -0.4054  0.1473
14390SOL    HW144386   6.798   0.372   2.385  0.1614 -1.1574  0.0621
14390SOL    HW244387   6.932   0.425   2.433 -0.7548  0.2379  1.1262
14391SOL     OW44388   7.163   0.355   3.021  0.5105 -0.0206  0.9554
14391SOL    HW144389   7.164   0.342   3.116 -2.9236 -1.8147  0.9131
14391SOL    HW244390   7.108   0.284   2.988  2.9334 -0.4982 -2.6413
14392SOL     OW44391   5.094   0.790   2.233 -0.1027  0.4439 -0.6395
14392SOL    HW144392   5.168   0.747   2.275  1.5965  3.2683 -0.5023
14392SOL    HW244393   5.085   0.745   2.149 -0.2712 -1.9258  0.5608
14393SOL     OW44394   6.705   1.949   2.490 -0.3318 -0.0451 -0.5162
14393SOL    HW144395   6.705   1.868   2.540 -0.7742 -0.6066 -1.3964
14393SOL    HW244396   6.674   1.923   2.403  0.7539  0.8332 -1.1909
14394SOL     OW44397   5.843   0.890   4.004  0.2580 -0.1992 -0.0330
14394SOL    HW144398   5.863   0.816   3.946  1.0344  0.5055 -0.6877
14394SOL    HW244399   5.769   0.934   3.961  1.1536  0.6153 -0.7966
14395SOL     OW44400   5.573   0.316   5.280 -0.1741 -0.2246  0.2569
14395SOL    HW144401   5.649   0.305   5.336  0.4897 -0.4799 -0.6614
14395SOL    HW244402   5.581   0.247   5.214 -0.8689  0.1208 -0.2116
14396SOL     OW44403   5.485   0.290   4.506 -0.3527  0.0140 -0.1922
14396SOL    HW144404   5.413   0.334   4.551 -1.4276 -1.9362  0.1096
14396SOL    HW244405   5.444   0.246   4.432  0.4480 -1.4172  0.1747
14397SOL     OW44406   6.023   1.200   4.977 -0.4009 -0.5597 -0.0031
14397SOL    HW144407   6.050   1.203   4.885 -1.5990 -2.6963 -0.5010
14397SOL    HW244408   6.003   1.291   5.000  2.7618  0.4700 -0.8929
14398SOL     OW44409   7.695   1.629   4.480  0.1627 -0.1976 -0.2935
14398SOL    HW144410   7.605   1.599   4.469  0.0912  0.1225 -0.5804
14398SOL    HW244411   7.717   1.607   4.570 -0.2978 -0.0248 -0.1376
14399SOL     OW44412   6.638   0.723   4.370 -0.2878 -0.4001  0.2643
14399SOL    HW144413   6.627   0.772   4.451 -0.9277 -0.6368  0.3222
14399SOL    HW244414   6.703   0.773   4.321  0.6101 -0.6060  1.2024
14400SOL     OW44415   7.248   0.955   3.691  0.2580  0.0015 -0.3340
14400SOL    HW144416   7.167   0.903   3.686 -1.2938  2.1700  0.7749
14400SOL    HW244417   7.286   0.932   3.776 -0.1419  0.2672 -0.0795
14401SOL     OW44418   6.214   1.158   5.320  0.7278  0.2073  0.2108
14401SOL    HW144419   6.288   1.199   5.276 -0.3940  1.4334 -0.5989
14401SOL    HW244420   6.182   1.092   5.258  0.8006  0.0522  0.3362
14402SOL     OW44421   6.889   1.071   5.563  0.3280 -0.3043  0.0728
14402SOL    HW144422   6.958   1.131   5.535 -0.4562  0.0231 -1.2591
14402SOL    HW244423   6.861   1.027   5.483 -0.8919 -0.5495  0.6013
14403SOL     OW44424   6.141   1.110   4.697 -0.2330 -0.2664 -0.0708
14403SOL    HW144425   6.225   1.068   4.716  0.3855 -0.3985 -2.7456
14403SOL    HW244426   6.078   1.038   4.693 -0.2392 -0.3078  0.6391
14404SOL     OW44427   6.455   1.575   5.657 -0.8699  0.8325  0.5240
14404SOL    HW144428   6.452   1.629   5.579 -0.9817  2.5146  1.6458
14404SOL    HW244429   6.408   1.495   5.633 -2.6513  2.1210 -0.5183
14405SOL     OW44430   5.714   1.382   4.831 -0.1908  0.2041 -0.3996
14405SOL    HW144431   5.809   1.389   4.843 -0.3466  2.7641 -0.2860
14405SOL    HW244432   5.698   1.287   4.827  2.3071 -0.3015 -0.0996
14406SOL     OW44433   6.977   1.276   5.211 -0.5714 -0.5038  0.0499
14406SOL    HW144434   6.932   1.348   5.166 -1.1529 -1.2783 -0.6325
14406SOL    HW244435   6.961   1.292   5.304  0.5021  1.0285  0.0187
14407SOL     OW44436   5.908   0.386   5.366 -0.0402 -0.5247 -0.2749
14407SOL    HW144437   5.947   0.459   5.413  0.8689 -0.2121 -1.4576
14407SOL    HW244438   5.863   0.334   5.433 -0.3587  0.8953  0.6335
14408SOL     OW44439   6.863   0.237   4.270 -0.1855 -0.0150  0.0687
14408SOL    HW144440   6.956   0.261   4.266  0.6394 -2.1205  3.4021
14408SOL    HW244441   6.818   0.320   4.288  1.1827  0.8187 -0.2139
14409SOL     OW44442   5.335   1.631   4.131  0.0142  0.1485  0.1664
14409SOL    HW144443   5.367   1.698   4.070  0.2342 -0.3985 -0.3181
14409SOL    HW244444   5.247   1.660   4.153 -1.3885 -1.3023 -2.9523
14410SOL     OW44445   6.641   1.403   5.339  0.3002 -0.2324 -0.1216
14410SOL    HW144446   6.725   1.431   5.374  1.2535 -1.6872 -1.1382
14410SOL    HW244447   6.595   1.366   5.414  0.6507  0.3464  0.3922
14411SOL     OW44448   5.509   1.593   3.885 -0.2284 -0.0567 -0.4768
14411SOL    HW144449   5.435   1.536   3.907  0.4256 -0.6762  0.1968
14411SOL    HW244450   5.476   1.650   3.815 -0.6401 -1.8951 -1.8718
14412SOL     OW44451   5.805   1.029   4.971 -0.6518  0.5304 -0.3431
14412SOL    HW144452   5.880   1.087   4.980  1.8025 -2.5196  0.7502
14412SOL    HW244453   5.780   1.008   5.061 -1.7185  0.1671 -0.7067
14413SOL     OW44454   5.770   2.136   5.160 -0.2238  0.0578 -0.2254
14413SOL    HW144455   5.735   2.120   5.248 -1.1394 -0.1468 -0.6140
14413SOL    HW244456   5.841   2.074   5.151  0.5240  0.7412  0.7314
14414SOL     OW44457   5.913   1.210   4.379  0.0428 -0.1291  0.2140
14414SOL    HW144458   5.890   1.150   4.450  1.9637 -0.1013  0.9292
14414SOL    HW244459   6.009   1.211   4.379  0.0715  1.3987 -1.1091
14415SOL     OW44460   7.266   0.506   5.212  0.2291  0.0323 -0.3623
14415SOL    HW144461   7.213   0.526   5.134  0.4072  0.4579 -0.3805
14415SOL    HW244462   7.203   0.471   5.275 -0.2147  1.1314 -0.1557
14416SOL     OW44463   5.846   0.192   4.165 -0.4227  0.2467  0.7255
14416SOL    HW144464   5.885   0.179   4.078 -0.9373  1.6129  0.2633
14416SOL    HW244465   5.754   0.167   4.153 -0.4690  0.3370  0.8986
14417SOL     OW44466   7.406   1.634   4.282  0.6140  0.1808 -0.5980
14417SOL    HW144467   7.422   1.540   4.275  0.6659  0.0017  1.3818
14417SOL    HW244468   7.464   1.673   4.217  2.2873 -1.0411  0.0967
14418SOL     OW44469   5.032   1.663   3.705 -0.4169 -0.3021  0.5210
14418SOL    HW144470   4.959   1.602   3.717  0.8580 -1.6974  1.7179
14418SOL    HW244471   5.079   1.659   3.788  1.5579 -0.2101 -0.5435
14419SOL     OW44472   6.985   1.261   4.594  0.3500 -0.1717  0.2599
14419SOL    HW144473   6.955   1.346   4.563 -0.0041 -0.4541 -0.1837
14419SOL    HW244474   7.068   1.280   4.639 -0.2762  0.5489  1.1391
14420SOL     OW44475   7.375   0.834   3.898  0.1577  0.3209 -0.4244
14420SOL    HW144476   7.414   0.828   3.985  0.6993  0.6792 -0.6389
14420SOL    HW244477   7.431   0.780   3.842 -0.0010  0.3555 -0.6178
14421SOL     OW44478   5.627   1.297   5.443 -0.5621  0.2021 -0.0111
14421SOL    HW144479   5.665   1.380   5.472  0.2996 -0.7945  1.9219
14421SOL    HW244480   5.532   1.312   5.442 -0.3507  2.0732 -2.7586
14422SOL     OW44481   6.009   1.345   4.707 -0.0319  0.2783  0.1610
14422SOL    HW144482   6.021   1.397   4.627 -0.7728 -1.0501 -0.8444
14422SOL    HW244483   6.032   1.256   4.682 -1.4746 -0.3860  1.0918
14423SOL     OW44484   6.576   0.773   5.407 -0.2914 -0.4111  0.2280
14423SOL    HW144485   6.565   0.694   5.460 -1.4912 -2.8925 -3.3695
14423SOL    HW244486   6.497   0.778   5.354  0.9846  1.5860 -1.6516
14424SOL     OW44487   6.376   0.029   4.574  0.1630  0.1372 -0.4750
14424SOL    HW144488   6.434   0.090   4.620  2.4783 -0.9004 -1.8398
14424SOL    HW244489   6.322   0.086   4.518  0.5325  1.0880  0.1049
14425SOL     OW44490   5.725   1.099   5.245  0.3183 -0.1273 -0.7021
14425SOL    HW144491   5.656   1.054   5.197 -0.4336 -1.6375  1.6264
14425SOL    HW244492   5.681   1.173   5.288  0.1729 -0.8906  0.5085
14426SOL     OW44493   7.064   1.220   3.968  0.2673  0.8038 -0.1990
14426SOL    HW144494   6.985   1.170   3.948  0.2182  0.4970  0.7184
14426SOL    HW244495   7.136   1.166   3.936  0.2334 -0.0159  1.0499
14427SOL     OW44496   7.006   2.178   5.126 -0.1734  0.0959 -0.2442
14427SOL    HW144497   6.929   2.214   5.082  0.5584  2.2587  0.1082
14427SOL    HW244498   6.979   2.170   5.218 -0.4671 -0.6671 -0.3941
14428SOL     OW44499   5.581   0.675   5.662  0.1532  0.0212 -0.2613
14428SOL    HW144500   5.510   0.738   5.676  0.0865 -0.1288  0.0711
14428SOL    HW244501   5.575   0.654   5.569 -0.5677 -0.3750 -0.1319
14429SOL     OW44502   7.241   1.495   5.022  0.6690 -0.0332  0.1261
14429SOL    HW144503   7.211   1.548   4.949  0.9338 -0.6107 -0.4074
14429SOL    HW244504   7.277   1.416   4.982  2.4362  0.4015  0.7529
14430SOL     OW44505   6.907   1.688   4.587 -0.2840 -0.6242 -0.4510
14430SOL    HW144506   6.830   1.741   4.606 -0.2090 -1.4294  2.5809
14430SOL    HW244507   6.965   1.746   4.537 -1.5323  1.0210 -0.0742
14431SOL     OW44508   5.937   0.709   4.191 -0.2103  0.1474 -0.1453
14431SOL    HW144509   5.878   0.724   4.265 -0.0771  1.5230 -0.2763
14431SOL    HW244510   5.916   0.780   4.130  2.0072  1.1120  0.1059
14432SOL     OW44511   6.944   0.356   4.584  0.1552 -0.2108 -0.0964
14432SOL    HW144512   6.930   0.268   4.549 -0.7189 -0.7144  1.4456
14432SOL    HW244513   6.918   0.350   4.676  1.4378  1.3043  0.4146
14433SOL     OW44514   7.370   1.307   3.733  0.0131  0.0961  0.3745
14433SOL    HW144515   7.324   1.379   3.689  0.1338 -0.4263 -0.6414
14433SOL    HW244516   7.365   1.328   3.826  0.2812  1.5489  0.0727
14434SOL     OW44517   6.541   0.781   5.024  0.7558 -0.2753  0.0955
14434SOL    HW144518   6.526   0.732   5.105  0.4553 -1.9665 -0.9336
14434SOL    HW244519   6.472   0.847   5.023 -0.2569 -1.2910  0.4517
14435SOL     OW44520   7.079   0.846   5.413  0.3111 -0.9738 -0.6745
14435SOL    HW144521   7.000   0.874   5.367  0.4618 -0.0859 -0.4142
14435SOL    HW244522   7.047   0.786   5.480 -0.2325 -0.1435 -0.1623
14436SOL     OW44523   6.437   1.216   5.132  0.0720 -0.2865  0.1213
14436SOL    HW144524   6.452   1.310   5.120 -2.1442  0.0521 -0.3177
14436SOL    HW244525   6.518   1.175   5.100  2.4142  1.5271  3.1847
14437SOL     OW44526   6.803   0.904   5.076  0.4168 -1.2763  0.1351
14437SOL    HW144527   6.853   0.900   4.995  0.0724 -0.8075 -0.1052
14437SOL    HW244528   6.727   0.847   5.060 -1.7533  1.7415 -1.3766
14438SOL     OW44529   6.221   0.686   4.285 -0.1789 -0.4948  0.1671
14438SOL    HW144530   6.129   0.684   4.256 -0.1787  1.2832 -0.0605
14438SOL    HW244531   6.238   0.597   4.314 -1.7564 -1.0583 -0.4828
14439SOL     OW44532   5.570   0.428   4.811  0.2020  0.1171  0.7665
14439SOL    HW144533   5.529   0.342   4.805  0.7202 -0.0710 -0.4509
14439SOL    HW244534   5.654   0.412   4.853  0.7227 -0.1588 -0.3290
14440SOL     OW44535   5.624   1.869   5.363 -0.0674  0.2735 -0.0296
14440SOL    HW144536   5.595   1.860   5.454  0.5083  1.9107  0.3453
14440SOL    HW244537   5.545   1.861   5.311 -0.5201  0.1721  0.6642
14441SOL     OW44538   6.472   0.224   4.142  0.2366  0.2604  0.2702
14441SOL    HW144539   6.552   0.175   4.122  0.1026 -1.5269  3.4555
14441SOL    HW244540   6.404   0.183   4.089  1.0681  0.6282 -1.1292
14442SOL     OW44541   7.420   0.672   5.373 -0.2593  0.1928  0.6906
14442SOL    HW144542   7.378   0.757   5.365  0.7845  0.5726 -1.0144
14442SOL    HW244543   7.385   0.621   5.300  3.6424  1.1930 -2.1708
14443SOL     OW44544   6.836   1.493   4.731 -0.1328  0.7027  0.2387
14443SOL    HW144545   6.768   1.469   4.668  0.4152  1.3122 -0.6020
14443SOL    HW244546   6.876   1.572   4.695  0.0734  1.1718  1.4516
14444SOL     OW44547   6.333   8.702   4.939  0.0054  0.0156  0.2770
14444SOL    HW144548   6.239   8.705   4.955  0.1353  1.1755  0.9922
14444SOL    HW244549   6.357   8.793   4.919  1.3426  0.2158  2.4826
14445SOL     OW44550   6.436   1.562   3.993  0.3660  0.4989  0.1439
14445SOL    HW144551   6.496   1.611   3.938 -0.6399  1.6474  0.0122
14445SOL    HW244552   6.393   1.500   3.934 -0.7958  1.8062 -0.4221
14446SOL     OW44553   5.633   1.659   4.583  0.1055  0.3551  0.7812
14446SOL    HW144554   5.687   1.583   4.565 -1.7877 -1.2659  1.6252
14446SOL    HW244555   5.620   1.657   4.678 -1.2767  0.7786  0.6251
14447SOL     OW44556   7.161   0.982   4.560 -0.4324  0.6325 -0.4895
14447SOL    HW144557   7.147   1.050   4.626 -0.0827  1.9451 -1.7066
14447SOL    HW244558   7.142   0.900   4.605  0.3087  1.4365  1.3637
14448SOL     OW44559   6.968   1.872   5.247 -0.0160  0.3821 -0.1766
14448SOL    HW144560   6.919   1.929   5.306  2.8773  1.1335  1.6998
14448SOL    HW244561   7.027   1.932   5.200 -0.1415 -0.5786 -1.6344
14449SOL     OW44562   5.730   0.936   4.300 -0.2334  0.3710  0.4406
14449SOL    HW144563   5.756   0.855   4.343  1.4446  0.1833 -0.8339
14449SOL    HW244564   5.772   0.932   4.214 -0.8940  2.1600 -0.0006
14450SOL     OW44565   6.788   1.081   4.648 -0.2216  0.1034 -0.3058
14450SOL    HW144566   6.841   1.154   4.615  1.3245 -0.1760  1.4161
14450SOL    HW244567   6.712   1.123   4.688  0.3585  0.7521  0.1448
14451SOL     OW44568   5.941   1.221   5.356  0.0906 -0.1263  0.1449
14451SOL    HW144569   6.021   1.191   5.313  0.6786  1.8939 -0.3109
14451SOL    HW244570   5.870   1.176   5.310  0.8446  0.1450 -1.3398
14452SOL     OW44571   6.577   1.925   4.067  0.8396 -0.1114 -0.2339
14452SOL    HW144572   6.544   1.856   4.009 -0.2578  0.1913  0.0092
14452SOL    HW244573   6.531   2.004   4.039  0.5241  0.0984  0.8481
14453SOL     OW44574   5.938   0.658   5.199  0.2450 -0.1977 -0.0845
14453SOL    HW144575   5.953   0.646   5.293 -1.1940 -1.1366  0.0458
14453SOL    HW244576   5.849   0.629   5.185 -0.7238  2.9165 -1.2343
14454SOL     OW44577   6.988   1.332   4.218  0.3548  0.3309 -0.2083
14454SOL    HW144578   7.053   1.314   4.150  0.5102 -0.6090  0.1718
14454SOL    HW244579   6.909   1.357   4.171 -0.7813 -4.0290 -1.0224
14455SOL     OW44580   5.787   1.665   3.801 -0.4251  0.1237  0.6477
14455SOL    HW144581   5.754   1.746   3.762  0.7453  0.9477  1.2855
14455SOL    HW244582   5.765   1.671   3.894  1.4241  0.7231  1.1043
14456SOL     OW44583   7.199   0.534   3.807 -0.2329  0.1180 -0.6273
14456SOL    HW144584   7.187   0.472   3.879 -0.0188  2.2507  1.3495
14456SOL    HW244585   7.129   0.598   3.818  0.6647  1.2887 -1.4378
14457SOL     OW44586   5.378   1.952   4.839  0.3992 -0.2119 -0.3418
14457SOL    HW144587   5.297   1.996   4.810 -0.0969 -0.1859  0.9788
14457SOL    HW244588   5.404   2.001   4.918  0.4180 -1.6267  0.5606
14458SOL     OW44589   6.262   1.889   4.717  0.1550 -0.5404 -0.2923
14458SOL    HW144590   6.237   1.807   4.673  0.5982 -0.4997 -0.6330
14458SOL    HW244591   6.316   1.935   4.652  1.4599 -0.8178  0.5588
14459SOL     OW44592   6.017   0.461   4.346  0.0577  0.5322  0.2009
14459SOL    HW144593   5.994   0.368   4.349  0.3413  0.4211 -0.7218
14459SOL    HW244594   5.986   0.491   4.261  0.9980  0.9990  0.0092
14460SOL     OW44595   6.819   0.551   5.358 -0.3790 -0.3822 -0.0261
14460SOL    HW144596   6.896   0.539   5.414 -0.6480  1.1361  0.7218
14460SOL    HW244597   6.786   0.462   5.343  1.2885 -1.0218 -0.0519
14461SOL     OW44598   6.305   0.101   3.963 -0.6757 -0.1714  0.1935
14461SOL    HW144599   6.307   0.033   4.030  0.3886 -1.1288 -0.7683
14461SOL    HW244600   6.316   0.054   3.880 -2.5655  0.9020 -0.7430
14462SOL     OW44601   6.700   0.474   5.819  0.2422 -0.8088 -0.1050
14462SOL    HW144602   6.639   0.406   5.846 -0.2293 -0.6819 -0.8346
14462SOL    HW244603   6.646   0.539   5.774  0.5857  0.3100  1.0029
14463SOL     OW44604   6.316   1.529   4.841 -0.5078 -0.3973  0.3352
14463SOL    HW144605   6.304   1.455   4.781 -3.6635  0.9654 -0.9072
14463SOL    HW244606   6.271   1.503   4.921 -1.1327 -0.0800  0.0952
14464SOL     OW44607   7.098   0.578   4.999  0.7498  0.1011 -0.2769
14464SOL    HW144608   7.006   0.576   5.027  0.8723 -0.0157  0.1347
14464SOL    HW244609   7.121   0.671   4.998 -0.0194  0.3357 -2.6167
14465SOL     OW44610   6.291   1.339   4.651 -0.0971 -0.0473  0.3189
14465SOL    HW144611   6.368   1.298   4.610 -0.9796  0.7412 -2.3300
14465SOL    HW244612   6.228   1.268   4.660  0.0534 -0.1996  0.1809
14466SOL     OW44613   6.367   0.358   4.746 -0.0379  0.4654  0.0583
14466SOL    HW144614   6.419   0.302   4.688 -2.0495 -1.1356 -0.3210
14466SOL    HW244615   6.302   0.398   4.689  0.4258  2.0283  0.5945
14467SOL     OW44616   6.617   8.655   4.103 -0.2127 -0.1799  0.5572
14467SOL    HW144617   6.648   8.745   4.113  0.0896  0.2603 -2.9333
14467SOL    HW244618   6.692   8.601   4.129  0.6788  0.6822 -0.1644
14468SOL     OW44619   6.771   1.421   4.102  0.4865 -0.2081  0.1123
14468SOL    HW144620   6.760   1.341   4.051  0.2646 -0.1818  0.1178
14468SOL    HW244621   6.699   1.419   4.166  0.5097 -0.0310  0.1454
14469SOL     OW44622   5.629   8.851   4.108 -0.5319  0.1043 -0.4784
14469SOL    HW144623   5.572   8.774   4.106  0.3957 -0.6868  1.2972
14469SOL    HW244624   5.607   8.896   4.189 -0.3340  1.1644 -0.9884
14470SOL     OW44625   6.591   0.252   4.620  0.5081  0.3098  0.3644
14470SOL    HW144626   6.668   0.226   4.671  1.2027 -0.9531 -1.2250
14470SOL    HW244627   6.627   0.304   4.548 -0.3720  1.3705  0.6564
14471SOL     OW44628   6.899   0.889   4.822 -0.0769  0.2105  0.0221
14471SOL    HW144629   6.903   0.798   4.792 -1.6098 -0.2338  1.0593
14471SOL    HW244630   6.874   0.938   4.744  2.9126  0.1276 -1.1171
14472SOL     OW44631   6.437   1.674   4.487 -0.4896 -0.2312  0.0389
14472SOL    HW144632   6.412   1.680   4.395 -0.6115 -0.8347  0.0283
14472SOL    HW244633   6.355   1.659   4.533 -0.5623  1.0717  0.3615
14473SOL     OW44634   5.943   0.895   4.741 -0.0685 -0.0939  0.2218
14473SOL    HW144635   5.887   0.909   4.817 -0.2231  3.7541 -0.4176
14473SOL    HW244636   5.892   0.929   4.667  0.9213 -1.7954 -1.3362
14474SOL     OW44637   6.337   1.691   4.212 -0.2087  0.6081  0.6812
14474SOL    HW144638   6.380   1.637   4.146  0.2050 -0.8946  2.1143
14474SOL    HW244639   6.265   1.734   4.165 -1.0177 -1.7635 -0.3979
14475SOL     OW44640   6.713   0.269   3.678 -0.4017  0.3032  0.6257
14475SOL    HW144641   6.689   0.283   3.769  1.9508  1.5643  1.1072
14475SOL    HW244642   6.808   0.267   3.677 -0.3366  0.8013 -1.8815
14476SOL     OW44643   5.365   0.309   5.679  0.1108 -0.7004 -0.0152
14476SOL    HW144644   5.385   0.215   5.680  1.9632 -0.3385  0.5685
14476SOL    HW244645   5.284   0.317   5.729  0.0079 -1.9695  0.0518
14477SOL     OW44646   6.341   0.738   5.274  1.0206 -0.2401 -0.5209
14477SOL    HW144647   6.279   0.761   5.205  0.4316  0.1362  0.1212
14477SOL    HW244648   6.286   0.717   5.349  1.6703  0.6789  0.2336
14478SOL     OW44649   6.711   0.427   4.381  0.5186  0.4302  0.1515
14478SOL    HW144650   6.732   0.515   4.411  1.3822  1.1792 -2.4415
14478SOL    HW244651   6.619   0.432   4.356 -0.0365 -0.0394  1.9361
14479SOL     OW44652   6.562   8.558   4.848 -0.2909  0.1331 -0.1687
14479SOL    HW144653   6.481   8.604   4.873  1.2839  2.3902  1.1366
14479SOL    HW244654   6.579   8.587   4.758 -1.0515 -0.5741 -0.5524
14480SOL     OW44655   6.864   1.285   4.899  0.1558  0.0475  0.5954
14480SOL    HW144656   6.936   1.224   4.887 -1.5879 -1.8734 -0.7758
14480SOL    HW244657   6.878   1.353   4.833  1.2638  0.3227  1.0925
14481SOL     OW44658   7.371   0.667   4.378  0.2258 -0.2363  0.8627
14481SOL    HW144659   7.386   0.659   4.472 -0.8245  0.8980  1.1439
14481SOL    HW244660   7.295   0.612   4.361 -0.0928  0.2187  0.8201
14482SOL     OW44661   7.812   0.958   3.872 -0.3669 -0.1261  0.1355
14482SOL    HW144662   7.741   0.993   3.818  1.5858  2.8106 -0.7416
14482SOL    HW244663   7.801   1.001   3.957 -0.1902 -0.4435  0.3248
14483SOL     OW44664   6.068   1.076   4.048 -0.1417  0.5890 -0.2698
14483SOL    HW144665   6.005   1.042   3.984  0.3194 -0.3646 -0.2325
14483SOL    HW244666   6.013   1.112   4.117 -0.6482  0.7814 -0.7605
14484SOL     OW44667   7.557   1.143   4.108 -0.0185  0.2602  0.0469
14484SOL    HW144668   7.486   1.203   4.130  0.1118 -0.3388  2.2833
14484SOL    HW244669   7.539   1.117   4.017 -2.5424  0.2935  0.4672
14485SOL     OW44670   6.958   0.346   3.725 -0.1741 -0.0263  0.0480
14485SOL    HW144671   6.988   0.311   3.809 -0.4236  0.6765  0.4388
14485SOL    HW244672   7.037   0.357   3.673  0.2323  1.4330  0.9211
14486SOL     OW44673   5.951   0.154   4.399 -0.3878 -0.3826 -0.1795
14486SOL    HW144674   5.915   0.154   4.310  0.3829  0.2324 -0.5030
14486SOL    HW244675   5.884   0.198   4.451 -0.1844  0.6474 -0.7538
14487SOL     OW44676   7.438   1.204   5.219 -0.3829  0.3281  0.2343
14487SOL    HW144677   7.497   1.279   5.229 -1.2223  1.3017 -1.7286
14487SOL    HW244678   7.453   1.152   5.298  0.8394  2.1212  1.2582
14488SOL     OW44679   6.561   1.494   5.102 -0.4511 -0.1136 -0.0901
14488SOL    HW144680   6.580   1.467   5.192 -0.6735  0.5804  0.1708
14488SOL    HW244681   6.629   1.559   5.082 -1.1470  0.6812  0.0402
14489SOL     OW44682   7.188   1.584   5.522 -0.1366 -0.3379 -0.2738
14489SOL    HW144683   7.188   1.619   5.433  0.5266  0.7785  0.1434
14489SOL    HW244684   7.258   1.519   5.523 -1.4736 -1.8311 -1.0997
14490SOL     OW44685   6.637   1.811   4.639  0.4875  0.5638  0.1488
14490SOL    HW144686   6.600   1.784   4.723 -0.1187 -0.6576 -0.4791
14490SOL    HW244687   6.580   1.771   4.574  0.2761  2.4171 -0.8745
14491SOL     OW44688   7.076   1.096   4.852 -0.2920  0.1271  0.0117
14491SOL    HW144689   7.035   1.018   4.889  1.9313 -1.3490 -0.5085
14491SOL    HW244690   7.146   1.118   4.913  0.5825  0.3056 -1.0299
14492SOL     OW44691   6.722   0.663   4.832  0.0641 -0.0882  0.0288
14492SOL    HW144692   6.767   0.667   4.917 -1.0447  1.4456  0.5844
14492SOL    HW244693   6.629   0.670   4.854 -0.1982  1.1299 -1.3372
14493SOL     OW44694   6.636   1.267   5.589 -0.3853 -0.1712 -0.2875
14493SOL    HW144695   6.726   1.299   5.591 -0.4341 -0.0368 -0.2986
14493SOL    HW244696   6.643   1.175   5.617 -0.2748 -0.0911 -0.0522
14494SOL     OW44697   6.263   0.759   4.556 -0.5606  0.0206 -0.1269
14494SOL    HW144698   6.267   0.740   4.463  0.0066 -2.3650  0.3256
14494SOL    HW244699   6.334   0.822   4.571 -1.3127  1.2363 -1.4226
14495SOL     OW44700   6.091   0.909   5.212 -0.2322 -0.0435 -0.0100
14495SOL    HW144701   6.047   0.833   5.174 -0.6243  0.1431  0.0652
14495SOL    HW244702   6.056   0.915   5.301  1.1961 -0.8988  0.6518
14496SOL     OW44703   7.195   0.395   4.760  0.3793  0.2894 -0.1801
14496SOL    HW144704   7.156   0.430   4.841  1.2628  0.4943  0.1693
14496SOL    HW244705   7.122   0.392   4.698 -0.2815  0.2783  0.5750
14497SOL     OW44706   5.574   2.035   5.021 -0.3758  0.4108 -0.8057
14497SOL    HW144707   5.502   2.037   5.084 -0.2701  0.6515 -0.6929
14497SOL    HW244708   5.646   2.080   5.065  0.5618 -1.7318 -0.0285
14498SOL     OW44709   5.808   1.061   4.574  0.2772  0.0049  0.0585
14498SOL    HW144710   5.741   1.055   4.506 -0.0432  1.1554  0.2574
14498SOL    HW244711   5.760   1.088   4.652  1.1493  2.3330 -0.1359
14499SOL     OW44712   6.175   0.473   4.566  0.4803 -0.0279  0.3870
14499SOL    HW144713   6.126   0.475   4.484  0.1582 -2.3100  0.4806
14499SOL    HW244714   6.215   0.560   4.571  0.4573  0.2085 -2.1293
14500SOL     OW44715   6.608   1.449   4.528  0.1931  0.4596 -0.1094
14500SOL    HW144716   6.556   1.529   4.526  0.3232  0.5456 -0.0576
14500SOL    HW244717   6.604   1.415   4.439 -1.2322 -0.3598  0.2327
14501SOL     OW44718   6.887   1.833   4.867 -0.0431 -0.1245 -0.4675
14501SOL    HW144719   6.940   1.755   4.885 -0.0655 -0.1610 -0.5579
14501SOL    HW244720   6.936   1.880   4.799 -0.6579 -0.7031 -1.3233
14502SOL     OW44721   7.235   0.929   4.301  0.1770  0.3805  0.3246
14502SOL    HW144722   7.308   0.869   4.318 -1.0262 -1.1132  0.3707
14502SOL    HW244723   7.191   0.937   4.386 -0.0207  0.8787  0.1775
14503SOL     OW44724   5.769   1.459   5.132 -0.0847 -0.2692 -0.9019
14503SOL    HW144725   5.796   1.463   5.224 -0.4830 -2.1131 -0.6712
14503SOL    HW244726   5.850   1.476   5.083  0.2046  0.3659 -0.2230
14504SOL     OW44727   6.242   1.028   5.554 -0.1275  0.7100  0.5716
14504SOL    HW144728   6.308   1.065   5.613  1.5770 -1.2885  0.0574
14504SOL    HW244729   6.240   1.089   5.480  2.0813  0.2511  0.0576
14505SOL     OW44730   7.284   0.878   5.255  0.3098 -0.2146 -0.0222
14505SOL    HW144731   7.214   0.872   5.319  0.5793 -0.0793  0.2911
14505SOL    HW244732   7.241   0.868   5.170 -0.3806  1.7655  0.0416
14506SOL     OW44733   7.030   8.799   5.684 -0.0018  0.5017  0.2548
14506SOL    HW144734   6.939   8.780   5.709  0.2604 -0.7546  0.2915
14506SOL    HW244735   7.033   8.785   5.590  0.0317  1.0814  0.1656
14507SOL     OW44736   5.896   0.229   5.106 -0.4083 -0.9035  0.0278
14507SOL    HW144737   5.904   0.143   5.147  0.1184 -0.3190  1.2162
14507SOL    HW244738   5.920   0.291   5.176  2.2051  0.0994 -1.6179
14508SOL     OW44739   6.351   0.965   5.029 -0.6794 -0.6980 -0.6228
14508SOL    HW144740   6.360   1.059   5.047  2.0535 -0.7292 -1.4658
14508SOL    HW244741   6.260   0.945   5.052 -1.5851  2.3123 -1.1607
14509SOL     OW44742   6.589   1.246   4.717 -0.0825  0.1932  0.4166
14509SOL    HW144743   6.610   1.317   4.656  3.2477 -0.8574  0.1719
14509SOL    HW244744   6.642   1.264   4.794  0.4989 -1.7893  0.5204
14510SOL     OW44745   6.638   0.374   3.948  0.1298  0.1565  0.7192
14510SOL    HW144746   6.661   0.461   3.980 -0.7722  0.4771  0.5332
14510SOL    HW244747   6.552   0.356   3.985 -0.6473  0.2600 -0.9349
14511SOL     OW44748   6.039   8.772   4.535  0.4327  0.2138  0.0101
14511SOL    HW144749   6.011   8.844   4.478  0.5103 -0.2823 -0.6623
14511SOL    HW244750   6.097   8.813   4.599 -0.1481  0.8856  0.1165
14512SOL     OW44751   5.467   1.569   5.540  0.0861 -0.7377  0.2329
14512SOL    HW144752   5.520   1.629   5.593  1.4567 -1.6859 -0.0275
14512SOL    HW244753   5.503   1.576   5.452 -0.1830 -1.4651  0.0633
14513SOL     OW44754   6.120   0.683   4.779  1.1027 -0.4233 -0.3512
14513SOL    HW144755   6.048   0.745   4.767  0.8622 -0.4266  0.9797
14513SOL    HW244756   6.192   0.719   4.726  1.0902  1.1863  0.6710
14514SOL     OW44757   7.443   1.027   5.424  0.5436 -0.1136 -0.4607
14514SOL    HW144758   7.424   0.978   5.344  1.6049 -0.8409 -0.2890
14514SOL    HW244759   7.405   0.974   5.494 -0.6423  0.6690 -0.4873
14515SOL     OW44760   5.698   8.840   4.641 -0.7684 -0.0781 -0.0111
14515SOL    HW144761   5.753   8.801   4.709 -2.3706 -2.3387  0.0961
14515SOL    HW244762   5.740   8.924   4.621  1.3027 -0.6109  1.7589
14516SOL     OW44763   7.148   0.800   4.080 -0.1211  0.2797 -0.0468
14516SOL    HW144764   7.221   0.819   4.021  0.8680 -0.1642  0.9998
14516SOL    HW244765   7.165   0.853   4.158 -0.7136 -0.1102  0.3612
14517SOL     OW44766   6.923   0.610   4.634 -0.1193  0.0239 -0.1071
14517SOL    HW144767   6.939   0.517   4.620 -0.4486  0.0305 -0.5423
14517SOL    HW244768   6.831   0.615   4.659 -0.1282  0.2418 -0.1824
14518SOL     OW44769   6.718   1.745   5.097  0.1119 -0.5273  0.1207
14518SOL    HW144770   6.711   1.757   5.003 -0.6042 -3.2189 -0.2391
14518SOL    HW244771   6.811   1.726   5.112 -0.2025 -2.6988 -0.4533
14519SOL     OW44772   6.923   1.381   5.728 -0.4773  0.2236  0.8571
14519SOL    HW144773   6.897   1.297   5.768  0.2875 -0.8288 -0.7383
14519SOL    HW244774   6.981   1.356   5.657 -0.2182  2.1484  0.3480
14520SOL     OW44775   5.834   1.166   5.771  0.1089  0.1394 -0.1151
14520SOL    HW144776   5.896   1.104   5.810  1.9996  1.1504 -1.3561
14520SOL    HW244777   5.814   1.228   5.841  0.3602 -0.2973  0.3463
14521SOL     OW44778   7.072   0.368   3.992  0.2735 -1.1932 -0.0861
14521SOL    HW144779   7.106   0.351   4.080 -0.2488 -0.5908  0.2384
14521SOL    HW244780   6.985   0.406   4.006  0.4019 -0.5846 -0.8414
14522SOL     OW44781   6.695   0.769   3.856  0.3517 -0.2804  0.4139
14522SOL    HW144782   6.631   0.730   3.796 -0.9165 -1.8808  2.6297
14522SOL    HW244783   6.780   0.746   3.819 -0.2571  1.6740 -2.4699
14523SOL     OW44784   6.176   1.472   4.241  0.0701  0.5911 -0.0982
14523SOL    HW144785   6.110   1.487   4.173 -0.6316  1.5296  0.7628
14523SOL    HW244786   6.232   1.550   4.237 -0.0932  0.7431  0.5159
14524SOL     OW44787   5.646   0.595   5.149 -0.4896 -0.4335  0.3297
14524SOL    HW144788   5.585   0.639   5.089 -0.0781 -0.3603 -0.0408
14524SOL    HW244789   5.634   0.502   5.131 -0.4358 -0.4156  0.1972
14525SOL     OW44790   6.148   0.566   5.038 -0.1106  0.1938 -0.1597
14525SOL    HW144791   6.087   0.598   5.105  0.2780 -1.2292  0.9326
14525SOL    HW244792   6.116   0.604   4.956  0.8201  4.0197  1.0709
14526SOL     OW44793   6.811   0.925   5.325  0.0167  0.3424  0.4174
14526SOL    HW144794   6.723   0.890   5.336 -0.3855  1.1831 -0.0310
14526SOL    HW244795   6.825   0.926   5.231  1.2803 -1.6117  0.5373
14527SOL     OW44796   6.836   0.595   5.077  0.6378  0.3187 -0.2263
14527SOL    HW144797   6.802   0.505   5.071 -0.0043  0.6208 -1.5226
14527SOL    HW244798   6.846   0.610   5.171 -1.6241 -0.2735  0.1806
14528SOL     OW44799   5.620   1.309   3.747 -0.4088 -0.0907 -0.6344
14528SOL    HW144800   5.664   1.371   3.690 -0.8792  0.0329 -0.8708
14528SOL    HW244801   5.547   1.359   3.784  0.7383  0.2976  1.2618
14529SOL     OW44802   5.619   1.738   4.862  0.3482  0.5195 -0.4590
14529SOL    HW144803   5.660   1.716   4.946  1.9412  0.7415 -1.1477
14529SOL    HW244804   5.577   1.822   4.878  1.5229  1.0674 -0.1412
14530SOL     OW44805   6.031   1.497   4.460  0.3596 -0.2098  0.0614
14530SOL    HW144806   6.081   1.461   4.387 -0.6664  0.4292 -0.9931
14530SOL    HW244807   6.000   1.582   4.428 -1.4482 -0.6084  0.6373
14531SOL     OW44808   6.646   1.106   4.987 -0.0406 -0.0440  0.1165
14531SOL    HW144809   6.707   1.180   4.979 -0.0481 -0.0683 -0.1621
14531SOL    HW244810   6.697   1.037   5.027 -0.1428  0.2446  0.7550
14532SOL     OW44811   5.512   0.951   5.147  0.2380  0.0312 -0.1630
14532SOL    HW144812   5.429   0.997   5.133  0.0856  0.0679  0.7626
14532SOL    HW244813   5.519   0.890   5.074  0.0795  0.9941 -1.0074
14533SOL     OW44814   5.963   0.911   5.462 -0.1768  0.1304 -0.7243
14533SOL    HW144815   5.875   0.934   5.490 -0.4433 -1.7776  0.1469
14533SOL    HW244816   6.020   0.970   5.511 -0.8582 -0.3669  0.7290
14534SOL     OW44817   7.367   1.387   5.492 -0.4548 -0.2408  0.1244
14534SOL    HW144818   7.450   1.382   5.446 -0.8379  1.0720 -0.7924
14534SOL    HW244819   7.383   1.347   5.577  0.4941 -1.9889 -0.8398
14535SOL     OW44820   6.380   0.431   4.335  0.5460 -0.5937  0.0352
14535SOL    HW144821   6.421   0.383   4.263  1.6422 -0.6390  0.6711
14535SOL    HW244822   6.372   0.367   4.406 -1.3486 -0.8014 -0.2930
14536SOL     OW44823   7.371   0.590   4.667 -0.5208  0.2241 -0.1317
14536SOL    HW144824   7.307   0.520   4.660  0.5161 -0.8601  0.7136
14536SOL    HW244825   7.438   0.555   4.726  1.2471  0.9948 -1.5684
14537SOL     OW44826   6.336   1.739   5.434  0.5385  0.3325 -0.2715
14537SOL    HW144827   6.269   1.782   5.380  1.5904 -0.3303 -2.1828
14537SOL    HW244828   6.416   1.744   5.382  1.5728 -0.4966  1.1770
14538SOL     OW44829   6.566   0.807   4.623  0.1968  0.1034  0.5320
14538SOL    HW144830   6.506   0.838   4.691 -0.3038  0.4758 -0.0583
14538SOL    HW244831   6.637   0.764   4.670  0.0088  0.6136  1.2992
14539SOL     OW44832   6.488   1.752   4.838 -0.2774 -0.0704  0.3496
14539SOL    HW144833   6.435   1.672   4.837 -1.4102  0.6302 -1.9395
14539SOL    HW244834   6.425   1.822   4.856 -0.1588  0.7363 -2.0446
14540SOL     OW44835   5.971   8.837   3.735 -0.1174  0.2590 -0.0946
14540SOL    HW144836   5.926   8.920   3.754  0.8015  0.3111  2.1648
14540SOL    HW244837   5.905   8.770   3.753 -0.3459  0.4398 -0.2425
14541SOL     OW44838   5.581   1.809   5.621  0.1055  0.3192  0.1432
14541SOL    HW144839   5.669   1.799   5.657 -0.0345  0.3145  0.4922
14541SOL    HW244840   5.540   1.874   5.678  0.8002  2.5084 -1.6880
14542SOL     OW44841   6.963   1.570   4.986 -0.7680 -0.2267  0.3878
14542SOL    HW144842   6.923   1.536   4.906  0.3354 -0.8162  0.0777
14542SOL    HW244843   7.035   1.510   5.005  0.2582  1.0553  0.6854
14543SOL     OW44844   6.991   0.702   3.860  0.0037  0.2735 -0.3732
14543SOL    HW144845   7.053   0.748   3.916 -1.8341  1.1070  1.0925
14543SOL    HW244846   6.990   0.752   3.779 -0.2406  1.4738  0.3440
14544SOL     OW44847   7.455   1.751   4.917  0.1641  0.5042 -0.1092
14544SOL    HW144848   7.461   1.721   5.007  3.5370 -1.2600 -0.7669
14544SOL    HW244849   7.374   1.711   4.884 -0.4295  0.0900  1.7419
14545SOL     OW44850   7.167   1.908   4.751 -0.2374 -0.6158 -0.4100
14545SOL    HW144851   7.180   1.987   4.804 -3.1958 -0.8585  0.8643
14545SOL    HW244852   7.182   1.936   4.661  0.3351  0.9764  0.1472
14546SOL     OW44853   5.374   1.351   5.326 -0.0326  0.4206 -0.6132
14546SOL    HW144854   5.279   1.356   5.309  0.2788  0.3484 -2.7624
14546SOL    HW244855   5.409   1.310   5.247  1.8575  0.8839 -0.0526
14547SOL     OW44856   6.464   1.811   5.190  0.1830  0.6206 -0.2239
14547SOL    HW144857   6.394   1.828   5.126 -1.1648 -1.6376  0.5146
14547SOL    HW244858   6.543   1.799   5.137 -0.3878  1.2681 -1.2598
14548SOL     OW44859   7.485   0.319   3.674  0.0414  0.4489  0.0946
14548SOL    HW144860   7.479   0.319   3.578  2.3773  0.0040 -0.1156
14548SOL    HW244861   7.501   0.410   3.697 -1.8220  0.7721  0.2071
14549SOL     OW44862   6.997   1.887   4.423  0.0127  0.0149 -0.2828
14549SOL    HW144863   6.961   1.952   4.484 -0.5958  0.5057 -1.1571
14549SOL    HW244864   6.937   1.887   4.349  0.3286 -1.1317 -0.5612
14550SOL     OW44865   5.248   1.938   5.477 -0.2074  0.0894 -0.2425
14550SOL    HW144866   5.323   1.986   5.514  2.3137 -0.7190 -3.7667
14550SOL    HW244867   5.171   1.982   5.514  1.9624  2.9116  1.3523
14551SOL     OW44868   6.858   0.895   4.409  0.2797  0.4048 -0.6386
14551SOL    HW144869   6.873   0.976   4.361  0.7195  1.4342  1.1264
14551SOL    HW244870   6.802   0.921   4.482 -0.3636 -1.0824 -0.5781
14552SOL     OW44871   6.278   1.460   5.130 -0.1145  0.0190  0.1494
14552SOL    HW144872   6.296   1.366   5.133  1.4793  0.2549 -0.7520
14552SOL    HW244873   6.364   1.501   5.126 -0.7981  1.4453 -0.9888
14553SOL     OW44874   6.580   1.741   3.849  0.2387 -0.5675  0.1192
14553SOL    HW144875   6.560   1.756   3.757 -0.3183  0.0872  0.3326
14553SOL    HW244876   6.672   1.715   3.851  0.2072 -0.7341 -0.6319
14554SOL     OW44877   7.088   1.626   5.266 -0.1466  0.3236  0.6014
14554SOL    HW144878   7.027   1.699   5.281 -2.3096 -0.7112 -2.1104
14554SOL    HW244879   7.099   1.624   5.171  1.2449 -1.8225  0.7430
14555SOL     OW44880   7.295   0.024   4.624  0.6427 -0.3833  0.0151
14555SOL    HW144881   7.226  -0.020   4.576 -0.1703 -0.5854  1.3304
14555SOL    HW244882   7.368   0.028   4.562 -0.9282  0.9950 -1.8591
14556SOL     OW44883   5.768   0.258   4.588 -0.5382 -0.2338 -0.1085
14556SOL    HW144884   5.676   0.280   4.573 -0.2297  1.4168  0.2309
14556SOL    HW244885   5.812   0.343   4.592  1.5374 -0.9650 -3.3903
14557SOL     OW44886   6.803   1.585   3.885  0.0160 -0.0769  0.3028
14557SOL    HW144887   6.897   1.585   3.865  0.0615 -0.4731  0.5006
14557SOL    HW244888   6.795   1.528   3.962 -0.4578 -0.5131 -0.0601
14558SOL     OW44889   6.358   1.332   5.593 -0.7712  0.2076  0.1784
14558SOL    HW144890   6.340   1.254   5.645 -0.5671  0.4774  0.6536
14558SOL    HW244891   6.453   1.338   5.590 -0.7811  1.1220  1.1834
14559SOL     OW44892   6.466   1.188   4.443  0.4032  0.3195  0.2235
14559SOL    HW144893   6.478   1.121   4.376  2.2870 -0.8223  1.6006
14559SOL    HW244894   6.530   1.166   4.511  0.4841  3.0094  1.1567
14560SOL     OW44895   7.509   1.393   4.343 -0.1113  0.0405  0.2765
14560SOL    HW144896   7.419   1.362   4.332 -0.3446  0.7275  0.1623
14560SOL    HW244897   7.520   1.402   4.438 -0.0420 -0.3755  0.3107
14561SOL     OW44898   5.884   1.607   5.343 -0.7209  0.2396  0.3742
14561SOL    HW144899   5.953   1.563   5.393 -1.1265  0.0796  0.7922
14561SOL    HW244900   5.824   1.641   5.409 -0.0924  1.9837  0.0978
14562SOL     OW44901   7.217   1.200   5.074 -0.6250  0.0850  0.0766
14562SOL    HW144902   7.296   1.184   5.125 -0.0604 -0.3997 -0.9223
14562SOL    HW244903   7.152   1.230   5.138  0.1130 -0.3348  1.0362
14563SOL     OW44904   6.174   1.225   4.366 -0.4194 -0.1682  0.5862
14563SOL    HW144905   6.251   1.216   4.422 -1.5384 -1.1378  2.0686
14563SOL    HW244906   6.181   1.313   4.328  0.4807  0.4846  2.1640
14564SOL     OW44907   6.872   0.343   4.845  0.0669  0.3856  0.3633
14564SOL    HW144908   6.797   0.373   4.895  0.9068 -0.5126  2.2306
14564SOL    HW244909   6.916   0.280   4.902  1.8605  0.3860 -0.9418
14565SOL     OW44910   5.994   1.528   4.049 -0.0331  0.0760  0.0812
14565SOL    HW144911   5.988   1.461   3.980 -1.3247  0.7272 -0.4709
14565SOL    HW244912   5.903   1.558   4.061  0.4012  1.0881  0.9526
14566SOL     OW44913   7.621   0.317   5.009 -0.6830 -0.2620 -0.3062
14566SOL    HW144914   7.716   0.318   5.024 -0.6650  0.3258 -0.4120
14566SOL    HW244915   7.607   0.249   4.944 -0.1289  0.7420 -1.5206
14567SOL     OW44916   5.840   1.225   4.115 -1.0564 -0.3978  0.4891
14567SOL    HW144917   5.779   1.299   4.114  0.9811  1.4030  0.1058
14567SOL    HW244918   5.863   1.214   4.207 -1.0810 -0.3072  0.5065
14568SOL     OW44919   5.666   1.067   5.593 -0.7467 -0.3717 -0.5371
14568SOL    HW144920   5.698   1.127   5.526  0.6782 -0.8907 -0.3689
14568SOL    HW244921   5.717   1.089   5.671  0.0253 -1.9467 -0.5471
14569SOL     OW44922   6.497   0.552   5.561  0.1736  0.2570  0.0105
14569SOL    HW144923   6.516   0.482   5.499 -1.1458  0.0125 -0.1497
14569SOL    HW244924   6.402   0.550   5.572  0.2831  0.8781  1.3571
14570SOL     OW44925   5.251   0.078   3.676 -0.0851  0.1556  0.3062
14570SOL    HW144926   5.166   0.122   3.677 -0.1326  0.0714  1.4235
14570SOL    HW244927   5.301   0.123   3.608 -0.9623  0.3182 -0.2419
14571SOL     OW44928   7.115   1.248   5.536 -0.3934 -0.5920  0.0098
14571SOL    HW144929   7.194   1.280   5.579 -0.9125  0.0295  0.5226
14571SOL    HW244930   7.140   1.236   5.444  0.8112 -2.2255  0.5236
14572SOL     OW44931   5.334   8.760   4.105 -0.3242 -0.1006 -0.2379
14572SOL    HW144932   5.346   8.780   4.198  0.0065  1.3041 -0.5639
14572SOL    HW244933   5.271   8.688   4.104 -0.4764 -0.0049  1.0592
14573SOL     OW44934   6.781   0.901   4.105 -0.7207 -0.2784  0.0636
14573SOL    HW144935   6.699   0.944   4.130 -1.7007 -2.8531  1.7482
14573SOL    HW244936   6.755   0.838   4.038 -0.1372 -1.0532  0.5528
14574SOL     OW44937   6.611   0.866   5.923 -0.0767  0.1561  0.1937
14574SOL    HW144938   6.638   0.956   5.937  0.4414 -0.1349  1.1726
14574SOL    HW244939   6.620   0.852   5.829  0.0646  1.0464  0.0665
14575SOL     OW44940   6.844   2.020   4.613  0.2250  0.1569 -0.8760
14575SOL    HW144941   6.775   1.955   4.604  0.2106 -0.2586  1.5086
14575SOL    HW244942   6.805   2.089   4.667  0.7166  1.4729 -2.1215
14576SOL     OW44943   6.280   0.488   5.761 -0.4095 -0.1824  0.3282
14576SOL    HW144944   6.328   0.517   5.838 -0.6688 -0.0049  0.4231
14576SOL    HW244945   6.332   0.416   5.725 -0.9976 -1.2187  1.4703
14577SOL     OW44946   6.904   1.441   5.419 -0.5563 -0.0797  0.1314
14577SOL    HW144947   6.978   1.496   5.393 -0.7345 -0.1901 -0.6550
14577SOL    HW244948   6.852   1.496   5.478  0.1393  0.0016  0.6788
14578SOL     OW44949   5.796   1.769   5.149 -0.2760 -0.6034  0.2118
14578SOL    HW144950   5.732   1.808   5.210  0.8139  0.0448  0.9897
14578SOL    HW244951   5.822   1.687   5.191  0.3156 -0.2603  0.5363
14579SOL     OW44952   7.142   0.761   4.678  0.2107  0.6215 -0.0289
14579SOL    HW144953   7.221   0.708   4.672  1.0461  1.9344 -0.8738
14579SOL    HW244954   7.070   0.699   4.666  0.9748 -0.9023  2.4546
14580SOL     OW44955   6.791   0.571   4.063 -0.2034  0.2353 -0.3244
14580SOL    HW144956   6.861   0.584   4.128  1.5024 -1.8357 -1.5902
14580SOL    HW244957   6.824   0.615   3.985 -0.0092 -1.2154 -1.0881
14581SOL     OW44958   5.876   0.527   4.644 -0.1653  0.2152  0.1684
14581SOL    HW144959   5.970   0.510   4.647  0.0039  1.1425  0.5551
14581SOL    HW244960   5.845   0.507   4.732  0.0679  1.9501  0.6837
14582SOL     OW44961   7.437   0.286   5.242  0.5004 -0.0834  0.4766
14582SOL    HW144962   7.503   0.315   5.179 -2.3304 -1.3561 -3.4847
14582SOL    HW244963   7.370   0.354   5.239 -0.2526 -0.7627  1.2395
14583SOL     OW44964   7.140   0.847   4.982  0.2410  0.2188 -0.2937
14583SOL    HW144965   7.222   0.895   4.969  0.8801 -1.1918 -1.8394
14583SOL    HW244966   7.112   0.824   4.893 -1.5512  0.1972  0.2419
14584SOL     OW44967   6.303   1.241   3.993  0.2829  0.3291 -0.3295
14584SOL    HW144968   6.260   1.291   3.923 -0.0120 -0.7206 -0.9211
14584SOL    HW244969   6.242   1.170   4.012 -0.3606  1.4412  2.0857
14585SOL     OW44970   6.193   1.659   4.621 -0.2398  0.0097 -0.1564
14585SOL    HW144971   6.136   1.595   4.577 -0.6163 -0.1050  0.4917
14585SOL    HW244972   6.206   1.624   4.708  0.0875  0.4954 -0.0070
14586SOL     OW44973   6.383   0.992   4.765 -0.0257 -0.6210 -0.6162
14586SOL    HW144974   6.383   0.960   4.855  0.1516 -2.3610 -1.2037
14586SOL    HW244975   6.457   1.052   4.760  0.0144 -0.5802  0.3691
14587SOL     OW44976   6.513   0.974   4.275 -0.2561 -0.0822 -0.1520
14587SOL    HW144977   6.526   0.887   4.313  0.1764 -0.9372 -2.1372
14587SOL    HW244978   6.442   0.961   4.212  0.2933  0.8258 -0.9749
14588SOL     OW44979   7.676   1.582   4.790 -0.1355 -0.1762 -0.5153
14588SOL    HW144980   7.628   1.641   4.846  1.1440  1.8768 -1.4682
14588SOL    HW244981   7.764   1.577   4.829 -0.0468 -0.9620 -0.7892
14589SOL     OW44982   5.907   1.736   5.631  0.4220 -0.1717  0.0621
14589SOL    HW144983   5.990   1.719   5.675  1.2889 -1.0078 -1.7831
14589SOL    HW244984   5.867   1.650   5.620 -0.1114  0.0957 -0.1371
14590SOL     OW44985   5.699   1.404   4.394 -0.3703  0.0213  0.4729
14590SOL    HW144986   5.656   1.325   4.426 -0.0629 -0.5469 -0.5006
14590SOL    HW244987   5.791   1.393   4.418 -0.2678 -0.0712  0.0358
14591SOL     OW44988   6.200   1.716   5.690  0.2751 -0.1235 -0.1133
14591SOL    HW144989   6.233   1.709   5.601 -2.5418 -0.8120 -1.1956
14591SOL    HW244990   6.184   1.625   5.717  0.4192  0.1207  0.8421
14592SOL     OW44991   7.368   0.312   4.553 -0.2817  0.5476 -0.1967
14592SOL    HW144992   7.301   0.320   4.621 -0.4452  0.3252 -0.3317
14592SOL    HW244993   7.400   0.222   4.562  1.4294  1.2422  1.2124
14593SOL     OW44994   6.242   0.177   4.396  0.0580  0.0061  0.3121
14593SOL    HW144995   6.152   0.192   4.423  0.3477  2.4450  0.0904
14593SOL    HW244996   6.235   0.115   4.324 -1.7157  2.0299 -1.3750
14594SOL     OW44997   7.381   1.267   4.884 -0.2755 -0.0145 -0.2660
14594SOL    HW144998   7.459   1.228   4.924 -0.7243  0.5401  1.2179
14594SOL    HW244999   7.307   1.226   4.930 -0.8264  0.4040 -0.7544
14595SOL     OW45000   6.632   0.363   5.031 -0.0066  0.0364 -0.1810
14595SOL    HW145001   6.553   0.414   5.012  0.4242  0.7799  0.0045
14595SOL    HW245002   6.600   0.289   5.084 -0.3761  1.1769  1.2662
14596SOL     OW45003   5.704   1.496   4.060 -0.0879 -0.0880  0.0951
14596SOL    HW145004   5.655   1.522   3.982 -1.9730 -1.0233  0.9241
14596SOL    HW245005   5.666   1.548   4.131  1.0091  0.1045  0.5683
14597SOL     OW45006   7.342   0.156   4.946 -0.0302 -0.0731  0.0993
14597SOL    HW145007   7.345   0.161   5.042 -0.9048 -0.7803  0.1725
14597SOL    HW245008   7.260   0.199   4.923 -0.6942 -1.4714 -0.2037
14598SOL     OW45009   5.833   0.434   4.902 -0.3859 -0.1622  0.8584
14598SOL    HW145010   5.882   0.510   4.934  2.4400 -1.1011 -0.8787
14598SOL    HW245011   5.863   0.361   4.956  0.4480 -0.8114 -0.4341
14599SOL     OW45012   6.531   1.386   4.253  0.4721 -0.0634 -0.1340
14599SOL    HW145013   6.476   1.420   4.183 -1.3700  1.3274  1.8712
14599SOL    HW245014   6.486   1.307   4.283  1.6870 -1.1277 -0.9649
14600SOL     OW45015   6.022   1.499   5.043 -0.0793  0.0674  0.3562
14600SOL    HW145016   6.025   1.583   4.996 -2.4656  0.7165  1.2271
14600SOL    HW245017   6.109   1.491   5.083  0.7052  1.3512 -0.9756
14601SOL     OW45018   7.027   8.845   4.102 -0.1398 -0.0966  0.1458
14601SOL    HW145019   7.012   8.842   4.196  0.1643  0.2282  0.2074
14601SOL    HW245020   7.122   8.839   4.093 -0.2202 -0.9666 -0.1790
14602SOL     OW45021   6.956   0.695   4.266 -0.0524  0.2421 -0.0119
14602SOL    HW145022   7.001   0.754   4.206  1.1590 -0.2264  0.4145
14602SOL    HW245023   6.918   0.753   4.333  1.4171  0.5360  0.5986
14603SOL     OW45024   7.189   8.747   4.407 -0.3844 -0.1483  0.1426
14603SOL    HW145025   7.100   8.762   4.377 -0.3522  0.3202  0.2769
14603SOL    HW245026   7.242   8.813   4.362  0.0685 -1.0630 -0.7356
14604SOL     OW45027   5.777   0.694   4.407  0.3707  0.1002  0.2144
14604SOL    HW145028   5.838   0.648   4.466  2.0842 -0.4388 -1.8416
14604SOL    HW245029   5.735   0.624   4.358  0.6447  0.5960 -0.7462
14605SOL     OW45030   6.207   1.949   3.837  0.4867 -0.0544 -0.2380
14605SOL    HW145031   6.113   1.957   3.817  0.5455  0.0000 -0.4970
14605SOL    HW245032   6.210   1.914   3.925  0.2174  0.2125 -0.1201
14606SOL     OW45033   5.417   1.143   5.673 -0.1487 -0.7827  0.0493
14606SOL    HW145034   5.385   1.060   5.708  0.6600 -1.1414 -0.0354
14606SOL    HW245035   5.504   1.123   5.640 -0.1266  0.0013 -0.3914
14607SOL     OW45036   6.097   0.346   6.178 -0.3528 -0.1052 -0.1499
14607SOL    HW145037   6.096   0.392   6.262  0.0096  0.5774 -0.5086
14607SOL    HW245038   6.184   0.365   6.141 -0.5579 -0.2763 -0.7411
14608SOL     OW45039   5.849   0.541   6.074  0.3455  0.2588 -0.0205
14608SOL    HW145040   5.943   0.530   6.063  0.2646  0.1588 -0.6553
14608SOL    HW245041   5.824   0.606   6.008  0.0870  0.8512  0.6457
14609SOL     OW45042   6.262   1.067   6.679  0.0412 -0.3723 -0.3211
14609SOL    HW145043   6.213   1.068   6.596 -1.1075 -1.7230  0.2951
14609SOL    HW245044   6.238   1.148   6.722 -1.0811 -0.6549 -0.3832
14610SOL     OW45045   7.052   1.860   6.373 -0.5908  0.2019  0.1242
14610SOL    HW145046   7.094   1.941   6.346  0.6087 -1.2074 -2.5995
14610SOL    HW245047   6.958   1.876   6.360 -0.3747  1.1743 -0.2889
14611SOL     OW45048   6.417   0.802   6.103 -0.1853 -0.4623 -0.3015
14611SOL    HW145049   6.434   0.873   6.164 -1.8094 -0.9019  0.7024
14611SOL    HW245050   6.485   0.812   6.036  0.1330  1.5053  0.2525
14612SOL     OW45051   7.791   0.381   5.564 -0.2091 -0.5386 -0.1657
14612SOL    HW145052   7.759   0.470   5.579  0.7366  0.0686 -1.5430
14612SOL    HW245053   7.717   0.335   5.526 -0.6953 -0.3415  0.5246
14613SOL     OW45054   5.762   1.213   6.330 -0.0684  0.0902  0.0981
14613SOL    HW145055   5.768   1.272   6.405  1.7700  0.0467  0.0191
14613SOL    HW245056   5.834   1.239   6.273 -1.5254  0.2384 -1.7731
14614SOL     OW45057   6.538   0.565   6.780  0.3974  0.0815  0.3403
14614SOL    HW145058   6.543   0.645   6.833  1.5803  1.2268 -1.4098
14614SOL    HW245059   6.471   0.584   6.715  1.7890  0.3094 -1.0734
14615SOL     OW45060   6.158   1.264   6.208 -0.1160  0.1189  0.1823
14615SOL    HW145061   6.188   1.354   6.225  0.7023 -0.0015 -0.5901
14615SOL    HW245062   6.188   1.214   6.284  0.5558  0.2434  0.0012
14616SOL     OW45063   6.277   1.489   7.337  0.2098  0.3278  0.2415
14616SOL    HW145064   6.308   1.578   7.354  0.3120  0.4228 -0.4358
14616SOL    HW245065   6.186   1.489   7.365  0.4444  0.4010  1.0481
14617SOL     OW45066   6.312   1.437   6.719  0.0902 -0.1219  0.3633
14617SOL    HW145067   6.331   1.524   6.755  1.1805 -1.0210  2.1055
14617SOL    HW245068   6.247   1.453   6.650 -0.5935  1.9352  1.4073
14618SOL     OW45069   7.555   1.315   6.979  0.0847  0.3236 -0.0019
14618SOL    HW145070   7.550   1.345   6.888  0.3422  1.5225  0.3729
14618SOL    HW245071   7.648   1.306   6.996  0.0356  0.1192  0.1599
14619SOL     OW45072   6.188   0.039   7.057 -0.0993  0.2687 -0.5422
14619SOL    HW145073   6.211   0.049   6.965 -0.9422 -0.5175 -0.8572
14619SOL    HW245074   6.240   0.105   7.103 -0.2130  1.1494 -1.6586
14620SOL     OW45075   7.250   0.807   6.110 -0.6033  0.6555  0.5098
14620SOL    HW145076   7.207   0.883   6.069 -0.4496  0.7731  0.5638
14620SOL    HW245077   7.229   0.816   6.203  0.7418  1.5297  0.7584
14621SOL     OW45078   6.171   2.185   6.069  0.2884  0.2937 -0.5395
14621SOL    HW145079   6.235   2.148   6.129 -0.5429  0.4035  0.4285
14621SOL    HW245080   6.215   2.182   5.983  0.9527 -1.1460 -0.1826
14622SOL     OW45081   6.460   1.362   7.171  0.3869 -0.2681 -0.0749
14622SOL    HW145082   6.448   1.279   7.215  0.3372 -0.2750 -0.1008
14622SOL    HW245083   6.392   1.419   7.207  0.4703 -0.2150  0.0008
14623SOL     OW45084   5.851   1.955   6.144  0.3059 -0.0117 -0.1355
14623SOL    HW145085   5.882   2.039   6.109  3.2598 -0.4632  1.0789
14623SOL    HW245086   5.889   1.951   6.232  0.6640 -2.7959 -0.3261
14624SOL     OW45087   5.558   1.028   6.360 -0.0131 -0.2426 -0.0272
14624SOL    HW145088   5.568   0.995   6.449 -0.7105  1.3050  0.6646
14624SOL    HW245089   5.628   1.093   6.350  0.7703 -1.1920 -1.0390
14625SOL     OW45090   6.126   1.594   6.979 -0.2503 -0.2845 -0.3264
14625SOL    HW145091   6.181   1.562   6.907  2.8331 -1.2596  2.1898
14625SOL    HW245092   6.164   1.679   7.002 -0.6815 -0.3357  0.6152
14626SOL     OW45093   6.093   1.394   5.520 -0.0511 -0.2573 -0.0152
14626SOL    HW145094   6.046   1.326   5.472 -1.7454 -0.5320  1.8425
14626SOL    HW245095   6.185   1.369   5.515 -0.5963 -2.6463  0.4513
14627SOL     OW45096   6.674   8.850   6.830  0.3203 -0.2342 -0.1956
14627SOL    HW145097   6.654   8.933   6.787 -2.4705  0.5664  2.3241
14627SOL    HW245098   6.739   8.873   6.897  0.7649 -0.4489 -0.5444
14628SOL     OW45099   5.626   0.769   6.237  0.0250 -0.5658  0.4710
14628SOL    HW145100   5.598   0.722   6.158  0.2707  1.2535 -0.7729
14628SOL    HW245101   5.545   0.790   6.282 -0.0814 -2.2517  1.1320
14629SOL     OW45102   7.352   1.836   6.105  0.3862 -0.1999 -0.2718
14629SOL    HW145103   7.416   1.899   6.135  0.1068  0.4376 -1.0034
14629SOL    HW245104   7.308   1.807   6.185 -0.4646  1.6075 -0.0304
14630SOL     OW45105   5.432   1.834   5.905 -0.4823 -0.1816 -0.3820
14630SOL    HW145106   5.519   1.831   5.945  0.0465 -1.2042 -1.5262
14630SOL    HW245107   5.375   1.790   5.968 -0.4444  1.5680  0.9389
14631SOL     OW45108   7.458   1.149   6.068  0.8427 -0.2807 -0.0980
14631SOL    HW145109   7.489   1.235   6.039  0.1499  0.0451  0.1029
14631SOL    HW245110   7.403   1.168   6.144 -0.7539 -0.6979 -1.0975
14632SOL     OW45111   6.888   1.428   6.001 -0.1145 -0.5992 -0.2630
14632SOL    HW145112   6.809   1.480   6.013 -1.3966 -2.4608 -0.2696
14632SOL    HW245113   6.895   1.418   5.906 -1.9326 -3.2908 -0.2340
14633SOL     OW45114   5.891   0.126   7.441  0.4526  0.0384  1.0237
14633SOL    HW145115   5.859   0.051   7.492 -1.1747  0.3603  0.5267
14633SOL    HW245116   5.813   0.179   7.424  1.0014  0.2211 -1.3341
14634SOL     OW45117   5.971   1.329   5.999  0.0882  0.2047  0.2259
14634SOL    HW145118   5.959   1.410   6.050  2.5283  0.5154  0.4359
14634SOL    HW245119   6.041   1.283   6.044  0.3401 -0.9045 -1.2313
14635SOL     OW45120   6.697   1.694   7.262  0.1937 -0.5283  0.1233
14635SOL    HW145121   6.748   1.730   7.336 -0.5056 -0.6812  0.6935
14635SOL    HW245122   6.672   1.606   7.291 -0.4370 -0.4334 -0.1223
14636SOL     OW45123   6.866   8.661   6.009  0.3056 -0.0031 -0.7553
14636SOL    HW145124   6.813   8.661   6.089 -1.6255  1.7951 -1.9181
14636SOL    HW245125   6.928   8.732   6.021  0.1674  0.1186 -0.7547
14637SOL     OW45126   5.759   0.819   6.885 -0.0391  0.4114 -0.1782
14637SOL    HW145127   5.743   0.737   6.838  0.2422  0.4505 -0.3499
14637SOL    HW245128   5.702   0.815   6.961 -0.4063  0.2848 -0.4558
14638SOL     OW45129   7.357   1.295   5.742 -0.0134 -0.0050  0.3709
14638SOL    HW145130   7.309   1.214   5.758 -0.6637  0.0437 -1.1673
14638SOL    HW245131   7.446   1.277   5.774 -0.4695 -0.8718  1.1845
14639SOL     OW45132   7.025   1.521   7.251 -0.0894 -0.3032  0.0348
14639SOL    HW145133   6.964   1.457   7.288 -0.4222 -0.4099 -0.6823
14639SOL    HW245134   7.072   1.472   7.184 -2.3676  0.8572 -2.6008
14640SOL     OW45135   6.051   0.490   7.626 -0.4314 -0.0124  0.0849
14640SOL    HW145136   6.116   0.476   7.695  0.0380  3.3253  0.5164
14640SOL    HW245137   6.084   0.440   7.552  0.6726 -1.2779  1.3591
14641SOL     OW45138   7.136   1.323   6.733 -0.1767  0.5499  0.1056
14641SOL    HW145139   7.217   1.356   6.771 -0.1140  0.4216  0.0835
14641SOL    HW245140   7.070   1.387   6.759 -0.1382  0.4523  0.4477
14642SOL     OW45141   7.242   2.051   6.352  0.0558 -0.2875  0.4700
14642SOL    HW145142   7.324   2.027   6.394  0.4289  0.5558  0.2491
14642SOL    HW245143   7.206   2.120   6.408 -0.4813 -0.6120  0.5340
14643SOL     OW45144   6.414   1.084   5.742  0.2510  0.2341 -0.2476
14643SOL    HW145145   6.465   1.003   5.738  0.2806  0.2871 -1.0357
14643SOL    HW245146   6.363   1.076   5.823  0.4941 -0.4239 -0.1523
14644SOL     OW45147   6.926   0.497   6.216  0.2648  0.4100  0.3357
14644SOL    HW145148   6.834   0.481   6.194 -0.2350  2.9439  0.3752
14644SOL    HW245149   6.925   0.576   6.270  2.6023  1.3647 -0.8863
14645SOL     OW45150   7.298   1.870   5.804 -0.6398  0.4236  0.3625
14645SOL    HW145151   7.269   1.959   5.824  1.5313  1.0109  1.2331
14645SOL    HW245152   7.391   1.879   5.782 -0.8757 -1.3735 -1.7699
14646SOL     OW45153   5.980   0.551   6.900 -0.0606 -0.6417  0.7772
14646SOL    HW145154   6.050   0.490   6.880  0.3287 -0.0486  0.2993
14646SOL    HW245155   5.903   0.495   6.916 -0.1980 -1.2204 -1.5516
14647SOL     OW45156   6.979   0.731   6.835  0.2846  0.2877  0.6073
14647SOL    HW145157   7.049   0.793   6.817  0.0514  1.0409  2.1388
14647SOL    HW245158   7.020   0.663   6.889  0.0984  0.1064  0.5253
14648SOL     OW45159   6.294   0.946   6.913 -0.5479  0.5408  0.3502
14648SOL    HW145160   6.341   1.028   6.926 -0.2429  0.5234 -0.5941
14648SOL    HW245161   6.230   0.966   6.844  0.4881 -0.3782 -0.9213
14649SOL     OW45162   6.571   0.550   6.279 -0.0422  0.0936 -0.8812
14649SOL    HW145163   6.623   0.604   6.219 -0.4094  1.4092 -0.0562
14649SOL    HW245164   6.572   0.598   6.361  0.6616 -1.7898  0.2908
14650SOL     OW45165   6.615   0.908   5.630 -0.1712  0.0681 -0.0645
14650SOL    HW145166   6.580   0.900   5.541  0.2862  0.1721 -0.2567
14650SOL    HW245167   6.702   0.870   5.625 -0.4855 -0.7712  0.5599
14651SOL     OW45168   5.498   0.516   6.559  0.0796 -0.1256 -0.3191
14651SOL    HW145169   5.439   0.591   6.554  0.1641 -0.0014  0.4116
14651SOL    HW245170   5.567   0.544   6.618  0.5345 -0.5004 -0.6672
14652SOL     OW45171   5.717   1.829   6.835 -0.3743 -0.3353  0.1930
14652SOL    HW145172   5.697   1.799   6.746 -2.1642  0.5844  0.2263
14652SOL    HW245173   5.740   1.750   6.883 -0.0579 -0.9358 -0.9228
14653SOL     OW45174   6.288   0.093   5.517 -0.4301 -0.2927  0.3524
14653SOL    HW145175   6.370   0.046   5.502  0.8162  1.3780  1.5019
14653SOL    HW245176   6.220   0.036   5.482  1.1528 -2.0764  0.0541
14654SOL     OW45177   7.404   0.522   7.410  0.2879  0.3469 -0.1250
14654SOL    HW145178   7.437   0.459   7.474 -0.6032  0.0858  0.0861
14654SOL    HW245179   7.364   0.591   7.463  1.4162  1.2058 -0.3466
14655SOL     OW45180   7.035   1.494   6.295 -0.3530  0.4965  0.1137
14655SOL    HW145181   7.086   1.566   6.257  0.9132 -0.5761 -0.3097
14655SOL    HW245182   6.957   1.488   6.240 -0.2827  1.2805 -0.0868
14656SOL     OW45183   6.309   0.228   6.420  0.3546  0.2628  0.2691
14656SOL    HW145184   6.383   0.172   6.395  0.0550  0.0910 -0.2481
14656SOL    HW245185   6.323   0.245   6.513  0.5480 -0.5344  0.3996
14657SOL     OW45186   6.617   1.795   5.413  0.2262 -0.4185  0.2022
14657SOL    HW145187   6.698   1.746   5.414  0.8312  0.5154 -0.7129
14657SOL    HW245188   6.584   1.786   5.323 -0.9397 -1.1862  0.6870
14658SOL     OW45189   6.034   1.971   6.362  0.1991 -0.4145  0.1777
14658SOL    HW145190   6.098   2.038   6.387 -0.1839 -0.6948  2.0822
14658SOL    HW245191   6.045   1.901   6.427 -0.6619 -1.3854 -0.6682
14659SOL     OW45192   7.347   1.219   6.330  0.2724 -0.4885 -0.1153
14659SOL    HW145193   7.406   1.172   6.388 -0.6069 -0.2980  0.9605
14659SOL    HW245194   7.347   1.309   6.363  0.7585 -0.0552 -1.2167
14660SOL     OW45195   7.133   1.372   7.041 -0.0355  0.3730 -0.7432
14660SOL    HW145196   7.218   1.374   7.086  0.7117  1.0055 -2.1082
14660SOL    HW245197   7.123   1.281   7.013 -0.1624  0.1375  0.0486
14661SOL     OW45198   6.039   0.617   5.494 -0.1470 -0.2443 -0.0736
14661SOL    HW145199   6.131   0.636   5.512 -0.1967  0.1492 -0.2013
14661SOL    HW245200   5.995   0.701   5.509 -0.4552 -0.3867 -0.1858
14662SOL     OW45201   7.252   0.751   6.437  0.3937  0.1020 -0.6577
14662SOL    HW145202   7.331   0.699   6.449  1.3824  1.4988 -0.8910
14662SOL    HW245203   7.213   0.757   6.524 -0.3485 -1.8977 -0.7974
14663SOL     OW45204   6.131   1.262   6.808 -0.2696 -0.3400 -0.5941
14663SOL    HW145205   6.188   1.334   6.783 -1.3639  1.1160  0.9130
14663SOL    HW245206   6.060   1.264   6.744 -0.0244 -0.4442 -0.8721
14664SOL     OW45207   6.827   1.795   5.731  0.1824 -0.0720  0.1424
14664SOL    HW145208   6.922   1.808   5.724  0.3876  1.2253  3.6066
14664SOL    HW245209   6.790   1.883   5.723 -0.7917 -0.5604 -1.1283
14665SOL     OW45210   6.323   0.218   7.300  0.2160  0.0725 -0.6152
14665SOL    HW145211   6.328   0.294   7.242 -1.3256 -0.0526 -0.9462
14665SOL    HW245212   6.333   0.254   7.388  0.2401  0.5521 -0.8142
14666SOL     OW45213   7.127   1.582   5.803 -0.0754  0.4405 -0.5877
14666SOL    HW145214   7.132   1.584   5.708  0.0850 -0.8994 -0.6263
14666SOL    HW245215   7.072   1.506   5.823 -2.2326  2.1222  0.3565
14667SOL     OW45216   5.996   2.092   5.754 -0.0091 -0.0823 -0.2361
14667SOL    HW145217   6.030   2.104   5.843 -0.2200 -1.5852  0.0745
14667SOL    HW245218   6.074   2.093   5.698  0.2090  0.0238  0.0667
14668SOL     OW45219   7.386   0.483   6.001  0.2181  0.0246 -0.8599
14668SOL    HW145220   7.368   0.426   5.925 -0.3361  0.5535 -1.1332
14668SOL    HW245221   7.300   0.509   6.032  0.3126 -2.0608  1.4387
14669SOL     OW45222   5.951   1.879   6.718  0.6940  0.4156 -0.2268
14669SOL    HW145223   5.990   1.966   6.721  0.7540  0.4841 -1.9574
14669SOL    HW245224   5.873   1.886   6.773  1.9768  0.8595  1.6011
14670SOL     OW45225   6.505   1.290   6.064  0.1654  0.1949  0.0812
14670SOL    HW145226   6.527   1.379   6.090 -0.4265  0.3692 -0.0097
14670SOL    HW245227   6.429   1.299   6.006  0.1401 -0.3593  0.0178
14671SOL     OW45228   5.983   0.987   5.923 -0.1112 -0.0628 -0.1275
14671SOL    HW145229   6.009   0.897   5.902 -0.0521  0.3118 -1.8247
14671SOL    HW245230   5.906   0.977   5.979  1.6831 -1.1591  2.3039
14672SOL     OW45231   7.352   0.363   7.141 -0.1641  0.3714  0.0365
14672SOL    HW145232   7.399   0.280   7.147 -2.4015 -0.9769 -0.2435
14672SOL    HW245233   7.295   0.363   7.217 -1.4364  0.8314 -0.8954
14673SOL     OW45234   6.262   0.051   5.188  0.0231  0.4313 -0.2266
14673SOL    HW145235   6.249   0.145   5.200 -0.8558  0.0978  1.8140
14673SOL    HW245236   6.175   0.016   5.170  0.4705  0.0786 -1.9316
14674SOL     OW45237   6.647   0.218   6.673 -0.4143 -0.2250 -0.5743
14674SOL    HW145238   6.708   0.251   6.738  1.5860 -3.0276 -0.8437
14674SOL    HW245239   6.673   0.262   6.592  0.9983 -1.0248 -0.5872
14675SOL     OW45240   6.656   1.607   6.458 -0.3271  0.8864 -0.6609
14675SOL    HW145241   6.585   1.670   6.451 -0.1714  1.1035 -0.2849
14675SOL    HW245242   6.622   1.538   6.516 -1.0295 -0.1128 -2.1966
14676SOL     OW45243   6.824   0.864   6.665  0.1616  0.5844  0.0623
14676SOL    HW145244   6.852   0.791   6.721  0.0712  1.3096  1.0693
14676SOL    HW245245   6.905   0.910   6.643  0.7353 -1.7399 -3.4731
14677SOL     OW45246   6.035   1.747   6.058  0.5683  0.0439  0.2165
14677SOL    HW145247   6.098   1.785   5.997  1.0460 -1.9644 -0.6224
14677SOL    HW245248   5.994   1.822   6.100 -0.2746  1.5626 -3.0132
14678SOL     OW45249   6.540   0.264   6.015  0.2524 -0.0461  0.5555
14678SOL    HW145250   6.483   0.224   5.949 -0.5689 -1.5036  2.0826
14678SOL    HW245251   6.507   0.354   6.023  0.7809  0.3734 -1.4297
14679SOL     OW45252   5.991   0.113   6.063 -0.0118 -0.3438  0.1727
14679SOL    HW145253   5.897   0.130   6.059  0.0140  0.2108  1.4113
14679SOL    HW245254   6.027   0.189   6.110  1.2642  0.1902 -1.5264
14680SOL     OW45255   6.976   0.900   5.756  0.4687  0.0527 -0.4508
14680SOL    HW145256   6.969   0.960   5.682  0.8046 -0.0364 -0.5544
14680SOL    HW245257   6.903   0.839   5.744  0.5098  0.0516 -0.6971
14681SOL     OW45258   6.031   0.390   5.838  0.0970  0.4861  1.0495
14681SOL    HW145259   6.075   0.305   5.829 -0.4262  0.2712  0.4174
14681SOL    HW245260   6.097   0.454   5.809  0.2129  0.2200  0.7172
14682SOL     OW45261   6.516   8.843   5.726  0.8186  0.1054  0.3771
14682SOL    HW145262   6.543   8.817   5.638  0.9425 -0.8246  0.6780
14682SOL    HW245263   6.430   8.803   5.738  0.6440  0.5225  0.5529
14683SOL     OW45264   6.685   1.060   6.796 -0.6046  0.4533  0.0086
14683SOL    HW145265   6.715   1.142   6.758  1.3730  0.1013  0.6490
14683SOL    HW245266   6.752   0.996   6.769 -2.3149 -1.0542 -0.8414
14684SOL     OW45267   7.276   1.568   6.802  0.0874  0.1170  0.1033
14684SOL    HW145268   7.232   1.631   6.746  0.8981  1.8010  1.2697
14684SOL    HW245269   7.260   1.599   6.891  0.4019 -1.4096  0.7316
14685SOL     OW45270   5.633   1.528   5.843  0.2025 -0.2191 -0.3119
14685SOL    HW145271   5.643   1.601   5.903  2.8150 -0.4666 -0.3012
14685SOL    HW245272   5.614   1.453   5.900 -2.0205  0.2879 -0.2871
14686SOL     OW45273   6.758   1.691   5.953 -0.2020  0.8707  0.5852
14686SOL    HW145274   6.778   1.724   5.865  0.8229  0.1964  0.5402
14686SOL    HW245275   6.744   1.770   6.006 -1.2024  1.2756 -0.2553
14687SOL     OW45276   6.839   0.724   5.603 -0.1389  0.2559  0.3340
14687SOL    HW145277   6.837   0.637   5.643 -1.6878  0.0932 -0.0451
14687SOL    HW245278   6.814   0.709   5.512 -2.0233  1.2761  0.6457
14688SOL     OW45279   6.501   0.380   6.976 -0.2652  0.1329 -0.3683
14688SOL    HW145280   6.464   0.310   6.923 -2.0394  0.5983  0.1914
14688SOL    HW245281   6.522   0.449   6.913 -3.1739  1.0378 -0.5034
14689SOL     OW45282   6.337   0.215   6.701  0.2830  0.1594 -0.2361
14689SOL    HW145283   6.427   0.191   6.678  0.0885 -1.2413  0.3960
14689SOL    HW245284   6.299   0.135   6.735 -0.8945  1.0118  0.5060
14690SOL     OW45285   6.404   0.240   5.752  0.2624 -0.1278  0.6422
14690SOL    HW145286   6.325   0.191   5.777  0.9015 -1.1157  0.7597
14690SOL    HW245287   6.457   0.177   5.704  0.3955  0.9075 -0.6134
14691SOL     OW45288   6.529   0.065   6.321  0.0209 -0.3873  0.5320
14691SOL    HW145289   6.567   0.087   6.236  0.5075  1.6340  1.2100
14691SOL    HW245290   6.604   0.045   6.377 -0.1521  0.1719  0.9733
14692SOL     OW45291   6.983   1.096   6.667 -0.3816 -0.0208 -0.3020
14692SOL    HW145292   6.922   1.134   6.604  0.1246 -0.4702 -1.0796
14692SOL    HW245293   7.040   1.168   6.694  0.8149 -0.2621 -2.0473
14693SOL     OW45294   7.430   0.967   6.750 -0.1998  0.3856  0.0896
14693SOL    HW145295   7.512   0.926   6.722 -0.9733 -0.9552 -0.3024
14693SOL    HW245296   7.420   1.042   6.692  0.4921  0.2616 -0.1979
14694SOL     OW45297   7.921   0.981   5.801 -0.1446  0.1741  0.2786
14694SOL    HW145298   7.950   1.062   5.841  1.6586 -0.0533 -0.4821
14694SOL    HW245299   7.845   0.954   5.853 -0.1651  1.8026  1.1511
14695SOL     OW45300   6.121   1.471   5.796  0.4295 -0.3802 -0.1327
14695SOL    HW145301   6.099   1.419   5.719  1.0079 -1.8895  0.6903
14695SOL    HW245302   6.056   1.445   5.861  0.6864 -0.0148  0.2727
14696SOL     OW45303   7.353   1.697   6.337  0.1843  0.1346 -0.1119
14696SOL    HW145304   7.297   1.688   6.414 -0.2817  0.6141 -0.3873
14696SOL    HW245305   7.441   1.707   6.373 -0.2853  2.8541  0.4981
14697SOL     OW45306   7.590   0.805   5.701  0.0729  0.3397  0.0926
14697SOL    HW145307   7.569   0.799   5.794 -0.9881 -0.1146 -0.1651
14697SOL    HW245308   7.511   0.842   5.661  0.7712  1.1908 -0.5401
14698SOL     OW45309   6.280   8.708   5.741 -0.7425  0.0391  0.4199
14698SOL    HW145310   6.211   8.645   5.722  0.0622 -0.7874  0.1351
14698SOL    HW245311   6.330   8.669   5.812 -0.5694  0.6232  0.6261
14699SOL     OW45312   6.198   1.527   6.184 -0.0523  0.1498 -0.0041
14699SOL    HW145313   6.262   1.527   6.112  0.0984 -2.1392  0.0761
14699SOL    HW245314   6.130   1.588   6.155  1.1389  1.0703 -1.0061
14700SOL     OW45315   7.279   1.355   7.534  0.1456  0.3468 -0.5506
14700SOL    HW145316   7.332   1.431   7.558  1.4531 -0.2610 -1.4009
14700SOL    HW245317   7.205   1.357   7.594  0.6742  1.7307  0.0863
14701SOL     OW45318   6.811   1.240   6.503 -0.0301  0.2496  0.5762
14701SOL    HW145319   6.747   1.298   6.545  0.2715  1.3048 -0.3841
14701SOL    HW245320   6.771   1.216   6.420  0.4673  0.2422  0.3352
14702SOL     OW45321   7.268   1.421   6.485  0.1268  0.0436 -0.9984
14702SOL    HW145322   7.221   1.379   6.557  1.0003 -0.6669 -0.8325
14702SOL    HW245323   7.248   1.514   6.494 -0.6313 -0.1623 -0.4849
14703SOL     OW45324   6.913   0.150   6.446 -0.4704  0.1259 -1.0928
14703SOL    HW145325   6.993   0.201   6.452 -0.4562  0.4773 -3.3385
14703SOL    HW245326   6.845   0.214   6.424 -1.8049  0.1163  2.4357
14704SOL     OW45327   6.163   0.948   7.149 -0.6102  0.7419 -0.2868
14704SOL    HW145328   6.215   0.939   7.069  0.5231  0.0594  0.5158
14704SOL    HW245329   6.076   0.918   7.123  0.3008 -1.8051 -0.6811
14705SOL     OW45330   6.238   1.070   5.971  0.2300 -0.2363 -0.0268
14705SOL    HW145331   6.237   1.119   6.054 -0.7695  1.0452 -0.7433
14705SOL    HW245332   6.150   1.032   5.965  0.5618 -1.0022 -0.1288
14706SOL     OW45333   5.769   0.368   6.963  0.0555 -0.5694  0.1053
14706SOL    HW145334   5.677   0.343   6.965  0.0940 -0.6539  1.2568
14706SOL    HW245335   5.797   0.366   7.054  0.6107  1.6492  0.0446
14707SOL     OW45336   6.899   0.540   6.549  0.5376  0.4111 -0.0617
14707SOL    HW145337   6.929   0.612   6.494 -1.2499  0.4870 -1.0025
14707SOL    HW245338   6.860   0.582   6.625 -0.6010  0.4816 -0.6602
14708SOL     OW45339   5.830   1.565   6.890 -0.3189 -0.2733 -0.2823
14708SOL    HW145340   5.778   1.486   6.902 -0.6128 -0.2046 -1.0464
14708SOL    HW245341   5.899   1.559   6.956 -1.5656 -0.1198  1.1088
14709SOL     OW45342   5.774   1.480   5.602  0.2332  0.3488 -0.4188
14709SOL    HW145343   5.710   1.492   5.672 -1.5200  1.2491 -2.1106
14709SOL    HW245344   5.810   1.392   5.618 -1.8657 -0.4487  0.2270
14710SOL     OW45345   6.414   0.988   6.341 -0.3159  0.2443  0.4047
14710SOL    HW145346   6.332   1.020   6.377 -0.1102 -0.5856  1.6688
14710SOL    HW245347   6.462   0.954   6.416  1.9682  2.2870 -0.0008
14711SOL     OW45348   7.330   1.051   5.854  0.2838  0.4112  0.3144
14711SOL    HW145349   7.384   1.079   5.928  2.0658  0.5147 -0.9423
14711SOL    HW245350   7.240   1.052   5.887  0.7330  3.0633  1.6881
14712SOL     OW45351   6.907   1.392   6.884  0.0371  0.0404  0.1253
14712SOL    HW145352   6.983   1.404   6.942  1.0844 -1.4075 -0.8489
14712SOL    HW245353   6.867   1.311   6.915 -0.2449  0.0276 -0.2714
14713SOL     OW45354   7.351   0.894   5.619 -0.2329  0.5451 -0.6575
14713SOL    HW145355   7.323   0.966   5.676 -0.6612 -0.6283  0.6823
14713SOL    HW245356   7.289   0.824   5.638  0.3467 -0.2751 -1.7275
14714SOL     OW45357   6.194   1.710   6.717 -0.2815  0.2911 -0.9411
14714SOL    HW145358   6.264   1.774   6.733  0.8179 -1.3369  1.6143
14714SOL    HW245359   6.113   1.759   6.727  0.5181  1.5557 -0.4360
14715SOL     OW45360   6.355   0.378   7.535 -0.1942  0.0265  0.0126
14715SOL    HW145361   6.379   0.385   7.627 -2.1229  1.4522  0.4682
14715SOL    HW245362   6.355   0.469   7.503 -0.4365 -0.3619 -1.1566
14716SOL     OW45363   7.122   1.083   7.136 -0.1055  0.2160 -0.2971
14716SOL    HW145364   7.081   0.999   7.115 -1.7354  1.2391 -1.4473
14716SOL    HW245365   7.199   1.087   7.080  0.2089 -0.6590  0.0515
14717SOL     OW45366   6.863   8.605   6.889  0.0270  0.1704  0.6796
14717SOL    HW145367   6.854   8.683   6.945 -0.4375  0.1740  0.6031
14717SOL    HW245368   6.943   8.563   6.920 -0.2193  0.1778  1.3462
14718SOL     OW45369   6.498   8.707   7.016 -0.0858  0.1659 -0.6576
14718SOL    HW145370   6.505   8.740   7.106  0.1058  0.2056 -0.6875
14718SOL    HW245371   6.549   8.768   6.963 -2.0052  1.4361 -1.1340
14719SOL     OW45372   6.505   0.969   6.609  0.3411 -0.2905 -0.1411
14719SOL    HW145373   6.577   1.004   6.661  0.3529 -1.6046  0.7862
14719SOL    HW245374   6.426   1.009   6.645  0.5045  0.2740 -0.4014
14720SOL     OW45375   6.980   0.743   6.383  0.2307  0.0022  0.1773
14720SOL    HW145376   7.074   0.751   6.364 -0.1134  1.3780 -1.1391
14720SOL    HW245377   6.951   0.833   6.396 -0.4870 -0.5296  3.0699
14721SOL     OW45378   7.028   0.464   5.522  0.1312 -0.2971  0.2791
14721SOL    HW145379   6.990   0.490   5.606 -0.1125 -0.7303  0.3111
14721SOL    HW245380   7.068   0.379   5.540 -0.0685 -0.4680 -0.0825
14722SOL     OW45381   5.738   8.822   6.440  0.3092 -0.7958  0.0345
14722SOL    HW145382   5.757   8.911   6.409 -0.8704 -0.8437 -0.9030
14722SOL    HW245383   5.647   8.807   6.415  0.1458 -1.8679  1.1912
14723SOL     OW45384   5.997   0.914   6.829  0.2761  0.2183  0.1031
14723SOL    HW145385   6.004   1.008   6.845 -0.1004  0.8783 -2.9950
14723SOL    HW245386   5.906   0.892   6.852  0.2768  0.6645  0.5449
14724SOL     OW45387   5.771   0.648   6.430  0.0271  0.1945  0.1235
14724SOL    HW145388   5.859   0.677   6.404  0.3682 -0.1740  0.8261
14724SOL    HW245389   5.713   0.685   6.364  0.4173  2.6269  1.0434
14725SOL     OW45390   7.436   1.022   7.286 -0.9958 -0.2035 -0.1692
14725SOL    HW145391   7.462   1.051   7.199 -0.4365 -0.4718 -0.0929
14725SOL    HW245392   7.442   0.927   7.283 -0.4974 -0.1915  0.3037
14726SOL     OW45393   6.193   0.110   5.891  0.2247  0.0819 -0.4600
14726SOL    HW145394   6.128   0.107   5.961 -0.1515 -0.7418 -0.8360
14726SOL    HW245395   6.190   0.023   5.851  0.6905  0.4242 -1.2704
14727SOL     OW45396   7.109   0.218   5.590 -0.7729  0.0502  0.3740
14727SOL    HW145397   7.065   0.146   5.633  0.7659 -0.2704  1.4797
14727SOL    HW245398   7.201   0.209   5.614 -0.1579  1.0047 -1.4029
14728SOL     OW45399   6.645   1.150   6.294  0.3016  0.2231  0.3082
14728SOL    HW145400   6.605   1.070   6.327 -0.8967  0.7867  0.2500
14728SOL    HW245401   6.587   1.180   6.225  2.2951 -0.4509 -1.7850
14729SOL     OW45402   7.040   1.696   7.643 -0.4200 -0.5165  0.5702
14729SOL    HW145403   7.079   1.695   7.556  2.4475  1.1087  1.7157
14729SOL    HW245404   7.059   1.610   7.679  1.8659  0.0851  0.9273
14730SOL     OW45405   7.803   1.450   7.309  0.1714 -0.0897 -0.1558
14730SOL    HW145406   7.729   1.511   7.309  0.8208  0.7447  0.7063
14730SOL    HW245407   7.846   1.464   7.225  0.2860  0.6340  0.0128
14731SOL     OW45408   5.907   0.763   7.372  0.1355 -0.0525 -0.5604
14731SOL    HW145409   5.914   0.738   7.280  0.3123 -0.4070 -0.4528
14731SOL    HW245410   5.997   0.760   7.405  0.0150 -0.3895 -0.2571
14732SOL     OW45411   7.135   0.212   5.257  0.0001 -0.6019  0.0562
14732SOL    HW145412   7.070   0.161   5.306  0.7897 -0.9187  0.8150
14732SOL    HW245413   7.210   0.218   5.317  0.6186 -0.1308 -0.7468
14733SOL     OW45414   7.165   0.709   5.690 -0.0384  0.2466  0.6301
14733SOL    HW145415   7.100   0.758   5.740 -0.5044  0.1450  0.1317
14733SOL    HW245416   7.118   0.631   5.660 -0.0351  0.7377 -0.7269
14734SOL     OW45417   6.982   1.509   6.573  0.0637 -0.6308  0.1243
14734SOL    HW145418   6.987   1.499   6.478  1.5580 -1.2601  0.2336
14734SOL    HW245419   6.919   1.442   6.601  0.2431 -1.0052 -0.3507
14735SOL     OW45420   5.967   0.885   6.307  0.2641  0.3194 -0.2276
14735SOL    HW145421   6.001   0.826   6.239 -2.0895  0.1486 -1.3522
14735SOL    HW245422   5.902   0.939   6.261 -1.7290 -0.0782  1.9715
14736SOL     OW45423   6.047   0.522   6.417 -0.2723  0.6546 -0.5427
14736SOL    HW145424   5.981   0.526   6.485 -0.7314  0.3303 -0.9641
14736SOL    HW245425   6.102   0.599   6.432  1.8754 -1.2709  2.4366
14737SOL     OW45426   6.721   0.614   7.224  0.1522 -0.0671 -0.4431
14737SOL    HW145427   6.725   0.639   7.316  1.5765 -0.7364 -0.2909
14737SOL    HW245428   6.628   0.611   7.203 -0.1543  2.6797  0.2414
14738SOL     OW45429   7.016   0.332   7.030  0.3950  0.2035  0.2596
14738SOL    HW145430   6.984   0.329   7.121  0.0543  0.4773  0.1545
14738SOL    HW245431   7.045   0.423   7.018 -0.8016  0.5272 -0.3119
14739SOL     OW45432   5.563   1.672   6.309  0.2937 -0.0063  0.8773
14739SOL    HW145433   5.474   1.701   6.328 -0.1416 -1.8416  1.9053
14739SOL    HW245434   5.571   1.587   6.354  2.8972  0.5649  1.6888
14740SOL     OW45435   5.310   1.965   6.365 -0.5607  0.2069 -0.4019
14740SOL    HW145436   5.266   1.925   6.290 -0.5240  1.1465 -0.9416
14740SOL    HW245437   5.297   2.059   6.353 -2.4549  0.3504  1.9378
14741SOL     OW45438   5.742   1.372   6.534  0.7113  0.0063 -0.2959
14741SOL    HW145439   5.746   1.465   6.554  1.6161  0.0712 -0.7141
14741SOL    HW245440   5.655   1.345   6.561 -0.4384  1.4703 -2.2757
14742SOL     OW45441   6.634   0.716   6.486  0.0065 -0.4482 -0.1152
14742SOL    HW145442   6.686   0.774   6.542 -0.3561 -0.3078  0.0841
14742SOL    HW245443   6.553   0.702   6.536 -1.1159  1.1397 -1.3718
14743SOL     OW45444   5.774   0.296   6.128 -0.0435  0.3220  0.1455
14743SOL    HW145445   5.805   0.385   6.107  0.7705 -0.0233 -0.1677
14743SOL    HW245446   5.731   0.305   6.212  1.7601  0.6818  1.0859
14744SOL     OW45447   5.453   0.438   7.205  0.0756  0.8098 -0.0346
14744SOL    HW145448   5.390   0.433   7.133 -1.0346 -1.6266  0.9746
14744SOL    HW245449   5.436   0.522   7.246 -0.1364  1.6928 -1.8343
14745SOL     OW45450   6.979   0.866   7.073 -0.0249 -0.0725  0.0267
14745SOL    HW145451   6.889   0.865   7.104 -0.2822 -0.4266 -0.6983
14745SOL    HW245452   6.987   0.786   7.020  1.1210 -0.7583  1.1771
14746SOL     OW45453   6.097   0.723   5.824  0.2002 -0.1738 -0.4945
14746SOL    HW145454   6.158   0.662   5.783  0.4380 -1.6221  1.8312
14746SOL    HW245455   6.011   0.693   5.797  0.3978  0.4173 -1.8618
14747SOL     OW45456   7.446   0.567   6.496 -0.6254 -0.1442  0.7618
14747SOL    HW145457   7.447   0.492   6.556  0.2908 -0.3106  0.5561
14747SOL    HW245458   7.538   0.590   6.484 -0.7056 -0.6010 -1.1733
14748SOL     OW45459   5.540   1.559   7.295 -0.0607 -0.2621  0.5858
14748SOL    HW145460   5.467   1.547   7.234  0.8436 -0.0360 -0.5711
14748SOL    HW245461   5.577   1.471   7.305 -0.5095 -0.3842  1.2068
14749SOL     OW45462   6.399   0.710   6.588  0.3014  0.2085 -0.5658
14749SOL    HW145463   6.394   0.798   6.627 -1.5695 -0.0541 -0.1177
14749SOL    HW245464   6.313   0.698   6.546 -0.0052 -1.9415  0.5779
14750SOL     OW45465   6.496   1.090   7.031 -0.1680 -0.1161  0.0116
14750SOL    HW145466   6.487   1.185   7.021  1.4175  0.0525 -0.1579
14750SOL    HW245467   6.534   1.079   7.118  0.5052 -0.5087 -0.3188
14751SOL     OW45468   6.265   0.743   5.547 -0.2568  0.0160  0.2474
14751SOL    HW145469   6.230   0.832   5.554  0.0190  0.1233  0.3030
14751SOL    HW245470   6.351   0.748   5.590  0.2605 -0.0037 -0.7469
14752SOL     OW45471   5.648   0.625   7.451 -0.3476 -0.7241  0.0462
14752SOL    HW145472   5.729   0.674   7.466 -1.2844  0.7813  0.4891
14752SOL    HW245473   5.640   0.621   7.356 -0.0981 -0.2394 -0.0022
14753SOL     OW45474   6.933   1.002   6.403  0.3842 -0.2086 -0.0679
14753SOL    HW145475   6.875   1.047   6.465  1.1955 -0.6752  1.0621
14753SOL    HW245476   6.995   1.070   6.376 -1.1002  0.4987 -1.8799
14754SOL     OW45477   7.496   0.744   5.955  1.3672  0.3521  0.8795
14754SOL    HW145478   7.467   0.653   5.954  1.3950  0.1468 -3.7000
14754SOL    HW245479   7.425   0.791   6.000 -0.9567 -1.4617 -0.6427
14755SOL     OW45480   6.934   2.007   6.677 -0.7933  0.2399  0.3194
14755SOL    HW145481   6.885   2.032   6.599 -0.0459 -0.3927 -0.3732
14755SOL    HW245482   6.910   1.916   6.693 -0.7263  0.2786  0.6582
14756SOL     OW45483   6.726   1.570   6.968  0.1885  0.3400  0.0654
14756SOL    HW145484   6.796   1.509   6.946 -0.7653 -0.4493 -0.8574
14756SOL    HW245485   6.737   1.586   7.062 -1.1968 -3.4803  1.0670
14757SOL     OW45486   5.635   0.933   6.587  0.3048 -0.0002 -0.3873
14757SOL    HW145487   5.659   0.994   6.657 -0.3697  3.1777 -2.6672
14757SOL    HW245488   5.718   0.898   6.556  0.8052  0.3965  0.4619
14758SOL     OW45489   6.299   1.716   7.453 -0.0061 -0.3451 -0.1914
14758SOL    HW145490   6.268   1.765   7.529 -0.7649  0.9226 -1.2775
14758SOL    HW245491   6.296   1.779   7.382  0.0550 -1.6897 -1.4187
14759SOL     OW45492   7.660   0.275   5.818  0.2510 -0.4263  0.0501
14759SOL    HW145493   7.575   0.282   5.774 -0.0470 -0.8757  0.5393
14759SOL    HW245494   7.709   0.351   5.787 -0.7058  0.4349  0.5621
14760SOL     OW45495   7.026   1.709   6.098 -0.1835  0.1300 -0.1095
14760SOL    HW145496   6.967   1.748   6.163 -0.4992 -0.0540 -0.2852
14760SOL    HW245497   6.971   1.651   6.046  0.4270 -1.1312  0.6055
14761SOL     OW45498   5.081   1.517   7.399  0.7349  0.2092  0.0737
14761SOL    HW145499   5.036   1.469   7.329 -0.2342 -0.7052  1.2769
14761SOL    HW245500   5.054   1.608   7.387  1.0720  0.1709 -1.0961
14762SOL     OW45501   7.076   1.212   6.320  0.3818  0.2476 -0.1536
14762SOL    HW145502   7.052   1.301   6.344 -0.7301  0.0439 -0.4675
14762SOL    HW245503   7.170   1.216   6.303  0.3421  1.3476 -0.1518
14763SOL     OW45504   6.149   1.064   6.419  0.2934  0.0872 -0.0150
14763SOL    HW145505   6.093   1.001   6.373  0.2271 -1.0268  1.5280
14763SOL    HW245506   6.088   1.130   6.452  0.2605  0.4912 -0.8391
14764SOL     OW45507   6.413   1.890   6.167  0.0260  0.3633  0.0297
14764SOL    HW145508   6.396   1.976   6.205 -0.0486  0.4709 -0.2425
14764SOL    HW245509   6.342   1.877   6.104  1.3189  1.1443 -1.6655
14765SOL     OW45510   7.245   1.705   7.047  0.1605  0.5672 -0.3073
14765SOL    HW145511   7.285   1.672   7.127 -0.2349  1.9163  0.4708
14765SOL    HW245512   7.299   1.780   7.022  1.0310 -0.5411 -2.0335
14766SOL     OW45513   7.385   0.261   6.254  0.4792  0.2620 -0.9041
14766SOL    HW145514   7.293   0.286   6.262  0.8933  1.5866 -0.0593
14766SOL    HW245515   7.398   0.246   6.161 -0.7293 -0.5108 -0.9688
14767SOL     OW45516   5.778   0.747   5.844  0.3481  0.8492  0.0230
14767SOL    HW145517   5.723   0.724   5.770 -0.5945 -0.7757  1.1771
14767SOL    HW245518   5.728   0.814   5.892 -0.6290 -0.5152  0.9862
14768SOL     OW45519   6.856   2.133   5.357 -0.3538  0.2043  0.2049
14768SOL    HW145520   6.770   2.098   5.333 -0.7036  0.8334  0.5066
14768SOL    HW245521   6.836   2.214   5.405  0.3555 -0.3518  1.4921
14769SOL     OW45522   6.065   0.695   6.654  0.3873 -0.3756 -0.1875
14769SOL    HW145523   6.056   0.615   6.705 -3.4783 -0.3064 -0.5022
14769SOL    HW245524   6.041   0.766   6.715  0.1125  0.1463 -0.8882
14770SOL     OW45525   6.403   0.540   5.993  0.2498  0.2513 -0.4224
14770SOL    HW145526   6.427   0.631   6.011 -0.8001  0.7010 -1.1962
14770SOL    HW245527   6.365   0.509   6.075  1.1986  0.2850  0.0476
14771SOL     OW45528   7.053   2.108   5.626 -0.0255  0.2168  0.3172
14771SOL    HW145529   7.073   2.026   5.580  1.2748  0.5702  0.2072
14771SOL    HW245530   6.974   2.140   5.583  0.8105  0.2298 -1.2911
14772SOL     OW45531   5.992   0.719   7.101  0.0306 -0.8675 -0.1881
14772SOL    HW145532   6.015   0.680   7.017 -1.1641  1.2731 -1.6109
14772SOL    HW245533   5.897   0.716   7.105 -0.0259  0.5246  0.2925
14773SOL     OW45534   7.549   1.747   7.000  0.2042  0.1661 -0.0225
14773SOL    HW145535   7.580   1.677   7.056 -0.0157  0.2655  0.2253
14773SOL    HW245536   7.498   1.804   7.058 -1.7947 -0.8267 -0.6972
14774SOL     OW45537   6.710   1.098   5.974 -0.2006  0.0097  1.1925
14774SOL    HW145538   6.625   1.136   5.996  0.4572  1.3752  1.5026
14774SOL    HW245539   6.770   1.137   6.038  0.6709 -0.8696  0.9262
14775SOL     OW45540   6.357   0.409   6.207  0.9625  0.1786 -0.1680
14775SOL    HW145541   6.325   0.342   6.269 -1.0378  0.6007 -0.6618
14775SOL    HW245542   6.423   0.457   6.256 -0.6189  0.5476  1.7420
14776SOL     OW45543   5.867   1.551   6.137  0.4581 -0.7029  0.3978
14776SOL    HW145544   5.910   1.612   6.077 -0.2944 -2.0034 -1.5577
14776SOL    HW245545   5.853   1.602   6.217  1.2603  1.1941 -0.6087
14777SOL     OW45546   7.090   0.325   6.592  0.2365  0.1832 -0.4316
14777SOL    HW145547   7.049   0.411   6.603  1.2978  0.5790  0.6134
14777SOL    HW245548   7.066   0.277   6.671  1.1101  0.1438 -0.1815
14778SOL     OW45549   5.841   1.694   6.362 -0.3023  0.0698  0.4573
14778SOL    HW145550   5.872   1.652   6.442 -1.4942  0.1337  0.9797
14778SOL    HW245551   5.782   1.763   6.393  0.4237  1.1252 -0.4295
14779SOL     OW45552   5.960   1.094   7.306  0.6058 -0.1840  0.2942
14779SOL    HW145553   5.957   1.035   7.231 -2.6460 -2.8265  2.2088
14779SOL    HW245554   6.046   1.079   7.346  0.9793 -1.3923 -0.9088
14780SOL     OW45555   6.720   0.359   6.425 -0.6155  0.4991 -0.3632
14780SOL    HW145556   6.664   0.411   6.367 -0.0030  1.5828 -0.0306
14780SOL    HW245557   6.767   0.425   6.477  0.6905 -0.3840 -0.3740
14781SOL     OW45558   5.152   0.433   5.795  0.1547  0.0130 -0.2757
14781SOL    HW145559   5.109   0.453   5.878 -1.1073  2.7019 -1.4380
14781SOL    HW245560   5.094   0.471   5.729  2.1954 -0.1209 -2.2463
14782SOL     OW45561   7.186   0.884   6.695  0.6378  0.4861 -0.3187
14782SOL    HW145562   7.129   0.955   6.667 -0.1990 -0.6168 -1.5181
14782SOL    HW245563   7.268   0.928   6.719  0.0424  1.8732 -0.7014
14783SOL     OW45564   5.512   0.450   5.855 -0.0562 -0.4013  0.1011
14783SOL    HW145565   5.452   0.408   5.793 -1.1938  1.0679  0.1391
14783SOL    HW245566   5.540   0.530   5.810 -0.7183  0.5697  1.3592
14784SOL     OW45567   7.112   1.849   5.592 -0.4780  0.4059 -0.0923
14784SOL    HW145568   7.193   1.839   5.643 -1.2542 -1.0707  0.9144
14784SOL    HW245569   7.105   1.768   5.542  0.0384  1.6422 -2.3394
14785SOL     OW45570   6.181   0.343   6.886  0.1446  0.0533  0.2332
14785SOL    HW145571   6.103   0.294   6.860 -0.2865  0.4121  0.8255
14785SOL    HW245572   6.245   0.325   6.817 -0.6343  0.1948 -0.5404
14786SOL     OW45573   7.190   1.689   6.538 -0.4759  0.4614  0.0592
14786SOL    HW145574   7.123   1.622   6.553  1.1518 -1.4915 -0.8378
14786SOL    HW245575   7.151   1.748   6.474 -1.3053 -0.7802 -0.6333
14787SOL     OW45576   6.411   0.621   7.430 -0.3302  0.1942  0.3040
14787SOL    HW145577   6.495   0.665   7.439 -0.3753  0.0229  1.8156
14787SOL    HW245578   6.398   0.614   7.335  0.9135  1.0361  0.0420
14788SOL     OW45579   7.821   1.302   6.986  0.2855  0.1383  0.3760
14788SOL    HW145580   7.845   1.251   6.908  0.3514 -0.9682  1.0944
14788SOL    HW245581   7.881   1.377   6.985 -0.7447  1.0075 -1.4704
14789SOL     OW45582   6.034   1.619   7.463  0.2255 -0.1236 -0.1549
14789SOL    HW145583   6.049   1.693   7.522 -0.4983  1.0412 -1.3813
14789SOL    HW245584   5.987   1.555   7.517  1.9460 -0.2545  1.2704
14790SOL     OW45585   7.529   1.156   6.544  0.5467 -0.0919 -0.2541
14790SOL    HW145586   7.586   1.100   6.491  0.4370  0.2438 -0.7283
14790SOL    HW245587   7.585   1.227   6.574  0.6606 -0.3930  0.2623
14791SOL     OW45588   6.971   0.522   5.778  0.0436 -0.6887 -0.1633
14791SOL    HW145589   7.026   0.534   5.856 -1.4607 -1.5394  1.0950
14791SOL    HW245590   6.888   0.491   5.813 -1.2559  0.5587 -1.9977
14792SOL     OW45591   6.122   0.781   6.089 -0.1690 -0.1083  0.4300
14792SOL    HW145592   6.214   0.805   6.101 -0.6211  2.2037 -0.2424
14792SOL    HW245593   6.116   0.755   5.997  0.0294 -1.6435  0.8102
14793SOL     OW45594   6.935   0.274   7.316  0.2460 -0.3773  0.0132
14793SOL    HW145595   6.862   0.233   7.271 -2.5183  2.6810  1.3411
14793SOL    HW245596   6.966   0.208   7.378 -2.0588 -1.4867  0.0653
14794SOL     OW45597   7.358   1.126   6.972  0.0613  0.0168  0.0974
14794SOL    HW145598   7.430   1.183   6.945  1.4746 -1.5589  0.3815
14794SOL    HW245599   7.352   1.060   6.902  0.0558 -0.8702  0.9207
14795SOL     OW45600   6.734   1.578   5.579  0.3277 -0.2221 -0.6180
14795SOL    HW145601   6.671   1.544   5.642  1.4885  0.9131  1.2639
14795SOL    HW245602   6.774   1.653   5.623  3.7451 -1.4725 -1.2111
14796SOL     OW45603   6.473   1.789   6.421  0.1110 -0.2455 -0.0834
14796SOL    HW145604   6.440   1.831   6.342  2.6978  0.3877 -0.8903
14796SOL    HW245605   6.406   1.807   6.487 -0.1220  2.9384 -1.0591
14797SOL     OW45606   6.923   1.194   6.106 -0.3726 -0.0925 -0.6742
14797SOL    HW145607   6.924   1.287   6.086  0.1098  0.4093  1.4309
14797SOL    HW245608   6.963   1.187   6.192  0.7283 -2.4008 -1.2854
14798SOL     OW45609   7.093   1.027   5.954 -0.0552 -0.0504  0.3318
14798SOL    HW145610   7.030   1.059   6.018 -0.4170  2.6636 -1.2304
14798SOL    HW245611   7.040   0.988   5.885  0.1530 -0.1397  0.2202
14799SOL     OW45612   7.498   2.029   6.518  0.3650  0.8632  0.5027
14799SOL    HW145613   7.486   2.036   6.613 -1.8926 -1.9241  0.5498
14799SOL    HW245614   7.581   1.982   6.508  0.5176  0.9981  1.0990
14800SOL     OW45615   5.962   1.443   7.680 -0.2032  0.8089  0.6406
14800SOL    HW145616   5.909   1.389   7.621  0.8511 -0.6461  0.9746
14800SOL    HW245617   5.906   1.456   7.757  0.9126 -3.6150  2.5370
14801SOL     OW45618   5.644   1.395   6.078 -0.3435  0.0399 -0.1422
14801SOL    HW145619   5.724   1.446   6.085  0.2691 -1.0677  1.2504
14801SOL    HW245620   5.600   1.408   6.162 -2.8265  2.4435 -1.6048
14802SOL     OW45621   6.597   1.388   6.608  0.0204  0.2016  0.3797
14802SOL    HW145622   6.549   1.409   6.688 -0.6296 -2.2905  0.7315
14802SOL    HW245623   6.530   1.362   6.546  0.5811  1.4493 -0.8004
14803SOL     OW45624   7.395   0.538   6.916 -0.4120  0.4380  0.1927
14803SOL    HW145625   7.367   0.503   6.831  2.0974 -0.1226 -0.4880
14803SOL    HW245626   7.381   0.466   6.977 -1.9914  0.7572  0.2391
14804SOL     OW45627   6.294   0.364   5.423  0.2212  0.3394  0.4249
14804SOL    HW145628   6.206   0.378   5.459  0.7502 -1.0725  2.4293
14804SOL    HW245629   6.317   0.276   5.451  2.9528  1.2775  1.4483
14805SOL     OW45630   7.610   1.737   6.455  0.3411 -0.0848 -0.4550
14805SOL    HW145631   7.663   1.780   6.522  0.1715  0.6593 -0.7931
14805SOL    HW245632   7.649   1.650   6.446 -0.7312 -0.8944  1.8845
14806SOL     OW45633   5.947   0.213   6.828 -0.0068  0.5814 -0.0575
14806SOL    HW145634   5.895   0.225   6.749 -1.6085  0.3244  0.9265
14806SOL    HW245635   5.898   0.258   6.897  0.4969 -0.5958  1.1167
14807SOL     OW45636   6.570   1.572   6.125  0.0040  0.4694 -0.3038
14807SOL    HW145637   6.615   1.583   6.041  0.7553  1.4654  0.2013
14807SOL    HW245638   6.536   1.659   6.145 -1.3377 -0.0486 -0.1897
14808SOL     OW45639   7.182   8.763   6.769  0.2195  0.3581  0.5387
14808SOL    HW145640   7.225   8.778   6.685  2.2636 -0.2543  1.4149
14808SOL    HW245641   7.131   8.843   6.784  0.9167  1.0590 -0.6339
14809SOL     OW45642   6.734   8.815   6.465 -0.6355  0.6506  0.2918
14809SOL    HW145643   6.796   8.888   6.472 -0.8310  0.8828 -0.3258
14809SOL    HW245644   6.725   8.783   6.555  0.6116  0.4127  0.3570
14810SOL     OW45645   6.357   1.520   5.928  0.2151  0.3092  0.0313
14810SOL    HW145646   6.272   1.501   5.889  0.2101 -0.6624  0.4895
14810SOL    HW245647   6.409   1.557   5.857 -1.3862  3.5083  0.3196
14811SOL     OW45648   6.330   2.036   6.518  0.5829 -0.2801 -0.3242
14811SOL    HW145649   6.313   2.024   6.611  1.0623  0.4886 -0.1285
14811SOL    HW245650   6.421   2.010   6.506  0.2593 -1.2680 -0.7614
14812SOL     OW45651   7.400   0.184   5.980  0.3949  0.1079 -0.2918
14812SOL    HW145652   7.349   0.138   5.913  0.6546 -0.4778 -0.0885
14812SOL    HW245653   7.491   0.164   5.959  0.5506  1.0817 -0.6001
14813SOL     OW45654   6.760   0.744   6.110  0.1714  0.0070 -0.0525
14813SOL    HW145655   6.776   0.807   6.180 -0.3738 -0.3598  0.4131
14813SOL    HW245656   6.717   0.795   6.041 -2.7229 -0.3043  1.3572
14814SOL     OW45657   7.116   0.576   6.017 -0.5651  0.0052 -0.3608
14814SOL    HW145658   7.050   0.548   6.081  0.5274 -1.8986  0.0074
14814SOL    HW245659   7.147   0.660   6.050 -0.3786 -0.7072  1.3925
14815SOL     OW45660   5.714   0.953   6.025 -0.2231  0.4661 -0.1590
14815SOL    HW145661   5.645   1.020   6.026 -0.5857  0.1015 -0.4897
14815SOL    HW245662   5.695   0.898   6.101 -1.0419 -0.3709 -0.9435
14816SOL     OW45663   6.236   1.852   5.932 -0.0091 -0.2846 -0.0108
14816SOL    HW145664   6.224   1.785   5.865  0.3305  0.4544 -0.8342
14816SOL    HW245665   6.252   1.933   5.882  1.6256  0.0336  0.9372
14817SOL     OW45666   5.854   0.976   7.590  0.3173 -0.0389  0.1798
14817SOL    HW145667   5.900   0.993   7.508 -1.3518 -2.6140 -1.4522
14817SOL    HW245668   5.908   0.910   7.634 -0.8426 -1.9060 -1.0134
14818SOL     OW45669   6.068   0.164   8.290  0.9411 -0.4289 -0.1581
14818SOL    HW145670   5.981   0.170   8.250  0.3568 -0.3643  1.0724
14818SOL    HW245671   6.094   0.072   8.278  0.0649 -0.8064  0.7089
14819SOL     OW45672   5.819   0.496   8.105  0.2329  0.3060 -0.0590
14819SOL    HW145673   5.779   0.470   8.188  0.1162  1.1023  0.1421
14819SOL    HW245674   5.857   0.415   8.071  2.2714  0.3366  1.8612
14820SOL     OW45675   6.490   1.328   8.683 -0.2686  0.5447 -0.3166
14820SOL    HW145676   6.494   1.235   8.704 -1.1920  0.3280 -1.0602
14820SOL    HW245677   6.552   1.339   8.611 -0.9371  0.2880 -0.9460
14821SOL     OW45678   7.281   1.296   8.362 -0.1302 -0.2583 -0.4930
14821SOL    HW145679   7.260   1.273   8.271 -0.5203 -0.2699 -0.4004
14821SOL    HW245680   7.227   1.373   8.381  0.3678  0.0853 -0.4497
14822SOL     OW45681   7.130   0.683   7.280 -0.5850 -0.1126 -0.2136
14822SOL    HW145682   7.207   0.686   7.337 -0.4772  0.7776 -0.3960
14822SOL    HW245683   7.087   0.767   7.293 -1.9988 -0.9024  0.5010
14823SOL     OW45684   7.975   0.234   7.703  0.0883 -0.2332 -0.4554
14823SOL    HW145685   7.952   0.231   7.610 -1.3231 -1.3432 -0.1005
14823SOL    HW245686   7.895   0.209   7.749  1.5663 -2.8595  0.9269
14824SOL     OW45687   6.298   1.388   8.247  0.1166  0.4299 -0.1111
14824SOL    HW145688   6.253   1.365   8.166  0.0526  0.3671 -0.0582
14824SOL    HW245689   6.268   1.322   8.310  0.0565  0.5658  0.0011
14825SOL     OW45690   6.666   0.773   7.469  0.0059  0.3447  0.0834
14825SOL    HW145691   6.697   0.749   7.556  0.5463  1.2511  0.1465
14825SOL    HW245692   6.675   0.868   7.465 -0.5280  0.3715 -0.7675
14826SOL     OW45693   6.577   1.418   8.164 -0.0535  0.1580 -0.3118
14826SOL    HW145694   6.621   1.463   8.237  0.6914 -0.2205 -0.5230
14826SOL    HW245695   6.484   1.423   8.186  0.1758 -0.1839  0.8150
14827SOL     OW45696   5.923   8.596   8.258 -0.0849  0.3539  0.2518
14827SOL    HW145697   6.006   8.632   8.229  0.3044 -0.9991 -0.3936
14827SOL    HW245698   5.894   8.655   8.327  0.3038  2.1090 -1.0153
14828SOL     OW45699   7.316   0.532   7.987 -0.8960 -0.2365 -0.1919
14828SOL    HW145700   7.265   0.575   7.919 -0.8024  2.5439  1.3599
14828SOL    HW245701   7.254   0.518   8.058 -0.1271  0.7575  0.7106
14829SOL     OW45702   5.548   1.559   8.063 -0.5205  0.4070 -0.1547
14829SOL    HW145703   5.480   1.524   8.005 -0.4218  1.9807 -1.2949
14829SOL    HW245704   5.500   1.605   8.132 -0.6430  0.6469 -0.3946
14830SOL     OW45705   5.750   1.322   7.918 -0.0726 -0.5864  0.9611
14830SOL    HW145706   5.713   1.409   7.937 -0.8351  0.1667 -3.1097
14830SOL    HW245707   5.674   1.264   7.913 -0.1485 -0.3576 -1.2599
14831SOL     OW45708   5.684   1.283   8.190 -0.5278 -0.2113 -0.4837
14831SOL    HW145709   5.717   1.263   8.103  0.0571  0.2846 -0.3860
14831SOL    HW245710   5.756   1.329   8.233 -0.4122 -1.3687  0.6336
14832SOL     OW45711   6.490   1.909   0.293 -0.0347  0.2464 -0.2017
14832SOL    HW145712   6.584   1.926   0.286 -0.0233  0.5505  0.5537
14832SOL    HW245713   6.470   1.924   0.385 -1.0602  1.4188 -0.5826
14833SOL     OW45714   6.119   1.326   7.081  0.2316  0.2381 -0.6078
14833SOL    HW145715   6.098   1.303   6.991  1.2829  1.2731 -1.1335
14833SOL    HW245716   6.121   1.422   7.083  1.2326  0.2254  0.2614
14834SOL     OW45717   5.726   0.857   8.247  0.3735 -0.0826 -0.0153
14834SOL    HW145718   5.779   0.802   8.305 -2.9107 -2.3698  1.0817
14834SOL    HW245719   5.731   0.814   8.162 -0.4905 -0.8970  0.3332
14835SOL     OW45720   7.728   1.766   8.198 -0.2157  0.1316  0.0727
14835SOL    HW145721   7.776   1.694   8.158  0.7893  1.2762 -0.8870
14835SOL    HW245722   7.724   1.833   8.129 -0.9667  1.0574  0.9800
14836SOL     OW45723   4.953   1.414   7.638  0.1517 -0.1489  0.1826
14836SOL    HW145724   4.881   1.359   7.608 -0.6576  1.0378 -0.0965
14836SOL    HW245725   5.003   1.434   7.559 -0.5719  0.9499 -0.0174
14837SOL     OW45726   7.444   0.996   8.036  0.6868 -0.0986 -0.0750
14837SOL    HW145727   7.523   0.991   8.091  1.5020  0.1290 -1.1858
14837SOL    HW245728   7.458   0.929   7.968 -0.8478 -1.2047  0.6393
14838SOL     OW45729   7.319   1.633   7.589  0.8859 -0.0886 -0.1344
14838SOL    HW145730   7.392   1.695   7.582  1.3156 -0.6051 -0.2469
14838SOL    HW245731   7.311   1.615   7.682  0.3500  0.6163 -0.0358
14839SOL     OW45732   6.408   1.820   8.100  0.1752 -0.5060 -0.2625
14839SOL    HW145733   6.440   1.906   8.074 -1.2777 -0.6624 -2.8495
14839SOL    HW245734   6.402   1.770   8.019  1.3090 -3.2284  1.1851
14840SOL     OW45735   6.719   0.304   7.807  0.9414  0.4013 -0.5627
14840SOL    HW145736   6.673   0.267   7.883 -0.5623  0.4928 -1.3793
14840SOL    HW245737   6.790   0.242   7.789 -0.3593 -1.1211 -0.7422
14841SOL     OW45738   6.172   1.193   8.393 -0.3191  0.3392 -0.3436
14841SOL    HW145739   6.119   1.248   8.452 -0.2600  0.8442 -0.7564
14841SOL    HW245740   6.209   1.126   8.451  0.4051  1.3112  0.3670
14842SOL     OW45741   6.730   0.893   7.163  0.2720 -0.0967  0.4542
14842SOL    HW145742   6.692   0.808   7.185 -1.2886 -0.0350 -1.6878
14842SOL    HW245743   6.691   0.954   7.226 -1.6216 -0.3951 -0.3609
14843SOL     OW45744   6.979   1.453   8.368  0.3434 -0.4600 -0.2509
14843SOL    HW145745   6.963   1.361   8.348  2.1894 -1.0027  0.5536
14843SOL    HW245746   6.956   1.462   8.461 -0.1414 -0.0250 -0.4093
14844SOL     OW45747   7.595   2.170   8.209  0.4498 -0.1526 -0.2440
14844SOL    HW145748   7.667   2.141   8.153  0.6812 -1.0835  0.5113
14844SOL    HW245749   7.594   2.107   8.281 -0.6443  0.2935  0.1447
14845SOL     OW45750   6.502   0.672   7.716 -0.0159 -1.0153 -0.3913
14845SOL    HW145751   6.579   0.631   7.675  1.8777  2.2646 -0.4337
14845SOL    HW245752   6.455   0.712   7.643 -0.8114 -1.5112 -0.1572
14846SOL     OW45753   7.199   0.234   8.498 -0.7237 -0.2968  0.0344
14846SOL    HW145754   7.251   0.265   8.572 -0.0009 -0.0048 -0.5844
14846SOL    HW245755   7.139   0.306   8.479 -0.1621  0.0653 -0.3615
14847SOL     OW45756   6.862   1.281   8.010  0.1067  0.0973  0.5033
14847SOL    HW145757   6.796   1.266   8.078  1.1522  0.3269  1.6185
14847SOL    HW245758   6.911   1.357   8.042  1.1912 -0.3493 -0.0567
14848SOL     OW45759   6.112   0.583   8.250  0.4607  0.7854  0.2757
14848SOL    HW145760   6.072   0.586   8.163 -0.9451  0.3299  0.8704
14848SOL    HW245761   6.166   0.503   8.249 -1.8598 -0.8857  0.7149
14849SOL     OW45762   6.799   0.389   8.508  0.1747 -0.6331 -0.2384
14849SOL    HW145763   6.714   0.432   8.511  0.7814  0.5728  1.9201
14849SOL    HW245764   6.812   0.354   8.596  1.5613 -1.5194 -0.7495
14850SOL     OW45765   7.128   0.436   7.599  0.3445  0.3426  0.2954
14850SOL    HW145766   7.190   0.424   7.527  1.6186 -0.4563  1.4797
14850SOL    HW245767   7.045   0.456   7.556  1.4662  1.8105 -1.3493
14851SOL     OW45768   5.370   1.034   8.519 -0.0963 -0.7609 -0.0006
14851SOL    HW145769   5.395   1.078   8.600 -0.1781 -1.7157  0.5499
14851SOL    HW245770   5.448   1.038   8.464  1.2232 -3.3027  1.5258
14852SOL     OW45771   6.055   1.964   8.493 -0.8475 -0.2635 -0.7562
14852SOL    HW145772   6.049   1.910   8.572 -0.2870  0.7177 -0.0094
14852SOL    HW245773   6.035   1.905   8.421 -1.0983 -1.2482  0.1051
14853SOL     OW45774   7.045   0.034   7.434 -0.2094  0.4630 -0.2564
14853SOL    HW145775   7.016  -0.009   7.353  0.5080 -1.6589  0.5448
14853SOL    HW245776   7.062  -0.038   7.495  2.5592  1.7816  0.7139
14854SOL     OW45777   7.051   1.414   7.763  0.3200 -0.3572 -0.0152
14854SOL    HW145778   7.067   1.457   7.848  0.2163 -0.5094  0.0809
14854SOL    HW245779   6.959   1.430   7.745  0.7096  1.0944 -0.8884
14855SOL     OW45780   6.281   0.340   8.258  0.0769 -0.1902  0.3222
14855SOL    HW145781   6.203   0.290   8.280 -0.8742  1.0148 -0.2131
14855SOL    HW245782   6.305   0.311   8.170 -3.3575  3.5121 -2.2048
14856SOL     OW45783   6.528   1.270   7.647 -0.2468 -0.6820 -0.5510
14856SOL    HW145784   6.534   1.192   7.702  1.3703 -0.4109 -0.2826
14856SOL    HW245785   6.514   1.342   7.709  0.5861 -0.4952 -0.5683
14857SOL     OW45786   6.195   1.604   8.425 -0.6739  0.0429  0.2199
14857SOL    HW145787   6.209   1.532   8.363 -2.0075 -0.3514  0.3250
14857SOL    HW245788   6.277   1.652   8.425  0.4481 -1.7703  0.5203
14858SOL     OW45789   7.569   0.733   7.950  0.0022  0.3448  0.0739
14858SOL    HW145790   7.508   0.676   7.903  0.2695  1.4126 -1.6315
14858SOL    HW245791   7.583   0.688   8.034  1.1587 -2.7574 -1.6262
14859SOL     OW45792   6.096   0.517   7.274  0.2126  0.0072  0.1869
14859SOL    HW145793   6.143   0.583   7.326  0.0867  0.8930 -0.7952
14859SOL    HW245794   6.057   0.567   7.202  1.1727 -1.3263 -1.3027
14860SOL     OW45795   7.023   1.010   8.104 -0.2771  0.2083 -0.3850
14860SOL    HW145796   7.050   1.075   8.039  0.5272 -1.4061 -1.7549
14860SOL    HW245797   6.981   0.941   8.052 -0.4762 -0.6794  0.9263
14861SOL     OW45798   7.142   2.077   7.624 -0.3955  0.3781 -0.0348
14861SOL    HW145799   7.118   2.168   7.606 -1.4685  0.2515  0.6700
14861SOL    HW245800   7.065   2.040   7.666  0.1578 -0.7696  0.0018
14862SOL     OW45801   7.470   1.262   7.398 -0.4608 -0.0437 -0.0040
14862SOL    HW145802   7.457   1.171   7.374  0.4611  0.0179 -0.7960
14862SOL    HW245803   7.385   1.291   7.432 -0.9205 -1.0170 -0.3108
14863SOL     OW45804   5.765   1.643   7.914 -0.3567 -0.1739  0.3393
14863SOL    HW145805   5.681   1.632   7.958  0.1135  3.5610  2.7005
14863SOL    HW245806   5.750   1.713   7.851  0.7205 -0.2130  0.0198
14864SOL     OW45807   7.295   8.554   7.860  0.4809 -1.1692 -0.0084
14864SOL    HW145808   7.247   8.589   7.934  0.1442  1.0313 -1.1791
14864SOL    HW245809   7.371   8.612   7.852  0.9903 -1.9307 -0.8349
14865SOL     OW45810   5.980   1.765   8.351 -0.0648 -0.4513  0.2955
14865SOL    HW145811   6.050   1.710   8.387 -0.0105 -1.3724 -1.1223
14865SOL    HW245812   5.997   1.766   8.257 -2.0987 -0.9220 -0.1249
14866SOL     OW45813   7.091   2.043   8.181 -0.0334  0.2425 -0.5399
14866SOL    HW145814   7.066   2.085   8.263 -1.2213 -0.4679 -0.5056
14866SOL    HW245815   7.178   2.077   8.161 -0.2311  1.3457  0.3880
14867SOL     OW45816   6.256   0.875   7.618  0.3291 -0.4469 -0.0424
14867SOL    HW145817   6.257   0.971   7.623  0.5019 -0.3093 -2.0286
14867SOL    HW245818   6.164   0.851   7.631  0.1470  0.0538 -0.3732
14868SOL     OW45819   6.780   0.348   6.869  0.1911 -0.0319  0.4068
14868SOL    HW145820   6.713   0.405   6.906  0.4149  0.2326  0.4053
14868SOL    HW245821   6.848   0.344   6.937 -0.2107 -0.9901  0.7691
14869SOL     OW45822   7.170   1.772   8.198  0.3759 -0.5016  0.0803
14869SOL    HW145823   7.210   1.859   8.200  2.0873 -1.2473  0.4975
14869SOL    HW245824   7.091   1.782   8.145  2.1402  0.6529 -2.5050
14870SOL     OW45825   6.466   1.423   7.867 -0.3947 -0.0112  0.1156
14870SOL    HW145826   6.511   1.481   7.929 -0.9649  0.5491  0.0192
14870SOL    HW245827   6.382   1.404   7.909 -0.6323  0.0700 -0.3149
14871SOL     OW45828   7.172   0.644   7.790 -0.0642 -0.8508 -0.0144
14871SOL    HW145829   7.084   0.683   7.792  0.5333  0.6652 -1.3109
14871SOL    HW245830   7.169   0.582   7.717  0.8050  1.5992 -2.2853
14872SOL     OW45831   6.191   0.180   7.975 -0.0490  0.3132 -0.3966
14872SOL    HW145832   6.166   0.104   8.028  1.4799 -0.1312 -0.2808
14872SOL    HW245833   6.116   0.239   7.982 -0.5625 -0.4463  0.9073
14873SOL     OW45834   7.059   1.017   7.426  0.0727  0.0072  0.0690
14873SOL    HW145835   7.081   1.029   7.334  2.0207  0.1157  0.4975
14873SOL    HW245836   7.131   1.060   7.473  0.2441 -1.8675  1.6230
14874SOL     OW45837   6.658   0.172   7.561  0.5225 -0.4897  0.0929
14874SOL    HW145838   6.698   0.209   7.640 -0.9960 -1.5401  1.4165
14874SOL    HW245839   6.566   0.199   7.566 -0.0409 -2.2445 -0.2496
14875SOL     OW45840   7.146   0.203   7.792 -0.2024 -0.2296 -0.1947
14875SOL    HW145841   7.160   0.271   7.725  0.5292 -0.7525 -0.5805
14875SOL    HW245842   7.079   0.147   7.755 -0.5633  0.0834 -0.0229
14876SOL     OW45843   6.937   2.182   7.975  0.3766  0.6121  0.1412
14876SOL    HW145844   6.955   2.129   7.897 -2.2585 -0.5904  0.2617
14876SOL    HW245845   6.987   2.141   8.045 -1.0624 -1.3542  0.0768
14877SOL     OW45846   6.524   1.058   7.808  0.0794  0.0684  0.4708
14877SOL    HW145847   6.492   1.053   7.898  0.9022  0.7022  0.8174
14877SOL    HW245848   6.498   0.975   7.768  2.1839 -1.5100  2.1275
14878SOL     OW45849   6.871   1.996   7.734 -0.1075 -0.1664 -0.3354
14878SOL    HW145850   6.805   2.048   7.689 -0.6303 -0.6579 -0.1440
14878SOL    HW245851   6.824   1.918   7.764  0.7749 -0.9846 -1.0478
14879SOL     OW45852   6.582   1.087   7.307  0.2031 -0.2761  0.0105
14879SOL    HW145853   6.651   1.114   7.366 -0.1654  0.8187 -0.0442
14879SOL    HW245854   6.501   1.102   7.355  0.0007 -2.8557  0.6118
14880SOL     OW45855   6.504   0.340   8.402 -0.6128  0.5514  0.3693
14880SOL    HW145856   6.426   0.336   8.346 -0.0896  0.2748 -0.3437
14880SOL    HW245857   6.554   0.415   8.370 -1.0337  1.3278  1.4447
14881SOL     OW45858   7.384   0.173   7.941  0.2251  0.2000 -0.4155
14881SOL    HW145859   7.304   0.194   7.894 -0.4876 -0.0161  0.6594
14881SOL    HW245860   7.425   0.258   7.958 -1.1408  0.5773  1.3129
14882SOL     OW45861   6.854   8.180   7.849 -0.0838  0.2552  0.0391
14882SOL    HW145862   6.921   8.170   7.782 -0.5225 -1.6304 -0.1604
14882SOL    HW245863   6.891   8.139   7.927 -1.4974 -2.1683 -0.4653
14883SOL     OW45864   6.947   1.178   8.301 -0.5354 -0.0098  0.1979
14883SOL    HW145865   6.997   1.136   8.230 -0.3168  0.8604 -0.1766
14883SOL    HW245866   6.888   1.110   8.332 -1.5291 -0.0873 -1.6717
14884SOL     OW45867   6.823   1.191   7.738  0.4404  0.2628 -0.1508
14884SOL    HW145868   6.740   1.150   7.763  1.8072 -2.3554  0.3745
14884SOL    HW245869   6.838   1.256   7.807 -0.0210 -0.9552  1.1599
14885SOL     OW45870   8.059   0.830   7.684 -0.1203  0.0527 -0.8834
14885SOL    HW145871   8.016   0.767   7.627  0.8207  0.6039 -2.2639
14885SOL    HW245872   8.152   0.805   7.680 -0.0060  0.2881  0.1716
14886SOL     OW45873   6.164   1.608   7.794  0.3931 -0.6591 -0.6701
14886SOL    HW145874   6.128   1.562   7.719  1.4161 -0.3953 -1.3360
14886SOL    HW245875   6.121   1.694   7.793  0.9164 -0.3985 -1.3733
14887SOL     OW45876   7.453   1.171   7.770  0.5754 -0.6378  0.3231
14887SOL    HW145877   7.501   1.092   7.796 -1.8739 -1.8482  1.5157
14887SOL    HW245878   7.392   1.187   7.842  1.0249  2.4520  0.1430
14888SOL     OW45879   7.096   0.588   7.043 -0.3022  0.3267  0.9157
14888SOL    HW145880   7.183   0.590   7.003 -0.7277 -1.0197 -0.1357
14888SOL    HW245881   7.112   0.613   7.134  1.1850  0.1701  0.7268
14889SOL     OW45882   6.946   0.534   7.437 -0.4912  0.2271  0.1840
14889SOL    HW145883   6.984   0.592   7.371  0.6056 -1.4792 -0.7555
14889SOL    HW245884   6.925   0.453   7.389 -2.7513  0.0937  1.2658
14890SOL     OW45885   7.088   0.971   0.764 -0.1328 -0.8698  0.8403
14890SOL    HW145886   7.150   1.003   0.697 -1.5357 -1.6261 -0.9008
14890SOL    HW245887   7.081   1.043   0.826  0.3008  0.3795 -0.4978
14891SOL     OW45888   6.665   0.863   8.045  0.4223  0.5045  0.3088
14891SOL    HW145889   6.594   0.925   8.067 -1.3733 -1.2975 -0.0820
14891SOL    HW245890   6.707   0.844   8.129 -0.3642  0.6834  0.7544
14892SOL     OW45891   7.257   0.806   8.232  0.0339  0.0644 -0.5476
14892SOL    HW145892   7.163   0.804   8.252 -0.0562  0.7505 -0.8691
14892SOL    HW245893   7.265   0.873   8.164  0.7920  0.2202 -0.3075
14893SOL     OW45894   6.971   0.625   8.079 -0.4599  0.0833 -0.5378
14893SOL    HW145895   6.982   0.649   7.988  1.7173  0.9775 -0.0997
14893SOL    HW245896   6.951   0.531   8.077 -1.3052  0.2739 -1.9391
14894SOL     OW45897   6.623   0.584   8.323  0.1562  0.2769 -0.8960
14894SOL    HW145898   6.565   0.628   8.385  0.6297 -0.4356  0.0825
14894SOL    HW245899   6.664   0.655   8.273 -1.0024  0.8136 -1.1052
14895SOL     OW45900   7.205   0.629   8.621 -0.0939  0.0708 -0.2050
14895SOL    HW145901   7.162   0.581   8.692 -0.5215 -0.1405 -0.6000
14895SOL    HW245902   7.142   0.627   8.549 -0.1632  1.3269 -0.1963
14896SOL     OW45903   5.778   1.867   8.150  0.2911 -0.3122 -0.2590
14896SOL    HW145904   5.760   1.810   8.075  0.6756  0.6667 -1.1293
14896SOL    HW245905   5.813   1.808   8.217 -0.8402 -1.3331 -0.5429
14897SOL     OW45906   6.233   1.187   7.285 -0.3136 -0.4335  0.3934
14897SOL    HW145907   6.197   1.248   7.222 -0.3690  0.0902  0.9176
14897SOL    HW245908   6.241   1.104   7.238 -1.2826 -0.3090 -0.0047
14898SOL     OW45909   5.850   1.081   8.344  0.0232  0.5220 -0.4418
14898SOL    HW145910   5.821   1.012   8.284  1.4748  2.5419 -3.7347
14898SOL    HW245911   5.944   1.090   8.326  0.3374  1.8596  1.5575
14899SOL     OW45912   6.801   1.520   7.781 -0.6921 -0.0820 -0.0916
14899SOL    HW145913   6.777   1.613   7.776  1.6185  0.6305  0.8070
14899SOL    HW245914   6.719   1.476   7.802 -1.5808  1.9502  1.0482
14900SOL     OW45915   7.010   1.533   8.005 -0.1195 -0.2574 -0.3483
14900SOL    HW145916   7.096   1.537   8.046  0.1284  0.0282 -0.8888
14900SOL    HW245917   6.984   1.625   7.996  0.2779 -0.2662 -1.7605
14901SOL     OW45918   7.796   0.343   7.930  0.1250 -0.0853 -0.2975
14901SOL    HW145919   7.711   0.349   7.974  0.3441  0.7406  0.0391
14901SOL    HW245920   7.842   0.273   7.976  0.0386  0.2126  0.2553
14902SOL     OW45921   6.854   1.759   8.331  0.1017  0.2348  0.3403
14902SOL    HW145922   6.860   1.663   8.332 -1.4484  0.1151  0.2743
14902SOL    HW245923   6.910   1.787   8.403  2.8178 -0.5296 -1.3088
14903SOL     OW45924   6.222   0.921   8.151 -0.6797  0.2740 -0.2300
14903SOL    HW145925   6.187   0.978   8.220 -0.8619 -0.5110  0.3346
14903SOL    HW245926   6.147   0.901   8.095 -0.5192  0.9617 -0.7088
14904SOL     OW45927   6.461   1.032   8.089 -0.5017  0.0909 -0.0671
14904SOL    HW145928   6.373   1.000   8.110 -1.3786  1.1200 -1.8990
14904SOL    HW245929   6.480   1.098   8.156 -1.4656  0.4086 -0.0934
14905SOL     OW45930   7.279   0.204   7.425  0.4948  0.0416  0.1991
14905SOL    HW145931   7.349   0.139   7.422  1.4045  0.9987  0.3774
14905SOL    HW245932   7.199   0.152   7.438  1.2990 -0.9832  1.2136
14906SOL     OW45933   6.174   8.416   8.560  0.2284 -0.0810  0.7813
14906SOL    HW145934   6.199   8.411   8.468 -0.7672 -0.9377  0.5317
14906SOL    HW245935   6.210   8.499   8.590 -1.1929  1.2536 -0.9561
14907SOL     OW45936   5.379   1.368   8.303 -0.3318  0.1123  0.1185
14907SOL    HW145937   5.441   1.320   8.248  0.2689  0.2745  0.6391
14907SOL    HW245938   5.411   1.459   8.302 -0.9554  0.3339 -0.1576
14908SOL     OW45939   6.480   0.528   8.038  0.3801 -0.2755 -0.3762
14908SOL    HW145940   6.519   0.595   7.982 -1.6322  0.5584 -0.8931
14908SOL    HW245941   6.496   0.558   8.127  0.5586  0.2573 -0.5861
14909SOL     OW45942   6.019   0.890   7.980  0.0287 -0.0668 -0.4753
14909SOL    HW145943   6.054   0.911   7.893  0.4565 -1.5346 -0.6814
14909SOL    HW245944   5.995   0.798   7.974  1.9585 -0.7699  1.5918
14910SOL     OW45945   7.271   0.734   7.532 -0.5524 -0.2114 -0.1770
14910SOL    HW145946   7.234   0.698   7.612 -0.2512 -3.2426 -1.2935
14910SOL    HW245947   7.298   0.823   7.556 -1.5623 -0.5998  2.7130
14911SOL     OW45948   7.068   0.510   8.400 -0.0487  0.6097 -0.2566
14911SOL    HW145949   6.981   0.471   8.395 -0.5467  1.8107 -1.5978
14911SOL    HW245950   7.113   0.478   8.322  0.5399  0.4122  0.1592
14912SOL     OW45951   6.873   0.045   7.019 -0.6244  0.3273  0.0448
14912SOL    HW145952   6.968   0.037   7.026 -0.4314  0.6339 -1.8043
14912SOL    HW245953   6.843   0.049   7.110  1.2619  1.8537  0.6765
14913SOL     OW45954   6.516   0.788   6.930  0.3991 -0.3341 -0.0202
14913SOL    HW145955   6.438   0.843   6.927  0.1177 -0.7482 -0.5093
14913SOL    HW245956   6.586   0.846   6.959 -0.1314 -0.0094  0.6210
14914SOL     OW45957   6.519   1.620   7.597  0.6044  0.4809 -0.4609
14914SOL    HW145958   6.439   1.641   7.549  0.0668  0.3966  0.3712
14914SOL    HW245959   6.550   1.539   7.558 -0.2435  0.0037 -0.1746
14915SOL     OW45960   5.491   1.329   8.598  0.6125  0.2668 -0.4548
14915SOL    HW145961   5.560   1.273   8.563  0.5946  0.6744 -1.1477
14915SOL    HW245962   5.439   1.353   8.522  1.1985  2.0270 -0.3413
14916SOL     OW45963   5.465   0.734   8.433 -0.6483  0.0894  0.4745
14916SOL    HW145964   5.489   0.826   8.431  1.2332 -0.3732 -0.9439
14916SOL    HW245965   5.431   0.715   8.345  0.8367 -0.9736  0.0870
14917SOL     OW45966   6.826   0.214   8.735 -0.2186 -0.5325  0.0288
14917SOL    HW145967   6.840   0.159   8.657 -0.6746 -0.1636 -0.3191
14917SOL    HW245968   6.914   0.230   8.768 -0.1015 -1.8076  0.3796
14918SOL     OW45969   5.817   1.321   7.317  0.1958  0.2510 -0.0592
14918SOL    HW145970   5.798   1.311   7.410  1.1696  1.3533  0.2853
14918SOL    HW245971   5.896   1.269   7.302 -1.0774 -1.5594 -0.7373
14919SOL     OW45972   5.886   2.263   8.207  0.5126 -0.4161 -0.0951
14919SOL    HW145973   5.814   2.213   8.171 -1.3028  1.7197  0.3256
14919SOL    HW245974   5.924   2.309   8.132  1.0742 -1.0687 -0.2225
14920SOL     OW45975   5.978   1.605   8.111  0.0441  0.1874 -0.0620
14920SOL    HW145976   5.956   1.623   8.019 -1.6554 -0.6039  0.1527
14920SOL    HW245977   6.063   1.562   8.107 -0.1946 -0.2192 -1.3047
14921SOL     OW45978   6.864   0.803   8.657  0.4980  0.2840  0.3483
14921SOL    HW145979   6.770   0.818   8.669  0.2778  0.6354 -1.5990
14921SOL    HW245980   6.874   0.709   8.675 -0.8741 -0.5623 -2.6265
14922SOL     OW45981   6.234   0.587   8.600 -0.8092  0.8237 -0.1258
14922SOL    HW145982   6.153   0.554   8.561 -0.5439 -0.4037  0.3072
14922SOL    HW245983   6.206   0.654   8.662 -1.5209  0.3395  0.0916
14923SOL     OW45984   6.726   0.079   7.286 -0.0116  0.0012 -0.6740
14923SOL    HW145985   6.635   0.052   7.277 -0.1809  0.1969  0.3346
14923SOL    HW245986   6.724   0.147   7.354  0.7623  0.6455 -1.2750
14924SOL     OW45987   7.548   0.665   8.217 -0.2695 -0.1535 -0.2577
14924SOL    HW145988   7.521   0.756   8.203  0.9639  0.3005  0.1063
14924SOL    HW245989   7.490   0.633   8.286  0.1717  0.8186  0.5904
14925SOL     OW45990   6.709   0.174   8.234  0.2798 -0.2147  0.0280
14925SOL    HW145991   6.632   0.210   8.189  0.5480  1.0835  0.5715
14925SOL    HW245992   6.711   0.219   8.318  2.0061  0.3068 -0.2407
14926SOL     OW45993   6.649   1.399   8.467  0.1702  0.3287  0.4126
14926SOL    HW145994   6.681   1.324   8.417  0.6009  1.0671 -0.4673
14926SOL    HW245995   6.724   1.428   8.519 -0.1554 -0.1788  1.1777
14927SOL     OW45996   5.999   0.774   7.687 -0.5344  0.7189  0.1088
14927SOL    HW145997   6.044   0.697   7.653 -0.5499 -0.2867  2.2083
14927SOL    HW245998   5.919   0.740   7.727 -1.2492  2.0096 -0.1521
14928SOL     OW45999   5.694   0.910   8.584  0.0708 -0.7196  0.1490
14928SOL    HW146000   5.687   0.983   8.645 -1.0044 -1.7391  1.2840
14928SOL    HW246001   5.744   0.945   8.510 -1.2166  1.4284  0.2411
14929SOL     OW46002   7.000   0.765   8.325 -0.2502  0.0334  0.2611
14929SOL    HW146003   6.983   0.692   8.384  2.6542 -0.4954  0.6054
14929SOL    HW246004   6.975   0.732   8.238  1.5298 -1.6713  0.3248
14930SOL     OW46005   6.182   0.779   7.381  0.3445 -0.4824  0.3980
14930SOL    HW146006   6.220   0.825   7.456  0.5847 -0.5252  0.3047
14930SOL    HW246007   6.207   0.832   7.305 -2.3026  1.1698  0.5545
14931SOL     OW46008   7.663   1.496   8.553 -0.3128  0.2706  0.0868
14931SOL    HW146009   7.619   1.415   8.526  0.0812 -0.0057  0.2592
14931SOL    HW246010   7.593   1.554   8.581 -0.5947 -0.0280  0.0020
14932SOL     OW46011   6.881   1.474   8.609  0.0097 -0.2597 -0.0064
14932SOL    HW146012   6.975   1.464   8.623  0.2360  2.2991  0.8253
14932SOL    HW246013   6.849   1.518   8.688 -1.9122 -1.1291 -0.2432
14933SOL     OW46014   5.727   1.239   8.512  0.0930 -0.1295  0.4211
14933SOL    HW146015   5.748   1.176   8.442 -0.0925 -0.2858  0.5049
14933SOL    HW246016   5.773   1.319   8.487 -0.2232 -0.0870 -0.0477
14934SOL     OW46017   7.084   8.757   7.857  0.7190 -0.1745 -0.0643
14934SOL    HW146018   7.166   8.794   7.890  1.2489 -1.2305 -0.1436
14934SOL    HW246019   7.021   8.771   7.928  0.5371  2.0258 -0.6005
14935SOL     OW46020   7.244   1.591   8.404 -0.3531  0.1708  0.1987
14935SOL    HW146021   7.191   1.653   8.353 -0.3640 -0.4569 -0.5769
14935SOL    HW246022   7.321   1.575   8.349  0.2454  0.4250  0.9413
14936SOL     OW46023   7.117   1.150   7.878 -0.2864  0.3781 -0.0667
14936SOL    HW146024   7.081   1.072   7.835 -0.0603  0.0423  0.3448
14936SOL    HW246025   7.081   1.224   7.829  1.2148 -0.0057 -1.8883
14937SOL     OW46026   6.418   1.711   7.848  0.3750 -0.1519  0.0506
14937SOL    HW146027   6.442   1.676   7.762  1.4816 -1.5070  0.8839
14937SOL    HW246028   6.323   1.699   7.852  0.2531  0.2755 -1.1196
14938SOL     OW46029   7.333   0.108   8.199 -0.3190 -0.3753 -0.1517
14938SOL    HW146030   7.241   0.082   8.207 -0.5794  0.4802 -0.2394
14938SOL    HW246031   7.351   0.104   8.105 -0.5119  0.2560 -0.2170
14939SOL     OW46032   5.945   0.761   8.421 -0.5425 -0.3593  0.5291
14939SOL    HW146033   6.007   0.709   8.370 -1.7043 -0.7256 -0.5722
14939SOL    HW246034   5.928   0.707   8.498  0.3412 -0.3484  0.7417
14940SOL     OW46035   6.834   1.265   7.292 -0.0113 -0.4349 -0.2726
14940SOL    HW146036   6.898   1.203   7.326 -1.1465 -1.1106  0.7088
14940SOL    HW246037   6.816   1.236   7.203  0.4212 -0.7367 -0.2637
14941SOL     OW46038   6.726   1.081   8.589  0.2760 -0.1238 -0.8954
14941SOL    HW146039   6.660   1.049   8.650 -0.4311 -0.1444 -1.6603
14941SOL    HW246040   6.806   1.087   8.641 -0.3354 -0.0528  0.0536
14942SOL     OW46041   6.726   0.537   7.660  0.0474  0.1956 -0.1289
14942SOL    HW146042   6.759   0.505   7.576 -0.4054 -0.0679 -0.2060
14942SOL    HW246043   6.721   0.460   7.716  1.5497  0.5510  0.5564
14943SOL     OW46044   7.392   1.914   7.706 -0.8372 -0.8312 -0.1054
14943SOL    HW146045   7.306   1.945   7.679 -0.9899  0.9837  2.2176
14943SOL    HW246046   7.380   1.879   7.794  1.0501  1.1715  1.0501
14944SOL     OW46047   7.167   1.523   8.645  0.4022  0.4020 -0.3666
14944SOL    HW146048   7.248   1.486   8.679 -0.6250 -2.1602 -0.4886
14944SOL    HW246049   7.187   1.544   8.553  1.4707  1.7930  0.1482
14945SOL     OW46050   6.792   1.025   7.526 -0.0585 -0.7362  0.1509
14945SOL    HW146051   6.816   1.081   7.599  1.2051 -1.8252  0.6212
14945SOL    HW246052   6.872   1.020   7.472 -0.8525 -0.2519 -1.1092
14946SOL     OW46053   6.922   0.307   8.112 -0.0936  0.1707  0.0835
14946SOL    HW146054   6.912   0.227   8.059 -0.3727 -0.5233  1.1580
14946SOL    HW246055   6.854   0.301   8.178 -0.4851  1.6067 -0.1547
14947SOL     OW46056   6.156   1.406   8.005  0.4008 -0.0443  0.0904
14947SOL    HW146057   6.157   1.465   7.930 -1.0287  2.0406  1.5930
14947SOL    HW246058   6.109   1.328   7.974  0.4328  0.4875 -1.3536
14948SOL     OW46059   7.247   0.783   0.141 -0.5285 -0.4072 -0.4508
14948SOL    HW146060   7.232   0.861   0.088  1.6090 -0.2112 -0.8555
14948SOL    HW246061   7.241   0.813   0.232  0.6730  0.3332 -0.6057
14949SOL     OW46062   5.718   1.221   7.597  0.0239 -0.2550 -0.1231
14949SOL    HW146063   5.753   1.133   7.606  0.6411 -0.0677 -0.5978
14949SOL    HW246064   5.661   1.233   7.673  2.2273 -0.0018  1.5746
14950SOL     OW46065   5.644   0.267   7.366 -0.0695  0.4473 -0.0299
14950SOL    HW146066   5.587   0.306   7.301 -0.1206 -1.6029 -1.2903
14950SOL    HW246067   5.602   0.184   7.389  1.3865 -0.1818  0.4885
14951SOL     OW46068   5.469   0.403   7.605 -0.6603  0.1355 -0.1679
14951SOL    HW146069   5.514   0.391   7.688 -0.8321  1.1861  0.0917
14951SOL    HW246070   5.520   0.468   7.558 -1.0640  0.2188 -0.5062
14952SOL     OW46071   6.811   1.175   7.021  0.1900 -0.0393 -0.2268
14952SOL    HW146072   6.879   1.107   7.020  0.4585  0.2274 -1.5651
14952SOL    HW246073   6.732   1.131   6.989 -0.3146 -0.3621  1.3737
14953SOL     OW46074   6.731   0.833   8.306  0.1341  0.0773  0.3795
14953SOL    HW146075   6.695   0.897   8.367 -1.4519 -1.0447  0.7033
14953SOL    HW246076   6.823   0.824   8.332  0.3573  2.0676  0.4149
14954SOL     OW46077   7.292   1.529   8.024 -0.2489  0.6287  0.4485
14954SOL    HW146078   7.291   1.434   8.040  0.0929  0.5401 -0.0495
14954SOL    HW246079   7.355   1.564   8.087  1.0989  0.2814 -0.6605
14955SOL     OW46080   6.088   1.695   0.053  0.1089  0.4095 -0.3664
14955SOL    HW146081   6.019   1.707   0.118 -0.7994 -0.0172 -1.2209
14955SOL    HW246082   6.134   1.617   0.081  1.4288  1.6955  1.2089
14956SOL     OW46083   7.464   0.929   8.394  0.4151  0.4347 -0.4659
14956SOL    HW146084   7.433   0.902   8.480 -0.7311  0.8614 -0.7293
14956SOL    HW246085   7.415   0.874   8.333  1.3042  0.0555 -0.8588
14957SOL     OW46086   7.456   8.767   7.849 -0.4063  0.6279  0.2380
14957SOL    HW146087   7.495   8.781   7.763  1.4778  0.1500  0.9842
14957SOL    HW246088   7.440   8.855   7.883  0.2378  0.8279  0.0276
14958SOL     OW46089   5.984   1.188   7.947 -0.1603 -0.0436 -0.2543
14958SOL    HW146090   5.904   1.225   7.909  0.0622 -0.6340 -1.3480
14958SOL    HW246091   5.956   1.103   7.982 -0.2212  0.1972  0.2836
14959SOL     OW46092   7.177   0.952   0.376  0.1482  0.1012 -0.0284
14959SOL    HW146093   7.122   1.026   0.350 -0.7009 -0.1918  0.8655
14959SOL    HW246094   7.116   0.888   0.413  1.0953 -0.1992  1.0968
14960SOL     OW46095   6.684   1.430   7.445 -0.1788  0.2186  0.1177
14960SOL    HW146096   6.640   1.373   7.509 -1.8064  0.3414 -0.8530
14960SOL    HW246097   6.735   1.369   7.390 -0.3198 -0.0868  0.3191
14961SOL     OW46098   6.473   1.629   8.677 -0.9865 -0.0596  0.0352
14961SOL    HW146099   6.495   1.632   8.584  1.9216  0.3886  0.6419
14961SOL    HW246100   6.462   1.536   8.697  0.5596 -0.3584 -0.3632
14962SOL     OW46101   6.858   0.937   7.878 -0.4898  0.5791  0.2085
14962SOL    HW146102   6.822   1.024   7.862  0.1762  0.8765  0.2890
14962SOL    HW246103   6.800   0.899   7.944 -0.9058  0.8854  0.0196
14963SOL     OW46104   6.444   0.575   7.147  0.0624 -0.0272 -0.5443
14963SOL    HW146105   6.458   0.493   7.099  1.5243  0.5149 -1.0788
14963SOL    HW246106   6.414   0.637   7.080  1.5822  0.5861 -0.6881
14964SOL     OW46107   7.539   1.270   8.478 -0.6640  0.2452  0.1722
14964SOL    HW146108   7.462   1.271   8.420 -1.1106 -1.8986  0.6494
14964SOL    HW246109   7.524   1.195   8.536  2.1734 -0.7412 -0.2407
14965SOL     OW46110   5.553   1.063   8.320 -0.4935 -0.7106  0.3723
14965SOL    HW146111   5.614   0.993   8.294 -0.7975 -0.2483 -1.7009
14965SOL    HW246112   5.596   1.144   8.292 -1.4965 -0.2859  0.0364
14966SOL     OW46113   7.144   8.782   0.040 -0.3790  0.7346 -0.2025
14966SOL    HW146114   7.158   8.699   0.085  1.5715  1.2059  0.1262
14966SOL    HW246115   7.055   8.775   0.006  0.5827 -2.6019 -2.5355
14967SOL     OW46116   5.744   0.190   7.753 -0.3617 -0.3966 -0.5093
14967SOL    HW146117   5.690   0.258   7.793  3.1418  1.4978  1.4969
14967SOL    HW246118   5.753   0.218   7.662  0.4056  1.5197  0.1031
14968SOL     OW46119   7.151   1.553   0.069 -0.1791 -0.5370 -0.0982
14968SOL    HW146120   7.131   1.567  -0.024 -0.3647 -0.6530 -0.0762
14968SOL    HW246121   7.247   1.547   0.072 -0.2019 -1.0943 -0.3566
14969SOL     OW46122   5.987   0.430   8.527  0.3843  0.3377  0.1652
14969SOL    HW146123   5.955   0.401   8.612  1.0280  0.6774  0.5336
14969SOL    HW246124   5.920   0.402   8.465  1.3054 -2.6574  0.3598
14970SOL     OW46125   6.781   1.875   8.072 -0.4098 -0.4698 -0.0698
14970SOL    HW146126   6.688   1.887   8.093 -0.2931 -1.9486  1.5582
14970SOL    HW246127   6.825   1.885   8.157  0.8042 -0.8454 -0.6460
14971SOL     OW46128   7.180   0.367   8.182 -0.5448  0.6752 -0.2293
14971SOL    HW146129   7.227   0.289   8.211 -1.1232  0.6406  0.6509
14971SOL    HW246130   7.091   0.337   8.164 -0.2984  0.7681 -1.7336
14972SOL     OW46131   6.592   8.468   8.230  0.3311  0.1121 -0.2581
14972SOL    HW146132   6.527   8.455   8.161  1.5544 -0.0958 -1.4171
14972SOL    HW246133   6.625   8.380   8.248 -0.5723  0.0398  1.2496
14973SOL     OW46134   6.289   1.138   7.552  0.4377  0.1117  0.5673
14973SOL    HW146135   6.362   1.197   7.571  0.3928  0.6532 -0.8081
14973SOL    HW246136   6.269   1.153   7.460  1.7654 -3.4765 -0.4986
14974SOL     OW46137   5.704   1.498   8.708 -0.7598 -0.1559 -0.4011
14974SOL    HW146138   5.622   1.456   8.681 -0.1650 -0.1308 -2.4225
14974SOL    HW246139   5.679   1.588   8.728 -1.3766 -0.3903 -0.0993
14975SOL     OW46140   6.788   8.490   7.563 -0.6849  0.5944 -0.1490
14975SOL    HW146141   6.772   8.582   7.539 -0.1371  0.6268 -0.4097
14975SOL    HW246142   6.864   8.494   7.622 -0.1561  0.2456 -0.7913
14976SOL     OW46143   6.922   0.696   7.798 -0.0172 -0.1330 -0.1483
14976SOL    HW146144   6.867   0.667   7.726 -0.2191 -0.2399  0.0488
14976SOL    HW246145   6.904   0.790   7.805  0.1966 -0.0711 -0.4025
14977SOL     OW46146   7.057   0.089   8.334 -0.1402 -0.4027  0.1373
14977SOL    HW146147   7.099   0.146   8.399 -1.6621 -1.7874  2.4980
14977SOL    HW246148   7.082   0.001   8.361 -2.7514 -1.1514  0.3727
14978SOL     OW46149   5.549   1.141   7.905 -0.0855 -0.3209 -0.2941
14978SOL    HW146150   5.543   1.054   7.942  0.7366 -0.1391  0.2857
14978SOL    HW246151   5.464   1.181   7.923 -0.9208 -1.4074 -1.6482
14979SOL     OW46152   6.711   1.778   7.825  0.9755  0.1566  0.3769
14979SOL    HW146153   6.724   1.793   7.919 -0.9441  1.6461  0.4840
14979SOL    HW246154   6.616   1.778   7.814  1.0169 -3.0888 -1.1624
14980SOL     OW46155   5.683   2.873   8.789 -0.2525 -0.8134 -0.1167
14980SOL    HW146156   5.756   2.820   8.756 -0.9794 -1.0153 -1.4490
14980SOL    HW246157   5.650   2.824   8.865  1.9567  0.0717  1.5281
14981SOL     OW46158   5.514   1.857   1.040  0.2429  0.3696 -0.1175
14981SOL    HW146159   5.473   1.868   0.954  0.2859 -2.7517 -0.6596
14981SOL    HW246160   5.457   1.903   1.100 -0.3795  1.7128 -1.6649
14982SOL     OW46161   5.565   2.293   0.461 -0.2906  0.4436 -0.9357
14982SOL    HW146162   5.647   2.244   0.461 -0.7985 -0.6139  2.3009
14982SOL    HW246163   5.499   2.230   0.434 -0.4876  0.3219 -0.1766
14983SOL     OW46164   5.976   3.250   1.199  0.1447  0.1519 -0.2937
14983SOL    HW146165   5.970   3.155   1.203 -2.3335  0.2580  0.4374
14983SOL    HW246166   5.901   3.277   1.146  0.4131  1.7240  0.0663
14984SOL     OW46167   7.188   3.714   0.831  0.4835 -0.4880 -0.3805
14984SOL    HW146168   7.275   3.746   0.803  0.4410 -0.8960 -1.0042
14984SOL    HW246169   7.168   3.765   0.909  0.2184  1.3864 -1.5971
14985SOL     OW46170   6.661   3.000   0.316 -0.1813 -0.0393 -0.1376
14985SOL    HW146171   6.681   3.074   0.373 -0.9965  1.1094 -1.2792
14985SOL    HW246172   6.730   2.936   0.333  0.4962  0.9536  0.9370
14986SOL     OW46173   7.447   2.639   8.485 -0.2038 -0.5348 -0.3665
14986SOL    HW146174   7.452   2.644   8.581  0.5976  1.5812 -0.4657
14986SOL    HW246175   7.538   2.636   8.457 -0.4185 -0.2304 -1.1034
14987SOL     OW46176   6.295   2.762   1.046  0.1742  0.3591 -0.2309
14987SOL    HW146177   6.275   2.853   1.023  1.1070  0.9479  1.1068
14987SOL    HW246178   6.324   2.722   0.964 -0.6215  1.1458 -0.9199
14988SOL     OW46179   6.369   2.644   1.563 -0.3699  0.1406  0.0617
14988SOL    HW146180   6.362   2.738   1.578 -1.8857  0.2714 -1.1750
14988SOL    HW246181   6.290   2.622   1.513 -0.3783 -1.8995  0.8529
14989SOL     OW46182   5.930   2.889   0.793 -0.0470 -0.6958 -0.5536
14989SOL    HW146183   5.860   2.947   0.763 -0.0729  0.6990  1.9773
14989SOL    HW246184   6.006   2.913   0.741 -0.0990  1.5560  0.3301
14990SOL     OW46185   6.023   3.247   1.711 -0.7702 -0.2364  0.4468
14990SOL    HW146186   6.036   3.310   1.782  0.0464  2.7341 -2.1247
14990SOL    HW246187   6.094   3.183   1.723  1.7297  2.3057  0.2852
14991SOL     OW46188   5.714   3.053   0.768  0.5065  0.3845 -0.1306
14991SOL    HW146189   5.667   3.060   0.851 -0.6119  0.7829 -0.7764
14991SOL    HW246190   5.710   3.141   0.730  0.3684  0.0371 -0.9479
14992SOL     OW46191   6.949   3.065   1.500  0.1348 -0.1320 -0.4037
14992SOL    HW146192   6.896   3.143   1.492  1.1459  0.4154 -2.7777
14992SOL    HW246193   7.006   3.081   1.575 -1.0043  0.5358  0.3324
14993SOL     OW46194   6.192   1.887   1.401  0.0924 -0.2434  0.0764
14993SOL    HW146195   6.110   1.935   1.403  0.6546  0.6991  1.1785
14993SOL    HW246196   6.255   1.943   1.445  0.4787 -2.5184  2.6863
14994SOL     OW46197   6.657   3.058   0.791 -0.6550 -0.2443 -0.3474
14994SOL    HW146198   6.571   3.077   0.826  0.0970  1.9736  0.4277
14994SOL    HW246199   6.648   3.072   0.696 -0.9680  0.7577 -0.1806
14995SOL     OW46200   5.389   3.280   0.681  0.1803 -0.2301  0.3254
14995SOL    HW146201   5.367   3.342   0.612 -0.3403  0.2240  0.8779
14995SOL    HW246202   5.476   3.248   0.659 -0.3471 -0.8045 -1.0412
14996SOL     OW46203   6.494   2.307   1.118  0.0991 -0.4691 -0.1802
14996SOL    HW146204   6.579   2.343   1.091  0.3758 -1.1462 -0.2291
14996SOL    HW246205   6.498   2.308   1.214 -0.6658  1.4186 -0.1213
14997SOL     OW46206   5.597   2.847   0.381 -0.3169  0.2660  0.4054
14997SOL    HW146207   5.592   2.901   0.303  1.2294  0.7440  0.5964
14997SOL    HW246208   5.623   2.761   0.350 -0.6526  0.1933  0.3164
14998SOL     OW46209   5.598   2.823   0.659 -0.2149 -0.0888  0.8537
14998SOL    HW146210   5.580   2.910   0.695  0.2153  0.0168  0.8189
14998SOL    HW246211   5.577   2.831   0.567  0.2937  0.1270  0.7483
14999SOL     OW46212   5.549   3.605   1.270  0.2791  0.5997 -0.2210
14999SOL    HW146213   5.483   3.665   1.305  0.3784  2.0041 -2.2467
14999SOL    HW246214   5.632   3.646   1.290  0.3431  1.2957 -1.7972
15000SOL     OW46215   6.168   3.028   0.244 -0.5476  0.2625 -0.2930
15000SOL    HW146216   6.095   3.083   0.272 -0.8768  0.3767 -1.3159
15000SOL    HW246217   6.184   3.054   0.153  2.2219  1.8002  0.5269
15001SOL     OW46218   7.068   1.977   1.060 -0.5749  0.3522  0.5542
15001SOL    HW146219   7.065   1.923   1.140 -0.3098 -0.4581  0.0283
15001SOL    HW246220   6.988   1.954   1.013  0.4335 -0.9994 -0.5605
15002SOL     OW46221   5.870   2.177   0.974  0.3893 -0.8406 -0.0858
15002SOL    HW146222   5.844   2.114   1.041 -0.7753 -1.6140 -1.2398
15002SOL    HW246223   5.837   2.141   0.892  1.3678  0.3316 -1.0313
15003SOL     OW46224   7.888   4.109   0.514 -0.2365 -0.3489  0.0179
15003SOL    HW146225   7.898   4.024   0.557  2.0832 -1.0402 -1.6992
15003SOL    HW246226   7.869   4.088   0.423  0.2791  0.9702 -0.4176
15004SOL     OW46227   5.221   3.362   8.806 -0.1769  0.2813  0.3185
15004SOL    HW146228   5.173   3.442   8.829 -0.9972 -0.2301  0.4124
15004SOL    HW246229   5.162   3.315   8.747 -0.0839 -0.7031  0.9972
15005SOL     OW46230   7.446   3.152   0.462 -0.2845 -0.3103 -0.4806
15005SOL    HW146231   7.471   3.193   0.379 -1.1382 -0.8738 -1.0307
15005SOL    HW246232   7.501   3.074   0.468  1.4464  0.9182  0.6369
15006SOL     OW46233   7.269   3.353   0.452  0.2764 -0.1554  0.5557
15006SOL    HW146234   7.339   3.417   0.457  0.7181 -0.7053  2.3728
15006SOL    HW246235   7.305   3.274   0.492 -0.8440 -0.9759  0.0315
15007SOL     OW46236   5.499   2.794   1.846 -0.1334  0.2198  0.4700
15007SOL    HW146237   5.458   2.873   1.811 -1.5810 -0.2309  1.0835
15007SOL    HW246238   5.463   2.723   1.793  0.8971 -0.0791  0.1479
15008SOL     OW46239   5.861   3.374   0.819 -0.2255  0.7090  0.2543
15008SOL    HW146240   5.829   3.376   0.909  2.1281 -2.3652  1.3344
15008SOL    HW246241   5.943   3.423   0.822 -0.7091  1.5951 -0.5458
15009SOL     OW46242   6.803   2.760   1.645  0.2614 -0.4917 -0.8170
15009SOL    HW146243   6.839   2.803   1.567 -0.7154 -0.0048 -1.0120
15009SOL    HW246244   6.719   2.804   1.660  0.5261 -0.4365  0.6323
15010SOL     OW46245   6.510   1.545   0.354 -0.8548 -0.3450 -0.0546
15010SOL    HW146246   6.487   1.500   0.272  1.0004  0.3943 -1.0435
15010SOL    HW246247   6.592   1.589   0.334  0.7690 -1.7728  2.8151
15011SOL     OW46248   5.584   2.769   1.077 -0.0300  0.2596  0.2003
15011SOL    HW146249   5.657   2.828   1.096 -0.3268  0.5070  0.5848
15011SOL    HW246250   5.595   2.746   0.985  0.2662  0.6677  0.1324
15012SOL     OW46251   7.204   3.063   0.048 -0.3392 -0.0182  0.3301
15012SOL    HW146252   7.272   3.019   0.098 -0.9237 -0.8368  0.4316
15012SOL    HW246253   7.180   3.001  -0.021 -0.8078  0.3532  0.1482
15013SOL     OW46254   7.132   3.842   1.748 -0.3056  0.3745  0.3991
15013SOL    HW146255   7.196   3.913   1.744 -0.3320  0.3415 -1.4715
15013SOL    HW246256   7.167   3.782   1.814  2.8541 -0.7309 -1.9936
15014SOL     OW46257   5.893   1.726   1.916  0.0434 -0.2441 -0.7511
15014SOL    HW146258   5.953   1.707   1.988 -1.0033  1.2096  0.5952
15014SOL    HW246259   5.919   1.813   1.885 -0.2256 -0.3764 -1.3552
15015SOL     OW46260   6.788   3.645   0.935 -0.2697 -0.3772  0.4106
15015SOL    HW146261   6.834   3.722   0.968  0.8412 -1.5205  1.6605
15015SOL    HW246262   6.702   3.678   0.908  0.3628  1.3682  0.4148
15016SOL     OW46263   6.770   4.204   0.391 -0.1749 -0.5347 -0.2507
15016SOL    HW146264   6.714   4.210   0.314  1.3810 -0.3395 -1.4172
15016SOL    HW246265   6.833   4.275   0.380 -2.5535  2.6033  3.5384
15017SOL     OW46266   5.973   2.570   0.337  0.1563 -0.2957  0.1316
15017SOL    HW146267   5.994   2.517   0.414  0.6995 -0.5436 -0.1800
15017SOL    HW246268   6.012   2.523   0.264  2.2019  1.3995  0.0385
15018SOL     OW46269   6.771   2.447   0.517  0.3921  0.3066 -0.2539
15018SOL    HW146270   6.795   2.385   0.448  0.5836  0.2578 -0.1438
15018SOL    HW246271   6.831   2.520   0.504  0.8754  0.0085  0.2774
15019SOL     OW46272   7.312   3.824   0.300 -0.1138 -0.2419  1.1280
15019SOL    HW146273   7.388   3.862   0.344 -0.1176  3.0169 -1.3153
15019SOL    HW246274   7.335   3.825   0.207 -2.1884 -1.5673  0.5407
15020SOL     OW46275   6.251   2.248   1.606  0.0853 -0.2069  0.8457
15020SOL    HW146276   6.295   2.307   1.667  0.0657  1.0796 -0.3272
15020SOL    HW246277   6.218   2.305   1.537  0.3682 -1.6286 -0.5365
15021SOL     OW46278   6.769   2.213   1.641 -1.1440  0.4467  0.0078
15021SOL    HW146279   6.778   2.250   1.729  1.6106 -0.8345  0.3814
15021SOL    HW246280   6.839   2.254   1.590 -1.0750 -0.6797 -0.8441
15022SOL     OW46281   6.705   2.663   1.311  0.1737  0.8017 -0.3280
15022SOL    HW146282   6.686   2.641   1.219 -0.9946 -1.2868  0.3405
15022SOL    HW246283   6.790   2.708   1.308  0.2431  0.6354 -2.4101
15023SOL     OW46284   6.152   1.897   1.083 -0.4795  0.4000 -0.2392
15023SOL    HW146285   6.177   1.883   1.175 -3.3666  0.2986  0.6538
15023SOL    HW246286   6.181   1.986   1.064  0.2838  0.3818  0.7163
15024SOL     OW46287   6.387   2.673   0.354 -0.1418  0.2297  0.2096
15024SOL    HW146288   6.440   2.667   0.434  2.2124 -1.0614 -1.3334
15024SOL    HW246289   6.297   2.673   0.385  0.6954  1.8246  2.9569
15025SOL     OW46290   5.970   2.634   1.291 -0.1353  0.1261 -0.6897
15025SOL    HW146291   5.896   2.603   1.342  0.6390  3.1039  2.5728
15025SOL    HW246292   5.932   2.686   1.221 -1.1830  1.1746  0.6264
15026SOL     OW46293   5.626   3.837   2.062 -0.1807  0.0879 -0.1374
15026SOL    HW146294   5.711   3.820   2.021 -0.9714  0.4015 -1.9868
15026SOL    HW246295   5.569   3.864   1.990 -2.0072 -0.6167  0.9697
15027SOL     OW46296   6.648   2.510   0.096 -0.2480  0.3606 -0.8586
15027SOL    HW146297   6.608   2.594   0.120  1.4095  1.5855 -2.1753
15027SOL    HW246298   6.731   2.510   0.143 -0.3584 -0.7124 -0.6432
15028SOL     OW46299   7.218   2.492   1.881  0.1801  0.6312  0.0114
15028SOL    HW146300   7.133   2.475   1.921 -0.1304 -0.2304 -0.9586
15028SOL    HW246301   7.236   2.584   1.899 -0.4698  0.5527  1.1146
15029SOL     OW46302   7.010   3.255   0.372  0.2308  0.1175 -0.3070
15029SOL    HW146303   6.985   3.322   0.436  0.2574 -0.7136  0.5864
15029SOL    HW246304   7.088   3.291   0.330 -0.4897  1.2226 -0.7639
15030SOL     OW46305   6.477   1.684   1.032 -0.6176 -0.1288  0.3332
15030SOL    HW146306   6.398   1.688   1.086 -0.5035  0.1750  0.4801
15030SOL    HW246307   6.547   1.661   1.094 -0.7372 -1.3404  0.0464
15031SOL     OW46308   6.321   3.753   1.144 -0.6841 -0.2496 -0.6107
15031SOL    HW146309   6.369   3.805   1.080 -0.8060  0.9248  0.2178
15031SOL    HW246310   6.307   3.812   1.218 -1.8016 -1.1270 -0.0805
15032SOL     OW46311   5.666   3.555   0.764  0.0702 -0.0800 -0.2844
15032SOL    HW146312   5.719   3.477   0.749  0.2521 -0.2830  1.2942
15032SOL    HW246313   5.594   3.525   0.819  1.4622  1.2799  2.4488
15033SOL     OW46314   7.372   2.975   0.770  0.2285 -0.3378 -0.1261
15033SOL    HW146315   7.299   3.036   0.782  0.6678  0.2061 -0.1822
15033SOL    HW246316   7.449   3.031   0.758  0.5262 -0.8973 -0.9379
15034SOL     OW46317   6.812   3.546   1.206 -0.5737  0.5026 -0.3760
15034SOL    HW146318   6.816   3.606   1.132  0.0308 -0.6740 -1.3324
15034SOL    HW246319   6.747   3.584   1.265 -0.3015  2.0073 -1.0097
15035SOL     OW46320   6.229   2.707   0.106  1.0074 -0.4949 -0.2429
15035SOL    HW146321   6.204   2.615   0.101  1.6808 -0.6292 -1.5656
15035SOL    HW246322   6.288   2.712   0.181  0.8218 -1.0969 -0.0543
15036SOL     OW46323   6.882   3.244   0.743  0.6084  0.0623  0.1466
15036SOL    HW146324   6.883   3.298   0.822  0.8772 -1.2949  1.1139
15036SOL    HW246325   6.810   3.183   0.757 -0.0322  0.4867 -1.1638
15037SOL     OW46326   6.052   3.054   2.286  0.1637 -0.0063 -0.1217
15037SOL    HW146327   6.075   2.970   2.245 -0.9216 -0.1053 -0.5482
15037SOL    HW246328   6.108   3.118   2.242  0.7750 -0.4542 -0.0142
15038SOL     OW46329   6.634   3.661   8.798 -0.3986  0.4974 -0.2518
15038SOL    HW146330   6.678   3.578   8.780 -0.9537  0.1850 -0.1945
15038SOL    HW246331   6.596   3.686   8.714 -0.3894  0.6002 -0.2249
15039SOL     OW46332   5.429   2.129   1.731  0.3751  0.4882 -0.0636
15039SOL    HW146333   5.427   2.136   1.636  0.4702  2.2871  0.0306
15039SOL    HW246334   5.449   2.218   1.761  0.5712 -0.0967  1.6270
15040SOL     OW46335   7.236   3.331   0.133 -0.3334  0.5359 -0.2127
15040SOL    HW146336   7.325   3.367   0.141  0.5214 -1.4878  0.1885
15040SOL    HW246337   7.249   3.236   0.138 -2.0984 -0.0644 -3.9059
15041SOL     OW46338   6.503   3.636   0.898  0.2596 -0.6401 -0.2897
15041SOL    HW146339   6.447   3.591   0.961  2.4721 -2.2396  0.6830
15041SOL    HW246340   6.449   3.647   0.820 -1.3829 -2.0826  0.5830
15042SOL     OW46341   6.888   2.228   0.104 -0.0225  0.3692 -0.0445
15042SOL    HW146342   6.945   2.163   0.145 -0.6848  0.0011  0.3021
15042SOL    HW246343   6.864   2.190   0.020 -2.4352 -1.0148  1.1816
15043SOL     OW46344   5.304   4.055   1.050 -0.8685 -0.0478 -0.0966
15043SOL    HW146345   5.376   3.999   1.080 -0.2835  0.8762  0.2840
15043SOL    HW246346   5.267   4.091   1.130  1.5071  3.4340 -0.3439
15044SOL     OW46347   6.336   3.562   1.387 -0.3848 -0.5096  0.3527
15044SOL    HW146348   6.248   3.540   1.357 -0.2736  0.2705 -0.6120
15044SOL    HW246349   6.368   3.626   1.323  1.4927 -1.9468 -0.2348
15045SOL     OW46350   6.173   2.582   8.626  0.2055  0.2106  0.4978
15045SOL    HW146351   6.177   2.490   8.600  0.0176  0.6799 -1.3025
15045SOL    HW246352   6.257   2.598   8.669  1.0371 -0.3216 -0.8744
15046SOL     OW46353   6.853   2.290   1.917  0.1941  0.4416  0.5461
15046SOL    HW146354   6.904   2.334   1.985 -1.1851  1.3573  1.0302
15046SOL    HW246355   6.815   2.361   1.866 -0.8950 -0.2098  0.4317
15047SOL     OW46356   6.260   1.978   1.946  0.1180  0.3872 -0.2216
15047SOL    HW146357   6.266   1.888   1.913 -3.9546 -0.4710  0.8226
15047SOL    HW246358   6.197   2.021   1.887 -1.0880  1.2752  1.6269
15048SOL     OW46359   6.510   3.164   1.419  0.6197 -0.2541 -0.3726
15048SOL    HW146360   6.513   3.189   1.326  1.2502 -1.4080 -0.6808
15048SOL    HW246361   6.488   3.071   1.418 -0.4415 -0.0386  0.6899
15049SOL     OW46362   6.475   2.020   1.050  0.3026 -0.2658  0.3019
15049SOL    HW146363   6.563   2.002   1.082  1.7016  0.6312 -2.7073
15049SOL    HW246364   6.462   2.114   1.067  0.0787 -0.3047  0.3563
15050SOL     OW46365   6.513   2.870   1.419  0.5035  0.6281 -0.0869
15050SOL    HW146366   6.567   2.800   1.381  0.1809 -0.7997  1.9356
15050SOL    HW246367   6.430   2.864   1.371  0.9829  0.6496 -0.9537
15051SOL     OW46368   6.425   2.285   0.585  0.0560 -0.1841 -0.0736
15051SOL    HW146369   6.503   2.237   0.553 -0.6069 -0.3634 -1.5249
15051SOL    HW246370   6.454   2.375   0.593  0.2254 -0.0930 -1.4368
15052SOL     OW46371   6.282   2.110   8.673 -0.1775  0.4243 -0.1549
15052SOL    HW146372   6.264   2.021   8.702  2.1070  0.0098  0.1238
15052SOL    HW246373   6.377   2.114   8.661 -0.2765  2.6511 -0.7439
15053SOL     OW46374   6.907   3.788   0.558  0.7051  0.2356  0.3659
15053SOL    HW146375   6.888   3.707   0.604 -0.2209 -1.7056 -3.0355
15053SOL    HW246376   6.989   3.772   0.512  0.5450  1.2118 -0.3135
15054SOL     OW46377   6.881   2.476   0.215 -0.0006 -0.1135 -0.0194
15054SOL    HW146378   6.971   2.508   0.217  0.5375 -1.5540  0.5572
15054SOL    HW246379   6.888   2.388   0.179 -1.3445  0.1858 -1.0820
15055SOL     OW46380   6.183   2.497   1.409 -0.4686  0.0986 -0.0092
15055SOL    HW146381   6.105   2.544   1.379  0.9071  1.7482 -1.2161
15055SOL    HW246382   6.219   2.458   1.330  0.8761  0.8459  0.2161
15056SOL     OW46383   6.554   3.939   1.022  0.0451 -0.1500  0.0873
15056SOL    HW146384   6.648   3.930   1.032  0.0489  1.4020  1.9870
15056SOL    HW246385   6.541   3.955   0.929  1.6071 -0.6692 -0.2472
15057SOL     OW46386   5.893   2.756   1.040  0.5398  0.2850  0.5597
15057SOL    HW146387   5.899   2.665   1.008 -1.3679  0.8559 -1.6739
15057SOL    HW246388   5.915   2.809   0.964  0.6153  1.7286  1.5648
15058SOL     OW46389   6.484   3.906   0.383  0.7243  0.6469 -0.4022
15058SOL    HW146390   6.543   3.938   0.452 -1.4986  1.8367  1.0686
15058SOL    HW246391   6.419   3.975   0.373 -1.3118 -1.2190 -0.8489
15059SOL     OW46392   6.959   2.570   8.760 -0.3144 -0.1634  0.4374
15059SOL    HW146393   6.956   2.615   8.845  0.1603 -0.0829  0.4178
15059SOL    HW246394   6.872   2.531   8.750 -0.3405 -0.2718  1.0152
15060SOL     OW46395   5.694   2.149   1.538 -0.3654 -0.2121 -0.0024
15060SOL    HW146396   5.776   2.158   1.490 -1.0921 -2.0236 -1.7378
15060SOL    HW246397   5.633   2.206   1.493 -0.1704  0.9986  1.1820
15061SOL     OW46398   6.386   2.046   1.526 -0.6598 -0.1248 -0.6265
15061SOL    HW146399   6.439   2.090   1.460 -0.0297  2.7329  1.5660
15061SOL    HW246400   6.320   2.110   1.551 -1.1805 -1.2615  1.1191
15062SOL     OW46401   6.597   2.229   8.827  0.0802 -0.1281 -0.1413
15062SOL    HW146402   6.654   2.306   8.837 -0.0544  0.0456 -0.6687
15062SOL    HW246403   6.657   2.158   8.805 -0.0483  0.4600 -2.7084
15063SOL     OW46404   6.196   1.513   0.784  0.2063 -0.4872 -0.0122
15063SOL    HW146405   6.211   1.513   0.689  0.9386 -0.4068  0.0919
15063SOL    HW246406   6.274   1.470   0.820 -0.6452 -1.6662  0.4830
15064SOL     OW46407   6.516   3.372   0.652  0.2363 -0.1020 -0.4899
15064SOL    HW146408   6.602   3.329   0.652  1.0693  1.4194  0.7225
15064SOL    HW246409   6.532   3.456   0.609 -0.7794  0.0145 -0.6647
15065SOL     OW46410   6.753   2.504   1.054  0.2899 -0.2929  0.5987
15065SOL    HW146411   6.833   2.467   1.091  1.1091  0.6336 -0.2073
15065SOL    HW246412   6.779   2.589   1.018 -0.8638 -0.3317 -0.4205
15066SOL     OW46413   7.098   2.998   0.369 -0.0924 -0.2083 -0.1688
15066SOL    HW146414   7.086   3.093   0.377  0.6202 -0.2504  1.8217
15066SOL    HW246415   7.009   2.962   0.376 -0.1297  0.1828  2.1880
15067SOL     OW46416   6.220   3.257   0.514  0.2998 -0.1999  0.4547
15067SOL    HW146417   6.139   3.279   0.470  0.4260 -0.9215 -0.1547
15067SOL    HW246418   6.193   3.226   0.601 -0.0135  0.3112  0.5404
15068SOL     OW46419   7.262   3.439   0.894  0.3983  0.1024  0.3674
15068SOL    HW146420   7.342   3.445   0.841 -0.5852  0.4286 -1.1249
15068SOL    HW246421   7.216   3.521   0.878 -0.3089 -0.1315  1.1253
15069SOL     OW46422   7.314   2.331   8.804 -0.5177  0.2468 -0.7502
15069SOL    HW146423   7.380   2.281   8.851 -1.1567 -0.4261 -0.5420
15069SOL    HW246424   7.333   2.316   8.711  0.9259  1.8103 -0.7540
15070SOL     OW46425   6.331   2.283   0.042  0.7066  0.1027 -0.4787
15070SOL    HW146426   6.425   2.269   0.027  0.8212 -0.1257  0.3851
15070SOL    HW246427   6.288   2.213  -0.007  1.0933 -0.9713  0.6717
15071SOL     OW46428   7.402   2.898   1.589 -0.3291 -0.4225  0.0401
15071SOL    HW146429   7.337   2.877   1.522 -0.5213  1.8805 -0.5774
15071SOL    HW246430   7.367   2.974   1.635  1.6714  0.6450 -0.0400
15072SOL     OW46431   6.834   3.299   1.547  0.2414  0.5180  0.5744
15072SOL    HW146432   6.878   3.349   1.479 -0.4791 -0.3336 -0.5452
15072SOL    HW246433   6.776   3.362   1.589  0.6348  1.0345  0.3555
15073SOL     OW46434   7.100   3.108   1.787  0.8643  0.0828  0.3479
15073SOL    HW146435   7.035   3.170   1.821 -0.7291 -1.1384 -0.3093
15073SOL    HW246436   7.111   3.044   1.858  1.0969  0.1112  0.3362
15074SOL     OW46437   6.762   3.115   1.162  0.3773  0.1257 -0.4518
15074SOL    HW146438   6.720   3.150   1.241  0.1818 -0.3962 -0.3193
15074SOL    HW246439   6.693   3.064   1.119  0.4451  0.5138 -1.0331
15075SOL     OW46440   7.177   3.190   0.806 -0.0229  0.0974 -0.7556
15075SOL    HW146441   7.094   3.223   0.770 -0.6728 -0.9538 -0.2776
15075SOL    HW246442   7.213   3.264   0.856  0.2829  1.1713 -2.5037
15076SOL     OW46443   6.242   1.527   1.558 -0.6809 -0.1536  0.3135
15076SOL    HW146444   6.184   1.454   1.536 -1.1370  0.2053  0.3251
15076SOL    HW246445   6.320   1.513   1.504 -1.4189  0.2241 -0.8698
15077SOL     OW46446   6.588   2.487   1.529  0.4729 -0.1649 -0.0640
15077SOL    HW146447   6.503   2.526   1.554  0.2547 -1.6625  1.7827
15077SOL    HW246448   6.621   2.545   1.460 -1.7047  0.8883 -0.3313
15078SOL     OW46449   6.572   2.764   0.195  0.5614  0.3599 -0.3160
15078SOL    HW146450   6.507   2.729   0.255 -0.4216 -0.4314 -1.8004
15078SOL    HW246451   6.597   2.848   0.233 -3.2190  1.9618 -0.9517
15079SOL     OW46452   5.781   2.592   1.441 -0.9030  0.1340  0.0639
15079SOL    HW146453   5.767   2.660   1.508 -2.2067  0.2064 -0.2504
15079SOL    HW246454   5.788   2.511   1.491 -0.7412  0.3319  0.3660
15080SOL     OW46455   6.342   1.998   0.814  0.1557  0.3189 -0.5773
15080SOL    HW146456   6.364   2.007   0.907 -2.7080 -0.7782  0.2924
15080SOL    HW246457   6.320   2.087   0.786 -0.0692  0.4870  0.1154
15081SOL     OW46458   5.899   2.969   1.801  0.2348 -0.2293 -0.1695
15081SOL    HW146459   5.891   2.965   1.896  0.0212 -2.1643 -0.2189
15081SOL    HW246460   5.925   3.059   1.782  2.4578 -0.3515  1.8791
15082SOL     OW46461   5.894   2.497   0.947  0.1142  0.0583 -0.0517
15082SOL    HW146462   5.822   2.528   0.891 -1.0778  1.6652  2.2184
15082SOL    HW246463   5.878   2.403   0.956 -0.7654  0.1154 -0.8738
15083SOL     OW46464   6.066   1.630   0.995 -0.4493 -0.0324 -0.4053
15083SOL    HW146465   6.111   1.611   0.912 -2.3817  1.5744 -1.9187
15083SOL    HW246466   6.089   1.720   1.014 -0.7695 -0.1038  0.3265
15084SOL     OW46467   6.338   3.651   0.428  0.0150  0.0377 -0.0635
15084SOL    HW146468   6.393   3.723   0.395  2.0772 -1.1978  0.4832
15084SOL    HW246469   6.340   3.663   0.523 -0.8555  0.0786 -0.0455
15085SOL     OW46470   6.827   3.344   0.977  0.0747 -0.6020 -0.1237
15085SOL    HW146471   6.789   3.427   1.006  0.7096  0.1369 -1.3094
15085SOL    HW246472   6.820   3.287   1.053 -1.8679  0.0049  0.2320
15086SOL     OW46473   6.807   2.355   0.771 -0.4569 -0.0028 -0.3934
15086SOL    HW146474   6.785   2.383   0.682  0.1290 -2.6476 -1.4602
15086SOL    HW246475   6.733   2.385   0.824  0.4302  4.0530 -1.1570
15087SOL     OW46476   5.764   3.406   1.067  0.1743 -0.1560  0.3847
15087SOL    HW146477   5.786   3.470   1.135  1.2744  2.5736 -2.2936
15087SOL    HW246478   5.672   3.386   1.082  0.3074  0.5180  2.4707
15088SOL     OW46479   5.920   2.569   1.841 -0.3032 -0.1831 -0.2668
15088SOL    HW146480   5.832   2.548   1.870  0.0021  0.3297  1.1059
15088SOL    HW246481   5.976   2.544   1.914  0.4429  1.7268 -0.1201
15089SOL     OW46482   7.017   2.746   1.809  0.1656 -0.1715  0.1835
15089SOL    HW146483   6.944   2.780   1.759  1.4660  1.3561 -0.7603
15089SOL    HW246484   7.025   2.806   1.884  0.2741 -0.5065  0.4436
15090SOL     OW46485   6.272   1.707   1.846 -1.1191  0.2583 -0.1644
15090SOL    HW146486   6.192   1.713   1.794  0.0172 -0.6993 -2.1412
15090SOL    HW246487   6.304   1.618   1.832 -0.2622  0.2530  1.4950
15091SOL     OW46488   5.943   1.981   1.631 -0.0635  0.4181  0.5833
15091SOL    HW146489   5.948   1.970   1.536  1.7663 -2.5007  0.9003
15091SOL    HW246490   5.854   1.954   1.654  0.3129 -1.6025 -0.1102
15092SOL     OW46491   6.238   2.770   1.298  0.3273 -0.0025  0.2584
15092SOL    HW146492   6.278   2.747   1.213  0.3143  0.1539  0.2106
15092SOL    HW246493   6.152   2.729   1.295  0.4019 -0.1615  0.2748
15093SOL     OW46494   6.496   3.069   1.127  0.2052  0.4319  0.2981
15093SOL    HW146495   6.419   3.071   1.184  0.7040  0.3079  0.9948
15093SOL    HW246496   6.461   3.076   1.039 -0.5543  1.0986  0.6461
15094SOL     OW46497   7.151   2.774   0.189 -0.1112  0.1599 -0.2300
15094SOL    HW146498   7.151   2.790   0.095 -1.3581 -0.4758 -0.3605
15094SOL    HW246499   7.141   2.861   0.228  0.1337  0.3963 -0.6917
15095SOL     OW46500   5.678   2.020   1.243  0.1125 -0.1034 -0.0958
15095SOL    HW146501   5.618   2.085   1.206 -0.7925 -0.0801  1.3350
15095SOL    HW246502   5.633   1.988   1.322  0.8492 -1.9466 -0.3666
15096SOL     OW46503   5.664   3.474   1.676 -0.1846  0.6999 -0.3674
15096SOL    HW146504   5.634   3.414   1.745  1.0813 -1.6003 -1.6763
15096SOL    HW246505   5.693   3.552   1.723 -2.8098  0.7682  1.3513
15097SOL     OW46506   6.136   2.534   0.809 -0.6141  0.0030  0.0164
15097SOL    HW146507   6.058   2.536   0.865 -0.5639  2.9331  0.1208
15097SOL    HW246508   6.206   2.503   0.866 -0.9296  1.1659  1.0569
15098SOL     OW46509   7.455   2.680   2.018  0.5081  0.1292 -0.1278
15098SOL    HW146510   7.521   2.689   2.087  1.4048 -1.0441 -0.7801
15098SOL    HW246511   7.496   2.719   1.940  0.8356 -1.3832 -0.7535
15099SOL     OW46512   6.048   2.375   0.499 -0.6965  0.2568 -0.0824
15099SOL    HW146513   6.124   2.348   0.448 -0.0481  0.1176  0.9262
15099SOL    HW246514   5.974   2.331   0.457 -0.4990  1.8038 -2.1589
15100SOL     OW46515   7.322   2.386   0.567 -0.2646  0.9418 -0.0491
15100SOL    HW146516   7.250   2.393   0.631  0.5642  0.8299  0.9216
15100SOL    HW246517   7.346   2.477   0.548 -0.5116  0.9759 -0.1997
15101SOL     OW46518   6.526   2.787   0.781 -0.0311  0.4726  0.3458
15101SOL    HW146519   6.463   2.858   0.774 -0.2966  0.2403  0.3920
15101SOL    HW246520   6.600   2.826   0.828  0.2420  1.0022 -0.5060
15102SOL     OW46521   6.458   2.968   1.702  0.0615 -0.5847 -0.0407
15102SOL    HW146522   6.524   2.980   1.770  0.2580  2.8258 -0.6577
15102SOL    HW246523   6.506   2.976   1.620 -0.9779  2.5789 -0.5115
15103SOL     OW46524   7.467   3.136   1.743 -0.3255 -0.1151  0.1883
15103SOL    HW146525   7.527   3.064   1.761  0.3013  0.6946  1.4263
15103SOL    HW246526   7.516   3.215   1.765 -1.7625  0.5755  1.0757
15104SOL     OW46527   6.078   2.703   1.656  0.1248  0.4180 -0.6391
15104SOL    HW146528   6.056   2.787   1.695  0.4078  0.3358 -0.3015
15104SOL    HW246529   6.040   2.638   1.715  1.5194  0.2602  0.1393
15105SOL     OW46530   7.469   2.680   0.256 -0.1122 -0.2484 -0.0074
15105SOL    HW146531   7.382   2.711   0.231 -1.0379 -2.9664 -0.4286
15105SOL    HW246532   7.463   2.665   0.351  0.4430  1.1026  0.2590
15106SOL     OW46533   7.182   2.840   8.760 -0.1163  0.5352 -0.1957
15106SOL    HW146534   7.220   2.752   8.768  0.1477  0.7011  0.4329
15106SOL    HW246535   7.132   2.837   8.679  0.0683 -0.1328 -0.2913
15107SOL     OW46536   6.239   3.069   1.302 -0.6530  0.3582 -0.0373
15107SOL    HW146537   6.177   3.097   1.370 -1.3883 -0.8074 -0.1886
15107SOL    HW246538   6.218   2.977   1.288  1.6251 -0.2764  0.4105
15108SOL     OW46539   5.711   2.483   1.174 -0.5350 -0.5438  0.0338
15108SOL    HW146540   5.741   2.528   1.095  0.8442 -1.7539 -0.1733
15108SOL    HW246541   5.663   2.550   1.223  0.5700  0.8729 -0.7348
15109SOL     OW46542   5.783   1.839   0.927  0.2101  0.0669 -0.1846
15109SOL    HW146543   5.746   1.766   0.877 -1.1740  1.4139 -1.2317
15109SOL    HW246544   5.718   1.856   0.995  0.7775  0.0045  0.3814
15110SOL     OW46545   6.761   1.938   1.729 -0.0697 -0.1251  0.3490
15110SOL    HW146546   6.720   2.022   1.707 -0.6329 -0.7038 -0.9036
15110SOL    HW246547   6.822   1.922   1.657 -0.6058 -1.2049  0.1124
15111SOL     OW46548   6.561   1.835   1.528 -0.4535 -0.1323  0.1179
15111SOL    HW146549   6.615   1.859   1.603 -2.1887 -0.3728  1.5005
15111SOL    HW246550   6.496   1.905   1.522  1.3792  1.5185 -3.0859
15112SOL     OW46551   5.384   3.987   0.787  0.7329  0.9437 -0.2434
15112SOL    HW146552   5.357   4.038   0.863 -2.1631  1.8788 -1.7305
15112SOL    HW246553   5.367   3.896   0.811  1.5141  1.0670  0.8100
15113SOL     OW46554   6.107   3.526   0.765  0.1667 -0.2077 -0.2469
15113SOL    HW146555   6.144   3.439   0.749  0.2054  0.0015 -1.3727
15113SOL    HW246556   6.134   3.548   0.855  0.9645 -0.9507 -0.2930
15114SOL     OW46557   6.246   2.370   1.174  0.4722 -0.1578 -0.2310
15114SOL    HW146558   6.337   2.359   1.145 -0.2268 -1.5444 -2.1373
15114SOL    HW246559   6.197   2.307   1.121 -1.3457 -0.9731  2.2413
15115SOL     OW46560   5.533   2.388   0.711 -0.2434  0.0505 -0.1841
15115SOL    HW146561   5.570   2.310   0.752 -0.2779 -0.3411 -0.8784
15115SOL    HW246562   5.527   2.366   0.618 -0.3328  0.8519 -0.3781
15116SOL     OW46563   5.662   2.579   1.945  0.4082 -0.2677 -0.0350
15116SOL    HW146564   5.596   2.510   1.940 -0.5288  0.4534  1.3785
15116SOL    HW246565   5.613   2.656   1.975  2.0094  0.0918  1.8651
15117SOL     OW46566   6.753   2.485   1.748  0.3574 -0.2849 -0.0300
15117SOL    HW146567   6.685   2.465   1.683 -1.2518  1.8959  0.8599
15117SOL    HW246568   6.789   2.569   1.719  1.6021 -0.6723  0.3706
15118SOL     OW46569   6.178   2.234   0.712 -0.3771  0.0526  0.2776
15118SOL    HW146570   6.267   2.245   0.678 -0.3519  0.8835  0.5916
15118SOL    HW246571   6.123   2.277   0.647 -0.5428 -0.3352  0.1578
15119SOL     OW46572   6.897   2.223   1.000 -0.0402  0.2998 -0.3311
15119SOL    HW146573   6.988   2.244   1.021 -0.0274 -0.3268  0.2795
15119SOL    HW246574   6.881   2.267   0.916  1.6681 -1.7341 -1.8499
15120SOL     OW46575   5.650   2.991   1.484 -0.3538  0.3619  0.1937
15120SOL    HW146576   5.658   3.080   1.449 -0.9679  0.4706  0.3209
15120SOL    HW246577   5.739   2.958   1.485 -0.2256  0.6440 -0.7333
15121SOL     OW46578   5.877   2.281   1.301  0.6031 -0.4253  0.5777
15121SOL    HW146579   5.927   2.346   1.350 -3.0684 -0.3050  4.7975
15121SOL    HW246580   5.829   2.331   1.235  0.4183  0.6634  1.5102
15122SOL     OW46581   6.451   3.384   1.567 -0.2954 -0.0067  0.3909
15122SOL    HW146582   6.473   3.301   1.524 -1.2750  0.0197 -0.1823
15122SOL    HW246583   6.391   3.427   1.507 -1.3320  0.2493  1.5672
15123SOL     OW46584   6.218   2.325   8.511  0.3757  0.1583 -0.0065
15123SOL    HW146585   6.196   2.301   8.421  1.5387  0.3966 -0.3810
15123SOL    HW246586   6.224   2.241   8.557  0.2924 -0.0007 -0.2789
15124SOL     OW46587   5.180   2.759   1.582 -0.2805 -0.3311 -0.2265
15124SOL    HW146588   5.257   2.780   1.529  0.2450 -1.4843  0.0530
15124SOL    HW246589   5.153   2.844   1.619  2.3908 -0.1671  1.7064
15125SOL     OW46590   7.090   3.121   1.093  0.4088 -0.6841 -0.8466
15125SOL    HW146591   6.995   3.112   1.100  0.4077  0.4704  1.7291
15125SOL    HW246592   7.106   3.132   0.999 -2.3653  2.5253 -1.1398
15126SOL     OW46593   6.858   2.801   0.352  0.7276 -0.1951  0.2221
15126SOL    HW146594   6.862   2.786   0.258  1.0574 -0.0464  0.2147
15126SOL    HW246595   6.906   2.727   0.390  1.5328  0.3189  0.2260
15127SOL     OW46596   6.983   3.423   1.342  0.0283  0.2929 -0.1128
15127SOL    HW146597   6.914   3.460   1.288  0.8967  0.5075 -1.1207
15127SOL    HW246598   7.054   3.403   1.280 -0.0255 -2.1631  0.4931
15128SOL     OW46599   6.842   3.884   1.028 -0.2584 -0.2785 -0.3579
15128SOL    HW146600   6.926   3.908   0.990 -0.8199  1.3960 -0.6274
15128SOL    HW246601   6.849   3.909   1.120 -0.4377 -0.1896 -0.3677
15129SOL     OW46602   5.642   3.070   1.099  0.3793 -0.1741  0.1318
15129SOL    HW146603   5.670   3.113   1.180 -0.3783  2.2372 -0.7677
15129SOL    HW246604   5.547   3.083   1.097  0.3750 -0.2574 -1.0733
15130SOL     OW46605   6.387   3.653   2.120  0.0282 -0.4215  0.0229
15130SOL    HW146606   6.434   3.723   2.164  1.4774 -1.1880 -0.2436
15130SOL    HW246607   6.338   3.698   2.051  1.0895  0.3360 -0.2787
15131SOL     OW46608   6.959   2.271   8.661  0.0324 -0.2483 -0.1724
15131SOL    HW146609   7.013   2.309   8.730  0.0059 -0.3241 -0.1090
15131SOL    HW246610   6.905   2.344   8.629 -1.3523 -0.6019  1.2024
15132SOL     OW46611   7.472   2.167   0.534  0.1506 -0.4469  0.3083
15132SOL    HW146612   7.484   2.135   0.623 -0.3865  0.9873  0.9243
15132SOL    HW246613   7.413   2.242   0.543 -2.5873 -2.1605 -1.6175
15133SOL     OW46614   6.615   3.633   0.563  0.0633  0.8149 -0.8049
15133SOL    HW146615   6.685   3.697   0.553  0.1179  0.5715 -2.2237
15133SOL    HW246616   6.596   3.605   0.473  0.0037 -1.1141 -0.2307
15134SOL     OW46617   5.957   3.557   2.071  0.1773  0.0055 -0.7742
15134SOL    HW146618   6.001   3.472   2.072 -3.4107 -2.0393  1.2212
15134SOL    HW246619   5.989   3.602   2.149  0.8140 -0.2202 -0.9003
15135SOL     OW46620   6.863   3.401   0.535 -0.1233  0.1775 -0.3431
15135SOL    HW146621   6.885   3.479   0.586 -0.8440  0.7408 -0.8707
15135SOL    HW246622   6.838   3.336   0.601 -1.0461  0.8949  0.0483
15136SOL     OW46623   5.924   2.913   1.505 -0.0064 -0.3191 -0.0971
15136SOL    HW146624   5.980   2.836   1.493  0.3429 -0.1206  0.2336
15136SOL    HW246625   5.934   2.935   1.597 -0.0199  0.1846 -0.2159
15137SOL     OW46626   6.271   3.322   0.783 -0.3136  0.1074 -0.0250
15137SOL    HW146627   6.276   3.329   0.878  0.6492 -0.2131 -0.0431
15137SOL    HW246628   6.354   3.357   0.752  0.0093 -1.1926 -0.6663
15138SOL     OW46629   6.867   3.556   1.707  0.1629  0.4178  0.3724
15138SOL    HW146630   6.796   3.585   1.650 -0.2385  0.2397  0.7752
15138SOL    HW246631   6.847   3.594   1.792 -0.1367 -0.6571  0.8050
15139SOL     OW46632   7.475   1.820   0.717  0.6851  0.0650 -0.0840
15139SOL    HW146633   7.419   1.788   0.788 -0.1490 -0.6546 -1.0379
15139SOL    HW246634   7.519   1.897   0.754 -2.0039  1.5350  0.2710
15140SOL     OW46635   6.054   1.907   0.785 -0.4823 -0.1370 -0.1886
15140SOL    HW146636   6.143   1.920   0.819 -0.0466 -0.4333 -1.1820
15140SOL    HW246637   6.007   1.863   0.855  0.7429 -1.8774 -0.4096
15141SOL     OW46638   6.597   3.219   0.039  0.2411  0.0939 -0.0554
15141SOL    HW146639   6.506   3.229   0.067  0.4681  1.8582  0.1265
15141SOL    HW246640   6.647   3.220   0.120  0.4930 -0.1748 -0.2059
15142SOL     OW46641   5.939   2.964   1.217 -0.2078 -0.2980 -0.0900
15142SOL    HW146642   5.896   2.903   1.158  0.1691  0.1714 -0.8702
15142SOL    HW246643   5.913   2.935   1.305  0.5822 -2.0335 -0.3934
15143SOL     OW46644   6.146   2.680   0.515 -0.2927 -0.0604 -0.1179
15143SOL    HW146645   6.065   2.672   0.463  0.7669 -0.6002 -1.7504
15143SOL    HW246646   6.129   2.626   0.592 -1.4871 -0.1817 -0.4315
15144SOL     OW46647   6.742   3.588   8.471 -0.2419  0.1173 -0.2561
15144SOL    HW146648   6.735   3.683   8.468 -0.8850  0.0660 -0.5557
15144SOL    HW246649   6.652   3.557   8.482 -0.0954 -0.4650 -0.6234
15145SOL     OW46650   6.445   3.278   1.838 -0.3164  0.3320 -0.3886
15145SOL    HW146651   6.471   3.320   1.756  0.1336  1.6854  0.4116
15145SOL    HW246652   6.514   3.303   1.900  1.1301 -3.2483 -0.2821
15146SOL     OW46653   7.323   3.023   1.278 -0.2712 -0.1607 -0.4111
15146SOL    HW146654   7.285   3.029   1.190  1.2374 -1.3431 -1.1823
15146SOL    HW246655   7.275   2.951   1.319 -1.0564  0.4673 -0.2051
15147SOL     OW46656   6.366   3.039   0.845 -0.0668  0.0183  0.0319
15147SOL    HW146657   6.275   3.010   0.852 -0.4670  0.8470 -1.2606
15147SOL    HW246658   6.359   3.131   0.821  1.1474  0.5795  1.6293
15148SOL     OW46659   6.567   1.819   0.806  0.3740  0.3112  0.3678
15148SOL    HW146660   6.486   1.862   0.777  0.5470 -0.4701 -1.4285
15148SOL    HW246661   6.538   1.759   0.874 -0.3126  1.1430  0.8356
15149SOL     OW46662   6.152   2.938   0.623 -0.8674 -0.2272  0.4114
15149SOL    HW146663   6.227   2.956   0.567 -0.1172 -1.1546  1.0874
15149SOL    HW246664   6.139   2.843   0.616 -1.6688 -0.1439  0.6783
15150SOL     OW46665   7.028   2.099   1.376 -0.3651  1.0251  0.1275
15150SOL    HW146666   7.110   2.113   1.327 -0.2781  1.0088  0.2686
15150SOL    HW246667   6.999   2.187   1.400  0.2591  0.9717  1.1426
15151SOL     OW46668   6.229   3.321   1.062  0.4298 -0.3008  0.1752
15151SOL    HW146669   6.173   3.270   1.121 -0.8813  0.2365 -0.5527
15151SOL    HW246670   6.212   3.412   1.086  0.3702 -0.1054 -0.5880
15152SOL     OW46671   5.733   2.724   1.694 -0.0079  0.3206 -0.0444
15152SOL    HW146672   5.801   2.676   1.742 -1.1066 -1.7973 -0.4517
15152SOL    HW246673   5.683   2.768   1.763  0.5372  0.1989  0.4426
15153SOL     OW46674   6.554   2.195   1.367 -0.1735 -0.2003  0.2495
15153SOL    HW146675   6.601   2.257   1.423  0.2845 -0.2770 -0.0402
15153SOL    HW246676   6.624   2.143   1.326 -0.5198 -0.3821 -0.1103
15154SOL     OW46677   5.497   1.861   8.421  0.0067 -0.1249 -0.1913
15154SOL    HW146678   5.575   1.809   8.441 -0.2145  0.0829  1.3112
15154SOL    HW246679   5.531   1.949   8.403  0.4088 -0.7438 -3.0032
15155SOL     OW46680   6.923   2.830   1.402 -0.1455  0.5062  0.1561
15155SOL    HW146681   7.015   2.806   1.409 -0.2718 -0.3646 -0.9435
15155SOL    HW246682   6.922   2.924   1.418  0.8302  0.4048  0.9243
15156SOL     OW46683   5.857   2.145   8.454 -0.6992 -0.7057 -0.0767
15156SOL    HW146684   5.944   2.112   8.476 -0.3542 -1.1481 -1.9482
15156SOL    HW246685   5.872   2.206   8.382 -1.8241  0.2017  0.4226
15157SOL     OW46686   6.938   3.556   0.730 -0.5303  0.4242  0.3455
15157SOL    HW146687   6.886   3.554   0.811  0.0538  0.9276  0.7413
15157SOL    HW246688   7.023   3.591   0.757  0.0422 -0.4421 -0.2760
15158SOL     OW46689   5.966   2.402   1.570  0.6722  0.5122 -0.1229
15158SOL    HW146690   5.959   2.420   1.663 -1.3244  2.7034 -0.5891
15158SOL    HW246691   6.045   2.450   1.542 -0.1982  2.1187  0.0466
15159SOL     OW46692   6.704   3.994   0.543  0.3584  0.5407 -0.2011
15159SOL    HW146693   6.787   3.946   0.551  0.4533  0.5032 -1.2277
15159SOL    HW246694   6.725   4.066   0.483 -0.3467  0.5463 -0.4472
15160SOL     OW46695   6.094   2.148   1.780  0.6334  0.1922 -0.1352
15160SOL    HW146696   6.132   2.212   1.720  1.0722 -0.7021 -0.8403
15160SOL    HW246697   6.064   2.077   1.723 -1.1930  0.4031  0.4831
15161SOL     OW46698   6.956   2.970   2.009  0.1861 -0.8215  0.4268
15161SOL    HW146699   6.881   2.971   2.069  0.5327  0.1838  0.8762
15161SOL    HW246700   7.033   2.966   2.067  0.4922 -1.3125 -0.0090
15162SOL     OW46701   5.864   3.679   1.819  0.6341 -0.4754 -0.4710
15162SOL    HW146702   5.908   3.660   1.902 -0.6470 -1.8287 -0.0643
15162SOL    HW246703   5.856   3.774   1.817 -1.4208 -0.5027  2.1206
15163SOL     OW46704   7.014   2.439   1.164  0.7843  0.1302 -0.1526
15163SOL    HW146705   7.077   2.368   1.168  0.5479 -0.1411 -1.0082
15163SOL    HW246706   7.066   2.518   1.147  0.8967 -0.1180 -1.0257
15164SOL     OW46707   6.886   2.739   0.943 -0.0549  0.5004 -0.4753
15164SOL    HW146708   6.885   2.814   1.003 -0.0243 -0.6591  1.0361
15164SOL    HW246709   6.979   2.718   0.932 -0.0950  0.0256  0.0064
15165SOL     OW46710   6.150   2.204   0.996  0.0403 -0.0547  0.4002
15165SOL    HW146711   6.057   2.219   1.011 -0.1125 -1.2320  0.7309
15165SOL    HW246712   6.164   2.227   0.904 -0.8699 -1.1808 -0.0340
15166SOL     OW46713   6.769   2.103   1.222 -0.6996  0.0420  0.2135
15166SOL    HW146714   6.806   2.147   1.146 -2.2632  1.1008  0.0147
15166SOL    HW246715   6.839   2.104   1.287  0.0485  0.7669 -0.5878
15167SOL     OW46716   7.199   2.784   1.431  0.0551 -0.2956  0.0567
15167SOL    HW146717   7.198   2.714   1.497  1.3182 -0.0885  0.3236
15167SOL    HW246718   7.242   2.745   1.355  0.2787  0.0358  0.0124
15168SOL     OW46719   6.919   3.095   0.127 -0.0596 -0.0329 -0.5632
15168SOL    HW146720   7.009   3.128   0.120 -0.0101 -0.2063 -0.7475
15168SOL    HW246721   6.873   3.163   0.176  0.2953 -0.1835 -0.0045
15169SOL     OW46722   6.047   3.503   1.281 -0.0202  0.5302 -0.1211
15169SOL    HW146723   6.027   3.409   1.284 -0.4558  0.5512 -1.5484
15169SOL    HW246724   5.964   3.544   1.254  0.6724  1.1042 -1.4754
15170SOL     OW46725   6.120   2.983   0.967  0.5563 -0.1677 -0.7963
15170SOL    HW146726   6.070   3.008   1.044 -0.7588  0.5680 -1.8336
15170SOL    HW246727   6.057   2.939   0.910  1.3361 -0.1660 -1.7006
15171SOL     OW46728   6.763   3.289   0.267  0.6005 -0.3908 -0.0090
15171SOL    HW146729   6.820   3.266   0.340 -0.9422 -2.8054  0.5288
15171SOL    HW246730   6.733   3.377   0.287  0.5941 -0.8081  2.0350
15172SOL     OW46731   7.557   3.191   0.864 -0.3663 -0.8537  0.1132
15172SOL    HW146732   7.505   3.212   0.942 -1.5871 -0.3499 -0.8065
15172SOL    HW246733   7.551   3.269   0.809  1.6243 -0.6769  0.0876
15173SOL     OW46734   5.778   3.275   2.118 -0.4976 -0.4761  0.3155
15173SOL    HW146735   5.784   3.311   2.206  1.0317  0.9611 -0.3247
15173SOL    HW246736   5.810   3.345   2.061 -2.0537 -1.1216 -1.4674
15174SOL     OW46737   5.965   3.182   0.360  0.1610 -0.2894  0.2576
15174SOL    HW146738   5.932   3.124   0.429  0.8877  0.4061  1.2185
15174SOL    HW246739   5.886   3.212   0.314 -0.1887 -2.6220 -0.7780
15175SOL     OW46740   6.567   3.473   1.981 -0.0497 -0.3132  0.1296
15175SOL    HW146741   6.484   3.514   2.005  0.5423 -0.4736  2.7103
15175SOL    HW246742   6.627   3.546   1.965  0.2303 -0.1301  1.8497
15176SOL     OW46743   7.278   1.864   1.318  0.3607  0.1940 -0.1736
15176SOL    HW146744   7.286   1.881   1.412  1.9616 -1.0238 -0.0373
15176SOL    HW246745   7.188   1.835   1.306 -0.3634  1.9816  0.6850
15177SOL     OW46746   6.416   1.718   0.088  0.2862 -0.4941 -0.7714
15177SOL    HW146747   6.401   1.792   0.146  1.6376  1.5478 -2.8324
15177SOL    HW246748   6.382   1.747   0.003 -2.5217 -3.7142 -0.9965
15178SOL     OW46749   7.410   3.262   1.396  0.3517 -0.1268 -0.0449
15178SOL    HW146750   7.381   3.187   1.345 -1.1838 -1.8896  3.1344
15178SOL    HW246751   7.501   3.242   1.418  0.3398 -0.4121 -0.2531
15179SOL     OW46752   5.600   2.237   1.081 -0.5659  0.1308  0.5003
15179SOL    HW146753   5.647   2.314   1.112  0.6590 -0.2875 -0.2505
15179SOL    HW246754   5.508   2.263   1.082 -0.2156  1.4377  0.6983
15180SOL     OW46755   6.321   3.696   0.706 -0.5171  0.0934 -0.2642
15180SOL    HW146756   6.295   3.784   0.678 -0.3460  0.5259  0.8928
15180SOL    HW246757   6.238   3.650   0.716 -0.6324  0.2626 -0.4155
15181SOL     OW46758   6.830   1.845   0.914  0.4476 -0.3171 -0.3068
15181SOL    HW146759   6.813   1.776   0.978 -0.9583  0.9806  0.8178
15181SOL    HW246760   6.747   1.854   0.867  0.8109  0.1690 -0.8618
15182SOL     OW46761   6.791   1.637   1.128 -0.5259 -0.0656  0.0884
15182SOL    HW146762   6.798   1.542   1.124  0.2569 -0.0113 -0.0453
15182SOL    HW246763   6.777   1.656   1.221  0.0549 -0.2781  0.2286
15183SOL     OW46764   6.561   3.136   0.544  0.0573  1.1243  0.5109
15183SOL    HW146765   6.500   3.202   0.575 -1.0497 -0.2973  1.4644
15183SOL    HW246766   6.507   3.072   0.499  1.2334  1.3484 -1.3529
15184SOL     OW46767   5.813   3.291   1.527  0.2796  0.0024 -0.4231
15184SOL    HW146768   5.885   3.245   1.569  1.7180  1.8514 -0.7383
15184SOL    HW246769   5.788   3.359   1.589 -0.0126  0.4805 -1.0475
15185SOL     OW46770   7.033   2.054   0.254 -0.6165  0.2652 -0.0892
15185SOL    HW146771   7.082   1.973   0.241 -0.4618  0.5363 -1.4342
15185SOL    HW246772   7.100   2.119   0.276 -0.6422  0.1824  0.2280
15186SOL     OW46773   6.520   2.562   0.623 -0.2726  0.1154  0.1708
15186SOL    HW146774   6.594   2.585   0.567 -0.4015 -0.0905 -0.0882
15186SOL    HW246775   6.532   2.614   0.702  1.5243 -1.7644  1.1923
15187SOL     OW46776   7.061   2.491   0.737 -0.2326  0.1888  0.1643
15187SOL    HW146777   6.990   2.432   0.759  1.1064 -1.1554  1.0851
15187SOL    HW246778   7.068   2.549   0.812 -0.2667  0.2396  0.1287
15188SOL     OW46779   5.832   3.012   0.511 -0.0308  0.4957  0.1077
15188SOL    HW146780   5.795   2.941   0.459  0.3912  0.3336  0.0270
15188SOL    HW246781   5.767   3.027   0.580 -0.3906  0.4221 -0.2099
15189SOL     OW46782   6.620   3.606   0.261 -0.2166  0.3392 -0.2204
15189SOL    HW146783   6.712   3.632   0.264 -0.2398  0.3345  0.7946
15189SOL    HW246784   6.599   3.605   0.167  1.1282 -0.7867 -0.5594
15190SOL     OW46785   5.448   2.401   1.820 -0.4251  0.4938 -0.5144
15190SOL    HW146786   5.364   2.444   1.834 -0.6679 -0.2453  0.4094
15190SOL    HW246787   5.484   2.443   1.742 -0.3289  2.8083  0.7147
15191SOL     OW46788   5.492   2.100   2.620 -0.4444  0.4950  0.4518
15191SOL    HW146789   5.405   2.139   2.612 -0.6684  0.1039  0.9373
15191SOL    HW246790   5.480   2.009   2.594 -0.4681  0.0986  1.7887
15192SOL     OW46791   4.862   2.286   2.830 -0.2742  0.3246 -0.0672
15192SOL    HW146792   4.803   2.331   2.769 -1.7826 -0.6310  0.6350
15192SOL    HW246793   4.842   2.324   2.916  0.1809  0.0335  0.1723
15193SOL     OW46794   6.185   2.950   3.058  0.0039  0.2383 -0.1531
15193SOL    HW146795   6.145   3.004   3.126  2.1547 -1.4708  2.7079
15193SOL    HW246796   6.115   2.893   3.027 -1.2338  1.6728 -0.0650
15194SOL     OW46797   7.091   3.197   2.437  0.1010 -0.3307  0.6865
15194SOL    HW146798   7.010   3.225   2.480 -0.6208 -0.3790 -0.6064
15194SOL    HW246799   7.066   3.121   2.384  0.6626  0.4853 -0.8206
15195SOL     OW46800   6.426   2.644   2.716 -0.2217 -0.6618  0.1824
15195SOL    HW146801   6.372   2.603   2.784 -0.8404  0.1546  0.1983
15195SOL    HW246802   6.390   2.732   2.707  1.3190  0.0203  0.4286
15196SOL     OW46803   7.246   2.211   1.779  0.1462 -0.1259 -0.5959
15196SOL    HW146804   7.159   2.172   1.771  0.1652 -0.1178 -0.8776
15196SOL    HW246805   7.231   2.294   1.825  0.1709 -0.6704  0.4206
15197SOL     OW46806   6.002   2.706   2.742 -0.7455  0.2461 -0.3756
15197SOL    HW146807   6.096   2.708   2.724 -0.8286  0.1807 -0.8271
15197SOL    HW246808   5.964   2.768   2.680 -0.6679  2.8706  1.9992
15198SOL     OW46809   6.370   2.642   3.552  0.6254  0.2966 -0.2517
15198SOL    HW146810   6.463   2.627   3.569  0.3269 -0.1603  1.1433
15198SOL    HW246811   6.368   2.696   3.473  2.0437 -0.2387 -0.6837
15199SOL     OW46812   5.899   2.515   2.267 -0.7313  0.0579  0.0562
15199SOL    HW146813   5.889   2.473   2.352 -0.2621  1.0740  0.6275
15199SOL    HW246814   5.828   2.579   2.263 -0.8550 -0.1024 -0.3949
15200SOL     OW46815   6.205   2.752   3.705 -0.1681 -0.3214  0.2990
15200SOL    HW146816   6.275   2.705   3.658  0.6523  0.3359  0.8393
15200SOL    HW246817   6.164   2.807   3.638 -0.4881 -1.0583 -0.1223
15201SOL     OW46818   5.859   3.088   2.458  0.1468 -0.8315  0.5740
15201SOL    HW146819   5.791   3.022   2.442 -0.7656 -0.0160  0.9994
15201SOL    HW246820   5.901   3.099   2.373 -0.1216 -1.4889  0.3447
15202SOL     OW46821   7.160   3.220   3.231 -0.2513 -0.4691  0.4116
15202SOL    HW146822   7.077   3.250   3.269  0.3437 -0.8781  2.0962
15202SOL    HW246823   7.140   3.134   3.195 -0.3762 -0.9389  1.5759
15203SOL     OW46824   6.044   2.272   3.362  0.4156  0.2084  0.1808
15203SOL    HW146825   5.966   2.281   3.307  0.3884 -0.6423  0.0719
15203SOL    HW246826   6.018   2.313   3.445 -1.0695 -2.1635  1.0136
15204SOL     OW46827   7.117   1.928   1.742 -0.4384 -0.3723  0.6360
15204SOL    HW146828   7.035   1.936   1.694 -0.8380  0.6571  1.4366
15204SOL    HW246829   7.111   1.843   1.786 -1.1633 -0.2233  0.8353
15205SOL     OW46830   5.726   3.499   2.751 -0.3115  0.0836  0.0621
15205SOL    HW146831   5.695   3.570   2.695  0.8802 -1.0027 -2.1124
15205SOL    HW246832   5.817   3.522   2.770 -0.1493 -0.4622 -0.0323
15206SOL     OW46833   6.436   3.181   3.687 -0.1249 -0.3090  0.1544
15206SOL    HW146834   6.528   3.202   3.671 -0.3297  0.4666 -0.0930
15206SOL    HW246835   6.433   3.152   3.778  0.1884  0.9070  0.5814
15207SOL     OW46836   5.573   2.968   2.993  0.1563 -0.3079  0.1785
15207SOL    HW146837   5.537   2.881   2.978 -1.2356  0.0154  1.4748
15207SOL    HW246838   5.612   2.993   2.909  0.1463 -1.9632 -0.3394
15208SOL     OW46839   5.699   2.817   2.788 -0.0651  0.5788 -0.3158
15208SOL    HW146840   5.667   2.780   2.705  3.0488 -2.0703 -0.5629
15208SOL    HW246841   5.682   2.748   2.853  1.6425  0.6456  0.2412
15209SOL     OW46842   6.142   3.661   3.863  0.1541 -0.0813  0.4034
15209SOL    HW146843   6.068   3.609   3.893 -0.5376  0.7761  0.2392
15209SOL    HW246844   6.103   3.728   3.806  1.2026 -0.4897 -0.8720
15210SOL     OW46845   6.520   2.701   1.852 -0.1650  0.1206  0.1742
15210SOL    HW146846   6.514   2.791   1.884 -0.9827 -0.4768  1.7993
15210SOL    HW246847   6.488   2.706   1.761  0.9753  1.6449 -0.1905
15211SOL     OW46848   6.951   2.025   3.390  0.4503  0.2557 -0.0406
15211SOL    HW146849   6.937   2.120   3.397  0.2603  0.4614 -2.3130
15211SOL    HW246850   7.037   2.017   3.349  0.2376 -0.5226 -0.3426
15212SOL     OW46851   5.029   2.321   2.444 -0.8351  0.3257 -0.1746
15212SOL    HW146852   5.040   2.287   2.533 -1.8184 -0.8513 -0.4706
15212SOL    HW246853   4.950   2.278   2.412  0.2622 -0.3654 -2.1283
15213SOL     OW46854   7.482   3.677   2.315  0.2945 -0.0039  0.0752
15213SOL    HW146855   7.419   3.609   2.290  1.6976 -1.7039  0.9764
15213SOL    HW246856   7.542   3.684   2.240  0.3424  0.0201  0.1154
15214SOL     OW46857   5.287   3.499   2.142 -0.1753 -0.0002  0.6465
15214SOL    HW146858   5.267   3.549   2.063 -1.1914 -0.8805  0.3280
15214SOL    HW246859   5.338   3.559   2.196  0.9612  0.4582 -0.8711
15215SOL     OW46860   7.492   2.508   2.432  0.3688  0.5256 -0.1766
15215SOL    HW146861   7.438   2.573   2.478 -1.8710 -2.6536  2.0942
15215SOL    HW246862   7.430   2.461   2.375  1.0419 -1.9875  1.0474
15216SOL     OW46863   7.167   2.976   2.188 -0.3884  0.5408 -0.0610
15216SOL    HW146864   7.239   3.003   2.130  0.8950  0.8674  1.5929
15216SOL    HW246865   7.193   2.889   2.218 -2.4441 -0.8814 -2.0873
15217SOL     OW46866   5.646   2.807   3.592  0.2856  0.6848  0.4419
15217SOL    HW146867   5.731   2.828   3.631  0.3344  1.7662 -0.1711
15217SOL    HW246868   5.656   2.833   3.500  0.1751 -1.7342 -0.3266
15218SOL     OW46869   6.210   3.209   2.609  0.2145 -0.2952  0.3440
15218SOL    HW146870   6.177   3.124   2.582  0.6340 -0.6495  0.9067
15218SOL    HW246871   6.304   3.196   2.621  0.2374  0.1674  0.7322
15219SOL     OW46872   6.898   3.067   3.070  0.2801  0.1535  0.3781
15219SOL    HW146873   6.821   3.123   3.081 -0.3895 -0.8258  0.7544
15219SOL    HW246874   6.933   3.055   3.158  2.0551  2.1841  0.0293
15220SOL     OW46875   6.451   1.819   2.710 -0.6205  0.5674 -0.7368
15220SOL    HW146876   6.367   1.782   2.682 -0.4210 -2.7901  2.2502
15220SOL    HW246877   6.516   1.767   2.663 -0.1902  1.8805 -1.6274
15221SOL     OW46878   5.583   2.678   2.584 -0.1772  0.8866 -0.1262
15221SOL    HW146879   5.611   2.675   2.493  0.4961  1.3307  0.0550
15221SOL    HW246880   5.527   2.602   2.595 -0.0798  0.7068 -0.8526
15222SOL     OW46881   6.896   2.653   2.018  0.5191  0.3907  0.1096
15222SOL    HW146882   6.817   2.602   2.036  2.7522 -4.0858 -1.2299
15222SOL    HW246883   6.891   2.674   1.925  0.7324  0.3913  0.0972
15223SOL     OW46884   6.465   3.379   3.452  0.2640  0.3755  0.7211
15223SOL    HW146885   6.516   3.454   3.422 -0.7252  0.8844  0.2500
15223SOL    HW246886   6.494   3.307   3.396  0.8357  0.5296  0.8111
15224SOL     OW46887   5.923   2.430   3.619 -0.2542 -0.1195 -0.2898
15224SOL    HW146888   5.975   2.365   3.666 -0.1787 -1.2648 -1.8920
15224SOL    HW246889   5.910   2.501   3.682  0.3941 -1.3035  1.2182
15225SOL     OW46890   6.812   3.029   2.247  0.8523 -1.0816  0.1430
15225SOL    HW146891   6.740   3.017   2.308  2.0211 -1.0454  1.6021
15225SOL    HW246892   6.809   3.122   2.225 -1.8198 -1.7203 -2.8789
15226SOL     OW46893   7.150   4.047   2.582 -0.0171 -0.4016  0.6196
15226SOL    HW146894   7.234   4.033   2.626  1.0770 -0.0258 -1.2797
15226SOL    HW246895   7.110   4.120   2.629  1.5589  0.6341  0.4166
15227SOL     OW46896   6.053   2.473   2.059  0.2580  0.2233  0.2285
15227SOL    HW146897   6.140   2.457   2.096 -0.4458  0.0849  1.9474
15227SOL    HW246898   5.996   2.480   2.136 -1.2256  0.4600 -0.8541
15228SOL     OW46899   6.964   2.177   2.889  0.1209 -0.0383  0.1577
15228SOL    HW146900   6.886   2.136   2.927  0.4431 -0.8332 -0.0175
15228SOL    HW246901   6.958   2.157   2.795  0.1447  0.5561  0.0244
15229SOL     OW46902   7.305   3.479   2.250 -0.5084 -0.6266  0.3489
15229SOL    HW146903   7.242   3.509   2.316 -1.3085 -1.3825 -0.0627
15229SOL    HW246904   7.256   3.420   2.194  0.0511  0.3220 -1.2051
15230SOL     OW46905   6.067   2.540   3.109 -0.2832  0.0154  0.4652
15230SOL    HW146906   6.004   2.601   3.148 -1.8128 -0.6651 -0.8364
15230SOL    HW246907   6.013   2.476   3.063  1.3932 -0.1746 -1.3467
15231SOL     OW46908   6.791   2.244   3.515 -0.7675  0.1432  0.1944
15231SOL    HW146909   6.739   2.166   3.533  0.0161 -0.5841 -0.5658
15231SOL    HW246910   6.791   2.252   3.420 -0.0028  0.4767  0.2080
15232SOL     OW46911   6.643   2.603   3.654  0.2289  0.2117  0.5008
15232SOL    HW146912   6.646   2.695   3.679 -0.3157  0.4322 -0.2137
15232SOL    HW246913   6.721   2.590   3.601  0.9015 -0.0293  1.5254
15233SOL     OW46914   6.615   2.305   3.076  0.0978  0.0947  0.2258
15233SOL    HW146915   6.523   2.280   3.086  0.2788 -0.2053  1.2814
15233SOL    HW246916   6.629   2.309   2.981 -0.6217 -1.2925  0.0334
15234SOL     OW46917   6.245   2.336   2.261  0.2959  0.3187  0.0100
15234SOL    HW146918   6.170   2.288   2.296 -0.0949  1.7894  1.2610
15234SOL    HW246919   6.288   2.274   2.202 -2.0343 -0.4837 -0.9352
15235SOL     OW46920   4.895   2.196   3.276 -0.4309 -0.1869 -0.1790
15235SOL    HW146921   4.972   2.253   3.284 -0.9794  0.6122 -0.4903
15235SOL    HW246922   4.838   2.241   3.214 -1.2400 -0.6707  0.1980
15236SOL     OW46923   5.655   3.321   3.556  0.9299  0.1157 -0.5802
15236SOL    HW146924   5.637   3.271   3.476 -1.1061 -0.2958  0.0944
15236SOL    HW246925   5.602   3.400   3.547 -0.2174 -0.4615  0.8466
15237SOL     OW46926   6.435   2.178   2.057  0.8170  0.2615  0.1802
15237SOL    HW146927   6.478   2.224   1.986  3.3459 -0.7881  0.9398
15237SOL    HW246928   6.383   2.110   2.014  1.7965  0.0508 -0.6846
15238SOL     OW46929   7.363   2.154   3.610 -0.0001  0.0750 -0.2235
15238SOL    HW146930   7.330   2.157   3.520 -0.2847  0.2255 -0.1145
15238SOL    HW246931   7.293   2.193   3.663 -0.3054 -1.0148  0.2001
15239SOL     OW46932   6.782   2.737   2.478 -0.0485 -0.4149  0.0543
15239SOL    HW146933   6.725   2.664   2.456 -0.7656  0.2709 -0.4465
15239SOL    HW246934   6.848   2.738   2.408 -1.8556  1.2676 -1.7729
15240SOL     OW46935   6.040   1.500   2.753  0.2682 -0.2220 -0.2820
15240SOL    HW146936   6.134   1.513   2.756  0.3407 -0.5415 -1.0276
15240SOL    HW246937   6.004   1.585   2.727  0.3521 -0.1284 -0.0952
15241SOL     OW46938   6.526   3.423   2.565 -0.2141 -0.4660 -0.0598
15241SOL    HW146939   6.500   3.336   2.595  0.7825 -0.9074 -0.4122
15241SOL    HW246940   6.453   3.454   2.513 -0.6773 -0.9965  0.2580
15242SOL     OW46941   5.727   3.358   3.100  0.1985 -0.4215 -0.1669
15242SOL    HW146942   5.711   3.438   3.048  0.1871 -0.0056  0.4666
15242SOL    HW246943   5.810   3.324   3.065  1.7597  1.4407  1.4291
15243SOL     OW46944   7.219   2.631   3.146  0.0111  0.1378  0.5773
15243SOL    HW146945   7.214   2.613   3.239 -1.0968  1.1151  0.7269
15243SOL    HW246946   7.256   2.719   3.140 -1.7877  0.9034  0.2024
15244SOL     OW46947   6.725   3.030   3.285  0.7134 -0.7236 -0.3280
15244SOL    HW146948   6.739   2.937   3.300 -0.0085 -1.0925 -1.7458
15244SOL    HW246949   6.645   3.034   3.232  1.6420  0.5759 -1.7143
15245SOL     OW46950   5.584   2.876   2.079  0.2196  0.0192  0.0017
15245SOL    HW146951   5.538   2.850   1.999  0.1157  1.8054 -0.5720
15245SOL    HW246952   5.516   2.915   2.134  0.4429 -0.4492  0.6178
15246SOL     OW46953   7.033   2.499   2.527 -0.1068 -0.0689  0.4125
15246SOL    HW146954   6.969   2.552   2.479 -0.2858 -0.7970 -0.1763
15246SOL    HW246955   6.984   2.464   2.602 -1.0621 -2.3335 -1.1507
15247SOL     OW46956   6.065   2.942   3.541  0.2630 -0.0631  0.2443
15247SOL    HW146957   6.133   3.008   3.553  0.3757 -0.5377  2.7078
15247SOL    HW246958   5.990   2.976   3.590  0.1714 -1.4857  1.1703
15248SOL     OW46959   6.814   3.419   2.182  0.3545 -0.1006 -0.3771
15248SOL    HW146960   6.820   3.469   2.263  2.1724  0.0137 -0.5192
15248SOL    HW246961   6.743   3.357   2.196  1.2861 -0.7777  1.6978
15249SOL     OW46962   5.595   2.111   3.605  0.1116  0.0175  0.0078
15249SOL    HW146963   5.504   2.114   3.576  0.3677 -0.3797 -0.8553
15249SOL    HW246964   5.597   2.168   3.682 -0.5901  1.0420 -0.7065
15250SOL     OW46965   7.107   3.349   2.107 -0.0556 -0.0800  0.1716
15250SOL    HW146966   7.136   3.294   2.034  1.9434  1.4252 -0.2463
15250SOL    HW246967   7.015   3.369   2.087  0.4453  0.3102 -1.9519
15251SOL     OW46968   5.778   3.369   2.395 -0.1040 -0.1235  0.2004
15251SOL    HW146969   5.792   3.295   2.454 -1.0750 -1.0254 -0.6533
15251SOL    HW246970   5.834   3.438   2.429  0.7121 -1.2019  1.1127
15252SOL     OW46971   6.655   2.545   2.028 -0.3941  0.0097  0.3693
15252SOL    HW146972   6.623   2.593   1.952  1.2020  0.8159  0.1583
15252SOL    HW246973   6.666   2.455   1.997 -1.1328  0.0186  0.0746
15253SOL     OW46974   6.168   3.487   2.539 -0.0016  0.6035 -0.4416
15253SOL    HW146975   6.206   3.552   2.597  0.0605  0.1277  0.0600
15253SOL    HW246976   6.170   3.405   2.590  1.0495 -0.0551 -1.4877
15254SOL     OW46977   6.731   3.597   2.727  0.5099  0.1853  0.1937
15254SOL    HW146978   6.648   3.645   2.721  0.2904 -0.0981  0.8401
15254SOL    HW246979   6.798   3.660   2.701 -0.1487 -0.5049 -3.9021
15255SOL     OW46980   5.685   2.192   2.411 -0.2728  0.0856 -0.2275
15255SOL    HW146981   5.618   2.201   2.479 -1.9850 -0.0298 -1.8121
15255SOL    HW246982   5.754   2.253   2.438  0.0516 -1.3429  2.5878
15256SOL     OW46983   6.926   1.937   3.758  0.5774  0.0550  0.1929
15256SOL    HW146984   6.900   1.949   3.849 -0.3589 -1.4989  0.1766
15256SOL    HW246985   6.856   1.978   3.707  1.2543  1.1943  0.1498
15257SOL     OW46986   6.172   1.952   2.229  0.1902 -0.2717  0.2057
15257SOL    HW146987   6.227   1.874   2.235 -0.7056 -0.8122  1.9102
15257SOL    HW246988   6.222   2.013   2.174  3.2337 -0.1265  2.8401
15258SOL     OW46989   6.432   2.075   3.450 -0.2596  0.0305  0.2764
15258SOL    HW146990   6.435   2.163   3.487  0.0307  0.4174 -0.6245
15258SOL    HW246991   6.515   2.067   3.403 -0.9470 -0.1332 -0.9404
15259SOL     OW46992   6.246   3.192   2.950 -0.0695  0.3926  0.5450
15259SOL    HW146993   6.227   3.099   2.960 -2.2422  0.1481 -3.7993
15259SOL    HW246994   6.192   3.234   3.017  0.1257 -1.3594  1.8802
15260SOL     OW46995   7.040   2.401   3.059 -0.0069  0.4737  0.5322
15260SOL    HW146996   7.132   2.410   3.085  0.3256  1.6165 -0.8985
15260SOL    HW246997   7.040   2.328   2.997 -0.3323 -0.4279  1.5516
15261SOL     OW46998   6.493   3.149   2.669 -0.1387 -0.0956 -0.7163
15261SOL    HW146999   6.562   3.159   2.735 -0.1463 -0.1151 -0.7052
15261SOL    HW247000   6.539   3.115   2.592  0.2207  1.7440 -1.3626
15262SOL     OW47001   6.356   2.279   3.013 -0.1766 -0.3336 -0.1039
15262SOL    HW147002   6.310   2.236   2.941  0.0059 -1.3410  0.3667
15262SOL    HW247003   6.320   2.239   3.092  0.9932 -0.6159  0.2960
15263SOL     OW47004   6.110   1.991   2.610 -0.2072 -0.2791 -0.4215
15263SOL    HW147005   6.085   1.952   2.694  1.0755  0.1158  0.1669
15263SOL    HW247006   6.103   1.920   2.547 -1.7129 -0.4527 -0.1024
15264SOL     OW47007   7.237   2.736   2.277  0.4630 -0.0694 -0.1187
15264SOL    HW147008   7.285   2.679   2.217  0.5842 -0.3033  0.1996
15264SOL    HW247009   7.283   2.727   2.360  1.3043  1.4930 -0.3658
15265SOL     OW47010   5.646   1.756   2.009 -0.2237  0.4295 -0.1755
15265SOL    HW147011   5.732   1.723   1.982 -0.5729 -0.9399  0.3051
15265SOL    HW247012   5.659   1.851   2.019  1.2466  0.2372 -0.0335
15266SOL     OW47013   6.574   2.155   2.297  0.0802 -0.1360  0.0885
15266SOL    HW147014   6.525   2.176   2.218 -1.4668 -0.9677  0.7785
15266SOL    HW247015   6.549   2.065   2.319  0.9714 -0.1575  1.1652
15267SOL     OW47016   6.548   2.524   3.241  0.0042 -0.4362  0.0286
15267SOL    HW147017   6.457   2.514   3.270 -0.3470  1.1459 -0.4068
15267SOL    HW247018   6.559   2.460   3.171 -0.4142 -1.4328  0.8566
15268SOL     OW47019   6.784   3.474   2.456 -0.3188 -0.1113 -0.3438
15268SOL    HW147020   6.716   3.491   2.521  0.5485  1.8820  0.1101
15268SOL    HW247021   6.808   3.383   2.470 -1.9469 -0.4698  0.3706
15269SOL     OW47022   6.004   2.791   2.112 -0.7594  0.2634  0.4728
15269SOL    HW147023   5.993   2.707   2.067  0.0701  0.7201 -0.6439
15269SOL    HW247024   5.927   2.842   2.086 -0.8649  0.1200  0.5037
15270SOL     OW47025   6.557   3.904   2.706  0.3502 -0.1603  0.2004
15270SOL    HW147026   6.464   3.900   2.731 -0.6853  2.4668 -2.5156
15270SOL    HW247027   6.569   3.830   2.646 -0.3080  0.0256 -0.1781
15271SOL     OW47028   6.292   2.424   1.809  0.2853  0.3659 -0.0772
15271SOL    HW147029   6.272   2.465   1.893 -1.2658 -0.8242  0.1872
15271SOL    HW247030   6.265   2.489   1.744 -0.9195  0.3091  0.3397
15272SOL     OW47031   5.878   2.637   3.771  0.2853  0.0496 -0.0545
15272SOL    HW147032   5.837   2.703   3.827 -1.6949 -3.6371  3.4207
15272SOL    HW247033   5.971   2.641   3.793  0.0961  1.1902  0.6276
15273SOL     OW47034   6.009   1.744   3.439  0.3029  0.3262 -0.1730
15273SOL    HW147035   5.962   1.827   3.447 -0.2633 -0.0878  1.0467
15273SOL    HW247036   6.100   1.765   3.457  0.1738  0.7013  0.0472
15274SOL     OW47037   6.554   2.086   2.703  0.4035 -0.0191  0.0254
15274SOL    HW147038   6.614   2.109   2.632 -0.4018 -0.2843 -0.7556
15274SOL    HW247039   6.529   1.995   2.685  1.2158 -0.5529  1.4025
15275SOL     OW47040   6.908   2.023   2.658  0.1624  0.4092  0.4847
15275SOL    HW147041   6.842   1.998   2.594 -0.4664 -0.2770  1.3764
15275SOL    HW247042   6.991   1.995   2.619 -0.1953  0.1380 -0.0913
15276SOL     OW47043   6.965   2.668   2.291  0.7723 -0.4021 -0.4289
15276SOL    HW147044   7.061   2.671   2.297  0.8172 -1.0895 -0.6210
15276SOL    HW247045   6.946   2.669   2.198  0.5704  0.1467 -0.3826
15277SOL     OW47046   6.916   2.477   2.776  0.3804  0.2735 -0.4593
15277SOL    HW147047   6.853   2.545   2.755 -0.6723 -0.3345  0.6111
15277SOL    HW247048   6.873   2.423   2.842  1.5519 -0.8754 -0.5771
15278SOL     OW47049   7.199   2.437   2.310 -0.3611 -0.3891 -0.5344
15278SOL    HW147050   7.141   2.391   2.249 -0.6718  0.7630 -1.1339
15278SOL    HW247051   7.142   2.466   2.381 -0.1888 -0.8014 -0.2226
15279SOL     OW47052   6.393   3.118   2.157 -0.5236 -0.6311  0.4934
15279SOL    HW147053   6.316   3.167   2.185 -0.5292 -0.2264 -0.1868
15279SOL    HW247054   6.366   3.026   2.159 -1.6735 -0.3955 -1.5812
15280SOL     OW47055   7.473   3.195   2.171  0.6854  0.4105 -0.4166
15280SOL    HW147056   7.442   3.116   2.127  2.1455 -1.8864  2.3635
15280SOL    HW247057   7.421   3.200   2.251  3.2944 -0.1771  1.4440
15281SOL     OW47058   6.732   1.709   1.890  0.6064  0.0148 -0.3658
15281SOL    HW147059   6.691   1.660   1.819 -2.2106  1.7083 -0.0366
15281SOL    HW247060   6.726   1.801   1.862  2.4664  0.5089  0.6436
15282SOL     OW47061   5.902   1.951   2.156  0.5618 -0.5161 -0.0244
15282SOL    HW147062   5.987   1.935   2.196  0.3706  1.8981  1.5625
15282SOL    HW247063   5.914   2.031   2.106 -0.3515 -1.1380 -1.2908
15283SOL     OW47064   7.458   2.801   3.556 -0.3189  0.1185 -0.4728
15283SOL    HW147065   7.368   2.767   3.564 -0.5026  0.7302  0.1081
15283SOL    HW247066   7.512   2.723   3.550 -0.6827 -0.3153  1.3579
15284SOL     OW47067   6.674   3.430   3.077  0.4522  0.1112 -0.5569
15284SOL    HW147068   6.741   3.418   3.009 -0.7127  0.2162 -1.7646
15284SOL    HW247069   6.593   3.443   3.028 -0.0184  2.9599  0.7729
15285SOL     OW47070   7.057   3.458   3.515  0.3935  0.0509 -0.4470
15285SOL    HW147071   6.993   3.422   3.453  0.7873 -0.5863 -0.4932
15285SOL    HW247072   7.134   3.401   3.506  0.8183  0.5569 -0.0931
15286SOL     OW47073   6.439   3.396   2.920  0.0321 -0.1181 -0.0047
15286SOL    HW147074   6.386   3.448   2.859 -0.9816 -1.4519 -0.3039
15286SOL    HW247075   6.405   3.307   2.912 -0.1924 -0.3498  2.5431
15287SOL     OW47076   6.840   3.223   2.549  0.4200 -0.0067 -0.2311
15287SOL    HW147077   6.843   3.249   2.641 -0.5571 -1.4536  0.2461
15287SOL    HW247078   6.780   3.148   2.547  1.0974 -0.5511 -1.9191
15288SOL     OW47079   6.599   1.643   3.162 -0.0459 -0.2810 -0.0224
15288SOL    HW147080   6.645   1.606   3.238 -1.1853  1.7615  1.7763
15288SOL    HW247081   6.645   1.724   3.143  0.7767 -1.1794 -2.1909
15289SOL     OW47082   6.169   2.981   3.833 -0.4724 -0.9445 -0.6069
15289SOL    HW147083   6.215   2.901   3.809  2.7218  0.1835  1.1264
15289SOL    HW247084   6.179   2.987   3.928 -0.2892  1.6058 -0.7178
15290SOL     OW47085   6.317   2.594   2.055 -0.4059  0.0485 -0.4446
15290SOL    HW147086   6.400   2.609   2.009  0.1750 -1.2851  0.1145
15290SOL    HW247087   6.339   2.535   2.127 -1.6184  0.7153  0.5093
15291SOL     OW47088   5.947   2.840   2.968 -0.6566  0.3716  0.1478
15291SOL    HW147089   5.971   2.788   2.891  1.0862 -2.0150  2.1422
15291SOL    HW247090   5.851   2.848   2.962 -0.7950 -1.4874 -1.2522
15292SOL     OW47091   6.650   2.085   3.288 -0.1390 -0.1829  0.1041
15292SOL    HW147092   6.697   2.151   3.237 -0.5014  1.6297  1.9776
15292SOL    HW247093   6.667   2.003   3.242  0.8127  1.1102 -2.0016
15293SOL     OW47094   5.737   2.993   3.219  0.0070  0.3836  0.3333
15293SOL    HW147095   5.678   3.042   3.277 -0.0839  0.2106  0.3864
15293SOL    HW247096   5.684   2.972   3.142 -0.4638 -1.0868  1.0265
15294SOL     OW47097   5.835   2.999   2.070 -0.0883  0.3573 -0.2401
15294SOL    HW147098   5.744   2.972   2.077 -0.5504  1.1652 -2.4175
15294SOL    HW247099   5.836   3.089   2.101 -0.1065  0.4662 -0.5522
15295SOL     OW47100   6.143   1.772   2.846  0.1481  0.2395 -0.5863
15295SOL    HW147101   6.124   1.846   2.904  1.4062  0.2701 -0.1820
15295SOL    HW247102   6.145   1.696   2.904 -1.9991 -0.2837 -1.1273
15296SOL     OW47103   6.589   3.286   2.261 -0.1588 -0.2036 -0.0344
15296SOL    HW147104   6.529   3.221   2.224  0.3778 -1.3096  0.9763
15296SOL    HW247105   6.532   3.349   2.306 -0.5771 -1.1837  0.8299
15297SOL     OW47106   6.918   3.243   3.351  0.0343 -0.1522  0.1967
15297SOL    HW147107   6.861   3.320   3.352 -0.7374 -0.6727 -0.9559
15297SOL    HW247108   6.859   3.170   3.331  0.9345 -0.8696  0.0931
15298SOL     OW47109   7.043   2.323   2.126  0.5111  0.2937  0.2860
15298SOL    HW147110   6.972   2.311   2.189 -0.2174 -0.6595 -0.6945
15298SOL    HW247111   7.083   2.236   2.117  2.0413  0.8688  1.0614
15299SOL     OW47112   6.352   2.829   3.338  0.8777  0.1286  0.2624
15299SOL    HW147113   6.312   2.837   3.251 -1.3381 -0.6323  1.1314
15299SOL    HW247114   6.353   2.919   3.371  1.9036  0.4507 -0.5880
15300SOL     OW47115   6.616   2.874   3.559 -0.2106 -0.1991 -0.5277
15300SOL    HW147116   6.586   2.883   3.468 -1.6133  0.5577 -0.0301
15300SOL    HW247117   6.554   2.927   3.609  0.4412 -0.7443  0.8949
15301SOL     OW47118   7.292   2.293   3.356 -0.1337 -0.5440 -0.0642
15301SOL    HW147119   7.387   2.298   3.351 -0.1894  0.6182 -0.2902
15301SOL    HW247120   7.263   2.384   3.352 -1.2784 -0.9101 -0.6230
15302SOL     OW47121   6.535   1.766   3.563  0.0835  0.1263 -0.2798
15302SOL    HW147122   6.557   1.691   3.507 -0.3143 -0.3096  0.1448
15302SOL    HW247123   6.440   1.776   3.554  0.0510  0.2051  0.1270
15303SOL     OW47124   6.100   1.541   3.601  0.3113  0.1543 -0.5775
15303SOL    HW147125   6.072   1.615   3.546  1.2292  0.1350 -1.0921
15303SOL    HW247126   6.023   1.484   3.606 -0.6229  1.4402  0.3589
15304SOL     OW47127   5.621   2.953   2.417 -0.0685  0.3558  0.0274
15304SOL    HW147128   5.562   3.026   2.401  0.9318  1.4423  1.0803
15304SOL    HW247129   5.570   2.891   2.468 -0.4561  1.0414  0.4808
15305SOL     OW47130   6.369   2.904   2.765  0.4833  0.4593  0.0666
15305SOL    HW147131   6.351   2.902   2.859 -0.6510  1.1970 -0.1106
15305SOL    HW247132   6.431   2.976   2.755  1.8538 -0.6331  0.4146
15306SOL     OW47133   6.660   2.312   2.498  0.6332 -0.0999 -0.0450
15306SOL    HW147134   6.610   2.278   2.423  1.3760  0.7850 -0.9696
15306SOL    HW247135   6.648   2.406   2.495  0.4147 -0.0765  1.1636
15307SOL     OW47136   5.554   2.078   3.150 -0.8024 -0.1637 -0.2286
15307SOL    HW147137   5.482   2.029   3.190  0.1334 -0.8147  0.7316
15307SOL    HW247138   5.560   2.158   3.202 -0.0545 -0.6776  0.4999
15308SOL     OW47139   5.379   2.752   2.950  0.4379  0.4651  0.2035
15308SOL    HW147140   5.315   2.713   3.010 -0.5578 -1.5032 -1.9617
15308SOL    HW247141   5.368   2.703   2.868  2.4092  2.3370 -1.3050
15309SOL     OW47142   5.889   2.228   2.960  0.7351  0.2602  0.7851
15309SOL    HW147143   5.891   2.312   2.915  1.1450 -1.1184 -1.9738
15309SOL    HW247144   5.820   2.178   2.916 -0.6877 -0.3636  3.4621
15310SOL     OW47145   7.421   2.563   3.858 -0.4576  0.1442 -0.0448
15310SOL    HW147146   7.382   2.504   3.793  0.0896 -0.8372  0.4944
15310SOL    HW247147   7.354   2.629   3.874 -0.5990  0.3956 -1.5954
15311SOL     OW47148   5.774   1.871   2.837  0.5301  0.4282 -0.3670
15311SOL    HW147149   5.767   1.828   2.752  2.1288  0.8422 -0.7449
15311SOL    HW247150   5.841   1.821   2.884 -1.4148 -0.7736  1.3161
15312SOL     OW47151   7.431   2.332   2.140 -0.0164  0.0468  0.1047
15312SOL    HW147152   7.386   2.264   2.089  0.2956  0.5161 -0.8181
15312SOL    HW247153   7.361   2.372   2.193 -0.5390  0.1798 -0.6625
15313SOL     OW47154   6.154   2.385   2.655  0.0833  0.1994 -0.2473
15313SOL    HW147155   6.180   2.447   2.724  0.2769 -0.0674 -0.0802
15313SOL    HW247156   6.183   2.300   2.688 -2.1380 -0.3106  0.5595
15314SOL     OW47157   7.279   3.301   3.448  0.1019 -0.6619  0.2729
15314SOL    HW147158   7.240   3.263   3.370 -2.3184  0.6039  0.7888
15314SOL    HW247159   7.340   3.234   3.479 -1.5651 -2.7287 -0.6687
15315SOL     OW47160   6.267   2.235   3.978  0.0545 -0.0159 -0.0611
15315SOL    HW147161   6.240   2.316   4.022 -0.4042  0.7725 -1.7223
15315SOL    HW247162   6.219   2.166   4.024 -0.3121  0.7597  0.7514
15316SOL     OW47163   7.324   1.878   2.147  0.0827  0.2006  0.0135
15316SOL    HW147164   7.309   1.805   2.207  1.6865 -0.1005  0.0851
15316SOL    HW247165   7.394   1.848   2.089 -0.1899  1.1753 -0.8476
15317SOL     OW47166   6.530   2.285   1.817  0.1012 -0.1880 -0.2726
15317SOL    HW147167   6.538   2.269   1.723 -1.0248 -1.6404 -0.1439
15317SOL    HW247168   6.455   2.344   1.825  0.0652 -0.2359 -0.2610
15318SOL     OW47169   6.570   2.565   2.415 -0.0376  0.2182 -0.0489
15318SOL    HW147170   6.566   2.621   2.337 -0.6424  3.1750  1.9408
15318SOL    HW247171   6.479   2.553   2.441  0.2078  1.2335  1.4276
15319SOL     OW47172   5.401   2.426   2.614 -0.1580 -0.4724  0.1719
15319SOL    HW147173   5.350   2.467   2.684  2.4114  0.9138  1.4068
15319SOL    HW247174   5.480   2.394   2.658  1.2184 -0.2428 -1.9634
15320SOL     OW47175   5.524   2.322   3.325  0.1532 -0.1686 -0.1596
15320SOL    HW147176   5.579   2.366   3.389  1.1431 -0.7667 -0.5727
15320SOL    HW247177   5.450   2.381   3.311  0.2976  0.2953  0.9806
15321SOL     OW47178   6.687   1.995   3.650  0.2379  0.6240  0.3963
15321SOL    HW147179   6.617   2.041   3.697 -0.1262 -1.4445  2.0186
15321SOL    HW247180   6.646   1.916   3.616  1.0780  0.9211 -1.4175
15322SOL     OW47181   6.785   1.857   3.237  0.1745 -0.1742  0.3925
15322SOL    HW147182   6.833   1.907   3.303 -0.2976 -0.6174  1.0795
15322SOL    HW247183   6.853   1.826   3.177  0.4377  1.7724 -0.4170
15323SOL     OW47184   5.231   2.976   2.152  0.1560  0.5774  0.1405
15323SOL    HW147185   5.220   3.070   2.135  1.3333  0.8319  0.6655
15323SOL    HW247186   5.243   2.970   2.247 -1.0255 -0.2391  0.2553
15324SOL     OW47187   5.586   3.234   3.310 -0.0922 -0.1413 -0.1313
15324SOL    HW147188   5.632   3.251   3.228  0.8818 -5.1193 -0.9347
15324SOL    HW247189   5.494   3.224   3.286  0.0736 -0.7587 -0.5443
15325SOL     OW47190   5.946   3.273   2.879 -0.0675 -0.0201 -0.1159
15325SOL    HW147191   6.026   3.279   2.825  0.1375  1.2359  0.2971
15325SOL    HW247192   5.889   3.213   2.830  0.2416  0.8253 -1.5764
15326SOL     OW47193   6.263   2.527   2.885  0.0942  0.5066  0.3952
15326SOL    HW147194   6.195   2.531   2.952  0.5942  1.0537  0.8910
15326SOL    HW247195   6.316   2.451   2.911  1.7346  2.1096  2.1108
15327SOL     OW47196   5.143   2.318   3.296 -0.0523 -0.2207  0.5113
15327SOL    HW147197   5.196   2.397   3.294  0.9136 -0.8497  0.7936
15327SOL    HW247198   5.205   2.247   3.313 -0.8232 -1.1153 -0.2772
15328SOL     OW47199   5.426   1.774   3.721  0.0529 -0.2438  0.4517
15328SOL    HW147200   5.385   1.847   3.674  1.2910 -0.3866 -0.9131
15328SOL    HW247201   5.412   1.698   3.665  0.7320 -0.6145  0.7720
15329SOL     OW47202   7.684   2.430   3.617  0.2266  0.2051  0.1569
15329SOL    HW147203   7.592   2.440   3.595 -0.1916 -2.2949  0.4851
15329SOL    HW247204   7.727   2.504   3.575 -1.7983  0.9526 -0.7145
15330SOL     OW47205   6.075   2.163   2.386 -0.5165 -0.3081  0.6709
15330SOL    HW147206   6.093   2.123   2.471 -1.2803 -1.8043  0.1651
15330SOL    HW247207   6.095   2.094   2.323  1.7911  1.3234 -0.5308
15331SOL     OW47208   7.302   2.190   2.797 -0.4837 -0.3432  0.3152
15331SOL    HW147209   7.310   2.216   2.706  0.9833 -3.2617 -0.5160
15331SOL    HW247210   7.369   2.241   2.843  1.1488 -1.3103 -0.9020
15332SOL     OW47211   5.924   3.177   3.999  0.0670  0.3320  0.2658
15332SOL    HW147212   5.985   3.251   3.998 -1.2649  1.4525  0.1819
15332SOL    HW247213   5.839   3.216   3.983 -0.7092 -1.1955  0.5476
15333SOL     OW47214   5.619   2.372   2.748 -0.1893 -0.0804 -0.0796
15333SOL    HW147215   5.676   2.443   2.775  0.8990 -0.1503 -1.9736
15333SOL    HW247216   5.659   2.293   2.785  0.2805  0.0046 -0.3934
15334SOL     OW47217   6.198   3.301   3.401 -0.0729  0.2057 -0.1551
15334SOL    HW147218   6.204   3.301   3.305  1.3126 -1.0951 -0.0953
15334SOL    HW247219   6.106   3.321   3.419 -1.3803 -3.3126 -1.8825
15335SOL     OW47220   5.980   2.183   2.021  0.3244  0.0297  0.7820
15335SOL    HW147221   5.998   2.162   1.929  0.2251 -1.2977  1.0582
15335SOL    HW247222   6.018   2.271   2.033  2.2074 -0.6308  0.0278
15336SOL     OW47223   5.768   2.752   3.298  0.5646 -0.0267  0.5056
15336SOL    HW147224   5.761   2.847   3.288 -0.9366 -0.0449  1.1230
15336SOL    HW247225   5.861   2.737   3.314  0.8945  1.2977  0.0097
15337SOL     OW47226   6.474   3.223   3.183  0.2119 -0.2736  0.1056
15337SOL    HW147227   6.394   3.241   3.133  0.4022  0.6804  0.1221
15337SOL    HW247228   6.545   3.251   3.126  0.3996  1.8306  1.2592
15338SOL     OW47229   6.637   2.973   2.520  0.1248 -0.1177  0.0307
15338SOL    HW147230   6.696   2.897   2.526 -0.5782 -0.7372 -0.6618
15338SOL    HW247231   6.552   2.935   2.497 -0.2432  0.8835 -0.3087
15339SOL     OW47232   6.805   3.351   2.786  0.2704 -0.2998 -0.0552
15339SOL    HW147233   6.897   3.376   2.794  0.3431 -0.9749  1.9020
15339SOL    HW247234   6.762   3.427   2.746  1.5727  0.2369 -0.4787
15340SOL     OW47235   5.841   3.062   2.741  0.1962  0.4516 -0.3531
15340SOL    HW147236   5.839   3.059   2.645  0.9105 -0.1141 -0.3576
15340SOL    HW247237   5.803   2.979   2.768 -0.3428  0.7645 -0.1325
15341SOL     OW47238   6.292   3.607   3.639 -0.0205  0.0529 -0.5744
15341SOL    HW147239   6.261   3.670   3.574 -0.4348  0.9255  0.4261
15341SOL    HW247240   6.250   3.635   3.721  1.0792 -0.5551  0.2257
15342SOL     OW47241   7.279   2.139   2.038 -0.2914 -0.3733  0.2931
15342SOL    HW147242   7.275   2.167   1.947  2.0482  0.6600  0.4185
15342SOL    HW247243   7.268   2.044   2.035 -1.8882 -0.1906 -0.8534
15343SOL     OW47244   7.028   3.622   2.413 -0.5462  0.2999 -0.4901
15343SOL    HW147245   7.009   3.701   2.464  1.9102  0.0434  1.0068
15343SOL    HW247246   6.958   3.561   2.436  0.3002  0.2977  2.5033
15344SOL     OW47247   5.962   3.452   4.114  0.4801 -0.5516  0.0243
15344SOL    HW147248   5.919   3.535   4.094 -0.4661 -0.7411  1.2018
15344SOL    HW247249   5.907   3.412   4.181  1.6570 -1.5198  0.4367
15345SOL     OW47250   6.697   2.647   2.749 -0.4254  0.5434 -0.4227
15345SOL    HW147251   6.602   2.655   2.742 -0.3614  1.7583 -0.2265
15345SOL    HW247252   6.730   2.715   2.690  0.2654  2.1612  1.6939
15346SOL     OW47253   7.123   2.844   3.560  0.3023 -0.2482  0.5124
15346SOL    HW147254   7.131   2.937   3.580  0.4145 -0.3810  1.0979
15346SOL    HW247255   7.034   2.822   3.585  0.1167 -0.1877 -0.0923
15347SOL     OW47256   6.260   2.881   2.108 -0.3009 -0.1101  0.4132
15347SOL    HW147257   6.333   2.850   2.054 -1.5818 -0.1628 -1.3949
15347SOL    HW247258   6.185   2.829   2.078 -1.4638  1.2455  0.8693
15348SOL     OW47259   7.054   3.441   2.821 -0.1098 -0.2040  0.2563
15348SOL    HW147260   7.107   3.434   2.900 -1.7952  0.1477  1.4921
15348SOL    HW247261   7.033   3.534   2.815 -2.5376 -0.6132  1.2257
15349SOL     OW47262   7.061   1.809   3.118  0.1566  0.2853  0.2760
15349SOL    HW147263   7.058   1.755   3.039  0.1848 -0.5563  0.8361
15349SOL    HW247264   7.095   1.893   3.089  0.7249 -0.2061 -0.4995
15350SOL     OW47265   5.887   2.354   2.488 -0.4061 -0.5706 -0.2911
15350SOL    HW147266   5.968   2.311   2.459 -0.1155  0.9321 -1.8454
15350SOL    HW247267   5.910   2.394   2.571  0.4591 -0.2157 -0.6803
15351SOL     OW47268   6.790   3.636   2.001  0.4503  0.3818 -0.2739
15351SOL    HW147269   6.809   3.561   2.057  0.1155  0.0749 -0.5658
15351SOL    HW247270   6.852   3.704   2.030  0.9626 -0.1031 -0.2128
15352SOL     OW47271   6.724   2.736   3.316 -0.0065  0.0472 -0.1084
15352SOL    HW147272   6.803   2.707   3.270  0.8153 -2.1518  2.3689
15352SOL    HW247273   6.657   2.671   3.292  0.0072 -0.2304  0.5803
15353SOL     OW47274   6.580   2.722   2.212  0.2687 -0.6089 -0.1209
15353SOL    HW147275   6.606   2.802   2.167 -0.9664 -0.4197 -0.5485
15353SOL    HW247276   6.593   2.652   2.148 -0.5969 -0.4658 -0.4605
15354SOL     OW47277   7.064   3.398   1.771  0.4559 -0.1456  0.0942
15354SOL    HW147278   7.128   3.383   1.701  0.1433  1.8080 -0.6784
15354SOL    HW247279   6.996   3.452   1.730  0.9504  2.2822  2.2026
15355SOL     OW47280   6.351   3.065   3.451 -0.1312 -0.2023 -0.0965
15355SOL    HW147281   6.397   3.104   3.526 -1.5617 -0.0653  0.7573
15355SOL    HW247282   6.297   3.136   3.417 -1.5297 -0.9517  0.4552
15356SOL     OW47283   6.693   3.109   2.892  0.2599 -0.1922  0.3781
15356SOL    HW147284   6.751   3.065   2.954  0.3256  0.9878  1.1931
15356SOL    HW247285   6.748   3.176   2.852 -0.3318  0.4163  0.5789
15357SOL     OW47286   6.296   2.521   2.439 -0.0778  0.5204  0.6593
15357SOL    HW147287   6.234   2.488   2.505  0.5151 -0.2270  0.8525
15357SOL    HW247288   6.298   2.452   2.372 -0.3176  1.0647  0.0816
15358SOL     OW47289   5.923   1.977   3.127 -0.6517  0.7379  0.1266
15358SOL    HW147290   5.890   2.058   3.089  0.1070  0.8610 -0.3035
15358SOL    HW247291   6.017   1.993   3.138 -0.4960 -0.0756  0.0434
15359SOL     OW47292   6.109   2.928   2.566 -0.5512 -0.5208  0.5644
15359SOL    HW147293   6.032   2.984   2.571  0.2425  0.7088 -0.3331
15359SOL    HW247294   6.088   2.865   2.496 -0.3329  0.5085 -0.4578
15360SOL     OW47295   7.190   2.048   3.292  0.0145 -0.3755  0.4387
15360SOL    HW147296   7.194   2.043   3.196 -0.1563 -0.9495  0.4556
15360SOL    HW247297   7.224   2.135   3.313 -0.2555 -0.1146 -0.1641
15361SOL     OW47298   5.177   3.084   2.417 -0.1080  0.3101  0.1059
15361SOL    HW147299   5.240   3.137   2.465  0.8789 -1.5651  0.9977
15361SOL    HW247300   5.095   3.133   2.422  0.5527  1.3214  1.6207
15362SOL     OW47301   5.748   2.844   3.925 -0.5172 -0.8508  0.0931
15362SOL    HW147302   5.752   2.864   4.018  2.7151 -0.7628  0.0480
15362SOL    HW247303   5.660   2.873   3.898 -1.4826 -0.7287  3.0112
15363SOL     OW47304   6.180   1.966   3.058 -0.3725  0.3269 -0.4248
15363SOL    HW147305   6.265   1.953   3.014 -0.1822 -0.0959  0.0587
15363SOL    HW247306   6.197   2.034   3.123 -0.5541  0.6621 -0.7234
15364SOL     OW47307   5.651   2.236   2.126 -0.1546 -0.5889  0.4253
15364SOL    HW147308   5.648   2.208   2.217 -0.9005  1.3198  1.0264
15364SOL    HW247309   5.732   2.288   2.119 -1.1337  1.0275  0.5894
15365SOL     OW47310   7.740   2.679   3.506  0.2736  0.1275  0.4146
15365SOL    HW147311   7.817   2.729   3.534  2.6773 -2.3482 -1.1700
15365SOL    HW247312   7.713   2.720   3.423  1.1292 -0.1029  0.0082
15366SOL     OW47313   5.630   2.027   1.952  0.2471  0.3128 -0.6700
15366SOL    HW147314   5.661   2.104   1.998  0.1079 -0.0644  0.0691
15366SOL    HW247315   5.538   2.046   1.932  0.3912  0.5990 -1.0576
15367SOL     OW47316   6.767   3.314   1.860  0.0422  0.6529  0.0345
15367SOL    HW147317   6.838   3.368   1.827  0.4948  0.9620  1.4117
15367SOL    HW247318   6.705   3.376   1.900 -0.9244  0.3750 -0.9808
15368SOL     OW47319   6.281   2.459   3.281  0.0528  0.3855  0.2159
15368SOL    HW147320   6.226   2.383   3.300 -0.9049  1.3358  1.4370
15368SOL    HW247321   6.238   2.502   3.208  0.3424 -0.0004 -0.1824
15369SOL     OW47322   7.303   3.372   2.543 -0.5953  0.2561 -0.2798
15369SOL    HW147323   7.372   3.396   2.482 -1.2611  1.2217 -0.6792
15369SOL    HW247324   7.278   3.283   2.518  0.4605 -0.0841 -0.1560
15370SOL     OW47325   6.253   2.152   3.231 -0.4555 -0.4555 -0.3607
15370SOL    HW147326   6.181   2.191   3.278 -0.3667 -0.4950 -0.1907
15370SOL    HW247327   6.322   2.140   3.297 -1.7819 -4.4314  0.5664
15371SOL     OW47328   7.046   2.970   3.277 -0.1177 -1.0134 -0.3200
15371SOL    HW147329   7.038   2.886   3.232 -0.1303 -0.6008 -1.1010
15371SOL    HW247330   7.067   2.946   3.368  0.3890 -1.8477 -0.6425
15372SOL     OW47331   5.946   3.235   3.446 -0.0037 -0.4120  0.4695
15372SOL    HW147332   5.989   3.258   3.528  1.1622  0.1479 -0.2747
15372SOL    HW247333   5.859   3.275   3.453  0.9068  1.7325  0.4776
15373SOL     OW47334   6.949   2.709   3.171  0.3945 -0.6542 -0.1387
15373SOL    HW147335   6.897   2.709   3.091 -1.3765 -0.0603  0.9611
15373SOL    HW247336   7.001   2.628   3.166 -1.1887 -1.6606 -0.9382
15374SOL     OW47337   6.843   2.231   2.296  0.1305 -0.2374  0.2485
15374SOL    HW147338   6.820   2.273   2.379  1.0336  0.1791  0.3024
15374SOL    HW247339   6.764   2.185   2.270 -0.6922  0.9648  0.5283
15375SOL     OW47340   6.274   2.157   2.742 -0.1001  0.3922 -0.4504
15375SOL    HW147341   6.356   2.108   2.735 -1.1423 -1.4562 -0.3360
15375SOL    HW247342   6.225   2.131   2.664 -0.5006  1.6602 -0.6382
15376SOL     OW47343   7.083   2.215   3.610  0.1960 -0.1339 -0.0751
15376SOL    HW147344   7.077   2.121   3.590 -1.3099  0.1966 -1.3895
15376SOL    HW247345   7.015   2.229   3.676 -0.6765  0.2709 -1.0245
15377SOL     OW47346   7.153   2.606   2.856 -0.0373  0.3622  0.4213
15377SOL    HW147347   7.176   2.597   2.948 -0.8618  1.9138  0.8207
15377SOL    HW247348   7.081   2.545   2.843  1.1571 -1.0871  0.3477
15378SOL     OW47349   6.092   2.702   2.406  0.6072 -0.1795 -0.1473
15378SOL    HW147350   6.034   2.689   2.331  1.1810 -2.0789 -0.3297
15378SOL    HW247351   6.172   2.655   2.383  1.9545  1.7077  0.4307
15379SOL     OW47352   6.063   3.321   3.138 -0.4256  0.3225  0.4808
15379SOL    HW147353   6.027   3.237   3.166 -1.7650  1.1097  1.1883
15379SOL    HW247354   6.030   3.333   3.049  0.3989 -0.2321  0.0838
15380SOL     OW47355   5.852   2.493   2.871  0.5189  0.1740 -0.3072
15380SOL    HW147356   5.796   2.545   2.929  0.2134 -0.2264 -0.2419
15380SOL    HW247357   5.907   2.558   2.827  0.3192  0.5334 -0.0350
15381SOL     OW47358   6.552   2.942   1.986 -0.2445 -0.1993  0.0278
15381SOL    HW147359   6.630   2.978   1.946 -0.7034 -0.6604 -1.3467
15381SOL    HW247360   6.504   3.018   2.019  1.2260  0.0123  1.7814
15382SOL     OW47361   7.524   3.276   2.803  0.2875 -0.1040 -0.0504
15382SOL    HW147362   7.519   3.186   2.773 -0.0170  0.2540 -1.1186
15382SOL    HW247363   7.612   3.285   2.839 -0.0521 -1.1223  1.1010
15383SOL     OW47364   5.531   3.288   3.824 -0.4770  0.3723  0.8419
15383SOL    HW147365   5.562   3.368   3.782 -1.1102  0.2979  0.2187
15383SOL    HW247366   5.438   3.283   3.801 -0.7618  0.1572  1.9853
15384SOL     OW47367   5.612   3.269   2.748  0.2141  0.1413 -0.5132
15384SOL    HW147368   5.629   3.363   2.746  0.5415  0.0772 -2.0613
15384SOL    HW247369   5.696   3.228   2.725 -0.0621 -0.5027 -0.4040
15385SOL     OW47370   6.099   3.236   3.700  0.5713  0.1294  0.1041
15385SOL    HW147371   6.042   3.289   3.755  0.3435 -0.1286  0.1206
15385SOL    HW247372   6.117   3.158   3.753  0.3634 -0.1118 -0.1789
15386SOL     OW47373   7.731   2.176   3.400  0.5131 -0.0798 -0.9387
15386SOL    HW147374   7.640   2.184   3.372  0.3182 -0.4190 -0.4059
15386SOL    HW247375   7.762   2.266   3.406 -0.7459  0.2566  2.0370
15387SOL     OW47376   5.712   1.927   2.351  0.1694 -0.3399  0.4198
15387SOL    HW147377   5.731   2.020   2.367  0.8642 -0.4820  0.4638
15387SOL    HW247378   5.742   1.912   2.262 -0.5451 -0.3727  0.1782
15388SOL     OW47379   7.182   3.136   2.761  0.3321 -0.1368  0.0248
15388SOL    HW147380   7.209   3.051   2.795 -0.7837 -0.5378 -0.0689
15388SOL    HW247381   7.090   3.125   2.738  1.1850 -0.2303 -4.1213
15389SOL     OW47382   5.826   2.363   3.216 -0.3466 -0.3215 -0.0281
15389SOL    HW147383   5.741   2.377   3.258  0.1768 -0.3428  1.0796
15389SOL    HW247384   5.805   2.329   3.129 -1.4704 -0.1938  0.1821
15390SOL     OW47385   6.227   3.613   2.799 -0.1758  0.3930  0.9978
15390SOL    HW147386   6.235   3.705   2.773 -1.7312  0.0510 -0.8782
15390SOL    HW247387   6.165   3.615   2.872 -1.8119  0.6960 -0.3393
15391SOL     OW47388   6.846   2.318   3.231  0.0293 -0.3891  0.3059
15391SOL    HW147389   6.901   2.342   3.156 -0.3502 -0.2599  0.0658
15391SOL    HW247390   6.759   2.350   3.208 -0.6597 -2.5315 -0.3170
15392SOL     OW47391   6.720   2.019   2.921  0.0597 -0.5060  0.0523
15392SOL    HW147392   6.778   1.975   2.858  0.4171  0.3280 -0.2110
15392SOL    HW247393   6.685   2.094   2.873 -0.1138 -0.1920  0.6679
15393SOL     OW47394   6.371   2.950   2.463 -0.1773 -0.3282 -0.0062
15393SOL    HW147395   6.306   2.918   2.525 -0.5906 -1.7419 -1.1106
15393SOL    HW247396   6.340   2.920   2.378  3.1968 -3.5680 -0.3926
15394SOL     OW47397   6.011   3.057   3.246  0.3774 -0.2434 -0.3601
15394SOL    HW147398   5.927   3.015   3.224  0.6129 -1.2196  0.5591
15394SOL    HW247399   5.993   3.106   3.326  0.2094  1.1435 -1.2093
15395SOL     OW47400   6.884   2.029   1.981  0.2048  0.0581  0.1242
15395SOL    HW147401   6.860   1.991   1.897 -0.1251  1.1115 -0.2755
15395SOL    HW247402   6.849   2.118   1.978  0.2704  0.1419  1.3414
15396SOL     OW47403   6.672   2.307   2.801  0.2033  0.1958  0.2773
15396SOL    HW147404   6.612   2.238   2.774 -1.3134  1.8398 -0.8383
15396SOL    HW247405   6.673   2.367   2.726  0.9080  1.7179  1.4614
15397SOL     OW47406   7.176   2.041   3.026 -0.1492  0.0095  0.0662
15397SOL    HW147407   7.119   2.093   2.969 -0.7462  0.6144  1.1813
15397SOL    HW247408   7.261   2.042   2.982 -0.7343 -0.0608 -1.1136
15398SOL     OW47409   5.266   2.751   2.378 -0.0157 -0.1161  0.1211
15398SOL    HW147410   5.175   2.734   2.400  0.3043 -0.5644  1.2141
15398SOL    HW247411   5.310   2.760   2.463  0.6778  1.7038 -0.3800
15399SOL     OW47412   6.757   3.050   1.818  0.3997  0.0227 -0.0924
15399SOL    HW147413   6.758   3.145   1.814 -0.2916  0.0323 -0.2435
15399SOL    HW247414   6.846   3.025   1.843  0.4157  0.7313  0.5832
15400SOL     OW47415   5.317   2.403   3.665 -0.0944 -0.2411 -0.2368
15400SOL    HW147416   5.235   2.384   3.710 -0.0439  0.0224 -0.0282
15400SOL    HW247417   5.383   2.354   3.713 -0.0440  0.0228 -0.0312
15401SOL     OW47418   5.957   1.862   4.730 -0.1029 -0.3211  0.0619
15401SOL    HW147419   6.017   1.872   4.656 -0.7246 -0.4054 -0.4706
15401SOL    HW247420   5.871   1.852   4.689 -0.6881  1.2049  0.8115
15402SOL     OW47421   5.677   2.061   4.118  0.1807 -0.0195 -0.6048
15402SOL    HW147422   5.616   2.102   4.180  0.7971  0.5328 -0.3576
15402SOL    HW247423   5.638   1.975   4.100 -1.4072  0.8627 -1.5567
15403SOL     OW47424   6.211   3.161   5.105 -0.3058 -0.8656  0.1077
15403SOL    HW147425   6.252   3.091   5.053  0.6590 -2.1065  2.4033
15403SOL    HW247426   6.119   3.159   5.080  0.2194 -0.8313 -2.1078
15404SOL     OW47427   7.014   3.074   4.238  0.0249  0.2702 -0.5324
15404SOL    HW147428   7.004   3.166   4.213  1.8312  1.3572  2.2450
15404SOL    HW247429   6.980   3.069   4.327 -1.0298 -2.0579 -0.9855
15405SOL     OW47430   6.526   2.391   4.477  0.0253 -0.3559 -0.0517
15405SOL    HW147431   6.570   2.383   4.392  0.2011  0.6648 -0.0668
15405SOL    HW247432   6.434   2.370   4.459 -0.1800  1.0433 -0.7512
15406SOL     OW47433   7.364   2.429   3.609  0.2610  0.1660 -0.2992
15406SOL    HW147434   7.288   2.449   3.555  0.0909 -1.1516 -0.5735
15406SOL    HW247435   7.402   2.350   3.571  1.1658  0.2121  0.4513
15407SOL     OW47436   6.210   2.999   4.727 -0.3340  0.1298  0.3921
15407SOL    HW147437   6.241   3.088   4.740  1.4141 -0.0926 -1.7775
15407SOL    HW247438   6.129   3.009   4.676 -0.0662  0.4719  0.0305
15408SOL     OW47439   6.308   3.009   5.523 -0.0461 -0.4947 -0.4436
15408SOL    HW147440   6.309   2.934   5.463 -0.5000 -1.2388  0.4616
15408SOL    HW247441   6.224   3.052   5.507 -1.8910 -2.7837  2.1146
15409SOL     OW47442   6.083   3.293   4.391  0.1015 -0.2948  0.0721
15409SOL    HW147443   6.039   3.374   4.366  0.5534 -0.2478 -0.5964
15409SOL    HW247444   6.165   3.322   4.432  0.4162 -0.4155 -0.4651
15410SOL     OW47445   6.444   3.308   5.189  0.4645  0.0182 -0.0135
15410SOL    HW147446   6.456   3.251   5.265  0.8621  0.0813 -0.0265
15410SOL    HW247447   6.354   3.292   5.160  0.3048  0.0100  0.4845
15411SOL     OW47448   6.083   3.004   4.405 -0.0378  0.6037  0.2762
15411SOL    HW147449   6.106   3.096   4.390  1.5757  0.4693  1.6549
15411SOL    HW247450   5.987   3.004   4.406 -0.2046  1.6930 -2.8630
15412SOL     OW47451   7.072   3.234   4.665  0.1587 -0.7641 -0.2602
15412SOL    HW147452   7.130   3.275   4.600  0.9415 -1.9845 -0.3752
15412SOL    HW247453   7.120   3.242   4.747 -0.8252  0.7655  0.2050
15413SOL     OW47454   5.906   1.932   5.429 -0.6572 -0.0197  0.1713
15413SOL    HW147455   5.811   1.927   5.421 -0.6904 -0.2062  0.6648
15413SOL    HW247456   5.927   1.879   5.506  0.3671 -4.7806 -2.9763
15414SOL     OW47457   7.385   2.342   4.253  0.2486  0.1325 -0.3861
15414SOL    HW147458   7.371   2.322   4.345 -0.1794  0.7062 -0.3204
15414SOL    HW247459   7.417   2.260   4.215 -3.2156 -1.2826 -0.5456
15415SOL     OW47460   5.845   3.947   4.157  0.0339 -0.2124  0.6824
15415SOL    HW147461   5.853   4.031   4.202 -0.9929  0.7327 -0.8187
15415SOL    HW247462   5.754   3.943   4.130  0.7095 -0.4643 -1.7683
15416SOL     OW47463   6.977   3.633   5.202  0.5771 -0.2639 -0.2958
15416SOL    HW147464   6.909   3.696   5.178  1.5761  0.4491 -1.4221
15416SOL    HW247465   6.987   3.643   5.296 -1.2711 -0.8289  0.0040
15417SOL     OW47466   5.778   3.081   4.438  0.0517 -0.6752  0.0945
15417SOL    HW147467   5.713   3.123   4.494  0.9639  0.9773 -0.0082
15417SOL    HW247468   5.771   3.126   4.354  0.7752 -1.0278 -0.1669
15418SOL     OW47469   6.252   2.408   4.490 -0.1934  0.9554 -0.6508
15418SOL    HW147470   6.239   2.446   4.577  0.7728  0.6537 -0.3538
15418SOL    HW247471   6.193   2.333   4.488  0.8463  0.0664  0.3427
15419SOL     OW47472   5.836   3.718   5.451 -0.4353 -0.2075 -0.5161
15419SOL    HW147473   5.884   3.795   5.482  0.1177 -0.8633  0.2798
15419SOL    HW247474   5.858   3.712   5.358  1.6218 -0.9122 -0.0203
15420SOL     OW47475   6.104   2.658   3.912 -0.0017  0.0684  0.1279
15420SOL    HW147476   6.148   2.653   3.828 -0.2416  1.0259 -0.0668
15420SOL    HW247477   6.121   2.748   3.943 -1.3908  0.3052  0.2728
15421SOL     OW47478   7.235   2.172   4.979 -0.1291 -0.2551 -0.1336
15421SOL    HW147479   7.300   2.118   5.025 -0.1458 -0.7175 -0.6373
15421SOL    HW247480   7.164   2.183   5.041  0.5564  0.5119  0.5407
15422SOL     OW47481   5.536   2.941   4.450 -0.3255  0.5897  0.1876
15422SOL    HW147482   5.487   3.015   4.414 -0.5974  0.5825  0.5413
15422SOL    HW247483   5.627   2.960   4.427 -0.1570  1.9211  1.7594
15423SOL     OW47484   7.520   3.147   3.971  0.5171 -0.3139  0.2302
15423SOL    HW147485   7.596   3.187   3.929  0.2129 -0.2401 -0.2661
15423SOL    HW247486   7.509   3.063   3.926  1.1784 -0.9832  1.2953
15424SOL     OW47487   5.532   3.710   3.824  0.0318  0.3409  0.0068
15424SOL    HW147488   5.575   3.662   3.754  3.3435  0.6800  1.6207
15424SOL    HW247489   5.479   3.644   3.869  0.8343 -0.7459 -0.5879
15425SOL     OW47490   7.189   2.677   4.240  0.3591 -0.3845  0.3723
15425SOL    HW147491   7.277   2.675   4.202  0.0851 -0.4345 -0.2752
15425SOL    HW247492   7.203   2.668   4.334  1.2608  2.4714  0.6134
15426SOL     OW47493   7.748   3.083   4.227 -0.2337 -0.0838  0.2015
15426SOL    HW147494   7.715   2.996   4.248 -2.3358  0.7092  0.3520
15426SOL    HW247495   7.674   3.129   4.187  1.4051  0.9966 -1.8390
15427SOL     OW47496   5.737   3.060   5.075 -0.2673  0.3303  0.3612
15427SOL    HW147497   5.748   3.138   5.129 -1.8336  0.4396  0.5674
15427SOL    HW247498   5.741   2.987   5.137 -0.8219  0.3748  0.4478
15428SOL     OW47499   5.825   3.431   4.351  0.4301 -0.0938 -0.2107
15428SOL    HW147500   5.738   3.410   4.385 -0.4498  0.7979 -1.7722
15428SOL    HW247501   5.856   3.501   4.409 -0.1062 -0.0752  0.0659
15429SOL     OW47502   6.332   3.271   4.731  0.0301  0.1144 -0.1868
15429SOL    HW147503   6.283   3.336   4.780 -0.0831 -0.8558  1.0461
15429SOL    HW247504   6.418   3.270   4.771 -0.1801 -0.9615  0.2816
15430SOL     OW47505   6.056   2.068   4.054 -0.0209  0.3336 -0.2351
15430SOL    HW147506   6.003   2.130   4.104 -0.3564  0.9770 -1.3436
15430SOL    HW247507   6.019   2.071   3.966  1.2515  0.0616 -0.7955
15431SOL     OW47508   6.041   3.251   4.689 -0.1325  0.5407  0.4322
15431SOL    HW147509   5.952   3.228   4.661 -0.3861 -0.7840  2.0961
15431SOL    HW247510   6.093   3.249   4.609 -1.6570  1.8417 -0.6715
15432SOL     OW47511   7.191   2.730   3.920  0.0492  0.5371 -0.4470
15432SOL    HW147512   7.156   2.694   4.001  3.1473 -1.1158  0.3175
15432SOL    HW247513   7.211   2.821   3.941  1.6708 -0.1110  1.0220
15433SOL     OW47514   6.964   3.845   5.832 -0.3610 -0.1740  0.2275
15433SOL    HW147515   6.902   3.901   5.879  0.9148  0.8480  0.7517
15433SOL    HW247516   6.953   3.870   5.740 -0.5232  0.2105  0.3472
15434SOL     OW47517   5.917   2.368   5.793 -0.0587 -0.4184 -0.3116
15434SOL    HW147518   5.975   2.311   5.742  0.1334 -1.8317  1.3951
15434SOL    HW247519   5.866   2.308   5.848  0.5656  0.9993  1.9910
15435SOL     OW47520   7.324   3.081   4.630  0.4042  0.2608  0.0525
15435SOL    HW147521   7.293   3.155   4.681 -0.1026  0.2280 -0.2086
15435SOL    HW247522   7.298   3.100   4.540  1.8981  0.6490 -0.3243
15436SOL     OW47523   7.205   3.937   3.844 -1.0295 -0.3951 -0.0017
15436SOL    HW147524   7.162   3.867   3.795  0.9519 -2.3417  0.8564
15436SOL    HW247525   7.152   3.948   3.922 -1.3689 -0.9450 -0.1483
15437SOL     OW47526   5.895   2.228   4.203  0.3210  0.2137  0.5378
15437SOL    HW147527   5.817   2.173   4.193  1.0972 -0.9485  0.6247
15437SOL    HW247528   5.866   2.316   4.181 -0.9833 -0.2257  0.4469
15438SOL     OW47529   7.071   2.237   4.364 -0.0443  0.0635 -0.5244
15438SOL    HW147530   6.995   2.233   4.423 -0.5405  0.7766 -1.0940
15438SOL    HW247531   7.041   2.194   4.284  0.5833 -0.7827 -0.3245
15439SOL     OW47532   7.197   3.226   3.927 -0.5588 -0.2607 -0.2972
15439SOL    HW147533   7.279   3.265   3.955 -0.7463 -0.5397  0.6915
15439SOL    HW247534   7.135   3.299   3.923 -0.3832 -0.1269 -0.5644
15440SOL     OW47535   6.410   2.613   5.545 -0.0400 -0.0190 -0.2162
15440SOL    HW147536   6.393   2.519   5.554 -0.3077  0.0261 -0.2319
15440SOL    HW247537   6.325   2.650   5.518 -0.3085  0.4285  1.1936
15441SOL     OW47538   6.561   2.808   5.624 -0.1852  0.2377  0.0235
15441SOL    HW147539   6.548   2.810   5.719 -1.4983 -0.3883 -0.1289
15441SOL    HW247540   6.499   2.743   5.592  1.1288 -0.5106 -1.1504
15442SOL     OW47541   6.090   3.112   5.380 -0.5815 -0.7155  0.1814
15442SOL    HW147542   6.111   3.099   5.288  0.0569 -3.2478  0.6041
15442SOL    HW247543   6.023   3.046   5.399 -2.6645  1.4682  0.9772
15443SOL     OW47544   6.323   2.313   5.047  0.0164 -0.0411 -0.2775
15443SOL    HW147545   6.343   2.325   4.955  1.1165 -1.5696 -0.2749
15443SOL    HW247546   6.234   2.346   5.057 -0.3564 -0.4228 -2.0172
15444SOL     OW47547   6.863   2.401   4.162 -0.2393 -0.0815 -0.1267
15444SOL    HW147548   6.889   2.471   4.222 -3.1935  0.4912  0.6554
15444SOL    HW247549   6.829   2.332   4.220  1.1912 -1.5492 -0.9714
15445SOL     OW47550   6.054   2.230   4.443 -0.9452  0.1509  0.3151
15445SOL    HW147551   6.043   2.138   4.465  1.1601 -0.0809  0.6116
15445SOL    HW247552   6.030   2.237   4.351  1.3307 -1.2438 -0.4377
15446SOL     OW47553   5.526   3.781   5.557  0.0867 -0.4994  0.1820
15446SOL    HW147554   5.477   3.814   5.632  0.4817 -0.6236  0.4939
15446SOL    HW247555   5.461   3.731   5.506 -0.2429 -0.1868  0.2946
15447SOL     OW47556   6.101   2.254   3.729  0.0039  0.5379 -0.2430
15447SOL    HW147557   6.099   2.158   3.730 -0.3319  0.5420 -0.3169
15447SOL    HW247558   6.135   2.277   3.816  1.6481  0.3332 -0.8006
15448SOL     OW47559   7.122   2.489   5.367  0.2208  0.0025 -0.2695
15448SOL    HW147560   7.135   2.584   5.358  0.9454 -0.2524 -2.6235
15448SOL    HW247561   7.030   2.479   5.392  0.1883  1.3098  0.2053
15449SOL     OW47562   6.807   2.912   3.898 -0.4707 -0.0410 -0.3702
15449SOL    HW147563   6.790   2.917   3.804  0.3694 -0.5717 -0.5617
15449SOL    HW247564   6.875   2.977   3.913  0.8295 -1.3098 -0.5043
15450SOL     OW47565   6.424   2.417   4.794  0.7931 -0.0134 -0.4778
15450SOL    HW147566   6.467   2.419   4.709 -0.0803  1.0199 -0.9294
15450SOL    HW247567   6.445   2.501   4.834 -1.2307  0.7927 -0.9740
15451SOL     OW47568   6.783   3.337   4.470 -0.5791  0.4506  0.4924
15451SOL    HW147569   6.833   3.257   4.484  0.1028  1.0870  1.8169
15451SOL    HW247570   6.697   3.307   4.440  0.2344 -0.6925 -0.8394
15452SOL     OW47571   6.128   4.047   4.806 -0.3909  0.1730 -0.2735
15452SOL    HW147572   6.170   4.055   4.720  0.8528  2.3823  0.4612
15452SOL    HW247573   6.189   3.993   4.857  0.4710  1.4285  0.0871
15453SOL     OW47574   7.914   2.897   4.557 -0.2794 -0.2086 -0.4687
15453SOL    HW147575   7.821   2.881   4.542 -0.7087  1.6282  0.0254
15453SOL    HW247576   7.945   2.936   4.475 -0.5297  1.3748  0.1486
15454SOL     OW47577   6.662   3.485   5.142  0.0901  0.4431  0.0796
15454SOL    HW147578   6.750   3.446   5.148  0.3390  0.2521 -3.1883
15454SOL    HW247579   6.603   3.413   5.164  0.6851  0.0718  0.5081
15455SOL     OW47580   6.049   2.923   4.065  0.2849 -0.0770  0.1156
15455SOL    HW147581   6.008   2.992   4.011  0.0656 -1.2322 -1.2674
15455SOL    HW247582   5.976   2.885   4.114  0.0404 -0.7040 -0.7167
15456SOL     OW47583   6.943   2.815   4.210  0.2823  0.2287 -0.2233
15456SOL    HW147584   6.970   2.904   4.228  0.1021  0.2341  0.0271
15456SOL    HW247585   7.023   2.763   4.217  1.1131  0.8088 -3.7351
15457SOL     OW47586   5.562   3.128   5.835  0.7214 -0.3578 -0.8358
15457SOL    HW147587   5.567   3.200   5.772  3.5812  0.4431  0.1664
15457SOL    HW247588   5.648   3.086   5.831  0.3331 -1.4701  1.1784
15458SOL     OW47589   7.426   3.756   3.347 -0.0571 -0.4738 -0.6936
15458SOL    HW147590   7.490   3.790   3.409 -0.1488 -2.4373  0.5973
15458SOL    HW247591   7.346   3.745   3.400 -1.0568  0.6377 -1.9258
15459SOL     OW47592   5.729   2.672   5.058  0.5677  0.0318 -0.1847
15459SOL    HW147593   5.754   2.583   5.033 -0.6132  0.3502 -2.7848
15459SOL    HW247594   5.671   2.702   4.988 -0.1401  2.3970  1.2733
15460SOL     OW47595   6.873   2.777   3.573 -0.2857  0.2804  0.4266
15460SOL    HW147596   6.882   2.721   3.496  0.1763  0.2066  0.5324
15460SOL    HW247597   6.798   2.833   3.553 -0.6969 -0.3107  0.2791
15461SOL     OW47598   6.083   3.788   4.172 -0.0335  0.7830  0.2979
15461SOL    HW147599   6.044   3.812   4.256  0.3062  0.2354  0.6113
15461SOL    HW247600   6.008   3.777   4.114 -0.3403  0.0454  0.8204
15462SOL     OW47601   7.061   2.086   4.129 -0.1212  0.3031  0.0460
15462SOL    HW147602   7.124   2.014   4.132  0.0612  0.3866 -1.1260
15462SOL    HW247603   6.982   2.047   4.091 -0.7200  0.2530  1.2952
15463SOL     OW47604   5.895   3.337   5.140 -0.7043  0.8972  0.4697
15463SOL    HW147605   5.872   3.292   5.221 -0.1148 -1.7857 -0.7428
15463SOL    HW247606   5.813   3.377   5.110 -1.1094  1.2188  1.9195
15464SOL     OW47607   6.324   3.583   4.102 -0.3707 -0.4976 -0.1483
15464SOL    HW147608   6.290   3.493   4.109 -0.2549 -0.4982  0.4083
15464SOL    HW247609   6.297   3.611   4.015 -0.6490 -0.9773 -0.2226
15465SOL     OW47610   5.932   2.653   4.548 -0.2354  0.8255 -0.4742
15465SOL    HW147611   5.936   2.594   4.624  0.6398  0.8140 -0.5236
15465SOL    HW247612   5.856   2.623   4.499 -2.1462  2.1479  1.4757
15466SOL     OW47613   6.728   2.482   5.754  0.6407 -0.5386  0.3915
15466SOL    HW147614   6.728   2.405   5.810 -0.9975 -1.0708 -0.2781
15466SOL    HW247615   6.637   2.492   5.727  1.0501  0.8681 -0.5899
15467SOL     OW47616   6.269   1.875   3.568  0.5050 -0.1997  0.3068
15467SOL    HW147617   6.303   1.953   3.524 -0.7696  0.2037 -0.0185
15467SOL    HW247618   6.245   1.905   3.655 -2.5346  0.5169 -0.6661
15468SOL     OW47619   6.594   2.055   5.192  0.4851  0.1588  0.3196
15468SOL    HW147620   6.640   2.028   5.112  0.2724 -0.2934  0.3509
15468SOL    HW247621   6.548   1.977   5.221 -1.7667  1.0171 -0.6964
15469SOL     OW47622   6.426   3.573   4.703 -0.1190 -0.1246  0.0030
15469SOL    HW147623   6.479   3.625   4.643  0.5965 -0.5494  0.2559
15469SOL    HW247624   6.460   3.595   4.790  1.7474 -2.6478  0.0141
15470SOL     OW47625   6.852   2.920   5.259 -0.1225  0.3256 -0.3406
15470SOL    HW147626   6.893   3.000   5.227 -0.7931  0.5958 -0.5463
15470SOL    HW247627   6.855   2.927   5.354  0.6226  0.1770 -0.3522
15471SOL     OW47628   6.931   3.056   4.514 -0.3219  0.2418  0.6745
15471SOL    HW147629   6.875   2.993   4.560  0.1270 -0.0017  0.8940
15471SOL    HW247630   6.987   3.093   4.582  1.5648 -1.3913  0.1102
15472SOL     OW47631   6.464   2.459   4.125 -0.3712  0.4893 -0.4445
15472SOL    HW147632   6.376   2.425   4.137  0.4561 -1.4161  0.6662
15472SOL    HW247633   6.477   2.461   4.030 -1.5370  0.6776 -0.6101
15473SOL     OW47634   5.661   1.882   3.742 -0.0629 -0.4208 -0.1699
15473SOL    HW147635   5.576   1.849   3.769  0.0728 -0.9133 -0.3368
15473SOL    HW247636   5.642   1.967   3.702 -0.3972 -0.2319  0.3748
15474SOL     OW47637   7.127   3.106   3.663 -0.8365 -0.3551 -0.3869
15474SOL    HW147638   7.113   3.134   3.754  0.1904  0.5706 -0.4981
15474SOL    HW247639   7.193   3.166   3.630 -1.9536 -0.0008 -2.0888
15475SOL     OW47640   5.803   1.461   3.612 -0.4703  0.0667  0.2781
15475SOL    HW147641   5.793   1.510   3.694  0.0565  1.4014 -0.4291
15475SOL    HW247642   5.784   1.525   3.543  0.7030 -0.6008 -0.6946
15476SOL     OW47643   6.447   2.098   3.783 -0.0010  0.1185  0.0855
15476SOL    HW147644   6.365   2.051   3.797 -1.5199  1.9744 -1.7233
15476SOL    HW247645   6.425   2.190   3.800  1.4172  0.7818 -1.3545
15477SOL     OW47646   6.613   3.007   4.891  0.1527  0.1926  0.0638
15477SOL    HW147647   6.626   3.102   4.881  1.2046  0.0126 -0.4320
15477SOL    HW247648   6.529   2.999   4.937  0.7240  1.4114  1.4079
15478SOL     OW47649   6.988   3.362   4.243  0.4642  0.0306  0.6078
15478SOL    HW147650   6.960   3.442   4.198 -0.9818 -1.1591 -0.7351
15478SOL    HW247651   6.965   3.377   4.335  3.0624  2.3300  1.0176
15479SOL     OW47652   5.489   2.411   4.373 -0.0649 -0.4341 -0.5288
15479SOL    HW147653   5.455   2.465   4.302 -1.9710  0.4484  0.9705
15479SOL    HW247654   5.542   2.470   4.426  0.4543 -0.8331 -0.5854
15480SOL     OW47655   6.639   3.352   4.099  0.0758  0.0376  0.3954
15480SOL    HW147656   6.614   3.442   4.122 -0.9550 -0.3172  0.7461
15480SOL    HW247657   6.598   3.298   4.167 -1.4160 -0.8967 -1.1695
15481SOL     OW47658   6.459   2.340   3.512  0.2857  0.1679  0.7886
15481SOL    HW147659   6.414   2.411   3.467  1.8254  0.0775 -1.0058
15481SOL    HW247660   6.532   2.381   3.557  0.0673 -0.0473  1.3541
15482SOL     OW47661   5.532   2.524   4.674 -0.1819  0.1228 -0.3347
15482SOL    HW147662   5.529   2.585   4.748  1.6166 -1.7695  1.4270
15482SOL    HW247663   5.444   2.528   4.636 -1.3804  0.7315  2.2883
15483SOL     OW47664   5.997   1.770   4.971 -0.0494 -0.0274 -0.3487
15483SOL    HW147665   5.913   1.774   5.017 -0.6451  0.4686 -1.4504
15483SOL    HW247666   5.985   1.823   4.893 -0.4173 -3.8073 -3.1731
15484SOL     OW47667   6.111   2.596   4.335 -0.5589 -0.3475  0.4132
15484SOL    HW147668   6.053   2.643   4.394  0.5396  0.9416  0.5154
15484SOL    HW247669   6.183   2.565   4.390 -0.5158 -0.8575  0.0819
15485SOL     OW47670   6.141   1.808   4.080  0.2422 -0.4060  0.1130
15485SOL    HW147671   6.069   1.764   4.035 -0.3506 -0.1509  0.7957
15485SOL    HW247672   6.100   1.881   4.126  1.2535  1.1148 -1.2887
15486SOL     OW47673   6.759   2.849   4.629 -0.3362 -0.0188 -0.4827
15486SOL    HW147674   6.728   2.760   4.613  1.3360 -0.4144 -1.8854
15486SOL    HW247675   6.756   2.858   4.725  0.0614 -1.8277 -0.2493
15487SOL     OW47676   6.661   2.651   4.259  0.3254 -0.4882 -0.1437
15487SOL    HW147677   6.614   2.696   4.329 -0.3999 -0.8126 -0.4158
15487SOL    HW247678   6.599   2.586   4.226  0.1174  0.6046 -2.0543
15488SOL     OW47679   7.132   2.433   4.039 -0.6272 -0.3044 -0.1078
15488SOL    HW147680   7.042   2.430   4.071 -1.1284  0.1866 -1.3806
15488SOL    HW247681   7.177   2.492   4.099 -0.8337 -1.4630  1.2362
15489SOL     OW47682   5.588   3.254   4.554  0.0658  0.5301  0.0484
15489SOL    HW147683   5.550   3.334   4.519 -0.0816 -0.2291 -1.6473
15489SOL    HW247684   5.514   3.194   4.562  0.5128 -0.2080 -1.0597
15490SOL     OW47685   7.179   2.970   4.057  0.2374 -0.4871 -0.3059
15490SOL    HW147686   7.211   3.051   4.016 -0.2332 -0.2518 -0.2260
15490SOL    HW247687   7.138   3.000   4.139  1.3072 -0.9681  0.4309
15491SOL     OW47688   6.918   2.518   3.491  0.0380 -0.2858  0.0137
15491SOL    HW147689   6.888   2.430   3.471 -0.9323  0.0980 -0.2509
15491SOL    HW247690   6.936   2.517   3.585  1.0895 -1.0592 -0.1745
15492SOL     OW47691   5.670   2.189   3.879  0.3316  0.7061  0.5175
15492SOL    HW147692   5.670   2.284   3.869  1.5700  0.6339 -0.3367
15492SOL    HW247693   5.690   2.174   3.971  3.0666  1.2726  0.0815
15493SOL     OW47694   7.598   2.929   5.547  0.1737 -0.5103  0.1600
15493SOL    HW147695   7.519   2.877   5.530 -0.6149  0.5076  0.6395
15493SOL    HW247696   7.605   2.987   5.471  0.5015 -0.6428  0.0886
15494SOL     OW47697   6.187   3.720   5.404  0.2463 -0.5014 -0.8065
15494SOL    HW147698   6.135   3.781   5.351 -2.9831 -1.5861  0.8441
15494SOL    HW247699   6.202   3.645   5.346 -1.0631 -0.6363 -1.0064
15495SOL     OW47700   6.869   3.870   5.576 -0.2685  0.1261  0.0671
15495SOL    HW147701   6.862   3.965   5.567  0.5699  0.1942  0.0291
15495SOL    HW247702   6.788   3.837   5.539 -0.9593  0.8659  0.8774
15496SOL     OW47703   6.556   3.274   4.906 -0.4423  0.6041  0.4438
15496SOL    HW147704   6.603   3.350   4.873 -2.0359  0.9036 -1.2863
15496SOL    HW247705   6.558   3.284   5.002  1.7956  1.2633  0.3972
15497SOL     OW47706   7.284   3.281   4.822  0.3616 -0.1717  0.2860
15497SOL    HW147707   7.360   3.253   4.873  0.0125 -0.5824  0.5888
15497SOL    HW247708   7.285   3.377   4.829  0.2179 -0.2269  1.2251
15498SOL     OW47709   6.546   2.339   5.207 -0.3185 -0.0945  0.5690
15498SOL    HW147710   6.462   2.339   5.162  0.1092  0.2531 -0.2501
15498SOL    HW247711   6.567   2.246   5.217 -1.4772 -0.2277  2.1124
15499SOL     OW47712   6.779   3.275   5.431  0.6054 -0.2123 -0.5520
15499SOL    HW147713   6.704   3.243   5.382  0.9546 -0.1843 -1.1039
15499SOL    HW247714   6.784   3.218   5.508 -0.9705  0.8022  0.3699
15500SOL     OW47715   6.518   2.785   3.967  0.1944 -0.1524  0.4445
15500SOL    HW147716   6.439   2.806   4.016 -0.2235 -0.0546 -0.2549
15500SOL    HW247717   6.506   2.695   3.937  0.2890 -0.1009  0.2441
15501SOL     OW47718   5.746   2.377   4.699 -0.1634  0.0986 -0.2368
15501SOL    HW147719   5.674   2.439   4.694 -0.1029  0.2397  0.5477
15501SOL    HW247720   5.713   2.298   4.656 -0.9645 -0.0099  0.5553
15502SOL     OW47721   6.804   2.702   5.095 -0.0854 -0.3868 -0.0249
15502SOL    HW147722   6.823   2.768   5.162  0.1193 -1.3234  0.8671
15502SOL    HW247723   6.714   2.673   5.114  0.0120 -0.7315 -0.0762
15503SOL     OW47724   5.287   3.486   5.067 -0.2509 -0.0367  0.0979
15503SOL    HW147725   5.275   3.395   5.092  1.4909 -0.1485  0.6488
15503SOL    HW247726   5.209   3.507   5.015 -1.1831 -1.5058  0.8267
15504SOL     OW47727   5.553   2.744   4.105  0.9899  0.2436 -0.4494
15504SOL    HW147728   5.577   2.717   4.017  0.4099 -0.4824 -0.3958
15504SOL    HW247729   5.458   2.733   4.108  0.6325  2.7316 -0.5581
15505SOL     OW47730   6.644   2.203   4.779 -0.1199 -0.0955  0.1704
15505SOL    HW147731   6.683   2.290   4.771  0.0988 -0.2014  0.0629
15505SOL    HW247732   6.560   2.210   4.733 -0.4723  0.2788  0.8632
15506SOL     OW47733   6.753   3.261   3.876 -0.5318  0.1132  0.5106
15506SOL    HW147734   6.703   3.274   3.957  1.3828 -0.8690  1.9256
15506SOL    HW247735   6.829   3.318   3.886  1.0733 -1.9712  0.6454
15507SOL     OW47736   6.787   3.837   5.118  0.0294  0.7439  0.5872
15507SOL    HW147737   6.717   3.902   5.126  0.5988  1.7001 -1.3652
15507SOL    HW247738   6.796   3.824   5.023  2.6870  0.9209  0.7428
15508SOL     OW47739   6.914   2.582   4.358 -0.6353 -0.2426 -0.4183
15508SOL    HW147740   6.909   2.674   4.330 -1.3871 -0.3273 -0.5907
15508SOL    HW247741   6.836   2.570   4.412 -0.5826 -0.7992 -0.4662
15509SOL     OW47742   5.496   3.673   4.830 -0.3194 -0.1620 -0.2241
15509SOL    HW147743   5.415   3.650   4.784 -1.4307  1.7357  0.6320
15509SOL    HW247744   5.512   3.764   4.806  0.6466 -0.0087  0.9000
15510SOL     OW47745   6.063   2.436   5.063 -0.3182 -0.2408 -0.7385
15510SOL    HW147746   6.041   2.493   5.136  0.0308 -1.7202  0.5933
15510SOL    HW247747   5.985   2.382   5.051  0.4454 -1.6411  0.2153
15511SOL     OW47748   6.809   2.830   5.528  0.0663  0.0451  0.4648
15511SOL    HW147749   6.858   2.772   5.587  1.0991 -1.6272 -1.8890
15511SOL    HW247750   6.723   2.837   5.569  1.0566 -0.0384  2.7647
15512SOL     OW47751   6.801   2.347   5.505 -0.1171 -0.1856  0.2567
15512SOL    HW147752   6.765   2.358   5.593  1.5085  0.6664  0.8578
15512SOL    HW247753   6.781   2.430   5.461  0.3851 -0.0244  0.3292
15513SOL     OW47754   6.293   1.989   5.611 -0.3831  0.4601  0.1254
15513SOL    HW147755   6.278   1.895   5.624 -0.0966  0.4463  0.3445
15513SOL    HW247756   6.232   2.012   5.540  0.0403 -0.0358 -0.4173
15514SOL     OW47757   5.785   2.506   4.379 -0.2028  0.4920  0.2815
15514SOL    HW147758   5.755   2.415   4.381  0.1472  0.3802  1.3557
15514SOL    HW247759   5.835   2.513   4.298  1.6454 -0.9270  1.2115
15515SOL     OW47760   7.108   2.459   4.528 -0.3686  0.1309  0.1779
15515SOL    HW147761   7.028   2.475   4.478  0.4162 -0.5220 -1.3295
15515SOL    HW247762   7.148   2.383   4.486  2.5933  2.2365 -1.0751
15516SOL     OW47763   6.749   2.360   3.765 -0.5469  0.0453  0.1434
15516SOL    HW147764   6.820   2.310   3.804 -1.8401 -2.4119 -0.4588
15516SOL    HW247765   6.756   2.344   3.671 -0.3534  1.9576 -0.2104
15517SOL     OW47766   5.711   1.915   4.549 -0.0094  0.0111 -0.0775
15517SOL    HW147767   5.671   1.829   4.552  0.3393 -0.1463  0.1232
15517SOL    HW247768   5.638   1.976   4.560 -0.1236 -0.2912  0.9364
15518SOL     OW47769   5.987   3.102   4.963 -0.0341 -0.1079  0.4405
15518SOL    HW147770   5.970   3.078   4.872  0.7763  0.8626  0.0132
15518SOL    HW247771   5.903   3.137   4.995 -1.0734 -2.7800  0.9018
15519SOL     OW47772   6.344   2.927   4.956 -0.5212  0.1537  0.5019
15519SOL    HW147773   6.288   2.872   5.011  0.4554 -1.5416 -0.1241
15519SOL    HW247774   6.297   2.933   4.873 -0.0648 -0.7970  0.1631
15520SOL     OW47775   7.821   3.051   5.027  0.0585 -0.2980 -0.7411
15520SOL    HW147776   7.898   3.068   5.082  0.2923 -0.0751 -1.1361
15520SOL    HW247777   7.770   2.987   5.077  0.7087 -0.7741 -0.6732
15521SOL     OW47778   5.618   1.657   4.270 -0.0301 -0.3514 -0.2531
15521SOL    HW147779   5.524   1.677   4.264  0.2678  1.3450  0.2192
15521SOL    HW247780   5.623   1.589   4.338 -0.9501 -0.7520 -0.5663
15522SOL     OW47781   6.975   2.259   3.856 -0.0516  0.1615  0.1519
15522SOL    HW147782   6.992   2.195   3.925 -0.6488  0.3801  0.5086
15522SOL    HW247783   7.046   2.323   3.865 -0.2137  0.2744  0.6680
15523SOL     OW47784   6.477   2.822   4.400 -0.1675 -0.1624  0.3466
15523SOL    HW147785   6.521   2.883   4.460  0.9964 -0.4739 -0.1792
15523SOL    HW247786   6.386   2.821   4.431 -0.4189  2.3719 -0.0437
15524SOL     OW47787   6.897   3.480   5.595  0.7501  0.0854  0.5126
15524SOL    HW147788   6.846   3.462   5.517  1.2749  1.4775 -0.1852
15524SOL    HW247789   6.835   3.521   5.656 -0.2590 -3.0986  1.8237
15525SOL     OW47790   7.550   3.073   5.306 -0.3925  0.0364 -0.0349
15525SOL    HW147791   7.500   3.059   5.226 -0.9124  0.9415  0.1286
15525SOL    HW247792   7.543   3.166   5.324 -0.0270 -0.1007  0.9029
15526SOL     OW47793   6.009   2.628   5.292  0.2084 -0.1664  0.7446
15526SOL    HW147794   6.067   2.589   5.357  0.0421 -1.4805  0.1423
15526SOL    HW247795   5.921   2.610   5.323  0.1234 -1.4385 -0.1786
15527SOL     OW47796   6.654   2.243   4.023 -0.2994 -0.2616 -0.0077
15527SOL    HW147797   6.676   2.322   4.072 -0.1226 -0.0253 -0.4680
15527SOL    HW247798   6.590   2.271   3.958 -0.9869 -0.6916  0.4582
15528SOL     OW47799   7.040   2.505   3.731  0.0341 -0.7506 -0.6402
15528SOL    HW147800   7.064   2.564   3.801  0.3016  0.2231 -1.5284
15528SOL    HW247801   7.123   2.475   3.694 -0.0840 -2.2728  0.2614
15529SOL     OW47802   6.741   3.581   4.593  0.1542 -0.5675 -0.2127
15529SOL    HW147803   6.740   3.495   4.550 -0.0387 -0.8466  0.3368
15529SOL    HW247804   6.674   3.631   4.546  1.1716 -0.2652 -1.4070
15530SOL     OW47805   5.919   2.902   4.711  0.2745 -0.5894  0.4653
15530SOL    HW147806   5.938   2.853   4.630  1.5098 -0.8727  0.9088
15530SOL    HW247807   5.824   2.915   4.709  0.0865 -1.8908 -0.2995
15531SOL     OW47808   5.973   2.494   4.782 -0.2094 -0.1284  0.2107
15531SOL    HW147809   5.893   2.456   4.747 -1.4026  0.5019  2.0810
15531SOL    HW247810   6.001   2.433   4.850  1.0152 -0.4322 -0.5504
15532SOL     OW47811   6.781   2.596   5.381  0.2657 -0.4568 -0.0188
15532SOL    HW147812   6.824   2.680   5.395 -0.0889 -0.3284  0.3419
15532SOL    HW247813   6.702   2.618   5.331  0.3723 -0.6229 -0.2559
15533SOL     OW47814   6.775   2.337   5.022 -0.2115 -0.6185 -1.0371
15533SOL    HW147815   6.696   2.348   5.075 -0.3280 -0.6551 -1.2023
15533SOL    HW247816   6.766   2.249   4.985  0.4794 -1.0949 -0.1063
15534SOL     OW47817   5.656   3.221   4.048 -0.4541 -0.1802  0.3408
15534SOL    HW147818   5.618   3.238   3.962  2.1721 -1.4865 -1.1843
15534SOL    HW247819   5.641   3.127   4.063  2.1109 -0.7564 -0.3539
15535SOL     OW47820   5.896   3.749   4.776 -0.0971  0.2041  0.6966
15535SOL    HW147821   5.987   3.722   4.763 -0.1973  0.5735 -0.8958
15535SOL    HW247822   5.903   3.838   4.812  0.1834  0.4750 -0.0028
15536SOL     OW47823   6.539   3.720   4.481 -0.1440  0.2984 -0.3338
15536SOL    HW147824   6.568   3.805   4.449 -0.1834  1.5408  2.6151
15536SOL    HW247825   6.481   3.687   4.411  2.7700  0.8481 -3.2605
15537SOL     OW47826   6.574   2.616   5.167  0.1077 -0.1670 -0.1883
15537SOL    HW147827   6.522   2.621   5.086 -1.1272  1.3726  0.6431
15537SOL    HW247828   6.569   2.525   5.193 -1.7530 -0.1834 -0.4477
15538SOL     OW47829   5.961   1.974   4.444  0.3033  0.2080  0.2556
15538SOL    HW147830   5.888   1.962   4.506  0.4363 -1.4222  0.1395
15538SOL    HW247831   5.926   1.945   4.360  1.7617 -3.2051  0.6477
15539SOL     OW47832   5.678   2.834   5.583  0.3030  0.1213  0.2862
15539SOL    HW147833   5.681   2.827   5.487  0.9268 -2.0618  0.4252
15539SOL    HW247834   5.590   2.805   5.606  0.1732  0.5902  0.3861
15540SOL     OW47835   6.533   3.102   5.387 -0.7199 -0.1625 -0.1639
15540SOL    HW147836   6.452   3.067   5.423  0.0940 -0.6623  1.2574
15540SOL    HW247837   6.600   3.039   5.412  0.4525  1.3133  0.6093
15541SOL     OW47838   5.676   2.481   3.837  0.6124  0.6481  0.1941
15541SOL    HW147839   5.603   2.541   3.825  2.1116  2.2293 -1.8798
15541SOL    HW247840   5.752   2.528   3.802  2.3830 -1.4381  0.9601
15542SOL     OW47841   6.701   2.585   4.586 -0.2789  0.2395  0.0297
15542SOL    HW147842   6.617   2.544   4.563  0.0192  0.1529 -0.9523
15542SOL    HW247843   6.751   2.515   4.628 -0.5602  0.1872  0.2806
15543SOL     OW47844   5.611   3.704   5.196  0.8364  0.0401  0.1984
15543SOL    HW147845   5.642   3.788   5.163 -0.5647  0.3868 -0.3043
15543SOL    HW247846   5.686   3.667   5.242  0.7372  2.8055  2.8725
15544SOL     OW47847   5.762   2.372   4.989  0.0404  0.2302 -0.9460
15544SOL    HW147848   5.718   2.347   4.907  0.9356  0.2615 -1.4430
15544SOL    HW247849   5.766   2.290   5.039  1.7975 -0.4020 -2.0303
15545SOL     OW47850   6.591   3.665   5.354  0.1362  0.5904  0.1339
15545SOL    HW147851   6.645   3.630   5.284  0.4117  0.2528  0.5113
15545SOL    HW247852   6.557   3.588   5.399 -1.8909  0.7353 -0.9917
15546SOL     OW47853   6.028   2.730   3.356 -0.6570  0.0072  0.1264
15546SOL    HW147854   6.103   2.672   3.365 -0.9077 -0.3862 -0.2488
15546SOL    HW247855   6.049   2.806   3.409 -0.1678 -0.2758  0.3389
15547SOL     OW47856   5.615   3.384   5.176 -0.4798 -0.0332  0.0107
15547SOL    HW147857   5.637   3.419   5.262 -0.8204  1.1513 -0.3719
15547SOL    HW247858   5.575   3.299   5.195  0.3450 -0.2396  0.9530
15548SOL     OW47859   6.491   2.676   4.914  0.9520  0.4594  0.1512
15548SOL    HW147860   6.408   2.696   4.957  0.3166 -0.6794 -0.4922
15548SOL    HW247861   6.520   2.759   4.878 -0.9590  0.5550 -1.3536
15549SOL     OW47862   6.763   2.585   3.971  0.2122 -0.0305  0.3512
15549SOL    HW147863   6.811   2.527   4.031  2.5547  1.1675 -0.2354
15549SOL    HW247864   6.742   2.530   3.896  0.8486 -0.5543  0.5492
15550SOL     OW47865   7.523   3.414   5.215  0.9873 -0.4353 -0.4764
15550SOL    HW147866   7.538   3.388   5.306  0.1121 -1.4934 -0.6104
15550SOL    HW247867   7.432   3.443   5.213  0.2635 -2.5750 -1.4393
15551SOL     OW47868   7.519   3.225   5.008 -0.4963  0.9222 -0.1402
15551SOL    HW147869   7.596   3.170   4.997 -1.7292 -0.7060 -1.1959
15551SOL    HW247870   7.551   3.304   5.050  1.6685  0.1484 -0.2280
15552SOL     OW47871   5.501   3.511   4.453  0.3424  0.0682 -0.6115
15552SOL    HW147872   5.448   3.563   4.512  0.1445 -0.3434 -0.4212
15552SOL    HW247873   5.542   3.575   4.394 -0.8309  0.3476 -1.1467
15553SOL     OW47874   5.702   3.273   5.595  0.1048 -0.1401  0.0750
15553SOL    HW147875   5.794   3.294   5.611 -0.4346  0.3623  2.9975
15553SOL    HW247876   5.665   3.354   5.560  0.2780  0.4686  1.2591
15554SOL     OW47877   7.265   2.244   3.882  0.4934  0.1369 -0.1630
15554SOL    HW147878   7.234   2.281   3.965  1.4562  0.3272  0.1273
15554SOL    HW247879   7.346   2.292   3.864  1.5948 -1.5692  0.0361
15555SOL     OW47880   6.959   3.441   3.899  0.1070  0.1387 -0.1821
15555SOL    HW147881   6.991   3.508   3.961  1.1495 -0.5106  0.0022
15555SOL    HW247882   6.974   3.480   3.813 -2.5466  1.6058 -0.0921
15556SOL     OW47883   5.628   3.220   6.080 -0.0912 -0.1733 -0.7934
15556SOL    HW147884   5.611   3.209   5.987 -1.1302 -0.3991 -0.5907
15556SOL    HW247885   5.601   3.311   6.098  0.4852 -0.0016 -0.7910
15557SOL     OW47886   5.800   3.161   5.340  0.0207  0.3570 -0.2090
15557SOL    HW147887   5.778   3.186   5.430 -1.1418 -1.0186 -0.0717
15557SOL    HW247888   5.853   3.082   5.349 -1.7269 -0.9448 -0.7204
15558SOL     OW47889   6.196   3.353   4.076  0.0518 -0.3150 -0.0983
15558SOL    HW147890   6.214   3.271   4.123  0.1287 -1.0580 -1.3958
15558SOL    HW247891   6.107   3.377   4.103  0.4738 -0.1538  1.2275
15559SOL     OW47892   7.323   3.840   5.503  0.6079 -0.0610  0.2897
15559SOL    HW147893   7.306   3.916   5.448 -0.7939 -0.6689 -0.1481
15559SOL    HW247894   7.418   3.829   5.498  0.6413  0.6004 -1.0730
15560SOL     OW47895   7.569   2.001   4.824  0.9118 -0.1005 -0.2940
15560SOL    HW147896   7.639   1.965   4.770  1.0057 -2.6542  1.3645
15560SOL    HW247897   7.512   1.927   4.843  0.0087  1.0168  1.7655
15561SOL     OW47898   5.866   1.838   4.223 -0.4500 -0.6874 -0.6688
15561SOL    HW147899   5.832   1.924   4.197  1.4120  0.0250 -0.8798
15561SOL    HW247900   5.787   1.785   4.238 -1.6641  1.2440  0.1590
15562SOL     OW47901   6.284   3.093   4.166  0.0735  0.1609  0.3897
15562SOL    HW147902   6.351   3.066   4.103 -1.0362 -1.1559 -0.2645
15562SOL    HW247903   6.231   3.015   4.180 -1.7692  1.3520  0.3364
15563SOL     OW47904   6.070   2.867   5.161  0.0753 -0.5718 -0.3781
15563SOL    HW147905   6.021   2.886   5.081 -1.4995 -0.9399  0.4741
15563SOL    HW247906   6.057   2.774   5.176  2.9787 -1.2594 -1.3589
15564SOL     OW47907   6.166   2.462   4.095  0.2656 -0.1719  0.4698
15564SOL    HW147908   6.144   2.519   4.022  0.5257 -1.6094 -0.7850
15564SOL    HW247909   6.113   2.494   4.167 -0.9115  0.5593 -0.6796
15565SOL     OW47910   6.767   3.159   3.633  0.2006  0.2323 -0.1282
15565SOL    HW147911   6.774   3.194   3.722 -1.9192  0.0669  0.1736
15565SOL    HW247912   6.857   3.150   3.603  0.9265  1.6531  1.4651
15566SOL     OW47913   7.211   2.862   4.774 -0.3541 -0.5326 -0.0205
15566SOL    HW147914   7.128   2.903   4.798 -2.5043 -1.7227 -4.3673
15566SOL    HW247915   7.251   2.923   4.712  0.4272 -1.3703 -0.3706
15567SOL     OW47916   6.656   2.997   4.228 -0.0976  0.0742 -0.3879
15567SOL    HW147917   6.647   3.074   4.284 -1.5944  0.1715 -0.7316
15567SOL    HW247918   6.588   2.937   4.258 -0.2873 -0.2666 -1.4605
15568SOL     OW47919   6.751   2.047   4.965 -0.0487  0.3250 -0.0306
15568SOL    HW147920   6.687   2.055   4.894 -1.5027 -1.4267  0.9978
15568SOL    HW247921   6.806   1.973   4.939  0.4001  0.6668 -0.0528
15569SOL     OW47922   6.284   3.679   4.363  0.1261  0.4871  0.0588
15569SOL    HW147923   6.212   3.717   4.412 -1.3620 -1.5639 -0.3978
15569SOL    HW247924   6.256   3.685   4.271 -0.0034 -1.2607 -0.0513
15570SOL     OW47925   7.170   2.795   5.259 -0.3202  0.6118 -0.4155
15570SOL    HW147926   7.090   2.848   5.265  0.9389  2.5978 -0.5223
15570SOL    HW247927   7.190   2.793   5.166 -0.0210  0.4464 -0.3461
15571SOL     OW47928   5.570   3.519   4.093  0.1012 -0.2266  0.3421
15571SOL    HW147929   5.617   3.445   4.054 -0.2238 -0.0944 -0.3126
15571SOL    HW247930   5.477   3.495   4.085  0.0431 -0.4713  1.5942
15572SOL     OW47931   5.919   2.907   5.421  0.5764  0.2369 -0.2108
15572SOL    HW147932   5.953   2.830   5.375 -1.6388 -0.8258 -0.1909
15572SOL    HW247933   5.894   2.875   5.507  0.5613  1.2216  0.1638
15573SOL     OW47934   6.273   2.080   5.161 -0.3904  0.3959 -0.2195
15573SOL    HW147935   6.276   2.010   5.095 -0.3410  1.0312 -0.9087
15573SOL    HW247936   6.319   2.153   5.120  3.4650 -0.4700  2.1204
15574SOL     OW47937   5.707   2.464   3.458  0.5138 -0.1473  0.0039
15574SOL    HW147938   5.733   2.554   3.438  0.7476 -0.5564 -1.7265
15574SOL    HW247939   5.774   2.432   3.518 -1.2159  1.7417  3.1772
15575SOL     OW47940   6.876   2.917   4.937  0.3344 -0.4008  0.0209
15575SOL    HW147941   6.863   2.851   5.005  0.5891  0.2282  0.6805
15575SOL    HW247942   6.793   2.966   4.936  0.9592  0.7276  1.1226
15576SOL     OW47943   5.444   1.582   3.562 -0.3012 -0.0113 -0.3992
15576SOL    HW147944   5.386   1.508   3.542 -0.4478  0.2844 -1.1093
15576SOL    HW247945   5.515   1.574   3.498  0.8296 -0.7631  0.8929
15577SOL     OW47946   6.532   3.069   3.939  0.2676  0.3088  0.2145
15577SOL    HW147947   6.567   2.981   3.951  0.3210  0.3065  0.0417
15577SOL    HW247948   6.600   3.127   3.974 -1.1525  0.1811  3.5811
15578SOL     OW47949   6.128   2.558   5.557  0.2972  0.0672 -0.2442
15578SOL    HW147950   6.053   2.602   5.598 -1.4284 -1.3022 -1.7709
15578SOL    HW247951   6.139   2.478   5.609  1.8839  1.0690  1.0458
15579SOL     OW47952   6.963   3.613   4.130 -0.3149 -0.3988 -0.2093
15579SOL    HW147953   6.890   3.658   4.174  0.0402  0.0733 -0.0884
15579SOL    HW247954   7.037   3.672   4.142  0.5240 -1.6601  1.1914
15580SOL     OW47955   6.155   2.063   5.395  0.1452  0.4556 -0.6722
15580SOL    HW147956   6.069   2.032   5.365  0.7492 -0.1515 -1.8403
15580SOL    HW247957   6.200   2.091   5.315  0.7678  1.4971  0.0087
15581SOL     OW47958   7.111   3.379   5.394  0.1464  0.0258  0.1949
15581SOL    HW147959   7.086   3.466   5.424  0.4521  0.5650 -1.0761
15581SOL    HW247960   7.123   3.329   5.475 -1.1253  0.8316  0.9310
15582SOL     OW47961   5.899   3.676   5.178  0.0117 -0.6326 -0.4054
15582SOL    HW147962   5.870   3.652   5.090  0.9641 -0.9680 -0.6388
15582SOL    HW247963   5.983   3.631   5.189 -0.5576 -1.3881  1.0581
15583SOL     OW47964   6.833   2.397   4.721 -0.1711 -0.4258 -0.6672
15583SOL    HW147965   6.868   2.474   4.766 -0.1093 -1.1796  0.6400
15583SOL    HW247966   6.899   2.329   4.737 -0.5107 -0.9112 -1.2934
15584SOL     OW47967   6.665   2.132   4.287 -0.6962  0.2563 -0.0708
15584SOL    HW147968   6.675   2.145   4.192 -0.0674 -1.1865 -0.2275
15584SOL    HW247969   6.657   2.037   4.297  0.8895  0.2347  1.4510
15585SOL     OW47970   6.285   2.798   4.119  0.6433 -0.3125 -0.3444
15585SOL    HW147971   6.198   2.838   4.122  1.5417  1.7449  2.0443
15585SOL    HW247972   6.282   2.730   4.186  0.6578 -0.7634 -0.7988
15586SOL     OW47973   7.369   2.329   5.332 -0.2009 -0.2132  0.2283
15586SOL    HW147974   7.383   2.295   5.244 -0.4154  0.4829 -0.0859
15586SOL    HW247975   7.287   2.377   5.326 -1.0872 -1.5420  1.2362
15587SOL     OW47976   7.531   2.779   4.832 -0.0195 -0.2361 -0.1855
15587SOL    HW147977   7.463   2.780   4.765  0.7548  0.6777 -0.9804
15587SOL    HW247978   7.555   2.687   4.842  2.0085 -0.2056 -3.4109
15588SOL     OW47979   6.333   3.407   3.842  0.4116  0.1829  0.3745
15588SOL    HW147980   6.385   3.472   3.890 -1.0915  1.1928  0.7037
15588SOL    HW247981   6.291   3.355   3.911  1.0164 -0.6555  0.1136
15589SOL     OW47982   6.295   3.417   4.484  0.2971  0.2907  0.0527
15589SOL    HW147983   6.275   3.501   4.443 -1.2589  0.3876  0.9529
15589SOL    HW247984   6.341   3.440   4.565  1.4508  0.1762 -0.5417
15590SOL     OW47985   6.529   3.032   4.584  0.5864  0.3544 -0.4217
15590SOL    HW147986   6.600   2.981   4.624  0.2067  0.4181  0.3500
15590SOL    HW247987   6.452   3.012   4.637  0.5155  2.0438  0.1579
15591SOL     OW47988   6.498   2.406   3.853 -0.1699 -0.3401  0.7880
15591SOL    HW147989   6.430   2.405   3.785 -0.1385 -2.7540  0.7149
15591SOL    HW247990   6.580   2.396   3.806 -0.1013 -1.4258  1.1107
15592SOL     OW47991   7.543   3.446   4.550 -0.3777 -0.2778 -0.2241
15592SOL    HW147992   7.448   3.449   4.561 -0.0784 -0.2449  4.0588
15592SOL    HW247993   7.569   3.364   4.593  1.7061  1.5509  2.3125
15593SOL     OW47994   5.255   3.151   5.519 -0.4423  0.3523  0.2566
15593SOL    HW147995   5.317   3.079   5.534 -2.5636 -2.2047 -2.0415
15593SOL    HW247996   5.261   3.168   5.425 -1.9038  1.3093  0.3178
15594SOL     OW47997   6.090   3.403   4.918 -0.3857  0.6482 -0.2291
15594SOL    HW147998   6.004   3.396   4.960  0.3826 -0.7270  1.2356
15594SOL    HW247999   6.091   3.332   4.854 -0.5095  0.9678 -0.5883
15595SOL     OW48000   5.985   3.288   5.562 -0.2898  0.0520 -0.5771
15595SOL    HW148001   6.036   3.367   5.583  1.2667 -1.3007  1.0795
15595SOL    HW248002   6.025   3.254   5.482 -0.4731  0.5353 -0.8748
15596SOL     OW48003   7.334   2.383   4.824 -0.1215  0.3464 -0.4281
15596SOL    HW148004   7.292   2.326   4.888 -0.3575 -0.0126 -0.8960
15596SOL    HW248005   7.293   2.469   4.838  0.1318  0.3735  0.1782
15597SOL     OW48006   6.107   2.744   4.834  0.0326  0.2244 -0.1935
15597SOL    HW148007   6.078   2.655   4.812 -0.4488 -0.0152  1.2894
15597SOL    HW248008   6.041   2.801   4.795  0.6420  0.0045 -1.6481
15598SOL     OW48009   7.254   3.499   5.197 -0.4103  0.4283  0.0515
15598SOL    HW148010   7.187   3.479   5.132 -1.2432 -1.4148  1.3658
15598SOL    HW248011   7.222   3.458   5.278  1.1262  1.6231  1.3453
15599SOL     OW48012   6.254   2.663   5.061  0.1773 -0.2762  0.0041
15599SOL    HW148013   6.207   2.600   5.115  0.2882  1.8563  2.7862
15599SOL    HW248014   6.191   2.688   4.992 -0.6362 -1.7181  0.1977
15600SOL     OW48015   6.512   3.212   4.380 -0.0967 -0.7336 -0.1867
15600SOL    HW148016   6.486   3.158   4.454 -3.1196  0.1017 -0.5162
15600SOL    HW248017   6.435   3.266   4.360  0.5456 -0.8941 -3.9068
15601SOL     OW48018   6.913   2.558   4.905 -0.4874  0.1283 -0.3958
15601SOL    HW148019   6.873   2.487   4.955  0.0042 -0.5905 -0.9993
15601SOL    HW248020   6.888   2.637   4.952 -1.7363 -0.3716 -0.1679
15602SOL     OW48021   6.265   1.882   4.986  0.7311 -0.2787  0.2306
15602SOL    HW148022   6.253   1.909   4.895  1.7922  1.1281  0.4814
15602SOL    HW248023   6.199   1.814   4.999 -1.0492  1.1508 -0.8896
15603SOL     OW48024   6.229   2.807   4.517 -0.3398  0.2702 -0.0840
15603SOL    HW148025   6.162   2.844   4.460 -0.2488  1.6213  0.6517
15603SOL    HW248026   6.205   2.836   4.605  0.0812 -0.9446  0.4544
15604SOL     OW48027   6.140   3.507   5.198  0.5353  0.3121  0.1820
15604SOL    HW148028   6.081   3.448   5.245  0.5550  1.1275  1.2762
15604SOL    HW248029   6.170   3.456   5.123 -1.6049 -0.0992 -0.4575
15605SOL     OW48030   6.929   1.722   4.180  0.2876  0.0589 -0.0441
15605SOL    HW148031   6.971   1.670   4.111  2.3615  2.6460 -0.8794
15605SOL    HW248032   6.999   1.744   4.240 -0.6790  1.2196  0.6983
15606SOL     OW48033   6.655   1.822   4.334 -0.3282  0.2119 -0.6455
15606SOL    HW148034   6.679   1.729   4.335  1.2400  0.5620 -1.4701
15606SOL    HW248035   6.628   1.839   4.244 -1.3661  0.4027 -0.3098
15607SOL     OW48036   7.251   1.980   4.525  0.4035  0.1238  0.1846
15607SOL    HW148037   7.202   2.000   4.445 -1.1350  0.8903  1.2497
15607SOL    HW248038   7.279   2.066   4.558  0.4692 -0.1214  0.7808
15608SOL     OW48039   5.375   3.044   4.043 -0.0743  0.1820 -0.2913
15608SOL    HW148040   5.284   3.068   4.024 -0.3806 -0.1186  0.6798
15608SOL    HW248041   5.408   3.007   3.962 -0.3976  1.5179 -1.0539
15609SOL     OW48042   6.652   3.552   3.867 -0.2114  0.2449 -0.3200
15609SOL    HW148043   6.704   3.484   3.910 -0.4662 -0.4673 -1.1335
15609SOL    HW248044   6.646   3.621   3.933  1.0758  0.0077  0.0900
15610SOL     OW48045   5.613   2.270   5.869  0.3817 -0.2353 -0.1798
15610SOL    HW148046   5.652   2.278   5.956  1.9758  2.2164 -1.0395
15610SOL    HW248047   5.538   2.329   5.871 -0.4652 -1.2849 -0.0552
15611SOL     OW48048   5.783   2.101   6.440  0.2403 -0.1062 -0.1447
15611SOL    HW148049   5.850   2.040   6.409 -0.7239 -0.2255 -2.1412
15611SOL    HW248050   5.824   2.187   6.434  0.7865 -0.3208  0.3668
15612SOL     OW48051   5.667   1.867   6.547  0.4380  0.0316 -0.0781
15612SOL    HW148052   5.583   1.866   6.500  0.2438 -0.8271  0.2598
15612SOL    HW248053   5.696   1.958   6.543 -1.0510  0.5829  0.7276
15613SOL     OW48054   5.635   3.181   6.863  0.0846  0.0350  0.1280
15613SOL    HW148055   5.708   3.227   6.822  0.5515 -1.6425 -1.0314
15613SOL    HW248056   5.557   3.219   6.822  0.4946 -0.7181 -1.4473
15614SOL     OW48057   6.557   3.667   6.153  0.1045 -0.2831  0.1519
15614SOL    HW148058   6.558   3.579   6.192 -2.0202 -0.0704  0.7735
15614SOL    HW248059   6.650   3.690   6.146  0.6690 -1.6177  2.1763
15615SOL     OW48060   6.628   2.826   6.259  0.9023  0.2835 -0.1091
15615SOL    HW148061   6.540   2.837   6.295  1.0743  0.1411  0.3677
15615SOL    HW248062   6.656   2.740   6.290  0.4302 -0.5879 -1.9544
15616SOL     OW48063   7.386   2.757   5.452  0.3222  0.0157  0.8315
15616SOL    HW148064   7.333   2.785   5.377  1.4749 -2.1628 -0.9270
15616SOL    HW248065   7.323   2.731   5.518 -0.7924 -0.3531 -0.3425
15617SOL     OW48066   6.013   2.984   7.275 -0.5395 -0.0358  0.2955
15617SOL    HW148067   6.058   2.999   7.192 -1.0187  0.2174  0.0776
15617SOL    HW248068   6.081   2.953   7.334  0.4538  2.6415  0.6835
15618SOL     OW48069   6.126   2.771   7.892 -0.1454  0.9579 -0.0434
15618SOL    HW148070   6.094   2.861   7.902 -0.7597  0.9132 -1.3700
15618SOL    HW248071   6.080   2.722   7.960 -0.3583  1.5117  0.2185
15619SOL     OW48072   6.197   2.976   6.391  0.3874  1.0972 -0.0205
15619SOL    HW148073   6.110   3.015   6.387 -0.1318  0.4582  2.6703
15619SOL    HW248074   6.181   2.888   6.425  2.0715  0.8853  0.2877
15620SOL     OW48075   6.227   2.904   7.413  0.2809  0.0917 -0.0810
15620SOL    HW148076   6.211   2.935   7.502 -0.4170  1.0053 -0.5058
15620SOL    HW248077   6.318   2.927   7.394 -0.3626  2.4297 -0.5719
15621SOL     OW48078   5.883   3.341   6.786  0.1944 -0.5281  0.9140
15621SOL    HW148079   5.838   3.406   6.841 -2.7096 -2.6547  1.3500
15621SOL    HW248080   5.909   3.389   6.708 -0.1567  1.5181  1.9786
15622SOL     OW48081   6.831   3.028   7.043  0.1028 -0.3989  0.2115
15622SOL    HW148082   6.874   3.048   7.126  0.3565 -2.8526  0.7481
15622SOL    HW248083   6.884   2.957   7.006 -0.4938  0.0863 -1.6717
15623SOL     OW48084   6.122   1.914   7.027 -0.0089 -0.3419  0.5658
15623SOL    HW148085   6.089   1.873   7.107  2.6600  0.4556  2.2078
15623SOL    HW248086   6.043   1.943   6.980 -1.7007 -1.8459  2.3235
15624SOL     OW48087   7.026   2.469   5.897  0.2161 -0.3460 -0.3834
15624SOL    HW148088   7.066   2.426   5.822 -0.0258  1.5819 -1.7135
15624SOL    HW248089   7.089   2.460   5.968 -0.0255 -3.1693 -0.4415
15625SOL     OW48090   5.828   3.478   6.501  0.3492 -0.3162 -0.0427
15625SOL    HW148091   5.768   3.404   6.490 -1.2529  1.0692 -1.1192
15625SOL    HW248092   5.880   3.478   6.421 -0.2413  0.1915 -0.4404
15626SOL     OW48093   6.799   2.895   7.534  0.2661  0.2388  0.0452
15626SOL    HW148094   6.784   2.820   7.476  0.7767 -0.0185  0.2335
15626SOL    HW248095   6.827   2.856   7.616  0.6944  0.6429  0.0955
15627SOL     OW48096   5.800   3.576   6.915  0.1724 -0.1558  0.4087
15627SOL    HW148097   5.770   3.662   6.888 -0.3758 -0.7947 -1.1409
15627SOL    HW248098   5.761   3.562   7.001 -3.0789 -0.4406 -0.9885
15628SOL     OW48099   5.475   2.927   6.618 -0.1825  0.1820 -0.3321
15628SOL    HW148100   5.423   3.003   6.592 -0.0377  0.1580 -0.7027
15628SOL    HW248101   5.515   2.897   6.536  3.8419  2.6864  0.4063
15629SOL     OW48102   5.973   3.424   7.294 -0.2848 -0.2730  0.0157
15629SOL    HW148103   5.906   3.394   7.234 -0.4988  0.1006  0.0714
15629SOL    HW248104   6.054   3.385   7.261 -0.1758  0.9756 -1.2706
15630SOL     OW48105   5.887   2.671   5.650  0.0157 -0.2738  0.6447
15630SOL    HW148106   5.816   2.727   5.620 -0.9580 -1.9686 -0.4173
15630SOL    HW248107   5.889   2.683   5.745  0.7351  2.4753  0.3628
15631SOL     OW48108   7.353   2.078   7.428  0.4730 -0.2370  0.0721
15631SOL    HW148109   7.370   1.985   7.443  0.5763  0.0548  2.0454
15631SOL    HW248110   7.283   2.100   7.489  0.5643  1.0172 -0.2448
15632SOL     OW48111   5.475   2.539   6.345  0.1176 -0.2887 -0.2739
15632SOL    HW148112   5.532   2.615   6.359 -0.1167 -0.0106 -0.8140
15632SOL    HW248113   5.399   2.573   6.299 -0.6189 -0.6179  0.6501
15633SOL     OW48114   7.298   3.382   6.459 -0.1005  0.3821  0.6877
15633SOL    HW148115   7.204   3.396   6.451 -0.5086 -1.4768  1.6643
15633SOL    HW248116   7.330   3.381   6.369 -1.1905  0.0052  0.2868
15634SOL     OW48117   6.026   3.196   6.166  0.8134 -0.6819 -0.3291
15634SOL    HW148118   6.020   3.179   6.260 -2.5601  0.3905 -0.2422
15634SOL    HW248119   5.947   3.158   6.129  1.0953  0.6107 -2.4377
15635SOL     OW48120   7.358   2.935   6.537 -0.0215 -0.2664  0.5338
15635SOL    HW148121   7.313   2.858   6.504 -0.3680  0.4638 -0.7768
15635SOL    HW248122   7.451   2.915   6.526 -0.0866  0.7109 -2.9690
15636SOL     OW48123   6.935   2.683   5.702 -0.3816  0.0030 -1.0366
15636SOL    HW148124   6.941   2.739   5.779  0.8157 -1.6465  0.1454
15636SOL    HW248125   6.876   2.612   5.728  1.1374 -1.3355 -1.0701
15637SOL     OW48126   5.561   2.912   7.232  0.1052  0.4159  0.0629
15637SOL    HW148127   5.543   2.820   7.248  0.8159  0.3433  0.4644
15637SOL    HW248128   5.620   2.938   7.302 -0.1565  1.2046  0.0063
15638SOL     OW48129   5.937   3.103   6.454  0.0010 -0.2895 -0.4748
15638SOL    HW148130   5.912   3.037   6.518 -0.1066 -0.2741 -0.5014
15638SOL    HW248131   5.866   3.168   6.456 -0.8493 -1.1218 -1.7863
15639SOL     OW48132   6.744   2.657   7.103 -0.4128  0.4542 -0.0250
15639SOL    HW148133   6.837   2.633   7.101 -0.6426 -0.4103 -0.7283
15639SOL    HW248134   6.733   2.718   7.030  0.0171  2.2668  1.3298
15640SOL     OW48135   6.688   1.941   6.081 -0.0679 -0.5882 -0.4828
15640SOL    HW148136   6.739   2.015   6.048  0.8833 -0.8004  0.4440
15640SOL    HW248137   6.602   1.952   6.041  0.3950  0.3674 -1.2726
15641SOL     OW48138   5.273   2.688   6.722 -0.3269  0.3884  1.0410
15641SOL    HW148139   5.313   2.774   6.711  1.2559 -0.3916  0.2112
15641SOL    HW248140   5.295   2.663   6.812  1.9714 -0.3830  0.3528
15642SOL     OW48141   7.396   3.061   5.903 -0.0222  0.1093 -0.0123
15642SOL    HW148142   7.362   2.977   5.872  0.4036  0.3340 -1.1152
15642SOL    HW248143   7.356   3.072   5.989 -3.5170  0.7673 -1.5470
15643SOL     OW48144   6.845   3.387   7.437  0.0502 -0.1591  0.4977
15643SOL    HW148145   6.911   3.378   7.505 -0.2876  1.8600  1.1854
15643SOL    HW248146   6.803   3.301   7.431  0.7095 -0.6355  2.1812
15644SOL     OW48147   5.671   2.574   7.782  0.1601 -0.3990 -0.4844
15644SOL    HW148148   5.614   2.575   7.859  0.3357 -1.3006 -0.3336
15644SOL    HW248149   5.611   2.563   7.708 -0.0229  0.6335 -0.4993
15645SOL     OW48150   6.443   3.409   6.753  0.1374  0.4630  0.4944
15645SOL    HW148151   6.496   3.465   6.809  0.0752  0.9954  0.0344
15645SOL    HW248152   6.353   3.427   6.779  0.0911  0.9556  0.0069
15646SOL     OW48153   7.474   3.702   6.120 -0.2923 -0.3994 -0.1940
15646SOL    HW148154   7.476   3.615   6.082 -0.0784  0.5076 -2.4301
15646SOL    HW248155   7.426   3.755   6.056 -1.6062  0.8618  1.7221
15647SOL     OW48156   6.254   2.577   5.861  0.1675  0.0720 -0.4185
15647SOL    HW148157   6.270   2.634   5.786  0.7291 -0.2527 -0.5483
15647SOL    HW248158   6.169   2.606   5.896 -0.5504 -0.3708 -1.7294
15648SOL     OW48159   6.821   2.205   6.492 -0.3747 -0.6652 -0.2092
15648SOL    HW148160   6.823   2.253   6.409  2.3565 -1.0807 -0.4796
15648SOL    HW248161   6.771   2.261   6.551  0.2066  1.1001 -1.3172
15649SOL     OW48162   7.533   4.043   6.021 -0.3812 -0.7401 -0.1260
15649SOL    HW148163   7.482   4.092   6.086 -1.7196  0.4114 -1.9490
15649SOL    HW248164   7.473   3.976   5.988 -0.7683  0.5078 -2.1601
15650SOL     OW48165   6.881   2.420   7.232 -0.0495 -0.3921  0.2800
15650SOL    HW148166   6.941   2.402   7.160 -2.4982 -0.8309 -1.7851
15650SOL    HW248167   6.798   2.381   7.205 -1.4570  0.6212  2.7533
15651SOL     OW48168   6.520   2.093   7.269 -0.3962  0.6478  0.5007
15651SOL    HW148169   6.595   2.075   7.327  0.4393  1.1793 -0.3781
15651SOL    HW248170   6.489   2.179   7.298  0.7007  1.4143 -0.4904
15652SOL     OW48171   6.691   2.712   7.385  0.1924  0.4712  0.1284
15652SOL    HW148172   6.727   2.689   7.299  1.6441  1.2443  0.5007
15652SOL    HW248173   6.619   2.772   7.366  0.9483  1.1862 -0.5396
15653SOL     OW48174   6.408   2.370   6.553  0.3137 -0.3764  0.6060
15653SOL    HW148175   6.341   2.438   6.562 -0.0546 -0.7394  0.6307
15653SOL    HW248176   6.426   2.367   6.459  0.0500 -0.5063  0.5567
15654SOL     OW48177   6.671   3.012   6.042 -0.0674 -0.3868  0.4926
15654SOL    HW148178   6.596   3.072   6.048 -0.3089 -0.7299  0.9680
15654SOL    HW248179   6.657   2.949   6.113  0.4169 -0.7439  0.2760
15655SOL     OW48180   5.779   2.258   6.808  0.7666 -0.1627 -0.6570
15655SOL    HW148181   5.745   2.307   6.734  1.1967 -0.4131 -1.0280
15655SOL    HW248182   5.849   2.314   6.843  1.2959 -0.5217 -1.1152
15656SOL     OW48183   5.181   3.908   6.911  0.7218 -0.0407  0.1178
15656SOL    HW148184   5.216   3.979   6.858  2.7752  0.3114  1.7923
15656SOL    HW248185   5.100   3.942   6.948  0.5133  0.5832 -0.8956
15657SOL     OW48186   6.321   2.134   5.844 -0.4645 -0.3967 -0.0623
15657SOL    HW148187   6.342   2.227   5.837 -1.9697  0.0803  1.2460
15657SOL    HW248188   6.321   2.102   5.754  1.0389  0.6105 -0.4578
15658SOL     OW48189   7.409   1.941   7.115  0.6996  0.3347 -0.1162
15658SOL    HW148190   7.322   1.967   7.145  1.3173  0.2393  1.9176
15658SOL    HW248191   7.463   2.019   7.128  1.1534  0.0604 -0.3161
15659SOL     OW48192   6.858   3.439   6.186  0.2147  0.1776 -0.8156
15659SOL    HW148193   6.763   3.428   6.174  0.2874  0.4394 -1.7522
15659SOL    HW248194   6.868   3.532   6.208  0.1625 -0.1023  0.4111
15660SOL     OW48195   6.360   2.132   6.274 -0.0860 -0.1051  0.2630
15660SOL    HW148196   6.406   2.216   6.266 -2.8044  1.3539 -1.5517
15660SOL    HW248197   6.347   2.121   6.368  1.3215  0.8833  0.6115
15661SOL     OW48198   6.309   3.738   6.288 -0.0543 -0.4388 -0.1379
15661SOL    HW148199   6.263   3.714   6.208  0.2025  0.4231 -0.5552
15661SOL    HW248200   6.400   3.752   6.260 -0.1426  0.7393  0.1245
15662SOL     OW48201   5.930   3.879   6.654  0.3057 -0.3240 -0.3751
15662SOL    HW148202   5.873   3.943   6.610  0.6198  0.9088  0.9100
15662SOL    HW248203   5.884   3.859   6.735  0.3226 -1.6015 -0.6613
15663SOL     OW48204   7.074   3.300   6.052 -0.0825  0.3563  0.0736
15663SOL    HW148205   7.012   3.340   6.113 -0.1994 -2.0015  1.6195
15663SOL    HW248206   7.023   3.232   6.008  1.1108 -1.0135  0.7180
15664SOL     OW48207   6.730   3.100   7.383 -0.1316  0.4425  0.1971
15664SOL    HW148208   6.761   3.034   7.444 -0.9180 -0.3027 -0.1884
15664SOL    HW248209   6.799   3.106   7.316 -0.5655 -0.8451 -0.3955
15665SOL     OW48210   5.935   2.615   5.912 -0.4872 -0.7253 -0.4165
15665SOL    HW148211   5.850   2.643   5.945 -0.5663 -0.5283 -0.7833
15665SOL    HW248212   5.920   2.525   5.882 -1.3245  0.2140 -3.1227
15666SOL     OW48213   7.097   2.420   6.340  0.1801  0.0636 -0.5659
15666SOL    HW148214   7.081   2.484   6.410  1.0719 -0.0780 -0.2305
15666SOL    HW248215   7.120   2.340   6.386 -0.5543 -0.4064 -1.0013
15667SOL     OW48216   6.343   3.229   7.491 -0.4293 -0.4609  0.7293
15667SOL    HW148217   6.290   3.211   7.413 -1.7514  0.5341  1.3680
15667SOL    HW248218   6.424   3.268   7.456 -1.4332  0.9666 -0.1153
15668SOL     OW48219   6.402   3.657   5.769 -0.5864  0.4799 -0.0172
15668SOL    HW148220   6.367   3.718   5.705  0.9040  0.8002 -0.5559
15668SOL    HW248221   6.475   3.704   5.810 -0.3107 -0.4205  0.5560
15669SOL     OW48222   6.017   1.768   7.223  0.2041 -0.3702  0.0709
15669SOL    HW148223   6.038   1.696   7.283  0.2957  0.6882  1.3534
15669SOL    HW248224   5.937   1.739   7.179  0.5215 -1.4742  0.1926
15670SOL     OW48225   7.075   3.577   5.788 -0.2256  0.3697 -0.5912
15670SOL    HW148226   7.028   3.531   5.719 -0.7480 -0.4064  0.2593
15670SOL    HW248227   7.023   3.656   5.804  1.2827  1.9337 -2.8473
15671SOL     OW48228   5.944   4.353   5.585  0.7443 -0.3082 -0.7692
15671SOL    HW148229   5.869   4.307   5.623  0.1396 -0.7026 -2.3437
15671SOL    HW248230   5.948   4.436   5.632 -0.8819 -0.1570 -0.8321
15672SOL     OW48231   7.012   2.131   6.149  0.1379  0.6213 -0.2102
15672SOL    HW148232   7.022   2.114   6.056 -0.2029  0.2222 -0.1729
15672SOL    HW248233   7.097   2.107   6.187  0.1810  0.5076 -0.3779
15673SOL     OW48234   5.624   3.928   7.000 -0.2293  0.0105 -0.1861
15673SOL    HW148235   5.586   4.009   6.964  3.3777  2.1071  0.1639
15673SOL    HW248236   5.608   3.862   6.933 -0.0829  2.0055 -2.3345
15674SOL     OW48237   6.432   3.186   6.274  0.3801  1.0442  0.2944
15674SOL    HW148238   6.407   3.120   6.209  0.3714  1.1792  0.1608
15674SOL    HW248239   6.372   3.172   6.347  0.7579  0.5132  0.5124
15675SOL     OW48240   6.199   2.550   6.606 -0.7139  0.5145  0.2745
15675SOL    HW148241   6.134   2.594   6.552 -1.4430  1.4198  1.8133
15675SOL    HW248242   6.252   2.621   6.643 -0.6800 -0.0202  1.2827
15676SOL     OW48243   7.194   1.881   6.750  0.5705  0.7998 -0.2979
15676SOL    HW148244   7.109   1.925   6.749 -1.2001 -2.2284  1.4435
15676SOL    HW248245   7.194   1.827   6.671  0.1477 -0.3770  0.4896
15677SOL     OW48246   6.552   2.062   5.519 -0.1214  0.1468 -0.2146
15677SOL    HW148247   6.464   2.048   5.553 -0.0310 -1.0704 -0.4651
15677SOL    HW248248   6.582   1.976   5.490  0.2643  0.9243 -2.3185
15678SOL     OW48249   6.467   1.626   6.898  0.7171 -0.2082 -0.0122
15678SOL    HW148250   6.537   1.604   6.960  0.5964  2.0417  1.0338
15678SOL    HW248251   6.487   1.716   6.871 -0.2373 -0.5157 -1.9062
15679SOL     OW48252   6.575   3.392   6.180 -0.5753  0.9846  0.1465
15679SOL    HW148253   6.511   3.343   6.231 -0.9653 -0.7061 -1.8332
15679SOL    HW248254   6.574   3.351   6.093  2.2753  1.7190 -0.3473
15680SOL     OW48255   6.822   2.535   6.743 -0.2908  0.0369 -0.1623
15680SOL    HW148256   6.746   2.479   6.732 -1.0128  1.3018 -2.0424
15680SOL    HW248257   6.894   2.474   6.760 -1.3866 -1.2907 -0.0990
15681SOL     OW48258   6.056   3.120   6.780 -0.6621  0.1883  0.6867
15681SOL    HW148259   6.056   3.126   6.684 -2.5942  0.7790  0.6876
15681SOL    HW248260   5.983   3.175   6.808 -1.6821 -1.8439  2.3614
15682SOL     OW48261   6.646   2.508   6.110 -0.0448  0.0707 -0.1243
15682SOL    HW148262   6.667   2.525   6.201 -3.3500  1.2718  0.5664
15682SOL    HW248263   6.725   2.532   6.061  1.2035  1.0909  2.2624
15683SOL     OW48264   6.296   2.567   6.278 -0.3525 -0.3675 -0.0745
15683SOL    HW148265   6.311   2.624   6.203 -1.8568 -1.8836 -1.6045
15683SOL    HW248266   6.250   2.622   6.341 -1.1933  0.3165 -1.2399
15684SOL     OW48267   7.202   3.337   5.646  0.3992  0.2923  0.0937
15684SOL    HW148268   7.283   3.309   5.689 -0.0000  0.3820  0.9251
15684SOL    HW248269   7.138   3.345   5.717 -0.0888  1.1532 -0.4232
15685SOL     OW48270   5.433   2.125   5.569 -0.0961 -0.3007  0.4126
15685SOL    HW148271   5.520   2.086   5.578 -0.2312 -0.8236 -0.4124
15685SOL    HW248272   5.396   2.122   5.658  0.6056 -0.3590  0.7071
15686SOL     OW48273   6.720   2.051   5.742  0.3572 -0.0055 -0.3483
15686SOL    HW148274   6.684   2.083   5.659  1.3389  0.8987 -0.4461
15686SOL    HW248275   6.726   2.129   5.797  3.5703  0.2099 -0.8614
15687SOL     OW48276   6.875   2.198   6.881  0.0792 -0.1382  0.1723
15687SOL    HW148277   6.790   2.166   6.909 -1.6935  2.8534 -1.2311
15687SOL    HW248278   6.894   2.149   6.801 -0.3369 -0.7831  0.4611
15688SOL     OW48279   6.839   3.759   6.217  0.1094 -0.1112 -0.5998
15688SOL    HW148280   6.777   3.829   6.238 -0.0990 -0.4955  0.1007
15688SOL    HW248281   6.881   3.738   6.301 -0.0611 -1.0336 -0.7287
15689SOL     OW48282   5.911   2.883   6.663  0.2754  0.5125  0.2919
15689SOL    HW148283   5.967   2.881   6.741 -2.1396  1.1435  2.1824
15689SOL    HW248284   5.861   2.801   6.668  1.9472 -0.7842 -2.2035
15690SOL     OW48285   6.962   4.083   6.413 -0.2375 -0.3593 -0.5355
15690SOL    HW148286   7.003   3.997   6.409  1.5367  0.4641 -0.9402
15690SOL    HW248287   7.035   4.145   6.419 -1.4388  1.1531 -0.7894
15691SOL     OW48288   6.450   2.310   5.483  0.2634  0.3857  0.4632
15691SOL    HW148289   6.507   2.233   5.484  2.7854  2.0888 -0.8816
15691SOL    HW248290   6.467   2.351   5.398 -2.0354  1.7191  0.5787
15692SOL     OW48291   5.759   2.507   7.039 -0.3964 -0.3539  0.2656
15692SOL    HW148292   5.754   2.564   7.116 -1.6081 -1.7558  1.2643
15692SOL    HW248293   5.847   2.471   7.043 -0.0007  0.5698  0.2470
15693SOL     OW48294   6.341   1.905   6.798 -0.0070 -0.6037 -0.1693
15693SOL    HW148295   6.293   1.987   6.809 -1.4040 -0.8063 -3.5936
15693SOL    HW248296   6.389   1.895   6.880 -3.1979  1.3159  2.1678
15694SOL     OW48297   6.476   2.366   6.284 -0.9752  0.4081  0.4350
15694SOL    HW148298   6.432   2.446   6.257  0.7537  1.6117  1.0111
15694SOL    HW248299   6.555   2.363   6.230 -0.3984 -0.2439  1.2825
15695SOL     OW48300   6.803   1.782   6.276  0.3774 -0.0997 -0.6078
15695SOL    HW148301   6.748   1.714   6.315  0.3532 -1.3093 -2.6356
15695SOL    HW248302   6.742   1.836   6.226  0.7814 -0.3642 -1.3938
15696SOL     OW48303   6.833   2.949   6.432 -0.0883 -0.2643 -0.1066
15696SOL    HW148304   6.827   2.862   6.473 -0.4409 -1.6575 -2.9125
15696SOL    HW248305   6.767   2.947   6.363  0.1429  2.1516 -0.4753
15697SOL     OW48306   6.923   2.680   6.540 -0.0749 -0.1321  0.3039
15697SOL    HW148307   6.997   2.680   6.601  0.2617 -2.8517  0.0233
15697SOL    HW248308   6.858   2.621   6.581 -2.2228  2.2639  0.6099
15698SOL     OW48309   7.288   2.844   5.816  0.3910  0.0606  0.0785
15698SOL    HW148310   7.335   2.784   5.874  0.6281  1.0363  0.9430
15698SOL    HW248311   7.255   2.789   5.745  1.6406 -0.8838  0.1923
15699SOL     OW48312   5.938   3.855   6.274  0.7387  0.0102 -0.1920
15699SOL    HW148313   5.884   3.783   6.241  1.2072 -1.2072  1.5632
15699SOL    HW248314   5.877   3.911   6.321  0.5117  0.3042 -0.8316
15700SOL     OW48315   7.281   3.046   6.158 -0.6509 -0.3171  0.1514
15700SOL    HW148316   7.191   3.038   6.191 -0.5523 -0.5033  0.3753
15700SOL    HW248317   7.310   3.132   6.190 -1.1668  0.2935 -0.9467
15701SOL     OW48318   6.603   2.808   5.902  0.5975  0.5904 -0.3151
15701SOL    HW148319   6.673   2.756   5.942  1.7281  1.6954 -0.8118
15701SOL    HW248320   6.622   2.898   5.926 -1.0652  0.8570  0.1182
15702SOL     OW48321   6.179   2.285   5.582 -0.2680 -0.1518  0.7000
15702SOL    HW148322   6.137   2.221   5.525  0.0868  0.9412 -0.8694
15702SOL    HW248323   6.270   2.286   5.555 -0.0308  0.2077  1.4754
15703SOL     OW48324   7.485   3.390   7.215  0.0841  1.0173  0.1009
15703SOL    HW148325   7.553   3.451   7.187 -0.0472  1.2495  0.2937
15703SOL    HW248326   7.528   3.333   7.279 -0.1138  1.6678  0.8173
15704SOL     OW48327   6.554   3.016   7.044 -0.3569  0.6511 -0.0333
15704SOL    HW148328   6.523   3.078   6.979 -0.9327  0.1213 -0.2720
15704SOL    HW248329   6.646   3.002   7.022 -0.2944  1.2071 -0.1404
15705SOL     OW48330   6.583   3.333   7.111  0.1566  0.2767 -0.0227
15705SOL    HW148331   6.582   3.237   7.107  1.7791  0.2583 -1.8732
15705SOL    HW248332   6.676   3.355   7.098 -0.3965  2.1055 -1.2156
15706SOL     OW48333   6.333   2.968   6.691  0.0728 -0.0696 -0.1865
15706SOL    HW148334   6.384   3.030   6.743  0.5078 -0.6891  0.1376
15706SOL    HW248335   6.269   2.931   6.752  0.7589 -0.9951 -0.0008
15707SOL     OW48336   6.682   3.026   6.643  0.1433  0.3384  0.5895
15707SOL    HW148337   6.747   3.051   6.577  0.5198  0.4608  0.9990
15707SOL    HW248338   6.600   3.017   6.594  0.5505 -0.2223 -0.0024
15708SOL     OW48339   6.610   2.090   6.793  0.1234  0.3421  0.1146
15708SOL    HW148340   6.573   2.041   6.719  2.0841 -1.1749  0.0319
15708SOL    HW248341   6.591   2.036   6.869 -1.4178  1.6344  0.6825
15709SOL     OW48342   7.062   2.589   7.391  0.4596  0.4489  0.1226
15709SOL    HW148343   7.085   2.533   7.465 -1.6289  1.1036  1.3576
15709SOL    HW248344   7.023   2.530   7.327 -1.1334  0.3223  1.1463
15710SOL     OW48345   6.361   3.005   6.065  0.2406  0.1608 -0.4830
15710SOL    HW148346   6.298   3.050   6.010  0.5301  0.0059 -0.9417
15710SOL    HW248347   6.324   2.917   6.078 -0.1361  0.3953  0.0975
15711SOL     OW48348   6.039   2.709   7.177  0.2922 -0.1628 -0.4674
15711SOL    HW148349   6.034   2.794   7.221  1.6377 -0.4509  0.3184
15711SOL    HW248350   5.964   2.660   7.210  1.2846 -0.3827  1.6171
15712SOL     OW48351   6.661   2.314   6.679 -0.0194 -0.3160  0.0009
15712SOL    HW148352   6.657   2.228   6.721 -0.5077 -0.2724  0.0500
15712SOL    HW248353   6.570   2.334   6.656 -0.3217  1.2552  2.1917
15713SOL     OW48354   5.547   3.366   7.319  0.3223  0.3034 -0.2237
15713SOL    HW148355   5.453   3.382   7.329  0.2044 -0.0888 -0.6917
15713SOL    HW248356   5.553   3.303   7.248  1.0190  1.2677 -1.0384
15714SOL     OW48357   5.725   2.969   6.109 -0.2198 -0.4884  0.0588
15714SOL    HW148358   5.743   2.940   6.019 -0.9691  1.8919 -0.9231
15714SOL    HW248359   5.667   3.044   6.099  0.6637  0.6125  2.5035
15715SOL     OW48360   5.870   2.341   6.385  0.0028  0.2341  0.0801
15715SOL    HW148361   5.965   2.347   6.375 -0.0292 -1.5472 -2.0906
15715SOL    HW248362   5.835   2.405   6.324 -0.1534 -1.0686 -1.2507
15716SOL     OW48363   6.711   3.603   5.749 -0.3200 -0.2838  0.3410
15716SOL    HW148364   6.685   3.675   5.807  1.4518  1.0053 -0.3979
15716SOL    HW248365   6.694   3.524   5.801 -2.8315  0.5662  0.9792
15717SOL     OW48366   6.486   3.140   6.821 -0.1349 -0.5213  0.2067
15717SOL    HW148367   6.468   3.233   6.807 -0.9936 -0.6048  0.6805
15717SOL    HW248368   6.568   3.124   6.774  0.3450  0.6078  0.6212
15718SOL     OW48369   6.852   2.652   6.000  0.2043  0.4864 -0.0567
15718SOL    HW148370   6.913   2.586   5.966 -0.7004 -0.5783  0.3248
15718SOL    HW248371   6.909   2.724   6.027  1.2345 -0.1525 -0.4265
15719SOL     OW48372   6.197   3.468   6.883  0.0990  0.8891  0.0490
15719SOL    HW148373   6.185   3.542   6.823 -1.9181  1.0263  0.5533
15719SOL    HW248374   6.108   3.438   6.901  0.8421 -3.2468 -2.0305
15720SOL     OW48375   6.311   2.635   7.228  0.3820  0.1645  0.0688
15720SOL    HW148376   6.313   2.631   7.324  0.6880 -0.7907  0.0332
15720SOL    HW248377   6.220   2.659   7.207  0.1525 -0.2301  0.5853
15721SOL     OW48378   7.010   2.426   6.930  0.1673 -0.2460 -0.1080
15721SOL    HW148379   7.084   2.401   6.985  0.2022  0.5822  0.2291
15721SOL    HW248380   6.958   2.346   6.923  0.0011 -0.3052  1.3885
15722SOL     OW48381   6.809   1.777   7.509  0.1622 -0.2239  0.3825
15722SOL    HW148382   6.719   1.753   7.532 -0.9780  3.4631  0.3157
15722SOL    HW248383   6.863   1.729   7.572 -2.1061  0.5240  3.1025
15723SOL     OW48384   6.051   1.921   7.444  0.0910 -0.2786  0.5378
15723SOL    HW148385   6.063   1.864   7.368  0.7454  0.3288  0.1655
15723SOL    HW248386   6.024   2.005   7.406 -1.5546 -0.5088  1.1208
15724SOL     OW48387   6.082   2.742   6.431 -0.3139 -0.1003  0.4574
15724SOL    HW148388   6.049   2.758   6.343  1.3137  1.2212  0.0410
15724SOL    HW248389   6.013   2.774   6.489 -1.9781 -2.1813 -0.2536
15725SOL     OW48390   6.737   2.596   6.353  0.3108 -0.1735  0.8164
15725SOL    HW148391   6.680   2.619   6.427 -0.3657  0.2096  0.1901
15725SOL    HW248392   6.825   2.610   6.386  0.1652 -2.3152  2.3543
15726SOL     OW48393   6.380   2.723   6.075 -0.2925  0.0470  0.0880
15726SOL    HW148394   6.468   2.755   6.054  0.0713 -0.7294  0.3895
15726SOL    HW248395   6.348   2.688   5.992  0.4565 -1.4329  0.3977
15727SOL     OW48396   6.072   2.116   6.723  0.0273 -0.5371 -0.2943
15727SOL    HW148397   6.004   2.174   6.757  2.0491  1.5581  0.3656
15727SOL    HW248398   6.152   2.167   6.727  1.6103 -2.7599 -1.4844
15728SOL     OW48399   5.626   2.891   6.857  0.1254  0.1240 -0.8272
15728SOL    HW148400   5.680   2.967   6.876 -0.2303  0.3724 -0.8041
15728SOL    HW248401   5.572   2.916   6.782  1.3466 -0.7707 -2.0473
15729SOL     OW48402   6.162   2.723   6.858 -0.2099 -0.4499 -0.1697
15729SOL    HW148403   6.068   2.707   6.869 -0.3704  0.2915 -0.3759
15729SOL    HW248404   6.189   2.765   6.939 -0.4851  1.1173 -0.8560
15730SOL     OW48405   7.268   2.987   7.322  0.4803 -0.1400 -0.0272
15730SOL    HW148406   7.253   2.930   7.247  1.0700  0.3670 -0.5420
15730SOL    HW248407   7.227   3.070   7.297  1.5368  0.3405 -0.2199
15731SOL     OW48408   6.133   2.348   6.307  0.0836  0.2192 -0.0009
15731SOL    HW148409   6.188   2.421   6.338 -2.8435  2.3763  0.5022
15731SOL    HW248410   6.170   2.325   6.222  0.9550  2.5467 -0.3374
15732SOL     OW48411   7.192   2.637   5.624 -0.2078 -0.2749  0.6693
15732SOL    HW148412   7.103   2.670   5.634 -0.1804 -0.3369  1.1368
15732SOL    HW248413   7.182   2.541   5.625 -0.1495 -0.2825  0.5858
15733SOL     OW48414   6.584   2.677   6.551  0.2590  0.1937  0.4285
15733SOL    HW148415   6.527   2.750   6.527 -1.8310 -0.7374  2.2782
15733SOL    HW248416   6.552   2.649   6.636  2.5854 -1.3544  0.8561
15734SOL     OW48417   6.158   3.235   7.895  0.2965 -0.1020 -0.3591
15734SOL    HW148418   6.239   3.221   7.845  1.5788 -0.1315  1.5932
15734SOL    HW248419   6.164   3.326   7.924  0.3537 -0.5198  0.9841
15735SOL     OW48420   7.387   3.419   7.522 -0.5644 -0.2954  0.0722
15735SOL    HW148421   7.433   3.402   7.440  0.7866  1.2027  0.4796
15735SOL    HW248422   7.344   3.503   7.508 -0.7918 -0.3032  0.7053
15736SOL     OW48423   5.974   2.785   7.567 -0.0310  0.4685  0.2390
15736SOL    HW148424   5.957   2.830   7.650 -1.4209 -0.1010  0.2940
15736SOL    HW248425   6.061   2.814   7.541  0.4085  0.6813  1.8775
15737SOL     OW48426   7.136   2.364   5.661  0.4188 -0.4731  0.0571
15737SOL    HW148427   7.137   2.355   5.566 -2.1460  0.2596 -0.1062
15737SOL    HW248428   7.128   2.274   5.693 -0.5410 -0.6051 -0.5162
15738SOL     OW48429   6.303   2.835   5.312 -0.2585 -0.0175  0.5648
15738SOL    HW148430   6.342   2.769   5.255  2.4467  1.8834  0.0183
15738SOL    HW248431   6.234   2.875   5.259  1.1342  0.6243 -0.8426
15739SOL     OW48432   6.596   3.792   5.899  0.4348  0.1448  0.1467
15739SOL    HW148433   6.535   3.767   5.969  1.8390 -1.1448  0.9601
15739SOL    HW248434   6.598   3.888   5.903 -2.8086  0.3988 -1.0658
15740SOL     OW48435   5.832   2.498   6.602 -0.4132  0.5389  0.1335
15740SOL    HW148436   5.823   2.443   6.524 -0.7300  1.0488 -0.1961
15740SOL    HW248437   5.787   2.579   6.579 -1.4744  0.2930  1.2372
15741SOL     OW48438   6.027   2.400   6.751  0.1320 -0.4864 -0.3948
15741SOL    HW148439   6.092   2.469   6.743  0.5521 -0.8913 -0.5024
15741SOL    HW248440   5.960   2.423   6.686 -2.2153  2.4520  2.6569
15742SOL     OW48441   6.286   1.925   7.268 -0.2188 -0.3270  0.4361
15742SOL    HW148442   6.360   1.986   7.260  1.0339 -1.8409 -0.1743
15742SOL    HW248443   6.257   1.911   7.178 -0.8882 -0.1746  0.6245
15743SOL     OW48444   6.752   1.910   7.083  0.1414  0.2701 -0.2919
15743SOL    HW148445   6.716   1.840   7.136  1.5581  1.5522  2.5687
15743SOL    HW248446   6.846   1.894   7.082  0.1387 -0.0594 -3.0871
15744SOL     OW48447   6.021   3.055   5.746  0.0699  0.0884 -0.8645
15744SOL    HW148448   6.080   3.083   5.816  1.2502 -1.0419 -1.3767
15744SOL    HW248449   5.997   3.136   5.701 -0.5669  0.8099  0.7083
15745SOL     OW48450   5.711   3.520   7.148  0.5598  0.1047  0.1423
15745SOL    HW148451   5.651   3.593   7.164 -1.0100 -0.4354 -2.6280
15745SOL    HW248452   5.674   3.448   7.200  2.4223  1.2653  3.3221
15746SOL     OW48453   6.201   3.249   7.262 -0.0638 -0.1359  0.2127
15746SOL    HW148454   6.238   3.325   7.217  0.1638 -0.6973 -0.5611
15746SOL    HW248455   6.182   3.186   7.193 -0.7807 -0.5723  0.7877
15747SOL     OW48456   6.668   2.279   7.101  0.3471  0.6218 -0.3864
15747SOL    HW148457   6.611   2.212   7.140  0.4713  1.2844  0.9689
15747SOL    HW248458   6.610   2.330   7.044 -0.3147  0.9696  0.5820
15748SOL     OW48459   5.531   2.346   7.064  0.2007 -0.1343 -0.8443
15748SOL    HW148460   5.611   2.379   7.024  0.4917 -0.3030 -0.4092
15748SOL    HW248461   5.491   2.291   6.996  0.5735 -0.2369 -0.9823
15749SOL     OW48462   5.791   3.083   7.733  0.1131 -0.0010  0.3623
15749SOL    HW148463   5.766   3.093   7.641 -2.2339 -0.8843  0.8436
15749SOL    HW248464   5.803   2.989   7.745  1.8007  0.2214  0.6679
15750SOL     OW48465   6.968   3.092   7.266 -0.3750 -0.3644  0.0902
15750SOL    HW148466   7.049   3.136   7.239 -0.3855  0.3556  1.2097
15750SOL    HW248467   6.997   3.006   7.297  0.0320  0.0884  0.9881
15751SOL     OW48468   6.447   2.394   5.924 -0.5891 -0.4685  0.1183
15751SOL    HW148469   6.358   2.428   5.925  0.1408  1.7012 -1.3031
15751SOL    HW248470   6.501   2.468   5.950  0.9652 -1.0459 -1.3072
15752SOL     OW48471   7.776   2.527   6.805 -0.3343 -0.3656 -0.1740
15752SOL    HW148472   7.795   2.601   6.748 -1.0411 -0.7500 -0.9334
15752SOL    HW248473   7.857   2.513   6.854 -0.1783  0.8789 -0.0350
15753SOL     OW48474   5.900   3.570   7.505 -0.1484  0.0451 -0.0151
15753SOL    HW148475   5.942   3.528   7.430 -1.3752 -1.3616  0.0573
15753SOL    HW248476   5.883   3.498   7.567  0.3303  1.0844  1.3897
15754SOL     OW48477   6.312   2.241   6.778 -0.1840 -0.0948  0.2333
15754SOL    HW148478   6.384   2.266   6.836 -0.4709  0.2185  0.4558
15754SOL    HW248479   6.341   2.269   6.691  0.7064 -1.5148  0.0433
15755SOL     OW48480   6.343   3.451   7.118  0.4022  0.0963 -0.2571
15755SOL    HW148481   6.296   3.442   7.035 -0.3429  1.2438  0.0198
15755SOL    HW248482   6.425   3.403   7.104 -1.1202 -2.6523 -0.4977
15756SOL     OW48483   5.759   2.439   6.128 -0.1843  0.2879  0.6243
15756SOL    HW148484   5.700   2.510   6.103  0.2634  0.6733  0.6683
15756SOL    HW248485   5.700   2.365   6.145 -0.9895  1.4680  3.7122
15757SOL     OW48486   5.539   3.157   7.124  0.0320  0.6199 -0.5703
15757SOL    HW148487   5.576   3.073   7.151 -3.1918 -1.2410 -1.4678
15757SOL    HW248488   5.578   3.174   7.038 -1.5389 -1.6580 -1.8297
15758SOL     OW48489   7.035   2.825   7.229  0.1534 -0.0618 -0.4286
15758SOL    HW148490   7.052   2.792   7.141  0.8494  0.5816 -0.5485
15758SOL    HW248491   7.029   2.747   7.283 -1.5465 -0.5428 -1.2370
15759SOL     OW48492   6.903   3.118   5.971  0.2128  0.0255 -0.5328
15759SOL    HW148493   6.962   3.059   5.923  0.9860 -1.3014  1.9073
15759SOL    HW248494   6.824   3.066   5.986  0.2177  0.1989  0.1273
15760SOL     OW48495   7.072   3.028   6.325 -0.7466 -0.8899  0.1452
15760SOL    HW148496   7.123   3.065   6.397 -0.5368 -2.1037  0.6542
15760SOL    HW248497   6.982   3.026   6.359 -0.9928  0.3715 -0.3930
15761SOL     OW48498   6.777   3.356   6.707 -0.0086  0.0816 -0.4028
15761SOL    HW148499   6.823   3.431   6.669 -1.3268  1.2136  0.1357
15761SOL    HW248500   6.693   3.353   6.661  0.0967 -1.1936 -0.5422
15762SOL     OW48501   5.851   2.733   6.928  0.2378  0.1309 -0.1193
15762SOL    HW148502   5.774   2.773   6.887  1.2152  1.2901 -0.9101
15762SOL    HW248503   5.819   2.651   6.965 -0.7127 -1.1355 -3.3947
15763SOL     OW48504   6.421   3.702   7.146  0.3471  0.5141  0.6865
15763SOL    HW148505   6.368   3.622   7.138  0.8662  0.3139 -1.4236
15763SOL    HW248506   6.444   3.724   7.056 -1.0046  3.9386  1.0500
15764SOL     OW48507   7.402   2.239   6.126  0.2797 -0.2809  0.3668
15764SOL    HW148508   7.468   2.244   6.195  0.3240 -1.2479  0.4128
15764SOL    HW248509   7.349   2.163   6.150 -1.6104  1.1505  0.9802
15765SOL     OW48510   6.535   3.452   5.529 -0.3019 -0.4150  1.3192
15765SOL    HW148511   6.523   3.359   5.548  0.4253 -0.5194  1.3109
15765SOL    HW248512   6.551   3.491   5.615  1.7447 -0.6882  1.1127
15766SOL     OW48513   5.568   3.752   7.268  0.5866 -0.1434  0.1452
15766SOL    HW148514   5.578   3.751   7.363  2.1583  1.4296  0.0526
15766SOL    HW248515   5.562   3.845   7.246 -0.0476 -0.4992 -1.2704
15767SOL     OW48516   7.029   2.884   5.899 -0.3630  0.2213  0.0647
15767SOL    HW148517   7.121   2.865   5.880 -0.3836  0.3961 -0.2211
15767SOL    HW248518   7.020   2.868   5.993 -0.4242 -1.2904 -0.1843
15768SOL     OW48519   6.337   2.859   7.041  0.0942  0.0243 -0.1934
15768SOL    HW148520   6.421   2.906   7.038  0.4608 -0.5836  0.3882
15768SOL    HW248521   6.351   2.789   7.104 -1.4069  0.9958  1.3007
15769SOL     OW48522   6.152   3.494   5.584 -0.7122  0.3738 -0.1681
15769SOL    HW148523   6.076   3.531   5.629 -0.7189 -0.9012  0.9634
15769SOL    HW248524   6.204   3.570   5.556 -0.1083  1.3141  3.0774
15770SOL     OW48525   6.843   3.361   7.076  0.0019 -0.2740 -0.3011
15770SOL    HW148526   6.878   3.438   7.031 -0.0822 -0.7173 -1.1475
15770SOL    HW248527   6.921   3.311   7.100  0.0578  0.0856  0.2809
15771SOL     OW48528   7.472   2.582   6.574  0.0070 -0.1005  0.3198
15771SOL    HW148529   7.456   2.615   6.662  0.2189  1.7540 -0.2978
15771SOL    HW248530   7.425   2.499   6.571 -4.7097  2.2689  0.4610
15772SOL     OW48531   5.580   2.217   6.180 -0.2637  0.3192 -0.1427
15772SOL    HW148532   5.507   2.230   6.241  1.0267  0.7450  1.3990
15772SOL    HW248533   5.624   2.138   6.212 -0.2644 -0.1695 -1.3015
15773SOL     OW48534   6.579   3.892   5.492 -0.6805  0.3870 -0.4475
15773SOL    HW148535   6.608   3.820   5.436  2.1649  0.0442  1.2539
15773SOL    HW248536   6.499   3.860   5.534 -1.0254 -0.6252 -1.8378
15774SOL     OW48537   6.502   2.516   7.039  0.4299 -0.0535  0.7531
15774SOL    HW148538   6.583   2.564   7.055 -0.3898  1.7462 -0.1285
15774SOL    HW248539   6.444   2.543   7.111 -0.0983  0.4511  0.1524
15775SOL     OW48540   6.237   2.823   5.734 -0.1763 -0.0579 -0.0663
15775SOL    HW148541   6.163   2.882   5.751  1.8110  2.0314  2.2314
15775SOL    HW248542   6.288   2.867   5.666  1.2660  0.9623  1.5881
15776SOL     OW48543   7.065   3.755   5.428 -0.3856 -0.1962 -0.0741
15776SOL    HW148544   7.156   3.772   5.452 -0.1750 -1.2151 -0.1103
15776SOL    HW248545   7.014   3.810   5.487  0.2452  0.2681  0.0500
15777SOL     OW48546   6.031   3.200   7.499 -0.2212 -0.4661  0.1819
15777SOL    HW148547   6.090   3.215   7.426  0.3882  0.7499  0.8799
15777SOL    HW248548   5.947   3.236   7.470  0.3467  1.2310  0.5270
15778SOL     OW48549   7.206   3.214   7.176 -0.1491 -0.4027 -0.4564
15778SOL    HW148550   7.273   3.268   7.219 -1.5745  1.0129  0.0655
15778SOL    HW248551   7.197   3.253   7.089 -0.1862 -0.7111 -0.5934
15779SOL     OW48552   6.434   2.890   6.466 -0.1122  0.0816 -0.4784
15779SOL    HW148553   6.414   2.897   6.560 -0.1064  0.1823 -0.4850
15779SOL    HW248554   6.378   2.955   6.425  0.1661  0.3072 -0.5055
15780SOL     OW48555   6.614   2.022   6.504  0.0295  0.6224  0.6096
15780SOL    HW148556   6.681   2.091   6.503  0.4633  0.2321 -1.8316
15780SOL    HW248557   6.652   1.951   6.454 -1.4382 -0.4295  0.9247
15781SOL     OW48558   6.172   3.181   5.927 -0.0642 -0.3843 -0.2707
15781SOL    HW148559   6.219   3.256   5.891  0.4610 -1.1820 -1.2890
15781SOL    HW248560   6.141   3.211   6.012 -0.7949  1.3630 -1.0934
15782SOL     OW48561   7.185   2.431   6.678 -0.4112  0.3958 -0.1177
15782SOL    HW148562   7.164   2.522   6.700  0.0215  0.3386  0.5437
15782SOL    HW248563   7.215   2.393   6.760 -1.7585 -0.6933 -0.0865
15783SOL     OW48564   5.710   2.693   6.483  0.2719 -0.6784 -0.1732
15783SOL    HW148565   5.782   2.750   6.454 -0.4715  1.9938  2.6889
15783SOL    HW248566   5.633   2.729   6.440 -0.4621  1.8081  2.8667
15784SOL     OW48567   5.469   3.159   7.502 -0.1258 -0.2244  0.5249
15784SOL    HW148568   5.399   3.211   7.541  2.0357  0.9564  3.1380
15784SOL    HW248569   5.478   3.192   7.412  0.3703  3.1864  1.7103
15785SOL     OW48570   6.495   1.935   7.014  0.9140  0.2447  0.6213
15785SOL    HW148571   6.589   1.923   7.026  0.6007 -1.7318  1.4213
15785SOL    HW248572   6.466   1.979   7.093  1.1215  0.7225  0.4389
15786SOL     OW48573   5.767   2.559   5.379  0.7799 -0.5599 -0.0895
15786SOL    HW148574   5.789   2.490   5.441  0.0991 -0.4780  0.2537
15786SOL    HW248575   5.688   2.528   5.334  0.6818 -0.1753 -0.1930
15787SOL     OW48576   7.054   2.674   7.001 -0.3930  0.0268  0.3616
15787SOL    HW148577   7.018   2.586   6.993  0.2542 -0.3397  1.3247
15787SOL    HW248578   7.057   2.707   6.911  0.8368 -1.5338 -0.2059
15788SOL     OW48579   5.919   2.217   6.041  0.3627 -0.1625  0.4112
15788SOL    HW148580   5.877   2.298   6.072  0.3153 -0.6072  1.5284
15788SOL    HW248581   6.012   2.230   6.059  0.6631  0.5303 -1.4256
15789SOL     OW48582   6.915   3.335   5.125  0.1636  0.3182 -0.6560
15789SOL    HW148583   6.957   3.366   5.205 -1.7330  1.2777  0.0275
15789SOL    HW248584   6.936   3.241   5.121  0.2921  0.2563  0.9678
15790SOL     OW48585   6.231   2.358   7.181 -0.0103 -0.0423  0.0001
15790SOL    HW148586   6.286   2.305   7.238 -0.5180  0.0599  0.5853
15790SOL    HW248587   6.263   2.448   7.193 -0.5525  0.0724  0.6415
15791SOL     OW48588   7.047   3.404   6.414 -0.0078  0.7188 -0.3094
15791SOL    HW148589   6.984   3.397   6.342 -2.1723  1.7091  1.3744
15791SOL    HW248590   7.001   3.370   6.490  1.6686  1.0902  0.9334
15792SOL     OW48591   6.008   2.230   7.428 -0.5584  0.3827  0.4509
15792SOL    HW148592   6.034   2.322   7.429 -1.9307  0.8082 -0.3772
15792SOL    HW248593   5.982   2.214   7.337 -0.2773 -0.8380  0.5775
15793SOL     OW48594   6.782   2.807   6.853 -0.2335  0.0421  0.2857
15793SOL    HW148595   6.747   2.876   6.796  0.4991 -0.1452 -0.4053
15793SOL    HW248596   6.790   2.731   6.796 -1.4106 -0.7491  1.1422
15794SOL     OW48597   6.332   3.782   6.726 -0.1859  0.2866  0.4820
15794SOL    HW148598   6.249   3.738   6.706  0.8176 -1.1584 -0.6401
15794SOL    HW248599   6.337   3.781   6.821 -2.0904  1.6432  0.6566
15795SOL     OW48600   7.389   2.700   6.814  0.2350  0.1970  0.4046
15795SOL    HW148601   7.457   2.654   6.863  0.6203  0.5084  0.1655
15795SOL    HW248602   7.391   2.789   6.848 -0.7646 -0.0417  1.1310
15796SOL     OW48603   6.764   2.277   5.922  0.0529 -0.1693  0.9174
15796SOL    HW148604   6.849   2.284   5.966 -0.0409  1.7103  0.8730
15796SOL    HW248605   6.702   2.315   5.983 -0.4810  0.0757  0.2405
15797SOL     OW48606   6.838   2.312   6.245 -0.1912 -0.1689  0.2101
15797SOL    HW148607   6.895   2.241   6.216  0.0006 -0.5197  1.3942
15797SOL    HW248608   6.896   2.387   6.256  0.1057 -0.5641  1.5562
15798SOL     OW48609   7.115   2.023   7.167  0.4391 -0.0591  0.0889
15798SOL    HW148610   7.069   1.950   7.127 -1.0642  0.9632 -0.1392
15798SOL    HW248611   7.095   2.015   7.261  1.4441 -0.7169  0.2639
15799SOL     OW48612   7.168   3.019   6.799  0.3631 -0.1400  0.5726
15799SOL    HW148613   7.183   3.062   6.714 -1.3925 -0.3424  0.1212
15799SOL    HW248614   7.082   3.051   6.827  1.0984  0.2722  2.5222
15800SOL     OW48615   6.467   3.167   5.723 -0.5053 -0.1331  0.0220
15800SOL    HW148616   6.396   3.205   5.774  0.4116 -0.7302  1.8413
15800SOL    HW248617   6.424   3.112   5.658 -1.7178  0.3970  0.3573
15801SOL     OW48618   6.622   3.952   6.382  0.3950  0.2464 -0.0959
15801SOL    HW148619   6.611   3.907   6.466  0.2331  0.7386  0.1532
15801SOL    HW248620   6.599   4.043   6.401  1.0868  0.5097 -0.5036
15802SOL     OW48621   6.424   2.651   6.792  0.2087  0.2157  0.2371
15802SOL    HW148622   6.389   2.568   6.825 -0.6888  0.3012 -0.4391
15802SOL    HW248623   6.361   2.717   6.823  0.3025  0.5002 -0.1724
15803SOL     OW48624   6.656   3.351   5.884 -0.1307 -0.0705  0.3194
15803SOL    HW148625   6.625   3.297   5.811  0.2461  0.6314 -0.3809
15803SOL    HW248626   6.739   3.312   5.909  0.4248  0.5029 -0.5693
15804SOL     OW48627   6.944   3.190   6.833 -0.5271 -0.4123  0.2702
15804SOL    HW148628   6.893   3.134   6.892 -1.9484 -0.5428 -0.9940
15804SOL    HW248629   6.878   3.247   6.793  0.3695 -0.3843 -1.2193
15805SOL     OW48630   5.767   3.314   7.486 -0.2670  0.2294 -0.4498
15805SOL    HW148631   5.742   3.385   7.427 -0.4506 -0.5015 -1.2786
15805SOL    HW248632   5.687   3.263   7.496 -0.0398 -0.0704 -0.1726
15806SOL     OW48633   5.681   3.256   6.430  0.3562 -0.3759 -0.0979
15806SOL    HW148634   5.600   3.268   6.480 -0.1117  0.5641 -1.0422
15806SOL    HW248635   5.651   3.237   6.341  1.1676 -0.1061 -0.4323
15807SOL     OW48636   6.506   2.918   7.392 -0.4861  0.3381  0.0688
15807SOL    HW148637   6.575   2.982   7.378 -0.2386 -0.3249 -2.1485
15807SOL    HW248638   6.496   2.913   7.487  2.6648  0.2871  0.4949
15808SOL     OW48639   7.332   1.646   7.327  0.0930  0.2356 -0.0338
15808SOL    HW148640   7.326   1.559   7.287  0.9913  0.5823 -0.9979
15808SOL    HW248641   7.289   1.638   7.412 -0.9541 -0.8141 -0.6415
15809SOL     OW48642   5.631   2.631   5.959 -0.1386 -0.1252 -0.3183
15809SOL    HW148643   5.560   2.647   6.021 -0.1216 -2.2290  0.3267
15809SOL    HW248644   5.587   2.616   5.875 -0.4404 -1.0118 -0.0088
15810SOL     OW48645   7.299   2.776   6.285 -0.1513 -0.4467 -0.0517
15810SOL    HW148646   7.385   2.736   6.294  0.2799  0.3540 -0.5719
15810SOL    HW248647   7.316   2.868   6.266 -1.0753 -0.6537 -2.1561
15811SOL     OW48648   6.001   2.373   7.032 -0.4340  0.7296  0.3086
15811SOL    HW148649   6.019   2.390   6.940  1.9755 -0.8463  0.4252
15811SOL    HW248650   6.085   2.382   7.076 -1.5919  1.9048  2.5018
15812SOL     OW48651   5.960   3.471   6.295 -0.0446  0.0036 -0.2475
15812SOL    HW148652   6.042   3.498   6.335 -0.1158 -0.7543  0.4356
15812SOL    HW248653   5.985   3.404   6.231 -0.3165 -2.2912  1.8893
15813SOL     OW48654   7.395   2.088   6.777  0.1296  0.2438  0.1201
15813SOL    HW148655   7.356   2.164   6.820  0.1642 -1.6387  3.8730
15813SOL    HW248656   7.330   2.018   6.788  2.1132 -1.5113  1.3993
15814SOL     OW48657   6.818   1.778   6.737  0.1446  0.6832  0.1629
15814SOL    HW148658   6.796   1.698   6.690  1.4281  0.3407  0.1199
15814SOL    HW248659   6.797   1.758   6.828 -1.3914  0.9987 -0.1006
15815SOL     OW48660   6.294   3.376   5.790  0.0116  0.6212  0.0389
15815SOL    HW148661   6.336   3.456   5.822 -2.3331  0.9077  2.8031
15815SOL    HW248662   6.249   3.404   5.710  1.0030  1.4910 -0.2444
15816SOL     OW48663   6.165   3.062   7.038  0.8491  0.0975 -0.6732
15816SOL    HW148664   6.149   3.078   6.945 -0.0263 -0.8950 -0.7078
15816SOL    HW248665   6.231   2.992   7.039  0.6634 -0.0747 -0.5466
15817SOL     OW48666   7.109   2.150   5.890  0.2902 -0.3856  0.0051
15817SOL    HW148667   7.202   2.140   5.868  0.0316  0.0165 -1.4040
15817SOL    HW248668   7.064   2.138   5.806 -0.8164  1.0220  0.3730
15818SOL     OW48669   6.986   2.802   6.179 -0.0735  0.2263 -0.0652
15818SOL    HW148670   7.013   2.883   6.221 -0.8663  0.4627  0.0019
15818SOL    HW248671   7.033   2.733   6.226 -1.6726  0.4015  1.8830
15819SOL     OW48672   7.124   2.217   6.523  0.0154 -0.4496 -0.0023
15819SOL    HW148673   7.135   2.298   6.574  2.7706 -0.3360 -0.5921
15819SOL    HW248674   7.049   2.173   6.563 -1.6082  2.3711  0.3325
15820SOL     OW48675   6.042   2.733   6.127 -0.7882  0.0853 -0.4259
15820SOL    HW148676   6.009   2.656   6.081 -0.5884 -0.9968  1.1763
15820SOL    HW248677   6.117   2.761   6.075 -1.6232  0.0013 -1.7315
15821SOL     OW48678   6.176   3.645   6.069 -0.6393 -0.1554  0.0780
15821SOL    HW148679   6.214   3.623   5.984 -0.6673 -1.1934  0.3192
15821SOL    HW248680   6.091   3.682   6.048 -1.0373 -1.2530 -0.3276
15822SOL     OW48681   5.815   2.821   7.797 -0.7529 -0.3612  0.2652
15822SOL    HW148682   5.745   2.758   7.779  0.8237 -2.3799  0.9145
15822SOL    HW248683   5.792   2.858   7.882 -0.6630 -1.6050  0.8558
15823SOL     OW48684   5.965   2.377   7.975 -0.5209 -0.4707 -0.0157
15823SOL    HW148685   5.960   2.407   7.884 -0.8839  0.3004  0.2435
15823SOL    HW248686   5.986   2.457   8.025 -0.6996 -0.8108  0.6161
15824SOL     OW48687   5.724   2.344   7.623 -0.0582 -0.2648 -0.0367
15824SOL    HW148688   5.784   2.410   7.588 -0.1164 -0.3127 -0.2288
15824SOL    HW248689   5.687   2.385   7.702  0.6789 -0.4678  0.4280
15825SOL     OW48690   6.158   3.351   0.092 -0.4130  0.7325  0.4084
15825SOL    HW148691   6.208   3.341   0.173  0.9592 -0.9391 -0.5720
15825SOL    HW248692   6.090   3.415   0.114 -1.1486 -0.8759  3.3806
15826SOL     OW48693   7.347   3.752   8.493 -0.1173 -0.0216  0.2016
15826SOL    HW148694   7.334   3.839   8.457 -1.0670 -0.3177 -0.1940
15826SOL    HW248695   7.286   3.747   8.567 -0.0319 -0.3316  0.2550
15827SOL     OW48696   6.976   2.546   8.179 -0.0958 -0.1085  0.0845
15827SOL    HW148697   6.957   2.489   8.105 -0.5954 -0.0898  0.1971
15827SOL    HW248698   6.894   2.591   8.197 -0.9450 -2.3849  2.6337
15828SOL     OW48699   7.172   2.296   7.136  0.1514 -0.3156 -0.5558
15828SOL    HW148700   7.142   2.206   7.150 -0.1532 -0.3218 -1.2142
15828SOL    HW248701   7.220   2.318   7.217 -0.6123 -0.7158  0.0173
15829SOL     OW48702   6.146   2.944   8.791 -0.2519 -0.3396  0.0075
15829SOL    HW148703   6.120   2.853   8.801 -0.1722 -0.3825 -0.1744
15829SOL    HW248704   6.067   2.994   8.807 -0.4321 -0.4651 -0.4718
15830SOL     OW48705   6.546   2.891   8.178  0.0742 -0.6197 -0.0638
15830SOL    HW148706   6.591   2.976   8.174  0.6559 -0.7417  2.4043
15830SOL    HW248707   6.454   2.914   8.192 -0.0948 -0.4055 -1.4188
15831SOL     OW48708   5.943   3.061   0.051 -0.0110  0.0327  0.0912
15831SOL    HW148709   5.919   2.983   0.101  1.8319  0.0825  1.1374
15831SOL    HW248710   5.871   3.123   0.067 -1.6627 -1.4951 -1.0051
15832SOL     OW48711   6.786   2.046   8.749 -0.2462 -0.6520  0.0142
15832SOL    HW148712   6.839   1.971   8.774  0.9433  0.8072  2.1378
15832SOL    HW248713   6.848   2.107   8.709 -0.5564  0.4368  1.1229
15833SOL     OW48714   7.341   2.245   7.811 -0.0086 -0.3790 -0.0543
15833SOL    HW148715   7.314   2.337   7.817  0.2653 -0.1800 -1.5933
15833SOL    HW248716   7.260   2.196   7.805 -0.1265 -0.0959 -0.8503
15834SOL     OW48717   5.341   4.411   7.994 -0.3395 -0.0805 -0.0508
15834SOL    HW148718   5.363   4.455   7.912  0.4459  0.1645  0.2896
15834SOL    HW248719   5.247   4.391   7.985 -0.0297 -1.0569 -1.4722
15835SOL     OW48720   5.717   3.942   8.142  0.1711  0.5081  0.5189
15835SOL    HW148721   5.654   3.923   8.073  0.1987  1.5577  0.1885
15835SOL    HW248722   5.762   4.021   8.112  3.4441 -1.5329 -0.5294
15836SOL     OW48723   5.869   3.087   8.222  0.7914  0.0746  0.5556
15836SOL    HW148724   5.903   3.001   8.196 -0.5262 -0.5694  0.8656
15836SOL    HW248725   5.841   3.075   8.313  1.2298  1.0379  0.8251
15837SOL     OW48726   5.747   3.953   0.435 -0.2868  0.1058  0.0229
15837SOL    HW148727   5.734   3.902   0.515  2.1491 -0.0143  0.4150
15837SOL    HW248728   5.819   3.909   0.390  0.4485  1.9656 -0.7062
15838SOL     OW48729   6.368   2.584   7.867 -0.0546  0.1181  0.1441
15838SOL    HW148730   6.399   2.509   7.816  1.7597  1.2003 -0.4070
15838SOL    HW248731   6.277   2.595   7.839  0.6642  0.2209 -2.3438
15839SOL     OW48732   5.483   2.880   8.147  0.2567 -0.3289  0.4519
15839SOL    HW148733   5.482   2.801   8.200 -2.4095 -0.1539  0.7806
15839SOL    HW248734   5.425   2.941   8.193  0.9267  1.2223 -0.6607
15840SOL     OW48735   7.241   3.697   7.871 -0.3120  0.3949  0.3169
15840SOL    HW148736   7.187   3.637   7.821  1.0402 -0.5611 -0.0603
15840SOL    HW248737   7.195   3.707   7.954  0.3844 -2.8434  1.2353
15841SOL     OW48738   5.632   3.711   7.523  0.0602  0.1881  0.9878
15841SOL    HW148739   5.662   3.798   7.551  1.9965 -0.6656  1.6997
15841SOL    HW248740   5.711   3.658   7.520 -1.2104 -1.8709  1.6906
15842SOL     OW48741   7.377   2.986   7.894  0.0790 -0.0302 -0.7710
15842SOL    HW148742   7.306   2.969   7.831 -0.3888 -0.5426 -0.1298
15842SOL    HW248743   7.399   3.078   7.882 -1.8454  0.6062  0.1353
15843SOL     OW48744   7.289   3.390   8.103  0.0592  0.3477 -0.0655
15843SOL    HW148745   7.244   3.468   8.136  0.3610  0.4935  0.0134
15843SOL    HW248746   7.278   3.325   8.173  0.2928  0.5045  0.1189
15844SOL     OW48747   6.407   2.637   8.743 -0.1735  0.0853 -0.0638
15844SOL    HW148748   6.423   2.551   8.783  1.7710 -0.0474 -0.9887
15844SOL    HW248749   6.393   2.695   8.818  1.0764 -0.5818  0.7342
15845SOL     OW48750   6.355   2.106   7.759  0.4260 -0.0466 -0.3029
15845SOL    HW148751   6.285   2.063   7.807  1.2536 -1.8713 -0.6545
15845SOL    HW248752   6.321   2.116   7.670  0.9220 -1.9111 -0.7579
15846SOL     OW48753   5.703   3.275   0.629  0.1242 -0.0005  0.4791
15846SOL    HW148754   5.776   3.311   0.680  0.5603 -1.1399  0.6764
15846SOL    HW248755   5.716   3.309   0.541  2.2503 -2.0139 -0.0623
15847SOL     OW48756   7.405   3.011   7.552  0.1257 -0.7528  0.1895
15847SOL    HW148757   7.367   3.008   7.465  1.6163 -0.5992 -0.5018
15847SOL    HW248758   7.330   3.008   7.612 -0.9435 -0.2971 -1.0927
15848SOL     OW48759   6.482   3.486   8.170 -0.2630  0.1016  0.7165
15848SOL    HW148760   6.469   3.431   8.093  1.6645 -0.2880  0.6161
15848SOL    HW248761   6.477   3.425   8.244 -0.9171  0.2708  0.8128
15849SOL     OW48762   7.269   4.013   8.170  0.2303  0.4917  0.4191
15849SOL    HW148763   7.236   3.932   8.132  0.5342 -0.1429  1.4586
15849SOL    HW248764   7.237   4.082   8.112  0.5425 -0.4183 -0.8625
15850SOL     OW48765   6.747   2.632   7.887 -0.5085  0.0687  0.0586
15850SOL    HW148766   6.737   2.542   7.920 -1.3226 -0.1210 -0.6848
15850SOL    HW248767   6.742   2.686   7.966 -4.0774 -0.2546  0.2234
15851SOL     OW48768   6.733   2.400   8.006 -0.3290 -0.1479  0.1263
15851SOL    HW148769   6.800   2.330   8.008 -0.5046 -0.3519 -0.7471
15851SOL    HW248770   6.653   2.355   7.980 -0.4218  0.4045 -0.5467
15852SOL     OW48771   7.525   3.679   7.813 -0.2555 -0.1245 -0.0707
15852SOL    HW148772   7.524   3.765   7.771  2.5622  0.0621  0.0364
15852SOL    HW248773   7.433   3.660   7.832 -1.0460  2.4123 -0.9651
15853SOL     OW48774   6.722   2.447   8.704  0.2883  0.2670  0.7634
15853SOL    HW148775   6.656   2.461   8.635  1.2806 -1.1699 -0.5457
15853SOL    HW248776   6.677   2.472   8.785 -1.5436  0.2597 -0.1887
15854SOL     OW48777   6.411   2.113   8.320 -0.1194 -0.1532  0.2782
15854SOL    HW148778   6.346   2.144   8.384 -0.6813 -0.6114 -0.0695
15854SOL    HW248779   6.409   2.178   8.250 -2.2261 -1.5643 -1.0745
15855SOL     OW48780   7.062   2.982   8.393 -0.0081 -0.4277  0.0418
15855SOL    HW148781   6.968   2.982   8.376 -0.3594  0.0237  1.7138
15855SOL    HW248782   7.078   3.066   8.437  1.0954 -0.6782  0.1566
15856SOL     OW48783   5.833   2.995   8.479  0.4651  0.6668  0.1055
15856SOL    HW148784   5.816   3.051   8.556  1.8484 -1.7733  2.3502
15856SOL    HW248785   5.828   2.906   8.513  3.0360 -0.4970 -2.1930
15857SOL     OW48786   6.038   4.218   0.209 -0.0592 -0.2630 -0.6211
15857SOL    HW148787   6.051   4.161   0.133  1.0829 -0.0120 -0.6404
15857SOL    HW248788   6.057   4.162   0.284 -1.7993 -0.6827 -0.4600
15858SOL     OW48789   5.911   2.182   7.700  0.2727  0.4179 -0.2395
15858SOL    HW148790   5.986   2.215   7.649 -0.0808 -0.4438 -1.3754
15858SOL    HW248791   5.836   2.230   7.665 -0.1205 -0.8980 -1.3113
15859SOL     OW48792   6.958   3.479   8.114 -0.4410 -0.0655 -0.2765
15859SOL    HW148793   6.868   3.511   8.111 -0.3790  0.1692  0.2526
15859SOL    HW248794   7.006   3.538   8.057 -0.1858  1.2727  1.2799
15860SOL     OW48795   6.174   2.214   7.987 -0.0320  0.2499  0.1989
15860SOL    HW148796   6.149   2.134   7.941 -2.6639  0.7232  0.6680
15860SOL    HW248797   6.107   2.277   7.963 -0.4805  1.0393  3.1993
15861SOL     OW48798   6.160   3.505   8.009 -1.0367  0.3291  0.5169
15861SOL    HW148799   6.087   3.555   8.045  0.0160  2.0466  0.4479
15861SOL    HW248800   6.212   3.571   7.962  0.3656 -0.8864  0.2875
15862SOL     OW48801   6.176   3.967   8.447  0.2938 -0.0081 -0.9030
15862SOL    HW148802   6.102   4.001   8.397 -1.4968 -0.4122  1.3021
15862SOL    HW248803   6.159   3.873   8.453 -0.0720  0.1568  1.2077
15863SOL     OW48804   7.296   3.185   8.293  0.0397 -0.0342 -0.4085
15863SOL    HW148805   7.330   3.099   8.317  2.2915  0.7637 -0.5339
15863SOL    HW248806   7.234   3.206   8.363  0.5338 -1.1509  0.4045
15864SOL     OW48807   6.678   2.651   8.144 -0.4212 -0.4929  0.7754
15864SOL    HW148808   6.643   2.565   8.168  0.0287 -0.4638  1.5746
15864SOL    HW248809   6.609   2.712   8.168 -1.6059 -0.7420 -1.6517
15865SOL     OW48810   7.443   2.534   8.100 -0.1216  0.0562 -0.1302
15865SOL    HW148811   7.516   2.557   8.042 -1.1825 -1.1677 -2.0539
15865SOL    HW248812   7.369   2.583   8.067 -0.6857 -0.4545  0.3568
15866SOL     OW48813   6.721   3.584   8.026 -0.3945  0.1145  0.3374
15866SOL    HW148814   6.640   3.534   8.015 -1.3152  1.6366 -0.0617
15866SOL    HW248815   6.692   3.673   8.044  1.2030  0.4952  1.1968
15867SOL     OW48816   7.020   3.341   7.625  0.3626 -0.4069  0.3973
15867SOL    HW148817   7.086   3.342   7.694 -0.9543  1.0520  1.7506
15867SOL    HW248818   6.982   3.254   7.630  0.0832 -0.2378  1.7969
15868SOL     OW48819   6.191   3.844   8.077 -0.3575 -0.0760 -0.1480
15868SOL    HW148820   6.180   3.818   7.985  0.9124  0.1788 -0.3999
15868SOL    HW248821   6.284   3.832   8.094 -0.4246  0.6739  0.8629
15869SOL     OW48822   7.260   1.747   7.872 -0.0736  0.5650  0.8518
15869SOL    HW148823   7.165   1.749   7.861 -0.0373  0.2843  0.4942
15869SOL    HW248824   7.274   1.683   7.942 -0.1076  0.1577  0.4868
15870SOL     OW48825   5.534   4.083   0.323 -0.5473  0.3374 -0.2189
15870SOL    HW148826   5.504   4.145   0.390 -1.5938 -1.4508  1.0632
15870SOL    HW248827   5.617   4.049   0.357 -0.7156 -0.0437 -0.1886
15871SOL     OW48828   6.520   3.330   7.959  1.0931  0.1246  0.1689
15871SOL    HW148829   6.475   3.273   7.895 -0.4724  0.4772  0.8934
15871SOL    HW248830   6.609   3.296   7.962  0.9797 -0.4631 -1.5485
15872SOL     OW48831   5.969   2.545   7.752 -0.0543 -0.0915 -0.1260
15872SOL    HW148832   6.007   2.627   7.783 -1.3897  0.6647 -0.4444
15872SOL    HW248833   5.882   2.569   7.721 -0.6286 -1.7030  0.1618
15873SOL     OW48834   6.775   2.045   7.330 -0.2367  0.5901 -0.3779
15873SOL    HW148835   6.762   2.026   7.237 -1.1424  0.3661 -0.2204
15873SOL    HW248836   6.869   2.038   7.344  0.0629  1.9506 -1.5633
15874SOL     OW48837   6.146   3.303   8.240  0.3654  0.1617  0.3349
15874SOL    HW148838   6.197   3.374   8.201 -0.1877  1.0377  1.1782
15874SOL    HW248839   6.207   3.260   8.300  0.9350 -0.5946 -0.7435
15875SOL     OW48840   6.489   3.558   8.547  0.0027 -0.0742 -0.3290
15875SOL    HW148841   6.433   3.516   8.482  0.4249 -0.2445 -0.5844
15875SOL    HW248842   6.430   3.614   8.597 -0.5416 -0.8138 -0.1117
15876SOL     OW48843   6.459   2.308   8.050 -0.0847  0.5503 -0.2324
15876SOL    HW148844   6.371   2.313   8.013 -1.3254  0.3628  2.4194
15876SOL    HW248845   6.462   2.379   8.115  0.9728 -0.6263  1.0808
15877SOL     OW48846   6.099   2.018   7.807  0.1221  0.3001 -0.1879
15877SOL    HW148847   6.033   2.079   7.775 -1.3618 -0.2179  1.6861
15877SOL    HW248848   6.068   1.932   7.779  0.1873  0.0859  0.3774
15878SOL     OW48849   6.862   3.116   7.683 -0.1022  0.0752 -0.1055
15878SOL    HW148850   6.866   3.033   7.636  3.5641 -1.3708  2.2748
15878SOL    HW248851   6.790   3.106   7.745  0.2996 -1.3833  0.1521
15879SOL     OW48852   5.986   1.817   7.677 -0.2283  0.0439 -0.3725
15879SOL    HW148853   5.893   1.794   7.685 -0.2709  0.2717 -0.1991
15879SOL    HW248854   5.987   1.888   7.612 -0.3766  1.2515  0.8952
15880SOL     OW48855   6.783   2.501   7.497 -0.2983  0.3904  0.3470
15880SOL    HW148856   6.810   2.462   7.413  0.0872  0.7192  0.3173
15880SOL    HW248857   6.754   2.589   7.475 -1.8896 -0.1163  0.3077
15881SOL     OW48858   7.217   3.579   8.308  0.4025 -0.2754  0.2054
15881SOL    HW148859   7.284   3.622   8.361 -0.1816  1.5451 -0.4463
15881SOL    HW248860   7.161   3.534   8.372 -1.2271  3.1701  1.4609
15882SOL     OW48861   5.863   3.544   8.230 -0.4809  0.1610  0.8000
15882SOL    HW148862   5.857   3.606   8.303 -2.5247  0.2691  0.5932
15882SOL    HW248863   5.804   3.580   8.164  0.5688 -0.4733 -0.5175
15883SOL     OW48864   6.921   3.964   8.755  0.1051 -0.0243  0.1471
15883SOL    HW148865   6.984   3.948   8.685 -1.8127 -0.5892 -1.5536
15883SOL    HW248866   6.908   4.058   8.756 -0.0935 -0.0434 -0.4891
15884SOL     OW48867   6.077   2.471   7.474  0.2259 -0.8039 -0.6114
15884SOL    HW148868   6.026   2.519   7.540  1.5854 -1.0391  0.6672
15884SOL    HW248869   6.155   2.525   7.460 -0.3577 -0.4071 -2.5961
15885SOL     OW48870   6.754   1.672   8.767 -0.4481 -0.3334  0.2340
15885SOL    HW148871   6.697   1.739   8.806  0.7965  1.9344 -1.5570
15885SOL    HW248872   6.721   1.662   8.678  0.3889 -0.8822 -0.0212
15886SOL     OW48873   7.003   1.821   7.951 -0.0979 -0.1548 -0.5463
15886SOL    HW148874   6.997   1.859   7.863  0.3704 -0.5246 -0.7411
15886SOL    HW248875   6.923   1.850   7.995 -0.8280 -0.7890 -1.4177
15887SOL     OW48876   6.551   2.050   7.978 -0.4566  0.4205  0.3241
15887SOL    HW148877   6.488   2.030   7.909 -0.6178 -0.5440  0.7380
15887SOL    HW248878   6.549   2.145   7.986 -1.9837  0.3925  0.4559
15888SOL     OW48879   6.770   3.245   8.469  0.1168  0.0220 -0.6481
15888SOL    HW148880   6.724   3.198   8.538  1.6707 -1.0177 -0.2600
15888SOL    HW248881   6.823   3.310   8.515  1.2900 -0.7897 -0.8159
15889SOL     OW48882   6.858   2.842   0.071 -0.5153  0.2500 -0.4405
15889SOL    HW148883   6.891   2.928   0.097 -2.6658  0.0542  3.7622
15889SOL    HW248884   6.786   2.861   0.010 -0.4150  1.3797 -0.2162
15890SOL     OW48885   7.558   2.531   7.473  0.0076  0.0113 -0.2479
15890SOL    HW148886   7.513   2.450   7.451 -1.5327  0.3107  1.5706
15890SOL    HW248887   7.491   2.599   7.467  0.9248  0.9421 -0.3543
15891SOL     OW48888   6.032   3.013   7.959  0.0988  0.0040 -0.4545
15891SOL    HW148889   5.940   3.041   7.963 -0.0678 -0.6536  0.8252
15891SOL    HW248890   6.082   3.089   7.987 -0.3498 -0.7918  2.9759
15892SOL     OW48891   7.692   3.334   7.849  0.2139  0.2621  0.7994
15892SOL    HW148892   7.618   3.324   7.790  0.7116 -0.6158  0.3178
15892SOL    HW248893   7.668   3.408   7.905  0.0685  1.6542 -1.0098
15893SOL     OW48894   6.442   2.330   7.358 -0.2009 -0.3186 -0.3994
15893SOL    HW148895   6.531   2.362   7.346  0.3021 -1.5413 -0.0709
15893SOL    HW248896   6.429   2.330   7.453 -1.0534  1.0960 -0.4765
15894SOL     OW48897   6.239   2.136   7.526 -0.0666 -0.0272 -0.5005
15894SOL    HW148898   6.194   2.221   7.521 -0.1593 -0.0427 -0.0236
15894SOL    HW248899   6.183   2.076   7.477 -0.6982 -0.0946  0.2718
15895SOL     OW48900   7.472   3.567   0.412 -0.7670 -0.8948  0.0521
15895SOL    HW148901   7.561   3.531   0.406 -0.6351 -0.5450 -0.0872
15895SOL    HW248902   7.478   3.654   0.375 -1.5487 -1.5215 -1.6343
15896SOL     OW48903   6.603   2.826   8.541 -0.2824 -0.2218  0.4199
15896SOL    HW148904   6.621   2.849   8.632 -1.2572  0.5142  0.4346
15896SOL    HW248905   6.564   2.739   8.545 -0.4807 -0.1202  0.7262
15897SOL     OW48906   7.547   3.588   8.355  0.0434  0.1004 -0.0134
15897SOL    HW148907   7.493   3.661   8.384  0.5534  0.9580 -1.1581
15897SOL    HW248908   7.622   3.629   8.312 -0.2623 -1.0872 -1.7589
15898SOL     OW48909   6.385   2.855   7.927  0.2207 -0.0155  0.2330
15898SOL    HW148910   6.420   2.766   7.916 -0.2247 -0.3524  1.3825
15898SOL    HW248911   6.292   2.843   7.946 -0.0406  0.7567 -0.4759
15899SOL     OW48912   5.711   3.191   0.256  0.3504  0.4418 -0.8743
15899SOL    HW148913   5.666   3.274   0.270 -1.1800 -0.6649  1.4921
15899SOL    HW248914   5.643   3.132   0.226  0.7788 -0.6020  0.1254
15900SOL     OW48915   7.036   2.514   8.510 -0.0525  0.4696  0.0227
15900SOL    HW148916   6.952   2.548   8.481 -0.9059 -0.6227  1.0698
15900SOL    HW248917   7.036   2.528   8.605  1.0425  0.6513  0.0045
15901SOL     OW48918   5.529   3.400   0.311  0.2875 -0.2393  0.3962
15901SOL    HW148919   5.525   3.466   0.241  0.9257 -0.6751 -0.0661
15901SOL    HW248920   5.464   3.428   0.375 -0.0807  0.3476 -0.2262
15902SOL     OW48921   6.169   3.342   8.549  0.8411  0.1987  0.3538
15902SOL    HW148922   6.199   3.420   8.596  1.8354 -0.2480  0.4923
15902SOL    HW248923   6.249   3.297   8.523  0.3093 -1.3468  1.2199
15903SOL     OW48924   5.657   2.398   8.409 -0.1989  0.6590 -0.3067
15903SOL    HW148925   5.742   2.437   8.428  0.0167  0.8091 -1.5037
15903SOL    HW248926   5.665   2.308   8.440 -0.4302  1.3018  1.7413
15904SOL     OW48927   6.833   2.974   8.046 -0.0451 -0.1099 -0.3525
15904SOL    HW148928   6.848   2.914   8.119 -0.3479  0.2378 -0.0058
15904SOL    HW248929   6.908   2.960   7.988 -0.5400 -1.4653 -0.7079
15905SOL     OW48930   6.431   3.067   8.571 -0.1174 -0.1956 -0.1983
15905SOL    HW148931   6.406   3.102   8.656 -0.8092 -1.2462  0.0389
15905SOL    HW248932   6.498   3.001   8.591  1.5471  1.2725 -0.6804
15906SOL     OW48933   7.244   2.361   8.113  0.3184 -0.0982  0.0163
15906SOL    HW148934   7.275   2.274   8.138 -1.0086 -0.1045  1.8625
15906SOL    HW248935   7.319   2.419   8.128  0.0171 -0.3176  3.0029
15907SOL     OW48936   5.817   3.741   0.077  0.3832  0.1578  0.0492
15907SOL    HW148937   5.862   3.789   0.147  1.3116  0.8793 -1.0026
15907SOL    HW248938   5.833   3.793  -0.002 -0.9142 -0.4582 -0.6635
15908SOL     OW48939   5.926   2.516   8.436 -0.3290 -0.8787  0.7296
15908SOL    HW148940   5.977   2.472   8.503 -1.8845 -2.4337  0.9549
15908SOL    HW248941   5.990   2.568   8.387  1.1904 -1.5509  1.9319
15909SOL     OW48942   6.792   2.927   8.350 -0.2836 -0.0701  0.1822
15909SOL    HW148943   6.753   2.878   8.422 -1.0019  2.1614  1.4235
15909SOL    HW248944   6.717   2.952   8.295 -0.0830  0.6211  0.2187
15910SOL     OW48945   6.608   2.488   7.703 -0.1366  0.4663 -0.1553
15910SOL    HW148946   6.631   2.569   7.749  0.3272 -0.1752  0.7858
15910SOL    HW248947   6.680   2.476   7.641  0.2729  0.3013  0.3431
15911SOL     OW48948   6.292   1.994   0.146  0.5594  0.5670 -0.4183
15911SOL    HW148949   6.373   1.977   0.194 -0.0161 -0.4056  0.2518
15911SOL    HW248950   6.311   1.971   0.056  1.1482  0.7587 -0.3458
15912SOL     OW48951   5.554   3.676   0.522 -0.5717 -0.1575 -0.0203
15912SOL    HW148952   5.574   3.638   0.607 -1.6862  0.5951  0.6037
15912SOL    HW248953   5.596   3.618   0.459  1.6506  0.1540  1.0898
15913SOL     OW48954   6.598   2.426   8.314 -0.0330  0.6877 -0.1798
15913SOL    HW148955   6.570   2.400   8.402 -2.2267 -0.2372 -1.0899
15913SOL    HW248956   6.649   2.351   8.282  0.4011  0.8463  0.1347
15914SOL     OW48957   5.713   1.802   7.695 -0.8686 -0.1061 -0.1325
15914SOL    HW148958   5.669   1.867   7.750  0.6677  1.0739 -0.2091
15914SOL    HW248959   5.646   1.772   7.634 -2.1122 -0.0452  1.1660
15915SOL     OW48960   7.411   2.331   7.320  0.6256 -0.5841  0.0273
15915SOL    HW148961   7.464   2.294   7.250  3.6034 -1.7073  2.5860
15915SOL    HW248962   7.379   2.255   7.369 -0.8016  0.1726  0.3352
15916SOL     OW48963   7.185   2.691   8.131  0.7667 -0.3374 -0.1505
15916SOL    HW148964   7.214   2.736   8.210 -0.1959  0.3889 -0.1937
15916SOL    HW248965   7.136   2.615   8.162  0.3773 -0.0443 -0.0483
15917SOL     OW48966   7.017   1.913   7.397 -0.0362 -0.2962  0.0906
15917SOL    HW148967   7.065   1.929   7.479  2.1281 -0.9011 -0.9747
15917SOL    HW248968   6.937   1.869   7.424  0.2750  0.1703  1.9361
15918SOL     OW48969   7.325   2.677   7.450  0.0491 -0.0920 -0.4293
15918SOL    HW148970   7.234   2.660   7.427 -0.7422  1.8246  1.0280
15918SOL    HW248971   7.350   2.751   7.393  0.7508 -0.6753 -0.8981
15919SOL     OW48972   7.153   3.051   7.734  0.0899  0.2628 -0.3406
15919SOL    HW148973   7.143   3.142   7.760  0.0874  0.3037 -0.4849
15919SOL    HW248974   7.064   3.018   7.725  0.0821  0.4142 -0.8749
15920SOL     OW48975   5.728   2.725   8.403  0.4571 -0.4804 -0.2618
15920SOL    HW148976   5.669   2.700   8.332 -0.4315 -2.3206  1.0387
15920SOL    HW248977   5.785   2.648   8.415  0.7023 -0.1391  0.8871
15921SOL     OW48978   6.367   1.818   8.379 -0.3728  0.4160 -0.5631
15921SOL    HW148979   6.353   1.912   8.373 -1.9586  0.1815 -0.7534
15921SOL    HW248980   6.400   1.794   8.292  1.4192  0.9701 -0.0936
15922SOL     OW48981   7.303   1.844   8.546  0.0059 -0.1907 -0.5936
15922SOL    HW148982   7.263   1.759   8.527  0.2588 -0.3336 -0.4888
15922SOL    HW248983   7.230   1.902   8.563 -0.1796 -0.3333 -0.8941
15923SOL     OW48984   5.917   3.354   7.744  0.4652  0.0017 -0.1880
15923SOL    HW148985   5.870   3.277   7.712  0.8877  0.1941 -1.3371
15923SOL    HW248986   6.009   3.335   7.727  0.6110  0.5808 -0.0757
15924SOL     OW48987   5.688   3.529   8.643  0.3861  0.2120  0.3286
15924SOL    HW148988   5.741   3.452   8.663  0.0378 -0.0218  0.3609
15924SOL    HW248989   5.751   3.596   8.619  0.7879  0.4039  1.8747
15925SOL     OW48990   5.920   3.680   8.586  0.2121 -0.1853  0.4614
15925SOL    HW148991   5.961   3.693   8.500 -0.7742 -1.9451 -0.3314
15925SOL    HW248992   5.992   3.657   8.644  0.7219 -0.3233 -0.2134
15926SOL     OW48993   6.785   2.606   8.393  0.5321  0.1144 -0.2861
15926SOL    HW148994   6.757   2.643   8.309  3.1690 -0.8426 -1.6836
15926SOL    HW248995   6.728   2.530   8.406 -0.4962  0.7898 -0.7310
15927SOL     OW48996   5.502   2.722   8.638 -0.2021 -0.4055  0.0339
15927SOL    HW148997   5.561   2.791   8.608  0.1003 -0.1249  1.2021
15927SOL    HW248998   5.527   2.708   8.730 -0.3645 -1.9587 -0.1401
15928SOL     OW48999   6.651   2.087   7.583 -0.4397 -0.0190 -0.3555
15928SOL    HW149000   6.559   2.103   7.559 -0.8125 -0.6440  0.5846
15928SOL    HW249001   6.689   2.046   7.505 -1.3641 -1.1157 -0.2551
15929SOL     OW49002   6.911   2.848   8.642  0.2517 -0.2035 -0.0918
15929SOL    HW149003   6.888   2.799   8.563  0.9407 -0.3171 -0.2350
15929SOL    HW249004   6.917   2.781   8.711  0.9109 -0.2909 -0.2260
15930SOL     OW49005   6.151   2.210   8.257  0.2440 -0.0379  0.8865
15930SOL    HW149006   6.160   2.216   8.161  0.8588  1.2451  0.9969
15930SOL    HW249007   6.057   2.201   8.271  0.2733 -2.1756  0.1136
15931SOL     OW49008   6.366   3.374   0.283  0.0035 -0.3131  0.1191
15931SOL    HW149009   6.401   3.454   0.321 -0.9016  0.3161 -0.3231
15931SOL    HW249010   6.349   3.317   0.358  1.0841 -0.2893  0.4031
15932SOL     OW49011   5.716   2.958   8.027 -0.1549 -0.0401  0.2149
15932SOL    HW149012   5.627   2.930   8.050 -0.3435  0.9208  0.6936
15932SOL    HW249013   5.739   3.023   8.094 -0.8131  3.0909 -2.3444
15933SOL     OW49014   6.353   2.999   0.454 -0.8057 -0.7393 -0.3482
15933SOL    HW149015   6.328   2.945   0.378  0.5520 -0.5302 -0.9687
15933SOL    HW249016   6.313   3.084   0.437 -0.5680 -0.7159 -0.8075
15934SOL     OW49017   6.801   3.367   8.732 -0.7498 -0.2222 -0.2909
15934SOL    HW149018   6.845   3.379   8.815  0.9148 -0.5833 -1.0874
15934SOL    HW249019   6.730   3.306   8.751  0.9267 -2.0215  0.4791
15935SOL     OW49020   7.110   2.790   7.911 -0.1245 -0.2746 -0.4955
15935SOL    HW149021   7.192   2.823   7.876 -0.7274  1.5399 -0.2894
15935SOL    HW249022   7.133   2.755   7.997  0.2854  1.2638  0.0611
15936SOL     OW49023   7.693   3.715   8.654 -0.0356 -0.4157 -0.6216
15936SOL    HW149024   7.714   3.642   8.597 -0.2510 -0.0797 -1.1364
15936SOL    HW249025   7.659   3.782   8.596 -0.3938 -0.1197 -0.0783
15937SOL     OW49026   6.776   3.888   8.518 -0.0791  0.0507 -0.3606
15937SOL    HW149027   6.797   3.917   8.606 -0.3976  0.3245 -0.3762
15937SOL    HW249028   6.845   3.925   8.463 -0.9935  1.5949 -0.5230
15938SOL     OW49029   5.877   3.338   8.699 -0.0540 -0.2598  0.0642
15938SOL    HW149030   5.844   3.248   8.693  0.5540 -0.5762  1.0787
15938SOL    HW249031   5.972   3.329   8.686 -0.0112  0.2578  0.0001
15939SOL     OW49032   7.047   2.344   7.614 -0.9185  0.0062  0.6360
15939SOL    HW149033   6.956   2.369   7.631 -0.4678  2.0310  0.3036
15939SOL    HW249034   7.097   2.387   7.683 -0.1061 -0.2812  0.2405
15940SOL     OW49035   6.982   3.451   8.402 -0.2735  0.0802  0.3221
15940SOL    HW149036   6.900   3.487   8.435 -1.4775 -0.8035 -1.4987
15940SOL    HW249037   6.968   3.442   8.307  1.3646 -1.4939  0.1623
15941SOL     OW49038   7.134   2.430   7.858 -0.0589 -0.1040  0.1867
15941SOL    HW149039   7.164   2.520   7.850 -1.1321  0.1557 -1.4328
15941SOL    HW249040   7.153   2.406   7.949 -1.8075  2.4979  1.3585
15942SOL     OW49041   6.232   3.696   7.832 -0.3219  0.0777 -0.0829
15942SOL    HW149042   6.308   3.685   7.775  0.2287 -0.3317  0.7167
15942SOL    HW249043   6.170   3.747   7.780 -0.0395 -0.7115 -1.2328
15943SOL     OW49044   7.767   2.110   8.624  0.1520  0.4226 -0.4378
15943SOL    HW149045   7.693   2.071   8.671  0.6475  0.7752  0.6659
15943SOL    HW249046   7.793   2.043   8.560 -1.2606  0.3951 -1.0228
15944SOL     OW49047   5.765   2.674   7.270 -0.4963  0.4654  0.9739
15944SOL    HW149048   5.828   2.695   7.339 -0.5267  0.2281  1.0751
15944SOL    HW249049   5.699   2.619   7.313  0.5248 -1.3717  0.3392
15945SOL     OW49050   6.366   3.176   7.741 -0.1374  0.0783  0.0481
15945SOL    HW149051   6.347   3.195   7.649 -2.1483  0.0100  0.4085
15945SOL    HW249052   6.384   3.082   7.742 -2.8610 -0.5297  0.0500
15946SOL     OW49053   6.626   2.946   8.788  0.2969 -0.1211 -0.8500
15946SOL    HW149054   6.589   2.919   8.871  1.3555 -1.1778 -0.6972
15946SOL    HW249055   6.613   3.041   8.785 -0.2022 -0.1457  0.2816
15947SOL     OW49056   6.618   2.977   7.871  0.4004  0.4652 -0.6728
15947SOL    HW149057   6.540   2.950   7.919  0.0775  0.1892 -1.3414
15947SOL    HW249058   6.688   2.975   7.936  0.0089 -0.0884 -0.2581
15948SOL     OW49059   6.509   3.427   7.396 -0.2028  0.4192  0.2308
15948SOL    HW149060   6.595   3.387   7.389 -0.2143  0.1923  1.2383
15948SOL    HW249061   6.487   3.452   7.307  1.1656  1.0368  0.0403
15949SOL     OW49062   6.986   3.449   0.100  0.0523 -0.2915 -0.6478
15949SOL    HW149063   7.067   3.399   0.106  0.9927  1.1730 -0.5984
15949SOL    HW249064   7.004   3.529   0.149 -1.8770 -0.4787  0.4636
15950SOL     OW49065   6.774   3.255   7.998  0.3897 -0.0479 -0.0269
15950SOL    HW149066   6.782   3.178   8.054 -0.2535 -0.0870  0.0132
15950SOL    HW249067   6.864   3.286   7.988  0.6838 -0.9102 -0.1982
15951SOL     OW49068   6.989   1.866   8.513  0.0243 -0.2181 -0.2203
15951SOL    HW149069   7.028   1.950   8.492 -1.3900  0.4145 -0.4742
15951SOL    HW249070   6.954   1.877   8.602 -1.8963  0.1810 -0.9716
15952SOL     OW49071   6.203   2.896   8.484 -0.0009  0.4880 -0.2278
15952SOL    HW149072   6.122   2.882   8.533  1.1320 -2.5387  1.0538
15952SOL    HW249073   6.253   2.957   8.538  0.0903 -0.6390  1.0044
15953SOL     OW49074   7.324   2.605   8.785 -0.6344 -0.6122 -0.4506
15953SOL    HW149075   7.417   2.593   8.806 -0.3767 -0.2214 -1.3162
15953SOL    HW249076   7.290   2.516   8.777 -0.3465 -0.7599 -0.0789
15954SOL     OW49077   6.017   3.801   7.660 -0.6794  0.2629  0.0713
15954SOL    HW149078   5.976   3.722   7.624  0.5336  0.4296 -1.8367
15954SOL    HW249079   5.962   3.825   7.735 -0.6573 -2.8029  1.2131
15955SOL     OW49080   6.565   2.079   8.552 -0.5663 -0.6581  0.3254
15955SOL    HW149081   6.560   2.078   8.457  0.3375  0.1755  0.2517
15955SOL    HW249082   6.640   2.023   8.572 -1.4755 -1.8109  0.6296
15956SOL     OW49083   5.780   2.967   7.447  0.3435 -0.2546  0.5423
15956SOL    HW149084   5.847   2.999   7.386  0.3116  0.9728  1.1148
15956SOL    HW249085   5.826   2.905   7.503  0.8541  0.0862  0.5105
15957SOL     OW49086   5.565   2.137   7.526  0.6440 -0.3863  0.1587
15957SOL    HW149087   5.630   2.090   7.473 -0.0394 -1.1313 -0.0480
15957SOL    HW249088   5.615   2.203   7.573  1.2388  0.4910 -1.6318
15958SOL     OW49089   6.457   2.883   7.657 -0.1396 -0.0194  0.2875
15958SOL    HW149090   6.533   2.901   7.713  0.4757 -3.0876  0.6701
15958SOL    HW249091   6.384   2.874   7.717 -0.2794  0.4018  0.1838
15959SOL     OW49092   5.941   2.833   0.229  0.5807 -0.2320 -0.7805
15959SOL    HW149093   6.027   2.873   0.225  0.8542 -0.8182 -0.7880
15959SOL    HW249094   5.956   2.745   0.263 -0.1658  0.1324  0.5893
15960SOL     OW49095   6.919   3.938   0.181 -0.2593 -0.2479 -0.1935
15960SOL    HW149096   6.823   3.940   0.176 -0.1949  0.6593 -1.5130
15960SOL    HW249097   6.948   3.942   0.089  1.0710  1.5183  0.2606
15961SOL     OW49098   6.328   3.153   8.805 -0.2606  0.4378  0.3765
15961SOL    HW149099   6.269   3.215   8.847 -0.3943 -0.5542  1.7568
15961SOL    HW249100   6.274   3.075   8.790  0.3456 -0.0046  0.4273
15962SOL     OW49101   7.304   2.913   8.342 -0.0987  0.2924  0.4134
15962SOL    HW149102   7.311   2.831   8.391  2.7491  0.3614  0.2524
15962SOL    HW249103   7.216   2.946   8.363 -0.6811 -1.9440  1.7888
15963SOL     OW49104   6.897   2.806   7.760  0.0469  0.1211  0.3252
15963SOL    HW149105   6.831   2.751   7.802 -0.8578  0.9103 -0.0461
15963SOL    HW249106   6.975   2.795   7.815 -0.0995 -1.5088  0.2664
15964SOL     OW49107   6.168   2.643   8.312  0.7743  0.6245  0.0835
15964SOL    HW149108   6.251   2.659   8.268  1.6050  1.4893  1.8566
15964SOL    HW249109   6.170   2.701   8.389 -1.9898  1.6074 -0.4575
15965SOL     OW49110   6.960   3.115   8.705 -0.4116 -0.4497  0.0250
15965SOL    HW149111   6.948   3.127   8.799 -1.1990 -0.9533 -0.0111
15965SOL    HW249112   6.933   3.025   8.688  0.4938 -0.6240 -0.5590
15966SOL     OW49113   6.125   2.999   7.663  0.2210 -0.5996  0.3196
15966SOL    HW149114   6.110   3.080   7.615 -0.9365 -0.2274  1.2678
15966SOL    HW249115   6.105   3.021   7.754  0.9380 -1.6743  0.7533
15967SOL     OW49116   6.178   3.563   8.757  0.5347  0.0340 -0.2277
15967SOL    HW149117   6.154   3.488   8.811  0.3900  0.1469 -0.1352
15967SOL    HW249118   6.209   3.628   8.820  3.4277 -0.9601 -0.4875
15968SOL     OW49119   6.484   2.339   8.552 -0.1653 -0.4185  0.2599
15968SOL    HW149120   6.492   2.245   8.571  0.2808 -0.1411  1.5444
15968SOL    HW249121   6.397   2.362   8.585 -0.0960 -0.2884  0.3506
15969SOL     OW49122   6.308   2.619   7.506  0.3632  0.2623 -0.9048
15969SOL    HW149123   6.332   2.566   7.583 -0.2336 -1.4773 -1.8635
15969SOL    HW249124   6.343   2.706   7.525  2.4368 -0.7461  0.2233
15970SOL     OW49125   7.602   3.387   8.155 -0.2837 -0.0604 -0.3334
15970SOL    HW149126   7.597   3.454   8.223  0.5843 -1.4266  1.1384
15970SOL    HW249127   7.511   3.377   8.125 -0.3716  2.0370 -0.9035
15971SOL     OW49128   7.373   2.205   8.546  0.0101 -0.3488  0.4276
15971SOL    HW149129   7.369   2.271   8.477 -0.0499 -1.2856 -0.4657
15971SOL    HW249130   7.422   2.132   8.508 -2.6515 -2.1807  0.2409
15972SOL     OW49131   6.380   2.369   7.643  0.3242  0.2809  0.0185
15972SOL    HW149132   6.375   2.289   7.696 -1.2635  0.4689  0.2202
15972SOL    HW249133   6.472   2.395   7.647  0.9023 -1.6036 -0.1726
15973SOL     OW49134   7.442   3.522   8.777 -0.4497  0.3008 -0.3107
15973SOL    HW149135   7.487   3.548   8.697  0.9837 -1.2174 -0.0603
15973SOL    HW249136   7.375   3.461   8.748  0.9136 -1.2653 -0.2942
15974SOL     OW49137   5.788   2.343   0.213  0.3525  0.0804 -0.4036
15974SOL    HW149138   5.833   2.304   0.139  0.2820  0.2884 -0.5581
15974SOL    HW249139   5.695   2.325   0.197  0.4641 -1.7069  0.7018
15975SOL     OW49140   6.504   3.828   7.607  0.0806 -0.0181  0.0131
15975SOL    HW149141   6.489   3.744   7.649 -0.0748  0.2181  0.4358
15975SOL    HW249142   6.425   3.879   7.627  0.0759  0.1543 -0.4243
15976SOL     OW49143   7.313   2.429   8.402 -0.0495  0.2159  0.1848
15976SOL    HW149144   7.239   2.453   8.459 -0.3459  0.2140 -0.1954
15976SOL    HW249145   7.374   2.502   8.410 -0.1745  0.3025  0.3585
15977SOL     OW49146   6.761   2.203   8.254  0.7294 -0.1956  0.0428
15977SOL    HW149147   6.777   2.185   8.161  2.6501  0.8595  0.1309
15977SOL    HW249148   6.843   2.239   8.286 -0.2563  0.5094  1.9059
15978SOL     OW49149   6.267   3.037   8.234  0.1338  0.6711  0.1509
15978SOL    HW149150   6.204   3.107   8.218  1.0032  1.5301  0.3593
15978SOL    HW249151   6.238   2.996   8.315 -0.3057  0.8904  0.1041
15979SOL     OW49152   5.914   3.457   0.377 -0.0594 -0.7840  0.3549
15979SOL    HW149153   5.958   3.373   0.361  2.9897  1.0471 -1.7373
15979SOL    HW249154   5.897   3.492   0.290  1.3284  1.9914  1.1198
15980SOL     OW49155   6.971   1.739   7.102  0.5562  0.3567 -0.0103
15980SOL    HW149156   7.053   1.723   7.054  0.1687 -0.2737 -0.4988
15980SOL    HW249157   6.962   1.663   7.159  0.2006  0.3054 -0.1308
15981SOL     OW49158   7.040   2.287   8.304  0.6178 -0.0479  0.5194
15981SOL    HW149159   7.092   2.320   8.231 -0.3751  0.0463 -0.1602
15981SOL    HW249160   7.057   2.349   8.375 -2.3530  2.9663 -1.1395
15982SOL     OW49161   7.614   2.448   8.282  0.4814  0.3153 -0.0053
15982SOL    HW149162   7.548   2.499   8.235  0.3078  0.6673  0.6198
15982SOL    HW249163   7.599   2.357   8.253 -0.0943  0.4295 -0.0706
15983SOL     OW49164   5.781   3.595   7.861  0.6605  0.2207  0.3822
15983SOL    HW149165   5.823   3.521   7.818 -0.3270 -0.3939  0.4351
15983SOL    HW249166   5.708   3.556   7.910  0.0645  1.2326  0.3422
15984SOL     OW49167   6.480   3.546   7.676  0.4143 -0.0820 -0.3583
15984SOL    HW149168   6.510   3.513   7.592  0.1671 -2.5165  0.4207
15984SOL    HW249169   6.507   3.479   7.739 -2.8812 -0.3478  0.9579
15985SOL     OW49170   5.741   4.470   0.154  0.2051  0.0973 -0.6499
15985SOL    HW149171   5.810   4.485   0.219 -0.7312 -1.4198  0.7657
15985SOL    HW249172   5.729   4.556   0.112  1.8392  0.7675  0.1625
15986SOL     OW49173   5.506   3.889   1.137  0.6073 -0.0258  0.2055
15986SOL    HW149174   5.519   3.837   1.217  2.0177 -1.4978 -0.9139
15986SOL    HW249175   5.591   3.930   1.122  0.3716  0.1748 -0.5793
15987SOL     OW49176   5.090   4.142   0.701 -0.0484  0.4969  0.1089
15987SOL    HW149177   5.031   4.084   0.749  2.0798  0.9549  3.6414
15987SOL    HW249178   5.048   4.228   0.704 -0.3491  0.3393  0.3808
15988SOL     OW49179   5.831   4.802   1.666 -0.5117 -0.2283 -0.0636
15988SOL    HW149180   5.787   4.843   1.740 -1.5006 -0.4654 -0.5090
15988SOL    HW249181   5.877   4.874   1.623  2.3998 -0.4739  2.2972
15989SOL     OW49182   6.905   5.057   0.616  0.3378 -0.4939 -0.4518
15989SOL    HW149183   6.868   5.136   0.578  0.6045  0.0032  0.3063
15989SOL    HW249184   6.872   5.055   0.706 -0.2411 -1.6216 -0.6616
15990SOL     OW49185   6.561   4.244   0.783  0.1798 -0.3952  0.1753
15990SOL    HW149186   6.496   4.259   0.852 -1.8444  0.3189 -1.7774
15990SOL    HW249187   6.557   4.149   0.768 -1.0548 -0.2588 -0.4796
15991SOL     OW49188   7.082   4.883   0.069  0.5740  0.6352  0.2759
15991SOL    HW149189   7.171   4.893   0.105  1.1694 -2.8480  0.0890
15991SOL    HW249190   7.026   4.878   0.146  1.0462 -0.6773  0.5605
15992SOL     OW49191   5.756   4.814   1.386  0.0620  0.0617  0.1073
15992SOL    HW149192   5.760   4.801   1.480 -0.1087 -0.9406 -0.0194
15992SOL    HW249193   5.664   4.832   1.368  0.4792  2.9881  0.4517
15993SOL     OW49194   6.889   4.293   1.503  0.7133  0.0769 -0.1145
15993SOL    HW149195   6.934   4.377   1.495  0.8168 -0.0273 -0.6596
15993SOL    HW249196   6.919   4.258   1.587  2.3890 -0.4139 -0.8657
15994SOL     OW49197   5.794   4.228   0.963 -0.1440 -0.9948  0.2964
15994SOL    HW149198   5.766   4.198   0.876 -0.5475 -0.0778  0.0982
15994SOL    HW249199   5.713   4.256   1.005  0.3936  1.7992 -0.3158
15995SOL     OW49200   5.772   4.980   1.861 -0.2410  0.2930 -1.0100
15995SOL    HW149201   5.759   4.920   1.934  1.1109 -1.8832 -2.4386
15995SOL    HW249202   5.820   5.054   1.899 -0.3581 -0.3504  0.4657
15996SOL     OW49203   6.195   4.753   1.148 -0.1225 -0.2541 -0.2657
15996SOL    HW149204   6.276   4.783   1.107 -0.3877  0.0716 -0.5609
15996SOL    HW249205   6.222   4.684   1.208  0.5354  0.7679  0.6398
15997SOL     OW49206   7.029   5.406   1.183 -0.5212  0.0442 -0.4139
15997SOL    HW149207   7.054   5.497   1.170 -2.6786  0.7517 -0.0257
15997SOL    HW249208   7.078   5.379   1.261 -0.9336  1.3413  0.3325
15998SOL     OW49209   6.214   3.397   1.899 -0.5828  0.0149 -0.2207
15998SOL    HW149210   6.295   3.361   1.863 -0.8566  0.5522 -1.4429
15998SOL    HW249211   6.180   3.453   1.829 -2.0201 -0.2214  0.2519
15999SOL     OW49212   7.055   4.153   0.991 -0.3980 -0.4010  0.1549
15999SOL    HW149213   6.994   4.200   1.048 -1.7265 -0.1166 -1.4022
15999SOL    HW249214   7.050   4.200   0.907  2.4484 -0.0160  0.1053
16000SOL     OW49215   5.948   5.447   0.397  0.8623  0.1600  0.0122
16000SOL    HW149216   5.872   5.475   0.448  2.2177 -0.1617  2.3974
16000SOL    HW249217   5.978   5.526   0.353 -0.0097  0.6076  0.1932
16001SOL     OW49218   6.818   4.759   1.815 -0.0172 -0.1460  0.0694
16001SOL    HW149219   6.745   4.760   1.876 -0.8265 -3.9220 -0.5678
16001SOL    HW249220   6.800   4.831   1.755 -3.2717 -0.8430 -0.0007
16002SOL     OW49221   5.591   5.007   0.602 -0.3617 -0.1446  0.6228
16002SOL    HW149222   5.631   5.041   0.682 -1.6867  0.6595  0.9804
16002SOL    HW249223   5.557   5.084   0.557  0.0835 -0.6225 -0.5696
16003SOL     OW49224   5.856   4.897   0.847  0.1961 -0.7579 -0.6787
16003SOL    HW149225   5.795   4.960   0.885  1.3944  0.7272 -1.1087
16003SOL    HW249226   5.847   4.819   0.901 -0.8505  0.0116  0.2952
16004SOL     OW49227   5.943   5.341   1.572  0.7191 -0.1172  0.1599
16004SOL    HW149228   5.886   5.408   1.533  0.5183 -0.3540  0.0447
16004SOL    HW249229   6.024   5.346   1.520 -0.2729 -1.8343 -1.6690
16005SOL     OW49230   5.749   4.746   0.531  0.5674  0.4257  0.5386
16005SOL    HW149231   5.729   4.837   0.552 -0.4358  0.6823 -1.2823
16005SOL    HW249232   5.732   4.698   0.612  1.2410  1.8536  1.5597
16006SOL     OW49233   7.082   3.654   1.485 -0.1060 -0.1121 -0.0868
16006SOL    HW149234   7.119   3.607   1.559  1.2443 -0.6354 -1.0517
16006SOL    HW249235   7.052   3.585   1.425 -3.0553  0.2767  0.7839
16007SOL     OW49236   5.546   4.332   0.973  0.1863 -0.1633 -0.0176
16007SOL    HW149237   5.566   4.426   0.972 -0.3509 -0.0508 -0.4301
16007SOL    HW249238   5.473   4.322   0.912 -1.7464 -0.4110  2.1868
16008SOL     OW49239   7.466   5.693   0.199 -0.0569  0.0077 -0.1660
16008SOL    HW149240   7.441   5.739   0.279 -0.1863 -0.6547  0.1850
16008SOL    HW249241   7.459   5.600   0.221 -0.1424 -0.1881 -0.9623
16009SOL     OW49242   5.708   5.288   0.248  0.0063  0.5000  0.3636
16009SOL    HW149243   5.692   5.199   0.281 -0.0133  0.1808 -0.4772
16009SOL    HW249244   5.705   5.343   0.326 -0.1136 -0.2207  0.8830
16010SOL     OW49245   6.991   4.913   0.984 -0.0272 -0.4807  0.2152
16010SOL    HW149246   6.937   4.975   0.936  0.0286 -0.2238  0.4788
16010SOL    HW249247   6.956   4.915   1.074  1.1587  0.6057  0.6963
16011SOL     OW49248   7.157   4.921   0.639 -0.2139  0.5021 -0.0229
16011SOL    HW149249   7.068   4.955   0.650  0.1428  2.3137 -2.0074
16011SOL    HW249250   7.185   4.955   0.554  1.4964 -2.0833 -0.5924
16012SOL     OW49251   5.826   4.589   1.943 -0.1176 -0.0863  0.0453
16012SOL    HW149252   5.826   4.567   1.850  1.7340  0.5872 -0.1523
16012SOL    HW249253   5.786   4.513   1.986 -2.4653  0.2480 -1.3974
16013SOL     OW49254   6.200   4.968   0.801 -0.1131 -0.0532  0.4774
16013SOL    HW149255   6.292   4.944   0.814 -0.0327  0.4219  0.8250
16013SOL    HW249256   6.151   4.891   0.829  0.1946 -0.5368 -0.2837
16014SOL     OW49257   6.619   4.579   1.620 -0.2304 -0.4432  0.1122
16014SOL    HW149258   6.564   4.587   1.698  0.0726 -2.1537  0.5559
16014SOL    HW249259   6.663   4.663   1.612 -1.1797  0.1690  1.0827
16015SOL     OW49260   6.255   3.931   0.614  0.1160 -0.2045  0.2612
16015SOL    HW149261   6.243   4.022   0.643 -1.9906 -0.1094 -0.6840
16015SOL    HW249262   6.257   3.936   0.519  2.0043 -0.9953  0.2149
16016SOL     OW49263   5.734   4.534   1.312 -0.1062  0.0755  0.1899
16016SOL    HW149264   5.774   4.548   1.227 -2.0991 -1.6737 -1.1462
16016SOL    HW249265   5.708   4.621   1.342  1.4789  0.8151 -0.4902
16017SOL     OW49266   7.024   4.982   0.338  0.2549  0.5635  0.7231
16017SOL    HW149267   7.014   5.020   0.425  1.1975 -0.4076  1.2823
16017SOL    HW249268   6.945   5.008   0.291  0.7673  3.0749  1.0996
16018SOL     OW49269   6.851   5.843   1.692  0.1818  0.1228 -0.2733
16018SOL    HW149270   6.939   5.840   1.731 -0.4687 -0.4022  1.2070
16018SOL    HW249271   6.861   5.901   1.616  1.4872  1.2297  0.6958
16019SOL     OW49272   6.099   3.893   2.032 -0.2132 -0.3048 -0.0958
16019SOL    HW149273   6.020   3.946   2.039 -2.0560 -2.4067 -2.7716
16019SOL    HW249274   6.103   3.845   2.114 -2.8205 -1.4089 -0.5073
16020SOL     OW49275   6.791   5.265   1.107 -0.0614  0.3976  0.0257
16020SOL    HW149276   6.824   5.206   1.175  0.8816  0.1625 -0.6239
16020SOL    HW249277   6.839   5.346   1.121 -0.1935  0.4958 -0.0896
16021SOL     OW49278   6.763   5.576   0.899  0.2367  0.2277  0.3047
16021SOL    HW149279   6.715   5.599   0.819 -0.2815  1.2116  0.8836
16021SOL    HW249280   6.802   5.491   0.879 -0.5632  0.0694 -0.7063
16022SOL     OW49281   5.881   4.617   0.345  0.6490 -0.3736  0.1287
16022SOL    HW149282   5.918   4.539   0.388  0.8893  0.4426  1.4518
16022SOL    HW249283   5.843   4.668   0.417  0.4683  0.7208 -0.7252
16023SOL     OW49284   7.114   4.269   1.320 -0.4600 -0.4459 -0.5174
16023SOL    HW149285   7.057   4.315   1.258 -0.9139  0.6984  0.7096
16023SOL    HW249286   7.056   4.206   1.363 -0.6159  0.1054  0.1001
16024SOL     OW49287   6.993   5.653   8.835  0.1049 -0.5340  1.0170
16024SOL    HW149288   6.942   5.578   8.805  1.4776 -1.5620  1.1440
16024SOL    HW249289   7.072   5.651   8.781 -0.6010  1.8998 -0.2060
16025SOL     OW49290   6.350   3.934   1.665 -0.4891  0.1844  0.0628
16025SOL    HW149291   6.347   4.029   1.675 -3.1189  0.0813  0.9628
16025SOL    HW249292   6.366   3.901   1.754  2.3151 -0.2812 -0.4946
16026SOL     OW49293   7.346   3.845   1.530 -0.2914 -0.1074 -0.1499
16026SOL    HW149294   7.301   3.793   1.597 -0.4079 -0.8103 -0.7609
16026SOL    HW249295   7.414   3.891   1.578 -1.6382  0.9732  0.7952
16027SOL     OW49296   6.093   4.552   1.548  0.2256 -0.0808 -0.3177
16027SOL    HW149297   6.000   4.570   1.560  0.2262  0.1037 -0.5687
16027SOL    HW249298   6.130   4.557   1.636 -0.1081 -0.7933 -0.1341
16028SOL     OW49299   6.514   3.907   1.437  0.5884 -0.0955  0.5004
16028SOL    HW149300   6.450   3.917   1.508 -0.0319  1.6125 -0.2334
16028SOL    HW249301   6.577   3.978   1.452 -1.0168  2.0773 -2.0660
16029SOL     OW49302   6.486   4.518   0.684 -0.0758  0.0093 -1.0288
16029SOL    HW149303   6.530   4.435   0.700  1.6493  0.5420 -2.6029
16029SOL    HW249304   6.393   4.498   0.692  0.3346 -1.2125  2.2603
16030SOL     OW49305   5.780   4.534   0.760 -0.3338  0.5428 -0.1431
16030SOL    HW149306   5.858   4.518   0.813 -0.3398  0.6426 -0.1044
16030SOL    HW249307   5.710   4.546   0.824 -0.0454  2.2846 -0.1253
16031SOL     OW49308   5.133   6.096   1.398  0.0228  0.0354  0.2129
16031SOL    HW149309   5.111   6.183   1.432 -0.6253 -0.4402  1.0557
16031SOL    HW249310   5.054   6.044   1.414  0.1989 -0.5650 -0.8133
16032SOL     OW49311   6.195   3.685   0.194 -0.5511  0.1201  0.4993
16032SOL    HW149312   6.246   3.669   0.274  0.1541 -1.1336 -0.1656
16032SOL    HW249313   6.257   3.728   0.135 -0.5567 -0.5152  0.0291
16033SOL     OW49314   7.023   4.583   1.795 -0.0250  0.9352 -0.1664
16033SOL    HW149315   6.938   4.620   1.771 -1.0770 -1.7122 -0.9601
16033SOL    HW249316   7.084   4.616   1.729 -1.5807 -1.1240 -2.8561
16034SOL     OW49317   6.554   5.067   0.830  0.0371 -0.0458  0.1312
16034SOL    HW149318   6.502   5.091   0.907  2.0946 -1.1502  2.0006
16034SOL    HW249319   6.557   5.147   0.777  1.0330  1.8095  2.7548
16035SOL     OW49320   5.668   3.235   1.332  0.5023 -0.8330  0.2649
16035SOL    HW149321   5.734   3.269   1.394  0.1161 -0.9832  0.7652
16035SOL    HW249322   5.592   3.291   1.345  1.0894  0.4710 -1.5660
16036SOL     OW49323   6.397   5.445   0.601  0.4062  0.2382  0.0374
16036SOL    HW149324   6.322   5.391   0.576  1.4687 -0.9365 -0.7477
16036SOL    HW249325   6.395   5.519   0.541 -0.6339  0.7052  0.6266
16037SOL     OW49326   5.779   5.101   1.294 -0.5399 -0.1501 -0.3498
16037SOL    HW149327   5.874   5.110   1.296 -0.5578  0.1142  1.5651
16037SOL    HW249328   5.762   5.014   1.332 -1.0398 -0.6474 -1.6651
16038SOL     OW49329   7.531   4.925   0.991 -0.4010  0.1481  0.0940
16038SOL    HW149330   7.446   4.887   0.967  0.2199 -2.4068  1.5428
16038SOL    HW249331   7.588   4.905   0.917 -0.0914 -1.9326  0.8204
16039SOL     OW49332   7.099   5.284   1.717 -0.8666 -0.1019  0.4549
16039SOL    HW149333   7.193   5.286   1.735 -0.4990  0.2495 -1.3077
16039SOL    HW249334   7.060   5.340   1.784  0.4599  1.6526 -0.1813
16040SOL     OW49335   5.527   4.728   0.286 -0.3149  0.4093 -0.0660
16040SOL    HW149336   5.595   4.710   0.351  0.5345  1.6599 -0.5547
16040SOL    HW249337   5.566   4.795   0.229 -2.6265  2.5767  0.7021
16041SOL     OW49338   6.817   5.082   0.875 -0.0136 -0.0317  0.2286
16041SOL    HW149339   6.724   5.062   0.888  0.2869 -1.2782  0.6181
16041SOL    HW249340   6.833   5.159   0.931 -1.0216  0.8233 -0.6251
16042SOL     OW49341   5.396   4.852   1.842 -0.1045 -0.0628  0.3076
16042SOL    HW149342   5.370   4.765   1.873 -4.6019  1.5135  1.7218
16042SOL    HW249343   5.434   4.894   1.920  0.6286 -0.2402  0.0504
16043SOL     OW49344   7.089   5.758   0.881  0.1064  0.1794  0.1959
16043SOL    HW149345   7.169   5.732   0.928 -0.3799  0.3102  1.1186
16043SOL    HW249346   7.018   5.728   0.938 -0.4841  2.0037  0.4610
16044SOL     OW49347   5.815   3.979   1.875 -0.3774  0.7396  0.2837
16044SOL    HW149348   5.727   3.999   1.846 -0.6912  1.0920  1.4255
16044SOL    HW249349   5.872   4.006   1.803 -1.0798  2.0856  0.2196
16045SOL     OW49350   6.992   5.379   0.190  0.1523  0.3034  0.6415
16045SOL    HW149351   6.922   5.362   0.126  1.6352 -1.5644 -0.5825
16045SOL    HW249352   6.946   5.414   0.266 -1.8086  1.7672 -1.0801
16046SOL     OW49353   6.425   6.010   0.411 -0.4744  0.3633 -0.3257
16046SOL    HW149354   6.343   6.049   0.380 -0.5906  0.6892  0.3692
16046SOL    HW249355   6.493   6.069   0.380 -0.4531 -0.1378 -1.2800
16047SOL     OW49356   6.640   3.903   0.154  0.3193 -0.0903 -0.6440
16047SOL    HW149357   6.643   3.823   0.102 -0.7706 -0.0228 -0.8290
16047SOL    HW249358   6.577   3.884   0.223 -1.0482  1.0905 -1.5314
16048SOL     OW49359   5.600   5.299   1.270 -0.0579 -0.1949 -0.7228
16048SOL    HW149360   5.660   5.230   1.299  1.5158  1.5587  0.3848
16048SOL    HW249361   5.518   5.279   1.316  0.0744 -1.7960 -1.1095
16049SOL     OW49362   6.429   5.331   1.002  0.3115 -0.2141 -0.0516
16049SOL    HW149363   6.370   5.406   0.992 -0.9292 -0.9692  1.1582
16049SOL    HW249364   6.516   5.366   0.985  0.0425  2.0714  2.6301
16050SOL     OW49365   5.982   4.374   0.452  0.0220 -0.0574  0.0329
16050SOL    HW149366   5.930   4.312   0.504  0.7218 -0.4250  0.2968
16050SOL    HW249367   5.986   4.334   0.365 -0.6941  0.2975 -0.1704
16051SOL     OW49368   7.335   4.038   1.816  0.2824 -0.1145 -0.0402
16051SOL    HW149369   7.330   4.126   1.779  2.7636  0.5633  1.0055
16051SOL    HW249370   7.304   4.049   1.906  2.5557  0.2111  0.7525
16052SOL     OW49371   6.285   3.750   1.885 -0.1476  0.4058 -0.2224
16052SOL    HW149372   6.216   3.804   1.922 -1.1387 -1.0105  0.0831
16052SOL    HW249373   6.239   3.682   1.837  1.0688  1.1717 -2.6549
16053SOL     OW49374   6.633   4.897   1.240  0.3418 -0.1941 -0.4724
16053SOL    HW149375   6.572   4.899   1.314 -1.1713  0.7018 -1.7097
16053SOL    HW249376   6.702   4.958   1.265  0.8971 -1.3511  1.0217
16054SOL     OW49377   7.473   4.149   1.361  0.1928  0.3226  0.0357
16054SOL    HW149378   7.419   4.153   1.441 -0.3132 -1.6272 -0.1548
16054SOL    HW249379   7.409   4.140   1.290  0.6653  1.5134 -0.5619
16055SOL     OW49380   6.854   5.106   1.336  0.0124  0.1984  0.4854
16055SOL    HW149381   6.894   5.173   1.391  0.7201  0.4203 -0.2623
16055SOL    HW249382   6.883   5.023   1.374 -1.2220  0.2731  1.6740
16056SOL     OW49383   6.178   3.937   0.875 -0.0110  0.0103 -0.1588
16056SOL    HW149384   6.145   3.941   0.785 -1.5680  1.1764  0.4052
16056SOL    HW249385   6.134   3.860   0.913  1.3616 -1.0346 -0.6266
16057SOL     OW49386   6.004   3.670   0.538 -0.1143 -0.2771 -0.0385
16057SOL    HW149387   6.074   3.615   0.571  0.6053  0.3266 -0.5320
16057SOL    HW249388   5.947   3.611   0.489 -0.1442 -0.8314  0.6596
16058SOL     OW49389   6.779   5.215   8.668 -0.1089  0.2726 -0.2752
16058SOL    HW149390   6.814   5.146   8.724  0.7549  0.2236 -0.8524
16058SOL    HW249391   6.685   5.216   8.687 -0.5337 -2.4124 -1.6369
16059SOL     OW49392   6.246   4.204   0.693 -0.3143 -0.3656  0.1570
16059SOL    HW149393   6.158   4.239   0.703 -1.8687 -4.2455  2.0347
16059SOL    HW249394   6.295   4.237   0.768 -1.4790 -1.4409  1.4226
16060SOL     OW49395   6.741   4.075   1.482  0.2205  0.6798 -0.2587
16060SOL    HW149396   6.764   4.013   1.551 -0.5210 -0.1039 -0.7014
16060SOL    HW249397   6.793   4.153   1.502  2.4950 -0.6400 -0.6460
16061SOL     OW49398   6.129   5.210   0.920 -0.0825 -0.3072  0.0427
16061SOL    HW149399   6.126   5.133   0.863 -0.6056 -0.4134  0.2042
16061SOL    HW249400   6.188   5.185   0.992 -0.1858 -0.5279  0.0514
16062SOL     OW49401   6.040   4.395   1.240  0.2685  0.0143  0.6737
16062SOL    HW149402   5.976   4.355   1.299  0.6709 -2.1724 -0.2582
16062SOL    HW249403   6.112   4.421   1.297 -1.4716  2.8698  1.7976
16063SOL     OW49404   6.594   5.686   1.066  0.6038 -0.3003  0.2030
16063SOL    HW149405   6.602   5.780   1.052 -0.8737 -0.1275  0.3435
16063SOL    HW249406   6.653   5.647   1.002  0.8375  0.7114 -0.2174
16064SOL     OW49407   6.513   4.825   0.596 -0.1532 -0.0104 -0.2135
16064SOL    HW149408   6.450   4.794   0.661  0.9287  2.4572  2.1619
16064SOL    HW249409   6.485   4.914   0.575  0.3829 -0.2353 -2.1132
16065SOL     OW49410   5.599   4.177   1.792  0.1925 -1.0873  0.0039
16065SOL    HW149411   5.620   4.225   1.712  1.0682  0.2290  0.9825
16065SOL    HW249412   5.523   4.223   1.827 -1.2514 -2.6876 -0.8803
16066SOL     OW49413   6.058   3.949   1.690  0.0132  0.1351 -0.2968
16066SOL    HW149414   6.071   4.037   1.656 -1.9592  0.4939 -0.2154
16066SOL    HW249415   6.145   3.922   1.720  0.8148  1.7058 -1.0921
16067SOL     OW49416   6.162   3.593   1.018  0.4332  0.0563  0.3836
16067SOL    HW149417   6.083   3.599   1.071 -0.4499  1.7955 -1.0070
16067SOL    HW249418   6.223   3.655   1.059  0.6646 -0.4539  0.8101
16068SOL     OW49419   6.301   4.105   0.348 -0.2744  0.1686  0.4350
16068SOL    HW149420   6.330   4.187   0.387  0.0467 -0.2112  1.0228
16068SOL    HW249421   6.292   4.124   0.255  1.7743  0.3531  0.2155
16069SOL     OW49422   6.923   4.386   1.166  0.2746 -0.1793  0.0031
16069SOL    HW149423   6.857   4.373   1.098  0.5617 -1.0002 -0.1227
16069SOL    HW249424   6.901   4.472   1.204 -1.9565 -1.1722  1.1637
16070SOL     OW49425   7.238   4.786   0.359 -0.1800  0.3110  0.1257
16070SOL    HW149426   7.271   4.769   0.270  0.6961  0.0357  0.4873
16070SOL    HW249427   7.183   4.863   0.350 -1.3526 -0.5967 -0.9240
16071SOL     OW49428   7.571   4.681   0.706 -0.1049  0.2273  0.0989
16071SOL    HW149429   7.549   4.663   0.798  2.0426 -0.7197  0.4986
16071SOL    HW249430   7.615   4.766   0.708 -1.3117  0.8775 -0.2909
16072SOL     OW49431   6.326   5.493   0.101 -0.9070 -0.1692  0.2751
16072SOL    HW149432   6.291   5.405   0.113 -1.6078 -0.1705 -1.4741
16072SOL    HW249433   6.313   5.536   0.185  0.3093 -1.9945  1.4673
16073SOL     OW49434   7.444   5.811   0.466 -0.3041 -0.4961  0.6183
16073SOL    HW149435   7.530   5.827   0.505 -0.8796  0.4402  1.5619
16073SOL    HW249436   7.392   5.774   0.537  0.0161 -3.6538 -0.6193
16074SOL     OW49437   6.894   4.770   0.543  0.7374  0.4902  0.5005
16074SOL    HW149438   6.918   4.755   0.452 -1.9857  1.6923 -0.5383
16074SOL    HW249439   6.901   4.865   0.555 -1.4042  0.6773  0.6703
16075SOL     OW49440   5.819   4.208   0.575 -0.1679 -0.5240 -0.1843
16075SOL    HW149441   5.771   4.159   0.642  0.8851 -1.1536  0.1364
16075SOL    HW249442   5.825   4.147   0.501 -1.2292  0.1278 -0.8325
16076SOL     OW49443   7.241   4.712   1.633  0.2953  0.3179  0.7259
16076SOL    HW149444   7.240   4.649   1.561 -0.3151  0.1628  0.8690
16076SOL    HW249445   7.211   4.794   1.593  0.1157  0.2722  0.7657
16077SOL     OW49446   6.287   4.582   1.336 -0.0462 -0.2325  0.2543
16077SOL    HW149447   6.241   4.549   1.413 -0.1274  0.4928  0.5239
16077SOL    HW249448   6.372   4.538   1.338  1.0367  1.7079  2.2893
16078SOL     OW49449   7.260   5.533   1.368  0.1170 -0.0989 -0.5410
16078SOL    HW149450   7.284   5.442   1.386  1.1560  0.2316 -0.1691
16078SOL    HW249451   7.258   5.575   1.454 -1.6664 -0.0449 -0.5704
16079SOL     OW49452   6.800   4.656   1.220  0.3351  0.0824 -0.4829
16079SOL    HW149453   6.731   4.700   1.269  1.0410 -0.8732  1.4549
16079SOL    HW249454   6.769   4.656   1.129 -0.4567  3.0100 -0.3198
16080SOL     OW49455   7.272   4.850   0.935  0.5014 -0.0999  0.7510
16080SOL    HW149456   7.219   4.906   0.878  1.8489 -0.4881 -0.9901
16080SOL    HW249457   7.236   4.762   0.922  0.6472 -0.1492  0.6655
16081SOL     OW49458   6.152   3.596   1.694  0.4855 -0.1502  0.1823
16081SOL    HW149459   6.056   3.593   1.698  0.4163 -0.2502 -1.1563
16081SOL    HW249460   6.171   3.632   1.608  1.6666 -0.0631  0.4679
16082SOL     OW49461   6.459   4.780   1.736  0.5275 -1.0515 -0.0885
16082SOL    HW149462   6.424   4.868   1.748 -1.6672 -1.8187 -0.5123
16082SOL    HW249463   6.483   4.752   1.824 -0.9623 -0.8790  0.4025
16083SOL     OW49464   6.375   4.316   0.957  0.4492 -0.3356 -0.1777
16083SOL    HW149465   6.340   4.247   1.014  1.3065 -0.4933  0.1684
16083SOL    HW249466   6.302   4.379   0.949 -0.2218 -1.0986 -0.2212
16084SOL     OW49467   6.051   4.345   1.793 -0.3661  0.8344  0.7008
16084SOL    HW149468   5.964   4.383   1.782  0.5180  2.5079 -1.1306
16084SOL    HW249469   6.073   4.309   1.707  0.2547 -0.7920  1.4910
16085SOL     OW49470   6.869   3.978   1.270  0.1550  0.2833  0.9337
16085SOL    HW149471   6.950   3.946   1.310 -0.6691 -1.7067  1.1283
16085SOL    HW249472   6.818   4.012   1.344 -0.3816 -1.2061  1.2814
16086SOL     OW49473   5.610   5.210   1.716 -0.4629 -0.5118 -0.1707
16086SOL    HW149474   5.570   5.217   1.629 -1.1695  0.5405  0.2236
16086SOL    HW249475   5.647   5.122   1.718 -2.2416 -1.3122 -0.7890
16087SOL     OW49476   5.984   5.034   0.584 -0.4311  0.0550  0.2748
16087SOL    HW149477   6.032   4.962   0.625  1.8360  1.5734  0.4533
16087SOL    HW249478   5.953   5.087   0.658 -0.9537 -0.0140  0.1096
16088SOL     OW49479   5.869   3.673   1.123  0.8134  0.2864 -0.5095
16088SOL    HW149480   5.887   3.764   1.149  0.8243  0.1768 -0.1290
16088SOL    HW249481   5.781   3.677   1.085  1.0116  0.5445 -0.9423
16089SOL     OW49482   6.596   5.322   0.736 -0.0744  0.0077 -0.5414
16089SOL    HW149483   6.672   5.335   0.679 -0.0129  0.6527 -0.3240
16089SOL    HW249484   6.524   5.363   0.689 -0.1469  0.0132 -0.4250
16090SOL     OW49485   6.941   5.311   1.517 -0.3752 -0.1620  0.2603
16090SOL    HW149486   6.900   5.396   1.529 -0.7252 -0.4582  1.1922
16090SOL    HW249487   7.014   5.310   1.579  0.6340  0.0860 -0.8857
16091SOL     OW49488   7.054   4.582   0.694 -0.0418  0.3299 -0.0131
16091SOL    HW149489   7.143   4.598   0.665  0.1135  1.6435  1.0651
16091SOL    HW249490   6.999   4.629   0.631  0.1672  1.2551  0.4705
16092SOL     OW49491   5.939   5.041   1.589  0.3880 -0.5224  0.6239
16092SOL    HW149492   5.924   5.135   1.592  1.1455 -0.3296 -0.8009
16092SOL    HW249493   6.035   5.032   1.592  0.5097 -1.0378 -2.2698
16093SOL     OW49494   5.877   4.093   2.118 -0.1742  0.1408 -0.0221
16093SOL    HW149495   5.797   4.083   2.168 -0.1095  1.0365  0.2796
16093SOL    HW249496   5.855   4.062   2.030 -0.6405 -0.2697  0.2369
16094SOL     OW49497   6.975   4.870   1.275  0.2865  0.0815  0.0386
16094SOL    HW149498   7.053   4.859   1.329  1.6535  0.4422 -1.7656
16094SOL    HW249499   6.957   4.783   1.241  0.7880  0.2452 -0.6722
16095SOL     OW49500   6.574   3.825   2.197 -0.6174 -0.1333  0.1419
16095SOL    HW149501   6.542   3.907   2.161 -1.2343 -0.4276  0.0028
16095SOL    HW249502   6.621   3.783   2.125 -1.5711 -0.5725 -0.2369
16096SOL     OW49503   6.178   3.319   2.155 -0.0379 -0.2423 -0.1241
16096SOL    HW149504   6.221   3.320   2.069 -0.0021  0.3736 -0.1026
16096SOL    HW249505   6.228   3.382   2.207  0.7132 -1.4940  0.7378
16097SOL     OW49506   6.290   4.263   1.378 -0.3351 -0.4723  0.7712
16097SOL    HW149507   6.297   4.201   1.306 -2.0077 -0.3231  0.4502
16097SOL    HW249508   6.380   4.271   1.411 -0.1879 -3.9340  1.5960
16098SOL     OW49509   6.676   4.258   1.258  0.0254  0.5681  0.0804
16098SOL    HW149510   6.642   4.168   1.254  1.7512 -0.0979 -0.5663
16098SOL    HW249511   6.763   4.252   1.220  0.5731  2.3468  0.9510
16099SOL     OW49512   5.705   3.820   1.335  0.8855 -0.2431  0.1216
16099SOL    HW149513   5.694   3.910   1.365  0.6458 -0.2438  0.0384
16099SOL    HW249514   5.762   3.780   1.400 -1.7944 -1.0322  2.1943
16100SOL     OW49515   5.511   5.146   1.479 -0.0880 -0.5531 -0.0772
16100SOL    HW149516   5.424   5.158   1.519 -0.9769 -0.5633 -1.9051
16100SOL    HW249517   5.509   5.057   1.445  0.9214 -0.7880  0.4345
16101SOL     OW49518   6.251   3.876   1.379 -0.0904  0.0034  0.2911
16101SOL    HW149519   6.331   3.928   1.377 -0.5331  0.6700 -0.3486
16101SOL    HW249520   6.250   3.837   1.467  0.4628  0.7212  0.6247
16102SOL     OW49521   7.117   5.200   2.011  0.1331  0.1323 -0.8442
16102SOL    HW149522   7.062   5.273   1.984 -0.6103  0.3848  1.1748
16102SOL    HW249523   7.059   5.123   2.006 -1.0466  0.5924  2.6653
16103SOL     OW49524   5.369   3.746   0.940 -0.0455  0.0371 -0.1564
16103SOL    HW149525   5.422   3.784   1.010  1.9165  0.9674 -2.0249
16103SOL    HW249526   5.419   3.669   0.912 -0.0345  0.4930 -1.4414
16104SOL     OW49527   7.003   4.366   0.311  0.1213 -0.1714 -0.2829
16104SOL    HW149528   7.073   4.349   0.374 -0.7060 -0.2585  0.6221
16104SOL    HW249529   6.990   4.460   0.313  0.4562 -0.1109 -0.7274
16105SOL     OW49530   6.778   4.302   0.936  0.7063  0.6315  0.1846
16105SOL    HW149531   6.714   4.269   0.873  0.1261  1.4643  0.3286
16105SOL    HW249532   6.856   4.321   0.884 -0.5044  3.5606 -0.7624
16106SOL     OW49533   6.486   4.891   1.469  0.0409  0.5823  0.0831
16106SOL    HW149534   6.461   4.811   1.516 -0.4721 -0.6451 -2.1428
16106SOL    HW249535   6.415   4.953   1.487 -0.0654  0.2022  1.0172
16107SOL     OW49536   7.377   5.060   1.618  0.0357 -0.0680  0.6571
16107SOL    HW149537   7.420   5.105   1.545  1.5652 -2.1868  0.1426
16107SOL    HW249538   7.396   5.114   1.695  3.4840 -0.6532  0.3906
16108SOL     OW49539   6.204   4.589   1.804  0.1114  0.5834 -0.2683
16108SOL    HW149540   6.166   4.655   1.862 -1.5570 -0.0155 -0.6289
16108SOL    HW249541   6.157   4.509   1.824  0.7827 -0.0633 -1.1712
16109SOL     OW49542   6.665   4.187   0.128  0.0140 -0.4788 -0.1906
16109SOL    HW149543   6.635   4.198   0.038 -1.7670  1.1231  0.5353
16109SOL    HW249544   6.671   4.092   0.140 -2.8094 -0.8784 -1.0948
16110SOL     OW49545   7.122   5.166   8.717 -0.5831  0.5791  0.0347
16110SOL    HW149546   7.155   5.079   8.738 -2.2619  0.2139  1.3716
16110SOL    HW249547   7.041   5.151   8.669  0.1989  1.4403 -1.6360
16111SOL     OW49548   6.489   4.771   1.059 -0.1314 -0.2350  0.4654
16111SOL    HW149549   6.508   4.678   1.074 -0.5419 -0.1485  1.6155
16111SOL    HW249550   6.559   4.818   1.104 -0.5189  0.0126  0.8262
16112SOL     OW49551   5.828   4.269   1.435  0.6836 -0.0429 -0.1133
16112SOL    HW149552   5.788   4.352   1.408  1.9213  0.6297  0.0586
16112SOL    HW249553   5.758   4.205   1.424 -0.2911  1.0059 -0.3063
16113SOL     OW49554   5.691   4.078   0.758  0.1543  0.2066  0.3007
16113SOL    HW149555   5.600   4.078   0.789 -0.7489  0.2227 -2.1525
16113SOL    HW249556   5.712   3.985   0.748 -0.9039  0.1874 -2.4965
16114SOL     OW49557   6.540   3.787   1.850 -0.6976  0.2565  0.0437
16114SOL    HW149558   6.452   3.750   1.861 -0.0518 -0.9457  1.5062
16114SOL    HW249559   6.558   3.778   1.756 -1.7181 -0.4661 -0.0976
16115SOL     OW49560   6.644   3.608   1.550 -0.4653  0.7734 -0.1738
16115SOL    HW149561   6.575   3.542   1.560  0.3590 -0.3023 -1.2731
16115SOL    HW249562   6.626   3.649   1.466  1.1438 -0.6997 -1.3025
16116SOL     OW49563   5.770   5.523   0.824  0.4634  0.1753  0.0460
16116SOL    HW149564   5.742   5.580   0.895 -2.6538  0.1729 -1.0343
16116SOL    HW249565   5.689   5.491   0.785  2.0585 -2.1222 -1.7152
16117SOL     OW49566   6.314   5.116   0.613  0.0926  0.4573 -0.3222
16117SOL    HW149567   6.251   5.085   0.678 -2.3018  1.2839 -2.1012
16117SOL    HW249568   6.290   5.207   0.597  2.4055  1.1345 -0.3952
16118SOL     OW49569   6.372   4.061   1.188 -0.4987 -0.6978 -0.0009
16118SOL    HW149570   6.438   4.019   1.133 -0.4570 -0.7697  0.1051
16118SOL    HW249571   6.303   4.087   1.126 -1.3978 -2.5791  0.1488
16119SOL     OW49572   5.824   4.525   1.663  0.2102  0.0880 -0.0171
16119SOL    HW149573   5.751   4.476   1.626 -0.6796  1.7454 -0.5759
16119SOL    HW249574   5.805   4.616   1.640  1.3425  0.8025  1.6958
16120SOL     OW49575   5.883   3.858   2.398 -0.4234 -0.1259  0.1330
16120SOL    HW149576   5.803   3.900   2.367 -2.0027 -1.5667  2.0736
16120SOL    HW249577   5.897   3.894   2.486  1.1018  0.1185 -0.1780
16121SOL     OW49578   6.979   4.561   1.436  0.4353  0.2511 -0.2115
16121SOL    HW149579   7.016   4.616   1.366 -0.2606 -0.4646 -1.1691
16121SOL    HW249580   6.887   4.588   1.442  0.8057  1.2803  1.4224
16122SOL     OW49581   6.187   4.537   0.566 -0.6215 -0.1158  0.1033
16122SOL    HW149582   6.230   4.599   0.506  1.2065 -0.7359  0.7021
16122SOL    HW249583   6.111   4.506   0.517  0.1863  0.2411 -1.4730
16123SOL     OW49584   7.163   4.541   0.958 -0.3460  0.4456 -0.2429
16123SOL    HW149585   7.112   4.561   0.880 -1.4076 -1.2237 -0.0225
16123SOL    HW249586   7.188   4.449   0.947  0.8352  0.6328  0.6574
16124SOL     OW49587   5.575   5.196   1.984  0.0502  0.5973 -0.3290
16124SOL    HW149588   5.553   5.108   2.015 -0.9654  0.8665 -0.2405
16124SOL    HW249589   5.545   5.198   1.893  2.1046  0.1422 -1.0804
16125SOL     OW49590   5.996   3.900   1.253  0.4057  0.5291 -0.4633
16125SOL    HW149591   5.967   3.868   1.338  1.4768 -0.1394 -0.3219
16125SOL    HW249592   6.090   3.917   1.265  1.0028 -1.3606 -1.9842
16126SOL     OW49593   6.662   5.226   1.622  0.3170  0.1814 -0.6247
16126SOL    HW149594   6.734   5.195   1.566 -0.0568  1.5769 -1.9480
16126SOL    HW249595   6.609   5.282   1.564 -1.2921 -0.0207  0.5795
16127SOL     OW49596   5.551   4.367   0.353  0.0558  0.3231 -0.3083
16127SOL    HW149597   5.609   4.426   0.305 -0.0761  0.8164  0.1291
16127SOL    HW249598   5.556   4.397   0.444  0.1010 -0.4307 -0.0499
16128SOL     OW49599   5.597   4.098   1.399  0.1930  0.7971  0.6395
16128SOL    HW149600   5.551   4.178   1.373 -0.6462  0.1597  0.0912
16128SOL    HW249601   5.540   4.059   1.466  0.9080  0.9573  1.3597
16129SOL     OW49602   6.776   4.844   1.550 -0.2138  0.4644  0.0244
16129SOL    HW149603   6.824   4.920   1.581 -0.0467  0.7640 -0.9285
16129SOL    HW249604   6.686   4.874   1.539 -0.5177  0.0628  1.2355
16130SOL     OW49605   6.753   4.767   0.818 -0.3428  0.1311 -0.3394
16130SOL    HW149606   6.696   4.843   0.830  0.2081  0.9687 -2.5252
16130SOL    HW249607   6.839   4.798   0.849 -0.3723 -0.0383 -0.0813
16131SOL     OW49608   7.892   5.307   1.959 -0.1215  0.4306 -0.1502
16131SOL    HW149609   7.839   5.385   1.976 -0.5892 -0.4375  2.9691
16131SOL    HW249610   7.828   5.236   1.952  0.4538 -0.2172  0.9418
16132SOL     OW49611   6.821   5.544   1.481  0.4918  0.2056 -0.0542
16132SOL    HW149612   6.826   5.639   1.493 -1.0588  0.1906  0.8900
16132SOL    HW249613   6.778   5.533   1.396 -1.9826  0.4142  1.0926
16133SOL     OW49614   5.882   5.323   1.103 -0.2112 -0.1283 -0.2331
16133SOL    HW149615   5.929   5.257   1.051  1.8484  1.0615 -0.0045
16133SOL    HW249616   5.833   5.273   1.168  0.6485 -1.4623 -0.5775
16134SOL     OW49617   6.398   5.438   1.807 -0.0425 -0.1274 -0.3568
16134SOL    HW149618   6.308   5.407   1.804 -0.0968 -0.0293  0.1628
16134SOL    HW249619   6.407   5.493   1.729  0.0607 -1.4361 -1.3222
16135SOL     OW49620   6.391   3.782   0.013  0.2116  0.0866  0.0015
16135SOL    HW149621   6.476   3.739   0.006  0.7351  1.0003  0.5467
16135SOL    HW249622   6.389   3.843  -0.061  0.9083  1.5131  1.1065
16136SOL     OW49623   7.623   4.224   0.260  0.0839  0.1200 -0.3926
16136SOL    HW149624   7.594   4.316   0.261  1.4204  0.5633  0.1455
16136SOL    HW249625   7.570   4.183   0.192 -1.5677  0.9297  0.3350
16137SOL     OW49626   7.279   5.762   0.682 -0.0474 -0.2811  0.1247
16137SOL    HW149627   7.311   5.677   0.713 -0.3526  0.2565  2.0196
16137SOL    HW249628   7.210   5.787   0.743  0.1319  1.4102 -0.2946
16138SOL     OW49629   5.370   5.371   2.067 -0.1628 -0.0447 -0.1338
16138SOL    HW149630   5.300   5.322   2.110  0.3184 -1.5332 -0.9438
16138SOL    HW249631   5.435   5.304   2.045  0.4113  0.9248 -1.5325
16139SOL     OW49632   6.552   4.507   1.106 -0.1621 -0.1092  0.4502
16139SOL    HW149633   6.586   4.455   1.178  0.0518 -0.5873  0.0092
16139SOL    HW249634   6.512   4.444   1.046 -0.9250  0.3434  0.4574
16140SOL     OW49635   5.912   4.727   1.167 -0.2184  0.2339  0.3457
16140SOL    HW149636   5.905   4.785   1.242  0.3701  1.0368 -0.2107
16140SOL    HW249637   6.005   4.726   1.145 -0.3660 -0.0961 -0.2880
16141SOL     OW49638   6.324   5.589   0.366  0.4550 -0.5134  0.4505
16141SOL    HW149639   6.283   5.648   0.429 -0.6516  0.8229 -1.4420
16141SOL    HW249640   6.384   5.644   0.316  0.8854 -1.4250 -0.0663
16142SOL     OW49641   7.054   5.704   1.197  0.1117  0.2272  0.1514
16142SOL    HW149642   7.012   5.788   1.218 -0.3930  0.2325 -0.7950
16142SOL    HW249643   7.069   5.663   1.281 -1.0309  0.6135  0.5677
16143SOL     OW49644   7.099   3.924   1.419 -0.3599 -0.0636  0.4202
16143SOL    HW149645   7.059   3.858   1.474  1.4219 -1.0570  0.5835
16143SOL    HW249646   7.192   3.903   1.418 -0.2281  0.0568 -2.7157
16144SOL     OW49647   5.563   4.399   0.655  0.0634 -0.1624 -0.1361
16144SOL    HW149648   5.499   4.459   0.694 -0.6867  0.8075 -2.6999
16144SOL    HW249649   5.648   4.438   0.676 -0.3827  1.2845 -0.9236
16145SOL     OW49650   6.709   5.686   0.636 -0.7268 -0.2943 -0.0803
16145SOL    HW149651   6.622   5.674   0.597 -0.5018 -2.3935 -0.0398
16145SOL    HW249652   6.725   5.780   0.629 -2.0977 -0.1391 -2.0121
16146SOL     OW49653   6.526   4.422   1.419 -0.2754  0.0659 -0.7871
16146SOL    HW149654   6.567   4.494   1.466  0.5455 -0.8419 -0.0961
16146SOL    HW249655   6.598   4.380   1.372 -0.3826 -1.4862  0.3682
16147SOL     OW49656   6.191   4.508   0.840  0.5146 -0.5927  0.1701
16147SOL    HW149657   6.176   4.535   0.750  0.9967 -1.6350 -0.2325
16147SOL    HW249658   6.103   4.487   0.873  0.4240 -0.9981 -0.3159
16148SOL     OW49659   7.174   5.604   8.646  0.0436  0.1589  0.2302
16148SOL    HW149660   7.265   5.628   8.663  0.3126 -0.6895  0.0499
16148SOL    HW249661   7.179   5.537   8.578 -0.7300  0.2313  0.0903
16149SOL     OW49662   6.244   5.070   1.556  0.2707 -0.2417 -0.7008
16149SOL    HW149663   6.186   5.020   1.498  0.2108 -2.2465  0.9402
16149SOL    HW249664   6.242   5.159   1.522 -0.5422 -1.1171 -3.1233
16150SOL     OW49665   7.216   5.138   1.027 -0.3201  0.7052  0.1664
16150SOL    HW149666   7.239   5.112   0.938  0.7009  2.5782 -0.1685
16150SOL    HW249667   7.207   5.055   1.075 -0.4359 -0.3103 -1.5484
16151SOL     OW49668   6.179   4.156   1.041 -0.2959  0.1674  0.1651
16151SOL    HW149669   6.094   4.165   1.084 -1.0075  0.5146 -1.2384
16151SOL    HW249670   6.162   4.097   0.967  1.1105 -1.2327  0.9132
16152SOL     OW49671   6.529   3.962   0.735 -0.1058 -0.4298 -0.4922
16152SOL    HW149672   6.596   3.960   0.667 -0.6501 -0.9565 -1.0240
16152SOL    HW249673   6.453   3.919   0.696 -0.0522 -1.8280  0.8310
16153SOL     OW49674   6.334   5.314   8.638 -0.2089 -0.6437  0.2078
16153SOL    HW149675   6.254   5.297   8.687 -1.7470  1.0782 -1.5023
16153SOL    HW249676   6.382   5.377   8.691 -1.4713  0.5936 -0.0508
16154SOL     OW49677   7.283   4.161   1.150 -0.1168 -0.2871  0.5103
16154SOL    HW149678   7.226   4.167   1.074 -1.3752 -1.7910  1.2843
16154SOL    HW249679   7.232   4.199   1.222  0.8385  0.6072  0.7521
16155SOL     OW49680   5.742   5.037   0.387 -0.0618  0.2361  0.0574
16155SOL    HW149681   5.836   5.043   0.403 -0.0788 -0.1131  0.3055
16155SOL    HW249682   5.706   5.003   0.469 -0.3827  0.2136 -0.0911
16156SOL     OW49683   5.738   4.802   2.107 -0.2308  0.1323  0.1223
16156SOL    HW149684   5.761   4.745   2.034  1.0039 -0.4754  0.9576
16156SOL    HW249685   5.720   4.743   2.179  1.1813  0.7542  1.0411
16157SOL     OW49686   6.204   3.055   1.768 -0.4235 -0.0191 -0.4155
16157SOL    HW149687   6.232   3.131   1.818 -1.5467 -0.3765  0.8350
16157SOL    HW249688   6.284   3.019   1.730  0.2107  1.3260 -0.3920
16158SOL     OW49689   5.289   4.338   0.282 -0.3801 -0.3072 -0.3484
16158SOL    HW149690   5.370   4.307   0.323 -0.7380  0.1906  0.7792
16158SOL    HW249691   5.295   4.433   0.287 -3.0751 -0.1073  4.1944
16159SOL     OW49692   7.257   4.497   1.402  0.0603 -0.2532 -0.0660
16159SOL    HW149693   7.240   4.557   1.329 -0.2284 -0.0851  0.1375
16159SOL    HW249694   7.192   4.428   1.392  0.2633 -0.4292 -0.1835
16160SOL     OW49695   5.409   4.190   0.566 -0.1345 -0.3122 -0.3368
16160SOL    HW149696   5.458   4.266   0.597 -2.7375  1.3397 -0.0390
16160SOL    HW249697   5.403   4.132   0.642  2.7812 -1.4873 -0.8382
16161SOL     OW49698   7.060   5.433   0.592 -0.3337  0.0717  0.2094
16161SOL    HW149699   6.999   5.457   0.662  0.7275 -0.6755  1.4487
16161SOL    HW249700   7.039   5.342   0.573 -0.9457  0.4185 -0.8180
16162SOL     OW49701   6.078   4.193   1.566  0.3338  0.1850 -0.0961
16162SOL    HW149702   5.998   4.223   1.523  0.1101 -0.7826 -0.3692
16162SOL    HW249703   6.148   4.217   1.506  0.0410 -0.9852 -0.9422
16163SOL     OW49704   7.034   5.403   0.902  0.0000  0.2078 -0.1536
16163SOL    HW149705   7.025   5.380   0.994 -1.8751 -0.9661 -0.5825
16163SOL    HW249706   7.129   5.405   0.887  0.3214 -1.0245  1.4415
16164SOL     OW49707   6.639   4.315   1.747  0.6774  0.0392 -0.0623
16164SOL    HW149708   6.688   4.353   1.674  1.0965  0.2390  0.3184
16164SOL    HW249709   6.591   4.389   1.785 -0.5813 -0.3043 -0.9405
16165SOL     OW49710   6.930   5.042   1.636 -0.5826  0.2403  0.3640
16165SOL    HW149711   6.953   5.132   1.659  0.2914 -0.4585  2.4931
16165SOL    HW249712   7.011   5.003   1.603 -1.0419  0.3107 -0.8851
16166SOL     OW49713   5.708   5.429   1.886  0.4943  0.2813 -0.4142
16166SOL    HW149714   5.683   5.357   1.827 -0.1601 -0.0311  0.2355
16166SOL    HW249715   5.677   5.401   1.972  3.1459 -0.1766  0.4861
16167SOL     OW49716   7.224   4.667   1.196 -0.1648  1.1420  0.3087
16167SOL    HW149717   7.185   4.625   1.120  1.0787  0.4906  0.0079
16167SOL    HW249718   7.315   4.683   1.171 -0.1994  2.6150  0.9855
16168SOL     OW49719   6.619   4.689   0.380 -0.1176  0.0340 -0.0366
16168SOL    HW149720   6.550   4.746   0.412  0.0072  1.4072 -2.0376
16168SOL    HW249721   6.573   4.612   0.346 -0.4681 -0.0445  0.6041
16169SOL     OW49722   5.971   4.428   0.988 -0.0224 -0.0424  0.3410
16169SOL    HW149723   5.999   4.436   1.079 -0.6690  0.6491  0.4936
16169SOL    HW249724   5.920   4.347   0.986 -0.9253  0.4834  0.8666
16170SOL     OW49725   7.137   4.329   1.923 -0.2354 -0.8217  0.1881
16170SOL    HW149726   7.108   4.265   1.858  0.5254 -1.8004  0.7865
16170SOL    HW249727   7.085   4.407   1.904  0.4507 -0.8306 -2.0448
16171SOL     OW49728   7.265   4.961   1.275  0.2198 -0.9563  0.0966
16171SOL    HW149729   7.350   4.991   1.243 -0.2642 -2.0118 -2.3878
16171SOL    HW249730   7.260   4.869   1.249 -3.1584 -0.0353 -3.3908
16172SOL     OW49731   6.015   5.190   0.359  0.1181  0.6307 -0.1346
16172SOL    HW149732   6.026   5.143   0.442 -1.5645 -1.1088 -0.8270
16172SOL    HW249733   5.978   5.274   0.384 -2.4750 -0.6915  0.8181
16173SOL     OW49734   6.047   5.138   1.280 -0.6760 -0.1343  0.0651
16173SOL    HW149735   6.060   5.063   1.339 -1.3465 -0.2019  0.1383
16173SOL    HW249736   6.133   5.153   1.241 -0.4044 -0.5877  0.4756
16174SOL     OW49737   5.800   3.975   1.083  0.6512 -0.3526 -0.3331
16174SOL    HW149738   5.842   3.952   1.166  1.9187  0.1330 -0.8165
16174SOL    HW249739   5.836   4.061   1.061  0.0709 -0.3232 -1.2193
16175SOL     OW49740   6.756   5.243   0.499  0.1632 -0.2687 -0.1685
16175SOL    HW149741   6.703   5.196   0.434  2.8027 -0.8362 -2.0842
16175SOL    HW249742   6.780   5.325   0.456  1.3290 -0.3082  0.3483
16176SOL     OW49743   7.592   5.151   1.323 -0.1742  0.1362 -0.2497
16176SOL    HW149744   7.660   5.096   1.361  0.3404  1.1813  0.3848
16176SOL    HW249745   7.628   5.179   1.238  0.1697  0.6157  0.0465
16177SOL     OW49746   5.364   4.513   1.714 -0.4783  0.6902 -0.2238
16177SOL    HW149747   5.370   4.548   1.803  0.2072 -1.5454  0.6810
16177SOL    HW249748   5.270   4.516   1.693 -0.9528 -0.6160  1.4430
16178SOL     OW49749   6.038   5.438   0.797  0.5113  0.1778 -0.1883
16178SOL    HW149750   5.962   5.481   0.835 -0.8302 -1.1873 -1.2145
16178SOL    HW249751   6.047   5.357   0.847 -1.0999 -1.5049 -2.4030
16179SOL     OW49752   6.412   5.055   1.776  0.8862 -0.0674  0.1280
16179SOL    HW149753   6.361   5.102   1.843 -0.1938 -1.2572  0.1708
16179SOL    HW249754   6.364   5.071   1.694  0.1607 -1.5504  0.2394
16180SOL     OW49755   7.313   3.352   1.638 -0.1868 -0.4532  0.2553
16180SOL    HW149756   7.347   3.321   1.554  0.2598 -0.7836  0.5580
16180SOL    HW249757   7.327   3.280   1.699 -0.7452 -0.3104  0.5586
16181SOL     OW49758   5.785   3.824   0.714  0.0599  0.2261  0.0723
16181SOL    HW149759   5.874   3.788   0.717 -0.1240 -0.1854  0.9725
16181SOL    HW249760   5.729   3.750   0.740 -0.4996  0.6310  0.0306
16182SOL     OW49761   7.372   5.518   0.828  0.0570 -0.2243  0.2151
16182SOL    HW149762   7.349   5.569   0.905 -0.9682 -1.2422  0.6093
16182SOL    HW249763   7.425   5.446   0.861 -0.2654 -0.5854 -0.0511
16183SOL     OW49764   5.886   3.798   1.553 -0.4086  0.0277  0.2908
16183SOL    HW149765   5.883   3.742   1.630  1.0567 -0.4107  0.0731
16183SOL    HW249766   5.952   3.865   1.574  0.0076 -0.0950 -0.5487
16184SOL     OW49767   6.160   5.337   0.565 -0.0942  0.0943 -0.6831
16184SOL    HW149768   6.102   5.363   0.493 -1.2324 -0.7379 -0.1154
16184SOL    HW249769   6.141   5.398   0.635 -1.1331 -0.8335 -0.1185
16185SOL     OW49770   7.339   3.596   1.220  0.8139 -0.1947 -0.6829
16185SOL    HW149771   7.290   3.517   1.200  1.0929 -0.2350 -1.2225
16185SOL    HW249772   7.272   3.664   1.230  0.6182 -0.3605 -0.8714
16186SOL     OW49773   6.602   3.710   1.276  0.5594  0.4352 -0.4925
16186SOL    HW149774   6.584   3.791   1.324  0.4731  0.5545 -0.7202
16186SOL    HW249775   6.581   3.732   1.185  0.4671  0.1344 -0.5451
16187SOL     OW49776   6.365   4.750   0.811  0.5450 -0.3649 -0.4463
16187SOL    HW149777   6.429   4.746   0.882  0.5036 -0.6785 -0.4260
16187SOL    HW249778   6.318   4.666   0.815 -0.4744  0.2153  0.1003
16188SOL     OW49779   6.148   4.877   1.383 -0.0889 -0.6529  0.4931
16188SOL    HW149780   6.198   4.851   1.305  1.2170 -1.5062  1.5769
16188SOL    HW249781   6.141   4.798   1.435 -0.0490  0.1205  1.7156
16189SOL     OW49782   7.109   3.599   0.366  0.3659  0.2233  0.1499
16189SOL    HW149783   7.180   3.661   0.349  0.3803 -0.1100 -1.1518
16189SOL    HW249784   7.153   3.516   0.380  0.2527  0.0150 -0.6676
16190SOL     OW49785   6.769   4.429   0.578  0.1245  0.3873 -0.7353
16190SOL    HW149786   6.835   4.390   0.637 -0.6103  0.4265  0.1284
16190SOL    HW249787   6.737   4.355   0.527 -0.7349 -0.0616  0.3917
16191SOL     OW49788   7.170   3.860   1.062  0.2900 -0.6267  0.4132
16191SOL    HW149789   7.239   3.915   1.024 -1.3150  0.7555 -0.6554
16191SOL    HW249790   7.137   3.912   1.136  1.3650 -1.9608  1.8919
16192SOL     OW49791   5.312   4.592   0.643 -0.4248  0.7490 -0.2246
16192SOL    HW149792   5.228   4.599   0.598 -0.7722  2.7544  0.6279
16192SOL    HW249793   5.365   4.662   0.605 -0.5954  2.2551  2.1180
16193SOL     OW49794   6.423   5.802   0.572 -0.1166  0.0390 -0.3296
16193SOL    HW149795   6.402   5.801   0.666 -0.1145  0.1712 -0.3281
16193SOL    HW249796   6.410   5.893   0.546  0.3759  0.1067 -0.3462
16194SOL     OW49797   5.675   4.347   2.041 -0.0970  0.7876  0.1209
16194SOL    HW149798   5.644   4.287   2.109  1.2535  1.2244  1.1637
16194SOL    HW249799   5.645   4.307   1.959 -0.6603 -0.4243  0.8805
16195SOL     OW49800   5.983   3.890   2.921 -0.0440 -0.0735 -0.2495
16195SOL    HW149801   6.025   3.856   3.001 -0.5485  0.4606  0.2455
16195SOL    HW249802   5.890   3.891   2.941 -0.0744  1.2336 -0.4014
16196SOL     OW49803   5.966   4.883   3.176  0.6191 -0.2607 -0.4236
16196SOL    HW149804   6.030   4.842   3.235  1.2012  2.6219  1.1297
16196SOL    HW249805   6.019   4.931   3.112  0.0029  0.3270 -0.4999
16197SOL     OW49806   6.876   5.037   2.681 -0.1130  0.1377  0.0660
16197SOL    HW149807   6.916   4.966   2.631 -0.4022 -1.0204  1.4171
16197SOL    HW249808   6.929   5.042   2.761 -1.2269  0.1672  0.8233
16198SOL     OW49809   6.436   4.413   2.318 -0.0478 -0.7282  0.4868
16198SOL    HW149810   6.521   4.370   2.326  0.4007 -0.1133 -0.7190
16198SOL    HW249811   6.443   4.489   2.376  2.0212  1.9514 -2.8882
16199SOL     OW49812   7.268   4.584   2.114 -0.0081 -0.2539  0.1573
16199SOL    HW149813   7.229   4.534   2.186 -1.8993 -1.3844 -1.4964
16199SOL    HW249814   7.199   4.645   2.087  1.3769  1.5429  0.5239
16200SOL     OW49815   6.542   4.857   3.101 -0.7032 -0.2633 -0.4521
16200SOL    HW149816   6.593   4.897   3.030  0.0065 -1.1061 -0.4268
16200SOL    HW249817   6.466   4.914   3.110  0.0147  0.7794 -0.7808
16201SOL     OW49818   6.218   4.637   3.717  0.3230 -0.5245  0.3660
16201SOL    HW149819   6.276   4.614   3.790  1.0140  0.5305  0.1707
16201SOL    HW249820   6.241   4.727   3.696  0.2836 -0.8861 -1.3114
16202SOL     OW49821   6.252   4.722   2.582  0.3127  0.1408  0.1438
16202SOL    HW149822   6.300   4.659   2.636 -0.2691 -0.5205 -0.0997
16202SOL    HW249823   6.255   4.686   2.494 -0.1689  0.3664  0.0306
16203SOL     OW49824   6.129   4.864   3.937  0.2719 -0.1922  0.8266
16203SOL    HW149825   6.056   4.915   3.900  0.5952 -0.9508 -0.9800
16203SOL    HW249826   6.175   4.830   3.860  0.0597 -3.2320  1.9119
16204SOL     OW49827   5.651   4.776   2.837 -0.1807  0.0958 -0.3000
16204SOL    HW149828   5.715   4.762   2.767 -1.1479 -1.6446 -0.8801
16204SOL    HW249829   5.664   4.702   2.897  0.0714  1.1194  0.9689
16205SOL     OW49830   6.768   5.343   3.528  0.0501 -0.3835 -0.9660
16205SOL    HW149831   6.833   5.413   3.521  0.6040 -0.8440 -0.5173
16205SOL    HW249832   6.687   5.388   3.551  0.5155  0.0707 -0.1473
16206SOL     OW49833   6.084   4.496   3.524  0.2705  0.0353 -0.7853
16206SOL    HW149834   6.152   4.477   3.460  1.4367  1.5356 -0.0455
16206SOL    HW249835   6.127   4.551   3.589 -1.3857  0.1381  0.2716
16207SOL     OW49836   7.108   4.239   2.782 -0.1751  0.2228 -0.4291
16207SOL    HW149837   7.119   4.246   2.877  0.4543 -3.0368 -0.1301
16207SOL    HW249838   7.182   4.288   2.745 -1.5666  3.3406  0.5519
16208SOL     OW49839   6.072   5.480   2.297  0.0743  0.1575 -0.1968
16208SOL    HW149840   6.040   5.542   2.362 -0.4054  0.8412 -1.0562
16208SOL    HW249841   6.106   5.535   2.227  2.1164 -0.5595  0.1809
16209SOL     OW49842   6.538   5.289   3.784 -0.1592  0.3118  0.4699
16209SOL    HW149843   6.493   5.321   3.862  0.0559  0.7011  0.4362
16209SOL    HW249844   6.603   5.357   3.764 -0.1999  0.2074 -0.0365
16210SOL     OW49845   5.951   5.131   2.041 -0.1315  0.8044  0.1846
16210SOL    HW149846   5.896   5.202   2.072  0.7227  0.5065  2.5981
16210SOL    HW249847   5.954   5.069   2.114  0.1257 -1.1582 -1.3923
16211SOL     OW49848   6.054   4.198   2.827  0.3793  0.7145 -0.0336
16211SOL    HW149849   6.121   4.194   2.895 -0.0838  0.5534  0.4196
16211SOL    HW249850   5.977   4.157   2.866 -0.0969  1.2241 -0.4170
16212SOL     OW49851   5.717   5.314   3.612  0.2684  0.2702  0.4864
16212SOL    HW149852   5.698   5.229   3.572  0.8023 -0.0077  0.8091
16212SOL    HW249853   5.651   5.323   3.681 -0.8893  0.9208 -0.6778
16213SOL     OW49854   6.467   4.960   2.383  0.3890  0.4130  0.4463
16213SOL    HW149855   6.393   4.978   2.324 -0.2013 -1.1330  0.6819
16213SOL    HW249856   6.437   4.990   2.469  0.5896  1.0632  0.2994
16214SOL     OW49857   7.417   3.545   3.157  0.2566 -0.7999  0.6880
16214SOL    HW149858   7.411   3.586   3.244  1.4725  1.6257 -0.2693
16214SOL    HW249859   7.397   3.616   3.096  1.8624 -1.8014 -1.0991
16215SOL     OW49860   5.979   4.731   2.723  0.0189 -0.2388  0.6163
16215SOL    HW149861   6.038   4.747   2.649 -4.0942  2.4792 -2.4867
16215SOL    HW249862   5.965   4.636   2.722  0.0672 -0.2885 -2.1781
16216SOL     OW49863   7.344   5.354   2.062 -0.3581 -0.0121  0.0075
16216SOL    HW149864   7.273   5.290   2.057  0.5075 -0.9604 -0.3510
16216SOL    HW249865   7.307   5.427   2.111 -1.5077 -0.5875  0.0246
16217SOL     OW49866   5.767   5.298   2.167  0.0172  0.8952  0.1390
16217SOL    HW149867   5.709   5.332   2.235 -0.2754  1.1971 -0.2506
16217SOL    HW249868   5.708   5.272   2.097  0.0159 -2.5629  1.2609
16218SOL     OW49869   6.963   4.847   2.513 -0.1646  0.2104 -0.6730
16218SOL    HW149870   6.931   4.803   2.435  1.5551  1.8265 -2.3963
16218SOL    HW249871   7.033   4.904   2.482  0.8401  0.6687  2.1186
16219SOL     OW49872   7.122   4.861   2.249 -0.4671  0.7035  0.0220
16219SOL    HW149873   7.204   4.858   2.200 -1.0298  1.5338 -1.0100
16219SOL    HW249874   7.059   4.814   2.193 -0.9775  1.1302  0.2310
16220SOL     OW49875   5.464   4.495   3.507 -0.0530  0.2305  0.1039
16220SOL    HW149876   5.394   4.429   3.511 -0.6768  0.8956  0.4307
16220SOL    HW249877   5.444   4.546   3.429  0.0004  0.4900  0.2582
16221SOL     OW49878   6.048   4.565   3.064 -0.0328 -0.1284 -0.0750
16221SOL    HW149879   5.968   4.612   3.042 -1.6275 -2.1249  1.1291
16221SOL    HW249880   6.101   4.569   2.985 -0.9066  1.9744 -0.6246
16222SOL     OW49881   6.675   5.057   3.691  1.0512  0.6282 -0.5916
16222SOL    HW149882   6.620   5.129   3.722  0.0706  0.2385 -1.3491
16222SOL    HW249883   6.633   4.979   3.728  1.0552  0.3210 -1.2252
16223SOL     OW49884   6.291   3.786   2.421 -0.1334 -0.6289  0.0370
16223SOL    HW149885   6.385   3.787   2.436  0.0652  3.2247 -0.3952
16223SOL    HW249886   6.258   3.858   2.474 -2.8438 -1.6998 -0.0318
16224SOL     OW49887   5.879   4.219   3.063 -0.0404  0.5441  0.4380
16224SOL    HW149888   5.935   4.287   3.103 -0.2852  0.3568  1.1123
16224SOL    HW249889   5.869   4.154   3.132 -0.0723 -0.0285 -0.1062
16225SOL     OW49890   6.509   4.660   2.443  0.7746  0.0131  0.6537
16225SOL    HW149891   6.496   4.755   2.443  2.1403  0.3213 -2.4223
16225SOL    HW249892   6.603   4.649   2.434  0.4733 -1.5169 -1.2494
16226SOL     OW49893   7.055   5.646   3.742  0.1637 -0.4458 -0.3086
16226SOL    HW149894   6.985   5.609   3.690 -0.4830 -1.5355  1.2512
16226SOL    HW249895   7.036   5.617   3.832  1.2486  1.2658  0.5398
16227SOL     OW49896   5.829   3.625   3.764 -0.2495 -0.4087  0.1083
16227SOL    HW149897   5.795   3.695   3.709  0.6888 -0.4630 -0.5649
16227SOL    HW249898   5.810   3.653   3.853 -0.4755  0.3822 -0.1790
16228SOL     OW49899   6.528   4.626   2.827 -0.7946  0.9171  0.4336
16228SOL    HW149900   6.587   4.589   2.894 -0.2060 -1.1449 -1.1211
16228SOL    HW249901   6.555   4.717   2.821  1.0508  0.4751  1.0628
16229SOL     OW49902   7.274   5.552   2.227  0.2362  0.3109 -0.7085
16229SOL    HW149903   7.352   5.607   2.239  1.2732 -1.4301  1.0856
16229SOL    HW249904   7.259   5.513   2.313 -1.3193 -1.1137 -1.5745
16230SOL     OW49905   6.400   4.616   2.115  0.4664 -0.1386 -0.0951
16230SOL    HW149906   6.435   4.552   2.176 -0.1473  0.2941  0.7300
16230SOL    HW249907   6.327   4.656   2.161  1.7930  2.2897  0.0688
16231SOL     OW49908   7.136   4.270   3.069  0.6293  0.2690  0.7885
16231SOL    HW149909   7.166   4.325   3.142 -0.3833 -1.3737  2.5559
16231SOL    HW249910   7.167   4.182   3.092 -1.6137 -0.6825  0.4101
16232SOL     OW49911   7.511   5.368   2.565  0.7079  0.5867 -0.4457
16232SOL    HW149912   7.601   5.398   2.575  0.4127  1.4839 -0.4203
16232SOL    HW249913   7.509   5.325   2.480  1.1727  0.4836 -0.4079
16233SOL     OW49914   6.494   4.043   3.192  0.0246  0.1428  0.0430
16233SOL    HW149915   6.526   4.092   3.116  0.9348 -2.8659 -1.6811
16233SOL    HW249916   6.567   4.047   3.255  0.1957  0.7218 -0.1794
16234SOL     OW49917   6.987   4.368   3.886 -0.3133 -0.1009 -0.5591
16234SOL    HW149918   6.970   4.429   3.814  1.0436 -0.9164 -1.6136
16234SOL    HW249919   7.077   4.339   3.872 -0.0668 -0.3886  1.4081
16235SOL     OW49920   6.293   4.899   3.694 -0.4006 -0.2187  0.9587
16235SOL    HW149921   6.377   4.890   3.738 -0.1913  0.0088  0.6069
16235SOL    HW249922   6.310   4.957   3.620 -0.9962  0.3328  1.2375
16236SOL     OW49923   6.932   3.799   3.273  0.1405 -0.2970 -0.7560
16236SOL    HW149924   6.884   3.806   3.356  0.5234 -1.2122 -0.4421
16236SOL    HW249925   6.863   3.795   3.206 -0.1685  0.4952 -0.4911
16237SOL     OW49926   6.998   4.139   2.278  0.0014  0.0950  0.3769
16237SOL    HW149927   6.950   4.203   2.331 -1.5633  0.7042 -1.6465
16237SOL    HW249928   7.089   4.152   2.302 -0.1373  3.6787 -0.4126
16238SOL     OW49929   5.933   4.461   2.734  0.3336  0.8773 -0.4569
16238SOL    HW149930   5.993   4.387   2.740  1.3932  1.5741 -1.9741
16238SOL    HW249931   5.851   4.428   2.772  1.4972 -0.2329  1.2470
16239SOL     OW49932   5.897   5.660   3.443 -0.2357 -0.1492  0.0834
16239SOL    HW149933   5.871   5.609   3.520 -2.9447 -0.2069 -0.7588
16239SOL    HW249934   5.860   5.611   3.369 -0.8949  1.7877 -0.9240
16240SOL     OW49935   6.552   3.732   2.506 -0.1623 -1.0042 -0.3109
16240SOL    HW149936   6.603   3.659   2.472  1.1416  0.3895 -1.5069
16240SOL    HW249937   6.588   3.809   2.463 -0.8600  0.4805  1.5889
16241SOL     OW49938   7.399   4.358   4.180 -0.3922  0.1404 -0.5842
16241SOL    HW149939   7.357   4.406   4.251 -0.9640  1.4696 -1.7652
16241SOL    HW249940   7.352   4.275   4.177 -1.1534  0.5431 -0.1558
16242SOL     OW49941   6.815   4.697   2.339 -1.1542 -0.3667 -0.6048
16242SOL    HW149942   6.823   4.640   2.262 -0.0265  0.4176 -1.1044
16242SOL    HW249943   6.794   4.783   2.302 -0.2507  0.0942 -0.0889
16243SOL     OW49944   6.066   3.835   3.178 -0.0480 -0.1881  0.6086
16243SOL    HW149945   6.054   3.764   3.241 -1.3646  1.0294  1.7841
16243SOL    HW249946   6.021   3.910   3.217  1.4272  1.3544 -0.5136
16244SOL     OW49947   7.053   5.652   2.093  0.8820  0.4090  0.1177
16244SOL    HW149948   7.010   5.662   2.178  0.9112 -0.6818  0.2747
16244SOL    HW249949   7.144   5.633   2.114  1.3105  1.9258 -0.2057
16245SOL     OW49950   5.530   5.305   2.364  0.9951 -0.0007 -0.2211
16245SOL    HW149951   5.481   5.368   2.415  2.2428  0.5281  0.3712
16245SOL    HW249952   5.485   5.221   2.378  1.0439  0.2143  1.3789
16246SOL     OW49953   7.137   4.627   2.509  0.0877 -0.0303  0.2529
16246SOL    HW149954   7.169   4.625   2.599  0.8763  0.8872  0.0075
16246SOL    HW249955   7.070   4.696   2.510 -0.1917 -0.3012  0.2287
16247SOL     OW49956   6.578   5.525   3.567 -0.1106  0.0763 -0.0078
16247SOL    HW149957   6.572   5.605   3.514  0.0861  0.0962 -0.0009
16247SOL    HW249958   6.488   5.491   3.569  0.0393 -0.4391 -1.1348
16248SOL     OW49959   5.868   4.673   2.419  0.1352 -0.3623  0.5086
16248SOL    HW149960   5.811   4.735   2.465  1.8378  0.9549  0.9249
16248SOL    HW249961   5.867   4.594   2.473  0.2377  0.3405  1.5484
16249SOL     OW49962   6.903   4.343   2.447  0.1665  0.3980  0.2727
16249SOL    HW149963   6.884   4.363   2.538 -0.1275 -0.3982  0.3960
16249SOL    HW249964   6.968   4.407   2.421 -2.2688  2.9389 -0.0072
16250SOL     OW49965   5.737   4.565   4.017 -0.1224 -0.0635 -0.0153
16250SOL    HW149966   5.683   4.618   4.075 -0.8152 -1.1560  0.3602
16250SOL    HW249967   5.822   4.560   4.061 -0.6121 -0.7991  0.8760
16251SOL     OW49968   7.066   5.871   1.888 -0.0721 -0.4157  0.6915
16251SOL    HW149969   7.057   5.815   1.965  0.3169 -0.7181  0.5188
16251SOL    HW249970   7.018   5.951   1.911  0.9037 -0.0782  1.6613
16252SOL     OW49971   5.501   3.559   3.582 -0.1489  0.3094  0.2433
16252SOL    HW149972   5.495   3.634   3.523 -0.5380  1.2547  1.4445
16252SOL    HW249973   5.423   3.507   3.564  0.0972  0.2036 -0.5593
16253SOL     OW49974   6.935   5.174   2.243 -0.0821 -1.0914  0.0060
16253SOL    HW149975   6.993   5.164   2.168  1.1291 -0.3113  0.8036
16253SOL    HW249976   6.849   5.189   2.205  0.3456 -1.5544 -1.2091
16254SOL     OW49977   5.571   5.559   2.098  0.4494 -0.3601 -0.3706
16254SOL    HW149978   5.512   5.484   2.092  0.3625 -0.1763 -2.9614
16254SOL    HW249979   5.513   5.635   2.093  0.6842 -0.1387  0.2181
16255SOL     OW49980   7.230   4.046   2.081 -0.0223  0.3374 -0.0936
16255SOL    HW149981   7.264   4.002   2.159  0.5286  0.9015 -0.0134
16255SOL    HW249982   7.134   4.038   2.088  0.0633 -1.2178 -0.2974
16256SOL     OW49983   5.841   5.328   2.766  0.2026 -0.4488  0.3858
16256SOL    HW149984   5.767   5.280   2.804 -1.0296  1.4434  0.5087
16256SOL    HW249985   5.844   5.298   2.675 -0.6033 -0.7135  0.4345
16257SOL     OW49986   6.778   5.190   2.484 -0.2630  0.0480 -0.1729
16257SOL    HW149987   6.812   5.126   2.422  0.6029 -0.0905  0.4192
16257SOL    HW249988   6.787   5.148   2.570  0.6378  1.0677  0.2616
16258SOL     OW49989   5.904   3.935   2.655 -0.1705 -0.3866  0.0817
16258SOL    HW149990   5.948   3.907   2.735 -1.3848  0.5342  1.1198
16258SOL    HW249991   5.877   4.025   2.672 -1.1852 -0.4431 -1.0335
16259SOL     OW49992   7.418   4.061   3.730  0.4289  0.2976 -0.1098
16259SOL    HW149993   7.331   4.036   3.763  0.5630 -0.4897 -0.3184
16259SOL    HW249994   7.479   4.023   3.793  0.6336  0.5762 -0.1385
16260SOL     OW49995   6.103   4.259   2.062 -0.2511  0.2944  0.1886
16260SOL    HW149996   6.030   4.209   2.099  0.3965  0.3450  1.6028
16260SOL    HW249997   6.073   4.284   1.975 -1.9641  0.4012  0.7730
16261SOL     OW49998   6.199   3.882   3.541 -0.2403 -0.2013  0.3122
16261SOL    HW149999   6.141   3.911   3.612  0.9687  0.6013  1.0218
16261SOL    HW250000   6.250   3.960   3.519  2.2369 -1.3793  1.3898
16262SOL     OW50001   6.344   5.390   3.344  0.3386  0.1262 -0.4890
16262SOL    HW150002   6.338   5.445   3.422 -2.7695  0.7468 -1.0439
16262SOL    HW250003   6.290   5.435   3.279  0.7543 -1.6912 -2.1665
16263SOL     OW50004   7.110   3.901   2.986 -0.3467  0.4715  0.2879
16263SOL    HW150005   7.021   3.931   2.967 -0.9379 -0.0828  2.0089
16263SOL    HW250006   7.131   3.941   3.071  1.0406  0.5885 -0.0959
16264SOL     OW50007   6.313   5.018   3.092  0.2702 -0.3032 -0.3267
16264SOL    HW150008   6.245   4.966   3.049  0.9941  1.1559 -3.5929
16264SOL    HW250009   6.268   5.065   3.162 -2.0163  0.1671 -2.0010
16265SOL     OW50010   6.179   4.035   2.546  0.1484 -0.6971 -0.0125
16265SOL    HW150011   6.214   4.111   2.500 -0.9517  0.1109  0.4262
16265SOL    HW250012   6.105   4.070   2.596 -0.5128 -2.0952  0.0311
16266SOL     OW50013   6.322   3.486   2.313  0.7079  0.0818  0.2975
16266SOL    HW150014   6.356   3.551   2.251  1.2649 -0.7207 -0.2615
16266SOL    HW250015   6.251   3.531   2.358 -0.1946  0.4816 -1.4286
16267SOL     OW50016   6.998   4.982   1.973  0.5503  0.3663  0.1425
16267SOL    HW150017   7.009   4.888   1.986  1.7314  0.5484  0.5442
16267SOL    HW250018   6.919   4.990   1.920 -0.0511 -0.8057  0.8361
16268SOL     OW50019   5.910   3.606   2.515 -0.1475  0.3109 -0.1772
16268SOL    HW150020   5.913   3.684   2.460  0.3100  0.6896  0.3697
16268SOL    HW250021   6.002   3.579   2.522 -0.2922 -0.2097 -0.2666
16269SOL     OW50022   6.092   3.722   2.261 -0.1890 -0.1384 -0.4223
16269SOL    HW150023   6.022   3.766   2.309 -0.4121 -0.2361 -0.6556
16269SOL    HW250024   6.170   3.735   2.315 -0.0542  1.3333 -0.9443
16270SOL     OW50025   6.627   4.900   3.431 -0.5061  0.0464  0.0610
16270SOL    HW150026   6.615   4.979   3.378  0.4996  1.0850  1.3214
16270SOL    HW250027   6.644   4.933   3.519 -3.2041 -1.6322  1.3313
16271SOL     OW50028   6.166   5.108   2.715 -0.6921 -0.5517 -0.2651
16271SOL    HW150029   6.165   5.063   2.799 -0.8590 -0.2707 -0.1157
16271SOL    HW250030   6.246   5.078   2.672 -0.0366  0.1389  0.4504
16272SOL     OW50031   6.002   4.964   2.543 -0.5238  0.0722 -0.4943
16272SOL    HW150032   6.030   5.042   2.593  0.9799 -0.0719 -1.0568
16272SOL    HW250033   5.985   4.898   2.610  2.9044 -0.5851 -0.0960
16273SOL     OW50034   6.842   5.447   2.420 -0.2378  0.4533 -0.3275
16273SOL    HW150035   6.830   5.353   2.431  0.7977  0.3347 -0.1127
16273SOL    HW250036   6.768   5.474   2.365 -1.7490 -0.0894  1.3231
16274SOL     OW50037   6.869   3.860   1.638  0.4327 -0.4868  0.0990
16274SOL    HW150038   6.880   3.785   1.579 -1.0505  0.7294 -1.8670
16274SOL    HW250039   6.943   3.854   1.699  1.9388 -1.9837 -1.7382
16275SOL     OW50040   5.423   4.157   3.042  0.2381  0.1045 -0.1236
16275SOL    HW150041   5.404   4.250   3.038 -0.4962 -0.0830 -2.8174
16275SOL    HW250042   5.462   4.136   2.957  0.6371 -1.9866  0.5058
16276SOL     OW50043   5.475   3.973   3.240  0.2103 -0.1783 -0.0212
16276SOL    HW150044   5.529   4.024   3.300  1.5207  0.4618 -1.6398
16276SOL    HW250045   5.437   4.038   3.181 -1.0026 -0.7883  0.0567
16277SOL     OW50046   6.225   4.261   2.425 -0.2697 -0.3004 -0.1888
16277SOL    HW150047   6.297   4.310   2.388 -1.0195  0.3351 -0.8368
16277SOL    HW250048   6.147   4.292   2.378 -0.8641 -1.5408 -0.0788
16278SOL     OW50049   6.520   3.673   2.971  0.4846 -0.7528 -0.0875
16278SOL    HW150050   6.483   3.603   2.916 -1.2417  0.7491 -0.9572
16278SOL    HW250051   6.445   3.707   3.020  1.5540 -0.4006  1.3679
16279SOL     OW50052   6.529   4.349   2.665  0.1858  0.4315  0.2898
16279SOL    HW150053   6.578   4.421   2.705  0.1619 -0.0526  1.2288
16279SOL    HW250054   6.440   4.382   2.655  0.3393  0.7740  0.0508
16280SOL     OW50055   6.863   4.315   2.706  0.2013 -0.2470 -0.1514
16280SOL    HW150056   6.809   4.277   2.774  1.9074 -0.2592  1.2734
16280SOL    HW250057   6.951   4.279   2.722  1.1198  1.5147 -0.9121
16281SOL     OW50058   7.038   4.695   2.031 -0.2465  0.2346 -0.1755
16281SOL    HW150059   7.049   4.672   1.939  0.5867 -0.9076  0.1831
16281SOL    HW250060   6.967   4.639   2.062  0.2396 -0.2161  0.1417
16282SOL     OW50061   6.102   5.435   1.834  0.0830 -0.5125  0.5803
16282SOL    HW150062   6.111   5.508   1.895  1.8342  1.1340 -1.5037
16282SOL    HW250063   6.030   5.459   1.776  1.1987 -0.0038 -0.6269
16283SOL     OW50064   7.353   4.883   2.679 -0.2926  0.0901 -0.1035
16283SOL    HW150065   7.372   4.821   2.609  0.1993 -2.4598  2.0873
16283SOL    HW250066   7.260   4.904   2.668 -0.0326  0.3883 -1.9399
16284SOL     OW50067   6.760   4.026   1.910  0.1092  0.0481  0.6963
16284SOL    HW150068   6.738   3.942   1.870  2.0898  0.6545 -1.9247
16284SOL    HW250069   6.677   4.074   1.912 -0.1542 -0.0556 -2.8124
16285SOL     OW50070   6.375   4.295   2.049 -0.7628  0.4059  0.4035
16285SOL    HW150071   6.378   4.336   2.136 -0.6896  0.3582  0.4234
16285SOL    HW250072   6.287   4.312   2.018 -0.6508  0.8056  0.3030
16286SOL     OW50073   6.907   4.574   3.704  0.5870 -0.3674  0.1226
16286SOL    HW150074   6.991   4.615   3.681  0.6841 -0.1150  0.8849
16286SOL    HW250075   6.849   4.595   3.632  0.1600  2.5186  1.2008
16287SOL     OW50076   6.771   4.701   3.184 -0.0879 -0.1787 -0.2732
16287SOL    HW150077   6.682   4.736   3.177 -0.2399 -0.3123  0.8502
16287SOL    HW250078   6.826   4.778   3.203  0.0999 -0.0436 -1.3080
16288SOL     OW50079   6.975   5.517   3.450 -0.1563  0.3095 -0.2156
16288SOL    HW150080   7.024   5.598   3.436 -0.1501  0.2437 -0.5950
16288SOL    HW250081   7.027   5.450   3.406 -0.4726  0.2043 -0.4330
16289SOL     OW50082   6.624   4.898   2.742  0.4654 -0.5969  0.5514
16289SOL    HW150083   6.687   4.932   2.678  1.1269 -2.5760  0.0765
16289SOL    HW250084   6.643   4.947   2.822  0.8580  0.6340 -0.2503
16290SOL     OW50085   6.943   4.602   2.834 -0.5434  0.2805 -0.1442
16290SOL    HW150086   6.889   4.630   2.908 -0.8552 -2.6826  0.8609
16290SOL    HW250087   6.885   4.547   2.781  1.4754 -3.5883  1.3377
16291SOL     OW50088   6.744   3.440   3.355  0.3157 -0.4355 -0.0609
16291SOL    HW150089   6.719   3.532   3.363 -2.5828 -1.1431  0.1354
16291SOL    HW250090   6.709   3.413   3.270  0.8499 -1.4292  0.0203
16292SOL     OW50091   6.872   5.197   3.999  0.1857  0.4281 -0.5671
16292SOL    HW150092   6.829   5.115   3.975  0.9212 -0.0058 -0.4317
16292SOL    HW250093   6.931   5.216   3.926 -0.0770  0.9134 -0.6603
16293SOL     OW50094   6.705   4.928   2.252  0.2287 -0.0763  0.0690
16293SOL    HW150095   6.635   4.968   2.303  0.0578 -0.4783  0.1556
16293SOL    HW250096   6.733   4.996   2.190 -2.7233 -1.0057 -2.5299
16294SOL     OW50097   6.224   4.361   2.691  0.4106  0.2548  0.0649
16294SOL    HW150098   6.170   4.300   2.742 -1.3395  0.7503 -1.0856
16294SOL    HW250099   6.193   4.349   2.601  0.2703  2.5595 -0.2377
16295SOL     OW50100   6.953   4.104   3.706 -0.4383  0.6775  0.2668
16295SOL    HW150101   7.009   4.130   3.779 -2.3603  2.2561  1.3244
16295SOL    HW250102   6.921   4.017   3.730 -0.0050  0.6184  0.6503
16296SOL     OW50103   5.707   5.518   3.282 -0.0477  0.1837 -0.2001
16296SOL    HW150104   5.722   5.487   3.192 -0.0929 -0.3828 -0.0159
16296SOL    HW250105   5.680   5.440   3.330 -1.5485  0.7693 -0.0331
16297SOL     OW50106   5.689   4.851   2.560  0.0383  0.2858 -1.0336
16297SOL    HW150107   5.607   4.833   2.516  0.2345  0.9472 -1.6870
16297SOL    HW250108   5.692   4.947   2.568  0.5397  0.2428 -0.6187
16298SOL     OW50109   6.278   3.885   2.769  0.2224 -0.1069 -0.3165
16298SOL    HW150110   6.230   3.927   2.697 -0.4511  0.0879  0.2324
16298SOL    HW250111   6.242   3.926   2.848 -0.5324 -1.7593  0.2405
16299SOL     OW50112   7.092   5.350   2.472  0.2428  0.0355 -0.1466
16299SOL    HW150113   7.084   5.302   2.554 -0.2515  0.9890  0.3751
16299SOL    HW250114   7.003   5.376   2.450  0.5235  0.8576 -0.3372
16300SOL     OW50115   6.701   5.158   3.313  0.1737 -0.8575 -0.0747
16300SOL    HW150116   6.697   5.224   3.382  0.6003 -0.5621 -0.3292
16300SOL    HW250117   6.661   5.200   3.237  1.0978 -0.6161 -0.4476
16301SOL     OW50118   7.180   4.444   2.327 -0.1373 -0.1845  0.2029
16301SOL    HW150119   7.254   4.397   2.364  1.0776  0.9288 -0.7229
16301SOL    HW250120   7.165   4.517   2.388 -0.5934 -0.5042  0.4795
16302SOL     OW50121   6.115   4.896   2.906 -0.0986 -0.1141 -0.0029
16302SOL    HW150122   6.025   4.921   2.885 -0.1577 -0.0962  0.2635
16302SOL    HW250123   6.132   4.819   2.852  0.6480  1.4189 -2.0824
16303SOL     OW50124   6.298   4.363   4.019 -0.0106  0.2919  0.1285
16303SOL    HW150125   6.378   4.399   3.982 -0.4073  0.3427 -0.7118
16303SOL    HW250126   6.231   4.428   3.999 -0.3437  0.0608  0.4614
16304SOL     OW50127   7.199   5.166   3.978 -0.2108 -0.5050  0.1877
16304SOL    HW150128   7.160   5.218   3.907 -0.0536 -0.4906  0.1114
16304SOL    HW250129   7.148   5.190   4.055 -0.2962 -0.4183  0.1058
16305SOL     OW50130   7.171   3.706   3.479  0.0784  0.5975  0.2227
16305SOL    HW150131   7.116   3.767   3.430 -0.3282 -0.7531 -1.0605
16305SOL    HW250132   7.126   3.622   3.474  0.5938  0.1642  2.0119
16306SOL     OW50133   5.769   3.886   3.627  0.2601 -0.0108 -0.7004
16306SOL    HW150134   5.674   3.882   3.617  0.1273 -1.5979  0.8184
16306SOL    HW250135   5.784   3.963   3.682 -0.2250 -0.2358 -0.2449
16307SOL     OW50136   6.262   4.584   2.858 -0.4213  0.0220  0.4382
16307SOL    HW150137   6.357   4.601   2.854 -0.7047  1.5820 -1.6844
16307SOL    HW250138   6.249   4.508   2.802 -0.5285  0.5168 -0.2215
16308SOL     OW50139   6.851   4.291   3.029  0.9481 -0.2294  0.7035
16308SOL    HW150140   6.863   4.203   2.995 -1.7795 -0.0249 -1.0510
16308SOL    HW250141   6.940   4.320   3.052  1.9786 -3.1553  0.8112
16309SOL     OW50142   6.441   4.068   2.197  0.0263  0.0381  0.7725
16309SOL    HW150143   6.370   4.102   2.252 -0.3875 -0.2334  0.4067
16309SOL    HW250144   6.431   4.115   2.114  1.2914  1.2343  1.2599
16310SOL     OW50145   5.761   3.799   3.279 -0.5790  0.1000  0.9036
16310SOL    HW150146   5.690   3.767   3.335 -1.0768  0.6808  0.6169
16310SOL    HW250147   5.841   3.778   3.327 -0.9912  0.3376  1.7102
16311SOL     OW50148   5.752   4.825   3.338 -0.2073  0.0889  0.2422
16311SOL    HW150149   5.833   4.861   3.302 -1.7670  2.2996 -1.4146
16311SOL    HW250150   5.690   4.830   3.265 -1.8112 -1.6942  1.3972
16312SOL     OW50151   6.227   4.155   3.030  0.2337 -0.2824 -0.4146
16312SOL    HW150152   6.321   4.161   3.042  0.1596 -0.2538  0.2128
16312SOL    HW250153   6.191   4.223   3.087 -0.2770 -1.9200  1.3528
16313SOL     OW50154   7.193   4.603   4.022  0.7575 -0.4027 -0.0016
16313SOL    HW150155   7.137   4.531   3.996 -0.6587  0.2172  1.2150
16313SOL    HW250156   7.264   4.562   4.072  1.6682 -1.2279 -1.8701
16314SOL     OW50157   5.683   3.867   2.976 -0.7378  0.5268  0.1361
16314SOL    HW150158   5.679   3.843   3.069  0.3678  1.0346  0.3360
16314SOL    HW250159   5.592   3.883   2.951 -1.3059 -1.7699  0.5296
16315SOL     OW50160   7.338   4.219   2.441  0.0093 -0.3404  0.2198
16315SOL    HW150161   7.281   4.145   2.462 -1.1448  0.4477 -0.0073
16315SOL    HW250162   7.376   4.244   2.525 -0.2062 -0.7035  0.4282
16316SOL     OW50163   6.849   3.973   2.963  0.3459  0.1562 -0.0045
16316SOL    HW150164   6.808   3.892   2.995  0.8459 -0.2641 -0.4064
16316SOL    HW250165   6.794   4.000   2.889  0.0725  0.2822  0.2462
16317SOL     OW50166   6.261   5.322   3.789 -0.3135  0.5282 -0.8431
16317SOL    HW150167   6.205   5.260   3.744  1.3178  0.0768 -2.3620
16317SOL    HW250168   6.350   5.294   3.768  0.4871  2.0450  0.2995
16318SOL     OW50169   7.556   5.096   3.385  0.1877  0.3805  0.1477
16318SOL    HW150170   7.623   5.028   3.388  0.1125  0.3080  0.1901
16318SOL    HW250171   7.518   5.088   3.297 -0.2010 -0.0001  0.3493
16319SOL     OW50172   5.787   4.739   3.806 -0.1187 -0.5343  0.0759
16319SOL    HW150173   5.701   4.732   3.765  0.4577 -1.5598 -1.0111
16319SOL    HW250174   5.788   4.669   3.871 -0.0341 -0.6664 -0.0659
16320SOL     OW50175   6.881   3.951   2.152 -0.3143  0.0583 -0.2821
16320SOL    HW150176   6.868   4.009   2.077  1.4064  0.9352  0.0348
16320SOL    HW250177   6.912   4.008   2.222  0.1627 -1.0554  0.4545
16321SOL     OW50178   6.973   4.139   1.742  0.0194  0.1273  0.6397
16321SOL    HW150179   7.031   4.071   1.709 -1.1026 -0.3540 -0.4127
16321SOL    HW250180   6.906   4.092   1.792  0.5408  0.6785  1.8971
16322SOL     OW50181   6.077   4.764   3.401 -0.2963 -0.6389 -0.2746
16322SOL    HW150182   6.172   4.770   3.404 -0.2064 -1.4198 -1.1766
16322SOL    HW250183   6.058   4.675   3.430 -0.7660 -0.4352  0.0514
16323SOL     OW50184   6.003   4.426   2.275  0.1768 -0.7532  0.6299
16323SOL    HW150185   6.015   4.370   2.198  0.6207 -1.1851  1.0042
16323SOL    HW250186   5.918   4.401   2.310 -0.8415  0.6519 -0.6826
16324SOL     OW50187   5.720   4.344   2.893  0.2727 -0.1846  0.6587
16324SOL    HW150188   5.794   4.304   2.939  0.9457 -0.0732 -0.3093
16324SOL    HW250189   5.661   4.270   2.873  0.1905 -0.2947  1.2836
16325SOL     OW50190   6.536   4.410   3.451  0.0359  0.4495 -0.3112
16325SOL    HW150191   6.548   4.316   3.458 -0.5740  0.4781  1.5860
16325SOL    HW250192   6.622   4.448   3.469 -0.1397  0.2994  0.8885
16326SOL     OW50193   7.029   3.626   3.105  0.1294  0.2591  0.2757
16326SOL    HW150194   6.992   3.637   3.193 -1.8194 -1.0267 -0.3250
16326SOL    HW250195   7.045   3.715   3.074 -1.8083  0.8664  0.8776
16327SOL     OW50196   5.570   4.607   2.284 -0.1570 -0.0674  0.2767
16327SOL    HW150197   5.531   4.675   2.339 -0.8427 -0.0091 -0.2615
16327SOL    HW250198   5.498   4.547   2.266  0.2730 -0.5524  0.1612
16328SOL     OW50199   5.698   5.053   2.852  0.3807  0.0519  0.3376
16328SOL    HW150200   5.646   5.080   2.777  0.2419  0.2968  0.5172
16328SOL    HW250201   5.701   4.958   2.848  0.3702  0.0657  0.0264
16329SOL     OW50202   6.197   5.607   2.095 -0.1061 -0.4482 -0.2407
16329SOL    HW150203   6.169   5.666   2.025  0.8794  1.1028  0.5976
16329SOL    HW250204   6.259   5.659   2.147  1.4481 -2.4746  0.1053
16330SOL     OW50205   6.664   4.044   3.404  0.2828  0.3472  0.2759
16330SOL    HW150206   6.707   4.126   3.427  0.8663 -0.0695  0.7024
16330SOL    HW250207   6.715   3.977   3.449  0.5551 -0.3604 -1.0500
16331SOL     OW50208   5.358   4.437   3.049 -0.2622  0.1517 -0.1635
16331SOL    HW150209   5.408   4.475   2.977 -1.0300 -0.4919 -1.0555
16331SOL    HW250210   5.266   4.457   3.028 -0.5093 -0.2395  0.5090
16332SOL     OW50211   6.310   4.126   3.381 -0.4431  0.0959 -0.3754
16332SOL    HW150212   6.374   4.105   3.314 -0.1360  0.4498 -0.1930
16332SOL    HW250213   6.236   4.163   3.333 -0.2932  0.1878 -0.5354
16333SOL     OW50214   6.733   4.634   3.897 -0.0496  0.3692 -0.8880
16333SOL    HW150215   6.803   4.601   3.841 -0.5323  0.3973 -1.5204
16333SOL    HW250216   6.771   4.710   3.941  1.4125 -1.5566  1.3775
16334SOL     OW50217   6.474   4.115   1.877  0.2902  0.6973 -0.3399
16334SOL    HW150218   6.530   4.147   1.807 -0.5206  0.0564 -1.3191
16334SOL    HW250219   6.439   4.194   1.918 -1.8356  1.1870 -2.8309
16335SOL     OW50220   7.398   4.298   3.247 -0.5339 -0.1372 -0.3046
16335SOL    HW150221   7.314   4.287   3.291  0.1005 -1.7546  0.5953
16335SOL    HW250222   7.463   4.276   3.314  0.5699  0.2513 -1.2237
16336SOL     OW50223   5.858   5.124   3.358 -0.1257 -0.0099  0.3772
16336SOL    HW150224   5.771   5.086   3.349  0.5194 -1.5499  0.3375
16336SOL    HW250225   5.902   5.069   3.423  0.6234  1.1084  0.8416
16337SOL     OW50226   6.337   3.815   3.108  0.0154 -0.2986 -0.5234
16337SOL    HW150227   6.251   3.834   3.146  0.1939 -0.2081 -0.1541
16337SOL    HW250228   6.393   3.887   3.139  0.2355 -0.3818 -0.7224
16338SOL     OW50229   6.579   5.515   3.246  0.4968 -0.3950 -0.1619
16338SOL    HW150230   6.522   5.444   3.274  0.4543 -0.0141  0.7704
16338SOL    HW250231   6.530   5.595   3.266  1.1165 -0.0788  0.1400
16339SOL     OW50232   6.483   4.509   1.868  1.1185  0.4542 -0.1613
16339SOL    HW150233   6.412   4.555   1.824  2.5389  3.0280  0.0570
16339SOL    HW250234   6.486   4.548   1.955  3.2547  0.9281 -0.4074
16340SOL     OW50235   5.713   4.356   3.423  0.4266 -0.4544 -0.1230
16340SOL    HW150236   5.733   4.420   3.354  0.5610  0.1057  0.4265
16340SOL    HW250237   5.645   4.399   3.476  2.1100  0.2304  1.6043
16341SOL     OW50238   6.703   4.514   2.998 -0.2349 -0.0194  0.1560
16341SOL    HW150239   6.755   4.434   3.009 -0.1475  0.1684  1.3109
16341SOL    HW250240   6.730   4.569   3.072 -0.4213  1.0049 -0.5297
16342SOL     OW50241   6.865   4.510   2.152  0.2285  0.2275  0.1522
16342SOL    HW150242   6.930   4.451   2.190  1.5059  0.6506 -1.2955
16342SOL    HW250243   6.793   4.453   2.125  0.0936 -0.2764  1.5075
16343SOL     OW50244   6.935   5.057   2.995  0.1025 -0.2837  0.1080
16343SOL    HW150245   6.990   4.987   2.962  2.1376  0.3718  1.8746
16343SOL    HW250246   6.978   5.137   2.966 -0.9985  0.2457 -0.1002
16344SOL     OW50247   7.237   5.274   3.129  0.2230  0.1205 -0.0222
16344SOL    HW150248   7.152   5.300   3.166  0.1370 -1.7648  1.2687
16344SOL    HW250249   7.269   5.352   3.084 -1.9572  1.0329 -0.1005
16345SOL     OW50250   5.696   4.594   3.023  0.1058  0.2725 -0.2128
16345SOL    HW150251   5.721   4.586   3.116  0.4574  1.6570 -0.1719
16345SOL    HW250252   5.715   4.507   2.987  1.4400  0.1512  0.6743
16346SOL     OW50253   6.029   5.196   3.619 -0.4954 -0.1483  0.0639
16346SOL    HW150254   6.031   5.101   3.635  0.0213 -0.0377  0.6926
16346SOL    HW250255   5.936   5.216   3.609 -0.8432 -0.3679  2.2883
16347SOL     OW50256   7.701   4.305   2.616  0.2326 -0.0133 -0.0435
16347SOL    HW150257   7.642   4.358   2.668  0.1725 -1.3201  1.2873
16347SOL    HW250258   7.667   4.216   2.623  1.1782 -0.4795 -0.9632
16348SOL     OW50259   7.133   5.061   2.429  0.0014  0.8201  0.2952
16348SOL    HW150260   7.133   4.994   2.361 -4.6872 -0.6118  1.3430
16348SOL    HW250261   7.084   5.134   2.391  0.3813  1.4500  0.9826
16349SOL     OW50262   5.371   5.379   3.490 -0.1702 -0.2903  0.1068
16349SOL    HW150263   5.384   5.473   3.504 -0.8755 -0.1569 -0.0890
16349SOL    HW250264   5.285   5.360   3.528 -1.4101 -0.2282 -2.4065
16350SOL     OW50265   6.643   4.258   2.428  0.8100  0.5152 -0.3240
16350SOL    HW150266   6.738   4.266   2.428  0.9376 -0.6302  0.9322
16350SOL    HW250267   6.617   4.275   2.519 -0.0138 -0.7188 -0.3079
16351SOL     OW50268   6.361   5.098   3.519  0.4831  0.4012 -0.0137
16351SOL    HW150269   6.298   5.142   3.461 -0.1029 -0.9110 -0.4003
16351SOL    HW250270   6.441   5.151   3.511 -0.2637  1.5271 -0.2701
16352SOL     OW50271   6.672   5.055   1.878 -0.1473  0.0562  0.0998
16352SOL    HW150272   6.585   5.017   1.893 -0.5761  0.7474 -0.5713
16352SOL    HW250273   6.658   5.124   1.813  0.5399  1.6295  1.5295
16353SOL     OW50274   7.058   5.808   3.344 -0.0888  0.2874  0.2298
16353SOL    HW150275   7.019   5.831   3.260  0.3154  2.0980  0.4941
16353SOL    HW250276   7.150   5.789   3.323 -1.0653 -4.8966 -0.5415
16354SOL     OW50277   7.311   3.882   2.287 -0.1497 -0.4611 -0.1284
16354SOL    HW150278   7.376   3.812   2.276  0.2359  0.0103 -0.9724
16354SOL    HW250279   7.303   3.892   2.382  0.1492 -1.3135  0.0021
16355SOL     OW50280   5.774   4.175   2.566 -0.6198 -0.0096 -0.1090
16355SOL    HW150281   5.777   4.117   2.491 -0.9015  0.5023 -0.5266
16355SOL    HW250282   5.753   4.261   2.529 -3.1130 -0.1534  0.7548
16356SOL     OW50283   6.663   5.361   1.856  0.5195  0.9659  0.0436
16356SOL    HW150284   6.573   5.395   1.864  0.9720  2.3564 -0.5417
16356SOL    HW250285   6.673   5.343   1.762  0.0918 -1.4877  0.3895
16357SOL     OW50286   6.386   4.752   3.391  0.1381 -0.1837  0.8072
16357SOL    HW150287   6.455   4.768   3.326 -0.5085  1.1330  0.4010
16357SOL    HW250288   6.428   4.770   3.475  0.6088 -0.5553  0.6581
16358SOL     OW50289   6.591   4.780   2.011  0.0581 -0.1065  0.1864
16358SOL    HW150290   6.532   4.719   2.055 -0.1494  0.0220  0.0906
16358SOL    HW250291   6.611   4.846   2.077 -1.3226  0.8245 -0.2932
16359SOL     OW50292   6.943   5.395   1.929  0.0875  0.4117  0.0187
16359SOL    HW150293   6.940   5.478   1.977  1.8742  0.3001  0.4259
16359SOL    HW250294   6.852   5.376   1.908 -0.6109  1.3281  1.9062
16360SOL     OW50295   5.898   4.937   3.581 -0.4248 -0.1927  0.8957
16360SOL    HW150296   5.828   4.904   3.637  0.0155  1.1539  2.3138
16360SOL    HW250297   5.934   4.859   3.540 -1.3778 -1.1349  1.7649
16361SOL     OW50298   6.890   4.918   3.240  0.0048 -0.6263 -0.0040
16361SOL    HW150299   6.890   4.954   3.151 -0.1398  1.1419  0.6727
16361SOL    HW250300   6.848   4.985   3.293  2.2114 -0.5468  1.8152
16362SOL     OW50301   6.374   4.966   2.627 -0.0243 -0.1302  0.2553
16362SOL    HW150302   6.446   4.944   2.686  1.2995 -0.4040 -1.3575
16362SOL    HW250303   6.321   4.886   2.623  0.2634 -0.3370  0.5502
16363SOL     OW50304   6.775   3.720   3.065  0.3673 -0.3916 -0.5534
16363SOL    HW150305   6.684   3.699   3.045  0.9846 -1.6932 -2.2100
16363SOL    HW250306   6.824   3.639   3.047  1.7601 -0.0035  1.1634
16364SOL     OW50307   6.018   5.205   2.364 -0.2970 -0.4842 -0.3713
16364SOL    HW150308   6.097   5.173   2.322 -0.2903 -0.4450 -0.3889
16364SOL    HW250309   6.003   5.292   2.325 -0.0486 -0.2647  0.0185
16365SOL     OW50310   7.369   3.779   2.986 -0.2424 -0.0794 -0.1954
16365SOL    HW150311   7.444   3.781   2.926 -0.5905 -0.3698 -0.6493
16365SOL    HW250312   7.293   3.772   2.928 -0.6921  1.1149  0.2163
16366SOL     OW50313   6.079   4.765   1.983  1.0046 -0.0773  0.0275
16366SOL    HW150314   5.996   4.722   2.003 -0.3730  2.2827 -0.1407
16366SOL    HW250315   6.080   4.841   2.042  2.5977  0.4583 -0.6462
16367SOL     OW50316   5.876   4.360   3.653  0.2581 -0.0684  0.3275
16367SOL    HW150317   5.951   4.409   3.618  0.3269  0.1262  0.7495
16367SOL    HW250318   5.813   4.360   3.580 -0.0466  1.2957  0.5543
16368SOL     OW50319   5.974   3.755   3.439  0.2921 -0.8443 -0.5097
16368SOL    HW150320   5.921   3.756   3.518 -0.0031  1.7355 -0.6546
16368SOL    HW250321   6.049   3.811   3.459  1.0026 -1.3529 -1.5900
16369SOL     OW50322   5.683   3.997   2.279  0.2097  0.5623  0.0516
16369SOL    HW150323   5.656   3.925   2.221  1.7909  0.7840 -1.0113
16369SOL    HW250324   5.614   4.063   2.268  0.2483  0.4193 -1.2892
16370SOL     OW50325   6.765   4.640   3.460  0.4413  0.1728 -0.3178
16370SOL    HW150326   6.723   4.726   3.456  3.1792  1.8978  2.8665
16370SOL    HW250327   6.811   4.632   3.377  0.2047  1.8207 -0.6401
16371SOL     OW50328   5.589   4.136   2.785  0.1332  0.5318 -0.0300
16371SOL    HW150329   5.654   4.123   2.717  0.0638  3.2681 -0.7344
16371SOL    HW250330   5.505   4.118   2.743  0.0440  2.7085 -0.9514
16372SOL     OW50331   6.677   5.187   2.127 -0.3360 -0.3976  0.3199
16372SOL    HW150332   6.584   5.209   2.127  0.0528  1.4143  0.6039
16372SOL    HW250333   6.704   5.196   2.036  0.3163  2.8447  0.7344
16373SOL     OW50334   6.300   4.485   3.339  0.6442 -0.5300 -0.2643
16373SOL    HW150335   6.320   4.579   3.340 -1.0269 -0.1485  0.0379
16373SOL    HW250336   6.368   4.447   3.395  0.2953  0.7578  1.1287
16374SOL     OW50337   6.648   5.069   2.957  0.2178 -0.5687 -0.5302
16374SOL    HW150338   6.591   5.121   3.014  1.1104 -4.1280  4.2693
16374SOL    HW250339   6.737   5.085   2.991  1.0576 -1.6958 -2.0689
16375SOL     OW50340   6.125   4.349   3.189  0.0770  0.4055 -0.1302
16375SOL    HW150341   6.097   4.423   3.135  1.0697 -0.3691 -1.8040
16375SOL    HW250342   6.193   4.385   3.246 -0.6267  1.1338  0.2632
16376SOL     OW50343   7.103   4.752   3.606  0.3645 -0.3193 -0.2635
16376SOL    HW150344   7.091   4.747   3.512 -0.7374  1.3460 -0.2626
16376SOL    HW250345   7.041   4.819   3.635  0.4029 -1.0493  1.7030
16377SOL     OW50346   6.013   5.422   3.943 -0.7633  0.3600  0.6102
16377SOL    HW150347   6.028   5.338   3.987 -1.0965 -0.8247 -1.3618
16377SOL    HW250348   6.087   5.431   3.883 -0.7274  1.5070  0.8003
16378SOL     OW50349   7.111   4.408   3.300  1.0066 -0.0778  0.2403
16378SOL    HW150350   7.108   4.362   3.384  0.8793  0.3222  0.4602
16378SOL    HW250351   7.092   4.499   3.323  1.7025  0.1645 -0.1297
16379SOL     OW50352   6.721   3.981   2.423 -0.0041 -0.3175  0.3478
16379SOL    HW150353   6.706   4.075   2.427 -0.4501 -0.3808  0.2363
16379SOL    HW250354   6.721   3.961   2.329  1.7167 -0.1783  0.2933
16380SOL     OW50355   6.183   4.660   2.334 -0.6215  0.3560 -0.5021
16380SOL    HW150356   6.135   4.740   2.313 -1.0601 -0.1914 -1.6536
16380SOL    HW250357   6.124   4.589   2.308 -0.2969 -0.3560  0.6275
16381SOL     OW50358   7.251   4.322   3.861 -0.1151 -0.0003 -0.6173
16381SOL    HW150359   7.274   4.258   3.928 -0.6348 -0.5864 -0.9911
16381SOL    HW250360   7.320   4.313   3.795 -0.5402 -0.6528 -0.9858
16382SOL     OW50361   7.410   4.768   3.642  0.3732 -0.6888 -0.3643
16382SOL    HW150362   7.389   4.805   3.728  2.7726 -1.6050  0.7060
16382SOL    HW250363   7.325   4.752   3.601 -0.8216  0.2589  1.6183
16383SOL     OW50364   6.291   5.101   2.204 -0.3539  0.0050  0.0711
16383SOL    HW150365   6.273   5.092   2.110 -1.9416  1.4131  0.1920
16383SOL    HW250366   6.324   5.190   2.214 -1.0147  0.1605  0.9557
16384SOL     OW50367   6.327   5.379   2.212  0.4579 -0.1307  0.1868
16384SOL    HW150368   6.324   5.432   2.132  3.5090  0.3789  0.3135
16384SOL    HW250369   6.249   5.407   2.261 -0.0842  1.4387 -1.4362
16385SOL     OW50370   6.530   4.236   3.022  0.0543 -0.2165  0.7169
16385SOL    HW150371   6.513   4.213   2.931 -0.9389  2.2018  0.1916
16385SOL    HW250372   6.585   4.314   3.016 -0.5818  0.3697  2.1576
16386SOL     OW50373   6.685   4.348   2.024  0.3961 -0.0878  0.1685
16386SOL    HW150374   6.597   4.383   2.013  2.0190  3.6696 -3.3971
16386SOL    HW250375   6.702   4.301   1.942  1.5767 -1.2444  1.0415
16387SOL     OW50376   7.055   4.853   2.841 -0.2924  0.5027  0.0828
16387SOL    HW150377   7.141   4.832   2.877 -0.3256 -0.7047 -0.4985
16387SOL    HW250378   7.018   4.769   2.815 -1.3897  1.0693 -0.2692
16388SOL     OW50379   5.829   4.320   3.929 -0.6560  0.2457 -0.1883
16388SOL    HW150380   5.850   4.347   3.839 -0.4663  1.6137  0.2356
16388SOL    HW250381   5.767   4.387   3.960  0.1006  0.4144  1.0391
16389SOL     OW50382   6.002   4.857   2.260  0.0206 -0.0708  0.1984
16389SOL    HW150383   5.948   4.791   2.303 -0.1004  0.0102  0.1717
16389SOL    HW250384   6.015   4.925   2.326 -0.0407 -0.0174  0.1564
16390SOL     OW50385   5.891   4.986   3.876 -0.0430 -0.3462  0.1380
16390SOL    HW150386   5.802   5.021   3.865  1.0598  2.4440 -0.9406
16390SOL    HW250387   5.880   4.891   3.870 -2.8744 -0.0824 -0.5536
16391SOL     OW50388   7.294   4.010   3.158  0.2396 -0.0800  0.1991
16391SOL    HW150389   7.335   4.028   3.243  0.6137  1.1548 -0.2112
16391SOL    HW250390   7.336   3.930   3.128  0.6307 -0.1329  0.8528
16392SOL     OW50391   5.642   3.754   2.682 -0.0218 -0.4055  0.2669
16392SOL    HW150392   5.730   3.793   2.685 -0.0061 -0.3978 -0.1685
16392SOL    HW250393   5.593   3.800   2.750  0.7246 -1.4362  1.5487
16393SOL     OW50394   7.095   4.734   3.333  0.2647  0.2548 -0.0660
16393SOL    HW150395   7.166   4.762   3.276  0.6360 -0.5916 -0.0284
16393SOL    HW250396   7.019   4.783   3.302  1.0011  1.6959  0.3477
16394SOL     OW50397   5.895   4.031   3.253 -0.2110 -0.2384  1.1028
16394SOL    HW150398   5.838   3.955   3.242  0.4091 -0.7022  0.9945
16394SOL    HW250399   5.867   4.071   3.335 -0.1419 -0.9531  1.4918
16395SOL     OW50400   6.534   5.381   2.390  0.4251 -0.0922  0.3710
16395SOL    HW150401   6.449   5.366   2.350  0.3346  1.0976  0.0929
16395SOL    HW250402   6.569   5.293   2.405 -0.1258 -0.5764 -1.0527
16396SOL     OW50403   7.025   3.712   2.791  0.2851  0.3963  0.4793
16396SOL    HW150404   7.056   3.787   2.842 -0.3961 -0.8327  2.7992
16396SOL    HW250405   6.999   3.750   2.707  0.0520  2.7413  1.5407
16397SOL     OW50406   6.582   3.686   3.314  0.1866  0.3379  0.1521
16397SOL    HW150407   6.528   3.661   3.240  1.0357 -0.7362 -0.1366
16397SOL    HW250408   6.590   3.781   3.307 -0.6143  0.3637 -0.5142
16398SOL     OW50409   6.278   5.255   2.480  0.3610 -0.1729  0.0981
16398SOL    HW150410   6.197   5.301   2.460 -0.1696 -0.5143  1.3387
16398SOL    HW250411   6.253   5.162   2.484  1.2185 -0.4986 -1.4255
16399SOL     OW50412   6.147   5.159   3.287  0.4246 -0.2620 -0.3017
16399SOL    HW150413   6.165   5.251   3.266 -1.8389 -0.0326 -1.5363
16399SOL    HW250414   6.055   5.158   3.312 -0.4524 -2.5756 -3.1065
16400SOL     OW50415   7.031   3.716   2.151  0.5662 -0.0536 -0.5267
16400SOL    HW150416   7.065   3.695   2.238 -0.1353 -0.8632 -0.4467
16400SOL    HW250417   6.992   3.803   2.162 -0.3823 -0.5612  0.2086
16401SOL     OW50418   6.677   4.132   2.771 -0.5522 -0.1059 -0.0271
16401SOL    HW150419   6.648   4.049   2.734  0.2047 -0.6208  0.4894
16401SOL    HW250420   6.635   4.199   2.717 -0.6423 -0.8231 -0.8696
16402SOL     OW50421   6.911   3.842   2.558  0.3792 -0.0882  0.4159
16402SOL    HW150422   6.833   3.861   2.505 -0.3361 -1.2866  0.9919
16402SOL    HW250423   6.962   3.923   2.555 -1.9388  1.5656  1.8114
16403SOL     OW50424   5.485   4.951   2.111  0.3813  0.1005 -0.3130
16403SOL    HW150425   5.564   4.897   2.111  2.4651  2.9370  0.3831
16403SOL    HW250426   5.478   4.984   2.200 -1.2459  0.4244 -0.5305
16404SOL     OW50427   6.626   5.491   2.629 -0.0178  0.0653 -0.0678
16404SOL    HW150428   6.705   5.456   2.670 -1.3277 -3.4714 -0.2308
16404SOL    HW250429   6.631   5.463   2.538 -1.0241  0.6166 -0.3111
16405SOL     OW50430   5.456   4.349   4.254 -0.7834 -0.0700  0.8124
16405SOL    HW150431   5.463   4.300   4.172 -0.3886  1.6251 -0.2102
16405SOL    HW250432   5.362   4.362   4.265 -0.7760  1.5684 -0.5898
16406SOL     OW50433   5.567   4.431   4.710 -0.0410  0.2923 -0.4322
16406SOL    HW150434   5.486   4.451   4.757 -0.7048 -3.5790  0.3938
16406SOL    HW250435   5.538   4.415   4.620 -0.2862 -1.2312 -0.1070
16407SOL     OW50436   5.447   3.978   4.297 -0.5180  0.1983  0.2936
16407SOL    HW150437   5.357   3.999   4.321  0.0230  0.8809  1.8216
16407SOL    HW250438   5.460   4.024   4.214 -1.0737  1.4791  0.8830
16408SOL     OW50439   6.026   4.956   4.969 -0.7829  0.2744 -0.2349
16408SOL    HW150440   5.961   4.935   4.902  0.0797 -3.9357 -0.0523
16408SOL    HW250441   5.996   4.909   5.047  1.0791  0.5034  0.6731
16409SOL     OW50442   7.303   5.285   4.845 -0.2589 -0.0205 -0.1068
16409SOL    HW150443   7.225   5.337   4.862  0.6731  1.3947 -0.0315
16409SOL    HW250444   7.375   5.337   4.880  0.6273 -1.8679  0.9938
16410SOL     OW50445   6.743   4.088   4.399  0.3403 -0.0612 -0.4145
16410SOL    HW150446   6.674   4.115   4.337 -1.2330 -1.7362  0.5059
16410SOL    HW250447   6.714   4.124   4.483  1.0446 -0.0790 -0.1652
16411SOL     OW50448   7.423   4.093   4.502  0.5097  0.5106 -0.0585
16411SOL    HW150449   7.509   4.135   4.503  0.2367  1.1016  1.2187
16411SOL    HW250450   7.372   4.144   4.566 -1.1737  0.9852 -1.7027
16412SOL     OW50451   6.236   4.837   4.641 -0.3471 -0.1092  0.2570
16412SOL    HW150452   6.293   4.814   4.715 -1.1809  0.6823  1.1657
16412SOL    HW250453   6.181   4.761   4.628  1.4965 -1.2882 -1.2646
16413SOL     OW50454   6.522   4.345   5.876  0.5909 -0.1545 -0.0392
16413SOL    HW150455   6.604   4.395   5.873 -0.0270  0.8779 -0.2036
16413SOL    HW250456   6.476   4.382   5.951 -0.8813  1.1613 -1.5208
16414SOL     OW50457   5.654   4.829   4.120 -0.1743  0.1044  0.1283
16414SOL    HW150458   5.718   4.848   4.189 -0.5245 -0.2044  0.5441
16414SOL    HW250459   5.574   4.807   4.168 -0.3600 -0.3265 -0.3761
16415SOL     OW50460   6.311   4.922   4.945 -0.4076 -0.1119  0.1740
16415SOL    HW150461   6.291   5.010   4.912 -0.6526 -0.5886 -0.9844
16415SOL    HW250462   6.230   4.893   4.987  0.5946  1.4586  3.5583
16416SOL     OW50463   6.097   5.651   4.126 -0.4719 -0.2444 -0.0071
16416SOL    HW150464   6.046   5.570   4.117 -0.2821 -0.5795  1.6971
16416SOL    HW250465   6.159   5.632   4.196  0.4932  0.9355 -0.5132
16417SOL     OW50466   6.810   4.989   4.894  0.0076 -0.2359  0.0066
16417SOL    HW150467   6.861   4.914   4.865  1.1208  0.5843 -0.2304
16417SOL    HW250468   6.823   4.991   4.989  0.7531  0.1772 -0.0907
16418SOL     OW50469   5.745   3.599   4.927  1.2840 -0.8823  1.0449
16418SOL    HW150470   5.676   3.570   4.867  1.4207  0.1486  0.3661
16418SOL    HW250471   5.798   3.659   4.875  2.1693 -0.9726  1.8265
16419SOL     OW50472   7.004   3.748   4.423 -0.3286 -0.1543 -0.1551
16419SOL    HW150473   7.068   3.688   4.462  0.1612 -0.7410 -1.7689
16419SOL    HW250474   7.047   3.833   4.423 -0.1989 -0.2169  0.2305
16420SOL     OW50475   6.059   6.066   4.273  0.2107 -0.0532 -0.4327
16420SOL    HW150476   5.995   5.995   4.287 -0.4246  0.8309  1.5678
16420SOL    HW250477   6.143   6.026   4.295 -0.1593 -0.2019  0.8221
16421SOL     OW50478   7.042   5.400   5.494  0.0326  0.1003  0.1735
16421SOL    HW150479   6.974   5.381   5.429  1.0799 -2.2971 -0.3537
16421SOL    HW250480   7.067   5.314   5.527  2.7661  0.8859  0.3897
16422SOL     OW50481   5.698   5.440   3.969 -0.3342  0.2323  0.1851
16422SOL    HW150482   5.695   5.536   3.970 -0.9845  0.2499  2.0938
16422SOL    HW250483   5.791   5.419   3.981 -0.3296  0.6773  1.0827
16423SOL     OW50484   5.530   4.779   4.515  0.2350 -0.1512 -0.1619
16423SOL    HW150485   5.494   4.785   4.426 -0.9054 -2.1587  0.1042
16423SOL    HW250486   5.472   4.717   4.559  0.7532  0.8490  2.0167
16424SOL     OW50487   6.010   5.569   5.113  0.1652  0.1373 -0.0985
16424SOL    HW150488   5.962   5.490   5.085  0.7243  0.2018 -1.2915
16424SOL    HW250489   6.097   5.537   5.135 -0.0873  0.1865  1.0384
16425SOL     OW50490   6.415   4.658   4.262 -0.4311  0.3824  0.3897
16425SOL    HW150491   6.327   4.688   4.285 -0.1582 -0.3730  2.7171
16425SOL    HW250492   6.406   4.562   4.254 -0.1379  0.4563 -1.1572
16426SOL     OW50493   6.990   4.083   5.130 -0.5596  0.0516  0.3817
16426SOL    HW150494   7.010   3.998   5.170 -1.8874 -0.4630  0.0348
16426SOL    HW250495   6.978   4.143   5.204  0.1493 -0.1081  0.6359
16427SOL     OW50496   5.170   4.413   4.272  0.1488  0.2348 -0.8220
16427SOL    HW150497   5.086   4.370   4.260  0.3981 -0.0651 -1.6021
16427SOL    HW250498   5.154   4.504   4.247  0.5406 -0.2794 -3.2549
16428SOL     OW50499   7.637   5.313   4.016 -0.3897 -0.0418  0.4625
16428SOL    HW150500   7.683   5.343   4.095  0.9564  1.0475 -0.6853
16428SOL    HW250501   7.649   5.383   3.953 -1.5467 -0.8399 -0.7033
16429SOL     OW50502   5.544   5.126   3.396  0.0207 -0.8516 -0.4424
16429SOL    HW150503   5.529   5.063   3.466  2.2211 -0.0040  0.9084
16429SOL    HW250504   5.491   5.202   3.420  0.2418 -0.8176 -0.0530
16430SOL     OW50505   7.594   4.852   4.787  0.3097 -0.2685 -0.8131
16430SOL    HW150506   7.534   4.885   4.720  0.5985 -0.8402 -1.3608
16430SOL    HW250507   7.583   4.912   4.861 -0.7765 -0.2333 -0.9845
16431SOL     OW50508   7.155   4.699   4.498 -0.1142 -0.4683  0.1680
16431SOL    HW150509   7.153   4.791   4.471  1.3615 -0.7398 -0.9925
16431SOL    HW250510   7.064   4.670   4.490 -0.8072  1.1164  1.5272
16432SOL     OW50511   5.928   4.833   5.211  0.2735  0.2089 -0.0828
16432SOL    HW150512   5.949   4.891   5.283 -0.2017  0.0197  0.2153
16432SOL    HW250513   5.849   4.786   5.240  0.2362 -0.0641 -0.6083
16433SOL     OW50514   6.125   5.253   4.274 -0.5488 -0.4387 -0.2496
16433SOL    HW150515   6.103   5.209   4.191 -0.9998 -0.1416 -0.2907
16433SOL    HW250516   6.216   5.229   4.290 -0.4981 -0.6080 -0.7663
16434SOL     OW50517   6.521   5.268   4.788  0.2362 -0.6874 -0.8191
16434SOL    HW150518   6.547   5.335   4.726 -0.0283 -1.0185 -1.2915
16434SOL    HW250519   6.562   5.187   4.757  0.5547 -0.7521 -0.2540
16435SOL     OW50520   6.770   3.822   4.291  0.6948  0.2690  0.2507
16435SOL    HW150521   6.842   3.789   4.345  2.2544  1.6936 -0.8514
16435SOL    HW250522   6.747   3.906   4.331  0.1951  0.2040  0.1110
16436SOL     OW50523   5.627   4.615   5.009 -0.3657  0.3391  1.0183
16436SOL    HW150524   5.543   4.592   4.970 -0.5077  0.7936  1.0437
16436SOL    HW250525   5.605   4.652   5.094 -0.2513  1.6476  0.5118
16437SOL     OW50526   7.433   4.804   3.999  0.0528 -0.0350 -0.4041
16437SOL    HW150527   7.415   4.890   3.960  0.1515  0.1605 -0.0303
16437SOL    HW250528   7.352   4.755   3.986 -0.6434  0.7062  0.9066
16438SOL     OW50529   6.838   5.642   5.251 -0.5254 -0.7251 -0.0138
16438SOL    HW150530   6.878   5.702   5.189  0.8409 -1.5297  0.0428
16438SOL    HW250531   6.844   5.556   5.208  2.6155 -1.7228  2.0939
16439SOL     OW50532   5.716   3.783   5.754  0.2385  0.3709 -0.8693
16439SOL    HW150533   5.730   3.877   5.759  0.2616  0.3166  0.4140
16439SOL    HW250534   5.662   3.771   5.675 -0.6187  1.5582 -0.4935
16440SOL     OW50535   6.963   4.732   4.783 -0.4505  0.6167  0.3897
16440SOL    HW150536   6.982   4.643   4.751 -0.2677  1.1967 -1.1945
16440SOL    HW250537   6.874   4.727   4.818 -0.0247 -0.4524  1.3946
16441SOL     OW50538   6.893   5.617   4.264  0.1170 -0.1046  0.5436
16441SOL    HW150539   6.804   5.652   4.272  0.6685  1.1029  1.9771
16441SOL    HW250540   6.899   5.552   4.334  0.3005 -0.3693  0.2855
16442SOL     OW50541   6.139   4.616   4.027  0.1529  0.1445 -0.4116
16442SOL    HW150542   6.115   4.705   4.005  0.5125  0.2078 -0.5497
16442SOL    HW250543   6.118   4.608   4.120 -0.9838  0.0003 -0.6654
16443SOL     OW50544   6.751   3.802   4.853 -0.0131  0.2630  0.5637
16443SOL    HW150545   6.814   3.757   4.798  2.6935  1.9540  2.0717
16443SOL    HW250546   6.695   3.850   4.791 -0.4137 -1.8720 -0.8390
16444SOL     OW50547   7.301   4.964   4.268  0.1282  0.9034 -0.1907
16444SOL    HW150548   7.339   5.039   4.223 -0.1226  0.6314 -0.8776
16444SOL    HW250549   7.229   4.936   4.211 -0.2842  0.6373  0.4601
16445SOL     OW50550   6.524   4.240   5.026  0.2082  0.3778 -0.0900
16445SOL    HW150551   6.520   4.306   5.095 -1.1794 -0.9492  1.1717
16445SOL    HW250552   6.443   4.251   4.976 -0.5232 -0.9857  0.7576
16446SOL     OW50553   7.188   4.378   5.861  0.1536  0.1116  0.2465
16446SOL    HW150554   7.158   4.462   5.893  0.2869 -0.6818  2.6205
16446SOL    HW250555   7.166   4.315   5.930 -0.3718 -1.9212 -1.6289
16447SOL     OW50556   6.530   4.064   5.872 -0.3694  0.2338 -0.2793
16447SOL    HW150557   6.441   4.033   5.884 -0.6829  1.2495  0.1243
16447SOL    HW250558   6.524   4.160   5.880  0.9330  0.2459  0.9625
16448SOL     OW50559   6.559   3.938   4.678 -0.5261 -0.5594 -0.4373
16448SOL    HW150560   6.549   4.025   4.640 -0.5357 -0.0937  0.5976
16448SOL    HW250561   6.478   3.892   4.654 -1.2673  0.2734  0.4146
16449SOL     OW50562   6.606   4.241   4.240  0.1880 -0.3475 -0.0998
16449SOL    HW150563   6.548   4.313   4.261 -0.9896 -0.3426 -2.9743
16449SOL    HW250564   6.683   4.282   4.200 -0.2157 -0.6192 -1.1824
16450SOL     OW50565   5.065   4.575   4.783 -0.0061 -0.2439 -0.3009
16450SOL    HW150566   5.070   4.513   4.856  1.2006 -1.3141 -1.2418
16450SOL    HW250567   5.014   4.528   4.716  2.1400 -0.9002 -1.5838
16451SOL     OW50568   5.649   5.888   5.355 -1.0179 -0.2559 -0.4121
16451SOL    HW150569   5.660   5.885   5.260 -2.4929 -2.3284 -0.5875
16451SOL    HW250570   5.649   5.797   5.382  2.1248  0.2774  2.0278
16452SOL     OW50571   6.374   3.865   3.837 -0.3755  0.0014 -0.5649
16452SOL    HW150572   6.394   3.950   3.798  1.9791 -0.3659 -0.3172
16452SOL    HW250573   6.419   3.801   3.781  0.0053 -0.8470  0.6528
16453SOL     OW50574   7.070   4.211   5.415  0.5683 -0.9073 -0.1637
16453SOL    HW150575   6.987   4.179   5.451 -0.0487 -0.8882 -1.5281
16453SOL    HW250576   7.070   4.305   5.434 -0.4145 -0.6290 -1.4078
16454SOL     OW50577   6.801   4.444   4.388  0.4794 -0.4840 -0.1691
16454SOL    HW150578   6.730   4.416   4.447  1.2240 -0.7704  0.6209
16454SOL    HW250579   6.758   4.502   4.326 -0.0466  1.3291  1.7602
16455SOL     OW50580   6.055   3.790   4.455 -0.2679 -0.4007 -0.4357
16455SOL    HW150581   6.038   3.885   4.453 -0.6051 -0.3334 -4.6672
16455SOL    HW250582   5.973   3.751   4.483 -0.1727  0.5181  1.2246
16456SOL     OW50583   6.327   5.164   4.045 -0.1810 -0.4946 -0.2409
16456SOL    HW150584   6.275   5.204   3.975 -1.8564  0.4808  1.4766
16456SOL    HW250585   6.382   5.235   4.078  1.4146 -1.2209 -1.2312
16457SOL     OW50586   6.049   5.808   4.513 -0.1732 -0.5217  0.1231
16457SOL    HW150587   6.029   5.836   4.424 -0.4844 -0.7078  0.1312
16457SOL    HW250588   6.057   5.713   4.507 -0.6881 -0.5883  0.3818
16458SOL     OW50589   7.162   4.965   5.053  0.0151  0.2473  0.1357
16458SOL    HW150590   7.147   4.942   4.961  2.4076 -1.6681  0.1253
16458SOL    HW250591   7.110   4.900   5.102  0.6724 -0.2979  0.1180
16459SOL     OW50592   6.865   5.417   5.090 -0.7274 -0.2034  0.1198
16459SOL    HW150593   6.814   5.350   5.136  1.3517 -1.8017  0.2281
16459SOL    HW250594   6.819   5.429   5.007 -1.0255 -1.9667 -0.0116
16460SOL     OW50595   5.619   4.569   4.332  0.3375  0.2216  0.1843
16460SOL    HW150596   5.558   4.508   4.290 -0.6509  0.8818  0.6242
16460SOL    HW250597   5.565   4.620   4.392  1.3826  0.6238  0.8185
16461SOL     OW50598   7.261   4.590   4.736  0.7716 -0.2834  0.4148
16461SOL    HW150599   7.211   4.622   4.661  1.3508 -1.9769 -0.7653
16461SOL    HW250600   7.352   4.589   4.706  1.4414  1.7433  2.1674
16462SOL     OW50601   5.893   4.558   5.039 -0.5633 -0.7695 -0.2548
16462SOL    HW150602   5.810   4.562   4.990 -0.5081  0.7378 -0.2702
16462SOL    HW250603   5.866   4.544   5.130 -0.9109  0.7031 -0.1137
16463SOL     OW50604   6.710   5.407   4.147 -0.4988 -0.1131 -0.1292
16463SOL    HW150605   6.707   5.494   4.109 -2.8325  0.4092  1.0778
16463SOL    HW250606   6.717   5.348   4.072 -3.3586  0.9570 -1.3563
16464SOL     OW50607   5.697   3.919   5.082  0.1187  0.1398 -0.6719
16464SOL    HW150608   5.619   3.957   5.041  0.6142  0.1853 -1.5924
16464SOL    HW250609   5.770   3.955   5.032  0.6271 -1.7593 -1.3878
16465SOL     OW50610   7.189   5.257   3.577  0.8723  0.3817 -0.1772
16465SOL    HW150611   7.197   5.221   3.488  0.6318  0.5154 -0.2555
16465SOL    HW250612   7.273   5.238   3.619 -0.0339 -2.3589  0.5641
16466SOL     OW50613   5.977   5.354   4.706 -0.0941 -0.0215 -0.0575
16466SOL    HW150614   5.915   5.411   4.660  1.1253  1.8933  0.5108
16466SOL    HW250615   5.982   5.275   4.653 -0.8764  0.9434 -1.6310
16467SOL     OW50616   6.744   3.955   4.023 -0.0405 -0.1722 -0.2468
16467SOL    HW150617   6.670   4.007   3.991  0.2057  0.3979  0.1053
16467SOL    HW250618   6.713   3.917   4.105  0.0110 -0.0373 -0.1648
16468SOL     OW50619   6.237   5.721   5.371 -0.3754 -0.5565  0.0175
16468SOL    HW150620   6.287   5.659   5.319 -1.9123 -1.9798  0.1415
16468SOL    HW250621   6.163   5.670   5.405 -0.2373  0.6572  2.4093
16469SOL     OW50622   6.176   4.928   4.232  0.1904 -0.2885 -0.3581
16469SOL    HW150623   6.163   4.911   4.139  0.1344 -2.2390 -0.0408
16469SOL    HW250624   6.091   4.913   4.272  0.0885  1.0464 -0.0308
16470SOL     OW50625   5.780   4.238   4.186 -0.5143 -0.1798 -0.1875
16470SOL    HW150626   5.812   4.240   4.096  0.2059 -2.3139 -0.0243
16470SOL    HW250627   5.691   4.204   4.180 -1.2894  1.7053 -0.2337
16471SOL     OW50628   6.804   4.072   5.909  0.2725  0.1659 -0.0565
16471SOL    HW150629   6.828   4.109   5.994 -0.1999  0.5215 -0.0754
16471SOL    HW250630   6.714   4.102   5.894 -0.4022 -1.5561  0.2585
16472SOL     OW50631   6.559   3.733   3.653 -0.0682 -0.4918 -0.5295
16472SOL    HW150632   6.496   3.665   3.629  0.0548 -1.4582  1.6129
16472SOL    HW250633   6.617   3.691   3.716  1.0423  1.1528 -0.3867
16473SOL     OW50634   6.379   3.813   5.209  0.0962 -0.5122 -0.0875
16473SOL    HW150635   6.346   3.827   5.297  2.7510  1.9485  0.6793
16473SOL    HW250636   6.453   3.754   5.220  1.9556  1.6599 -0.1821
16474SOL     OW50637   6.294   5.239   5.110 -0.0776  0.3397  0.5136
16474SOL    HW150638   6.267   5.227   5.019  0.5762 -0.2850  0.3896
16474SOL    HW250639   6.226   5.196   5.162  0.4522 -0.9076  0.2214
16475SOL     OW50640   6.874   4.129   5.601  0.1647  0.5746 -0.4535
16475SOL    HW150641   6.787   4.168   5.595 -0.1902 -0.3110 -1.5723
16475SOL    HW250642   6.899   4.139   5.692 -0.7341  1.6428 -0.3081
16476SOL     OW50643   6.161   4.421   4.761 -0.2782 -0.1469 -0.0502
16476SOL    HW150644   6.149   4.508   4.799  0.3715 -0.7035  1.5126
16476SOL    HW250645   6.075   4.380   4.768 -0.4352  0.1549 -0.2079
16477SOL     OW50646   6.455   3.961   4.315 -0.4407  0.7568  0.0386
16477SOL    HW150647   6.360   3.963   4.303 -0.2538  1.0208 -1.6488
16477SOL    HW250648   6.489   4.014   4.244  0.9957  0.4556  0.4726
16478SOL     OW50649   6.205   4.208   4.243 -0.1867  0.1182  0.8019
16478SOL    HW150650   6.196   4.280   4.180 -2.7258  0.3140  1.2802
16478SOL    HW250651   6.183   4.129   4.194 -1.1173  0.1480  1.1450
16479SOL     OW50652   6.836   4.840   4.040 -0.6134  0.2602  0.5016
16479SOL    HW150653   6.915   4.855   4.092 -1.1602 -2.2718  2.1787
16479SOL    HW250654   6.765   4.871   4.095 -1.0236 -0.1801  0.2219
16480SOL     OW50655   5.801   3.671   4.040  0.2523  0.3296 -0.2876
16480SOL    HW150656   5.795   3.765   4.057  0.7770  0.0062  1.9628
16480SOL    HW250657   5.719   3.635   4.074 -0.3274  0.0241 -1.9016
16481SOL     OW50658   6.251   3.956   4.060 -0.1184 -0.1631  0.5423
16481SOL    HW150659   6.295   3.915   3.986 -0.3937 -0.4767  0.5529
16481SOL    HW250660   6.196   3.887   4.098 -3.2415  0.9776 -1.4851
16482SOL     OW50661   6.873   4.620   5.392 -0.0610  0.2680  0.2650
16482SOL    HW150662   6.821   4.556   5.343 -0.5190  1.5842 -1.0330
16482SOL    HW250663   6.832   4.621   5.479 -0.4029 -0.7674  0.1371
16483SOL     OW50664   6.593   4.768   4.462  0.2085  0.1300  0.4802
16483SOL    HW150665   6.543   4.686   4.456 -0.9624  0.8787 -0.9616
16483SOL    HW250666   6.547   4.828   4.402  1.1664  1.7714  1.3149
16484SOL     OW50667   5.893   4.830   4.320  0.5510 -0.2939 -0.0845
16484SOL    HW150668   5.834   4.885   4.372  1.8689  1.0647  0.0175
16484SOL    HW250669   5.880   4.742   4.356 -1.8088 -0.1661 -0.4367
16485SOL     OW50670   6.759   5.218   4.337 -0.0197  0.2828  0.5579
16485SOL    HW150671   6.731   5.282   4.272 -2.4155  2.2731  3.3081
16485SOL    HW250672   6.823   5.264   4.391  0.3406 -0.5952  0.9084
16486SOL     OW50673   6.823   4.238   3.507 -0.3383  0.1017 -0.3809
16486SOL    HW150674   6.887   4.211   3.572 -0.2606 -2.9547 -1.5586
16486SOL    HW250675   6.854   4.323   3.476  1.1040  0.3550  1.5683
16487SOL     OW50676   5.732   4.218   5.195 -0.5202 -0.6497 -0.3472
16487SOL    HW150677   5.769   4.202   5.108 -1.8976  0.5472 -1.1813
16487SOL    HW250678   5.639   4.234   5.180 -0.8026 -0.4635  1.3588
16488SOL     OW50679   6.968   3.641   4.735  0.6697  0.5969 -0.5408
16488SOL    HW150680   6.900   3.626   4.669  0.0268  1.5085 -0.1025
16488SOL    HW250681   6.962   3.566   4.794 -0.5364  1.0835 -0.0262
16489SOL     OW50682   6.297   4.279   4.565 -0.6272 -0.5667 -0.1722
16489SOL    HW150683   6.280   4.336   4.640 -0.7506 -0.0659 -0.5765
16489SOL    HW250684   6.228   4.212   4.569 -0.9201 -0.2618 -0.1114
16490SOL     OW50685   6.609   3.656   4.139  0.6227  0.3902 -0.1524
16490SOL    HW150686   6.638   3.713   4.210 -0.7770  2.0563 -0.8581
16490SOL    HW250687   6.522   3.687   4.117 -0.3855 -2.3030 -0.3330
16491SOL     OW50688   7.047   4.932   4.622  0.3588  0.2460  0.0707
16491SOL    HW150689   6.984   4.920   4.551 -0.3294  0.3703  0.6437
16491SOL    HW250690   7.033   4.857   4.679 -0.5403  1.1795  1.1289
16492SOL     OW50691   7.214   4.255   4.610  0.4536 -0.0774 -0.3293
16492SOL    HW150692   7.169   4.188   4.661  1.1068  0.2753  0.7598
16492SOL    HW250693   7.155   4.331   4.613  1.2519  0.5469  1.5108
16493SOL     OW50694   7.306   4.474   4.416 -0.4231  0.2984 -0.2760
16493SOL    HW150695   7.289   4.418   4.492 -0.6878  1.6909  0.7163
16493SOL    HW250696   7.251   4.551   4.429 -1.8013 -0.1727 -2.7734
16494SOL     OW50697   6.249   5.098   4.548  0.0683 -0.3938 -0.2210
16494SOL    HW150698   6.250   5.003   4.561 -0.2961 -0.2931  0.5933
16494SOL    HW250699   6.158   5.119   4.528 -0.5196  0.1393  2.6031
16495SOL     OW50700   7.179   5.409   4.455 -0.0895  0.2025 -0.2834
16495SOL    HW150701   7.172   5.361   4.538  0.6185  0.9535  0.2276
16495SOL    HW250702   7.103   5.379   4.404 -1.6540  1.1362  1.3617
16496SOL     OW50703   6.878   3.842   3.782 -0.1383 -0.3632 -0.7637
16496SOL    HW150704   6.811   3.843   3.851  2.4098  1.3501  1.9613
16496SOL    HW250705   6.946   3.783   3.816  1.0246  0.2170 -1.9992
16497SOL     OW50706   6.435   4.141   3.641 -0.0285 -0.3755  0.3326
16497SOL    HW150707   6.370   4.179   3.700  1.1052  2.6180 -0.1333
16497SOL    HW250708   6.394   4.145   3.554  0.6071  1.2937  0.0727
16498SOL     OW50709   7.101   5.132   5.513 -0.1899 -0.3194  0.5967
16498SOL    HW150710   7.115   5.137   5.418 -2.0250  1.9041  0.3425
16498SOL    HW250711   7.189   5.135   5.551  0.5118  1.1028 -1.0103
16499SOL     OW50712   6.270   5.165   4.849  0.8789 -0.6668 -0.3656
16499SOL    HW150713   6.230   5.138   4.766 -1.1568  1.6262 -0.2495
16499SOL    HW250714   6.342   5.223   4.822 -0.0384  0.4092 -0.5769
16500SOL     OW50715   7.497   4.909   5.789  0.1545 -0.5420  0.4911
16500SOL    HW150716   7.459   4.856   5.719 -2.2307  0.4673  0.9175
16500SOL    HW250717   7.555   4.849   5.836  0.7654 -1.6028 -1.4782
16501SOL     OW50718   6.509   4.748   4.921  0.5794  0.6911 -0.0213
16501SOL    HW150719   6.489   4.730   5.013 -3.3743  0.7699 -0.6931
16501SOL    HW250720   6.443   4.812   4.894  1.1717  0.1692 -3.0882
16502SOL     OW50721   7.391   4.879   5.186 -0.8330 -0.1085  0.0762
16502SOL    HW150722   7.394   4.925   5.270 -0.3355  1.8793 -0.9831
16502SOL    HW250723   7.316   4.917   5.141  0.5160  0.8509 -1.4497
16503SOL     OW50724   6.542   3.643   4.937 -0.0011 -0.2032 -0.1713
16503SOL    HW150725   6.632   3.662   4.909 -0.2419  0.0383 -0.7987
16503SOL    HW250726   6.552   3.605   5.024  0.5825  1.6632  0.6144
16504SOL     OW50727   6.235   4.887   5.304  0.0849 -0.4847 -0.5148
16504SOL    HW150728   6.213   4.807   5.255 -1.5921 -0.9150  0.8291
16504SOL    HW250729   6.150   4.924   5.328  0.7838 -0.4482  2.2516
16505SOL     OW50730   5.868   4.463   4.303 -0.1213 -0.1711 -0.6905
16505SOL    HW150731   5.844   4.375   4.273 -1.5798  0.2877 -0.9455
16505SOL    HW250732   5.787   4.499   4.339  0.6967  0.7135  0.3391
16506SOL     OW50733   5.744   4.649   4.674  0.2549 -0.7868 -0.2542
16506SOL    HW150734   5.685   4.582   4.709  0.8953 -1.4119 -0.3539
16506SOL    HW250735   5.695   4.690   4.603 -0.1340 -1.1694 -0.2100
16507SOL     OW50736   7.124   3.880   4.684  0.6107 -0.0626 -0.1971
16507SOL    HW150737   7.079   3.796   4.693  0.0274  0.3272  0.6362
16507SOL    HW250738   7.076   3.940   4.741 -1.5415  1.9378 -3.7451
16508SOL     OW50739   5.753   4.968   4.521 -0.0093  0.2414 -0.0895
16508SOL    HW150740   5.672   4.916   4.521  0.4460 -0.5264 -1.6500
16508SOL    HW250741   5.777   4.975   4.613 -2.0943  0.8858  0.4564
16509SOL     OW50742   5.458   5.024   4.402 -0.1426  0.1307  0.1112
16509SOL    HW150743   5.390   4.983   4.456  1.2847 -0.9258  1.1509
16509SOL    HW250744   5.485   4.955   4.341  1.7751 -0.3406  1.4048
16510SOL     OW50745   6.294   3.867   4.620  0.2026  0.0725 -0.1037
16510SOL    HW150746   6.286   3.788   4.674 -1.4006  1.3317  1.6571
16510SOL    HW250747   6.229   3.856   4.551  1.1980 -0.8719 -0.9258
16511SOL     OW50748   6.698   4.984   4.206 -0.2580 -0.3999 -0.0291
16511SOL    HW150749   6.738   5.063   4.243  1.0334 -0.0608 -2.0111
16511SOL    HW250750   6.609   4.982   4.243 -0.3168  1.9772  0.0727
16512SOL     OW50751   6.615   5.042   4.678 -0.0414 -0.6968 -0.2039
16512SOL    HW150752   6.686   5.027   4.741  0.4155 -0.7443 -0.7295
16512SOL    HW250753   6.558   4.965   4.688  0.9796 -1.5936 -1.1156
16513SOL     OW50754   7.033   4.370   4.228  0.6138  0.4210  0.0273
16513SOL    HW150755   6.955   4.390   4.280  0.2750 -1.1878  0.1800
16513SOL    HW250756   7.003   4.375   4.137  0.4531  0.2491  0.0709
16514SOL     OW50757   5.372   4.915   4.900 -0.2767  0.4002 -0.4516
16514SOL    HW150758   5.342   4.854   4.832  1.5840 -0.7627 -0.3070
16514SOL    HW250759   5.342   5.001   4.870 -3.7825 -0.5981 -0.1988
16515SOL     OW50760   6.443   4.446   5.205  0.1626 -0.3362 -0.1022
16515SOL    HW150761   6.360   4.400   5.216  0.5613 -0.7889  1.2521
16515SOL    HW250762   6.424   4.537   5.227 -0.4538  0.0386 -2.0169
16516SOL     OW50763   6.982   4.776   5.141  0.5203 -0.0207  0.0446
16516SOL    HW150764   7.007   4.686   5.118 -1.6175 -0.9225  0.9596
16516SOL    HW250765   6.914   4.765   5.208 -0.2229  2.2738 -0.2621
16517SOL     OW50766   6.325   3.872   5.604  0.5234 -0.7177  0.1736
16517SOL    HW150767   6.275   3.942   5.647  0.1817 -0.8408 -0.0163
16517SOL    HW250768   6.258   3.818   5.561  0.8420 -0.7273 -0.3179
16518SOL     OW50769   5.667   3.499   5.430 -0.5943  0.2511 -0.1178
16518SOL    HW150770   5.724   3.570   5.459  0.0017 -0.3383  0.1780
16518SOL    HW250771   5.578   3.535   5.436 -0.1938  1.9164 -2.6218
16519SOL     OW50772   6.117   4.075   4.503 -0.0792 -0.0044 -0.6631
16519SOL    HW150773   6.148   4.138   4.438 -0.2551  0.0761 -0.6707
16519SOL    HW250774   6.024   4.095   4.513  0.3065  1.1412  0.9137
16520SOL     OW50775   6.971   4.006   4.876  0.3736  0.2161 -0.5554
16520SOL    HW150776   6.974   4.020   4.970 -0.9008  0.2149 -0.5066
16520SOL    HW250777   6.915   4.075   4.842  1.2775  0.5717 -1.4023
16521SOL     OW50778   6.789   3.820   3.503 -0.0837 -0.9400  0.1144
16521SOL    HW150779   6.828   3.816   3.590 -1.1652  0.7375  0.7250
16521SOL    HW250780   6.708   3.769   3.511  0.1275 -1.3131 -0.0988
16522SOL     OW50781   5.682   4.241   4.855  0.3105 -0.4718 -0.3324
16522SOL    HW150782   5.627   4.314   4.826  0.5635 -0.6827 -1.4025
16522SOL    HW250783   5.626   4.190   4.913  0.1047  0.5215  0.3594
16523SOL     OW50784   5.099   4.817   5.021  0.3008 -0.5431 -0.5679
16523SOL    HW150785   5.152   4.820   5.101  0.1290 -0.3903 -0.4595
16523SOL    HW250786   5.109   4.727   4.989  0.6401 -0.5116 -0.5577
16524SOL     OW50787   6.195   4.658   5.156 -0.3784  0.3652  0.3034
16524SOL    HW150788   6.181   4.636   5.064 -0.0151  4.3151 -0.9186
16524SOL    HW250789   6.109   4.648   5.197 -1.2257  1.2045 -1.1917
16525SOL     OW50790   7.300   4.557   5.610  0.1385 -0.1087 -1.0532
16525SOL    HW150791   7.268   4.469   5.630  0.3701 -0.0319 -0.3242
16525SOL    HW250792   7.242   4.588   5.540 -1.8115  0.2513  0.6236
16526SOL     OW50793   5.846   4.125   4.492  0.2168  0.3727 -0.4851
16526SOL    HW150794   5.772   4.064   4.487  0.8492 -0.3497 -1.4364
16526SOL    HW250795   5.811   4.207   4.456 -0.4842  0.4217  0.2871
16527SOL     OW50796   6.498   4.100   4.037 -0.2175  0.0812 -0.7097
16527SOL    HW150797   6.403   4.092   4.044 -0.7383  2.7192 -3.2343
16527SOL    HW250798   6.523   4.156   4.110 -0.4231 -1.2465  0.4239
16528SOL     OW50799   6.811   4.443   4.847 -0.3350  0.0083 -0.3308
16528SOL    HW150800   6.719   4.467   4.861 -0.6198 -1.1962  0.0393
16528SOL    HW250801   6.818   4.356   4.886  1.6614  1.1823  2.1909
16529SOL     OW50802   6.589   5.017   5.186 -0.2222 -0.0715  0.2573
16529SOL    HW150803   6.674   5.040   5.223 -0.6529  0.2975  1.0440
16529SOL    HW250804   6.577   5.079   5.114 -0.5562  1.0165  1.2092
16530SOL     OW50805   7.852   5.607   5.393 -0.8958 -0.0398 -0.6914
16530SOL    HW150806   7.866   5.517   5.424  0.2833 -0.3515 -2.0213
16530SOL    HW250807   7.935   5.651   5.410 -1.9121  1.2634  1.2731
16531SOL     OW50808   5.928   4.661   5.633 -0.6166  0.4021  0.1678
16531SOL    HW150809   5.951   4.685   5.723 -2.1609  0.1786  0.6545
16531SOL    HW250810   5.832   4.669   5.630 -0.4826  2.2284 -1.9851
16532SOL     OW50811   7.345   4.086   4.042  0.1066  0.1336 -0.0315
16532SOL    HW150812   7.267   4.034   4.060  0.1467 -0.8286 -2.2811
16532SOL    HW250813   7.418   4.034   4.076 -0.0626 -0.0478  0.0481
16533SOL     OW50814   6.567   4.847   3.795 -0.5916 -0.5115 -0.0819
16533SOL    HW150815   6.546   4.892   3.877 -0.6425 -0.2985 -0.2122
16533SOL    HW250816   6.583   4.756   3.822  1.2521 -0.0809  0.4360
16534SOL     OW50817   6.421   4.394   4.343 -0.2004 -0.2197 -0.4350
16534SOL    HW150818   6.393   4.364   4.429 -0.6497 -1.8183 -1.0902
16534SOL    HW250819   6.351   4.365   4.284 -1.4232  3.4090 -1.0276
16535SOL     OW50820   5.398   4.550   4.873 -0.4824  0.1332  0.2345
16535SOL    HW150821   5.364   4.628   4.830 -0.5577  0.0716  0.1811
16535SOL    HW250822   5.329   4.524   4.934 -0.7407 -0.2705 -0.2197
16536SOL     OW50823   5.808   3.675   4.526  0.2312 -0.4986 -0.0054
16536SOL    HW150824   5.733   3.721   4.489  1.0816  0.0168 -1.1715
16536SOL    HW250825   5.805   3.693   4.619 -0.7349  0.0300 -0.1300
16537SOL     OW50826   6.733   4.156   5.336 -0.6862 -0.4067  0.3364
16537SOL    HW150827   6.714   4.097   5.262 -1.0473  0.2312 -0.0899
16537SOL    HW250828   6.685   4.117   5.410  0.0132 -1.2804  0.3457
16538SOL     OW50829   6.573   4.013   5.162  0.2498  0.4184  0.7107
16538SOL    HW150830   6.500   3.953   5.175  1.0236 -0.4841  1.0374
16538SOL    HW250831   6.537   4.084   5.111 -0.7363 -0.2539  0.4435
16539SOL     OW50832   5.567   4.789   3.554 -0.4148  0.2841 -0.4827
16539SOL    HW150833   5.639   4.800   3.492 -0.4504 -0.5737 -0.6867
16539SOL    HW250834   5.519   4.713   3.522 -1.7093  1.1270 -0.6438
16540SOL     OW50835   5.713   5.430   4.573  0.0053 -0.1662 -0.1361
16540SOL    HW150836   5.652   5.498   4.599  0.4762 -0.2702  1.3506
16540SOL    HW250837   5.666   5.348   4.587  0.1953 -0.2189  0.1990
16541SOL     OW50838   6.159   5.545   4.640 -0.4951  0.2445  0.3606
16541SOL    HW150839   6.183   5.594   4.718 -1.3588  0.0078  0.7933
16541SOL    HW250840   6.094   5.481   4.670 -1.6593  0.8646 -0.7241
16542SOL     OW50841   6.784   4.197   4.941  0.0142  0.3139  0.4074
16542SOL    HW150842   6.812   4.156   5.023  1.2307  1.2094  0.4563
16542SOL    HW250843   6.689   4.204   4.950 -0.6221 -4.0516 -0.3257
16543SOL     OW50844   5.142   4.313   4.546  0.1281  0.1394 -0.1417
16543SOL    HW150845   5.062   4.262   4.556  0.5806 -0.3436  1.1649
16543SOL    HW250846   5.152   4.323   4.451 -2.7728  2.3519 -0.3437
16544SOL     OW50847   5.949   3.950   5.489  0.5385 -0.0092 -0.0771
16544SOL    HW150848   5.985   3.958   5.401 -0.1865  0.1697 -0.3589
16544SOL    HW250849   6.006   4.004   5.543  2.4340 -1.9402  0.0146
16545SOL     OW50850   6.852   5.054   5.239  0.7318 -0.0139 -0.0960
16545SOL    HW150851   6.934   5.010   5.262  1.0553 -0.0015 -1.1818
16545SOL    HW250852   6.873   5.147   5.241  0.4937  0.0331  0.5215
16546SOL     OW50853   6.670   4.243   3.779 -0.3435  0.3220  0.5254
16546SOL    HW150854   6.743   4.234   3.718  0.3226 -2.5021  1.5918
16546SOL    HW250855   6.601   4.188   3.741 -1.0669  1.0789  0.7291
16547SOL     OW50856   7.240   4.020   5.346  0.5488  1.1819  0.3584
16547SOL    HW150857   7.279   4.042   5.261  1.4369  1.8994  0.9361
16547SOL    HW250858   7.183   4.094   5.365 -0.9348  0.2667 -0.3507
16548SOL     OW50859   5.808   5.183   5.565  0.5283 -0.0382  0.3175
16548SOL    HW150860   5.746   5.240   5.610  0.5517  0.2792 -0.0501
16548SOL    HW250861   5.808   5.214   5.475 -0.6590 -1.6065 -0.2841
16549SOL     OW50862   6.022   3.930   5.234 -0.1200  0.1914 -0.6314
16549SOL    HW150863   6.075   3.956   5.158  0.3987 -0.5676 -0.5487
16549SOL    HW250864   5.943   3.892   5.196  0.2080 -0.3336 -0.8121
16550SOL     OW50865   6.575   5.285   5.059 -0.1781  0.0846  0.1659
16550SOL    HW150866   6.490   5.264   5.098  0.4997 -0.0108  1.6268
16550SOL    HW250867   6.553   5.310   4.969 -1.6970 -0.4383  0.3508
16551SOL     OW50868   6.052   3.929   3.756 -0.2273  0.9822 -0.3037
16551SOL    HW150869   5.988   3.970   3.814 -0.8002 -0.5167  0.1820
16551SOL    HW250870   6.136   3.939   3.801 -0.7910 -0.9816  1.3120
16552SOL     OW50871   5.785   4.876   4.808 -0.3195  0.0501 -0.1269
16552SOL    HW150872   5.745   4.893   4.893  0.4242  2.2168 -0.1231
16552SOL    HW250873   5.762   4.786   4.788 -2.8471  0.3282  1.0883
16553SOL     OW50874   6.489   4.778   5.253  0.3967  0.5795 -0.1668
16553SOL    HW150875   6.398   4.795   5.276  0.6935 -0.0741  1.6514
16553SOL    HW250876   6.522   4.861   5.220 -0.6145  1.0470 -0.0345
16554SOL     OW50877   6.790   4.297   4.035  0.0760 -0.2412  0.5602
16554SOL    HW150878   6.873   4.311   3.989 -0.0201 -2.7917 -0.5451
16554SOL    HW250879   6.728   4.277   3.965 -1.5003  1.4465  1.3815
16555SOL     OW50880   7.452   5.838   4.488  0.0059  0.5327  0.1267
16555SOL    HW150881   7.363   5.802   4.489  0.6735 -1.1536  0.9759
16555SOL    HW250882   7.454   5.899   4.561 -0.9174  1.8780 -0.9029
16556SOL     OW50883   6.601   5.445   4.580 -0.1087  0.4568 -0.3185
16556SOL    HW150884   6.556   5.409   4.504  0.6583  0.9461 -1.0152
16556SOL    HW250885   6.594   5.540   4.569  1.9743  0.5852 -1.0121
16557SOL     OW50886   5.278   4.743   4.713 -0.3714  0.1878  0.6228
16557SOL    HW150887   5.200   4.686   4.715 -0.9125  0.9338  1.1054
16557SOL    HW250888   5.252   4.817   4.658  1.0717 -1.0321 -1.9060
16558SOL     OW50889   6.040   5.178   5.154 -0.0013  0.6826 -0.1682
16558SOL    HW150890   6.031   5.103   5.095  1.6934 -0.0633  0.4434
16558SOL    HW250891   5.996   5.250   5.109 -1.5841 -0.6245 -0.8318
16559SOL     OW50892   7.610   3.966   3.884 -0.3582  0.0265  0.4156
16559SOL    HW150893   7.589   3.904   3.954  1.4832 -0.1178  0.8948
16559SOL    HW250894   7.645   4.043   3.930  1.9449 -0.5039 -0.3190
16560SOL     OW50895   7.201   5.116   4.493  0.0327 -0.1987 -0.1665
16560SOL    HW150896   7.220   5.078   4.407 -0.4028 -2.0677  0.5192
16560SOL    HW250897   7.148   5.050   4.538  0.1314  0.7876  1.5021
16561SOL     OW50898   5.698   5.628   5.428  0.2416  0.8331 -0.9789
16561SOL    HW150899   5.681   5.539   5.398  0.6597  0.8395 -1.2388
16561SOL    HW250900   5.689   5.623   5.524 -0.7954  0.7507 -1.0661
16562SOL     OW50901   6.990   4.433   4.607  0.6013 -0.1116  0.4209
16562SOL    HW150902   6.922   4.453   4.542 -0.0514  0.7443  1.3285
16562SOL    HW250903   6.941   4.405   4.684  1.3015  0.1636  0.9724
16563SOL     OW50904   6.393   4.524   5.580 -0.0494  0.3824 -0.6430
16563SOL    HW150905   6.339   4.589   5.534 -2.1035  0.2434  1.3681
16563SOL    HW250906   6.376   4.442   5.533 -1.3466  0.4227 -0.3010
16564SOL     OW50907   6.287   5.933   4.276 -0.1017 -0.0946  0.3583
16564SOL    HW150908   6.363   5.990   4.287  0.9247 -1.1419 -0.9518
16564SOL    HW250909   6.324   5.845   4.268 -1.6100 -0.9271  1.7934
16565SOL     OW50910   6.931   5.306   4.722 -0.4183 -0.1351  0.1544
16565SOL    HW150911   6.994   5.336   4.787  0.3090  1.7031 -1.2914
16565SOL    HW250912   6.946   5.211   4.716  0.9519 -0.0115  1.1406
16566SOL     OW50913   7.370   3.954   4.754  0.2816 -0.2794  0.1368
16566SOL    HW150914   7.280   3.921   4.766 -0.2733  0.8827 -0.7057
16566SOL    HW250915   7.398   3.916   4.671  0.1274  0.2803 -0.1779
16567SOL     OW50916   5.359   4.560   4.478  0.5728 -0.2775 -0.6282
16567SOL    HW150917   5.291   4.603   4.427 -0.8531 -1.8093 -0.0773
16567SOL    HW250918   5.356   4.469   4.451  0.9666 -0.7895  0.9459
16568SOL     OW50919   6.987   5.012   3.626  0.4256 -0.0362 -0.7283
16568SOL    HW150920   6.901   5.047   3.651  0.7247  0.6214 -0.5958
16568SOL    HW250921   7.020   5.073   3.561  1.4621  0.5950  0.3598
16569SOL     OW50922   6.274   4.280   4.950 -0.1126 -0.0908  0.2406
16569SOL    HW150923   6.222   4.356   4.922  1.0729  0.8399  0.4833
16569SOL    HW250924   6.238   4.207   4.901  0.8145  1.1847 -2.5245
16570SOL     OW50925   6.681   4.603   4.179  0.1803  0.2133  0.2735
16570SOL    HW150926   6.602   4.649   4.206 -0.0747 -0.4346  0.6375
16570SOL    HW250927   6.685   4.615   4.084 -0.8027 -0.4616  0.1397
16571SOL     OW50928   7.268   4.956   3.843  0.4666  0.0363  0.4363
16571SOL    HW150929   7.240   5.034   3.889 -1.0036 -1.1675  1.7058
16571SOL    HW250930   7.193   4.931   3.789  1.4110  0.2375 -1.0326
16572SOL     OW50931   6.029   4.648   4.582 -0.3743 -0.0307  0.5750
16572SOL    HW150932   5.940   4.675   4.605 -0.4309 -0.5270  0.9693
16572SOL    HW250933   6.042   4.566   4.630 -0.3117 -0.8635 -0.8082
16573SOL     OW50934   7.166   5.189   5.237  0.1152  0.3235  0.0904
16573SOL    HW150935   7.182   5.278   5.205  0.4975 -0.4537 -1.9912
16573SOL    HW250936   7.148   5.137   5.159  0.0733 -1.4939  1.2335
16574SOL     OW50937   6.570   4.250   4.603 -0.1065  0.3038 -0.3434
16574SOL    HW150938   6.592   4.309   4.675  0.9225 -0.4458 -0.0160
16574SOL    HW250939   6.496   4.292   4.559  0.8241  2.0276 -0.3425
16575SOL     OW50940   7.020   3.520   4.973  0.1205 -0.1351 -0.8657
16575SOL    HW150941   7.002   3.577   5.048  0.7887  0.7047 -1.3207
16575SOL    HW250942   6.954   3.451   4.979 -0.3719  0.3894  0.0112
16576SOL     OW50943   6.439   5.692   4.298  0.0539 -0.1330  0.1017
16576SOL    HW150944   6.530   5.710   4.318  0.8111 -2.2304 -1.1565
16576SOL    HW250945   6.399   5.672   4.383  1.2080 -0.9491  0.4627
16577SOL     OW50946   7.231   3.937   5.742 -0.2711  0.3583  0.3040
16577SOL    HW150947   7.136   3.941   5.730 -0.1846 -0.9521 -1.1428
16577SOL    HW250948   7.264   3.895   5.662  1.2009 -2.1343  2.0720
16578SOL     OW50949   5.606   5.038   3.928 -0.5404  0.1339 -0.4121
16578SOL    HW150950   5.633   4.963   3.981 -1.5954 -0.6052 -0.8790
16578SOL    HW250951   5.561   5.096   3.989 -1.6005 -0.6336 -0.4409
16579SOL     OW50952   5.706   4.763   5.367  0.4576  0.3340 -0.1938
16579SOL    HW150953   5.623   4.752   5.321  0.7342 -2.2948 -0.1942
16579SOL    HW250954   5.686   4.741   5.458  0.8158  1.3829  0.1531
16580SOL     OW50955   6.256   3.855   4.953  0.2364  0.5323 -0.0147
16580SOL    HW150956   6.277   3.832   5.043 -0.7489  0.9893  0.3543
16580SOL    HW250957   6.234   3.772   4.911 -1.8737  0.5441  0.9049
16581SOL     OW50958   6.225   4.146   3.863 -0.8976 -0.1320 -0.0490
16581SOL    HW150959   6.204   4.090   3.937  1.2908 -0.6661  0.2346
16581SOL    HW250960   6.250   4.230   3.902 -1.9564  0.3381 -0.3455
16582SOL     OW50961   6.742   4.401   5.265  0.1244 -0.2762 -0.4171
16582SOL    HW150962   6.753   4.309   5.290 -1.2974 -1.0540 -2.4294
16582SOL    HW250963   6.649   4.411   5.248  0.5173  0.9663 -2.2125
16583SOL     OW50964   5.814   4.071   3.838  0.6159  0.5366  0.1649
16583SOL    HW150965   5.850   4.158   3.856  0.2730  0.4274  1.5167
16583SOL    HW250966   5.784   4.040   3.924  0.7242 -0.9068 -0.2967
16584SOL     OW50967   6.892   4.825   4.418  0.4237 -0.1841 -0.2989
16584SOL    HW150968   6.903   4.791   4.329  0.0357  1.1006 -0.8692
16584SOL    HW250969   6.797   4.829   4.431  0.4798 -0.9867  0.4381
16585SOL     OW50970   6.323   4.272   5.499 -0.2299 -0.3433 -0.1022
16585SOL    HW150971   6.293   4.225   5.420 -0.5493  0.9537 -0.7780
16585SOL    HW250972   6.399   4.222   5.529 -0.8451 -1.5660 -0.5150
16586SOL     OW50973   6.860   5.403   4.488  0.0211 -0.1735  0.1276
16586SOL    HW150974   6.774   5.431   4.522 -0.0333 -1.5881  1.2637
16586SOL    HW250975   6.903   5.363   4.563  1.5324  0.1388 -0.5413
16587SOL     OW50976   6.244   4.207   5.241  0.7911  0.0532  0.5571
16587SOL    HW150977   6.268   4.222   5.149  0.3238  2.1658  0.7420
16587SOL    HW250978   6.149   4.216   5.243  0.8166  0.1868  1.2929
16588SOL     OW50979   7.204   5.488   5.286 -0.0862  0.3912  0.0349
16588SOL    HW150980   7.186   5.582   5.276  1.4175  0.9429  1.9416
16588SOL    HW250981   7.165   5.465   5.371  1.3655 -0.1941  0.5662
16589SOL     OW50982   5.886   5.354   5.002  0.0198  0.1968 -0.1887
16589SOL    HW150983   5.911   5.341   4.911  0.4465  1.0284 -0.2029
16589SOL    HW250984   5.846   5.271   5.028  0.6650 -0.3440 -0.8764
16590SOL     OW50985   7.078   5.426   4.906 -0.0096 -0.2922  0.3752
16590SOL    HW150986   7.119   5.510   4.924 -1.0245  0.2005  0.4266
16590SOL    HW250987   7.028   5.405   4.985  1.4163 -1.6798  0.9601
16591SOL     OW50988   7.037   3.915   4.048 -0.2676 -0.3753 -0.2873
16591SOL    HW150989   6.947   3.941   4.029  0.3968  1.8431 -0.7966
16591SOL    HW250990   7.058   3.963   4.129 -0.1734 -2.5399  1.0395
16592SOL     OW50991   5.892   4.348   4.730 -0.2974  0.0968  0.0328
16592SOL    HW150992   5.837   4.377   4.658 -0.5535  0.6964  0.4616
16592SOL    HW250993   5.833   4.298   4.787 -0.3601  0.5742  0.3935
16593SOL     OW50994   7.582   4.086   5.751 -0.0637  0.1152 -0.6822
16593SOL    HW150995   7.591   3.996   5.721  1.4161 -0.0941  0.3008
16593SOL    HW250996   7.566   4.078   5.845 -0.5491  0.8746 -0.6900
16594SOL     OW50997   6.946   4.498   5.074 -0.8297 -0.7418  0.0524
16594SOL    HW150998   6.882   4.472   5.140 -0.9829 -0.8276 -0.1289
16594SOL    HW250999   6.903   4.480   4.990 -1.0524  0.3262 -0.0873
16595SOL     OW51000   6.448   4.896   4.044 -0.0662  0.0155  0.5077
16595SOL    HW151001   6.404   4.981   4.039 -0.1003 -0.0325 -0.0433
16595SOL    HW251002   6.381   4.836   4.077 -0.3834 -0.0336 -0.2164
16596SOL     OW51003   5.973   5.145   4.486  0.2325 -0.3037  0.7038
16596SOL    HW151004   5.992   5.159   4.393 -0.3785  0.6175  0.7076
16596SOL    HW251005   5.887   5.103   4.487  0.5295 -0.9237  0.8369
16597SOL     OW51006   6.543   4.486   4.825 -0.0477  0.6502  0.9722
16597SOL    HW151007   6.456   4.447   4.830 -0.0140  0.1873 -1.1933
16597SOL    HW251008   6.530   4.578   4.850 -1.0941  0.5074  0.9710
16598SOL     OW51009   6.528   4.468   3.877  0.4493  0.2447 -0.3718
16598SOL    HW151010   6.605   4.522   3.894  0.4987 -0.0896  0.5304
16598SOL    HW251011   6.560   4.395   3.824  0.6272  0.4351 -0.5269
16599SOL     OW51012   7.412   5.174   4.620  0.4662 -0.5351 -0.0391
16599SOL    HW151013   7.331   5.146   4.578  0.7437  0.7919 -1.5586
16599SOL    HW251014   7.383   5.217   4.701 -0.2433 -1.1814  0.0618
16600SOL     OW51015   5.748   5.130   5.156  0.8012 -0.0267  0.3787
16600SOL    HW151016   5.705   5.111   5.239  1.9695  0.9229  1.2330
16600SOL    HW251017   5.718   5.061   5.097 -1.4161  0.2756  1.0717
16601SOL     OW51018   5.722   5.168   4.248  0.1387 -0.1410 -0.3833
16601SOL    HW151019   5.675   5.230   4.192 -0.6018 -1.5130 -1.3726
16601SOL    HW251020   5.652   5.124   4.298  0.5447 -0.8404 -0.4194
16602SOL     OW51021   6.106   4.649   4.877 -0.2083 -0.0427 -0.3159
16602SOL    HW151022   6.025   4.622   4.921 -1.5064  1.9587 -1.3330
16602SOL    HW251023   6.093   4.742   4.857  1.6696 -0.0656 -1.9853
16603SOL     OW51024   7.384   3.759   5.102 -0.0613  0.3578  0.0416
16603SOL    HW151025   7.311   3.706   5.068 -1.4936  1.8612  0.6425
16603SOL    HW251026   7.395   3.729   5.192  2.3099 -2.1158 -0.9034
16604SOL     OW51027   5.574   4.266   4.489 -0.0960  0.1289 -0.2918
16604SOL    HW151028   5.504   4.241   4.548  0.0843  0.1697 -0.0578
16604SOL    HW251029   5.530   4.299   4.411 -0.3642  1.5784  0.4357
16605SOL     OW51030   7.571   5.066   4.973  0.0615 -0.4865  0.2194
16605SOL    HW151031   7.482   5.095   4.993 -0.0768 -1.5625  1.2315
16605SOL    HW251032   7.610   5.141   4.927 -1.2909  0.0725 -0.0770
16606SOL     OW51033   5.868   4.036   4.908  0.0087 -0.1411  0.2552
16606SOL    HW151034   5.806   4.099   4.872 -0.9518 -1.1320  0.1133
16606SOL    HW251035   5.951   4.056   4.865 -0.0630  1.5457  0.8325
16607SOL     OW51036   5.964   5.169   4.066  0.3297  0.5347  0.2262
16607SOL    HW151037   5.942   5.120   3.986  1.9215  0.1171  0.0223
16607SOL    HW251038   5.889   5.154   4.124 -0.5784  0.3421 -0.9464
16608SOL     OW51039   7.252   3.604   4.824  0.3208 -0.1957  0.3057
16608SOL    HW151040   7.239   3.633   4.734  1.8292  0.9326  0.4171
16608SOL    HW251041   7.165   3.606   4.863 -0.1523  0.5732 -0.7536
16609SOL     OW51042   7.227   3.556   4.503 -0.0443 -0.1050  0.1709
16609SOL    HW151043   7.256   3.494   4.436  0.0354 -1.2894  1.2533
16609SOL    HW251044   7.298   3.620   4.509  0.8843 -1.1369  0.5220
16610SOL     OW51045   6.114   4.592   4.314 -0.6385  0.6849 -0.3651
16610SOL    HW151046   6.040   4.532   4.309 -0.1550 -0.1966  1.9176
16610SOL    HW251047   6.099   4.643   4.393  0.9864  0.7571 -0.0611
16611SOL     OW51048   6.344   5.559   5.189 -0.0462  0.3524 -0.0364
16611SOL    HW151049   6.422   5.606   5.161  0.1823 -0.1898 -0.3124
16611SOL    HW251050   6.319   5.506   5.114 -0.5828  0.3903  0.1100
16612SOL     OW51051   7.124   3.662   3.764 -0.9425 -0.4197 -0.7600
16612SOL    HW151052   7.199   3.613   3.798 -1.8139 -1.2923 -0.0317
16612SOL    HW251053   7.144   3.675   3.671  0.7469  0.6078 -0.2996
16613SOL     OW51054   7.008   4.088   4.268  0.0403  0.1713  0.3180
16613SOL    HW151055   7.026   4.178   4.242  0.0171  0.0351 -0.1678
16613SOL    HW251056   6.934   4.095   4.328 -0.1448  0.4480  0.0599
16614SOL     OW51057   7.208   3.266   4.409  0.1956  0.0425 -0.3358
16614SOL    HW151058   7.134   3.275   4.350 -0.3608 -0.3563  0.2858
16614SOL    HW251059   7.284   3.290   4.357 -0.6212  3.3691 -0.2262
16615SOL     OW51060   5.398   5.278   3.784 -0.2419 -0.7055  0.2791
16615SOL    HW151061   5.450   5.200   3.801  0.3672 -0.2351  0.6067
16615SOL    HW251062   5.334   5.250   3.718  1.8490 -0.7201 -1.8973
16616SOL     OW51063   6.583   5.706   4.580  0.0715  0.1305  0.2816
16616SOL    HW151064   6.604   5.732   4.670 -1.1871  2.6284 -0.0863
16616SOL    HW251065   6.498   5.747   4.562 -0.7383 -2.0685 -1.3668
16617SOL     OW51066   5.663   4.693   5.656  0.0831 -0.2234 -0.6509
16617SOL    HW151067   5.568   4.677   5.660  0.0487  0.0342  2.4164
16617SOL    HW251068   5.674   4.779   5.696  1.6555 -0.5654 -0.2859
16618SOL     OW51069   5.608   3.747   6.776 -0.6318  0.3727 -0.2180
16618SOL    HW151070   5.615   3.733   6.682  0.9152 -1.6194  0.1395
16618SOL    HW251071   5.521   3.714   6.799 -1.0048  0.8470 -0.9076
16619SOL     OW51072   5.556   4.524   6.426  0.4567  0.1707  0.0378
16619SOL    HW151073   5.612   4.585   6.474  1.1480 -0.7526  0.4144
16619SOL    HW251074   5.494   4.491   6.491  0.5722 -0.1035  0.0105
16620SOL     OW51075   6.104   4.785   6.860 -0.1487  0.2147  0.3790
16620SOL    HW151076   6.073   4.841   6.789 -2.2474 -1.4657 -0.1326
16620SOL    HW251077   6.024   4.751   6.901  0.9502 -3.0177  0.1275
16621SOL     OW51078   7.306   5.216   6.261 -0.0152  0.1802  0.6409
16621SOL    HW151079   7.324   5.285   6.197  1.3416  0.2370  1.0512
16621SOL    HW251080   7.389   5.206   6.309  0.2306 -2.5498 -0.1791
16622SOL     OW51081   6.536   4.360   6.618 -0.0326 -0.2236  0.2999
16622SOL    HW151082   6.466   4.404   6.570 -0.1871  0.4028  1.0879
16622SOL    HW251083   6.594   4.326   6.549 -0.3108  0.5577 -0.3316
16623SOL     OW51084   7.468   4.379   5.979  0.6349 -0.2646  0.2892
16623SOL    HW151085   7.379   4.375   5.944  1.2288 -2.8468 -1.1699
16623SOL    HW251086   7.457   4.369   6.073 -0.6832  1.4909  0.3841
16624SOL     OW51087   6.427   4.707   7.023  0.3912  0.2113 -0.3257
16624SOL    HW151088   6.375   4.787   7.030  0.2394  0.0744  0.1442
16624SOL    HW251089   6.374   4.650   6.967 -1.2007 -0.8525  2.0569
16625SOL     OW51090   6.346   4.299   7.755 -0.4889  0.2365  0.1599
16625SOL    HW151091   6.411   4.230   7.751 -1.3813 -0.5837 -0.5326
16625SOL    HW251092   6.362   4.353   7.678 -0.3240  0.3309  0.2585
16626SOL     OW51093   6.389   4.717   6.586 -0.2615  0.1029  0.3483
16626SOL    HW151094   6.398   4.687   6.677  2.7555 -0.6747 -0.1150
16626SOL    HW251095   6.328   4.655   6.546 -0.3078 -0.5512  1.4023
16627SOL     OW51096   6.475   4.665   7.697 -0.4831  0.1143 -0.1120
16627SOL    HW151097   6.470   4.760   7.688 -0.9625  0.1213  0.2078
16627SOL    HW251098   6.527   4.637   7.622  1.4784  0.8159  0.9315
16628SOL     OW51099   6.001   5.127   6.509  0.0961  0.3876 -0.3401
16628SOL    HW151100   6.087   5.113   6.550 -0.2679 -0.0520  0.2906
16628SOL    HW251101   5.991   5.222   6.507 -0.7457  0.4464  2.4928
16629SOL     OW51102   6.979   5.162   6.909 -0.3785 -0.0730  0.4703
16629SOL    HW151103   6.890   5.127   6.911 -0.1014 -0.7516  1.4473
16629SOL    HW251104   6.966   5.257   6.911 -1.0852 -0.1352  3.6856
16630SOL     OW51105   5.880   4.538   7.660  0.2718 -0.0018  0.0917
16630SOL    HW151106   5.927   4.600   7.605  2.7438 -0.7700  1.2067
16630SOL    HW251107   5.836   4.480   7.597 -0.9949  1.9683 -0.9658
16631SOL     OW51108   6.856   4.494   6.291  0.0021  0.1207  0.1348
16631SOL    HW151109   6.912   4.564   6.256 -0.0019  0.4721  0.8230
16631SOL    HW251110   6.871   4.496   6.385  0.7520 -1.4714  0.0855
16632SOL     OW51111   6.055   5.796   6.470 -0.1525  0.0804  0.3848
16632SOL    HW151112   5.981   5.854   6.489 -1.2163 -0.9874 -0.3006
16632SOL    HW251113   6.058   5.791   6.375  0.2665 -0.5295  0.4233
16633SOL     OW51114   6.547   5.363   7.377 -0.8252 -0.3640  0.0424
16633SOL    HW151115   6.628   5.366   7.325 -1.3709 -1.6690 -0.9395
16633SOL    HW251116   6.501   5.286   7.344 -1.5370 -0.8122  1.9783
16634SOL     OW51117   5.898   5.209   6.090 -0.9529 -0.4639  0.4155
16634SOL    HW151118   5.839   5.137   6.110  0.7733 -2.6166 -1.6261
16634SOL    HW251119   5.979   5.167   6.063  0.2318  2.2517 -0.6570
16635SOL     OW51120   5.969   4.410   6.737 -0.2025  0.6537  0.6880
16635SOL    HW151121   5.983   4.419   6.831  1.9618  0.3893  0.4417
16635SOL    HW251122   5.967   4.315   6.722  0.1404  0.6900  0.3932
16636SOL     OW51123   5.924   5.679   7.556  0.2437  0.3668 -0.9390
16636SOL    HW151124   5.877   5.639   7.628 -1.0577 -1.1406 -2.5537
16636SOL    HW251125   5.856   5.718   7.501  1.1574  0.9997 -1.6562
16637SOL     OW51126   5.918   4.559   5.322  0.2710 -0.2464  0.2991
16637SOL    HW151127   5.920   4.606   5.405  0.4879  1.1050 -0.4488
16637SOL    HW251128   5.901   4.468   5.347 -0.7690  0.2999  1.7450
16638SOL     OW51129   7.141   3.625   7.325  0.3739 -0.0310 -0.4056
16638SOL    HW151130   7.156   3.620   7.420  0.0088 -1.6823 -0.4193
16638SOL    HW251131   7.047   3.639   7.316  0.2880 -0.6524 -0.5259
16639SOL     OW51132   5.579   4.560   6.010  0.9680 -0.2032  0.4904
16639SOL    HW151133   5.511   4.516   6.060  1.8967 -3.5913 -0.9530
16639SOL    HW251134   5.601   4.637   6.062 -3.2407  0.5923  1.4300
16640SOL     OW51135   7.553   5.840   6.069 -0.0433 -0.0538  0.2016
16640SOL    HW151136   7.498   5.798   6.003  0.6363 -0.1922 -0.2885
16640SOL    HW251137   7.566   5.773   6.136  0.1750 -0.2814 -0.0669
16641SOL     OW51138   5.589   5.036   5.356  0.4311 -0.1930 -0.2463
16641SOL    HW151139   5.630   4.949   5.367 -1.3572 -1.0737 -0.2261
16641SOL    HW251140   5.521   5.022   5.290  1.0609  1.5654 -1.3454
16642SOL     OW51141   7.395   4.892   6.173 -0.0690 -0.3455  0.2466
16642SOL    HW151142   7.480   4.868   6.208 -0.5070 -0.8410  0.9948
16642SOL    HW251143   7.387   4.986   6.192  0.8339  0.0022 -0.9711
16643SOL     OW51144   7.341   4.623   6.119 -0.3055  0.1620 -0.1297
16643SOL    HW151145   7.247   4.612   6.113 -0.6751  0.8471  2.9531
16643SOL    HW251146   7.353   4.715   6.142  1.2147  0.3224 -1.3762
16644SOL     OW51147   5.387   4.314   7.310  0.8133  0.3340 -0.2699
16644SOL    HW151148   5.311   4.362   7.275  2.1710  1.8085 -1.3509
16644SOL    HW251149   5.445   4.304   7.234  1.1389 -1.9490  0.2389
16645SOL     OW51150   6.208   4.930   6.055  0.1986  0.2951  0.1487
16645SOL    HW151151   6.221   4.842   6.090 -1.2720  0.2322  0.5949
16645SOL    HW251152   6.194   4.985   6.132  0.7098  0.8663 -0.1521
16646SOL     OW51153   6.599   4.811   7.356  0.0415 -0.6766  0.4472
16646SOL    HW151154   6.525   4.762   7.321  1.1147 -1.8851 -0.2059
16646SOL    HW251155   6.663   4.744   7.381  1.1713  0.3547  0.3998
16647SOL     OW51156   5.738   4.242   6.037  0.3840  0.4692 -0.1672
16647SOL    HW151157   5.709   4.225   6.126 -0.3004 -0.4831 -0.5580
16647SOL    HW251158   5.800   4.315   6.045  0.7753  0.0083  1.1440
16648SOL     OW51159   5.687   4.525   7.124  0.0626  0.3011 -0.0373
16648SOL    HW151160   5.629   4.601   7.127  0.8080  0.8628  0.7948
16648SOL    HW251161   5.629   4.450   7.134 -0.5601  0.8341  0.4615
16649SOL     OW51162   7.063   4.610   5.896 -0.2924 -0.3826 -0.4939
16649SOL    HW151163   7.020   4.679   5.946 -1.1502 -1.1914 -0.1012
16649SOL    HW251164   7.118   4.657   5.834 -0.4683  0.6514  0.1063
16650SOL     OW51165   6.404   5.599   6.920  0.0779  0.1023 -0.3553
16650SOL    HW151166   6.317   5.623   6.953  0.5118  1.9814 -0.4650
16650SOL    HW251167   6.421   5.513   6.958 -1.6409 -0.1108  0.0256
16651SOL     OW51168   5.826   4.176   7.794  0.4609  0.2918  0.4626
16651SOL    HW151169   5.816   4.270   7.803  1.2328  0.2784  1.6877
16651SOL    HW251170   5.921   4.162   7.792  0.3976 -0.2991 -1.9014
16652SOL     OW51171   7.108   5.147   6.431  0.6688 -0.1332  0.3336
16652SOL    HW151172   7.095   5.054   6.410 -0.1604  0.2225 -0.8590
16652SOL    HW251173   7.179   5.175   6.374  0.3869  0.1510  0.1215
16653SOL     OW51174   7.170   5.538   6.345  0.0518  0.4441 -0.8228
16653SOL    HW151175   7.087   5.576   6.315  0.1420  1.0626 -0.3113
16653SOL    HW251176   7.148   5.498   6.429 -0.0195 -0.5622 -1.3146
16654SOL     OW51177   6.510   4.376   6.171 -0.0145  0.0709  0.5134
16654SOL    HW151178   6.595   4.339   6.149 -0.2916 -1.0079  1.1966
16654SOL    HW251179   6.522   4.470   6.163  0.8221 -0.1259 -0.8675
16655SOL     OW51180   6.929   4.519   6.556 -0.0282  0.5561  0.6846
16655SOL    HW151181   7.022   4.498   6.558  0.0392  0.5524 -0.9755
16655SOL    HW251182   6.889   4.459   6.618  1.1371  1.0086  1.9218
16656SOL     OW51183   7.353   5.374   6.020  0.1207 -0.1171 -0.0886
16656SOL    HW151184   7.406   5.309   5.973 -0.4443 -0.8934  0.3334
16656SOL    HW251185   7.273   5.380   5.968 -0.9249 -1.7067  1.2669
16657SOL     OW51186   6.074   4.461   7.005 -0.0682  0.1277 -0.1143
16657SOL    HW151187   6.026   4.539   7.033  0.5487  0.5096 -0.0957
16657SOL    HW251188   6.048   4.394   7.067 -0.2467  0.4442  0.1602
16658SOL     OW51189   7.041   4.389   7.541 -0.1367 -0.4193  0.3161
16658SOL    HW151190   7.055   4.407   7.449 -0.2624 -2.5003 -0.1680
16658SOL    HW251191   6.947   4.372   7.549  0.0278 -1.2538  0.6106
16659SOL     OW51192   6.366   4.065   6.954 -0.3425 -0.2146  0.4678
16659SOL    HW151193   6.395   4.098   6.869  0.3298  0.6179  1.0089
16659SOL    HW251194   6.270   4.062   6.946 -0.2268 -1.7605 -0.8815
16660SOL     OW51195   6.452   4.127   6.707 -0.4898  0.1928 -0.4388
16660SOL    HW151196   6.486   4.215   6.688  0.3670 -0.1880 -0.6935
16660SOL    HW251197   6.530   4.072   6.714 -1.0757 -0.9206 -2.1232
16661SOL     OW51198   6.482   4.641   6.102  0.0379 -0.1856 -0.4909
16661SOL    HW151199   6.509   4.656   6.011 -2.1292 -2.9711 -1.7721
16661SOL    HW251200   6.387   4.654   6.100 -0.0394 -0.2718  1.4141
16662SOL     OW51201   5.810   4.468   5.876  0.0257 -0.0132 -0.0976
16662SOL    HW151202   5.766   4.410   5.814 -0.7153 -1.3710  1.6287
16662SOL    HW251203   5.739   4.508   5.926  0.6530  0.0516  0.7569
16663SOL     OW51204   5.371   5.765   6.887  0.0936 -0.4028  0.4350
16663SOL    HW151205   5.366   5.744   6.980  0.3501 -0.3648  0.4579
16663SOL    HW251206   5.286   5.741   6.852 -0.3392  0.4675  0.8569
16664SOL     OW51207   6.109   4.066   5.699 -0.1235 -0.2140  0.3182
16664SOL    HW151208   6.145   4.152   5.720  2.1743 -0.7368 -1.1351
16664SOL    HW251209   6.038   4.054   5.762 -1.4862  3.3011 -0.3288
16665SOL     OW51210   7.155   4.523   7.773  0.3790 -0.0397  0.3358
16665SOL    HW151211   7.078   4.492   7.726  0.4713  0.1535  0.0490
16665SOL    HW251212   7.131   4.520   7.865  1.0167 -2.7505  0.4894
16666SOL     OW51213   6.778   5.017   5.868  0.1160 -0.4099  0.2257
16666SOL    HW151214   6.712   5.086   5.870 -1.1318 -1.4802 -1.9461
16666SOL    HW251215   6.854   5.058   5.827  0.2178  0.2992  1.0836
16667SOL     OW51216   6.220   4.214   6.454 -0.2789 -0.2989 -0.0140
16667SOL    HW151217   6.247   4.181   6.540 -1.3189  0.5037  0.6406
16667SOL    HW251218   6.191   4.136   6.407  1.7505 -0.9824 -0.2390
16668SOL     OW51219   6.627   5.245   5.934 -0.0517  0.0712 -0.1504
16668SOL    HW151220   6.632   5.310   5.864 -0.1798  0.6750  0.3942
16668SOL    HW251221   6.537   5.214   5.930  0.1062 -0.3438 -0.6431
16669SOL     OW51222   5.775   5.612   6.535  0.6541 -0.3987  0.7118
16669SOL    HW151223   5.755   5.705   6.535 -0.0634 -0.5468  1.1996
16669SOL    HW251224   5.775   5.587   6.443  0.7541  0.0536  0.5840
16670SOL     OW51225   7.016   4.873   6.617 -0.0135  0.1066 -0.6200
16670SOL    HW151226   7.063   4.803   6.572  1.2362 -0.1147  0.9374
16670SOL    HW251227   6.949   4.828   6.667  0.1068  0.1219 -0.4444
16671SOL     OW51228   6.499   5.363   7.021  0.1386 -0.4724  0.2888
16671SOL    HW151229   6.451   5.338   7.100  0.1704 -0.8550  0.1866
16671SOL    HW251230   6.494   5.286   6.964 -0.0284 -0.1360 -0.1534
16672SOL     OW51231   5.993   4.264   5.302  1.0424 -0.6324 -0.1677
16672SOL    HW151232   5.981   4.277   5.396  2.4400 -1.0998  0.0980
16672SOL    HW251233   5.905   4.245   5.269  0.1513  1.6529  0.6643
16673SOL     OW51234   6.667   4.858   6.048 -0.1610 -0.1222  0.5533
16673SOL    HW151235   6.581   4.894   6.068 -0.3545 -0.4559  0.3234
16673SOL    HW251236   6.708   4.924   5.991 -1.0743 -0.8881 -1.0755
16674SOL     OW51237   5.887   4.505   7.376 -0.3032  0.0390  0.1635
16674SOL    HW151238   5.839   4.525   7.295  1.4613  0.2994 -0.8616
16674SOL    HW251239   5.891   4.410   7.380 -1.4485 -0.0065  0.6179
16675SOL     OW51240   6.593   5.411   5.722 -0.0984  0.1046  0.1486
16675SOL    HW151241   6.585   5.379   5.632 -1.0376 -1.6171  0.8066
16675SOL    HW251242   6.648   5.489   5.715 -0.4854  0.2374 -1.9629
16676SOL     OW51243   5.326   4.009   7.149  0.4585  0.6686 -0.4730
16676SOL    HW151244   5.275   3.991   7.070  1.0593  1.6070 -1.0949
16676SOL    HW251245   5.409   4.045   7.117  1.2666 -0.2095  0.5414
16677SOL     OW51246   7.499   5.205   6.494 -0.3513  0.1795 -0.4352
16677SOL    HW151247   7.580   5.223   6.542 -0.5986 -0.1709  0.1163
16677SOL    HW251248   7.461   5.129   6.538 -1.5336  0.9890 -0.0176
16678SOL     OW51249   5.961   5.431   5.693 -0.0828  0.5525 -0.0125
16678SOL    HW151250   5.882   5.413   5.744 -0.2510  0.7079 -0.2158
16678SOL    HW251251   6.008   5.348   5.692 -0.4705  0.3329 -0.2830
16679SOL     OW51252   7.238   3.983   6.243  0.6960  0.2149  0.3082
16679SOL    HW151253   7.181   3.941   6.178 -0.1530  1.7733 -0.0194
16679SOL    HW251254   7.243   3.920   6.315  0.4244 -0.9166 -0.6269
16680SOL     OW51255   5.510   5.458   6.628 -0.3779 -0.1115  0.3285
16680SOL    HW151256   5.584   5.518   6.621  0.2956 -0.5287  2.7000
16680SOL    HW251257   5.475   5.451   6.540  2.4865  0.0338 -0.9194
16681SOL     OW51258   6.753   5.413   6.417  0.3298  0.1297  0.4568
16681SOL    HW151259   6.756   5.328   6.461  0.6739  0.1047  0.3874
16681SOL    HW251260   6.692   5.400   6.344 -0.2486  0.1750  0.9267
16682SOL     OW51261   6.176   4.359   6.157  0.2941  0.1245 -0.0545
16682SOL    HW151262   6.263   4.331   6.186  0.5258 -0.1964 -1.0400
16682SOL    HW251263   6.177   4.348   6.062 -0.6514  0.6109 -0.1352
16683SOL     OW51264   7.161   4.180   7.310  0.4172 -0.0289  0.2601
16683SOL    HW151265   7.075   4.218   7.292  0.7204  0.8185  0.5630
16683SOL    HW251266   7.189   4.143   7.227  0.6928  1.5897 -0.4011
16684SOL     OW51267   5.690   4.032   5.552 -0.7823 -0.6395 -0.1958
16684SOL    HW151268   5.625   3.967   5.524 -0.6446  0.2657 -2.8954
16684SOL    HW251269   5.773   3.985   5.549 -0.9901 -1.0842  0.6709
16685SOL     OW51270   6.604   3.726   7.355  0.2201  0.0430  0.5001
16685SOL    HW151271   6.554   3.724   7.274  0.6298  1.2497  0.2025
16685SOL    HW251272   6.538   3.740   7.423  0.0718  1.1042  0.1592
16686SOL     OW51273   6.455   5.136   6.884  0.0104  0.3456  0.2071
16686SOL    HW151274   6.422   5.072   6.947  0.5878  0.5019  0.6806
16686SOL    HW251275   6.428   5.102   6.799 -0.8304  0.1597  0.5346
16687SOL     OW51276   6.984   4.076   6.765 -0.0731 -0.2745  0.2886
16687SOL    HW151277   6.993   4.003   6.704 -1.5074 -1.0492  0.9438
16687SOL    HW251278   7.070   4.086   6.804  0.3996 -0.9387 -0.5550
16688SOL     OW51279   6.605   5.012   6.372  0.0661  0.7314  0.3377
16688SOL    HW151280   6.687   5.046   6.336 -0.4360  0.7417 -0.8459
16688SOL    HW251281   6.605   4.919   6.349 -0.4949  0.8483 -0.1860
16689SOL     OW51282   6.162   3.976   6.352  0.3832  0.6782  0.3528
16689SOL    HW151283   6.081   3.927   6.337  0.3723  0.2969  1.5259
16689SOL    HW251284   6.231   3.913   6.331  0.4049  1.3463 -1.7066
16690SOL     OW51285   5.965   3.818   5.978  0.1623 -0.0359  0.5412
16690SOL    HW151286   5.898   3.862   5.926 -0.8704 -0.9743  1.0278
16690SOL    HW251287   5.947   3.844   6.068  0.8395  0.1849  0.6161
16691SOL     OW51288   6.935   4.827   6.053 -0.1439 -0.5940  0.4206
16691SOL    HW151289   6.961   4.915   6.027 -0.5804 -0.9146 -1.2259
16691SOL    HW251290   6.840   4.825   6.039 -0.2696 -1.0771  1.2656
16692SOL     OW51291   5.930   3.598   5.693  0.3733 -0.1756  0.2408
16692SOL    HW151292   5.885   3.643   5.764  2.2386 -0.7134  1.8377
16692SOL    HW251293   5.909   3.649   5.615 -1.3811  0.6777  1.2213
16693SOL     OW51294   6.284   3.976   5.926 -0.4674 -0.1565  0.3211
16693SOL    HW151295   6.236   4.025   5.993  0.4376  0.5080  0.5059
16693SOL    HW251296   6.224   3.905   5.900 -1.9097  1.1690 -0.1284
16694SOL     OW51297   6.722   4.042   7.554 -0.1756  0.0616  0.4321
16694SOL    HW151298   6.698   4.092   7.476 -1.0251 -0.4243  0.3691
16694SOL    HW251299   6.660   3.969   7.556  1.3583 -1.2998  0.2341
16695SOL     OW51300   6.911   5.587   6.282  0.3991 -0.5570 -0.1374
16695SOL    HW151301   6.872   5.531   6.348 -0.0291 -0.4570 -0.3035
16695SOL    HW251302   6.837   5.619   6.230  0.4761  1.2598  0.7841
16696SOL     OW51303   6.107   4.779   6.336 -0.1445  0.2860 -0.5318
16696SOL    HW151304   6.097   4.868   6.301 -2.0729  0.0908 -0.5707
16696SOL    HW251305   6.099   4.790   6.431 -1.5007  0.0549 -0.5997
16697SOL     OW51306   6.358   5.500   5.850 -0.1734  0.2598 -0.0087
16697SOL    HW151307   6.320   5.508   5.763  1.2804  0.3020 -0.6624
16697SOL    HW251308   6.452   5.491   5.835  0.0937  0.1374  1.5501
16698SOL     OW51309   6.597   4.136   5.613  0.7993 -0.1369 -0.6898
16698SOL    HW151310   6.588   4.098   5.700 -0.7136 -0.1216 -0.8146
16698SOL    HW251311   6.565   4.067   5.554  0.8465  0.2257 -1.1426
16699SOL     OW51312   5.455   4.605   7.518 -0.2178  0.2526 -0.1212
16699SOL    HW151313   5.479   4.516   7.495 -0.2593 -0.4046  2.1496
16699SOL    HW251314   5.447   4.650   7.434  0.0097 -1.8068 -1.3163
16700SOL     OW51315   6.166   4.063   6.696 -0.3286 -0.0660  0.6726
16700SOL    HW151316   6.124   3.993   6.645  1.2868 -1.4649  1.1823
16700SOL    HW251317   6.260   4.051   6.681  0.0444  1.2321  1.7769
16701SOL     OW51318   6.209   4.666   6.123  0.8215  0.1770 -0.1451
16701SOL    HW151319   6.174   4.710   6.201  1.7417  2.1791 -0.7988
16701SOL    HW251320   6.182   4.575   6.133 -2.6117  1.1254  0.4878
16702SOL     OW51321   6.215   3.533   6.452 -0.2698 -0.3873 -0.3500
16702SOL    HW151322   6.275   3.481   6.506  1.5730  1.0717 -0.8975
16702SOL    HW251323   6.266   3.611   6.428 -1.3971 -0.4339 -3.2457
16703SOL     OW51324   6.872   5.109   6.292 -0.2302  0.0774 -0.3761
16703SOL    HW151325   6.926   5.130   6.368 -0.0264 -1.1235 -0.1743
16703SOL    HW251326   6.933   5.076   6.227 -0.2506  2.0949 -1.5003
16704SOL     OW51327   7.191   4.574   6.588  0.2669 -0.0051 -0.0804
16704SOL    HW151328   7.231   4.576   6.675 -0.4358  0.2088  0.2430
16704SOL    HW251329   7.246   4.632   6.536  0.8671 -0.3630  0.1418
16705SOL     OW51330   7.687   4.374   5.819  0.6529 -0.1172 -0.2322
16705SOL    HW151331   7.628   4.329   5.758  2.9632 -2.3645 -0.9970
16705SOL    HW251332   7.634   4.387   5.897 -1.1153 -1.2721 -1.1489
16706SOL     OW51333   5.995   4.963   5.458 -0.3307  0.0619 -0.0552
16706SOL    HW151334   6.025   4.908   5.531 -1.1323 -0.0528  0.1956
16706SOL    HW251335   5.952   5.037   5.501  0.7324  0.8899 -0.3917
16707SOL     OW51336   7.069   5.115   6.078 -0.2124 -0.3255  0.9005
16707SOL    HW151337   7.066   5.184   6.011 -0.2952 -1.0587  0.1394
16707SOL    HW251338   7.132   5.148   6.143  1.9446 -0.7708 -0.8450
16708SOL     OW51339   6.758   4.304   6.086  0.5619 -0.2376 -0.3230
16708SOL    HW151340   6.811   4.329   6.162 -0.4102  2.6192 -0.4689
16708SOL    HW251341   6.788   4.362   6.016 -1.3490  0.0854 -0.9320
16709SOL     OW51342   5.837   4.064   5.851 -0.3459  0.2029  0.3131
16709SOL    HW151343   5.794   4.102   5.928  1.6258  1.2427  0.9706
16709SOL    HW251344   5.793   4.105   5.777 -0.5286  1.2243  0.9618
16710SOL     OW51345   7.322   4.757   6.445  0.2131  0.2588 -0.4347
16710SOL    HW151346   7.394   4.756   6.382 -1.1636 -1.6101 -2.1099
16710SOL    HW251347   7.334   4.839   6.493  1.7923  1.4386 -2.6125
16711SOL     OW51348   6.417   4.595   7.263 -0.2759  0.0396 -0.3765
16711SOL    HW151349   6.413   4.503   7.237 -0.8465  0.3655 -1.4942
16711SOL    HW251350   6.437   4.642   7.182  0.3771  0.8725  0.2496
16712SOL     OW51351   6.741   5.077   7.117 -0.3039 -0.0464 -0.3252
16712SOL    HW151352   6.812   5.138   7.099  0.6368 -1.1089 -0.2857
16712SOL    HW251353   6.783   5.000   7.154 -1.4823 -0.6833 -0.2408
16713SOL     OW51354   6.451   5.001   6.624  0.4218 -0.3399  0.3015
16713SOL    HW151355   6.452   4.905   6.625  2.6929 -0.5307 -3.1287
16713SOL    HW251356   6.511   5.025   6.553 -1.1202  3.6356  0.0807
16714SOL     OW51357   7.188   5.037   6.785 -0.3490  0.1924 -0.0211
16714SOL    HW151358   7.125   5.073   6.847 -0.5822 -0.7438  0.3034
16714SOL    HW251359   7.137   4.978   6.730  0.4471 -1.6998  1.1676
16715SOL     OW51360   6.624   4.185   7.333  0.4969  0.4087 -0.1592
16715SOL    HW151361   6.547   4.138   7.299  1.6059 -1.0216 -0.7869
16715SOL    HW251362   6.649   4.243   7.261 -0.0360  0.9494  0.0828
16716SOL     OW51363   6.724   4.902   7.712  0.5493 -0.1606  0.1828
16716SOL    HW151364   6.687   4.965   7.650  3.8950  1.2003 -0.6336
16716SOL    HW251365   6.729   4.950   7.795 -0.1793 -0.6229  0.5095
16717SOL     OW51366   5.845   4.656   6.350 -0.2969 -0.4560  0.0004
16717SOL    HW151367   5.917   4.712   6.379 -1.2684  0.9487 -0.2627
16717SOL    HW251368   5.815   4.613   6.431  0.3649 -0.5192  0.2232
16718SOL     OW51369   6.039   4.072   6.934  0.0341  0.1200 -0.7934
16718SOL    HW151370   5.961   4.121   6.910 -1.8235 -2.3744 -0.2939
16718SOL    HW251371   6.089   4.063   6.853 -1.4733 -0.3139 -1.7060
16719SOL     OW51372   7.247   4.006   7.062  0.0694  0.3136  0.0895
16719SOL    HW151373   7.152   4.016   7.065  0.0303  0.1185 -0.3940
16719SOL    HW251374   7.270   4.021   6.971  0.7382  2.2956  0.5403
16720SOL     OW51375   5.942   5.311   6.999  0.2104 -0.4295  0.3000
16720SOL    HW151376   5.950   5.371   7.073  1.7345 -0.4574  0.1910
16720SOL    HW251377   5.941   5.367   6.922  0.7812 -0.5058  0.2382
16721SOL     OW51378   5.634   4.768   6.231 -0.0406  0.8237  0.6977
16721SOL    HW151379   5.697   4.711   6.275  0.1348 -0.0927 -0.6790
16721SOL    HW251380   5.549   4.744   6.268  0.1855  0.5816  1.0618
16722SOL     OW51381   5.951   4.366   6.366 -0.5717  0.2256 -0.6431
16722SOL    HW151382   5.972   4.459   6.367  1.2324 -0.1441 -0.9365
16722SOL    HW251383   6.032   4.323   6.339 -1.5690 -1.3887 -1.2239
16723SOL     OW51384   6.726   5.171   5.585  0.0592 -0.4430  0.0056
16723SOL    HW151385   6.633   5.166   5.608 -0.2111  2.5946  0.0077
16723SOL    HW251386   6.738   5.104   5.518 -2.0805 -1.0452  0.1454
16724SOL     OW51387   6.669   5.614   6.559  0.2677 -0.1633 -0.2497
16724SOL    HW151388   6.587   5.599   6.606  1.1783  0.2761  1.5629
16724SOL    HW251389   6.680   5.536   6.504 -1.3467 -0.2168 -0.5361
16725SOL     OW51390   7.121   4.630   6.277  0.3924  0.1146 -0.5075
16725SOL    HW151391   7.171   4.657   6.354 -0.2636 -0.5948  0.1731
16725SOL    HW251392   7.121   4.535   6.280 -2.1983  0.0605  0.3321
16726SOL     OW51393   5.974   4.857   6.593 -0.2748 -0.4665 -0.3846
16726SOL    HW151394   5.887   4.847   6.631 -0.5448  0.3594 -0.7774
16726SOL    HW251395   5.975   4.945   6.556 -0.5215 -1.6745 -3.5755
16727SOL     OW51396   5.610   4.820   7.593  0.7909 -0.8333  0.4238
16727SOL    HW151397   5.543   4.752   7.598  1.1138 -1.0557  2.5332
16727SOL    HW251398   5.625   4.847   7.684  2.8667 -0.0990 -0.0672
16728SOL     OW51399   7.053   4.523   7.288 -0.1137  0.0326  0.4853
16728SOL    HW151400   7.116   4.571   7.341  0.1767  0.6390 -0.3900
16728SOL    HW251401   7.007   4.591   7.239 -0.6554 -0.4932  0.2570
16729SOL     OW51402   6.678   3.947   7.887 -0.3500 -0.3840 -0.1232
16729SOL    HW151403   6.739   3.925   7.817  0.4226  1.3171 -0.0405
16729SOL    HW251404   6.725   3.922   7.967  0.2174  0.8232 -0.0648
16730SOL     OW51405   5.878   4.250   7.497  0.1549  0.0885 -0.0761
16730SOL    HW151406   5.882   4.156   7.517  0.7730  0.1278 -0.0052
16730SOL    HW251407   5.786   4.266   7.476 -0.6546  0.1064  3.0689
16731SOL     OW51408   6.270   4.588   6.857 -0.0771 -0.1640  0.2698
16731SOL    HW151409   6.220   4.507   6.871 -0.4467 -0.0568 -0.3557
16731SOL    HW251410   6.205   4.658   6.865  0.1343  0.0309  0.2799
16732SOL     OW51411   6.763   4.732   6.601  0.3059 -0.7142 -0.0426
16732SOL    HW151412   6.710   4.752   6.524  2.6638  0.2983 -1.4982
16732SOL    HW251413   6.826   4.667   6.570  1.0410 -0.5931  1.1485
16733SOL     OW51414   7.125   4.196   6.081  0.1193 -0.0852 -0.5055
16733SOL    HW151415   7.128   4.272   6.140 -0.9997  0.6035 -1.3051
16733SOL    HW251416   7.154   4.123   6.135  1.9195  0.9937  0.1099
16734SOL     OW51417   5.601   4.306   7.472 -0.3390 -0.2617 -0.5567
16734SOL    HW151418   5.605   4.257   7.554  0.5336 -1.0399 -1.0367
16734SOL    HW251419   5.523   4.274   7.428 -1.0703  0.4886  0.1466
16735SOL     OW51420   5.630   5.009   6.920 -0.3292 -0.0367 -0.3666
16735SOL    HW151421   5.691   5.013   6.994  0.3882 -0.3244 -0.9345
16735SOL    HW251422   5.629   5.098   6.886 -2.0199  0.5477  1.0377
16736SOL     OW51423   5.785   4.543   6.587 -0.4741  0.1822  0.1211
16736SOL    HW151424   5.744   4.532   6.673 -1.2451 -1.3842 -0.4072
16736SOL    HW251425   5.868   4.495   6.593 -0.2367  0.5952  0.1751
16737SOL     OW51426   7.302   4.647   6.850  0.2180 -0.5838 -0.0080
16737SOL    HW151427   7.279   4.722   6.906  0.0279 -0.1341 -0.6796
16737SOL    HW251428   7.396   4.658   6.833 -0.0145  0.0557 -0.9139
16738SOL     OW51429   6.083   3.653   6.687  0.0297 -0.0265 -0.1666
16738SOL    HW151430   6.022   3.727   6.685 -0.8083 -0.7329 -0.7767
16738SOL    HW251431   6.072   3.610   6.603 -0.1844 -1.4160  0.5476
16739SOL     OW51432   7.399   4.170   6.247  0.4822 -0.4300  0.1292
16739SOL    HW151433   7.330   4.103   6.251  0.4139 -0.4015 -0.4759
16739SOL    HW251434   7.468   4.136   6.304 -0.8290  0.4919  2.3634
16740SOL     OW51435   6.527   4.455   6.869 -0.5488 -0.1200  0.0931
16740SOL    HW151436   6.533   4.435   6.776  0.9426  0.3404  0.0612
16740SOL    HW251437   6.438   4.488   6.881 -1.0109 -0.8893 -1.0058
16741SOL     OW51438   6.324   5.605   7.351 -0.4814  0.2881  0.2776
16741SOL    HW151439   6.271   5.646   7.283  1.2402 -0.1184 -1.4069
16741SOL    HW251440   6.281   5.522   7.370 -1.0458  0.4674 -0.2093
16742SOL     OW51441   6.990   4.976   7.210 -0.5185  0.1802  0.1989
16742SOL    HW151442   7.067   4.979   7.152 -0.4070  3.2232  0.3540
16742SOL    HW251443   7.025   4.946   7.294  0.8986  2.7889  0.6534
16743SOL     OW51444   6.172   4.689   7.696  0.2410 -0.4788  0.0455
16743SOL    HW151445   6.160   4.639   7.616  3.3758  0.9384 -1.4718
16743SOL    HW251446   6.267   4.692   7.709 -0.0737  0.9741  2.7603
16744SOL     OW51447   7.337   3.891   5.988  0.2585  0.2129 -0.0705
16744SOL    HW151448   7.307   3.917   5.900 -0.4856 -1.0698 -0.2232
16744SOL    HW251449   7.258   3.856   6.030  0.3981  1.5870  1.4484
16745SOL     OW51450   6.731   4.553   5.611 -0.4863 -0.0622 -0.2969
16745SOL    HW151451   6.719   4.634   5.660  1.7492 -0.7426  1.5476
16745SOL    HW251452   6.642   4.517   5.602 -1.1173  0.4304  2.7714
16746SOL     OW51453   6.810   5.171   6.585  0.0156 -1.0006 -0.3913
16746SOL    HW151454   6.774   5.121   6.658 -0.5019 -1.9064 -1.2519
16746SOL    HW251455   6.816   5.109   6.513 -1.0387  0.2549 -1.6213
16747SOL     OW51456   5.813   4.171   6.813 -0.3907  0.5565  0.0470
16747SOL    HW151457   5.726   4.156   6.849 -0.0006 -2.2374  0.0328
16747SOL    HW251458   5.801   4.167   6.718 -0.1753 -0.6005  0.0526
16748SOL     OW51459   5.810   4.069   7.201  0.1384 -0.1321 -0.1992
16748SOL    HW151460   5.820   4.002   7.269 -1.3007  0.6188  0.8135
16748SOL    HW251461   5.785   4.021   7.123 -1.1871 -0.7745  0.5874
16749SOL     OW51462   6.446   4.388   7.503  0.1884 -0.8380  0.1385
16749SOL    HW151463   6.410   4.324   7.442 -0.1062 -1.2763  0.7610
16749SOL    HW251464   6.407   4.471   7.476 -3.9326 -1.6289  2.6022
16750SOL     OW51465   6.821   3.827   7.160 -0.2739 -0.6301  0.1557
16750SOL    HW151466   6.854   3.751   7.208  0.8646  0.3966  1.0694
16750SOL    HW251467   6.744   3.856   7.210  1.4197  0.9804  2.0425
16751SOL     OW51468   5.605   4.929   5.038  0.2437  0.2072  0.1407
16751SOL    HW151469   5.545   4.906   4.967  2.3896 -1.3665 -1.3010
16751SOL    HW251470   5.597   4.856   5.100  1.3659 -0.5419 -0.5677
16752SOL     OW51471   5.684   5.028   6.191  0.1434 -0.1264 -0.0948
16752SOL    HW151472   5.605   5.069   6.228  1.0236 -0.2102  2.0471
16752SOL    HW251473   5.672   4.934   6.206 -0.0259 -0.2944 -1.2040
16753SOL     OW51474   6.134   5.061   6.269 -0.3346 -0.4920  0.2576
16753SOL    HW151475   6.065   5.058   6.336 -1.1227  0.7414 -0.4657
16753SOL    HW251476   6.166   5.151   6.272 -0.7463 -0.2621 -1.3548
16754SOL     OW51477   6.680   4.332   7.093  0.4899  0.0192 -0.5330
16754SOL    HW151478   6.735   4.408   7.077 -1.1599  1.4043  0.0803
16754SOL    HW251479   6.620   4.330   7.018  1.6093 -1.7809 -1.4716
16755SOL     OW51480   5.597   4.252   7.121 -0.6236  0.6930  0.3793
16755SOL    HW151481   5.668   4.198   7.154 -2.0705 -0.2272  2.0981
16755SOL    HW251482   5.568   4.208   7.041 -0.2040  0.3051  0.4398
16756SOL     OW51483   5.753   4.432   7.880 -0.1869  0.8404 -0.0672
16756SOL    HW151484   5.772   4.480   7.799 -0.1974  0.2930 -0.4033
16756SOL    HW251485   5.793   4.484   7.949  0.1497  1.1241 -0.4708
16757SOL     OW51486   6.947   4.281   7.191  1.2538  0.2910  0.0769
16757SOL    HW151487   6.956   4.374   7.210  0.8551  0.7859 -1.9951
16757SOL    HW251488   6.854   4.270   7.168  1.2922 -0.6267  0.3187
16758SOL     OW51489   6.245   4.302   5.791 -0.2549 -0.5709  0.8835
16758SOL    HW151490   6.340   4.292   5.796 -0.2771 -0.5897  1.3896
16758SOL    HW251491   6.230   4.353   5.712  0.3492  1.3679  1.9479
16759SOL     OW51492   7.136   4.275   6.549 -0.2709  0.2837 -0.4817
16759SOL    HW151493   7.061   4.284   6.608  0.6686  0.6180  0.7058
16759SOL    HW251494   7.211   4.264   6.607  0.6497  0.2512 -1.6384
16760SOL     OW51495   5.754   5.159   7.162  0.2777  0.1905  0.2247
16760SOL    HW151496   5.676   5.215   7.168 -0.7751 -0.9110 -1.9859
16760SOL    HW251497   5.804   5.196   7.089  2.6651  1.7361  2.4685
16761SOL     OW51498   6.364   4.447   6.412 -0.6420  0.4763  0.2090
16761SOL    HW151499   6.300   4.378   6.427  2.6627 -2.9016  0.3480
16761SOL    HW251500   6.391   4.436   6.321  0.0455  1.4778  0.2708
16762SOL     OW51501   6.264   4.927   7.005  0.2797  0.2643  0.2217
16762SOL    HW151502   6.213   5.003   7.034  0.4440  0.2517  0.5546
16762SOL    HW251503   6.203   4.874   6.955  0.1642  0.6201 -0.0177
16763SOL     OW51504   6.010   4.684   5.892  1.0272 -0.4540 -0.2404
16763SOL    HW151505   6.070   4.661   5.964 -0.0226  1.8707  1.5133
16763SOL    HW251506   5.953   4.608   5.884  2.4533 -1.5988 -0.0588
16764SOL     OW51507   5.811   4.902   7.138  0.1933 -0.0318 -0.1995
16764SOL    HW151508   5.813   4.997   7.143  0.5164 -0.0181 -0.5171
16764SOL    HW251509   5.753   4.875   7.209 -0.6758  0.4513 -0.7128
16765SOL     OW51510   6.775   4.958   6.786 -0.2466 -0.6530 -0.4641
16765SOL    HW151511   6.757   4.901   6.711 -1.9373 -0.2428 -0.4233
16765SOL    HW251512   6.715   4.927   6.854 -0.7335  0.7362 -0.2256
16766SOL     OW51513   6.659   4.741   6.327  0.7699 -0.8234 -0.1212
16766SOL    HW151514   6.603   4.700   6.262  0.2505 -2.3619  1.2392
16766SOL    HW251515   6.745   4.745   6.285  0.0645 -0.0530 -1.5655
16767SOL     OW51516   7.064   5.432   6.836  0.2483  0.3051 -0.0088
16767SOL    HW151517   6.986   5.485   6.820 -1.8291 -2.2728  0.8375
16767SOL    HW251518   7.086   5.394   6.751 -1.2605 -1.2240  0.2438
16768SOL     OW51519   6.828   5.565   6.775  0.4926 -0.1718 -0.8465
16768SOL    HW151520   6.796   5.515   6.851 -0.7185 -1.3804 -2.0945
16768SOL    HW251521   6.759   5.555   6.710  1.8491  0.1951 -2.3892
16769SOL     OW51522   5.905   4.684   7.015  0.2324  0.0915  0.1762
16769SOL    HW151523   5.869   4.762   7.057 -0.4163 -0.1071 -0.0113
16769SOL    HW251524   5.834   4.620   7.017  0.0479  0.1988 -1.5706
16770SOL     OW51525   5.934   4.767   7.462 -0.0292 -0.4259 -0.4239
16770SOL    HW151526   5.988   4.786   7.386  0.3582 -1.9337 -0.5692
16770SOL    HW251527   5.903   4.678   7.447  1.1492 -1.3012  1.7709
16771SOL     OW51528   7.297   3.714   6.361  0.4011 -0.2322  0.2380
16771SOL    HW151529   7.346   3.740   6.439  3.1618 -2.3042 -0.6485
16771SOL    HW251530   7.364   3.696   6.295 -1.7146 -1.0040 -1.8389
16772SOL     OW51531   7.106   5.365   5.917 -0.7732 -0.0488 -0.3356
16772SOL    HW151532   7.072   5.313   5.844 -1.7395 -0.5529  0.4444
16772SOL    HW251533   7.041   5.434   5.929 -2.8686 -2.2569  2.5639
16773SOL     OW51534   5.193   5.438   7.150 -0.2152  0.4263 -0.2904
16773SOL    HW151535   5.228   5.402   7.232 -1.8826  0.8225  0.6279
16773SOL    HW251536   5.119   5.381   7.129  1.4484 -1.0513 -2.7761
16774SOL     OW51537   6.787   4.481   5.875  0.2749 -0.4352  0.4487
16774SOL    HW151538   6.770   4.503   5.783  0.2463  1.5665  0.8980
16774SOL    HW251539   6.879   4.505   5.889  0.5368 -1.5590  0.7278
16775SOL     OW51540   5.948   4.890   8.073 -0.0493 -0.0044 -0.0302
16775SOL    HW151541   6.028   4.841   8.095  0.9768  1.0604 -1.2242
16775SOL    HW251542   5.940   4.880   7.978 -2.9617 -2.4275  0.2909
16776SOL     OW51543   6.387   5.098   5.368  0.2432 -0.5460 -0.1458
16776SOL    HW151544   6.336   5.017   5.362  0.1682 -0.4521 -0.7723
16776SOL    HW251545   6.464   5.082   5.313  0.3735 -0.2992 -0.0367
16777SOL     OW51546   6.764   5.414   7.002 -0.2811  0.1742 -0.4292
16777SOL    HW151547   6.670   5.393   7.006 -0.5612  1.4826  0.2649
16777SOL    HW251548   6.800   5.376   7.082 -0.4100  0.5454 -0.1929
16778SOL     OW51549   7.023   3.686   6.415 -0.1477 -0.1560  1.0119
16778SOL    HW151550   7.092   3.629   6.380 -1.0713 -0.7571  0.1525
16778SOL    HW251551   7.069   3.742   6.479  1.3347  0.1684 -0.2846
16779SOL     OW51552   5.835   4.122   6.531  0.5373 -0.7249 -0.2203
16779SOL    HW151553   5.795   4.079   6.455 -0.2302 -1.3428  0.5125
16779SOL    HW251554   5.900   4.182   6.494 -0.0354 -0.8012 -1.3754
16780SOL     OW51555   6.954   5.196   5.733 -0.3229  0.5333  0.0528
16780SOL    HW151556   7.022   5.166   5.673  0.6880  0.7944  1.0315
16780SOL    HW251557   6.880   5.217   5.676  0.7477  1.1921 -1.1675
16781SOL     OW51558   6.366   4.344   7.139 -0.1633  0.1602 -0.8032
16781SOL    HW151559   6.310   4.290   7.195 -0.3056  0.6197 -0.4911
16781SOL    HW251560   6.380   4.292   7.061  1.4506 -1.2451  0.3480
16782SOL     OW51561   6.451   5.154   5.625 -0.0362  0.4487 -0.0004
16782SOL    HW151562   6.422   5.146   5.534 -0.1783 -0.5010  0.1211
16782SOL    HW251563   6.371   5.160   5.676 -0.0104 -0.8757  0.2195
16783SOL     OW51564   7.494   5.163   5.916  0.1340  0.0162 -0.3631
16783SOL    HW151565   7.422   5.102   5.931  0.4701 -0.0109  1.3347
16783SOL    HW251566   7.539   5.129   5.839 -0.0411 -1.5493  0.1917
16784SOL     OW51567   6.068   4.826   7.242  0.2354 -0.6605  0.4452
16784SOL    HW151568   6.105   4.778   7.167 -1.8231  0.0464 -1.1095
16784SOL    HW251569   6.059   4.916   7.211 -0.8092 -0.3816  1.4986
16785SOL     OW51570   7.407   4.971   6.634 -0.4460  0.4838  0.8505
16785SOL    HW151571   7.453   4.896   6.670 -1.4049 -0.6328 -0.1749
16785SOL    HW251572   7.346   4.997   6.703 -0.1611  0.2718  1.1827
16786SOL     OW51573   6.709   5.342   6.159  0.0701 -0.7996  0.6517
16786SOL    HW151574   6.689   5.318   6.068 -0.4536 -1.4905  0.9391
16786SOL    HW251575   6.769   5.273   6.189  1.6176  0.3460  0.3227
16787SOL     OW51576   6.606   3.802   6.645 -0.5379 -0.1056 -0.1569
16787SOL    HW151577   6.510   3.798   6.642 -0.5273 -0.4336 -0.0896
16787SOL    HW251578   6.626   3.836   6.732 -0.5279 -2.9224  1.0421
16788SOL     OW51579   6.126   5.195   5.690 -0.6095  0.4080  0.1753
16788SOL    HW151580   6.091   5.106   5.702 -0.4913  0.3903  0.3860
16788SOL    HW251581   6.133   5.205   5.595  0.0321 -0.0605  0.1716
16789SOL     OW51582   7.218   3.927   7.459  0.1654  0.3131 -0.0814
16789SOL    HW151583   7.295   3.936   7.403 -0.1390  0.1871 -0.5335
16789SOL    HW251584   7.152   3.983   7.418  0.1383  0.7371  0.5294
16790SOL     OW51585   6.130   4.941   5.786  0.3331 -0.2878 -0.4699
16790SOL    HW151586   6.176   4.939   5.870  0.1764  1.7162 -0.2833
16790SOL    HW251587   6.057   4.880   5.797 -0.2239  0.6356  1.1965
16791SOL     OW51588   5.651   4.780   7.320 -0.0731  0.2400 -0.3936
16791SOL    HW151589   5.647   4.794   7.415  0.6725  2.1884 -0.5934
16791SOL    HW251590   5.564   4.747   7.297 -0.2438 -0.3316  0.9718
16792SOL     OW51591   6.655   3.961   6.904  0.1495  0.1601 -0.1735
16792SOL    HW151592   6.736   3.955   6.954  0.4704 -0.3097 -0.7292
16792SOL    HW251593   6.593   4.003   6.963  0.8055  0.5486  0.2513
16793SOL     OW51594   5.658   4.266   5.659 -0.3046  0.5689 -0.4934
16793SOL    HW151595   5.664   4.194   5.597  0.6376  0.4963 -0.3334
16793SOL    HW251596   5.569   4.261   5.694 -0.8146  0.5543 -1.7567
16794SOL     OW51597   6.833   4.310   6.697  0.3013 -0.3467  0.3199
16794SOL    HW151598   6.795   4.249   6.634  0.2007  0.5604 -0.5315
16794SOL    HW251599   6.884   4.255   6.756 -0.7132 -1.3727  0.2836
16795SOL     OW51600   5.696   4.021   6.306 -0.6256 -0.3084  0.2176
16795SOL    HW151601   5.701   4.116   6.304 -0.0495 -0.3047  1.1026
16795SOL    HW251602   5.609   4.000   6.272 -0.3635  0.4736 -0.9781
16796SOL     OW51603   6.807   5.325   5.344  0.4323  0.0380 -0.6834
16796SOL    HW151604   6.741   5.395   5.341 -2.9857 -2.8996 -0.5644
16796SOL    HW251605   6.795   5.285   5.430  1.2201 -1.5863 -1.2962
16797SOL     OW51606   6.001   4.268   7.218  0.1375  0.1431 -0.5372
16797SOL    HW151607   5.925   4.212   7.206  0.8051 -0.5540 -1.6943
16797SOL    HW251608   6.062   4.214   7.269  0.3468  0.2226 -0.7014
16798SOL     OW51609   7.043   5.382   6.561 -0.2064 -0.5457 -0.1837
16798SOL    HW151610   6.948   5.374   6.558 -0.1091 -2.5958  0.5705
16798SOL    HW251611   7.076   5.300   6.526  1.3441  0.5694 -1.5012
16799SOL     OW51612   6.453   3.986   7.200 -0.0160  0.1052  0.3498
16799SOL    HW151613   6.406   4.028   7.128 -0.3064 -0.8056 -0.0003
16799SOL    HW251614   6.410   3.901   7.211  2.6207 -1.5637 -1.1831
16800SOL     OW51615   6.892   4.709   7.158 -0.2161  0.2294 -0.0499
16800SOL    HW151616   6.845   4.678   7.080  0.3203 -0.7599  0.0027
16800SOL    HW251617   6.894   4.804   7.148 -3.7444  0.5502  0.8050
16801SOL     OW51618   5.651   5.780   7.464 -0.6896  0.1909  0.3455
16801SOL    HW151619   5.619   5.691   7.479 -1.7280  0.5964  0.6835
16801SOL    HW251620   5.625   5.829   7.543 -0.2366  0.8153  0.1201
16802SOL     OW51621   7.734   4.608   6.598 -0.3994 -0.2652 -0.2007
16802SOL    HW151622   7.793   4.649   6.534 -0.6170  0.5293  0.0889
16802SOL    HW251623   7.757   4.516   6.596  1.6657  0.1733  0.7631
16803SOL     OW51624   6.718   4.227   6.435 -0.7317  0.6024  0.0274
16803SOL    HW151625   6.799   4.177   6.429 -1.1965 -0.4483  1.8407
16803SOL    HW251626   6.723   4.289   6.362  0.5992 -0.9994 -1.3296
16804SOL     OW51627   6.729   4.796   5.702  0.6451  0.1085  0.2880
16804SOL    HW151628   6.749   4.863   5.767  1.5278 -0.1660  0.3149
16804SOL    HW251629   6.727   4.843   5.619  2.5590  0.0010  0.1318
16805SOL     OW51630   7.271   4.245   7.578  0.1674  0.1594  0.2177
16805SOL    HW151631   7.257   4.218   7.487  0.3882 -0.4146  0.3463
16805SOL    HW251632   7.187   4.283   7.605 -0.0358 -0.0613 -0.0920
16806SOL     OW51633   7.208   4.466   7.025  0.0456  0.2580 -0.2082
16806SOL    HW151634   7.116   4.439   7.020  0.0705 -0.3313  1.8354
16806SOL    HW251635   7.214   4.539   6.963 -1.2796 -1.0222 -1.9546
16807SOL     OW51636   6.597   5.467   5.380 -0.2322 -0.4768 -0.7051
16807SOL    HW151637   6.582   5.556   5.411  2.9344  0.2140 -0.8397
16807SOL    HW251638   6.535   5.456   5.307 -1.3588  1.2106 -0.0559
16808SOL     OW51639   6.673   5.619   6.154 -0.2101  0.6848 -0.6189
16808SOL    HW151640   6.702   5.530   6.136 -0.9888  0.5473 -1.2655
16808SOL    HW251641   6.577   5.614   6.151 -0.2586  1.6283 -1.1701
16809SOL     OW51642   6.737   4.643   6.966  0.7907 -0.3546  0.4737
16809SOL    HW151643   6.737   4.613   6.875 -0.6937 -0.4590  0.4795
16809SOL    HW251644   6.645   4.644   6.990  1.0211  1.3373  1.4402
16810SOL     OW51645   6.711   4.909   5.449  0.0403 -0.8307 -0.2754
16810SOL    HW151646   6.757   4.932   5.368 -0.2951 -1.9534 -0.8017
16810SOL    HW251647   6.652   4.838   5.424 -1.1446 -0.2151  0.6411
16811SOL     OW51648   7.470   5.517   6.232  0.2959 -0.0766 -0.4876
16811SOL    HW151649   7.414   5.571   6.288  0.4690  1.1582 -1.4384
16811SOL    HW251650   7.410   5.470   6.175  0.1529 -0.5236  0.0343
16812SOL     OW51651   5.645   5.277   6.896  0.0294  0.2638  0.0708
16812SOL    HW151652   5.553   5.303   6.900  0.0483  0.6713 -1.4967
16812SOL    HW251653   5.693   5.359   6.893  0.4615  0.0526  0.9618
16813SOL     OW51654   5.729   5.185   6.556  0.6132 -0.5551  0.2070
16813SOL    HW151655   5.746   5.234   6.637 -0.2368 -0.7309  0.5022
16813SOL    HW251656   5.809   5.135   6.541  0.9818 -0.1067  0.6435
16814SOL     OW51657   6.479   5.825   7.297 -0.4443 -0.7313  0.1950
16814SOL    HW151658   6.422   5.756   7.331  0.7877 -1.3678  1.0747
16814SOL    HW251659   6.543   5.778   7.242  0.3709 -0.2995  0.7574
16815SOL     OW51660   7.118   3.855   6.654 -0.0159 -0.5750  0.3670
16815SOL    HW151661   7.193   3.912   6.667 -0.0662 -0.5045  0.3510
16815SOL    HW251662   7.093   3.827   6.742  0.8099 -1.6174  0.2893
16816SOL     OW51663   5.691   4.286   6.318 -0.0776  0.5140 -0.0567
16816SOL    HW151664   5.782   4.314   6.327  0.2156 -0.7601  1.2291
16816SOL    HW251665   5.641   4.348   6.372  0.5021 -1.0082  2.3439
16817SOL     OW51666   7.357   5.415   6.602 -0.6366 -0.1397 -0.1761
16817SOL    HW151667   7.404   5.355   6.544  0.7546 -0.7250  1.4422
16817SOL    HW251668   7.268   5.379   6.605 -0.3949 -0.8489 -0.9237
16818SOL     OW51669   6.136   4.002   7.161  0.5735  0.0467  0.1575
16818SOL    HW151670   6.096   4.024   7.077 -0.9294  1.3411  1.1737
16818SOL    HW251671   6.074   3.943   7.203  1.5584 -1.0102  0.1863
16819SOL     OW51672   6.435   5.026   5.930 -0.3638  0.7753  0.0363
16819SOL    HW151673   6.431   4.967   5.854 -2.6902 -0.8851  1.3117
16819SOL    HW251674   6.351   5.014   5.974  0.9078  1.6294  2.9366
16820SOL     OW51675   6.902   3.571   6.931  0.3030 -1.0752 -0.0856
16820SOL    HW151676   6.980   3.628   6.928 -1.4536  1.8672  2.7500
16820SOL    HW251677   6.878   3.558   6.840  1.4909  1.9358 -0.9614
16821SOL     OW51678   6.556   3.571   6.928  0.3495 -0.2643  0.3679
16821SOL    HW151679   6.624   3.600   6.866  0.3796  0.1120  0.5787
16821SOL    HW251680   6.605   3.534   7.001  0.3139 -0.6287  0.2136
16822SOL     OW51681   6.453   4.728   5.836 -0.4490  0.1630 -0.3263
16822SOL    HW151682   6.538   4.758   5.803 -0.2536 -0.5127 -0.4478
16822SOL    HW251683   6.427   4.659   5.776 -0.5411 -0.4200  0.3738
16823SOL     OW51684   6.115   5.127   7.087  0.5812  0.5677 -0.4628
16823SOL    HW151685   6.099   5.143   7.180  1.2153 -1.2207 -0.0092
16823SOL    HW251686   6.074   5.201   7.043  1.6648  2.3195  1.3029
16824SOL     OW51687   7.075   3.844   6.081 -0.1807 -0.2834  0.6734
16824SOL    HW151688   7.048   3.828   5.991  1.4236 -0.6572  0.2231
16824SOL    HW251689   6.998   3.822   6.134 -0.4172 -2.3895 -0.4492
16825SOL     OW51690   6.840   3.625   6.638  0.1066  0.1214 -0.0748
16825SOL    HW151691   6.758   3.670   6.618 -0.0580 -0.3271 -0.4519
16825SOL    HW251692   6.908   3.684   6.609 -0.1193 -0.4293 -1.8898
16826SOL     OW51693   6.974   4.019   7.069  0.4259  0.4946  0.2976
16826SOL    HW151694   6.904   3.963   7.103 -0.3453  0.6447 -0.9851
16826SOL    HW251695   6.979   4.091   7.132 -1.1183  0.8787  0.0212
16827SOL     OW51696   5.724   4.966   5.675 -0.5511  0.9551 -0.6995
16827SOL    HW151697   5.760   5.035   5.619  0.5093  0.5327 -0.5649
16827SOL    HW251698   5.732   5.002   5.764  2.0394 -0.1259 -0.3990
16828SOL     OW51699   6.151   5.249   5.407  0.0119  0.6352  0.8072
16828SOL    HW151700   6.228   5.193   5.394 -0.4385 -0.8701  3.8094
16828SOL    HW251701   6.100   5.238   5.326  0.4397 -2.5473  0.8174
16829SOL     OW51702   5.915   4.428   8.135 -0.5651 -0.5114 -0.3385
16829SOL    HW151703   5.987   4.441   8.197 -0.4226  1.6651 -0.8591
16829SOL    HW251704   5.947   4.466   8.053 -1.7762 -0.8469 -0.9886
16830SOL     OW51705   5.597   4.079   8.696 -1.0028  0.0144 -0.0758
16830SOL    HW151706   5.506   4.102   8.678 -0.7408  0.7925 -0.4873
16830SOL    HW251707   5.617   4.124   8.778 -0.2222  2.1378 -1.3339
16831SOL     OW51708   5.956   4.058   8.325 -0.1998  0.4786 -0.4153
16831SOL    HW151709   5.863   4.035   8.329 -0.0768 -0.0194 -0.2730
16831SOL    HW251710   5.960   4.132   8.264 -0.5406 -0.2586 -1.3581
16832SOL     OW51711   5.798   5.095   8.851  0.1077  0.1240  0.4750
16832SOL    HW151712   5.734   5.114   8.783  1.3070 -2.2204 -1.4730
16832SOL    HW251713   5.762   5.018   8.896  0.6104 -0.0240  0.6334
16833SOL     OW51714   7.037   6.041   8.049 -0.9733  0.1373  0.0272
16833SOL    HW151715   7.047   6.015   8.140 -0.0617  1.4669  0.3296
16833SOL    HW251716   7.009   5.961   8.004 -3.1475 -0.1406  1.7287
16834SOL     OW51717   6.394   4.566   8.204  0.5842 -0.4406 -0.0873
16834SOL    HW151718   6.391   4.485   8.256  1.9700 -0.2677  0.2969
16834SOL    HW251719   6.355   4.541   8.120  0.6332 -1.4102  0.1616
16835SOL     OW51720   6.780   4.275   7.870 -0.0472  0.5358  0.4999
16835SOL    HW151721   6.833   4.198   7.892  0.1648  0.4568 -0.2851
16835SOL    HW251722   6.703   4.268   7.928 -0.1595 -0.4024  0.2503
16836SOL     OW51723   6.517   5.496   8.748 -0.7388 -0.0865  0.1935
16836SOL    HW151724   6.488   5.526   8.834 -0.3882  0.6757  0.0554
16836SOL    HW251725   6.606   5.463   8.762 -0.5336  0.4019  0.0533
16837SOL     OW51726   6.621   5.122   7.885 -0.8391  0.4397  0.1482
16837SOL    HW151727   6.655   5.184   7.950  0.8547  0.6396 -0.8438
16837SOL    HW251728   6.602   5.042   7.934  0.9711  0.3835  0.8263
16838SOL     OW51729   6.320   5.446   8.353 -0.1032 -0.1265  0.0091
16838SOL    HW151730   6.226   5.457   8.363  0.0110  0.0742  0.9217
16838SOL    HW251731   6.346   5.391   8.427  0.1288 -2.3543 -1.6147
16839SOL     OW51732   6.139   4.509   8.842  0.4164  0.5702  0.6952
16839SOL    HW151733   6.058   4.470   8.811  0.3002  0.9688  0.4916
16839SOL    HW251734   6.112   4.583   8.896  0.6133  2.8928 -2.1498
16840SOL     OW51735   6.938   4.259   8.601 -0.5274  1.0084  0.5888
16840SOL    HW151736   6.911   4.331   8.544  0.2537  1.4166  0.7133
16840SOL    HW251737   6.993   4.301   8.667  1.4670  0.0713 -0.3826
16841SOL     OW51738   6.056   5.513   8.026  0.1591 -0.1293  0.4254
16841SOL    HW151739   5.992   5.523   7.955 -0.5370 -0.6091  0.9743
16841SOL    HW251740   6.136   5.486   7.982 -0.0230  0.4356 -0.2715
16842SOL     OW51741   5.986   5.408   8.286 -0.1652  0.2625 -0.0580
16842SOL    HW151742   6.009   5.462   8.211  2.6729  0.9102  1.1625
16842SOL    HW251743   5.976   5.320   8.250  0.9697  0.5885 -1.2411
16843SOL     OW51744   5.779   4.662   8.595  0.2522  0.6293 -0.2205
16843SOL    HW151745   5.780   4.598   8.524  0.4906  1.3475 -0.8757
16843SOL    HW251746   5.868   4.696   8.598  0.5838 -0.2749  1.2572
16844SOL     OW51747   6.530   5.760   0.292  0.2024 -0.2481  0.3272
16844SOL    HW151748   6.524   5.811   0.373 -2.1175 -0.1717  0.1757
16844SOL    HW251749   6.474   5.806   0.230  1.8889 -0.3364 -1.3511
16845SOL     OW51750   6.668   4.620   7.990 -0.0149 -0.0985  0.0271
16845SOL    HW151751   6.718   4.604   7.910 -0.8197  0.2613 -0.5619
16845SOL    HW251752   6.617   4.540   8.002 -2.9655  1.2838 -2.1278
16846SOL     OW51753   5.694   4.631   8.185  0.0617  0.0805 -0.8195
16846SOL    HW151754   5.771   4.575   8.172  1.7644  1.9707  0.3920
16846SOL    HW251755   5.644   4.587   8.254  0.0567 -1.1630 -1.5984
16847SOL     OW51756   7.261   5.356   7.771  0.2159 -0.2443 -0.4609
16847SOL    HW151757   7.184   5.361   7.715 -1.7077 -1.4549  1.9281
16847SOL    HW251758   7.316   5.429   7.741 -1.9385  0.8354 -2.0720
16848SOL     OW51759   5.757   5.296   7.406  0.3589  0.4429 -0.1732
16848SOL    HW151760   5.756   5.239   7.483  0.3547  0.4174 -0.1927
16848SOL    HW251761   5.731   5.240   7.333  0.9942  0.3089 -0.3028
16849SOL     OW51762   6.969   4.768   8.314  0.1502 -0.6000  0.0517
16849SOL    HW151763   6.924   4.684   8.308 -0.1786 -0.3807 -0.6703
16849SOL    HW251764   7.026   4.770   8.237  0.8573 -0.5568  0.5591
16850SOL     OW51765   7.242   4.615   7.458 -0.1507  0.7623 -0.2049
16850SOL    HW151766   7.206   4.587   7.543 -0.5180  0.8123 -0.3405
16850SOL    HW251767   7.314   4.554   7.441 -0.9923 -0.1654 -0.5397
16851SOL     OW51768   6.426   5.469   8.036 -0.5421  0.0791 -0.1971
16851SOL    HW151769   6.511   5.506   8.060 -0.0274 -0.3839 -1.2221
16851SOL    HW251770   6.397   5.423   8.114 -0.6524  1.6283  0.7188
16852SOL     OW51771   6.263   3.968   7.696  0.4602  0.2892 -0.1302
16852SOL    HW151772   6.179   3.933   7.666  0.5205  1.2873 -1.5923
16852SOL    HW251773   6.240   4.046   7.745  0.4740 -0.2508  0.7557
16853SOL     OW51774   5.699   4.706   0.019 -0.4276  0.4572  0.3810
16853SOL    HW151775   5.690   4.797   0.050 -0.3232  0.5661  0.0946
16853SOL    HW251776   5.735   4.715  -0.069  0.9731  0.0850  0.8871
16854SOL     OW51777   7.135   4.871   7.437  0.2156 -0.0727  0.3892
16854SOL    HW151778   7.063   4.860   7.499  0.7977 -1.3164  0.8624
16854SOL    HW251779   7.173   4.784   7.427 -0.4380 -0.1439 -2.4519
16855SOL     OW51780   7.117   5.502   7.971  0.1442 -0.2884  0.1870
16855SOL    HW151781   7.024   5.481   7.963 -0.2624  0.0488  3.0804
16855SOL    HW251782   7.160   5.444   7.908 -2.0145 -0.0376 -1.6526
16856SOL     OW51783   7.420   5.953   7.982 -0.5053  0.3831 -0.1589
16856SOL    HW151784   7.492   5.890   7.989 -0.1052  0.7554 -0.8035
16856SOL    HW251785   7.400   5.976   8.073  0.0141  0.0765  0.0400
16857SOL     OW51786   6.037   4.542   7.914 -0.1886 -0.0393 -0.1351
16857SOL    HW151787   6.033   4.637   7.921 -0.7660 -0.0747  0.0596
16857SOL    HW251788   6.013   4.523   7.823  1.5839  0.0880 -0.6585
16858SOL     OW51789   6.905   4.533   8.773  0.0095 -0.7821  0.0858
16858SOL    HW151790   6.924   4.442   8.794  0.3776 -0.5453  0.7737
16858SOL    HW251791   6.990   4.577   8.774 -0.1722 -0.4145 -0.1999
16859SOL     OW51792   7.318   5.102   7.974  0.6312  0.1628 -0.1032
16859SOL    HW151793   7.312   5.181   7.920  1.0974  0.0375 -0.3424
16859SOL    HW251794   7.227   5.072   7.983  0.6734 -0.9212 -2.4607
16860SOL     OW51795   6.306   4.686   0.323  0.5560  0.5364  0.0446
16860SOL    HW151796   6.229   4.672   0.269 -0.0999  0.8142  0.8766
16860SOL    HW251797   6.317   4.781   0.326  0.7432  0.5118  0.1841
16861SOL     OW51798   6.581   4.451   0.241 -0.1897  0.1060 -0.1721
16861SOL    HW151799   6.639   4.384   0.206 -0.3019  0.0939 -0.3368
16861SOL    HW251800   6.500   4.442   0.190  0.3787  1.4767 -1.3847
16862SOL     OW51801   6.570   4.368   8.020 -0.3058 -0.0376  0.6618
16862SOL    HW151802   6.584   4.333   8.108 -0.0119  0.3772  0.7799
16862SOL    HW251803   6.478   4.396   8.020 -1.5891 -3.6307 -0.4055
16863SOL     OW51804   5.484   4.409   8.506 -0.4378  0.3408  0.3480
16863SOL    HW151805   5.431   4.329   8.513 -2.5671  1.5903 -0.5139
16863SOL    HW251806   5.479   4.448   8.593  1.1251 -0.7168  0.9521
16864SOL     OW51807   6.151   5.613   8.683  0.4356  0.0790  0.1148
16864SOL    HW151808   6.244   5.629   8.670  0.3946  1.0539  0.8790
16864SOL    HW251809   6.110   5.698   8.672 -0.1307  0.0493  1.6553
16865SOL     OW51810   6.429   4.089   8.021  0.0382 -0.6498  0.2628
16865SOL    HW151811   6.447   4.001   7.988 -0.6579 -0.8178  0.3100
16865SOL    HW251812   6.501   4.143   7.987  0.7074 -1.3126  0.5959
16866SOL     OW51813   7.074   5.009   7.752 -0.0393 -0.1772  0.7067
16866SOL    HW151814   7.157   5.036   7.711 -0.2812 -1.4026 -0.6801
16866SOL    HW251815   7.017   5.085   7.744  0.5823  0.2798  0.5874
16867SOL     OW51816   6.361   3.901   8.634  0.2245 -0.4945 -0.0465
16867SOL    HW151817   6.287   3.920   8.575  1.1191 -2.0012 -1.7223
16867SOL    HW251818   6.435   3.948   8.596  0.9758 -2.0459 -0.5959
16868SOL     OW51819   6.589   5.579   7.566  0.0809 -0.2037  0.3465
16868SOL    HW151820   6.508   5.616   7.602 -0.2026 -1.0922  0.6751
16868SOL    HW251821   6.559   5.525   7.492  0.2364 -1.3376  1.0777
16869SOL     OW51822   5.650   5.860   8.072 -0.4902  0.5694  0.5751
16869SOL    HW151823   5.630   5.789   8.011 -1.6131  0.4433  1.0649
16869SOL    HW251824   5.703   5.818   8.141 -3.1488 -0.4371  2.1569
16870SOL     OW51825   7.304   4.974   8.519  0.2564 -0.3218  0.0923
16870SOL    HW151826   7.281   4.882   8.511 -2.4498  0.1389  1.4558
16870SOL    HW251827   7.251   5.018   8.452 -1.4000  0.5654  1.8820
16871SOL     OW51828   6.188   4.761   8.171  0.4186  0.2347 -0.1262
16871SOL    HW151829   6.263   4.722   8.126 -0.9550 -1.8200 -0.7954
16871SOL    HW251830   6.166   4.697   8.239  0.4102  1.7277  1.3337
16872SOL     OW51831   6.915   4.950   8.503  0.0697  0.1876  0.2728
16872SOL    HW151832   6.859   4.912   8.571  0.1013  0.5803  0.5191
16872SOL    HW251833   6.947   4.874   8.454 -0.2955 -0.0709  0.4267
16873SOL     OW51834   7.200   5.886   7.475 -0.1191  0.2987 -0.1584
16873SOL    HW151835   7.167   5.936   7.400 -3.5533 -0.1708  0.8576
16873SOL    HW251836   7.214   5.798   7.440  0.4149  0.5914 -0.7007
16874SOL     OW51837   6.896   4.758   7.527  0.1548 -0.5092  0.4960
16874SOL    HW151838   6.835   4.694   7.491  0.0750  1.3969 -3.2686
16874SOL    HW251839   6.848   4.799   7.599 -1.7238 -1.2877 -0.2416
16875SOL     OW51840   6.188   5.853   7.579  0.9684  0.3463  0.3146
16875SOL    HW151841   6.188   5.885   7.489  0.1446  1.3460  0.6487
16875SOL    HW251842   6.110   5.798   7.584 -0.0818  1.8350  0.9125
16876SOL     OW51843   7.095   3.746   8.105  0.1256 -0.8103  0.3053
16876SOL    HW151844   7.114   3.705   8.189 -0.9846  0.7205  1.3671
16876SOL    HW251845   7.012   3.791   8.119  1.5517  2.3816 -0.4911
16877SOL     OW51846   6.037   5.287   8.682 -0.1407 -0.2610 -0.0462
16877SOL    HW151847   6.051   5.362   8.740 -0.2630  0.6922 -1.2045
16877SOL    HW251848   5.963   5.313   8.627 -1.3735 -1.9849  0.7245
16878SOL     OW51849   6.856   5.450   7.911  0.7311  0.0308 -0.1386
16878SOL    HW151850   6.803   5.438   7.990  2.3146 -0.0935  0.9520
16878SOL    HW251851   6.814   5.523   7.865  0.2188  0.6164  1.2065
16879SOL     OW51852   6.128   4.527   8.309 -0.1428 -0.0230 -0.2568
16879SOL    HW151853   6.175   4.443   8.313 -1.9226 -1.0831 -0.5944
16879SOL    HW251854   6.116   4.552   8.400  0.5593 -0.0320 -0.1559
16880SOL     OW51855   5.916   3.839   7.317  0.5120 -0.0327  0.2364
16880SOL    HW151856   5.957   3.754   7.329  0.4207 -0.3704 -1.5299
16880SOL    HW251857   5.873   3.857   7.400  0.6501 -1.6456  0.6933
16881SOL     OW51858   6.691   5.515   8.150  0.7683 -0.2433 -0.0732
16881SOL    HW151859   6.730   5.601   8.133 -0.8583  0.8132  1.2592
16881SOL    HW251860   6.706   5.500   8.243  3.2881 -2.6489 -0.7567
16882SOL     OW51861   7.027   5.776   7.921  0.8315 -0.0788 -0.0441
16882SOL    HW151862   7.101   5.789   7.861  0.9163 -1.0550 -0.1608
16882SOL    HW251863   7.035   5.685   7.950  0.0967  0.0272  0.5195
16883SOL     OW51864   6.652   4.205   8.712 -0.1912  0.1594  0.2134
16883SOL    HW151865   6.723   4.218   8.649 -0.5699  0.1037 -0.2357
16883SOL    HW251866   6.611   4.291   8.720 -0.7030 -0.0355 -0.3052
16884SOL     OW51867   6.110   4.189   7.811  0.1693 -0.1289 -0.1051
16884SOL    HW151868   6.119   4.180   7.906 -2.3538  2.1235  0.4859
16884SOL    HW251869   6.185   4.242   7.784  0.5380 -0.1970  0.7680
16885SOL     OW51870   6.453   5.171   7.206 -0.4895 -0.2814 -0.9553
16885SOL    HW151871   6.401   5.101   7.245 -0.0262  0.1984  0.5931
16885SOL    HW251872   6.541   5.134   7.199 -0.7195 -0.6235 -2.3008
16886SOL     OW51873   5.756   3.968   7.536 -0.3001  0.0533  0.1418
16886SOL    HW151874   5.691   4.035   7.557 -0.5019 -0.1063  0.0256
16886SOL    HW251875   5.786   3.936   7.622 -0.1094  0.3778  0.2006
16887SOL     OW51876   6.475   3.788   8.098 -0.6100  0.2747  0.2931
16887SOL    HW151877   6.494   3.809   8.190 -0.8507  0.9212  0.1968
16887SOL    HW251878   6.436   3.700   8.102 -0.5525  0.2684  0.8025
16888SOL     OW51879   6.889   5.865   7.670  0.8940 -0.1730 -0.0385
16888SOL    HW151880   6.895   5.802   7.741  1.0287  0.1820  0.2690
16888SOL    HW251881   6.881   5.812   7.591 -0.3077 -0.5817  0.3298
16889SOL     OW51882   6.295   4.906   8.579  0.3222 -0.1632  0.3527
16889SOL    HW151883   6.242   4.933   8.504 -0.8438  0.1517  1.2585
16889SOL    HW251884   6.241   4.926   8.655  1.0189 -1.4914  1.2399
16890SOL     OW51885   6.542   6.139   7.806  0.7073  0.0395 -0.0514
16890SOL    HW151886   6.464   6.122   7.751  0.0560  0.3872  0.7477
16890SOL    HW251887   6.594   6.200   7.754  0.2577  0.1148 -0.4323
16891SOL     OW51888   6.869   3.649   7.366 -0.3343  0.2671 -0.0807
16891SOL    HW151889   6.777   3.675   7.369 -0.4504 -0.2225  0.5869
16891SOL    HW251890   6.870   3.559   7.399  0.4960  0.5935  0.8244
16892SOL     OW51891   6.031   4.067   8.840  0.0872  0.4123  0.6415
16892SOL    HW151892   5.977   3.991   8.819 -0.8068  1.0683  0.5114
16892SOL    HW251893   5.994   4.138   8.787  0.2350  1.1887  1.5581
16893SOL     OW51894   6.563   4.265   8.262 -0.2297 -0.3608 -0.3029
16893SOL    HW151895   6.643   4.214   8.247 -1.0016 -1.1399 -2.0851
16893SOL    HW251896   6.513   4.212   8.324  0.5217  0.0256  0.6567
16894SOL     OW51897   6.006   3.750   8.339 -0.1431 -0.4609  0.4147
16894SOL    HW151898   5.954   3.829   8.320  0.8553 -0.2714 -1.7998
16894SOL    HW251899   6.054   3.733   8.258 -2.1488 -4.8344 -0.1365
16895SOL     OW51900   7.051   5.008   8.034  0.0399  0.0460  0.2662
16895SOL    HW151901   6.968   4.981   8.074  0.5107 -2.6479 -0.3552
16895SOL    HW251902   7.032   5.014   7.941  0.3791  0.0166  0.1930
16896SOL     OW51903   6.764   4.815   8.683  0.4049 -0.0959  0.3172
16896SOL    HW151904   6.670   4.806   8.696  0.2315 -2.8808 -1.9674
16896SOL    HW251905   6.798   4.726   8.692  3.0091  0.9473  1.8870
16897SOL     OW51906   6.823   4.495   8.213 -0.0887 -0.6420 -0.1790
16897SOL    HW151907   6.909   4.456   8.197  0.3528  0.3206 -0.2924
16897SOL    HW251908   6.789   4.514   8.125 -0.0772 -0.3426 -0.1227
16898SOL     OW51909   6.028   5.192   7.358 -0.1944 -0.3815  0.1051
16898SOL    HW151910   5.945   5.156   7.390 -0.1396  0.5352  1.3869
16898SOL    HW251911   6.017   5.287   7.369  0.1382 -0.0613 -1.9573
16899SOL     OW51912   7.490   4.902   7.686 -0.0364  0.0170 -0.7267
16899SOL    HW151913   7.495   4.809   7.662  1.1219  0.2147 -1.3090
16899SOL    HW251914   7.409   4.933   7.645  1.7023  0.2872 -4.3489
16900SOL     OW51915   6.784   4.300   7.599  0.1412 -0.1613 -1.1012
16900SOL    HW151916   6.757   4.311   7.690  3.4652  2.1769 -0.2005
16900SOL    HW251917   6.766   4.208   7.580 -1.4328 -0.5408  1.5900
16901SOL     OW51918   6.170   4.150   8.068 -0.3349 -0.1774 -0.6752
16901SOL    HW151919   6.150   4.058   8.086 -0.9559 -0.2758 -1.8359
16901SOL    HW251920   6.260   4.148   8.035  0.1324 -0.2016  0.5400
16902SOL     OW51921   7.290   5.080   0.455  0.5071 -0.1177  0.0838
16902SOL    HW151922   7.323   5.165   0.485  0.1382 -0.2572  0.9160
16902SOL    HW251923   7.338   5.063   0.374 -0.3531  1.4852 -0.8006
16903SOL     OW51924   6.819   5.463   8.713  0.0193  0.1348 -0.5396
16903SOL    HW151925   6.841   5.478   8.621 -1.5064 -1.3514 -1.2068
16903SOL    HW251926   6.805   5.368   8.719  0.5890  0.1170  1.3691
16904SOL     OW51927   7.192   5.097   8.300  0.2740  0.2606 -0.0276
16904SOL    HW151928   7.114   5.152   8.317 -0.3700 -1.4419  3.3797
16904SOL    HW251929   7.161   5.031   8.238 -1.3791 -0.8979  1.9020
16905SOL     OW51930   6.521   4.900   8.007  0.1243 -0.0523  0.1817
16905SOL    HW151931   6.528   4.909   8.102  2.3505  1.3261 -0.0402
16905SOL    HW251932   6.539   4.807   7.990 -0.0099 -0.2496  1.0606
16906SOL     OW51933   6.075   4.708   0.189 -0.1798  0.0014  0.6910
16906SOL    HW151934   6.071   4.803   0.193  0.7452  0.0557  0.5260
16906SOL    HW251935   6.002   4.678   0.244  0.2654  0.7935  1.7451
16907SOL     OW51936   6.402   4.077   8.403 -0.7927  0.1406 -0.2274
16907SOL    HW151937   6.316   4.036   8.413 -0.4299 -0.4323  0.5636
16907SOL    HW251938   6.400   4.153   8.462 -0.0954 -0.9579  1.2815
16908SOL     OW51939   5.680   5.366   8.844  0.3667  0.0650 -0.4752
16908SOL    HW151940   5.746   5.313   8.800  0.7407 -0.2309  0.4126
16908SOL    HW251941   5.699   5.354   8.937 -2.1643 -1.6654 -0.0879
16909SOL     OW51942   6.102   4.964   8.362 -0.1775 -0.9143  0.1438
16909SOL    HW151943   6.113   4.904   8.288 -0.6789 -0.9189  0.0684
16909SOL    HW251944   6.074   5.046   8.323  1.5554 -0.2862  0.1495
16910SOL     OW51945   6.326   4.259   8.573 -0.1106 -0.5330 -0.2947
16910SOL    HW151946   6.381   4.334   8.597 -0.4200 -0.1789 -0.6719
16910SOL    HW251947   6.244   4.273   8.621  0.1025 -1.0359  0.2319
16911SOL     OW51948   6.695   5.263   7.653 -0.3193  0.2050  0.0089
16911SOL    HW151949   6.624   5.286   7.594  0.0257 -1.3097 -1.0496
16911SOL    HW251950   6.656   5.202   7.716  0.2093 -1.4551 -1.1967
16912SOL     OW51951   6.715   5.221   8.140  0.1558 -0.5239 -0.2260
16912SOL    HW151952   6.675   5.307   8.153 -0.7158 -0.8144 -0.8656
16912SOL    HW251953   6.728   5.186   8.228 -1.8633 -0.7870  0.0175
16913SOL     OW51954   6.814   4.160   8.163 -0.1809 -0.1671 -0.2385
16913SOL    HW151955   6.878   4.189   8.227  0.2152 -0.3542 -0.5488
16913SOL    HW251956   6.854   4.178   8.078  0.3511 -2.1045 -0.4563
16914SOL     OW51957   5.800   5.631   8.618 -0.2789  0.5171 -0.0294
16914SOL    HW151958   5.815   5.634   8.712  0.5032  0.9166 -0.1622
16914SOL    HW251959   5.825   5.543   8.592  0.4007  0.7019 -0.0070
16915SOL     OW51960   6.033   5.020   0.177 -0.4307 -0.0849  0.1620
16915SOL    HW151961   5.968   5.046   0.112  0.3178 -0.7011 -0.8698
16915SOL    HW251962   6.039   5.094   0.237 -1.6951  0.1793 -0.0237
16916SOL     OW51963   6.762   5.125   8.391 -0.0161 -0.1349  0.2589
16916SOL    HW151964   6.833   5.065   8.415 -0.3150 -0.5209  0.1828
16916SOL    HW251965   6.717   5.143   8.474  0.4302  0.4501  0.3773
16917SOL     OW51966   6.544   4.121   7.749 -0.1039 -0.7478 -0.2565
16917SOL    HW151967   6.568   4.046   7.802 -0.0962  0.0213  0.8533
16917SOL    HW251968   6.601   4.116   7.673  0.7082 -1.2088  0.3731
16918SOL     OW51969   5.920   4.399   8.753  0.0302  0.3265 -0.5984
16918SOL    HW151970   5.862   4.374   8.681 -0.5025  1.7988 -0.7174
16918SOL    HW251971   5.868   4.385   8.832 -0.0231  0.3892 -0.6220
16919SOL     OW51972   5.669   4.933   8.552  0.4371  0.4551  0.1043
16919SOL    HW151973   5.658   4.844   8.586  0.1920  0.5159  0.1840
16919SOL    HW251974   5.713   4.921   8.468  1.6329  0.3375  0.7237
16920SOL     OW51975   6.207   5.263   0.151 -0.4498 -0.1969 -0.0300
16920SOL    HW151976   6.196   5.244   0.244 -0.3562  0.3698  0.1023
16920SOL    HW251977   6.119   5.256   0.114 -0.0934 -3.5432 -0.5320
16921SOL     OW51978   6.068   3.663   7.138 -0.4137 -0.4447 -0.8814
16921SOL    HW151979   6.028   3.595   7.192 -0.5127  0.2233 -0.0936
16921SOL    HW251980   6.020   3.743   7.160  1.6405  0.4922  0.4778
16922SOL     OW51981   6.986   4.079   7.927  0.1049  0.0102  0.2835
16922SOL    HW151982   7.081   4.068   7.934  0.0786  0.0320  0.7136
16922SOL    HW251983   6.957   4.003   7.877  0.3244 -0.1013  0.3228
16923SOL     OW51984   6.507   4.438   8.756 -0.6817 -0.1626  0.2005
16923SOL    HW151985   6.455   4.418   8.834 -1.6563  0.8750 -0.1518
16923SOL    HW251986   6.479   4.526   8.731 -0.1204 -0.3407 -1.1082
16924SOL     OW51987   6.926   3.867   7.776  0.2384 -0.2268 -0.2690
16924SOL    HW151988   6.920   3.784   7.822 -2.0999 -1.0381 -1.8459
16924SOL    HW251989   6.952   3.844   7.687  1.3806  0.9553 -0.2696
16925SOL     OW51990   6.680   4.541   7.508 -0.8665 -0.5769  0.0530
16925SOL    HW151991   6.733   4.475   7.463 -2.7523 -1.1635 -1.4517
16925SOL    HW251992   6.613   4.490   7.554 -0.7322  0.1922  1.1426
16926SOL     OW51993   6.724   5.676   7.801 -0.2757 -0.0622 -0.1523
16926SOL    HW151994   6.689   5.765   7.811  1.7678  0.9215 -1.1441
16926SOL    HW251995   6.663   5.633   7.741 -0.9891  0.8671 -0.1191
16927SOL     OW51996   6.388   4.881   0.047 -0.0606 -0.3482 -0.0549
16927SOL    HW151997   6.375   4.821  -0.027  0.3333 -0.4823 -0.0231
16927SOL    HW251998   6.339   4.959   0.023  0.7166 -0.0790 -0.8425
16928SOL     OW51999   5.819   4.215   8.559 -0.0290 -0.1924  0.6271
16928SOL    HW152000   5.736   4.182   8.594  0.4595 -1.6128  0.5029
16928SOL    HW252001   5.859   4.139   8.517  0.5194  0.8816 -0.9030
16929SOL     OW52002   6.587   3.891   8.332  0.2062  0.2388  0.5755
16929SOL    HW152003   6.510   3.938   8.362  0.0670  0.6087 -0.3496
16929SOL    HW252004   6.653   3.907   8.400 -0.5763 -0.2432  1.4638
16930SOL     OW52005   5.490   5.137   7.500 -0.0521  0.8041  0.1206
16930SOL    HW152006   5.528   5.105   7.582  0.8565 -0.3359 -0.7262
16930SOL    HW252007   5.454   5.059   7.458  1.0575  1.0713 -1.3894
16931SOL     OW52008   5.796   5.701   8.236  0.4335  0.2316  1.0638
16931SOL    HW152009   5.767   5.623   8.188  0.1448  0.6697  0.5182
16931SOL    HW252010   5.736   5.707   8.311 -1.1449  1.3104 -0.2207
16932SOL     OW52011   6.069   5.715   8.193 -0.3229  1.0567  0.4055
16932SOL    HW152012   5.974   5.709   8.202 -0.0481 -1.9360  2.6209
16932SOL    HW252013   6.091   5.652   8.125  0.0948  2.0204 -0.3827
16933SOL     OW52014   6.346   4.367   0.093 -0.0115 -0.3621  0.3285
16933SOL    HW152015   6.324   4.274   0.083 -0.0624 -0.2124 -1.2138
16933SOL    HW252016   6.266   4.413   0.067  0.4202  0.1221 -0.1585
16934SOL     OW52017   5.662   4.204   0.110 -0.0913  0.0583  0.0789
16934SOL    HW152018   5.684   4.287   0.154 -1.1107  0.2604  0.2284
16934SOL    HW252019   5.603   4.160   0.171 -2.0534  0.6164 -1.3044
16935SOL     OW52020   6.314   4.453   7.978  0.1496 -0.1023 -0.4945
16935SOL    HW152021   6.325   4.384   7.913 -1.3382 -1.0283  0.1730
16935SOL    HW252022   6.234   4.498   7.952 -0.0676 -0.0210  0.2905
16936SOL     OW52023   6.952   4.281   0.045  0.1365  0.2858 -0.2163
16936SOL    HW152024   6.867   4.241   0.062  0.7410 -1.4572 -1.0285
16936SOL    HW252025   6.995   4.283   0.131  0.0267 -0.7200 -0.1250
16937SOL     OW52026   6.322   4.103   0.057 -0.2053  0.1068  0.5222
16937SOL    HW152027   6.399   4.055   0.027 -2.0891 -0.9790 -3.3352
16937SOL    HW252028   6.248   4.047   0.033 -2.2945  2.1242  1.8152
16938SOL     OW52029   6.704   5.465   0.316  1.0031 -0.2573  0.2577
16938SOL    HW152030   6.654   5.546   0.317  2.0007  0.3794  0.2012
16938SOL    HW252031   6.656   5.407   0.257  0.3692  0.3509  0.1720
16939SOL     OW52032   6.284   4.189   7.352 -0.2085  0.0608 -0.2118
16939SOL    HW152033   6.251   4.126   7.288  1.2987 -0.8657 -0.1328
16939SOL    HW252034   6.306   4.136   7.429  0.4580  0.7731  0.1050
16940SOL     OW52035   5.619   4.954   0.153  0.1898  0.5657  0.7679
16940SOL    HW152036   5.525   4.967   0.168  0.0782  1.3820 -0.4791
16940SOL    HW252037   5.660   4.989   0.232 -0.5805 -1.1362  1.9868
16941SOL     OW52038   6.165   5.005   8.793  0.4903 -0.2137  0.6500
16941SOL    HW152039   6.130   4.999   8.881  0.8282  3.3154  1.1982
16941SOL    HW252040   6.129   5.087   8.759  3.5711  0.6812 -0.8823
16942SOL     OW52041   6.882   4.510   7.768  0.0984  0.0782 -0.9484
16942SOL    HW152042   6.852   4.454   7.839  0.6826  2.8357  1.6653
16942SOL    HW252043   6.838   4.476   7.690 -0.4292 -3.2074  0.6315
16943SOL     OW52044   7.272   6.074   8.466 -0.0829  0.2722 -0.3456
16943SOL    HW152045   7.277   6.000   8.527 -1.1140  0.6912  0.2801
16943SOL    HW252046   7.271   6.151   8.523 -1.6472  0.6492 -0.8604
16944SOL     OW52047   7.029   5.855   8.557  0.1162 -0.2927 -0.1075
16944SOL    HW152048   7.094   5.820   8.617 -1.5595 -0.4628  1.7312
16944SOL    HW252049   6.945   5.825   8.593 -0.9839 -0.1776 -2.4242
16945SOL     OW52050   5.852   5.382   8.528 -0.6330  0.2126  0.0148
16945SOL    HW152051   5.776   5.354   8.478 -0.5000  0.4015 -0.2995
16945SOL    HW252052   5.914   5.412   8.462  0.3673 -1.4635  0.1263
16946SOL     OW52053   7.276   4.010   8.424  0.1643  0.2187 -0.4298
16946SOL    HW152054   7.274   4.021   8.329 -0.2704  0.1466 -0.4301
16946SOL    HW252055   7.347   4.067   8.453  1.0138 -0.5557 -0.9028
16947SOL     OW52056   6.824   5.551   7.421 -0.2239  0.3452 -0.6378
16947SOL    HW152057   6.861   5.638   7.406  1.2107  0.0581  0.8691
16947SOL    HW252058   6.744   5.566   7.471 -1.0581  0.8737 -2.0919
16948SOL     OW52059   6.595   4.903   8.269 -0.0357 -0.4048 -0.4528
16948SOL    HW152060   6.598   4.808   8.277  1.0249 -0.3548 -0.1899
16948SOL    HW252061   6.622   4.936   8.354  0.9408  0.1184 -0.9412
16949SOL     OW52062   6.056   5.316   7.656 -0.0877  0.5633  0.1030
16949SOL    HW152063   6.108   5.355   7.726 -0.0536 -1.1262  1.0947
16949SOL    HW252064   6.031   5.230   7.691 -1.0366  0.1356 -1.5275
16950SOL     OW52065   7.179   3.771   8.711  0.1396 -0.2226  0.3928
16950SOL    HW152066   7.124   3.699   8.681 -0.6580  0.4394  0.2576
16950SOL    HW252067   7.157   3.782   8.803 -0.3284  0.3725  0.2141
16951SOL     OW52068   6.277   4.310   8.288  0.3919 -0.1393 -0.0364
16951SOL    HW152069   6.258   4.260   8.209  1.5492  0.9970 -1.0737
16951SOL    HW252070   6.304   4.244   8.352  2.1629 -0.8511 -1.4476
16952SOL     OW52071   6.831   5.158   7.425 -0.2430 -0.0513  0.1892
16952SOL    HW152072   6.833   5.064   7.407 -0.1811 -0.3604  1.6805
16952SOL    HW252073   6.776   5.167   7.503 -1.0283  1.2620 -0.4776
16953SOL     OW52074   6.621   5.172   0.285  0.0976 -0.8600 -0.3216
16953SOL    HW152075   6.601   5.098   0.228  0.6778 -0.3077 -1.2632
16953SOL    HW252076   6.536   5.207   0.310 -0.2031 -2.1623  0.5901
16954SOL     OW52077   6.621   4.641   8.358  0.1329 -0.5222 -0.0180
16954SOL    HW152078   6.677   4.583   8.307  0.2978  1.6993 -2.5051
16954SOL    HW252079   6.532   4.619   8.330  0.2371  0.8997 -1.6411
16955SOL     OW52080   6.928   5.303   7.220 -0.0846  0.1978  0.0598
16955SOL    HW152081   6.971   5.382   7.253 -2.1842  1.2916  0.2873
16955SOL    HW252082   6.891   5.261   7.297 -0.0017 -0.3825 -0.2077
16956SOL     OW52083   7.007   5.278   8.368  0.1915 -0.3178 -0.2448
16956SOL    HW152084   7.023   5.362   8.411 -1.6742  0.7419 -1.4317
16956SOL    HW252085   6.911   5.273   8.361  0.3278 -0.7437 -3.5023
16957SOL     OW52086   6.798   4.963   8.108  0.6923 -0.4563  0.5049
16957SOL    HW152087   6.773   5.055   8.098 -2.5540 -1.3903 -1.3406
16957SOL    HW252088   6.740   4.930   8.177  1.5184 -1.2623  0.8343
16958SOL     OW52089   6.406   3.285   8.386  0.1596 -0.1865 -0.3212
16958SOL    HW152090   6.479   3.257   8.331 -0.1626 -0.2262 -0.7401
16958SOL    HW252091   6.404   3.222   8.458  0.1326 -0.5756 -0.6601
16959SOL     OW52092   6.009   5.150   8.192 -0.2151 -0.9253  0.0411
16959SOL    HW152093   5.950   5.100   8.136  0.7766 -0.4930 -1.4577
16959SOL    HW252094   6.080   5.176   8.134  0.5535  0.0726  1.3791
16960SOL     OW52095   6.881   4.644   0.256 -0.3656 -0.2454  1.0891
16960SOL    HW152096   6.859   4.599   0.174 -0.5606  1.3430  0.2367
16960SOL    HW252097   6.797   4.676   0.289  0.0042  1.4973  0.4406
16961SOL     OW52098   5.825   5.005   7.528 -0.7820  0.2500 -0.2555
16961SOL    HW152099   5.745   4.954   7.536 -1.0200  0.7045  0.3325
16961SOL    HW252100   5.890   4.943   7.493 -0.4979 -1.0683  2.4125
16962SOL     OW52101   5.965   3.803   0.296 -0.3328 -0.1298  0.2428
16962SOL    HW152102   5.982   3.781   0.388 -0.8426 -0.7837  0.1846
16962SOL    HW252103   6.037   3.762   0.248  0.9949  1.7520  0.4874
16963SOL     OW52104   5.314   4.563   7.780 -0.1603 -0.0949 -0.1023
16963SOL    HW152105   5.369   4.582   7.704  0.6202  1.1566  0.7367
16963SOL    HW252106   5.239   4.515   7.744  0.4773 -0.0492 -1.5637
16964SOL     OW52107   5.523   4.241   7.874  0.2479 -0.4009  0.5449
16964SOL    HW152108   5.462   4.310   7.901 -0.0104  1.2338 -3.4662
16964SOL    HW252109   5.608   4.284   7.872  0.6856 -1.2150  1.2474
16965SOL     OW52110   6.921   5.203   7.796 -0.1689 -0.1560 -0.1926
16965SOL    HW152111   6.927   5.285   7.846 -0.1547 -0.1573 -0.1920
16965SOL    HW252112   6.844   5.215   7.740 -0.4812 -0.3487  0.1857
16966SOL     OW52113   6.318   4.962   0.368  0.0860  0.2893 -0.2864
16966SOL    HW152114   6.230   4.974   0.333  0.2076  0.8336 -0.4059
16966SOL    HW252115   6.317   5.009   0.452  1.0322  2.5608 -1.4743
16967SOL     OW52116   7.311   5.744   8.241 -0.3011  0.0425 -0.2768
16967SOL    HW152117   7.386   5.715   8.293 -0.7976  0.0648  0.4739
16967SOL    HW252118   7.323   5.702   8.156  0.3007 -0.3549 -0.0046
16968SOL     OW52119   6.160   5.905   8.809  0.1928 -0.0457  0.3758
16968SOL    HW152120   6.069   5.915   8.780 -0.1764  0.1434  1.5772
16968SOL    HW252121   6.183   5.991   8.844 -0.5825 -1.1477  3.9661
16969SOL     OW52122   6.834   5.002   0.067 -0.3697  1.1310  0.1466
16969SOL    HW152123   6.763   4.940   0.083 -1.5877  2.5901  0.6667
16969SOL    HW252124   6.901   4.951   0.021  0.0823 -1.3773  3.2665
16970SOL     OW52125   6.802   3.892   8.118  0.2725 -0.1163  0.1543
16970SOL    HW152126   6.830   3.979   8.145  0.1800 -0.3067  0.8710
16970SOL    HW252127   6.723   3.874   8.170  1.2466 -1.3187  1.3051
16971SOL     OW52128   6.420   4.660   8.615  0.0199 -0.2385 -0.3236
16971SOL    HW152129   6.358   4.731   8.598  1.6590  1.1184 -0.8384
16971SOL    HW252130   6.472   4.654   8.534  0.4939 -1.4329  0.0458
16972SOL     OW52131   6.627   4.841   0.136 -0.2849  0.0478  0.2900
16972SOL    HW152132   6.623   4.776   0.207 -0.1540 -0.5173 -0.2060
16972SOL    HW252133   6.538   4.875   0.130 -0.0095  1.0654  1.5884
16973SOL     OW52134   6.298   5.156   7.476 -0.0510  0.2370  0.0025
16973SOL    HW152135   6.279   5.244   7.509  1.1452 -0.2054  2.0997
16973SOL    HW252136   6.228   5.139   7.413 -0.1396  2.7891 -0.7243
16974SOL     OW52137   6.529   5.880   7.914 -0.1398  0.1810  0.4833
16974SOL    HW152138   6.472   5.896   7.990  1.1285 -0.0691  1.5385
16974SOL    HW252139   6.565   5.966   7.893 -0.4380  0.2391  0.2222
16975SOL     OW52140   6.507   5.112   8.621 -0.3381  0.0172 -0.2292
16975SOL    HW152141   6.433   5.172   8.631 -1.6326 -1.5721  0.2990
16975SOL    HW252142   6.467   5.029   8.594  1.5425 -0.1762 -2.8356
16976SOL     OW52143   6.542   5.038   7.507 -0.0737  0.4466  0.0496
16976SOL    HW152144   6.461   5.089   7.496  0.1344  0.5951 -0.8088
16976SOL    HW252145   6.542   4.976   7.434  1.1535  1.2095 -0.6251
16977SOL     OW52146   7.459   5.195   8.175 -0.3644  0.2809 -0.1419
16977SOL    HW152147   7.419   5.140   8.108 -0.1387 -1.1905  0.8807
16977SOL    HW252148   7.400   5.187   8.251  0.1514  0.7327  0.3209
16978SOL     OW52149   5.926   5.090   7.789 -0.0181 -0.0561  0.1093
16978SOL    HW152150   5.987   5.019   7.810  1.0111  0.9690  0.7513
16978SOL    HW252151   5.875   5.057   7.715  1.3331 -0.9573 -0.4719
16979SOL     OW52152   7.299   3.284   8.718  0.5326 -0.3635  0.1445
16979SOL    HW152153   7.246   3.224   8.666 -1.5626  1.8207 -0.4400
16979SOL    HW252154   7.265   3.275   8.807 -0.9184  0.9819 -0.2170
16980SOL     OW52155   5.787   4.210   8.081  0.1286  0.1736  0.3255
16980SOL    HW152156   5.837   4.289   8.100 -1.9375  1.2790  1.5957
16980SOL    HW252157   5.772   4.214   7.986 -0.1578  1.4574  0.4079
16981SOL     OW52158   7.570   5.534   8.235 -0.8703 -0.3277 -0.2874
16981SOL    HW152159   7.614   5.449   8.237 -0.9790 -0.3819 -0.2095
16981SOL    HW252160   7.536   5.542   8.146 -1.5238 -0.7045 -0.0795
16982SOL     OW52161   6.096   4.557   8.567  0.1499  0.6170 -0.1069
16982SOL    HW152162   6.167   4.589   8.622  0.1252  0.4112  0.0459
16982SOL    HW252163   6.046   4.498   8.624 -0.8052  1.6308  0.1340
16983SOL     OW52164   6.244   5.493   7.826  0.2927 -0.4826 -0.0264
16983SOL    HW152165   6.313   5.495   7.892 -1.4724  0.9223  1.9017
16983SOL    HW252166   6.259   5.572   7.773  2.1449 -1.9852 -1.9130
16984SOL     OW52167   7.101   4.095   0.649  0.0467  0.3732 -0.1124
16984SOL    HW152168   7.093   4.000   0.648  0.0284  0.3583  0.5970
16984SOL    HW252169   7.091   4.122   0.558 -1.9781 -0.1369 -0.0788
16985SOL     OW52170   6.615   3.181   8.266  0.4673 -0.3339  0.2777
16985SOL    HW152171   6.680   3.182   8.336 -1.2695  0.9988  1.9858
16985SOL    HW252172   6.657   3.229   8.194  0.7776  2.1760  2.0084
16986SOL     OW52173   6.216   5.156   7.994  0.2687 -0.4370  0.8089
16986SOL    HW152174   6.272   5.089   8.033  0.9462  0.6535  1.7274
16986SOL    HW252175   6.273   5.204   7.934  0.2124  0.3853  1.4031
16987SOL     OW52176   6.797   5.530   8.423 -0.0246  0.2657  0.7961
16987SOL    HW152177   6.877   5.574   8.394 -0.5821  0.3267 -0.7451
16987SOL    HW252178   6.741   5.600   8.457  0.0614  0.3970  0.6625
16988SOL     OW52179   6.947   3.590   7.818 -0.6235  0.3529  0.0342
16988SOL    HW152180   6.954   3.520   7.753 -0.0778 -0.1103  0.5706
16988SOL    HW252181   6.873   3.564   7.874  0.4321 -0.5529  1.0773
16989SOL     OW52182   6.848   4.469   8.475  0.8187  0.6329  0.2433
16989SOL    HW152183   6.820   4.465   8.384  0.3723 -3.6727  0.3266
16989SOL    HW252184   6.775   4.509   8.521 -0.0989  0.4348 -0.9903
16990SOL     OW52185   7.149   4.066   0.324  0.0887  0.2929  0.0510
16990SOL    HW152186   7.210   3.994   0.338 -1.2507 -0.8253  0.2877
16990SOL    HW252187   7.069   4.025   0.293 -0.3517  1.7921 -0.9369
16991SOL     OW52188   5.967   4.817   7.812 -0.2517  0.4951  0.1448
16991SOL    HW152189   5.895   4.822   7.749 -0.8646 -0.8252  0.6905
16991SOL    HW252190   6.043   4.795   7.758 -0.6089  0.1708 -0.2439
16992SOL     OW52191   6.378   5.716   7.718 -0.4253 -0.0883 -0.2093
16992SOL    HW152192   6.331   5.785   7.673 -0.2338 -0.4172 -0.9201
16992SOL    HW252193   6.425   5.760   7.789 -1.0955  0.3620 -0.0451
16993SOL     OW52194   5.620   6.322   0.274 -0.1952 -0.1279 -0.1800
16993SOL    HW152195   5.654   6.386   0.212  2.0274 -1.7971 -0.7857
16993SOL    HW252196   5.560   6.268   0.223  2.2546 -2.0291 -1.2686
16994SOL     OW52197   5.930   6.087   1.050 -0.6517 -0.0642  0.3068
16994SOL    HW152198   5.893   6.000   1.068 -0.3926 -0.0877  0.7529
16994SOL    HW252199   5.863   6.132   0.999 -1.0763 -0.2854  0.6634
16995SOL     OW52200   5.732   6.092   0.095  0.5348  0.9569 -0.6020
16995SOL    HW152201   5.802   6.147   0.061  0.1801  0.7485 -1.7258
16995SOL    HW252202   5.679   6.071   0.018 -0.2841  0.4267  0.0876
16996SOL     OW52203   6.021   6.986   1.259  0.1188 -0.5077 -0.1659
16996SOL    HW152204   6.112   6.965   1.282  0.3147  1.4858  1.1744
16996SOL    HW252205   6.010   6.951   1.171  1.4090 -2.8840  0.5164
16997SOL     OW52206   7.238   6.930   0.313  0.4022  0.3829  0.4030
16997SOL    HW152207   7.169   6.866   0.297  1.3731 -0.2218 -1.8377
16997SOL    HW252208   7.196   7.015   0.301 -0.1055  0.0392 -0.3055
16998SOL     OW52209   6.701   6.702   0.683 -0.3206 -0.5953 -0.0292
16998SOL    HW152210   6.718   6.659   0.767  1.0401 -2.3986 -1.1490
16998SOL    HW252211   6.747   6.786   0.690  0.1355 -0.9038  0.8949
16999SOL     OW52212   7.213   6.346   0.132  0.6876 -0.0223 -0.4869
16999SOL    HW152213   7.236   6.315   0.220  0.1315 -0.4272 -0.4795
16999SOL    HW252214   7.118   6.344   0.129  0.6961  0.1013 -1.0621
17000SOL     OW52215   5.997   6.593   1.231  0.8433 -0.3691 -0.5690
17000SOL    HW152216   6.009   6.534   1.157 -1.0514 -0.3502 -0.9491
17000SOL    HW252217   5.931   6.550   1.285 -0.1279  1.0781 -0.5391
17001SOL     OW52218   6.759   6.463   2.044  0.1143  0.3407 -0.2074
17001SOL    HW152219   6.773   6.379   2.000 -1.8505 -0.4299  0.5554
17001SOL    HW252220   6.831   6.468   2.107 -0.5950 -1.5564  0.8438
17002SOL     OW52221   6.404   6.570   0.813 -0.1090 -0.5236 -0.4718
17002SOL    HW152222   6.348   6.646   0.834  1.3318  0.3442  0.3631
17002SOL    HW252223   6.411   6.572   0.717 -1.2391 -0.4697 -0.5717
17003SOL     OW52224   5.863   6.885   2.014  0.2832 -0.0255  0.1780
17003SOL    HW152225   5.936   6.941   2.038  0.4201  0.1592 -0.6285
17003SOL    HW252226   5.856   6.822   2.086  1.1922 -0.0063  0.2950
17004SOL     OW52227   5.907   6.810   1.068 -0.1218 -0.4017  0.3329
17004SOL    HW152228   5.862   6.757   1.003 -0.5638  0.0195  0.2885
17004SOL    HW252229   5.945   6.746   1.128 -1.6127 -0.7808  0.9330
17005SOL     OW52230   7.190   6.860   1.491  0.5086  0.0604 -0.5372
17005SOL    HW152231   7.179   6.919   1.417  0.9831  2.8287  1.4016
17005SOL    HW252232   7.102   6.831   1.512  0.2725 -0.0242 -1.5999
17006SOL     OW52233   5.788   5.538   1.373 -0.1306 -0.1978 -0.0708
17006SOL    HW152234   5.734   5.459   1.370 -0.5681  0.1167 -0.6115
17006SOL    HW252235   5.821   5.548   1.284  0.9255 -0.4456  0.2742
17007SOL     OW52236   6.963   6.392   0.552  0.1388 -0.6593 -0.0456
17007SOL    HW152237   6.953   6.401   0.647 -1.5649  1.2613 -0.3180
17007SOL    HW252238   7.024   6.461   0.528  0.6180 -1.1863 -0.3410
17008SOL     OW52239   5.749   7.573   0.694  0.0741  0.2254  0.3569
17008SOL    HW152240   5.777   7.560   0.784  1.3153 -0.8717 -0.1586
17008SOL    HW252241   5.810   7.638   0.659  0.0486  0.1135  0.1025
17009SOL     OW52242   6.646   7.172   1.547  0.3545  0.4274 -1.0055
17009SOL    HW152243   6.552   7.159   1.553  0.1827 -1.2310 -4.5794
17009SOL    HW252244   6.684   7.090   1.579  0.5782  0.7433 -0.4396
17010SOL     OW52245   5.533   7.218   0.196 -0.3751  0.4182  0.2722
17010SOL    HW152246   5.450   7.170   0.200  0.6464 -1.4718 -0.0816
17010SOL    HW252247   5.580   7.180   0.122  0.8437  1.3958  0.5068
17011SOL     OW52248   6.081   6.618   0.879  0.5276  0.1520 -0.3566
17011SOL    HW152249   6.078   6.556   0.953  0.9980 -1.6528 -1.7798
17011SOL    HW252250   5.990   6.632   0.856  0.4265 -1.5072 -1.1481
17012SOL     OW52251   6.128   7.337   1.207  0.1099 -0.5388 -0.3282
17012SOL    HW152252   6.132   7.243   1.191  1.8620 -0.3278 -1.3013
17012SOL    HW252253   6.115   7.376   1.121  1.1983  0.1898 -0.1854
17013SOL     OW52254   6.203   6.467   0.064  0.3455 -0.5233 -0.2252
17013SOL    HW152255   6.289   6.491   0.030  1.9351 -1.4379  2.8469
17013SOL    HW252256   6.153   6.549   0.063  2.0695  0.5810  0.1879
17014SOL     OW52257   6.642   5.778   1.354 -0.1040  1.1871  0.0521
17014SOL    HW152258   6.707   5.831   1.307  0.5092  0.6594  0.2825
17014SOL    HW252259   6.558   5.808   1.321  0.3172 -0.6620 -3.0852
17015SOL     OW52260   5.587   6.343   0.539  0.7972 -0.4565 -0.0822
17015SOL    HW152261   5.661   6.301   0.581  1.3199  0.6173  0.1131
17015SOL    HW252262   5.599   6.326   0.446  2.0524  0.8152 -0.1943
17016SOL     OW52263   7.815   7.006   0.366  0.0510  0.6079 -0.1259
17016SOL    HW152264   7.851   7.012   0.278 -0.0422 -0.3133 -0.2325
17016SOL    HW252265   7.720   7.007   0.354  0.0363  0.9503  0.0022
17017SOL     OW52266   5.404   7.259   0.632 -0.3014  0.0778 -0.4398
17017SOL    HW152267   5.436   7.191   0.692 -1.1394  0.3600  0.3492
17017SOL    HW252268   5.460   7.334   0.651 -0.8302  0.2988  0.3166
17018SOL     OW52269   7.180   6.411   1.079 -0.0005 -0.3444 -0.5344
17018SOL    HW152270   7.263   6.402   1.033 -0.0524  1.3347 -1.0242
17018SOL    HW252271   7.161   6.323   1.111  0.9195 -1.1869 -2.1794
17019SOL     OW52272   7.244   6.142   8.805 -0.1892  0.6129  0.4581
17019SOL    HW152273   7.247   6.201   8.729 -1.1613  1.6106  1.1648
17019SOL    HW252274   7.252   6.200   8.880  1.0463 -0.3926  1.1412
17020SOL     OW52275   5.906   6.245   1.746  0.4077  0.1375  0.0086
17020SOL    HW152276   5.830   6.208   1.701  0.6599 -0.7186  0.2544
17020SOL    HW252277   5.872   6.321   1.793 -0.3255 -0.3027  0.2120
17021SOL     OW52278   5.985   7.042   0.668  0.0869 -0.6038 -0.2787
17021SOL    HW152279   5.977   7.133   0.698 -1.8700 -0.9723  0.4764
17021SOL    HW252280   6.048   7.046   0.596  2.6081  0.8139  1.7947
17022SOL     OW52281   6.788   7.263   1.742 -0.4944 -0.1901  0.2353
17022SOL    HW152282   6.730   7.222   1.677  0.2542 -0.7964 -0.0572
17022SOL    HW252283   6.876   7.252   1.706 -0.1369  0.1851  0.9759
17023SOL     OW52284   6.415   5.774   0.835  0.1917  0.0074 -0.4084
17023SOL    HW152285   6.377   5.693   0.869 -1.5218  0.4427 -1.1624
17023SOL    HW252286   6.462   5.812   0.909  1.5114 -1.9209 -0.1846
17024SOL     OW52287   6.156   6.447   1.604 -0.2541  0.1986 -0.4384
17024SOL    HW152288   6.199   6.364   1.624 -1.1172 -0.4520 -1.2129
17024SOL    HW252289   6.192   6.472   1.519 -1.6673 -0.5716 -1.3022
17025SOL     OW52290   7.026   6.778   0.239 -0.0560 -0.6181 -0.2257
17025SOL    HW152291   7.017   6.685   0.216 -2.8368 -0.4409 -0.2225
17025SOL    HW252292   6.985   6.785   0.325  0.5974  0.5529  0.0134
17026SOL     OW52293   6.847   7.595   1.692  0.3909  0.2708  0.0946
17026SOL    HW152294   6.915   7.606   1.626 -1.2897 -1.4410 -2.0694
17026SOL    HW252295   6.809   7.509   1.674 -0.2990 -0.1981  3.2137
17027SOL     OW52296   5.908   6.041   1.926  0.1637  0.2303  0.1888
17027SOL    HW152297   5.849   5.980   1.883 -0.9744  1.2227  0.2990
17027SOL    HW252298   5.921   6.112   1.862  0.3785  0.5394  0.5690
17028SOL     OW52299   7.193   7.031   1.271 -0.7206  0.2512 -0.0825
17028SOL    HW152300   7.224   7.118   1.293  0.7221 -0.1622 -0.3875
17028SOL    HW252301   7.139   7.043   1.193  0.1554  0.7674 -0.6166
17029SOL     OW52302   7.520   6.961   0.672  0.1070  0.7894  0.8292
17029SOL    HW152303   7.588   7.028   0.665 -0.1145  0.8955 -0.5315
17029SOL    HW252304   7.467   6.989   0.747  1.0027  1.2208  1.3114
17030SOL     OW52305   6.080   6.422   0.667 -0.3487 -0.2271  0.5488
17030SOL    HW152306   6.050   6.486   0.603 -2.3830 -1.4872  0.1477
17030SOL    HW252307   6.085   6.471   0.749 -2.7905  0.3236  0.4624
17031SOL     OW52308   7.188   6.092   0.694 -0.6157 -0.0826  0.1888
17031SOL    HW152309   7.249   6.164   0.708 -0.3348  0.4126 -2.9163
17031SOL    HW252310   7.236   6.013   0.718  0.0779  0.5500  0.8981
17032SOL     OW52311   7.243   7.070   0.568  0.4463 -0.0787  0.1990
17032SOL    HW152312   7.315   7.132   0.559 -0.4581  0.9783  0.0840
17032SOL    HW252313   7.253   7.011   0.493  1.2440 -0.0104  0.2395
17033SOL     OW52314   6.265   5.798   1.407 -0.2422  0.1985  0.1828
17033SOL    HW152315   6.301   5.880   1.439  0.6274  0.0204 -0.3061
17033SOL    HW252316   6.175   5.796   1.441  0.2944  0.5035  1.7021
17034SOL     OW52317   7.299   6.022   1.575  0.3676 -0.3201  0.2149
17034SOL    HW152318   7.242   6.096   1.553 -0.5179 -0.9998  0.2014
17034SOL    HW252319   7.366   6.023   1.506  0.7024  0.8032  0.5311
17035SOL     OW52320   6.699   6.485   1.746 -0.3366  0.5187  0.3814
17035SOL    HW152321   6.734   6.411   1.794  1.3757  0.4753 -0.8277
17035SOL    HW252322   6.619   6.453   1.705  0.1739 -0.5586  0.2048
17036SOL     OW52323   6.432   6.033   0.965 -0.6245 -0.6221  0.2626
17036SOL    HW152324   6.498   6.102   0.953 -0.2836 -0.7123  1.4576
17036SOL    HW252325   6.451   5.997   1.052 -0.7508 -2.2695 -0.3574
17037SOL     OW52326   6.350   6.921   0.599  0.1383 -0.9135  0.4954
17037SOL    HW152327   6.416   6.981   0.634  1.0010 -0.9776 -0.9874
17037SOL    HW252328   6.396   6.838   0.586 -0.2626 -0.9946 -0.4522
17038SOL     OW52329   5.720   6.525   1.218  0.0669  0.0697  0.7694
17038SOL    HW152330   5.706   6.433   1.241  2.6602 -1.2207 -2.0194
17038SOL    HW252331   5.673   6.537   1.135 -3.0433  2.4091  2.6547
17039SOL     OW52332   4.768   7.376   1.551  0.5139  0.6234 -0.5331
17039SOL    HW152333   4.686   7.341   1.515 -0.4837  2.7031 -0.4580
17039SOL    HW252334   4.835   7.352   1.487  0.1795 -2.3570  0.0771
17040SOL     OW52335   6.446   6.030   8.461  0.4704 -0.0884 -0.2980
17040SOL    HW152336   6.466   5.972   8.534  2.6326 -2.1323 -2.2957
17040SOL    HW252337   6.385   5.980   8.407 -0.4286  1.0238 -0.3420
17041SOL     OW52338   7.558   5.696   1.563  0.1452  0.1523 -0.2992
17041SOL    HW152339   7.615   5.722   1.635  0.6062 -0.8973 -0.2745
17041SOL    HW252340   7.536   5.605   1.581 -1.4228  0.4949 -0.3973
17042SOL     OW52341   7.122   6.667   1.167  0.2699 -0.1888 -0.1430
17042SOL    HW152342   7.120   6.573   1.150 -0.8552 -0.0787 -0.6777
17042SOL    HW252343   7.030   6.694   1.167  0.6386  1.2805 -2.0690
17043SOL     OW52344   6.242   5.319   1.455 -0.0138 -0.5626  0.3272
17043SOL    HW152345   6.298   5.376   1.508  0.0429 -0.6915  0.4067
17043SOL    HW252346   6.229   5.367   1.373 -1.8909  0.6576  1.2654
17044SOL     OW52347   6.615   7.282   0.884  0.0391  0.3197  0.4666
17044SOL    HW152348   6.583   7.355   0.831  2.4901  2.5775  1.8383
17044SOL    HW252349   6.582   7.300   0.971 -0.9227 -1.3323  0.4689
17045SOL     OW52350   5.664   7.244   0.949  0.1824 -0.2045  0.0971
17045SOL    HW152351   5.569   7.253   0.943  0.2281 -0.0628 -0.4999
17045SOL    HW252352   5.678   7.170   1.008 -0.3297 -1.6125 -1.4799
17046SOL     OW52353   7.360   6.585   1.317 -0.3361  0.0555  0.1758
17046SOL    HW152354   7.283   6.629   1.280 -0.0301  1.3919  1.0366
17046SOL    HW252355   7.333   6.494   1.327 -1.4886  0.3136 -0.4084
17047SOL     OW52356   6.561   7.382   1.874 -0.1149  0.0471 -0.1386
17047SOL    HW152357   6.504   7.308   1.854  0.5423 -0.2352 -1.0283
17047SOL    HW252358   6.646   7.358   1.836  1.3027 -0.5739  3.0418
17048SOL     OW52359   5.896   6.504   0.179 -0.1749 -0.3313 -0.4109
17048SOL    HW152360   5.933   6.578   0.132  1.1161 -1.4263 -1.2089
17048SOL    HW252361   5.804   6.501   0.152 -0.0228  0.4567 -1.0342
17049SOL     OW52362   6.847   6.660   0.905  0.0838 -0.0692  0.6515
17049SOL    HW152363   6.925   6.624   0.864 -0.7301  1.3050 -2.4405
17049SOL    HW252364   6.880   6.719   0.972  1.6587 -0.5311  0.3228
17050SOL     OW52365   5.982   7.160   1.708  0.1392 -0.0147 -0.3137
17050SOL    HW152366   5.950   7.112   1.632  1.2293  1.3366 -1.6845
17050SOL    HW252367   5.912   7.223   1.727 -0.0718 -0.2556 -0.2866
17051SOL     OW52368   6.807   7.404   0.218  0.1523 -1.1197  0.6143
17051SOL    HW152369   6.725   7.399   0.267  1.0504 -0.4266  2.2844
17051SOL    HW252370   6.838   7.493   0.233  1.1733 -1.3395 -0.0754
17052SOL     OW52371   5.383   5.941   1.403 -0.5460  0.1986 -0.0827
17052SOL    HW152372   5.344   6.006   1.462 -0.1584  0.7034 -0.3822
17052SOL    HW252373   5.426   5.878   1.462  0.9410  1.3918  0.1591
17053SOL     OW52374   6.830   7.068   0.274  0.1215 -0.1658  0.5161
17053SOL    HW152375   6.856   6.977   0.280  0.8420 -0.0540 -0.6123
17053SOL    HW252376   6.743   7.065   0.233 -1.2678 -0.4763  3.2851
17054SOL     OW52377   5.821   7.366   0.451 -0.6702  0.0884  0.0682
17054SOL    HW152378   5.853   7.361   0.542  1.1586 -1.5685 -0.5829
17054SOL    HW252379   5.732   7.401   0.458 -0.0872  1.3305  2.3654
17055SOL     OW52380   7.393   6.037   0.311  0.1910  0.4982 -0.0717
17055SOL    HW152381   7.464   6.048   0.248 -0.3701  1.1336 -0.6058
17055SOL    HW252382   7.400   5.946   0.339 -1.4231 -0.7986 -3.3608
17056SOL     OW52383   5.409   7.055   1.101  0.2571  0.3833 -0.1341
17056SOL    HW152384   5.393   7.140   1.060  0.2122 -1.1562 -3.6268
17056SOL    HW252385   5.330   7.004   1.083 -0.2575 -0.1096  3.0058
17057SOL     OW52386   6.309   7.493   0.915  0.1507 -0.0774  0.0439
17057SOL    HW152387   6.347   7.443   0.842  1.9417  0.0987  0.8060
17057SOL    HW252388   6.362   7.469   0.991 -1.8808 -0.5112  1.4020
17058SOL     OW52389   5.841   6.263   0.621 -0.0336  0.1145 -0.0778
17058SOL    HW152390   5.866   6.171   0.622  1.2046  0.4328 -0.2356
17058SOL    HW252391   5.922   6.311   0.637 -0.5722  1.1931 -0.4266
17059SOL     OW52392   6.964   6.017   1.501 -0.6870  0.0689  0.2123
17059SOL    HW152393   7.006   5.936   1.473 -0.7631  0.8171 -2.3830
17059SOL    HW252394   7.019   6.086   1.463 -0.7492  1.2521  2.1539
17060SOL     OW52395   5.906   5.610   2.028  0.0246  0.1973 -0.0977
17060SOL    HW152396   5.934   5.521   2.051  1.3338  0.0573 -2.0178
17060SOL    HW252397   5.823   5.598   1.982 -1.6352  0.3369  2.5984
17061SOL     OW52398   6.485   7.384   1.105 -0.5373 -0.0241  0.5711
17061SOL    HW152399   6.451   7.300   1.137 -2.0374  1.4204  3.0658
17061SOL    HW252400   6.553   7.408   1.168  0.5527  0.2738 -0.6569
17062SOL     OW52401   6.869   6.200   1.207  0.2759 -0.1060  0.5501
17062SOL    HW152402   6.884   6.278   1.260  1.6111  0.8024 -1.0872
17062SOL    HW252403   6.952   6.183   1.164 -0.8440 -0.5480 -1.5729
17063SOL     OW52404   6.430   7.107   1.144 -0.6232 -0.5439  0.4494
17063SOL    HW152405   6.383   7.050   1.204 -1.1015 -0.4348  0.1819
17063SOL    HW252406   6.458   7.050   1.073 -1.5498 -0.3671 -0.0789
17064SOL     OW52407   6.755   5.975   0.618  0.2652  0.4584 -0.3816
17064SOL    HW152408   6.707   6.048   0.578  0.5303  0.4974 -0.6318
17064SOL    HW252409   6.844   5.985   0.585  0.5053  0.5332  0.2811
17065SOL     OW52410   6.189   6.142   0.388  0.0420 -0.0480  0.3706
17065SOL    HW152411   6.215   6.147   0.480  0.4334  1.0648  0.2147
17065SOL    HW252412   6.094   6.129   0.391 -0.0430  0.6098  0.9469
17066SOL     OW52413   6.578   7.029   0.147 -0.0590  0.1799 -0.1890
17066SOL    HW152414   6.616   7.051   0.061  0.5726 -0.4073 -0.0648
17066SOL    HW252415   6.590   6.935   0.155  1.3277  0.4451  1.2344
17067SOL     OW52416   6.626   6.240   0.215  0.1783  0.4662 -0.5208
17067SOL    HW152417   6.630   6.193   0.132  0.9829 -1.3828  0.4999
17067SOL    HW252418   6.606   6.330   0.191  1.1058  0.1409 -2.7693
17068SOL     OW52419   6.505   6.015   1.246 -0.8159  0.0370  0.3062
17068SOL    HW152420   6.543   6.102   1.234  2.0771 -0.7477  2.4740
17068SOL    HW252421   6.436   6.027   1.311 -0.3138  0.7208  0.7232
17069SOL     OW52422   6.467   6.910   0.960 -0.3726 -0.6374  0.3871
17069SOL    HW152423   6.376   6.924   0.932 -0.2950 -0.0209  0.4283
17069SOL    HW252424   6.519   6.935   0.884 -0.1043  2.1824  1.3695
17070SOL     OW52425   6.214   6.863   0.827 -0.0793 -0.4488 -0.2228
17070SOL    HW152426   6.153   6.789   0.830 -1.3614  0.6171  1.1437
17070SOL    HW252427   6.217   6.888   0.735 -1.1865 -0.9267 -0.3974
17071SOL     OW52428   6.882   6.976   1.200  1.0538 -0.2205  0.2432
17071SOL    HW152429   6.940   7.018   1.138  0.9938  1.0255  0.9966
17071SOL    HW252430   6.815   7.042   1.219  0.3459 -1.0344  0.6562
17072SOL     OW52431   6.572   5.924   8.690  0.1120  0.1418 -0.3239
17072SOL    HW152432   6.661   5.910   8.721  0.4263 -0.0772 -1.2812
17072SOL    HW252433   6.518   5.867   8.745  0.5152  0.5044  0.4615
17073SOL     OW52434   5.677   6.281   1.322  0.0669  0.2675  0.2002
17073SOL    HW152435   5.597   6.229   1.317 -0.8618  1.6716 -0.2316
17073SOL    HW252436   5.748   6.217   1.325 -1.0129 -0.9958 -0.5316
17074SOL     OW52437   6.324   5.673   1.646  0.9477  0.7187  0.0779
17074SOL    HW152438   6.418   5.691   1.643  0.8183  1.3377 -1.7306
17074SOL    HW252439   6.290   5.712   1.565 -0.6369 -0.7374 -0.0086
17075SOL     OW52440   7.024   6.034   0.908  0.0464  0.1540 -0.6691
17075SOL    HW152441   7.063   6.045   0.822 -2.6653 -0.4266 -2.1017
17075SOL    HW252442   7.014   5.939   0.918 -0.9256  0.2725 -0.3767
17076SOL     OW52443   6.292   5.531   0.869 -0.0382 -0.3143 -0.3971
17076SOL    HW152444   6.204   5.499   0.848  0.3681 -1.6691 -0.1460
17076SOL    HW252445   6.342   5.518   0.788  0.2011 -0.5697 -0.2095
17077SOL     OW52446   6.963   6.739   1.651  0.0831  0.2872  0.1132
17077SOL    HW152447   7.041   6.684   1.653  0.2907  0.5355 -0.7939
17077SOL    HW252448   6.897   6.685   1.609  0.2414  0.6676 -0.6320
17078SOL     OW52449   6.974   6.385   0.853 -0.2107 -0.1436  0.1846
17078SOL    HW152450   6.936   6.299   0.839 -1.4604 -0.0969  2.7570
17078SOL    HW252451   7.056   6.368   0.900 -0.0313  0.0494 -0.0507
17079SOL     OW52452   7.371   6.615   0.681  0.2802  0.5716  0.5100
17079SOL    HW152453   7.424   6.618   0.761  0.7165  1.8828  0.1902
17079SOL    HW252454   7.414   6.675   0.621 -1.2186  1.1981  0.0187
17080SOL     OW52455   6.040   6.704   0.068  0.1297 -0.0297  0.2234
17080SOL    HW152456   6.029   6.796   0.093 -0.2264 -0.0705  0.2160
17080SOL    HW252457   6.003   6.698  -0.020  1.2645  0.0859 -0.2885
17081SOL     OW52458   7.433   6.837   0.144  0.2905 -0.3671  0.1989
17081SOL    HW152459   7.397   6.852   0.057 -1.5236 -0.6786  0.8419
17081SOL    HW252460   7.359   6.853   0.203  1.9582  1.7694  1.8575
17082SOL     OW52461   6.735   6.471   8.749 -0.2895 -0.2325  0.1147
17082SOL    HW152462   6.823   6.445   8.722  0.7519  2.5553  0.5565
17082SOL    HW252463   6.677   6.428   8.686  1.5233 -0.5628 -1.3946
17083SOL     OW52464   5.882   6.185   0.344 -0.2052  0.6672 -0.3949
17083SOL    HW152465   5.877   6.270   0.388 -1.2676  0.6837 -0.5323
17083SOL    HW252466   5.812   6.188   0.279  0.3519  0.0354 -1.0282
17084SOL     OW52467   7.404   6.390   1.722  0.3713  0.1414  0.0615
17084SOL    HW152468   7.486   6.426   1.686 -0.1628  1.5461  0.1843
17084SOL    HW252469   7.432   6.314   1.773  1.9331  1.8459  1.9615
17085SOL     OW52470   6.370   6.868   1.557  0.1085  0.3227  0.1460
17085SOL    HW152471   6.339   6.950   1.594 -0.9729  0.0846 -0.1978
17085SOL    HW252472   6.354   6.803   1.626 -0.0275  0.2168  0.0145
17086SOL     OW52473   6.994   7.236   1.547  0.3286  0.2596 -0.0328
17086SOL    HW152474   6.984   7.146   1.515 -0.3347  0.0637  0.7013
17086SOL    HW252475   7.088   7.245   1.562  0.4947 -0.0562 -0.8272
17087SOL     OW52476   6.423   6.538   1.559 -0.0917 -0.1366  0.4101
17087SOL    HW152477   6.372   6.580   1.490  0.9640 -0.9415 -0.9101
17087SOL    HW252478   6.392   6.580   1.640  0.8851  3.2390 -0.7698
17088SOL     OW52479   7.406   6.733   1.613  0.2017  0.0913 -0.3153
17088SOL    HW152480   7.346   6.667   1.649  0.8633 -0.3147  0.0850
17088SOL    HW252481   7.350   6.792   1.564 -0.6052  0.0609  0.5235
17089SOL     OW52482   6.482   5.481   1.511  0.3538 -0.2296  0.5171
17089SOL    HW152483   6.542   5.540   1.557 -0.5770  1.0664  0.1120
17089SOL    HW252484   6.488   5.507   1.419  0.2113 -1.0365  0.2641
17090SOL     OW52485   6.622   7.004   1.898  0.3606  0.1164  0.1058
17090SOL    HW152486   6.586   6.917   1.916 -0.4667  0.3090 -0.5296
17090SOL    HW252487   6.714   6.998   1.924  0.4149 -1.0655 -0.3091
17091SOL     OW52488   6.359   6.182   8.680 -0.4159 -0.4915  0.5655
17091SOL    HW152489   6.266   6.164   8.691 -0.5851 -0.5233 -0.7480
17091SOL    HW252490   6.381   6.146   8.594  0.7089 -0.1040  0.6659
17092SOL     OW52491   6.032   6.067   1.347 -0.2410  0.0362  0.1986
17092SOL    HW152492   6.108   6.125   1.336  1.0607 -1.5899  0.3206
17092SOL    HW252493   6.017   6.031   1.259  1.7463 -2.7201  0.8542
17093SOL     OW52494   6.729   5.909   0.950 -0.0620 -0.2633  0.0944
17093SOL    HW152495   6.731   5.984   0.889  1.9643  0.2474  0.7154
17093SOL    HW252496   6.769   5.837   0.901 -0.2802 -0.4131  0.1367
17094SOL     OW52497   5.593   7.127   1.277  0.3644  0.5125 -0.4280
17094SOL    HW152498   5.528   7.099   1.213  1.4806  1.3226 -2.0106
17094SOL    HW252499   5.677   7.110   1.234  1.1617  1.0734  0.8404
17095SOL     OW52500   6.201   6.728   0.451  0.1459 -0.6044  0.1889
17095SOL    HW152501   6.196   6.811   0.498 -2.0686 -0.8625  0.5227
17095SOL    HW252502   6.294   6.707   0.448  0.5654  0.7725  2.0679
17096SOL     OW52503   6.297   5.478   1.215 -0.1252 -0.0161  0.4557
17096SOL    HW152504   6.220   5.530   1.197  1.2764  1.8156 -0.6172
17096SOL    HW252505   6.371   5.533   1.188  1.5610 -1.7574  1.2059
17097SOL     OW52506   7.087   7.051   1.003  0.0384  0.2038 -0.1249
17097SOL    HW152507   7.017   7.096   0.955  0.1532 -1.1069 -1.5979
17097SOL    HW252508   7.163   7.054   0.944  0.3369 -1.0288  0.1640
17098SOL     OW52509   6.932   6.988   1.486  0.3186  0.2546  0.3510
17098SOL    HW152510   6.905   6.904   1.523  0.5686 -0.0224 -0.0859
17098SOL    HW252511   6.925   6.976   1.391  1.2851  0.4041  0.2461
17099SOL     OW52512   7.593   6.371   0.387  0.1197  0.3308  0.2733
17099SOL    HW152513   7.663   6.436   0.395 -0.4816  0.9198  0.8295
17099SOL    HW252514   7.639   6.287   0.384  0.9175  0.7920 -0.7589
17100SOL     OW52515   5.810   7.072   1.111 -0.5666 -1.0313  0.2232
17100SOL    HW152516   5.823   6.987   1.068  0.7014  0.9649 -3.8889
17100SOL    HW252517   5.899   7.103   1.130 -0.8741  0.2259 -0.2861
17101SOL     OW52518   6.281   5.979   1.835 -0.2041 -0.4814  0.3356
17101SOL    HW152519   6.237   5.896   1.849 -0.8647 -0.4851 -1.4958
17101SOL    HW252520   6.226   6.026   1.773  2.0709 -0.3156 -1.7450
17102SOL     OW52521   6.966   6.381   2.202  0.3898 -0.1080  0.1569
17102SOL    HW152522   6.973   6.294   2.242 -0.2584  0.1371  0.8246
17102SOL    HW252523   7.057   6.410   2.191  0.5897 -0.5306  0.6714
17103SOL     OW52524   6.615   5.601   2.257  0.2272 -0.3392 -0.3530
17103SOL    HW152525   6.566   5.676   2.292 -0.5203 -0.8133 -0.3532
17103SOL    HW252526   6.560   5.525   2.278  0.6185 -0.8105 -1.0014
17104SOL     OW52527   5.987   5.732   1.480 -0.1916  0.2856  0.0386
17104SOL    HW152528   5.951   5.701   1.564  2.2316 -0.9876  0.6957
17104SOL    HW252529   5.931   5.690   1.414 -1.6085  0.6242  0.9695
17105SOL     OW52530   6.301   6.362   1.003  0.2050 -0.0287 -0.2981
17105SOL    HW152531   6.319   6.309   0.925 -0.5585  0.9901 -1.2074
17105SOL    HW252532   6.364   6.435   0.998 -0.4509  0.5398 -0.4865
17106SOL     OW52533   6.667   6.216   0.954 -0.0790 -0.2548 -0.1831
17106SOL    HW152534   6.641   6.304   0.982 -0.2126 -0.9347  1.9743
17106SOL    HW252535   6.742   6.194   1.010 -2.2195 -2.8619  1.9765
17107SOL     OW52536   6.533   6.505   0.092 -0.2282 -0.4976 -0.5035
17107SOL    HW152537   6.513   6.597   0.077  0.1665 -0.5694 -1.5360
17107SOL    HW252538   6.586   6.479   0.016  1.1611 -1.1183  0.6341
17108SOL     OW52539   5.771   5.857   1.106 -0.0068 -0.1203 -0.0646
17108SOL    HW152540   5.736   5.845   1.018 -1.2932 -0.4558  0.4654
17108SOL    HW252541   5.807   5.771   1.129  0.4531  0.0041 -0.3010
17109SOL     OW52542   5.531   6.819   1.155  0.3420  0.2282 -0.0594
17109SOL    HW152543   5.522   6.769   1.074 -0.2094  0.7716 -0.3403
17109SOL    HW252544   5.480   6.899   1.140  2.4376  1.6174 -0.2202
17110SOL     OW52545   6.121   5.686   1.188 -0.3915 -0.1975 -0.3292
17110SOL    HW152546   6.172   5.715   1.264  1.1805 -1.3364 -0.8936
17110SOL    HW252547   6.120   5.761   1.129  0.1834  0.0169 -0.0707
17111SOL     OW52548   7.439   6.575   2.356 -0.1245 -0.3527  0.0828
17111SOL    HW152549   7.378   6.618   2.415 -0.1516 -1.3813  0.8448
17111SOL    HW252550   7.506   6.537   2.413  0.0502 -1.0649 -0.5652
17112SOL     OW52551   6.136   5.709   0.535 -0.5029 -0.7136  0.1923
17112SOL    HW152552   6.207   5.759   0.574 -1.5586  0.0996  1.1625
17112SOL    HW252553   6.064   5.717   0.598 -1.2351 -2.0847 -0.4253
17113SOL     OW52554   7.184   6.551   0.478 -0.5933  0.3822 -0.4104
17113SOL    HW152555   7.238   6.482   0.437 -1.2149 -0.9619  0.9547
17113SOL    HW252556   7.246   6.622   0.495  0.9138 -1.2778  1.4953
17114SOL     OW52557   6.512   6.236   0.721  0.5965 -0.2253  0.3898
17114SOL    HW152558   6.593   6.243   0.772  1.3684 -1.6209 -0.5607
17114SOL    HW252559   6.536   6.269   0.634 -0.2904  0.7604  0.5084
17115SOL     OW52560   6.378   7.166   1.911  0.2548  0.0608 -0.0340
17115SOL    HW152561   6.464   7.125   1.915  0.6645  0.9572  1.0339
17115SOL    HW252562   6.348   7.167   2.002 -1.4121 -1.2830 -0.5170
17116SOL     OW52563   7.162   6.734   2.094 -1.1885 -0.4236 -0.3491
17116SOL    HW152564   7.210   6.654   2.076 -0.8725 -0.3038 -0.0513
17116SOL    HW252565   7.094   6.737   2.027 -0.1024 -0.0290 -1.4741
17117SOL     OW52566   6.213   6.405   2.092  0.9844 -0.2067 -0.3711
17117SOL    HW152567   6.120   6.414   2.071  0.7223 -2.8543 -0.6017
17117SOL    HW252568   6.218   6.417   2.186  0.4689  0.2115 -0.3941
17118SOL     OW52569   6.988   6.349   8.690  0.4496  0.2323 -0.4188
17118SOL    HW152570   7.009   6.271   8.639  0.4817 -0.4596  0.6239
17118SOL    HW252571   7.061   6.409   8.673 -0.7627  1.0492 -3.1550
17119SOL     OW52572   6.608   6.312   8.535 -0.4235 -1.0612  1.3395
17119SOL    HW152573   6.616   6.218   8.550 -1.6767 -1.8738 -2.0834
17119SOL    HW252574   6.665   6.329   8.460 -0.4224  0.8916  1.7269
17120SOL     OW52575   6.416   6.723   1.149 -0.2296  0.0120  0.1089
17120SOL    HW152576   6.450   6.758   1.067 -3.1630 -2.7939 -2.5912
17120SOL    HW252577   6.488   6.671   1.184  0.5209 -0.3278 -1.7938
17121SOL     OW52578   6.257   6.176   0.672  0.4265  0.0463 -0.3366
17121SOL    HW152579   6.351   6.179   0.691  0.4135  0.2305 -0.2990
17121SOL    HW252580   6.230   6.267   0.669  0.4792  0.0384 -1.4931
17122SOL     OW52581   5.866   5.607   1.131  0.2631  0.1185 -0.2104
17122SOL    HW152582   5.954   5.637   1.155  0.1502 -0.8198  1.5371
17122SOL    HW252583   5.881   5.520   1.093 -0.0159 -0.8716  1.8288
17123SOL     OW52584   6.723   6.185   1.530 -0.0202  0.5241  0.5703
17123SOL    HW152585   6.668   6.223   1.599  1.2883 -0.5147  2.2535
17123SOL    HW252586   6.793   6.140   1.577  1.8952  1.1935 -1.4676
17124SOL     OW52587   6.641   5.999   1.805  0.6966 -0.2197  0.3140
17124SOL    HW152588   6.709   5.946   1.763  0.1892 -0.4042 -0.2865
17124SOL    HW252589   6.589   5.937   1.856  1.4864  0.0454  1.4763
17125SOL     OW52590   5.556   7.758   1.291 -0.1065  0.0300  0.3726
17125SOL    HW152591   5.650   7.743   1.300 -0.2845 -0.8818  0.8239
17125SOL    HW252592   5.545   7.851   1.311  0.6692  0.0892  0.5732
17126SOL     OW52593   5.901   7.283   0.755 -0.3637 -0.0836 -0.6213
17126SOL    HW152594   5.942   7.352   0.808 -1.3247 -0.4176  0.5857
17126SOL    HW252595   5.829   7.251   0.809 -1.9867  0.2069 -2.5065
17127SOL     OW52596   6.281   6.212   1.262 -0.2618  0.5639 -0.5373
17127SOL    HW152597   6.275   6.252   1.175 -1.1616  1.8424  0.0731
17127SOL    HW252598   6.326   6.278   1.315  2.5233 -1.1839 -0.5376
17128SOL     OW52599   5.995   6.409   1.037  0.6984 -0.0223 -0.3923
17128SOL    HW152600   6.062   6.346   1.062  0.5001 -0.0008  0.1918
17128SOL    HW252601   5.928   6.356   0.992  1.6638  0.1267 -2.1094
17129SOL     OW52602   6.153   6.125   1.649  0.0940 -0.1858  0.1809
17129SOL    HW152603   6.113   6.089   1.570 -1.4237 -1.3188  1.3923
17129SOL    HW252604   6.087   6.184   1.685  1.7400  2.3234 -0.6508
17130SOL     OW52605   7.020   6.422   1.843  0.1945  0.2099 -0.3420
17130SOL    HW152606   6.949   6.357   1.846  0.6506 -0.2808  2.1849
17130SOL    HW252607   6.978   6.504   1.869  0.1573  0.3373 -0.8073
17131SOL     OW52608   6.517   6.467   0.391  0.2597 -0.0401  0.1520
17131SOL    HW152609   6.570   6.388   0.384  0.2091 -0.1893  1.3103
17131SOL    HW252610   6.502   6.494   0.300 -1.2948 -2.4280 -0.4011
17132SOL     OW52611   7.129   6.137   1.126 -0.4427  0.6210 -0.1088
17132SOL    HW152612   7.216   6.102   1.148  0.3410  1.5174 -1.6147
17132SOL    HW252613   7.103   6.089   1.048 -1.1394  0.6389  0.1056
17133SOL     OW52614   5.660   7.261   1.753 -0.0263 -0.5400  0.3328
17133SOL    HW152615   5.595   7.267   1.683 -0.4555  1.3174  0.8462
17133SOL    HW252616   5.653   7.170   1.784 -2.3006 -0.4348  0.2840
17134SOL     OW52617   6.187   5.918   1.027  0.4554 -0.5656 -0.9842
17134SOL    HW152618   6.269   5.967   1.018  0.0736  0.5001  0.8354
17134SOL    HW252619   6.124   5.968   0.975 -0.0334  1.2360  1.2006
17135SOL     OW52620   6.276   7.104   1.661  0.1999  0.5822  0.1661
17135SOL    HW152621   6.308   7.122   1.749 -1.0011 -2.6133  1.4092
17135SOL    HW252622   6.181   7.111   1.667 -0.0848 -1.8785 -0.1617
17136SOL     OW52623   6.193   6.203   0.111 -0.2093 -0.3711  0.8532
17136SOL    HW152624   6.232   6.177   0.195 -0.0304  1.0899  1.2476
17136SOL    HW252625   6.191   6.299   0.114 -1.5305 -0.3314 -0.2181
17137SOL     OW52626   5.863   6.438   1.513  0.1058  0.3749 -0.1843
17137SOL    HW152627   5.819   6.354   1.507 -0.4921  0.7687 -1.7917
17137SOL    HW252628   5.953   6.416   1.537 -0.1778 -0.6776 -0.0486
17138SOL     OW52629   6.594   6.535   1.253  0.0240  0.7000 -0.5421
17138SOL    HW152630   6.578   6.447   1.287 -1.1483  0.3664 -1.8522
17138SOL    HW252631   6.605   6.523   1.158 -0.0156  1.9361 -0.7245
17139SOL     OW52632   6.931   6.519   0.137 -0.6419  0.3946  0.1380
17139SOL    HW152633   6.861   6.510   0.072 -1.0381 -2.3094  0.8122
17139SOL    HW252634   6.912   6.452   0.202  2.2235  0.0114  0.6972
17140SOL     OW52635   7.408   7.261   1.234  0.0054  0.7041  0.0973
17140SOL    HW152636   7.453   7.277   1.318  2.0651 -0.2314 -0.7409
17140SOL    HW252637   7.460   7.191   1.193 -1.3424  0.6868 -1.6746
17141SOL     OW52638   6.677   7.162   1.231 -0.3095 -0.4691  0.2597
17141SOL    HW152639   6.656   7.166   1.324 -0.1680 -2.9495  0.4762
17141SOL    HW252640   6.599   7.126   1.190 -0.0996 -0.1147 -0.4663
17142SOL     OW52641   5.591   6.519   0.954 -0.3295 -0.4264 -0.9417
17142SOL    HW152642   5.526   6.563   0.900 -2.3656 -0.1581  1.5414
17142SOL    HW252643   5.558   6.429   0.963 -0.4456 -0.2680  0.4041
17143SOL     OW52644   6.162   7.477   1.698 -0.1573  0.1255  0.3007
17143SOL    HW152645   6.086   7.471   1.755 -0.3067 -0.9419  0.0111
17143SOL    HW252646   6.140   7.421   1.623  0.4047  0.7841 -0.3755
17144SOL     OW52647   6.693   5.777   8.492 -0.2185 -0.5184  0.1459
17144SOL    HW152648   6.634   5.806   8.562  0.4408  1.4898 -0.0460
17144SOL    HW252649   6.671   5.835   8.418  2.0508  0.4052  0.1222
17145SOL     OW52650   7.343   6.296   0.399 -0.4671 -0.4185  0.0941
17145SOL    HW152651   7.331   6.207   0.368 -0.3210 -1.0236  1.7047
17145SOL    HW252652   7.437   6.310   0.396 -0.4134 -0.6385  0.6730
17146SOL     OW52653   6.966   7.232   0.652  0.4018 -0.3114 -0.0621
17146SOL    HW152654   7.009   7.309   0.614  0.3847  0.4534  1.3938
17146SOL    HW252655   7.035   7.165   0.652  1.3003  0.5552  1.1726
17147SOL     OW52656   5.008   7.246   1.816  0.1876  0.4320 -0.1137
17147SOL    HW152657   5.046   7.333   1.829 -0.6988  0.8736 -0.4013
17147SOL    HW252658   4.917   7.254   1.846 -0.0765 -0.2314 -0.7069
17148SOL     OW52659   6.865   6.697   1.224  0.3008 -0.2573  0.0710
17148SOL    HW152660   6.863   6.793   1.231  1.5574 -0.1783 -0.3740
17148SOL    HW252661   6.787   6.668   1.271  0.9141  0.8992  1.9221
17149SOL     OW52662   6.285   6.936   1.300 -0.1229 -0.4295  0.4956
17149SOL    HW152663   6.328   6.879   1.236 -1.3407 -1.1513  0.2918
17149SOL    HW252664   6.309   6.897   1.385  0.7198 -0.0214  0.4592
17150SOL     OW52665   6.388   7.419   8.673 -0.3689  0.0140  0.5427
17150SOL    HW152666   6.346   7.444   8.591 -2.7188 -1.0162  1.3579
17150SOL    HW252667   6.475   7.389   8.647 -0.4271  1.2876 -1.3460
17151SOL     OW52668   6.673   6.899   1.618 -0.2429 -0.4649  0.1898
17151SOL    HW152669   6.584   6.869   1.604 -0.0590 -1.1982  0.5635
17151SOL    HW252670   6.702   6.855   1.698  0.4624 -0.2646  0.0572
17152SOL     OW52671   7.566   5.763   1.138 -0.6959  0.2991  0.0833
17152SOL    HW152672   7.567   5.811   1.221  2.2213  0.3309  0.1373
17152SOL    HW252673   7.558   5.671   1.164 -0.3757  0.3474  0.3567
17153SOL     OW52674   5.656   5.981   0.628  0.1031  0.4628  0.0580
17153SOL    HW152675   5.629   5.935   0.549  2.2452 -1.3427  0.2693
17153SOL    HW252676   5.750   5.992   0.619  0.3743  0.4420  2.2369
17154SOL     OW52677   6.666   7.107   8.764 -0.3184  0.5710  0.5520
17154SOL    HW152678   6.610   7.071   8.695  0.2202  1.0327 -0.1311
17154SOL    HW252679   6.693   7.192   8.731 -0.2449  0.8992  1.4454
17155SOL     OW52680   6.277   6.639   1.791 -0.1050  0.3235 -0.2238
17155SOL    HW152681   6.268   6.612   1.882 -0.5600  2.1734  0.3182
17155SOL    HW252682   6.206   6.593   1.745 -0.5810  0.2638  0.5619
17156SOL     OW52683   6.471   6.972   8.550 -0.6174 -0.2513 -0.0725
17156SOL    HW152684   6.434   6.886   8.571 -0.2055 -0.1811  0.9942
17156SOL    HW252685   6.397   7.032   8.559 -0.7753 -0.4112 -0.2740
17157SOL     OW52686   7.161   7.253   8.682 -0.7083 -0.2207  0.0487
17157SOL    HW152687   7.097   7.321   8.702 -0.7054  0.1267 -1.0469
17157SOL    HW252688   7.239   7.277   8.732 -0.9182  0.2224  0.1645
17158SOL     OW52689   6.348   6.643   2.065  0.2595  0.1206 -0.1099
17158SOL    HW152690   6.303   6.561   2.084  1.1625 -0.6282 -1.0467
17158SOL    HW252691   6.429   6.638   2.116  0.0515  0.6986  0.2811
17159SOL     OW52692   7.191   6.556   1.684  0.0613 -0.6025 -0.4241
17159SOL    HW152693   7.265   6.496   1.679 -1.1536 -2.0800 -2.9565
17159SOL    HW252694   7.127   6.510   1.738  0.8060  0.5834  1.5890
17160SOL     OW52695   6.619   6.512   0.981  0.0947 -0.0353 -0.4923
17160SOL    HW152696   6.702   6.553   0.956 -0.0298  0.6669  0.1727
17160SOL    HW252697   6.556   6.544   0.917  0.1275  0.3311 -0.3479
17161SOL     OW52698   6.880   5.928   1.188 -0.6548 -0.2312 -0.2758
17161SOL    HW152699   6.826   5.934   1.109  0.5634 -1.1797 -1.2094
17161SOL    HW252700   6.869   6.013   1.231  1.1219  1.6021 -3.1092
17162SOL     OW52701   6.253   7.150   8.690 -0.0868 -0.4279 -0.4749
17162SOL    HW152702   6.278   7.238   8.661 -0.7824 -0.1839 -0.3509
17162SOL    HW252703   6.183   7.164   8.754 -0.6068 -1.0925 -0.8726
17163SOL     OW52704   7.488   5.886   1.404 -0.5070  0.1537 -0.5943
17163SOL    HW152705   7.498   5.803   1.450  1.2138 -0.0515 -1.2579
17163SOL    HW252706   7.560   5.941   1.437  0.0643  0.3922 -2.1518
17164SOL     OW52707   5.810   7.087   0.400  0.0727  0.1293  0.5959
17164SOL    HW152708   5.786   7.174   0.432 -0.5695  0.2979 -0.3132
17164SOL    HW252709   5.814   7.033   0.479 -0.4922  0.7650  1.0693
17165SOL     OW52710   5.876   7.096   1.450  1.1826  0.8679 -0.4028
17165SOL    HW152711   5.796   7.047   1.468  1.4817  0.4240 -0.2687
17165SOL    HW252712   5.922   7.044   1.385  2.3054  0.0645  0.9763
17166SOL     OW52713   6.596   5.723   1.613  0.0486  0.2104  0.3995
17166SOL    HW152714   6.615   5.725   1.519  1.6784 -2.5345  0.5626
17166SOL    HW252715   6.681   5.735   1.655 -0.2567 -0.9932  1.4370
17167SOL     OW52716   5.863   5.904   0.250  1.2412  0.1448  0.5503
17167SOL    HW152717   5.874   5.986   0.299  0.0499  1.0593 -0.6080
17167SOL    HW252718   5.820   5.931   0.168  0.6910 -1.6647  0.1956
17168SOL     OW52719   6.625   6.262   1.276 -0.2707  0.1109  0.2616
17168SOL    HW152720   6.635   6.244   1.370  0.6969  1.2760  0.3969
17168SOL    HW252721   6.706   6.231   1.237 -0.2826  0.4913 -0.0634
17169SOL     OW52722   6.051   5.678   0.270  0.3147  0.5265 -0.6338
17169SOL    HW152723   6.026   5.770   0.258 -0.8880  0.4254  0.7884
17169SOL    HW252724   6.095   5.676   0.355 -0.0621 -0.2836 -0.4546
17170SOL     OW52725   6.885   7.184   0.898  0.0443 -0.0283 -0.1974
17170SOL    HW152726   6.793   7.208   0.912  0.3487 -0.0028  2.0383
17170SOL    HW252727   6.901   7.205   0.805 -1.3891  2.7537  0.0777
17171SOL     OW52728   6.517   6.224   1.726  0.1072 -0.1110 -0.5790
17171SOL    HW152729   6.486   6.260   1.809  0.2899 -0.0627 -0.5323
17171SOL    HW252730   6.563   6.144   1.750  2.7418  1.3898 -0.3155
17172SOL     OW52731   7.207   7.441   1.256 -0.1466  0.6240  0.2144
17172SOL    HW152732   7.278   7.377   1.248 -1.3248 -0.5248 -2.4778
17172SOL    HW252733   7.228   7.490   1.335  2.8931 -0.5451  0.2909
17173SOL     OW52734   6.395   5.979   1.552 -0.6220 -0.3227 -0.2008
17173SOL    HW152735   6.462   5.948   1.613 -1.5510 -0.3971  0.8004
17173SOL    HW252736   6.354   6.053   1.596 -1.7444 -0.7783 -0.4541
17174SOL     OW52737   6.889   6.686   1.949 -0.4497 -0.2834  0.0446
17174SOL    HW152738   6.797   6.658   1.946 -0.0703 -1.5222 -1.1195
17174SOL    HW252739   6.889   6.772   1.905 -1.0254 -0.3777 -0.1491
17175SOL     OW52740   6.016   7.633   1.504 -0.3216  0.1673  0.0143
17175SOL    HW152741   6.002   7.539   1.513 -1.0695  0.2751  0.0579
17175SOL    HW252742   5.997   7.668   1.591 -0.1472  0.3708 -0.0285
17176SOL     OW52743   7.129   6.208   1.403  0.3765  0.2937  0.1184
17176SOL    HW152744   7.164   6.192   1.315 -0.6048  0.1801 -0.2605
17176SOL    HW252745   7.087   6.293   1.397 -0.6721 -0.2107  0.1627
17177SOL     OW52746   6.980   6.035   0.487  0.0700 -0.7724 -0.4269
17177SOL    HW152747   7.019   6.052   0.401  0.5384 -2.0186 -0.4742
17177SOL    HW252748   7.046   6.067   0.549 -0.5507  0.7412 -0.5072
17178SOL     OW52749   6.467   6.675   0.573  0.0152 -0.4069 -0.0115
17178SOL    HW152750   6.555   6.694   0.606  0.4921  2.1794 -2.4615
17178SOL    HW252751   6.481   6.606   0.507  0.2144  0.0199 -0.4172
17179SOL     OW52752   7.336   5.260   1.327 -0.5656 -0.0614  0.2057
17179SOL    HW152753   7.428   5.237   1.314 -0.7102 -0.4750 -0.1081
17179SOL    HW252754   7.293   5.233   1.246 -0.7880  1.1219 -0.1014
17180SOL     OW52755   6.971   6.449   1.357  0.8235  0.3089 -0.4430
17180SOL    HW152756   6.952   6.530   1.309 -0.3116  0.4020  0.1276
17180SOL    HW252757   6.905   6.446   1.426  0.6411 -1.2575 -0.6426
17181SOL     OW52758   6.862   6.797   0.473 -0.1136 -0.7195 -1.0747
17181SOL    HW152759   6.919   6.846   0.533 -0.5263  1.7777 -2.5387
17181SOL    HW252760   6.810   6.741   0.529  0.4918  0.4576  0.7634
17182SOL     OW52761   6.040   7.496   0.870  0.3851  0.0086 -0.8581
17182SOL    HW152762   6.016   7.588   0.862 -1.3356 -0.0343  2.1923
17182SOL    HW252763   6.135   7.497   0.885  0.3965  1.2782 -0.9521
17183SOL     OW52764   6.259   6.616   1.355 -0.0395 -0.2628 -0.3582
17183SOL    HW152765   6.317   6.645   1.285  0.5311  0.2066  0.2976
17183SOL    HW252766   6.172   6.612   1.314  0.4081 -0.7912 -1.2975
17184SOL     OW52767   6.905   6.915   0.708 -0.1137  0.5264  0.0023
17184SOL    HW152768   6.893   6.982   0.775  0.9475  0.1632  0.5905
17184SOL    HW252769   6.960   6.849   0.751 -2.9520 -1.9031  0.2812
17185SOL     OW52770   7.471   6.948   1.321 -0.0986 -0.0065  0.1442
17185SOL    HW152771   7.394   6.953   1.377 -0.4140  1.6349 -0.3833
17185SOL    HW252772   7.496   6.855   1.323 -1.2745 -0.3320  1.3837
17186SOL     OW52773   5.689   6.993   1.827  0.8919  0.0701 -0.8291
17186SOL    HW152774   5.638   6.922   1.786  0.3612  1.4145 -2.5867
17186SOL    HW252775   5.756   6.947   1.879 -1.0530 -1.7428  0.2512
17187SOL     OW52776   5.787   6.869   0.563 -0.2974  0.0810  0.4497
17187SOL    HW152777   5.863   6.877   0.621  0.2711 -0.5770 -0.1984
17187SOL    HW252778   5.747   6.785   0.586 -0.7200  0.3280  0.6441
17188SOL     OW52779   6.084   7.062   1.998  0.6216  0.2485  0.0952
17188SOL    HW152780   6.056   7.099   1.915  2.0482  0.3020 -0.3914
17188SOL    HW252781   6.125   7.135   2.044  0.7431 -0.0184  0.4129
17189SOL     OW52782   7.305   5.654   1.033  0.6972  0.2692 -0.8660
17189SOL    HW152783   7.332   5.745   1.048 -2.3448  1.2507 -0.6795
17189SOL    HW252784   7.271   5.625   1.118  0.0805 -0.4558 -1.3516
17190SOL     OW52785   6.188   5.915   0.742  0.8028  0.1594  0.0001
17190SOL    HW152786   6.202   6.008   0.756 -2.2755  0.6437  0.6872
17190SOL    HW252787   6.254   5.872   0.797  2.9219  1.8560 -1.0929
17191SOL     OW52788   7.305   6.786   1.005 -0.0174  0.6704  1.0436
17191SOL    HW152789   7.301   6.881   1.013 -0.8166  0.6916  0.4905
17191SOL    HW252790   7.256   6.753   1.079 -0.8910  0.7253  0.5061
17192SOL     OW52791   5.773   6.022   1.371  0.9583 -0.4031  0.1114
17192SOL    HW152792   5.867   6.040   1.373  0.9413 -0.1023 -0.9431
17192SOL    HW252793   5.761   5.966   1.295  0.0716  1.0371 -0.8570
17193SOL     OW52794   6.361   7.213   0.194  0.4944 -0.1211  0.0048
17193SOL    HW152795   6.291   7.152   0.220 -0.5038  0.8946 -0.2414
17193SOL    HW252796   6.415   7.163   0.133 -0.9525 -0.4290 -1.0730
17194SOL     OW52797   6.654   5.491   1.263  0.4650  0.1308  0.5823
17194SOL    HW152798   6.627   5.552   1.195 -1.5093 -0.0675  1.1409
17194SOL    HW252799   6.683   5.413   1.215 -1.6281 -0.2981 -0.0573
17195SOL     OW52800   6.312   5.167   1.208  0.0110 -0.4081 -0.5042
17195SOL    HW152801   6.351   5.232   1.150 -1.5011  1.6857  0.7052
17195SOL    HW252802   6.331   5.198   1.296 -0.7845 -1.6036  0.1213
17196SOL     OW52803   6.573   7.063   0.715 -0.1432  0.6512 -0.0907
17196SOL    HW152804   6.619   7.062   0.631  0.1597 -0.9502  0.0494
17196SOL    HW252805   6.604   7.142   0.759  1.0222  0.6067 -0.7874
17197SOL     OW52806   6.013   7.368   1.453 -0.0038  0.0427 -0.0220
17197SOL    HW152807   5.974   7.289   1.491 -0.4541  0.4083  0.2848
17197SOL    HW252808   6.056   7.338   1.374 -0.4203 -0.4658 -0.0594
17198SOL     OW52809   6.943   5.816   0.195  0.0448 -0.9397  0.5028
17198SOL    HW152810   6.939   5.749   0.127  0.2525  0.3932 -0.8828
17198SOL    HW252811   6.915   5.771   0.275 -2.2538 -2.0607 -0.8336
17199SOL     OW52812   6.729   6.225   0.489 -0.2482 -0.4582  0.7211
17199SOL    HW152813   6.808   6.279   0.502 -0.8600  0.2017  1.8411
17199SOL    HW252814   6.736   6.195   0.398  1.5331 -0.8080  0.9205
17200SOL     OW52815   7.598   5.491   1.219  0.0662  0.0898  0.5766
17200SOL    HW152816   7.646   5.505   1.300 -2.0483  0.0795  1.9050
17200SOL    HW252817   7.608   5.398   1.201  0.4455  0.0665  0.8910
17201SOL     OW52818   5.998   6.545   0.439 -0.1459  0.0993 -0.0728
17201SOL    HW152819   6.070   6.608   0.428  1.3287 -1.2449  1.2524
17201SOL    HW252820   5.983   6.510   0.351 -0.0414  1.3021 -0.5784
17202SOL     OW52821   6.920   7.256   0.024 -0.1567 -0.3301  0.9046
17202SOL    HW152822   6.887   7.167   0.022  1.1261 -0.8214  0.2322
17202SOL    HW252823   6.866   7.301   0.088 -1.6727 -1.2392  0.3059
17203SOL     OW52824   5.649   6.010   2.182 -0.5967 -0.5178  0.7840
17203SOL    HW152825   5.589   5.938   2.201 -2.5188  0.8887  0.3975
17203SOL    HW252826   5.620   6.043   2.096  1.1095 -0.1250  0.3129
17204SOL     OW52827   5.701   5.708   2.651  0.1853 -0.4630  0.0427
17204SOL    HW152828   5.683   5.715   2.745 -2.8807 -0.6781 -0.4418
17204SOL    HW252829   5.664   5.624   2.625  0.6469 -0.2361 -1.4516
17205SOL     OW52830   5.779   5.974   2.412 -0.1576  0.1884 -0.0142
17205SOL    HW152831   5.757   6.059   2.451  0.1009  0.3094 -0.1310
17205SOL    HW252832   5.761   5.985   2.319  2.5190  1.0445 -0.5324
17206SOL     OW52833   6.054   6.653   3.058 -0.9673 -0.1334 -0.5995
17206SOL    HW152834   5.984   6.675   3.119  0.6646 -0.4041  1.4868
17206SOL    HW252835   6.011   6.649   2.973 -3.3076  0.5179  0.4660
17207SOL     OW52836   7.069   6.973   2.586 -0.3287 -0.4623 -0.4406
17207SOL    HW152837   7.066   6.951   2.493  0.8246 -0.9303 -0.3829
17207SOL    HW252838   6.981   7.007   2.605 -0.3707  0.2851 -1.8451
17208SOL     OW52839   6.664   6.145   2.729  0.3887  0.6307  0.6679
17208SOL    HW152840   6.626   6.207   2.792 -1.5763 -0.3379  0.5229
17208SOL    HW252841   6.602   6.144   2.656  1.1778 -0.3720 -0.0149
17209SOL     OW52842   7.534   5.803   1.986  0.0716  0.3795  0.5108
17209SOL    HW152843   7.482   5.863   1.933 -2.0022 -2.2543 -0.6918
17209SOL    HW252844   7.615   5.791   1.937 -1.0441 -0.5759 -1.2087
17210SOL     OW52845   6.542   6.335   2.907 -0.4327 -0.3539 -0.1698
17210SOL    HW152846   6.499   6.420   2.907 -0.3550 -0.3138  0.7290
17210SOL    HW252847   6.492   6.282   2.969 -0.3301 -0.8903 -0.5339
17211SOL     OW52848   6.277   6.194   3.440  0.4961  0.3246  0.2604
17211SOL    HW152849   6.338   6.126   3.412  1.2497  1.5786 -1.2908
17211SOL    HW252850   6.207   6.146   3.485  1.2932 -1.3931 -0.2462
17212SOL     OW52851   6.175   6.531   2.771 -0.3862  0.0908 -0.0359
17212SOL    HW152852   6.142   6.443   2.787  0.1879 -0.4448 -1.5444
17212SOL    HW252853   6.240   6.546   2.839  1.5006 -1.7895 -1.2886
17213SOL     OW52854   5.808   6.994   3.422 -0.3893  0.2780 -0.2353
17213SOL    HW152855   5.814   6.908   3.464 -0.4070  0.3459 -0.0922
17213SOL    HW252856   5.715   7.017   3.429 -0.4588  0.1206 -0.6521
17214SOL     OW52857   5.843   6.932   2.715  0.2482  0.9330 -0.3779
17214SOL    HW152858   5.757   6.890   2.724 -0.3658  1.9183 -1.3411
17214SOL    HW252859   5.903   6.860   2.698 -0.4789  0.2705 -0.1991
17215SOL     OW52860   6.974   7.010   3.103 -0.0448  0.1279  0.3932
17215SOL    HW152861   6.974   6.992   3.197  0.8109 -0.2080  0.3383
17215SOL    HW252862   7.065   6.997   3.076 -0.3747 -0.2837 -0.5809
17216SOL     OW52863   5.542   5.666   3.449 -1.0858  0.2752 -0.0119
17216SOL    HW152864   5.569   5.751   3.415  0.2656 -0.0305  0.2485
17216SOL    HW252865   5.620   5.611   3.445 -0.8787  0.1210  3.2076
17217SOL     OW52866   7.204   5.951   2.699 -0.0250  0.3552 -0.1694
17217SOL    HW152867   7.169   6.020   2.756 -1.7083  0.8938 -1.7792
17217SOL    HW252868   7.128   5.915   2.655  1.0118 -1.5032 -0.5426
17218SOL     OW52869   5.866   7.687   1.968  0.2829 -0.0146 -0.0731
17218SOL    HW152870   5.901   7.774   1.988 -1.6348  0.7151  0.4082
17218SOL    HW252871   5.772   7.695   1.988  0.0360 -2.1458 -0.2118
17219SOL     OW52872   6.429   6.613   3.490 -0.5303 -0.5749 -0.5238
17219SOL    HW152873   6.504   6.630   3.434 -1.0469 -3.3553 -2.2567
17219SOL    HW252874   6.460   6.546   3.552 -0.5777  0.9592  1.2562
17220SOL     OW52875   5.424   7.666   2.224  0.8599  0.7330 -0.4429
17220SOL    HW152876   5.480   7.720   2.168  1.7238  1.5131  1.1164
17220SOL    HW252877   5.464   7.579   2.221  2.5479  1.3795  1.0307
17221SOL     OW52878   5.871   6.502   2.694  0.5766  0.5803  0.6336
17221SOL    HW152879   5.926   6.432   2.727  0.0631 -0.2899 -0.3091
17221SOL    HW252880   5.846   6.552   2.772 -0.5678 -1.3700  1.5903
17222SOL     OW52881   5.968   7.653   3.305  0.4556  0.1795 -0.7073
17222SOL    HW152882   5.982   7.599   3.383 -1.5214  0.5119 -0.0767
17222SOL    HW252883   5.894   7.612   3.260 -0.0683  1.4441 -1.0444
17223SOL     OW52884   6.445   7.038   2.298 -0.5172  0.5312 -0.2672
17223SOL    HW152885   6.392   7.013   2.222 -0.0463 -1.4113 -0.0189
17223SOL    HW252886   6.436   6.964   2.359 -0.2703  1.7017  1.2556
17224SOL     OW52887   6.965   5.325   3.202  0.3806  0.1609 -0.2473
17224SOL    HW152888   6.917   5.388   3.147  0.4629  0.5981  0.1777
17224SOL    HW252889   6.896   5.276   3.248  0.2927 -0.5989 -1.1544
17225SOL     OW52890   5.485   6.295   2.263  0.2390 -0.2415  0.0584
17225SOL    HW152891   5.522   6.240   2.332  1.5450 -0.2093 -0.5713
17225SOL    HW252892   5.399   6.320   2.295  1.4920  1.2991  2.5340
17226SOL     OW52893   7.576   7.472   2.160 -0.3548 -0.4515  0.6903
17226SOL    HW152894   7.563   7.450   2.253 -0.4678 -3.9734  0.0001
17226SOL    HW252895   7.525   7.406   2.113 -0.9671  1.7408 -1.9352
17227SOL     OW52896   5.235   7.447   1.870 -0.0232 -0.2867 -0.7758
17227SOL    HW152897   5.177   7.523   1.877  0.4789  0.1084 -0.8448
17227SOL    HW252898   5.233   7.408   1.957 -1.9211 -1.4267 -1.2720
17228SOL     OW52899   7.253   6.338   2.591  0.2224 -0.6261 -0.1404
17228SOL    HW152900   7.291   6.252   2.573 -1.2255 -1.8312  2.1424
17228SOL    HW252901   7.285   6.360   2.679  0.0901  0.8924 -0.4583
17229SOL     OW52902   7.284   6.712   2.802  0.0188 -0.3816  0.2626
17229SOL    HW152903   7.345   6.785   2.797 -0.0823 -0.2437  0.9902
17229SOL    HW252904   7.334   6.642   2.844 -0.0198 -0.5862 -0.0325
17230SOL     OW52905   5.528   5.974   3.621 -0.2030  0.2570  0.1727
17230SOL    HW152906   5.619   5.956   3.645 -0.1883  1.0421  0.7534
17230SOL    HW252907   5.535   6.036   3.548 -0.2577 -1.6328 -1.5174
17231SOL     OW52908   6.152   7.051   2.589 -0.0902 -1.1196  0.7723
17231SOL    HW152909   6.161   6.966   2.546 -0.3350 -0.9829  0.4457
17231SOL    HW252910   6.188   7.113   2.525 -1.5165 -0.7799  0.2576
17232SOL     OW52911   6.676   6.676   3.329 -0.1392  0.0010  0.4199
17232SOL    HW152912   6.672   6.737   3.255  0.3601  1.0739  1.2497
17232SOL    HW252913   6.740   6.610   3.303 -1.6047 -0.9223 -1.0106
17233SOL     OW52914   6.318   5.777   2.251  0.3058  0.2370  0.4056
17233SOL    HW152915   6.318   5.805   2.342  0.1375  1.2867  0.0955
17233SOL    HW252916   6.310   5.858   2.201  0.5556 -0.3110 -0.5479
17234SOL     OW52917   5.611   6.602   3.112  0.0640  0.7523  0.2404
17234SOL    HW152918   5.536   6.656   3.136  0.3500  0.7213  1.2545
17234SOL    HW252919   5.654   6.581   3.195 -0.2154 -1.3001 -0.0707
17235SOL     OW52920   7.225   6.431   2.283 -0.6523 -0.2402 -0.0795
17235SOL    HW152921   7.284   6.506   2.269 -0.4907 -0.0166  1.5947
17235SOL    HW252922   7.248   6.399   2.370 -2.5642 -0.5585  0.3448
17236SOL     OW52923   7.003   7.453   3.161  0.2713  0.2582  0.4775
17236SOL    HW152924   7.051   7.397   3.101  1.2357 -0.8527  2.2055
17236SOL    HW252925   6.933   7.396   3.195  0.4016  0.5244  1.1990
17237SOL     OW52926   5.670   5.706   3.982  0.0707 -0.3748  0.2072
17237SOL    HW152927   5.735   5.761   3.939  0.1604 -1.1318 -0.6858
17237SOL    HW252928   5.676   5.728   4.074  1.0722  0.1006  0.0424
17238SOL     OW52929   7.092   6.613   3.106  0.4567 -0.0224  0.1675
17238SOL    HW152930   7.107   6.706   3.122 -1.5060  0.4646 -0.5584
17238SOL    HW252931   7.026   6.588   3.170 -0.8008 -0.2813 -1.1774
17239SOL     OW52932   7.027   7.250   2.498  0.2647 -0.0070  0.1371
17239SOL    HW152933   7.028   7.189   2.424  0.7084 -0.1713  0.2769
17239SOL    HW252934   6.952   7.223   2.550  0.1638 -0.1180 -0.0638
17240SOL     OW52935   6.247   6.476   2.382  0.2951 -0.3011  0.1394
17240SOL    HW152936   6.293   6.530   2.445  0.6187 -0.7867  0.3282
17240SOL    HW252937   6.305   6.401   2.367  0.4713  0.0643 -1.1422
17241SOL     OW52938   7.110   5.252   2.843 -0.1622 -0.2289  0.5991
17241SOL    HW152939   7.109   5.343   2.872 -0.0593  0.1393 -0.4856
17241SOL    HW252940   7.176   5.250   2.774 -1.5873 -0.6345 -0.8218
17242SOL     OW52941   7.005   6.811   2.298  0.6031 -0.0542  0.4370
17242SOL    HW152942   7.066   6.784   2.229 -0.7874 -1.1522 -0.4162
17242SOL    HW252943   6.999   6.734   2.355 -2.0161 -1.0525 -1.0161
17243SOL     OW52944   5.910   5.711   3.033 -0.0100 -0.3283  0.2547
17243SOL    HW152945   5.938   5.628   2.995  0.5071 -0.0774  0.0804
17243SOL    HW252946   5.921   5.775   2.963  1.7510  0.2976  1.0437
17244SOL     OW52947   6.996   5.906   3.634  0.0722 -0.2365  0.4216
17244SOL    HW152948   7.007   5.892   3.540 -0.5705 -2.6835  0.6304
17244SOL    HW252949   7.011   5.820   3.673  2.2053  1.0616  2.8026
17245SOL     OW52950   6.236   5.892   3.338  0.4209  0.2892  0.4245
17245SOL    HW152951   6.223   5.886   3.243  2.3990 -0.2005  0.1170
17245SOL    HW252952   6.151   5.915   3.374 -1.0168 -2.0760 -1.2323
17246SOL     OW52953   6.525   5.598   2.849 -0.0116 -0.3628  0.0835
17246SOL    HW152954   6.593   5.600   2.916  0.1564  1.9011 -0.0552
17246SOL    HW252955   6.568   5.564   2.771  0.4126 -0.8625  0.5372
17247SOL     OW52956   6.618   6.006   2.158  0.3608 -0.3525 -0.1719
17247SOL    HW152957   6.616   5.931   2.098 -0.5396 -0.2801 -0.2468
17247SOL    HW252958   6.527   6.038   2.159  1.0342  1.7972 -1.4867
17248SOL     OW52959   5.692   6.576   2.505 -0.3807 -0.1066  0.3164
17248SOL    HW152960   5.758   6.565   2.574 -0.3578  0.4548  0.3831
17248SOL    HW252961   5.612   6.599   2.552 -0.9685 -1.9982  0.3532
17249SOL     OW52962   5.606   7.105   3.007 -0.0775 -0.8393 -0.5582
17249SOL    HW152963   5.532   7.119   2.947 -1.0105  0.9153  0.9191
17249SOL    HW252964   5.583   7.155   3.085  1.8755 -1.7241  0.6395
17250SOL     OW52965   6.548   5.759   1.975  0.1479 -0.1756 -0.5466
17250SOL    HW152966   6.600   5.684   2.004 -0.5972 -1.0963 -1.5061
17250SOL    HW252967   6.466   5.721   1.945 -0.4922  1.0996 -0.4795
17251SOL     OW52968   7.523   6.088   3.705  0.2777  0.0147 -0.2287
17251SOL    HW152969   7.450   6.036   3.673 -0.3078 -0.6390  2.0236
17251SOL    HW252970   7.557   6.132   3.627 -1.5981 -0.7793 -1.5597
17252SOL     OW52971   7.021   6.735   2.737 -0.1162  0.7503 -0.3510
17252SOL    HW152972   7.104   6.719   2.782 -0.4712  0.4252  0.1926
17252SOL    HW252973   7.037   6.814   2.685  0.0644  1.5903  0.9398
17253SOL     OW52974   6.304   5.556   2.532  0.5809 -0.3179 -0.4338
17253SOL    HW152975   6.390   5.542   2.490  1.3360  0.8511  0.6449
17253SOL    HW252976   6.281   5.646   2.508  0.0636 -0.3413 -0.0289
17254SOL     OW52977   6.895   6.943   1.802 -0.2619  0.0043  0.2187
17254SOL    HW152978   6.848   7.004   1.745 -1.2385 -0.5828  0.3822
17254SOL    HW252979   6.946   6.888   1.743  1.6077  1.7077  0.1063
17255SOL     OW52980   5.934   7.337   2.338 -0.4346  0.0670  0.3657
17255SOL    HW152981   6.021   7.298   2.325 -1.5468 -2.7952  0.8208
17255SOL    HW252982   5.947   7.398   2.411  1.2878  0.0865  0.1000
17256SOL     OW52983   7.465   6.084   2.761  0.0810  0.0410 -0.6501
17256SOL    HW152984   7.503   6.021   2.823  0.2347 -0.4534 -1.2435
17256SOL    HW252985   7.370   6.078   2.776  0.2075  2.5073  2.0476
17257SOL     OW52986   6.777   7.234   3.202 -0.0048  0.0852 -0.2930
17257SOL    HW152987   6.731   7.171   3.257  1.0610 -1.8729 -1.5066
17257SOL    HW252988   6.711   7.299   3.180 -0.5671  0.7883  2.9210
17258SOL     OW52989   5.995   6.534   1.976 -0.3464  0.1755  0.3100
17258SOL    HW152990   5.992   6.598   2.047 -0.4696 -1.3353  1.7304
17258SOL    HW252991   5.910   6.490   1.979 -0.1648 -0.2539 -0.4632
17259SOL     OW52992   6.898   6.272   2.733  0.0729 -0.4533  0.1392
17259SOL    HW152993   6.810   6.244   2.709  0.2252 -0.4727 -0.3967
17259SOL    HW252994   6.887   6.361   2.766  0.0007 -0.0470 -0.9505
17260SOL     OW52995   5.842   6.656   2.912 -0.1463 -0.0002 -0.0568
17260SOL    HW152996   5.805   6.633   2.998  0.3832  0.4135  0.2825
17260SOL    HW252997   5.826   6.750   2.903  1.9463  0.4812  0.6719
17261SOL     OW52998   6.790   7.332   2.373  0.1149 -0.4541 -0.2022
17261SOL    HW152999   6.852   7.361   2.440  0.4468 -0.1542 -0.6385
17261SOL    HW253000   6.792   7.237   2.379 -0.2533 -0.4181  0.5747
17262SOL     OW53001   5.705   5.767   3.212 -0.1208  0.5787 -0.5707
17262SOL    HW153002   5.782   5.773   3.155 -0.0525  0.2376 -0.5104
17262SOL    HW253003   5.691   5.674   3.226 -0.4491  0.6425 -0.4471
17263SOL     OW53004   7.032   6.583   2.444  0.0676 -0.2550  0.4202
17263SOL    HW153005   6.951   6.558   2.488 -0.1139 -0.0820  0.1857
17263SOL    HW253006   7.061   6.503   2.400  0.0871 -0.3481  0.6033
17264SOL     OW53007   5.539   7.603   1.567 -0.0490 -0.8711 -0.2708
17264SOL    HW153008   5.481   7.567   1.500 -0.4153  0.3119 -0.6075
17264SOL    HW253009   5.479   7.643   1.631  0.3715  1.2995 -1.1521
17265SOL     OW53010   7.278   5.480   2.633 -0.4127  0.0425 -0.1104
17265SOL    HW153011   7.366   5.443   2.621 -0.0953  0.5651  0.5169
17265SOL    HW253012   7.221   5.424   2.581  0.2503 -0.4880 -0.2831
17266SOL     OW53013   5.655   7.563   2.740  0.1588 -0.2101 -0.3489
17266SOL    HW153014   5.691   7.479   2.767 -0.8305 -0.4011  0.4398
17266SOL    HW253015   5.596   7.542   2.667 -4.1871 -1.1025  3.0155
17267SOL     OW53016   6.118   8.059   2.886 -0.2487  0.1207  0.1270
17267SOL    HW153017   6.055   8.015   2.944  0.3128 -0.5433  0.2546
17267SOL    HW253018   6.067   8.125   2.840 -0.7819  0.4083  1.1100
17268SOL     OW53019   5.900   6.315   2.397 -0.2374 -0.1220 -0.0796
17268SOL    HW153020   5.872   6.332   2.307 -0.4168 -0.2679 -0.0524
17268SOL    HW253021   5.912   6.402   2.435 -1.1537 -0.0443  0.0613
17269SOL     OW53022   7.012   5.527   4.022 -0.2328  0.0901  0.6104
17269SOL    HW153023   6.961   5.584   4.080  1.4344  0.7008  1.5397
17269SOL    HW253024   6.982   5.439   4.043 -0.2715  0.3670  1.8034
17270SOL     OW53025   6.141   5.725   1.850  0.0400 -0.1782  0.7548
17270SOL    HW153026   6.170   5.680   1.771  0.2082  0.6482  0.3411
17270SOL    HW253027   6.046   5.733   1.839 -0.0704 -0.9269  1.0955
17271SOL     OW53028   6.309   5.539   3.596 -0.3558 -0.0488  0.2594
17271SOL    HW153029   6.275   5.483   3.666  0.1934  0.1849  0.7239
17271SOL    HW253030   6.244   5.608   3.586  0.1116  0.5782  1.3670
17272SOL     OW53031   5.970   7.032   2.944 -0.0706  0.0942  0.1100
17272SOL    HW153032   5.950   7.008   2.853  0.1789 -1.3822  0.4148
17272SOL    HW253033   5.915   6.974   2.996 -0.2562  0.9776  0.9005
17273SOL     OW53034   6.904   6.059   3.384 -0.0607 -0.1221  0.3472
17273SOL    HW153035   6.943   6.079   3.469 -2.1190  1.7277  0.9685
17273SOL    HW253036   6.966   6.096   3.320  0.5979  0.1636  1.1283
17274SOL     OW53037   6.407   6.571   2.886  0.5590 -0.4547 -0.0272
17274SOL    HW153038   6.461   6.620   2.824 -0.4861  0.2538 -0.3981
17274SOL    HW253039   6.356   6.638   2.932 -0.5254 -1.1450 -0.1859
17275SOL     OW53040   6.448   6.063   2.561  0.0580  0.2194 -0.1802
17275SOL    HW153041   6.416   6.139   2.513  0.4343  1.5434  1.5509
17275SOL    HW253042   6.372   6.004   2.568 -0.1106  0.1959 -1.9304
17276SOL     OW53043   6.207   5.171   1.933 -0.1918 -0.4048  0.2612
17276SOL    HW153044   6.127   5.131   1.968 -0.2533 -1.2017 -0.7438
17276SOL    HW253045   6.177   5.253   1.894 -0.6161 -0.9338 -0.5551
17277SOL     OW53046   6.766   6.563   2.478  0.1894  0.6965  0.2052
17277SOL    HW153047   6.764   6.643   2.424  1.3271 -1.3296 -3.1623
17277SOL    HW253048   6.727   6.496   2.422  0.7915 -1.4650  2.2488
17278SOL     OW53049   5.882   5.648   1.731 -0.1988  0.0869  0.1118
17278SOL    HW153050   5.817   5.717   1.718 -1.3138 -1.2558 -2.1124
17278SOL    HW253051   5.832   5.575   1.768  0.3888 -0.3957 -0.0271
17279SOL     OW53052   6.516   6.276   2.004  0.0782  0.0072 -0.3576
17279SOL    HW153053   6.533   6.226   2.084  1.7332 -0.0123 -0.6925
17279SOL    HW253054   6.493   6.364   2.036 -1.8523 -0.6282  0.1896
17280SOL     OW53055   6.839   5.808   3.033 -0.1338  0.2247  0.4687
17280SOL    HW153056   6.913   5.859   3.065 -0.9563  0.7994  1.5174
17280SOL    HW253057   6.809   5.855   2.955  1.4589 -0.8074 -0.8352
17281SOL     OW53058   6.830   7.132   2.668 -0.4297 -0.1475  0.2188
17281SOL    HW153059   6.807   7.066   2.734 -1.2737 -1.5769 -1.4054
17281SOL    HW253060   6.820   7.216   2.713 -3.2080 -0.9472  1.3136
17282SOL     OW53061   5.685   6.214   2.521 -0.4868 -0.3782  0.2432
17282SOL    HW153062   5.643   6.268   2.588 -2.5507  0.0625 -1.2953
17282SOL    HW253063   5.760   6.266   2.493 -0.3199 -0.0064  1.3055
17283SOL     OW53064   7.093   7.315   2.927  0.3339 -0.5461  0.6222
17283SOL    HW153065   7.024   7.339   2.865  0.5867  0.3948  0.6996
17283SOL    HW253066   7.097   7.219   2.922 -0.2252 -0.5350 -0.1849
17284SOL     OW53067   6.752   6.558   1.498  0.2397  0.3088  0.0604
17284SOL    HW153068   6.739   6.536   1.590  0.6235  0.8408  0.2476
17284SOL    HW253069   6.667   6.592   1.470 -0.5382 -1.8262 -0.3852
17285SOL     OW53070   6.194   5.769   3.079  0.0348 -0.0912 -0.4413
17285SOL    HW153071   6.119   5.709   3.085  0.0852 -0.2784 -1.4420
17285SOL    HW253072   6.194   5.797   2.988  0.9447  0.2246 -0.3515
17286SOL     OW53073   5.988   5.489   2.921  0.4651  0.5620 -0.6290
17286SOL    HW153074   6.051   5.484   2.848 -0.8589  0.6088 -1.8186
17286SOL    HW253075   5.922   5.423   2.899 -0.3198  1.0731  0.1799
17287SOL     OW53076   6.079   6.045   2.505  0.1406 -0.0784  0.6843
17287SOL    HW153077   6.016   6.115   2.520 -1.0007 -0.8580 -0.2867
17287SOL    HW253078   6.086   6.037   2.410 -0.1551 -1.5994  0.7594
17288SOL     OW53079   6.805   5.410   2.811  0.0525  0.3490 -0.0639
17288SOL    HW153080   6.849   5.454   2.883 -0.0924  0.2993  0.0550
17288SOL    HW253081   6.820   5.317   2.827  2.1247  0.3783 -1.4135
17289SOL     OW53082   7.114   6.159   2.831  0.0131  0.4442 -0.2247
17289SOL    HW153083   7.132   6.240   2.878 -0.3151  0.0286  0.6503
17289SOL    HW253084   7.026   6.171   2.795 -1.8948 -1.0140  3.4137
17290SOL     OW53085   6.925   5.908   2.607  0.0818  0.0086  0.3054
17290SOL    HW153086   6.879   5.944   2.532  1.3714  1.9740  0.3909
17290SOL    HW253087   6.857   5.891   2.672 -0.7013  1.2180 -0.1781
17291SOL     OW53088   7.354   6.132   2.487 -0.0677  0.3780 -0.2589
17291SOL    HW153089   7.410   6.090   2.421  0.7960  1.2530 -0.0990
17291SOL    HW253090   7.312   6.059   2.532  2.0738 -0.4095  0.5976
17292SOL     OW53091   5.873   7.418   1.795 -0.2088 -0.6125  0.1511
17292SOL    HW153092   5.849   7.501   1.836  0.7403  0.6116 -1.6722
17292SOL    HW253093   5.791   7.368   1.792 -0.5513 -0.3011  2.3765
17293SOL     OW53094   7.423   7.243   2.706 -0.3175  0.0315  0.3566
17293SOL    HW153095   7.386   7.239   2.618  0.5941  2.0255 -0.1741
17293SOL    HW253096   7.374   7.177   2.756 -2.1156  0.1313 -1.1698
17294SOL     OW53097   6.818   6.233   1.873 -0.3369  0.2710 -0.0603
17294SOL    HW153098   6.752   6.182   1.827  1.2433 -0.6627 -1.3866
17294SOL    HW253099   6.858   6.172   1.934 -1.9668  1.3358  2.2375
17295SOL     OW53100   6.356   6.039   2.099  0.1502  0.0828 -0.5786
17295SOL    HW153101   6.345   6.043   2.004 -0.9378  2.0721 -0.4201
17295SOL    HW253102   6.274   6.075   2.134 -0.1546 -2.0672  1.1863
17296SOL     OW53103   7.381   6.836   3.541 -0.1210  0.0772  0.3779
17296SOL    HW153104   7.393   6.807   3.631 -2.1894  0.9156  0.9945
17296SOL    HW253105   7.302   6.792   3.511 -0.1163  0.7033 -0.6336
17297SOL     OW53106   7.001   6.938   3.379 -0.2493 -0.0299 -0.0767
17297SOL    HW153107   6.930   6.972   3.433  1.1850 -0.1158  1.9715
17297SOL    HW253108   7.022   6.853   3.418  0.2630 -0.5059 -1.3368
17298SOL     OW53109   7.266   6.995   3.081 -0.5031  0.4423  0.5775
17298SOL    HW153110   7.308   7.069   3.126  1.4255 -0.8821  1.1120
17298SOL    HW253111   7.283   6.920   3.138 -3.3866 -0.2763  0.6076
17299SOL     OW53112   6.603   6.791   3.071  0.6450 -0.5208 -0.4598
17299SOL    HW153113   6.517   6.751   3.083  0.7957 -1.3221 -1.8876
17299SOL    HW253114   6.659   6.721   3.039  1.2393  0.5217 -1.8064
17300SOL     OW53115   7.369   6.488   2.933 -0.0249 -0.7095 -0.8374
17300SOL    HW153116   7.386   6.525   3.020 -1.2926  1.0995 -1.3103
17300SOL    HW253117   7.454   6.454   2.905  0.5676 -0.6689  0.7911
17301SOL     OW53118   6.171   5.398   2.728  0.2329 -0.2182 -0.1725
17301SOL    HW153119   6.161   5.310   2.693 -1.6120 -0.2435  0.3367
17301SOL    HW253120   6.213   5.448   2.657 -0.1917 -1.1066 -1.0646
17302SOL     OW53121   6.440   6.209   3.138  0.1399  0.1473  0.2675
17302SOL    HW153122   6.378   6.250   3.199  0.3766  0.2187  0.4627
17302SOL    HW253123   6.507   6.172   3.195  0.0984 -0.2252  0.0717
17303SOL     OW53124   6.571   6.596   2.225 -0.1461  0.2161  0.3339
17303SOL    HW153125   6.644   6.554   2.179  0.8132 -1.0727  2.8324
17303SOL    HW253126   6.609   6.675   2.263 -0.4268  0.3057  0.4279
17304SOL     OW53127   5.690   6.434   3.385 -0.4397 -0.7145 -0.4747
17304SOL    HW153128   5.698   6.475   3.471  1.9456 -0.9768 -0.4932
17304SOL    HW253129   5.659   6.346   3.402 -0.2074 -0.6862  0.1080
17305SOL     OW53130   6.800   5.533   3.061 -0.3258 -0.2475  0.3514
17305SOL    HW153131   6.828   5.625   3.057 -1.8045  0.2044 -0.5858
17305SOL    HW253132   6.731   5.532   3.126 -1.6480 -0.2632 -0.9879
17306SOL     OW53133   5.936   7.447   2.837 -0.0738  0.3961 -0.3739
17306SOL    HW153134   5.966   7.382   2.901  0.6381  1.5007  0.4623
17306SOL    HW253135   6.000   7.442   2.766  0.1941  0.4400 -0.1369
17307SOL     OW53136   6.284   6.921   2.121  0.4738  0.1736 -0.3665
17307SOL    HW153137   6.204   6.948   2.074 -0.3166 -0.0477  0.8026
17307SOL    HW253138   6.302   6.833   2.088 -0.3023 -0.1402  0.0106
17308SOL     OW53139   5.873   5.518   2.492  0.1120 -0.0921 -0.2649
17308SOL    HW153140   5.850   5.426   2.494  1.0972 -0.4229 -1.9318
17308SOL    HW253141   5.915   5.534   2.577  0.5325 -1.3446 -0.2146
17309SOL     OW53142   6.718   6.799   2.355 -0.5380  0.3861 -0.1946
17309SOL    HW153143   6.701   6.888   2.386 -1.2135  1.0706 -2.3844
17309SOL    HW253144   6.799   6.806   2.306  0.2522 -0.5756  0.9178
17310SOL     OW53145   6.787   7.023   2.910 -0.0569  0.5119  0.8716
17310SOL    HW153146   6.763   6.944   2.958  1.7623 -1.5379 -1.3196
17310SOL    HW253147   6.848   7.069   2.966 -1.5402  0.7147  2.3991
17311SOL     OW53148   7.024   6.264   2.486 -0.1530  0.2982 -0.0388
17311SOL    HW153149   6.967   6.266   2.563 -0.5016  1.7562 -0.2984
17311SOL    HW253150   7.112   6.278   2.521 -0.2360  0.2953  0.1690
17312SOL     OW53151   6.114   7.450   2.609 -0.2101 -0.1913  0.4158
17312SOL    HW153152   6.162   7.386   2.556 -0.7611 -1.5613  1.5126
17312SOL    HW253153   6.182   7.495   2.659  0.0681 -0.9387  0.7169
17313SOL     OW53154   5.968   5.919   3.383  0.4686  0.2222 -0.3684
17313SOL    HW153155   5.935   5.965   3.306  0.3716  0.8546  0.0462
17313SOL    HW253156   5.903   5.851   3.400 -0.7376  1.5588  0.5399
17314SOL     OW53157   7.357   6.405   3.614  0.3144 -0.2321 -0.3531
17314SOL    HW153158   7.336   6.384   3.705  0.7600  0.5999 -0.0492
17314SOL    HW253159   7.307   6.342   3.563 -0.0834 -0.5931  0.4652
17315SOL     OW53160   6.716   5.582   3.946 -0.6300 -0.3294  0.2872
17315SOL    HW153161   6.765   5.603   3.867 -1.1648  1.9935  0.4945
17315SOL    HW253162   6.649   5.651   3.951 -0.3320 -0.1576  2.9851
17316SOL     OW53163   5.849   5.527   3.678  0.0976 -0.3976 -0.3856
17316SOL    HW153164   5.890   5.502   3.760 -0.0410 -1.4818 -0.6324
17316SOL    HW253165   5.790   5.455   3.657 -0.7306  0.3842 -0.8652
17317SOL     OW53166   6.114   6.187   3.057  0.2427 -0.3249  0.6784
17317SOL    HW153167   6.169   6.253   3.100 -0.0866  0.2471  0.2410
17317SOL    HW253168   6.054   6.158   3.126 -0.3629  0.6773  0.6097
17318SOL     OW53169   6.702   5.873   2.802 -0.3734  0.4840 -0.6730
17318SOL    HW153170   6.670   5.961   2.782 -1.1621  0.1177 -1.0736
17318SOL    HW253171   6.645   5.815   2.751 -0.8046 -0.3353  0.6943
17319SOL     OW53172   6.894   6.015   2.058 -0.6172 -0.4294  0.2752
17319SOL    HW153173   6.942   6.030   2.140  1.4145  0.1657 -0.9650
17319SOL    HW253174   6.803   6.006   2.086 -0.2950  1.8243  2.4159
17320SOL     OW53175   6.005   5.692   2.651  0.4244  0.1085 -0.5358
17320SOL    HW153176   5.994   5.778   2.693 -1.0556 -0.8929  1.2585
17320SOL    HW253177   6.093   5.665   2.676  1.5377  1.6856 -2.4005
17321SOL     OW53178   5.499   6.157   3.058  0.8234  0.5869 -0.3296
17321SOL    HW153179   5.416   6.115   3.037  3.0435 -3.2749 -2.5262
17321SOL    HW253180   5.475   6.245   3.088 -3.9059 -0.0342 -1.5517
17322SOL     OW53181   6.016   6.268   2.812  0.0427  0.4692  0.0617
17322SOL    HW153182   5.934   6.289   2.856 -0.3000  0.5295 -0.5936
17322SOL    HW253183   6.065   6.215   2.875  0.8061  2.9199  1.6632
17323SOL     OW53184   7.394   6.704   3.810  0.0013  0.2273 -0.2866
17323SOL    HW153185   7.325   6.639   3.823  0.0483  0.4622  1.3028
17323SOL    HW253186   7.474   6.653   3.797 -0.2997 -0.0316 -1.2080
17324SOL     OW53187   5.775   5.247   2.496  0.0142  0.1664 -0.5814
17324SOL    HW153188   5.853   5.218   2.451 -0.4005 -1.2820 -0.4210
17324SOL    HW253189   5.702   5.211   2.445 -0.4727 -3.0182  2.0151
17325SOL     OW53190   7.055   6.105   2.278  0.1602  0.6247 -0.2553
17325SOL    HW153191   7.108   6.031   2.308 -2.1640 -0.3069  1.9046
17325SOL    HW253192   7.046   6.161   2.355 -1.2867  1.1465 -0.7654
17326SOL     OW53193   6.677   5.794   3.407 -0.3238 -0.0199  0.0890
17326SOL    HW153194   6.602   5.807   3.349  0.1016 -0.2682 -0.5229
17326SOL    HW253195   6.753   5.804   3.351  0.0813 -1.4682  0.3416
17327SOL     OW53196   6.829   7.037   3.561  0.8274 -0.5565  0.3114
17327SOL    HW153197   6.836   7.037   3.656 -1.1689  0.1189  0.4918
17327SOL    HW253198   6.807   7.127   3.538 -0.3920 -1.0735 -0.6303
17328SOL     OW53199   7.264   7.072   3.623  0.2809 -0.6336  0.3879
17328SOL    HW153200   7.291   6.982   3.604 -0.1887 -0.8340  0.6500
17328SOL    HW253201   7.267   7.116   3.538  0.8453 -0.8052  0.3125
17329SOL     OW53202   5.789   6.204   3.638  0.8169  1.0976 -0.6090
17329SOL    HW153203   5.859   6.186   3.701 -0.5033 -1.8572  0.1771
17329SOL    HW253204   5.755   6.290   3.664  1.5392  0.7868  1.5539
17330SOL     OW53205   7.237   5.687   1.602  0.0854 -0.2050 -0.6310
17330SOL    HW153206   7.306   5.753   1.606 -1.0297  0.9796 -0.3109
17330SOL    HW253207   7.211   5.673   1.693 -1.6980  1.1339 -0.8894
17331SOL     OW53208   6.815   6.551   2.746  0.0407 -0.6061 -1.0039
17331SOL    HW153209   6.776   6.543   2.659  0.2866 -0.2874 -1.1439
17331SOL    HW253210   6.891   6.608   2.734 -0.6482  0.4959 -0.3412
17332SOL     OW53211   6.798   6.368   3.071 -0.3440  0.1472 -0.4585
17332SOL    HW153212   6.796   6.464   3.064 -1.3498  0.2754  1.0420
17332SOL    HW253213   6.718   6.340   3.028 -0.3311  0.0334 -0.4070
17333SOL     OW53214   6.025   5.960   2.793  0.1665 -0.2229  0.4491
17333SOL    HW153215   6.051   6.024   2.728 -1.3512 -0.4002 -0.3632
17333SOL    HW253216   5.941   5.992   2.827 -0.1043 -1.2406  0.7758
17334SOL     OW53217   5.619   5.710   2.926  0.5945  0.3257 -0.7686
17334SOL    HW153218   5.688   5.678   2.984 -0.4958 -1.6038 -0.4348
17334SOL    HW253219   5.554   5.747   2.986 -0.1016 -0.8071 -0.7964
17335SOL     OW53220   6.767   5.676   3.669  0.2448 -0.5352  0.4934
17335SOL    HW153221   6.717   5.603   3.632 -2.9275  0.7804  1.7819
17335SOL    HW253222   6.748   5.749   3.610  0.4606  0.0478  1.1449
17336SOL     OW53223   6.370   5.403   2.947  0.0548 -0.3420 -0.1358
17336SOL    HW153224   6.421   5.480   2.922 -1.2616  1.2916  1.8334
17336SOL    HW253225   6.298   5.402   2.884  0.1162  0.0155 -0.2170
17337SOL     OW53226   6.144   6.871   2.391  0.1512 -0.3570  0.1396
17337SOL    HW153227   6.197   6.871   2.311 -0.9263 -0.6156 -0.6061
17337SOL    HW253228   6.064   6.917   2.366  0.1877  0.3908  1.3570
17338SOL     OW53229   5.527   7.266   2.578  0.0265 -0.8248  0.3561
17338SOL    HW153230   5.489   7.214   2.507  0.1307 -1.2836  0.6329
17338SOL    HW253231   5.621   7.267   2.559  0.0976 -1.2356  0.6688
17339SOL     OW53232   6.036   6.726   2.664 -0.6193  0.1502  0.1692
17339SOL    HW153233   6.095   6.667   2.711 -1.8877  0.5370  2.4187
17339SOL    HW253234   5.985   6.668   2.607  0.9441 -0.3454 -0.7993
17340SOL     OW53235   6.462   5.794   3.263  0.0215  0.1859  0.5145
17340SOL    HW153236   6.457   5.850   3.186 -2.1627 -1.0035 -0.3256
17340SOL    HW253237   6.380   5.811   3.311 -0.0481 -1.2298  0.9615
17341SOL     OW53238   5.721   5.986   2.951  0.5982  0.2192  0.1806
17341SOL    HW153239   5.654   6.042   2.992 -0.7894 -1.0975 -0.2145
17341SOL    HW253240   5.672   5.916   2.910  2.1370  0.1187 -1.6076
17342SOL     OW53241   7.041   6.414   3.535 -0.0649 -0.1489  0.1057
17342SOL    HW153242   7.031   6.458   3.619  1.9970 -0.0749  0.3757
17342SOL    HW253243   7.083   6.331   3.556  0.3450 -0.1963 -0.8307
17343SOL     OW53244   6.443   6.320   2.435 -0.5345 -0.1101  0.0563
17343SOL    HW153245   6.442   6.370   2.517 -1.9493  0.9572 -0.5540
17343SOL    HW253246   6.532   6.328   2.402 -0.5580  1.5549  0.2953
17344SOL     OW53247   7.316   5.796   3.075 -0.1882 -0.3642  0.4787
17344SOL    HW153248   7.363   5.828   3.152 -1.3357  2.6395  0.0677
17344SOL    HW253249   7.384   5.784   3.009  0.3850  0.9789  0.7847
17345SOL     OW53250   5.558   7.049   3.568 -0.4697 -0.1515 -0.0623
17345SOL    HW153251   5.496   6.977   3.571  0.2416 -0.7841  3.0987
17345SOL    HW253252   5.506   7.126   3.591 -0.2672 -0.5809  1.9666
17346SOL     OW53253   6.322   6.050   2.889 -0.2901 -0.1158  0.1506
17346SOL    HW153254   6.231   6.048   2.917  0.1882 -0.9539  1.8144
17346SOL    HW253255   6.368   6.099   2.958  0.1634  2.7035 -2.0009
17347SOL     OW53256   6.528   7.157   3.335  0.2814 -0.2005  0.4269
17347SOL    HW153257   6.488   7.093   3.394  0.0986 -0.9472 -0.4768
17347SOL    HW253258   6.543   7.234   3.389 -1.1215 -0.3906  1.1263
17348SOL     OW53259   6.049   6.103   2.166 -0.2717  0.3123  0.0153
17348SOL    HW153260   5.972   6.156   2.186 -1.0470  0.0652 -2.0800
17348SOL    HW253261   6.036   6.074   2.076 -0.5245 -4.4425  1.2878
17349SOL     OW53262   5.256   6.322   3.102  0.4324 -0.0798  0.0561
17349SOL    HW153263   5.180   6.292   3.151 -0.4238  1.0831 -0.5176
17349SOL    HW253264   5.275   6.409   3.136  2.3011 -0.8050  1.0475
17350SOL     OW53265   6.914   6.522   3.305 -0.3742  0.6356 -0.0800
17350SOL    HW153266   6.878   6.437   3.280  0.2060  0.5730 -0.7519
17350SOL    HW253267   6.961   6.505   3.386 -1.8941  0.7363  0.8485
17351SOL     OW53268   7.292   6.167   2.146 -0.4434 -0.0084 -0.0616
17351SOL    HW153269   7.211   6.116   2.143 -0.9855  0.8563 -1.1319
17351SOL    HW253270   7.265   6.252   2.182  0.2097 -0.0882  0.6223
17352SOL     OW53271   7.478   7.674   3.061 -0.3381 -0.0973  0.7562
17352SOL    HW153272   7.383   7.684   3.067 -0.1438  1.4382  2.0213
17352SOL    HW253273   7.490   7.586   3.026 -2.2236 -0.0708 -0.0990
17353SOL     OW53274   6.507   7.175   2.920 -0.0586  0.1872 -0.0533
17353SOL    HW153275   6.598   7.147   2.917  0.2043  0.4805  2.7815
17353SOL    HW253276   6.497   7.216   3.006 -2.6063  1.1302 -0.7040
17354SOL     OW53277   5.771   6.296   2.930  0.2021  0.0469  0.0703
17354SOL    HW153278   5.747   6.206   2.911 -0.6473  0.6628 -2.0635
17354SOL    HW253279   5.688   6.341   2.942  0.5739  0.7718 -0.0243
17355SOL     OW53280   6.068   7.051   3.644 -0.5162  0.5451 -0.0693
17355SOL    HW153281   6.141   7.113   3.641  0.8004 -0.9675 -0.4726
17355SOL    HW253282   6.070   7.006   3.559 -1.5353  0.0522  0.1464
17356SOL     OW53283   7.210   5.888   2.340  0.3042 -0.0002 -0.1938
17356SOL    HW153284   7.133   5.831   2.349  0.2047  0.0193 -0.9253
17356SOL    HW253285   7.283   5.827   2.330  0.3671 -0.0156  0.3206
17357SOL     OW53286   6.668   7.057   2.451  0.0061  0.0864 -0.3178
17357SOL    HW153287   6.583   7.071   2.409  0.5171  1.9381 -0.8069
17357SOL    HW253288   6.669   7.119   2.524  0.8826  0.0001 -0.2450
17358SOL     OW53289   5.504   7.461   3.623  0.1876  0.4628 -0.2726
17358SOL    HW153290   5.477   7.405   3.696  1.9988 -1.1449 -0.7579
17358SOL    HW253291   5.455   7.429   3.548 -0.9445  1.4807  0.0002
17359SOL     OW53292   7.134   6.388   2.969  0.1995  0.1820  0.0651
17359SOL    HW153293   7.225   6.416   2.958  0.0474  1.1415  1.0592
17359SOL    HW253294   7.092   6.461   3.015 -0.4109 -1.3209  2.0208
17360SOL     OW53295   6.197   6.404   3.193 -0.0245 -0.7430  0.3894
17360SOL    HW153296   6.102   6.402   3.183 -0.2613 -1.0396  2.3266
17360SOL    HW253297   6.224   6.482   3.144 -1.1665 -0.9572 -0.6493
17361SOL     OW53298   6.196   7.303   2.112  0.3220  0.1093  0.2210
17361SOL    HW153299   6.289   7.309   2.133  0.8179 -2.1573 -0.9510
17361SOL    HW253300   6.168   7.393   2.096  3.0473  0.6457 -2.2440
17362SOL     OW53301   7.164   7.673   3.042 -0.0346  0.4860  0.0695
17362SOL    HW153302   7.120   7.603   3.091 -0.6570  2.0383  1.8319
17362SOL    HW253303   7.148   7.652   2.950 -1.2300 -1.0285  0.5863
17363SOL     OW53304   7.532   4.859   2.886  0.3939 -0.7611  0.0896
17363SOL    HW153305   7.464   4.865   2.818  1.9523 -2.5857 -1.7694
17363SOL    HW253306   7.582   4.940   2.877 -0.0263 -0.5272 -0.2162
17364SOL     OW53307   7.058   7.369   2.180  0.4051  0.2547 -0.4314
17364SOL    HW153308   7.042   7.281   2.214  1.1431  0.1878 -0.2393
17364SOL    HW253309   7.014   7.427   2.243  0.7855  0.0751  0.0039
17365SOL     OW53310   6.645   6.135   3.299  0.0740  0.1503 -0.3599
17365SOL    HW153311   6.626   6.126   3.392 -1.0342  0.0169 -0.5833
17365SOL    HW253312   6.733   6.100   3.289 -0.1732 -0.7551  0.4855
17366SOL     OW53313   6.706   6.253   2.354 -0.2029 -0.2040  0.7695
17366SOL    HW153314   6.686   6.159   2.351 -0.5629 -0.1474  1.4363
17366SOL    HW253315   6.801   6.256   2.370  0.6264 -0.4745 -2.9979
17367SOL     OW53316   7.430   6.849   2.175  0.1790 -0.4096  0.0568
17367SOL    HW153317   7.490   6.810   2.111 -0.8829 -1.3797 -0.4055
17367SOL    HW253318   7.345   6.809   2.154 -0.6168  0.8684  0.7196
17368SOL     OW53319   5.921   6.396   3.203 -0.1303  0.0683 -0.1081
17368SOL    HW153320   5.857   6.375   3.271  0.2056  0.1840  0.2510
17368SOL    HW253321   5.869   6.408   3.124 -0.5425  0.0577  0.1575
17369SOL     OW53322   7.268   6.484   3.288  0.4339 -0.3008  0.1129
17369SOL    HW153323   7.361   6.501   3.277  1.0580 -3.3794 -0.0666
17369SOL    HW253324   7.226   6.535   3.218  1.8336  1.7487  0.6819
17370SOL     OW53325   6.821   6.634   3.005  0.0278 -0.1934  0.3642
17370SOL    HW153326   6.789   6.616   2.917  1.8861 -0.4451 -0.3009
17370SOL    HW253327   6.912   6.662   2.993 -0.0588  1.0467  2.1006
17371SOL     OW53328   6.314   5.767   2.794 -0.2367 -0.4689  0.1138
17371SOL    HW153329   6.380   5.710   2.834 -0.1978  0.2066  1.0558
17371SOL    HW253330   6.337   5.855   2.825 -2.0592 -0.3246  1.1652
17372SOL     OW53331   6.042   7.528   2.084 -0.1993 -0.5323 -0.8388
17372SOL    HW153332   5.977   7.576   2.033 -0.5370  0.9405  0.8949
17372SOL    HW253333   5.995   7.497   2.161  0.7266 -1.0464 -0.4547
17373SOL     OW53334   7.635   5.728   3.550  0.0948  0.2597  0.4922
17373SOL    HW153335   7.582   5.712   3.628  1.6252 -0.9196  1.3482
17373SOL    HW253336   7.720   5.755   3.585 -0.0555  2.7596 -0.8498
17374SOL     OW53337   5.639   7.468   2.279 -0.5546  0.2098 -0.2159
17374SOL    HW153338   5.580   7.395   2.259 -0.2745 -0.2763  0.6454
17374SOL    HW253339   5.725   7.426   2.288 -0.0722  0.8996 -1.3901
17375SOL     OW53340   5.705   6.134   3.374  0.2586  0.0983 -1.0177
17375SOL    HW153341   5.729   6.151   3.465  0.1364 -3.0673 -0.2799
17375SOL    HW253342   5.610   6.124   3.376  0.1344  0.9599 -1.7289
17376SOL     OW53343   6.186   5.401   3.139  0.0794  0.0348 -0.0739
17376SOL    HW153344   6.097   5.405   3.102 -0.0551  0.0994  0.2503
17376SOL    HW253345   6.243   5.417   3.064 -0.1635 -0.4457 -0.3697
17377SOL     OW53346   5.715   5.893   1.747 -0.2865  0.6634 -0.0586
17377SOL    HW153347   5.720   5.980   1.707  0.7236  0.7237  0.1589
17377SOL    HW253348   5.642   5.850   1.702  0.0256  1.1676 -1.0876
17378SOL     OW53349   7.010   6.189   3.126 -0.5549 -0.3396 -0.2668
17378SOL    HW153350   6.916   6.206   3.122 -0.5090 -0.1884 -0.8811
17378SOL    HW253351   7.044   6.226   3.044 -0.4531 -3.3793 -1.7493
17379SOL     OW53352   5.091   5.868   2.270  0.5365  0.3937  0.3495
17379SOL    HW153353   5.069   5.827   2.354  0.5229  1.7416  1.0479
17379SOL    HW253354   5.113   5.796   2.212  0.0174 -0.6049  1.3685
17380SOL     OW53355   7.010   7.107   2.011  0.0268  0.9922  0.2817
17380SOL    HW153356   7.103   7.088   2.023 -0.5417 -1.6955  1.2946
17380SOL    HW253357   6.984   7.054   1.936 -0.6805  1.7643 -0.0365
17381SOL     OW53358   6.093   6.063   3.606 -0.0251 -0.5428  0.2328
17381SOL    HW153359   6.065   6.133   3.664  1.1763  2.9858 -3.0110
17381SOL    HW253360   6.016   6.044   3.552 -0.0928 -1.0677  0.5123
17382SOL     OW53361   6.852   7.376   2.785  0.1229 -0.1067 -0.1674
17382SOL    HW153362   6.803   7.432   2.845  0.1486  1.6330 -1.6804
17382SOL    HW253363   6.874   7.434   2.712  2.2968 -1.4872 -0.6776
17383SOL     OW53364   6.106   5.723   3.608 -0.6562  0.2329  0.1228
17383SOL    HW153365   6.070   5.729   3.697  0.7612  1.4891  0.6551
17383SOL    HW253366   6.029   5.727   3.551 -1.5702 -0.2610  1.2681
17384SOL     OW53367   7.164   6.699   3.482  0.2909 -0.5048  0.5042
17384SOL    HW153368   7.075   6.701   3.517 -0.0468 -0.1282 -0.3469
17384SOL    HW253369   7.179   6.608   3.459  0.2994 -0.6519  1.0867
17385SOL     OW53370   5.898   7.230   3.327  0.0786  0.4502 -0.3990
17385SOL    HW153371   5.882   7.229   3.233 -4.2691  0.3863  0.1332
17385SOL    HW253372   5.868   7.144   3.357  0.4267  0.8405  1.1407
17386SOL     OW53373   7.053   5.937   3.103 -0.1777 -0.4934 -0.4353
17386SOL    HW153374   7.139   5.915   3.068  0.3382 -1.1051  1.1514
17386SOL    HW253375   7.045   6.031   3.088  0.3242 -0.6024 -1.4928
17387SOL     OW53376   6.726   5.954   2.411 -0.0984 -0.2655 -0.7079
17387SOL    HW153377   6.665   5.894   2.455 -0.4815  0.3914 -0.3318
17387SOL    HW253378   6.684   5.973   2.327 -0.0669 -0.3698 -0.7483
17388SOL     OW53379   6.284   5.845   2.533 -0.0858 -0.8822 -0.3782
17388SOL    HW153380   6.284   5.818   2.625 -0.1030 -0.3873 -0.2322
17388SOL    HW253381   6.207   5.902   2.525  0.3196 -0.3511 -0.5294
17389SOL     OW53382   7.256   5.603   3.516  0.1430  0.1349 -0.3407
17389SOL    HW153383   7.319   5.537   3.545 -0.0961 -0.3143 -0.8225
17389SOL    HW253384   7.218   5.637   3.597 -1.0124 -1.5946 -0.0911
17390SOL     OW53385   7.198   6.230   3.344  0.3661  0.1850 -0.3297
17390SOL    HW153386   7.203   6.326   3.348 -2.6124  0.4363  3.3517
17390SOL    HW253387   7.152   6.212   3.262  0.5567  1.9202 -0.8664
17391SOL     OW53388   6.444   7.311   2.205 -0.5341  1.1465 -0.4621
17391SOL    HW153389   6.529   7.353   2.189  0.1779 -0.4476 -1.1012
17391SOL    HW253390   6.463   7.243   2.270 -1.9331  2.6384  1.6200
17392SOL     OW53391   6.516   6.782   2.635  0.5225 -0.1265 -0.4476
17392SOL    HW153392   6.594   6.837   2.644  0.9660 -0.4700 -1.8434
17392SOL    HW253393   6.444   6.834   2.669  1.5023 -0.2106  1.9014
17393SOL     OW53394   6.391   6.530   2.600  0.1412 -0.1280 -0.1056
17393SOL    HW153395   6.332   6.538   2.675 -0.8861  2.7936 -1.0843
17393SOL    HW253396   6.440   6.612   2.599  0.2320 -0.1352 -2.5041
17394SOL     OW53397   6.605   6.721   1.891 -0.1562  0.1609  0.1922
17394SOL    HW153398   6.636   6.641   1.848 -0.7593  0.1708 -0.2605
17394SOL    HW253399   6.515   6.701   1.917 -0.0300  0.3998  0.8324
17395SOL     OW53400   7.661   6.986   2.953 -0.0744  0.7083 -0.3548
17395SOL    HW153401   7.635   6.918   2.890  1.3920  0.0331 -0.2737
17395SOL    HW253402   7.677   7.064   2.899  2.2782 -0.1594 -1.0527
17396SOL     OW53403   5.761   6.741   3.542  0.1482  0.1895 -0.4514
17396SOL    HW153404   5.723   6.667   3.589  0.9077  0.5077  0.7068
17396SOL    HW253405   5.800   6.796   3.610 -0.9844  2.0248 -1.2083
17397SOL     OW53406   6.006   6.622   2.420 -0.2928  0.1973  0.0858
17397SOL    HW153407   6.081   6.570   2.393 -1.1480 -2.6758  2.7154
17397SOL    HW253408   6.042   6.708   2.440  2.5081 -1.2433  1.8550
17398SOL     OW53409   6.170   6.508   3.455  0.2034  0.4205 -0.0733
17398SOL    HW153410   6.183   6.437   3.392  0.7754 -0.0684  0.5821
17398SOL    HW253411   6.257   6.546   3.467  0.5901 -1.0137  2.1866
17399SOL     OW53412   7.453   5.098   3.129  0.1309 -0.1228 -0.3294
17399SOL    HW153413   7.490   5.116   3.042 -0.4847 -0.1567 -0.5970
17399SOL    HW253414   7.379   5.158   3.137 -0.0442 -0.3827  0.0258
17400SOL     OW53415   5.961   5.778   2.261  0.1310 -0.0730  0.4815
17400SOL    HW153416   5.952   5.858   2.207 -0.5361 -0.5062 -0.0674
17400SOL    HW253417   5.974   5.708   2.197  2.5730 -0.2052  1.0112
17401SOL     OW53418   7.304   7.209   2.468  0.0196  0.3001  0.4940
17401SOL    HW153419   7.302   7.121   2.430  1.5666 -0.1971  1.4995
17401SOL    HW253420   7.214   7.225   2.497  0.2081 -2.0329  2.6478
17402SOL     OW53421   5.903   6.067   3.179  0.6987 -0.1072 -1.0143
17402SOL    HW153422   5.838   6.113   3.231 -0.2880 -1.8429 -0.6234
17402SOL    HW253423   5.855   6.033   3.104  1.9608  1.7392 -2.7442
17403SOL     OW53424   6.224   7.293   2.435  0.1385  0.0251  0.1323
17403SOL    HW153425   6.221   7.353   2.361 -0.0561  0.5591  0.5661
17403SOL    HW253426   6.315   7.298   2.465  0.2039 -0.1498 -0.0319
17404SOL     OW53427   7.033   5.666   2.400 -0.0996 -0.0676 -0.5909
17404SOL    HW153428   6.969   5.595   2.392  0.4391 -0.8999  1.8919
17404SOL    HW253429   7.021   5.700   2.489  1.5119  1.1525 -0.7899
17405SOL     OW53430   6.514   5.232   3.135 -0.2232 -0.2664 -0.6222
17405SOL    HW153431   6.435   5.179   3.143 -0.7530  0.4865 -0.7938
17405SOL    HW253432   6.492   5.299   3.070  0.1552  0.6569  0.1787
17406SOL     OW53433   6.350   6.936   2.771 -0.2473 -0.4375  0.4729
17406SOL    HW153434   6.388   7.002   2.829  0.5499 -0.7684  0.3363
17406SOL    HW253435   6.283   6.984   2.721  2.3549  1.1082 -1.8306
17407SOL     OW53436   5.619   6.770   2.737  0.4803 -0.8283 -0.6699
17407SOL    HW153437   5.604   6.693   2.792 -1.4301 -0.4436 -0.5823
17407SOL    HW253438   5.531   6.799   2.713  1.2340 -0.2155 -2.8787
17408SOL     OW53439   7.385   5.295   1.764  0.8249  0.0513  1.0223
17408SOL    HW153440   7.442   5.362   1.728 -0.3434  0.7020  0.3281
17408SOL    HW253441   7.392   5.307   1.859  1.2475  0.6179  0.9268
17409SOL     OW53442   6.576   5.777   2.580  0.2404 -0.4832 -0.2520
17409SOL    HW153443   6.484   5.802   2.576  0.3149 -0.3506 -1.9215
17409SOL    HW253444   6.574   5.683   2.595 -0.2097 -0.6268 -1.1135
17410SOL     OW53445   7.295   5.508   2.952  0.3551  0.4241 -0.2043
17410SOL    HW153446   7.289   5.597   2.988 -1.9331 -0.3046  1.4635
17410SOL    HW253447   7.288   5.520   2.858 -3.1145  1.9311  0.0912
17411SOL     OW53448   5.847   6.662   2.199  0.2598  0.4654  0.2109
17411SOL    HW153449   5.756   6.632   2.210  0.5214 -0.5214 -0.1634
17411SOL    HW253450   5.893   6.625   2.274  0.3629  0.9661  0.3986
17412SOL     OW53451   6.660   7.493   2.178  0.2449 -0.2473 -0.3828
17412SOL    HW153452   6.720   7.446   2.236 -0.6185 -1.9718 -0.8122
17412SOL    HW253453   6.715   7.522   2.105  1.4276  2.3028  1.3858
17413SOL     OW53454   5.706   6.116   4.069 -0.2498 -0.0084 -0.3702
17413SOL    HW153455   5.670   6.198   4.103 -2.1492 -1.0866  0.3658
17413SOL    HW253456   5.644   6.089   4.001  1.1797 -0.0961 -1.7125
17414SOL     OW53457   6.200   5.867   5.141 -0.3334 -0.5545  1.0312
17414SOL    HW153458   6.220   5.832   5.228  1.9681  1.2476  1.2958
17414SOL    HW253459   6.104   5.860   5.135 -0.3369 -3.6281  2.3719
17415SOL     OW53460   5.544   6.169   4.477  0.1218  0.3092 -0.2620
17415SOL    HW153461   5.509   6.118   4.403 -1.5746  1.2785 -0.1935
17415SOL    HW253462   5.619   6.119   4.507  0.7885 -0.1895 -2.5568
17416SOL     OW53463   6.384   7.067   4.991  0.6617 -0.0379 -0.3396
17416SOL    HW153464   6.367   7.161   4.986 -1.6033 -0.3912 -0.4610
17416SOL    HW253465   6.455   7.059   5.054  1.1244  1.7632 -0.5691
17417SOL     OW53466   7.181   7.274   4.413 -0.6112 -0.0913 -0.2972
17417SOL    HW153467   7.153   7.283   4.322  0.9316 -2.5362 -1.1239
17417SOL    HW253468   7.173   7.180   4.431  0.6618  0.1051  1.5345
17418SOL     OW53469   6.256   6.193   4.728  0.3091  0.3976  0.1812
17418SOL    HW153470   6.291   6.140   4.800 -0.5832 -1.8732 -0.9425
17418SOL    HW253471   6.328   6.197   4.665  0.2915  0.2849  0.1536
17419SOL     OW53472   7.662   5.953   3.890 -0.4323  0.1803  0.0080
17419SOL    HW153473   7.646   6.005   3.811 -1.4450 -0.6644 -0.3712
17419SOL    HW253474   7.574   5.929   3.920 -0.1881  1.9403  2.4319
17420SOL     OW53475   6.501   6.992   4.693  0.2080 -0.3787 -0.0052
17420SOL    HW153476   6.440   6.924   4.661 -1.1110  0.9087 -0.3451
17420SOL    HW253477   6.537   7.031   4.614 -0.7212  0.7572  0.0980
17421SOL     OW53478   6.006   6.393   5.725  0.2511 -0.0592  0.4066
17421SOL    HW153479   6.046   6.424   5.806  0.2675  0.0195  0.3686
17421SOL    HW253480   6.070   6.331   5.689  0.8641  0.9155 -0.2321
17422SOL     OW53481   6.405   6.568   4.091  0.1730  0.3928  0.1203
17422SOL    HW153482   6.403   6.489   4.145 -0.4817  0.2857 -0.0606
17422SOL    HW253483   6.370   6.637   4.148 -0.2633  0.3341 -0.0720
17423SOL     OW53484   6.416   6.792   5.368 -0.2571  0.4119 -0.4430
17423SOL    HW153485   6.398   6.760   5.456  0.3353 -0.1603 -0.5334
17423SOL    HW253486   6.332   6.830   5.340 -1.0988 -1.3687 -0.4806
17424SOL     OW53487   5.916   6.871   4.340  0.0742  0.1907 -0.0215
17424SOL    HW153488   5.920   6.894   4.247 -0.4828 -0.4825 -0.2192
17424SOL    HW253489   5.857   6.937   4.377  0.4637  0.5894 -0.0981
17425SOL     OW53490   6.627   6.793   5.170 -0.1473  0.7778  0.7739
17425SOL    HW153491   6.535   6.799   5.196 -0.4290  2.6563 -0.4644
17425SOL    HW253492   6.665   6.730   5.232 -2.2485 -0.0883  1.2873
17426SOL     OW53493   5.902   6.469   5.429 -0.4486 -0.1151  0.1249
17426SOL    HW153494   5.843   6.490   5.501 -1.3178 -1.1616 -0.2493
17426SOL    HW253495   5.884   6.377   5.409  1.0660 -0.3637 -0.2494
17427SOL     OW53496   7.234   6.245   4.191  0.5153  0.3845  0.1099
17427SOL    HW153497   7.279   6.187   4.130  0.4952  1.0830 -0.5887
17427SOL    HW253498   7.144   6.213   4.193  0.4246  0.5868 -0.5295
17428SOL     OW53499   5.650   7.416   3.918 -0.4977 -0.6053 -0.5041
17428SOL    HW153500   5.573   7.368   3.889 -0.5299 -1.1753  0.5007
17428SOL    HW253501   5.664   7.388   4.008  1.1647 -0.8818 -0.8093
17429SOL     OW53502   6.514   7.214   5.361 -0.2233 -0.4553  0.3688
17429SOL    HW153503   6.564   7.146   5.407  1.6910 -0.4541 -1.5105
17429SOL    HW253504   6.426   7.179   5.354  0.5375 -2.4283  0.1080
17430SOL     OW53505   5.962   7.293   4.134 -0.5687  0.1948  0.2127
17430SOL    HW153506   5.938   7.270   4.044 -1.2563 -0.0002  0.4392
17430SOL    HW253507   5.882   7.330   4.171 -0.2711  0.3323  0.7258
17431SOL     OW53508   5.789   6.744   4.067 -0.1333  0.4110  0.1345
17431SOL    HW153509   5.846   6.821   4.070  1.7696 -0.9280  0.2452
17431SOL    HW253510   5.849   6.670   4.070 -1.9515 -1.1112  1.2058
17432SOL     OW53511   5.783   7.348   4.983 -0.5487 -0.6294  0.0337
17432SOL    HW153512   5.739   7.381   5.062 -2.9740 -0.1246 -1.4211
17432SOL    HW253513   5.869   7.389   4.985 -1.1351  0.6281  1.6245
17433SOL     OW53514   5.957   6.468   3.631  0.2738 -0.1337  0.4380
17433SOL    HW153515   6.027   6.473   3.566  0.8166  0.4715  1.0489
17433SOL    HW253516   5.987   6.401   3.693  0.9224  0.9683  1.3672
17434SOL     OW53517   7.451   5.308   5.127  0.3322  0.3492  0.2441
17434SOL    HW153518   7.546   5.302   5.132  0.4890  0.6578 -1.8104
17434SOL    HW253519   7.432   5.402   5.135  0.4189  0.5737 -1.6942
17435SOL     OW53520   6.053   6.527   4.324  0.6754  0.3526 -0.4283
17435SOL    HW153521   5.969   6.573   4.330  0.6637  0.2199  0.4678
17435SOL    HW253522   6.040   6.465   4.252  0.0256  0.3702 -0.3365
17436SOL     OW53523   7.683   7.403   3.803 -0.1014 -0.6888 -0.6228
17436SOL    HW153524   7.640   7.328   3.763 -0.5715  0.2923 -2.0625
17436SOL    HW253525   7.614   7.469   3.811  0.5308 -0.0468 -0.3604
17437SOL     OW53526   5.375   6.856   3.518 -0.1669  0.1963 -1.3896
17437SOL    HW153527   5.380   6.766   3.552 -2.8273  0.2861 -0.5042
17437SOL    HW253528   5.322   6.849   3.439 -1.8503  1.1574 -0.3922
17438SOL     OW53529   7.234   6.069   3.959 -0.5187  0.0769  0.3004
17438SOL    HW153530   7.146   6.041   3.935 -1.0107 -0.7104  2.7555
17438SOL    HW253531   7.289   5.992   3.943 -0.3259  0.4181 -0.7763
17439SOL     OW53532   7.434   6.915   3.981  0.0409  0.5634 -0.1998
17439SOL    HW153533   7.391   6.832   3.957  0.1368  0.8342 -1.3722
17439SOL    HW253534   7.397   6.937   4.067 -0.9320 -0.0556 -0.4413
17440SOL     OW53535   5.443   6.248   4.909  0.1114  0.1000 -0.7599
17440SOL    HW153536   5.509   6.247   4.978  0.6155 -1.9471 -1.1935
17440SOL    HW253537   5.493   6.235   4.828 -0.7595 -1.1292 -1.1339
17441SOL     OW53538   6.353   7.128   3.801  0.5369 -0.0252  0.4957
17441SOL    HW153539   6.310   7.053   3.841  0.8558 -0.4640  0.0230
17441SOL    HW253540   6.361   7.105   3.709 -3.3984  2.4044 -0.6814
17442SOL     OW53541   6.714   6.615   5.353 -0.3088 -0.6893 -0.0521
17442SOL    HW153542   6.747   6.668   5.426  0.3269 -1.4654  0.2476
17442SOL    HW253543   6.792   6.568   5.322 -0.4127  0.1642 -1.7110
17443SOL     OW53544   6.682   5.803   4.257  0.0654  0.2476  0.3278
17443SOL    HW153545   6.757   5.860   4.274 -0.8256  1.5198  0.1097
17443SOL    HW253546   6.632   5.848   4.190 -1.0295 -0.4645  0.6449
17444SOL     OW53547   6.155   6.868   4.445 -0.0494 -0.2761 -0.6490
17444SOL    HW153548   6.146   6.877   4.540 -0.3191  0.2404 -0.7165
17444SOL    HW253549   6.066   6.880   4.412  0.1681  0.3500 -1.0203
17445SOL     OW53550   7.213   6.536   3.943  0.0227  0.3589 -0.3581
17445SOL    HW153551   7.146   6.482   3.902 -0.3836  0.1590  0.5418
17445SOL    HW253552   7.288   6.478   3.954 -0.2030  0.1371  0.0498
17446SOL     OW53553   6.593   7.350   5.131 -0.0122  0.2439  0.4852
17446SOL    HW153554   6.685   7.334   5.109  0.4279 -0.5465  2.6778
17446SOL    HW253555   6.578   7.299   5.210 -2.5204 -0.0669 -0.1119
17447SOL     OW53556   5.871   5.994   5.520 -0.1168 -0.1197  0.3840
17447SOL    HW153557   5.782   5.959   5.509 -0.6616  1.4599 -0.5283
17447SOL    HW253558   5.865   6.052   5.595  0.1218  0.0385  0.2814
17448SOL     OW53559   6.780   6.653   4.032 -0.3923 -0.9459  0.5895
17448SOL    HW153560   6.708   6.709   4.003 -0.5170 -0.8614  1.0605
17448SOL    HW253561   6.751   6.564   4.011 -0.6050 -0.9067  0.7209
17449SOL     OW53562   7.391   6.975   4.286  0.2979 -0.0389  0.1601
17449SOL    HW153563   7.466   7.035   4.288 -0.9281  1.5472  0.0849
17449SOL    HW253564   7.320   7.027   4.249 -0.9329 -1.4212  0.5202
17450SOL     OW53565   6.048   6.267   3.797 -0.3987 -0.1981 -0.2692
17450SOL    HW153566   6.051   6.224   3.883 -1.1662  3.3159  1.6972
17450SOL    HW253567   6.133   6.308   3.788  0.1240 -1.5146 -1.8665
17451SOL     OW53568   7.040   6.071   4.574  1.2082 -0.2100 -0.1167
17451SOL    HW153569   7.032   6.125   4.653  1.3119  0.1364 -0.3373
17451SOL    HW253570   7.126   6.095   4.538  1.0231 -0.1201 -0.5088
17452SOL     OW53571   7.524   7.152   3.709 -0.7688 -0.6437  0.1655
17452SOL    HW153572   7.434   7.120   3.711 -0.7924 -0.6101 -0.2318
17452SOL    HW253573   7.572   7.094   3.768 -1.3429  0.2668  1.6018
17453SOL     OW53574   6.158   6.154   5.644  0.0680  0.1432  0.8080
17453SOL    HW153575   6.144   6.060   5.660  0.0535 -0.1301 -0.6158
17453SOL    HW253576   6.180   6.158   5.551 -2.5529  1.8289  0.1859
17454SOL     OW53577   6.614   5.947   5.877  0.0844  0.2443  0.0179
17454SOL    HW153578   6.648   5.876   5.932  1.1666  0.8254  0.1254
17454SOL    HW253579   6.542   5.907   5.828 -0.1304 -0.5989  0.9838
17455SOL     OW53580   6.541   6.333   4.711  0.5978 -0.0831  0.5264
17455SOL    HW153581   6.587   6.414   4.737  0.2501  0.0728  0.6610
17455SOL    HW253582   6.569   6.268   4.776 -0.1450  0.2658  1.2159
17456SOL     OW53583   7.067   5.820   4.735  0.1547  0.1024  0.1843
17456SOL    HW153584   7.152   5.781   4.720 -0.7754 -1.2478 -1.9488
17456SOL    HW253585   7.063   5.894   4.675 -0.6832 -0.7038 -0.7906
17457SOL     OW53586   6.331   5.931   3.632 -0.0104  0.4686  0.4144
17457SOL    HW153587   6.273   5.856   3.629 -0.9651  1.2290 -0.9400
17457SOL    HW253588   6.275   6.004   3.657  0.4611  1.1198 -0.3759
17458SOL     OW53589   5.809   6.204   4.750  0.4329 -0.2701  0.1617
17458SOL    HW153590   5.749   6.145   4.795 -0.8719 -1.9714 -3.3964
17458SOL    HW253591   5.884   6.149   4.728 -0.3276 -0.4709 -2.2709
17459SOL     OW53592   5.359   7.352   5.177 -0.4937  0.1307 -0.7965
17459SOL    HW153593   5.372   7.290   5.105 -0.9874  0.3513 -1.0817
17459SOL    HW253594   5.275   7.325   5.216  0.0864 -0.4147  0.1348
17460SOL     OW53595   6.454   5.740   4.020  0.4629  0.0334  0.1636
17460SOL    HW153596   6.425   5.723   4.110  1.0193 -0.8327  0.1902
17460SOL    HW253597   6.375   5.726   3.967  0.1577  0.4445  0.5009
17461SOL     OW53598   7.383   5.692   5.898 -0.2342  0.2032  0.2816
17461SOL    HW153599   7.360   5.655   5.983  0.6307 -1.7556 -0.2827
17461SOL    HW253600   7.300   5.709   5.855 -0.6695 -0.6201  0.7781
17462SOL     OW53601   6.934   6.689   3.620  0.1516 -0.3165 -0.1332
17462SOL    HW153602   6.958   6.705   3.712  0.7735  0.0807 -0.3571
17462SOL    HW253603   6.838   6.683   3.621  0.1583 -0.4577  0.5611
17463SOL     OW53604   6.164   5.552   4.371  0.0970  0.0789  0.0389
17463SOL    HW153605   6.160   5.462   4.340 -0.9078 -0.2348  1.0121
17463SOL    HW253606   6.193   5.545   4.462  0.6997  0.7981 -0.0885
17464SOL     OW53607   6.553   7.118   4.002 -0.7036 -0.7098  0.2736
17464SOL    HW153608   6.478   7.159   3.959 -0.1546 -0.4301 -0.4380
17464SOL    HW253609   6.597   7.069   3.932  1.4432  1.5091 -0.0375
17465SOL     OW53610   6.056   7.250   4.502 -0.3930  0.6251 -0.0603
17465SOL    HW153611   6.103   7.323   4.461  2.5715 -1.0243  0.1287
17465SOL    HW253612   5.996   7.218   4.435  2.0033  0.0394 -2.0688
17466SOL     OW53613   7.279   6.537   4.254  0.2052  0.6360  0.0942
17466SOL    HW153614   7.205   6.567   4.201  1.6108  1.1217 -1.6848
17466SOL    HW253615   7.277   6.441   4.245 -0.3405  0.6260  0.2750
17467SOL     OW53616   6.900   7.470   5.363 -0.0258  0.0814 -0.3015
17467SOL    HW153617   6.848   7.548   5.380 -2.2526 -1.3146 -0.2717
17467SOL    HW253618   6.898   7.422   5.445 -1.0108 -1.2323 -1.0420
17468SOL     OW53619   6.016   6.664   3.840 -0.3737  0.3282 -0.2196
17468SOL    HW153620   6.063   6.602   3.784 -3.4397 -0.7336 -1.8653
17468SOL    HW253621   5.972   6.609   3.904 -0.8030  1.0977  0.1582
17469SOL     OW53622   6.974   6.177   4.201 -0.0734  0.1914 -0.6580
17469SOL    HW153623   6.925   6.256   4.224  1.4142  1.4623 -1.6303
17469SOL    HW253624   6.951   6.159   4.110  2.0464  1.5190 -1.5400
17470SOL     OW53625   5.751   6.796   5.150  0.3145  0.1476 -0.2743
17470SOL    HW153626   5.660   6.783   5.173  0.2085  2.1183  0.5856
17470SOL    HW253627   5.791   6.710   5.160 -1.3290 -0.6372 -0.1755
17471SOL     OW53628   6.194   7.311   3.623  0.1513 -0.9204  0.3433
17471SOL    HW153629   6.138   7.359   3.684 -0.1846 -1.8333  0.7704
17471SOL    HW253630   6.277   7.358   3.625 -0.3739  0.0389  0.2314
17472SOL     OW53631   5.991   6.198   5.368 -0.1084  0.1750  0.0636
17472SOL    HW153632   5.938   6.175   5.291 -2.5449  2.3291  0.9361
17472SOL    HW253633   5.961   6.138   5.436  0.8167 -0.5916 -0.1784
17473SOL     OW53634   7.142   7.161   3.853 -0.0699  0.7706 -0.1260
17473SOL    HW153635   7.051   7.132   3.843  0.5585 -1.2253 -0.6851
17473SOL    HW253636   7.187   7.126   3.775  1.5413  0.0007  1.0825
17474SOL     OW53637   5.953   6.947   4.083 -0.6933  0.1226  0.8341
17474SOL    HW153638   6.048   6.941   4.074 -0.6030  2.1364 -0.0171
17474SOL    HW253639   5.930   7.030   4.041 -2.7121  0.1721  1.9167
17475SOL     OW53640   7.031   5.208   4.206 -0.7509 -0.0654 -0.2347
17475SOL    HW153641   6.971   5.182   4.276 -1.9555  0.3874 -1.0858
17475SOL    HW253642   6.979   5.205   4.126  0.6013 -0.5576 -1.1446
17476SOL     OW53643   5.823   7.252   4.678  0.0166 -0.2693 -0.2171
17476SOL    HW153644   5.839   7.313   4.750 -0.8216 -1.7406  1.2866
17476SOL    HW253645   5.910   7.231   4.644  0.4629  0.0486  0.7077
17477SOL     OW53646   6.581   7.247   4.790  0.1009  0.5692 -0.1686
17477SOL    HW153647   6.540   7.168   4.825 -1.9364  1.0637 -1.2462
17477SOL    HW253648   6.598   7.227   4.698  1.2524  0.8022 -0.0276
17478SOL     OW53649   5.918   6.484   4.057  0.1593 -0.3255  0.0874
17478SOL    HW153650   5.842   6.430   4.080  0.2542 -0.2246  0.6452
17478SOL    HW253651   5.993   6.430   4.080  0.2589  0.2885  1.2676
17479SOL     OW53652   6.927   5.705   5.931 -0.3107 -0.1597  0.5404
17479SOL    HW153653   7.010   5.686   5.976 -1.5470  0.3080  3.2044
17479SOL    HW253654   6.919   5.801   5.935 -1.5743 -0.2782  1.5583
17480SOL     OW53655   6.412   5.407   4.149 -0.4586  0.0346  0.2367
17480SOL    HW153656   6.414   5.389   4.243 -1.0658 -1.4798 -0.0006
17480SOL    HW253657   6.448   5.495   4.140 -3.7711  1.7816  2.2454
17481SOL     OW53658   6.606   5.796   5.327 -0.1287  0.3018  0.1074
17481SOL    HW153659   6.688   5.747   5.334 -0.2757  0.0989  0.4423
17481SOL    HW253660   6.557   5.772   5.406 -0.3249  0.7664  0.1270
17482SOL     OW53661   6.693   6.870   4.857 -0.4578  0.5058 -0.2446
17482SOL    HW153662   6.605   6.878   4.822  0.0636  0.7919 -1.5322
17482SOL    HW253663   6.680   6.854   4.951 -1.8659  0.4560 -0.4285
17483SOL     OW53664   7.222   6.013   5.378 -0.0309  0.0765  0.2619
17483SOL    HW153665   7.268   5.950   5.434 -0.7689 -0.9518 -0.2443
17483SOL    HW253666   7.154   6.050   5.433 -0.4522 -0.5806  0.1930
17484SOL     OW53667   6.378   7.077   4.349 -0.0805 -0.0123 -0.3427
17484SOL    HW153668   6.349   7.115   4.267  0.7014 -0.4267 -0.8304
17484SOL    HW253669   6.301   7.032   4.385 -0.7083  1.0810 -0.3048
17485SOL     OW53670   6.798   6.351   4.295  0.4621  0.3971  0.2492
17485SOL    HW153671   6.764   6.284   4.355  1.5134 -0.4652 -0.0788
17485SOL    HW253672   6.781   6.434   4.340  0.1561 -0.1580  1.1971
17486SOL     OW53673   5.939   5.833   4.263 -0.0760  0.2484 -0.0734
17486SOL    HW153674   5.856   5.793   4.288 -0.3222 -0.3281 -1.7191
17486SOL    HW253675   5.976   5.774   4.197  0.6348  1.5530 -0.8970
17487SOL     OW53676   6.623   6.823   3.571 -0.4822 -0.5654 -0.1706
17487SOL    HW153677   6.604   6.746   3.518 -2.6398  0.4206 -0.9109
17487SOL    HW253678   6.709   6.853   3.540 -0.3636 -1.7060 -1.0019
17488SOL     OW53679   5.535   5.265   4.070 -0.5618 -0.0511  0.0840
17488SOL    HW153680   5.574   5.331   4.012 -1.6211  0.5504  0.0348
17488SOL    HW253681   5.472   5.313   4.122 -0.6090 -0.8494  0.7814
17489SOL     OW53682   6.608   5.982   4.010 -0.3481 -0.5113 -0.4942
17489SOL    HW153683   6.576   5.897   3.979 -0.9750 -0.5646  0.2776
17489SOL    HW253684   6.583   6.043   3.941 -1.6079 -0.6540 -0.1947
17490SOL     OW53685   6.659   6.034   5.227  0.1318 -0.2607 -0.0239
17490SOL    HW153686   6.577   6.083   5.221  0.3291 -0.1404 -2.7166
17490SOL    HW253687   6.633   5.950   5.266 -0.8792  0.4733  0.9712
17491SOL     OW53688   6.628   7.126   4.285 -0.1338  0.6084 -0.4805
17491SOL    HW153689   6.608   7.155   4.196  1.0386  1.0812 -0.6189
17491SOL    HW253690   6.543   7.113   4.326 -0.7147  2.0233 -1.1556
17492SOL     OW53691   6.263   6.730   4.225 -0.0621  0.6507 -0.2944
17492SOL    HW153692   6.228   6.809   4.267  0.4044 -0.2142  1.8250
17492SOL    HW253693   6.221   6.657   4.271  2.5020 -0.3864  0.5936
17493SOL     OW53694   6.572   7.521   3.952 -0.7061  0.4330 -0.3157
17493SOL    HW153695   6.643   7.531   3.889  0.8525 -0.3043  1.2336
17493SOL    HW253696   6.516   7.452   3.914  0.7730 -0.7477 -0.4425
17494SOL     OW53697   6.559   6.024   3.554 -0.3671  0.2117 -0.0572
17494SOL    HW153698   6.604   5.955   3.505  1.2088  1.8016 -0.9733
17494SOL    HW253699   6.467   5.999   3.551 -0.2729 -0.2269 -3.2264
17495SOL     OW53700   5.878   6.094   5.144 -0.6741  0.2701  0.9009
17495SOL    HW153701   5.897   6.000   5.145 -1.0367  0.1619 -0.3803
17495SOL    HW253702   5.817   6.105   5.071  0.1264  1.6501  0.4112
17496SOL     OW53703   6.284   5.731   4.893  0.0118  0.4495 -0.4640
17496SOL    HW153704   6.370   5.712   4.932 -0.0739  1.9005  0.4888
17496SOL    HW253705   6.228   5.751   4.967 -1.1844 -0.4662 -1.0806
17497SOL     OW53706   6.523   6.089   4.256 -0.0368  0.2278  0.1232
17497SOL    HW153707   6.596   6.076   4.317 -0.3167 -1.3171  0.1731
17497SOL    HW253708   6.554   6.051   4.174 -0.4176  0.4841 -0.1392
17498SOL     OW53709   6.427   4.965   4.331  0.2365 -0.2462  0.0507
17498SOL    HW153710   6.382   5.034   4.379  0.5703 -0.1837  0.2809
17498SOL    HW253711   6.361   4.930   4.271 -0.3418 -0.6548  0.8954
17499SOL     OW53712   6.639   6.850   4.393 -0.0478  0.3752 -0.0747
17499SOL    HW153713   6.555   6.832   4.435 -0.2704  1.3089 -0.1089
17499SOL    HW253714   6.623   6.927   4.338  1.1278  1.3642  0.9123
17500SOL     OW53715   6.970   6.260   4.766 -0.2906  0.1834  0.3831
17500SOL    HW153716   7.023   6.270   4.845 -1.1960 -0.6214  1.1237
17500SOL    HW253717   6.964   6.348   4.729  0.6357  0.4656  0.8765
17501SOL     OW53718   7.846   6.614   4.035 -0.2145  0.2332 -0.1271
17501SOL    HW153719   7.908   6.649   3.970  0.5103  1.7190  1.2949
17501SOL    HW253720   7.768   6.667   4.024 -0.9838 -1.0502 -1.3003
17502SOL     OW53721   6.321   6.730   3.697 -0.0048 -0.0729 -0.8741
17502SOL    HW153722   6.332   6.823   3.681  0.8394  0.0754  0.4419
17502SOL    HW253723   6.329   6.689   3.611 -2.5251  1.2216 -1.8027
17503SOL     OW53724   7.662   6.748   4.294  0.1217 -0.1037 -0.1279
17503SOL    HW153725   7.642   6.719   4.384 -1.3914  1.3786  0.0659
17503SOL    HW253726   7.586   6.801   4.269  1.4886  1.3196 -1.4811
17504SOL     OW53727   7.374   5.753   3.767 -0.4430  0.1695  0.2500
17504SOL    HW153728   7.386   5.783   3.857 -0.9800 -0.0580  0.4034
17504SOL    HW253729   7.316   5.678   3.775  0.7619 -0.8386 -0.1364
17505SOL     OW53730   6.051   5.777   3.881 -0.4648  0.6205  0.1090
17505SOL    HW153731   6.022   5.864   3.909  0.4311  0.8110  0.5098
17505SOL    HW253732   6.069   5.730   3.963 -0.2738  0.2993 -0.1098
17506SOL     OW53733   7.341   6.794   5.518  0.5362 -0.0820  0.3534
17506SOL    HW153734   7.389   6.828   5.443  0.7969  0.0313  0.5670
17506SOL    HW253735   7.373   6.705   5.530 -1.8287 -1.3002 -1.6380
17507SOL     OW53736   6.661   7.071   5.115 -0.2448 -0.1674 -0.1968
17507SOL    HW153737   6.666   6.978   5.138  0.8644  0.0451  0.5005
17507SOL    HW253738   6.747   7.106   5.137 -0.3763  0.8625 -1.2368
17508SOL     OW53739   7.025   7.029   5.482  0.1562 -0.0217 -0.1054
17508SOL    HW153740   7.105   7.075   5.508  0.2537 -0.0760 -0.3075
17508SOL    HW253741   6.959   7.098   5.475  0.2277  0.0468 -0.1046
17509SOL     OW53742   6.234   6.874   3.934 -0.2238  0.1055  0.2199
17509SOL    HW153743   6.248   6.799   3.992  1.8028 -0.0315 -0.3751
17509SOL    HW253744   6.152   6.855   3.889  0.1280 -1.6336  0.2674
17510SOL     OW53745   7.076   6.954   4.405  0.3145  0.0842  0.2305
17510SOL    HW153746   7.092   6.964   4.311  1.4900 -1.1941  0.2511
17510SOL    HW253747   7.044   6.864   4.414  0.2009  0.2034  1.0433
17511SOL     OW53748   6.722   5.493   4.852 -0.0258 -0.4389 -0.1413
17511SOL    HW153749   6.760   5.438   4.783  1.6985 -0.3354  0.6771
17511SOL    HW253750   6.750   5.582   4.830 -0.0913 -0.3102  0.2828
17512SOL     OW53751   6.535   6.518   5.167 -0.2649  0.0602  0.4062
17512SOL    HW153752   6.471   6.561   5.111  1.0031  0.0144 -1.1374
17512SOL    HW253753   6.587   6.590   5.204 -0.6305  0.0495  0.9502
17513SOL     OW53754   6.271   6.489   3.835  0.5588  0.0455 -0.5767
17513SOL    HW153755   6.310   6.490   3.923 -0.6745 -0.5015  0.0005
17513SOL    HW253756   6.313   6.563   3.790 -0.8666  2.2322  1.4138
17514SOL     OW53757   6.286   6.440   4.827  0.2491 -0.0308 -0.0351
17514SOL    HW153758   6.256   6.456   4.738  0.9288  0.7220 -0.1437
17514SOL    HW253759   6.299   6.345   4.832 -2.6573 -0.5097  0.2070
17515SOL     OW53760   7.053   6.296   5.041 -0.2605  0.8962 -0.5783
17515SOL    HW153761   7.109   6.373   5.048  0.9191  0.0033  0.0214
17515SOL    HW253762   6.964   6.331   5.046  0.2551  2.2020 -0.1834
17516SOL     OW53763   5.717   7.053   4.899  0.2733  0.6740  0.3954
17516SOL    HW153764   5.780   7.067   4.828  1.6298  0.2199  1.4625
17516SOL    HW253765   5.676   6.969   4.878  0.1215  0.8990 -0.2308
17517SOL     OW53766   5.638   7.005   3.880 -0.5509  0.0481 -0.6530
17517SOL    HW153767   5.707   6.988   3.815 -1.2028  0.7663 -1.5662
17517SOL    HW253768   5.611   6.918   3.910  1.4200 -0.2266  0.4675
17518SOL     OW53769   6.022   6.041   4.675 -0.1092  0.4417  0.7348
17518SOL    HW153770   6.057   5.960   4.639  0.3780  0.6187  0.8075
17518SOL    HW253771   6.097   6.100   4.682 -0.3210  0.6413  1.4006
17519SOL     OW53772   6.888   7.091   3.852  0.1061  0.0342  0.1793
17519SOL    HW153773   6.824   7.024   3.874 -0.5499  0.9263  1.0564
17519SOL    HW253774   6.836   7.167   3.825  0.8383  0.1602 -0.9528
17520SOL     OW53775   6.745   7.267   4.539 -0.1211  0.2856 -0.3216
17520SOL    HW153776   6.823   7.216   4.561  0.8513  1.6630 -0.4989
17520SOL    HW253777   6.710   7.225   4.461  1.4097  0.6468 -1.2393
17521SOL     OW53778   6.922   6.103   3.937  0.2489  0.6846 -0.4207
17521SOL    HW153779   6.827   6.117   3.932  0.2321  0.2849 -1.6158
17521SOL    HW253780   6.933   6.008   3.931  0.7097  0.6968  0.1499
17522SOL     OW53781   6.317   7.316   4.930 -0.3623 -0.2270  0.1845
17522SOL    HW153782   6.400   7.323   4.883 -0.2038 -0.4432  0.4287
17522SOL    HW253783   6.319   7.387   4.993  0.3143 -1.1404  1.2257
17523SOL     OW53784   6.195   6.259   5.171  0.3729  0.1305 -0.1078
17523SOL    HW153785   6.135   6.307   5.114 -0.0119  0.7881  0.8412
17523SOL    HW253786   6.139   6.211   5.231  0.6404 -3.3049 -2.3344
17524SOL     OW53787   7.020   6.142   5.495  0.2099  0.0141 -0.1165
17524SOL    HW153788   7.020   6.237   5.496  2.0596  0.0314  0.8853
17524SOL    HW253789   6.958   6.117   5.564  1.2893  0.5244  1.0660
17525SOL     OW53790   6.501   5.670   5.530 -0.0398 -0.5514 -0.5721
17525SOL    HW153791   6.413   5.633   5.539 -0.3839 -0.1672 -2.1497
17525SOL    HW253792   6.529   5.687   5.620 -1.4399 -0.9804 -0.0316
17526SOL     OW53793   6.142   5.869   5.582 -0.5784  0.4997 -0.2103
17526SOL    HW153794   6.183   5.828   5.506 -1.3596 -2.8061  0.9876
17526SOL    HW253795   6.048   5.861   5.566 -0.8112 -1.7926  1.6989
17527SOL     OW53796   6.438   6.663   4.934 -0.0292 -0.3931  0.4862
17527SOL    HW153797   6.375   6.735   4.936 -0.9956 -1.1494 -0.7528
17527SOL    HW253798   6.387   6.587   4.907  1.3673 -1.0933 -0.3261
17528SOL     OW53799   6.684   6.546   4.798  0.5264  0.2554  0.1765
17528SOL    HW153800   6.615   6.598   4.840  1.0444  0.9682  0.1633
17528SOL    HW253801   6.764   6.597   4.813  1.0987 -0.7106  0.4533
17529SOL     OW53802   6.809   6.235   3.654 -0.3474  0.4083 -0.5262
17529SOL    HW153803   6.755   6.208   3.581 -0.5313 -1.2524  0.1685
17529SOL    HW253804   6.899   6.216   3.626 -0.3213  0.8108 -0.7248
17530SOL     OW53805   6.294   5.477   5.537  0.2493  0.2263 -0.0504
17530SOL    HW153806   6.212   5.453   5.494  0.8122 -1.8007 -0.1157
17530SOL    HW253807   6.341   5.394   5.546  1.3277  0.9925  2.0093
17531SOL     OW53808   5.545   6.821   4.863 -0.0612 -0.2529 -0.8641
17531SOL    HW153809   5.535   6.736   4.820 -1.9822 -0.8297  0.5647
17531SOL    HW253810   5.474   6.824   4.927  1.0434  1.6791  0.3917
17532SOL     OW53811   6.781   6.460   5.049  0.4372  0.2747  0.0286
17532SOL    HW153812   6.757   6.461   4.956  0.8142 -2.0090 -0.1666
17532SOL    HW253813   6.698   6.463   5.096  0.2097  0.6420 -0.3922
17533SOL     OW53814   7.299   6.239   5.745 -0.0711  0.1095  0.2002
17533SOL    HW153815   7.388   6.213   5.768  0.2158 -0.7379 -1.6803
17533SOL    HW253816   7.243   6.181   5.796  0.5271 -1.3869 -0.7738
17534SOL     OW53817   5.769   5.730   4.603 -0.8871 -0.4403  0.0261
17534SOL    HW153818   5.857   5.763   4.622 -1.4030  0.4101  1.0360
17534SOL    HW253819   5.783   5.658   4.541  0.2943  1.5670 -2.2086
17535SOL     OW53820   7.418   5.858   4.028 -0.1408 -0.1026  0.7442
17535SOL    HW153821   7.476   5.785   4.050  1.1158  0.7075  0.2923
17535SOL    HW253822   7.401   5.902   4.111  1.1906  0.5452  0.6998
17536SOL     OW53823   6.678   6.189   4.472  0.9682 -0.2575  0.3106
17536SOL    HW153824   6.612   6.219   4.534  1.3330  1.0635  0.0821
17536SOL    HW253825   6.746   6.151   4.528  0.0755 -1.5835  0.5476
17537SOL     OW53826   6.166   6.880   5.346  0.3049 -0.3521  0.3642
17537SOL    HW153827   6.122   6.876   5.262 -0.0533  2.8345  0.2889
17537SOL    HW253828   6.104   6.841   5.408 -1.0372  0.6512 -0.3065
17538SOL     OW53829   6.883   7.248   5.158  0.4741  0.5404  0.4258
17538SOL    HW153830   6.897   7.327   5.210  0.5190  1.4837 -0.9448
17538SOL    HW253831   6.955   7.190   5.181  0.5675  0.9932  1.2952
17539SOL     OW53832   5.856   6.538   5.176 -0.4355  0.2521  0.1566
17539SOL    HW153833   5.874   6.531   5.270 -0.5454 -0.5268  0.1283
17539SOL    HW253834   5.931   6.494   5.135 -0.4772  0.4351 -0.1100
17540SOL     OW53835   7.274   5.499   3.889 -0.5981 -0.3995  0.3656
17540SOL    HW153836   7.368   5.481   3.888 -0.7591 -1.2530 -1.0179
17540SOL    HW253837   7.257   5.531   3.978  0.8461 -1.0026  0.8846
17541SOL     OW53838   7.080   6.150   3.645 -0.4216 -0.1905 -0.3059
17541SOL    HW153839   7.173   6.140   3.628 -0.2451  0.6933  0.0837
17541SOL    HW253840   7.046   6.060   3.646  0.3168 -0.4842 -0.9957
17542SOL     OW53841   7.006   6.724   3.879 -0.3158  0.1843  0.1475
17542SOL    HW153842   6.943   6.683   3.938 -0.1320 -0.9277 -0.3958
17542SOL    HW253843   7.089   6.681   3.901  0.3083  1.7395  0.9662
17543SOL     OW53844   6.171   6.531   4.566  0.0011 -0.2238  0.1174
17543SOL    HW153845   6.103   6.587   4.604  1.5352  1.4676  0.5149
17543SOL    HW253846   6.146   6.524   4.474 -1.5337 -0.9654  0.5486
17544SOL     OW53847   5.851   6.224   4.452 -0.1423 -0.8009  0.2869
17544SOL    HW153848   5.871   6.195   4.541  0.7839  0.5249  0.5512
17544SOL    HW253849   5.924   6.194   4.399  0.5183  0.4234  0.4517
17545SOL     OW53850   6.826   5.977   5.023 -0.3011  0.4294  0.7002
17545SOL    HW153851   6.918   5.999   5.013 -0.8135  2.1624 -0.5986
17545SOL    HW253852   6.802   6.012   5.109  0.4415 -0.9455  1.5170
17546SOL     OW53853   6.776   5.774   4.807 -0.6665  0.4403 -0.5698
17546SOL    HW153854   6.779   5.865   4.837 -1.4959  0.9829 -2.0476
17546SOL    HW253855   6.860   5.761   4.763 -0.5155  0.4507 -0.2913
17547SOL     OW53856   5.434   6.596   3.585  0.2062  0.6433  0.0627
17547SOL    HW153857   5.527   6.585   3.606  0.1264  0.5132  0.3522
17547SOL    HW253858   5.388   6.558   3.660 -0.0846  1.5599  0.3608
17548SOL     OW53859   5.680   7.380   4.188 -0.9110 -0.3622 -0.8776
17548SOL    HW153860   5.605   7.348   4.237  0.9396 -2.1711  1.0021
17548SOL    HW253861   5.705   7.461   4.233 -0.4177 -0.9555 -0.0632
17549SOL     OW53862   6.262   7.264   4.163  0.3395 -0.5391 -0.1343
17549SOL    HW153863   6.168   7.274   4.143  0.1085  0.6005  1.3751
17549SOL    HW253864   6.306   7.298   4.085 -0.4291 -2.8275 -1.6869
17550SOL     OW53865   6.724   6.560   4.416  0.4582  0.1249 -0.5608
17550SOL    HW153866   6.707   6.632   4.355  1.3514 -0.0807 -1.0600
17550SOL    HW253867   6.768   6.601   4.490 -1.1847  0.4859  0.2776
17551SOL     OW53868   6.350   6.037   4.979  0.2598 -0.2586 -0.0732
17551SOL    HW153869   6.290   6.068   5.046  1.9332  1.0638  0.9158
17551SOL    HW253870   6.374   5.949   5.007  0.7556  0.1938  0.9905
17552SOL     OW53871   5.643   6.320   5.110  0.2800 -0.3319  0.6223
17552SOL    HW153872   5.684   6.402   5.137  0.1248 -0.6225  1.7771
17552SOL    HW253873   5.652   6.262   5.186  0.0206 -1.2521 -0.0286
17553SOL     OW53874   7.066   6.770   5.583 -0.9293  0.2748 -0.4808
17553SOL    HW153875   7.034   6.857   5.562 -1.4171 -0.4469 -3.2020
17553SOL    HW253876   7.158   6.771   5.556 -0.8579  0.0194 -0.2547
17554SOL     OW53877   6.368   6.343   4.255  0.4789 -0.2239  0.2960
17554SOL    HW153878   6.434   6.274   4.249  1.3988  0.6555  0.0076
17554SOL    HW253879   6.369   6.369   4.347 -0.9386 -1.5834  0.7362
17555SOL     OW53880   6.893   6.775   4.261 -0.1774  0.0434 -0.4908
17555SOL    HW153881   6.847   6.716   4.201 -1.1770  0.6003 -0.2935
17555SOL    HW253882   6.823   6.820   4.309  0.5856 -0.7857  1.5118
17556SOL     OW53883   5.765   7.076   5.167 -0.4080 -0.0879 -0.1082
17556SOL    HW153884   5.767   6.983   5.189 -1.3887  0.2569  1.6304
17556SOL    HW253885   5.736   7.078   5.076  0.9776 -1.5079 -0.6390
17557SOL     OW53886   6.332   5.791   4.620 -0.1666 -0.0357 -0.1455
17557SOL    HW153887   6.337   5.768   4.713 -1.9749  1.0665  0.2668
17557SOL    HW253888   6.239   5.792   4.600  0.1395  0.8408 -1.6968
17558SOL     OW53889   6.014   7.314   5.246  0.3037  0.8587 -0.3037
17558SOL    HW153890   6.088   7.331   5.303  0.5776 -0.0755 -0.3563
17558SOL    HW253891   6.040   7.237   5.195 -0.9652  0.0718  0.1821
17559SOL     OW53892   5.981   6.022   4.005 -0.5414  0.4213 -0.5004
17559SOL    HW153893   5.895   6.063   4.018  0.7043  2.5403  1.8073
17559SOL    HW253894   6.010   5.999   4.093  1.1579 -0.5486 -1.2689
17560SOL     OW53895   6.142   6.851   4.701  0.0893  0.4267  0.5175
17560SOL    HW153896   6.180   6.846   4.789  0.1766  0.3996  0.4781
17560SOL    HW253897   6.059   6.803   4.708  1.5419 -2.4037 -0.1997
17561SOL     OW53898   6.969   6.478   5.295 -0.2228  0.2139 -0.0513
17561SOL    HW153899   6.911   6.403   5.310  1.7112 -0.9698  2.1590
17561SOL    HW253900   7.050   6.440   5.262  0.7846  1.2833  1.0960
17562SOL     OW53901   7.383   6.339   3.902 -0.3505 -0.5237 -0.7288
17562SOL    HW153902   7.359   6.247   3.913 -0.4551 -0.6275 -1.6784
17562SOL    HW253903   7.476   6.343   3.925 -0.5774 -0.6693  0.2582
17563SOL     OW53904   7.232   7.114   4.791  0.0428 -0.3046 -0.0299
17563SOL    HW153905   7.284   7.134   4.714 -0.6260 -0.0558 -0.4245
17563SOL    HW253906   7.142   7.133   4.765 -0.3114 -1.2683  0.4526
17564SOL     OW53907   7.071   7.588   4.443 -0.3174  0.0680 -0.3915
17564SOL    HW153908   6.981   7.606   4.470 -0.0036  0.5023  0.3916
17564SOL    HW253909   7.096   7.510   4.493  0.5240  1.3183  1.2153
17565SOL     OW53910   5.730   7.039   4.439 -0.3788  0.2354  0.7282
17565SOL    HW153911   5.706   7.047   4.347 -0.4114 -0.2418  0.6959
17565SOL    HW253912   5.675   7.104   4.483 -0.3789  0.4494  0.4173
17566SOL     OW53913   5.807   7.244   5.397  0.1028  0.0763  0.4125
17566SOL    HW153914   5.769   7.183   5.333  2.2115  0.4514 -1.3216
17566SOL    HW253915   5.884   7.280   5.352  2.1911 -0.2331  3.4524
17567SOL     OW53916   7.056   5.793   4.350  0.2425 -0.0228 -0.6080
17567SOL    HW153917   6.987   5.855   4.373 -1.7273 -2.3176  0.1346
17567SOL    HW253918   7.013   5.729   4.294  1.7453 -1.6040 -0.0446
17568SOL     OW53919   6.887   7.222   4.187  0.0003  0.6961  0.5991
17568SOL    HW153920   6.817   7.170   4.226 -0.2595  1.4713  1.2091
17568SOL    HW253921   6.857   7.313   4.196 -0.0628  0.9123 -1.4184
17569SOL     OW53922   5.380   7.534   5.456  0.2840 -0.1253  0.1651
17569SOL    HW153923   5.352   7.581   5.377 -1.7199 -0.4562  0.6230
17569SOL    HW253924   5.390   7.444   5.428 -1.6233 -0.4796  0.4854
17570SOL     OW53925   7.024   6.378   3.832  0.1108  0.1570 -0.0390
17570SOL    HW153926   6.933   6.398   3.856  0.2866  0.2501  0.5646
17570SOL    HW253927   7.022   6.285   3.809 -0.3424  0.4015 -1.0743
17571SOL     OW53928   6.223   6.855   4.954 -0.4367  0.4145 -0.2813
17571SOL    HW153929   6.154   6.862   5.020 -0.5283 -1.2763 -0.1535
17571SOL    HW253930   6.277   6.933   4.966 -0.4596  0.1499  1.7891
17572SOL     OW53931   6.383   6.958   3.545 -0.2266 -0.1875  0.2840
17572SOL    HW153932   6.467   6.913   3.552  0.7615  1.6303  0.8402
17572SOL    HW253933   6.355   6.944   3.454  0.0533 -1.8103  0.4254
17573SOL     OW53934   6.946   6.981   4.884  0.5344 -0.1926  0.1159
17573SOL    HW153935   6.980   6.975   4.973 -0.2594  2.4894  0.6802
17573SOL    HW253936   6.853   6.960   4.892  0.4278  0.2111 -0.0573
17574SOL     OW53937   7.428   6.008   4.284  0.1775 -0.3364  0.4899
17574SOL    HW153938   7.434   5.945   4.356 -1.9481 -0.7743  0.3557
17574SOL    HW253939   7.383   6.084   4.322  2.3947  1.0380  0.5612
17575SOL     OW53940   5.543   5.850   4.740  0.2831  0.4204  0.1904
17575SOL    HW153941   5.458   5.812   4.717  0.5799 -0.9402  1.2218
17575SOL    HW253942   5.604   5.809   4.679  0.7670 -1.6783  1.9716
17576SOL     OW53943   6.571   7.377   3.506 -0.3804 -0.1784  0.3517
17576SOL    HW153944   6.498   7.427   3.545  0.1699  1.0442 -0.1565
17576SOL    HW253945   6.642   7.440   3.498  0.6473 -1.2802  0.5287
17577SOL     OW53946   6.056   6.431   5.007 -0.0774  0.0762  0.1251
17577SOL    HW153947   5.994   6.449   4.936 -1.8872 -3.2778  0.6530
17577SOL    HW253948   6.139   6.467   4.976 -1.8705  3.5973 -1.1980
17578SOL     OW53949   6.456   6.356   3.622 -0.0761 -0.1500 -0.6657
17578SOL    HW153950   6.425   6.297   3.555  0.0773 -0.6378 -0.3142
17578SOL    HW253951   6.378   6.383   3.670  0.0583 -2.0200  0.7459
17579SOL     OW53952   7.077   7.193   3.395 -0.1523 -0.4448 -0.4314
17579SOL    HW153953   7.039   7.228   3.315 -3.2386 -0.4828  0.8752
17579SOL    HW253954   7.059   7.099   3.391  1.1685 -0.7150 -0.4177
17580SOL     OW53955   6.089   7.123   4.784 -0.3998  0.2190  0.3540
17580SOL    HW153956   6.138   7.195   4.744  0.5773 -0.5623  0.0999
17580SOL    HW253957   6.109   7.047   4.730  0.2202 -0.6714  1.7589
17581SOL     OW53958   6.813   6.790   4.622  0.0470  0.0583  0.0203
17581SOL    HW153959   6.736   6.797   4.566 -0.1908 -0.6510  0.2526
17581SOL    HW253960   6.791   6.843   4.699 -0.0073  0.2539 -0.1290
17582SOL     OW53961   6.700   6.395   3.971 -0.1003 -0.2565  0.4263
17582SOL    HW153962   6.665   6.324   3.916 -0.1132 -0.4936  0.7345
17582SOL    HW253963   6.714   6.354   4.056  0.2663  0.0180  0.4986
17583SOL     OW53964   6.615   6.116   4.857 -0.6969  0.5518  0.4602
17583SOL    HW153965   6.685   6.069   4.902  0.5292  3.1506  1.4469
17583SOL    HW253966   6.536   6.092   4.906  0.1927  1.0853  2.2532
17584SOL     OW53967   6.505   6.755   3.925 -0.0698  0.9535  0.4411
17584SOL    HW153968   6.462   6.692   3.983  0.8737 -0.2260 -0.0814
17584SOL    HW253969   6.437   6.781   3.864 -0.3400 -0.0514  0.2865
17585SOL     OW53970   7.346   5.867   5.032  0.2859  0.0388  0.2527
17585SOL    HW153971   7.439   5.866   5.054 -0.3552  0.8588  3.5525
17585SOL    HW253972   7.331   5.953   4.994  1.1609 -0.8284 -2.2364
17586SOL     OW53973   5.871   6.895   3.755  0.4576 -0.0693 -0.2642
17586SOL    HW153974   5.924   6.825   3.793  0.2220 -0.6605 -1.0030
17586SOL    HW253975   5.935   6.959   3.725  0.6848 -0.0730  0.2018
17587SOL     OW53976   5.558   6.421   5.418 -0.0261  0.0924 -0.4413
17587SOL    HW153977   5.589   6.331   5.427  0.7443  0.3512 -0.4360
17587SOL    HW253978   5.527   6.444   5.505 -0.2043 -0.1609 -0.4375
17588SOL     OW53979   6.542   5.756   5.042  0.2902  0.1121 -0.0178
17588SOL    HW153980   6.620   5.769   4.989  0.3159 -0.8040 -0.2286
17588SOL    HW253981   6.567   5.788   5.129  0.6871  0.3999 -0.2336
17589SOL     OW53982   5.477   5.694   3.748 -0.0097 -0.7717 -0.2782
17589SOL    HW153983   5.420   5.649   3.810 -0.5489 -1.5726 -1.3265
17589SOL    HW253984   5.566   5.677   3.780 -0.2191 -2.2521 -0.4254
17590SOL     OW53985   6.961   6.689   5.105  0.1648 -0.1983 -0.0669
17590SOL    HW153986   6.937   6.609   5.151 -1.4798  0.5631  0.4892
17590SOL    HW253987   6.940   6.672   5.013 -2.5103  0.3175  0.3408
17591SOL     OW53988   5.805   5.852   3.688  0.3310 -0.3034 -0.2763
17591SOL    HW153989   5.874   5.911   3.658  0.2780 -1.3355 -2.6257
17591SOL    HW253990   5.848   5.768   3.701  0.0410 -0.2521  1.1381
17592SOL     OW53991   6.633   6.944   3.803  0.0477  0.4294 -0.8698
17592SOL    HW153992   6.589   6.880   3.859 -0.8420  0.4261 -1.5491
17592SOL    HW253993   6.629   6.905   3.716 -0.7776  1.5229 -1.3492
17593SOL     OW53994   6.202   6.503   5.456 -0.3517 -0.2326 -0.5106
17593SOL    HW153995   6.253   6.429   5.425  0.3741 -1.2341  2.6282
17593SOL    HW253996   6.111   6.480   5.439 -0.1312 -1.8765  0.3285
17594SOL     OW53997   6.992   7.403   4.644  0.4084  0.2838  0.3787
17594SOL    HW153998   7.019   7.323   4.599 -1.3231 -0.0225 -0.1867
17594SOL    HW253999   6.932   7.373   4.713 -0.7718  1.1184 -0.2493
17595SOL     OW54000   6.386   5.842   5.748 -0.1392  0.1988 -0.9889
17595SOL    HW154001   6.331   5.847   5.671 -0.4537 -0.0023 -0.7800
17595SOL    HW254002   6.331   5.874   5.820  0.6454  1.8608 -1.0898
17596SOL     OW54003   7.030   6.966   5.183  0.5565  0.1216 -0.3332
17596SOL    HW154004   7.104   6.983   5.240  0.9307  0.1671 -0.8288
17596SOL    HW254005   6.992   6.885   5.218  1.6763 -0.6794 -0.9097
17597SOL     OW54006   6.090   7.138   5.051  0.2213 -0.3744 -0.0495
17597SOL    HW154007   6.086   7.144   4.956 -0.0445 -0.7291 -0.0646
17597SOL    HW254008   6.181   7.115   5.070  0.0100 -1.5083 -0.3002
17598SOL     OW54009   6.981   6.598   4.788 -0.6739  0.0572 -0.4509
17598SOL    HW154010   6.941   6.659   4.726 -0.3128  1.8740  1.0225
17598SOL    HW254011   7.075   6.607   4.773 -0.6322 -0.6675 -0.6761
17599SOL     OW54012   7.025   5.846   3.941  0.4920  0.0845 -0.0284
17599SOL    HW154013   7.032   5.780   3.872  1.3842 -0.3307  0.4304
17599SOL    HW254014   7.045   5.798   4.022  0.5955  0.7926  0.3774
17600SOL     OW54015   6.452   6.465   4.482 -0.4670  0.0654  0.1015
17600SOL    HW154016   6.458   6.426   4.570  0.5168  0.2955  0.1487
17600SOL    HW254017   6.538   6.504   4.468  0.5084 -2.6250 -2.2216
17601SOL     OW54018   7.158   5.749   5.279  0.2652  0.0285  0.1635
17601SOL    HW154019   7.152   5.764   5.185 -2.3767  1.2807  0.4236
17601SOL    HW254020   7.148   5.836   5.317 -0.1994 -0.6262  1.6041
17602SOL     OW54021   7.214   6.497   5.070  0.2983 -0.2642  0.4997
17602SOL    HW154022   7.168   6.579   5.087 -1.1019  0.0865 -3.7385
17602SOL    HW254023   7.300   6.523   5.038 -0.3350 -0.3015 -1.3642
17603SOL     OW54024   6.073   6.866   3.449 -0.8501  0.0380  0.3701
17603SOL    HW154025   6.029   6.804   3.393 -0.3133 -0.2619  0.2711
17603SOL    HW254026   6.154   6.888   3.402 -0.9483  0.6675  0.4870
17604SOL     OW54027   6.316   7.372   3.899  0.2027  0.1125 -0.3437
17604SOL    HW154028   6.307   7.292   3.846  0.1027  0.8364 -1.4477
17604SOL    HW254029   6.229   7.411   3.900 -0.7695 -1.6481  3.3619
17605SOL     OW54030   6.409   6.779   4.512  0.4653 -0.0265 -0.0049
17605SOL    HW154031   6.326   6.819   4.486  1.2571  1.0280 -1.0495
17605SOL    HW254032   6.391   6.685   4.516 -1.5956  0.3607  3.0045
17606SOL     OW54033   6.585   6.190   3.820 -0.2127  0.4043 -0.0745
17606SOL    HW154034   6.513   6.244   3.786  0.8187  3.0098  1.5218
17606SOL    HW254035   6.648   6.186   3.748  0.2564  2.5414  0.1561
17607SOL     OW54036   7.415   7.000   4.553  0.4376 -0.2574 -0.3922
17607SOL    HW154037   7.427   6.995   4.459 -0.3597  1.0847 -0.5960
17607SOL    HW254038   7.504   6.991   4.589  0.8756  0.1947 -1.3223
17608SOL     OW54039   5.504   6.640   5.242 -0.6018  0.2099  0.3939
17608SOL    HW154040   5.542   6.564   5.285 -0.3896  0.3242  0.4098
17608SOL    HW254041   5.470   6.693   5.313 -2.2606 -0.6611  0.2960
17609SOL     OW54042   5.623   6.934   4.226 -0.0232 -0.0297  0.0387
17609SOL    HW154043   5.574   6.978   4.157 -0.0595 -0.2804 -0.0981
17609SOL    HW254044   5.657   6.855   4.185  0.5981  0.1977  0.1016
17610SOL     OW54045   6.014   6.896   5.122  0.7560  0.2034  0.1621
17610SOL    HW154046   5.930   6.854   5.104  0.3252 -0.0029  2.4350
17610SOL    HW254047   5.996   6.990   5.113  0.4126  0.1406  0.1703
17611SOL     OW54048   7.145   6.053   5.120 -0.1869  0.7794  0.0178
17611SOL    HW154049   7.171   6.042   5.212 -0.0039  1.3870  0.0452
17611SOL    HW254050   7.108   6.141   5.117  0.4433  1.0300 -0.6378
17612SOL     OW54051   6.120   6.301   4.110  0.1816 -0.1246 -0.0937
17612SOL    HW154052   6.086   6.224   4.157  1.3369 -1.1621 -0.8984
17612SOL    HW254053   6.200   6.324   4.156 -0.6937  1.3011  0.7916
17613SOL     OW54054   6.969   7.108   4.630  0.5204 -0.6267 -0.1183
17613SOL    HW154055   6.992   7.036   4.572 -1.7864 -2.0040  0.5456
17613SOL    HW254056   6.962   7.069   4.717 -0.3919  0.4632  0.3336
17614SOL     OW54057   6.463   6.260   5.209  0.0203 -0.0027 -0.1022
17614SOL    HW154058   6.470   6.356   5.205  0.0987 -0.0084 -0.0978
17614SOL    HW254059   6.371   6.242   5.191 -0.2156  0.1276  0.9205
17615SOL     OW54060   6.762   7.279   3.703  0.2818  0.2941 -0.5427
17615SOL    HW154061   6.804   7.349   3.653 -0.0054  0.8325 -0.0487
17615SOL    HW254062   6.670   7.284   3.678 -0.2708  1.8994  1.4674
17616SOL     OW54063   7.257   6.161   4.886  0.3457  0.1581 -0.0275
17616SOL    HW154064   7.188   6.120   4.937 -1.5073  1.0330 -1.7231
17616SOL    HW254065   7.321   6.189   4.952  0.6998 -3.3799  1.3797
17617SOL     OW54066   6.406   5.319   4.412  0.1136  0.0951  0.9088
17617SOL    HW154067   6.454   5.237   4.424  2.8388  1.7614  2.3598
17617SOL    HW254068   6.347   5.323   4.488 -1.4614 -1.3147 -0.1592
17618SOL     OW54069   6.692   6.504   3.594 -0.0341  0.0134 -0.6898
17618SOL    HW154070   6.629   6.436   3.618  0.3997 -1.0344 -2.3831
17618SOL    HW254071   6.767   6.488   3.652 -0.1415 -0.6372 -0.7178
17619SOL     OW54072   6.471   7.603   4.497 -0.2971  0.8347 -0.2372
17619SOL    HW154073   6.471   7.699   4.505 -0.5567  0.7599  0.7538
17619SOL    HW254074   6.540   7.585   4.433  0.6452  1.6161  0.5277
17620SOL     OW54075   7.065   5.328   3.797 -0.0560 -0.7468  0.0930
17620SOL    HW154076   7.060   5.308   3.704 -1.1688 -2.6869  0.5330
17620SOL    HW254077   7.119   5.408   3.801 -0.2729 -0.4198 -2.2043
17621SOL     OW54078   6.868   5.983   4.371 -0.3013  0.1376 -0.3202
17621SOL    HW154079   6.921   6.044   4.318  1.4340  0.1351  1.2884
17621SOL    HW254080   6.884   6.010   4.462 -3.7982  0.6601  0.2920
17622SOL     OW54081   7.376   6.206   4.446  0.4011 -0.3684  0.3177
17622SOL    HW154082   7.347   6.253   4.525  0.3047 -0.3901  0.2958
17622SOL    HW254083   7.369   6.272   4.376  0.7105 -0.2815  0.3695
17623SOL     OW54084   5.698   6.509   3.650 -0.0625  0.0212 -0.4199
17623SOL    HW154085   5.793   6.515   3.656  0.2215 -2.4153 -1.2538
17623SOL    HW254086   5.669   6.501   3.741  0.6469 -0.4012 -0.2240
17624SOL     OW54087   6.177   7.247   3.369  0.3705  0.2154 -0.4359
17624SOL    HW154088   6.202   7.282   3.454 -0.1131  0.5644 -0.4304
17624SOL    HW254089   6.081   7.246   3.371  0.3104  1.4271 -1.4462
17625SOL     OW54090   5.536   6.019   5.782 -0.2579  0.1592 -0.7264
17625SOL    HW154091   5.512   5.935   5.742 -0.2065 -0.5297  0.6198
17625SOL    HW254092   5.581   5.995   5.863 -1.6987  1.4734  0.5333
17626SOL     OW54093   6.153   5.553   6.561  0.5361  0.2964  0.2149
17626SOL    HW154094   6.117   5.497   6.492  0.6455  1.2354 -0.6364
17626SOL    HW254095   6.113   5.639   6.545 -0.3267  0.2636  2.0458
17627SOL     OW54096   5.575   5.821   6.540  0.2040  0.1763  0.1228
17627SOL    HW154097   5.480   5.817   6.530  0.2594  0.2969 -0.4968
17627SOL    HW254098   5.589   5.883   6.612 -0.1632  1.1098 -0.5811
17628SOL     OW54099   6.304   6.631   6.971  0.0427  0.8915  0.2896
17628SOL    HW154100   6.242   6.584   7.027  0.8772  0.0009  0.5049
17628SOL    HW254101   6.249   6.676   6.907 -0.8034 -0.7699 -0.2233
17629SOL     OW54102   7.168   6.831   6.283  0.1995  0.3104 -0.1564
17629SOL    HW154103   7.132   6.915   6.314  1.6782  0.4559  1.3072
17629SOL    HW254104   7.192   6.848   6.192  1.9312  2.0347  0.5458
17630SOL     OW54105   6.312   6.022   6.370 -0.1102  0.1008  0.1022
17630SOL    HW154106   6.381   6.080   6.403 -0.0447 -0.3843  0.8451
17630SOL    HW254107   6.339   5.935   6.398 -1.0920 -0.0827  0.5126
17631SOL     OW54108   7.181   6.043   5.924  0.1953  0.1863  0.3214
17631SOL    HW154109   7.219   5.961   5.893 -1.4875  0.5003 -2.9973
17631SOL    HW254110   7.091   6.021   5.947 -0.1265  1.0128 -0.1214
17632SOL     OW54111   6.524   6.865   6.714  0.8506  0.4233 -0.4154
17632SOL    HW154112   6.566   6.812   6.782 -1.0947 -1.0072 -0.2301
17632SOL    HW254113   6.557   6.830   6.632  0.4052 -0.4076 -0.2615
17633SOL     OW54114   6.591   6.490   7.523 -0.0512  0.2477 -0.5186
17633SOL    HW154115   6.681   6.496   7.556 -0.5187  0.8349  0.7189
17633SOL    HW254116   6.539   6.535   7.589 -1.1346  0.8904 -1.7630
17634SOL     OW54117   5.875   6.702   6.168 -0.8739 -0.1183 -0.5987
17634SOL    HW154118   5.902   6.612   6.181 -0.1990  0.1203 -0.2859
17634SOL    HW254119   5.786   6.696   6.131  0.0029 -0.9496 -2.7357
17635SOL     OW54120   6.442   7.074   6.872  0.5434  0.5358 -0.4263
17635SOL    HW154121   6.355   7.042   6.895  0.9679 -1.0047 -0.8309
17635SOL    HW254122   6.476   7.008   6.812  1.5973  1.6437 -1.0935
17636SOL     OW54123   6.028   6.713   6.491 -0.0953  0.4093 -0.0259
17636SOL    HW154124   6.029   6.735   6.398 -1.3982  0.9055  0.0647
17636SOL    HW254125   5.936   6.706   6.514  0.1828  0.9570  1.3865
17637SOL     OW54126   6.800   6.901   6.828 -0.3435 -0.5082 -0.0093
17637SOL    HW154127   6.849   6.926   6.906  2.8770 -2.8064 -1.1081
17637SOL    HW254128   6.737   6.836   6.859  0.6924 -1.1784  0.7496
17638SOL     OW54129   5.766   5.910   6.786 -0.6034 -0.0352  0.8179
17638SOL    HW154130   5.672   5.916   6.799 -0.5929 -0.4636  1.1242
17638SOL    HW254131   5.779   5.925   6.692 -1.2136 -2.3758  0.2876
17639SOL     OW54132   7.120   6.288   6.411 -0.1674  0.9741  0.2641
17639SOL    HW154133   7.094   6.233   6.337  0.8488 -0.5545  0.9703
17639SOL    HW254134   7.166   6.362   6.371 -0.0394  0.4150 -0.6514
17640SOL     OW54135   5.526   7.179   6.283  0.1124 -0.0876  0.2205
17640SOL    HW154136   5.547   7.153   6.372 -2.3174  0.1608  0.9560
17640SOL    HW254137   5.502   7.097   6.239  0.8512 -0.1511 -0.0671
17641SOL     OW54138   6.759   6.761   7.144 -0.2062  0.5766 -0.1538
17641SOL    HW154139   6.853   6.771   7.133 -0.4871  1.2571 -2.4285
17641SOL    HW254140   6.735   6.832   7.204  0.8142 -0.1289  1.1252
17642SOL     OW54141   5.709   6.769   5.556 -0.0305  0.1047  0.9369
17642SOL    HW154142   5.615   6.779   5.542  0.1839 -0.3255 -1.2189
17642SOL    HW254143   5.718   6.684   5.599 -0.5801 -0.3567  0.1618
17643SOL     OW54144   6.026   6.747   6.778  0.4804 -0.3879 -0.4603
17643SOL    HW154145   6.004   6.783   6.692 -4.4610  0.7413  0.9716
17643SOL    HW254146   6.021   6.652   6.766 -2.5934 -0.2405 -1.0699
17644SOL     OW54147   5.643   6.983   7.295  0.4320  0.2088 -0.7005
17644SOL    HW154148   5.733   6.997   7.324  0.9404 -2.4749 -0.6899
17644SOL    HW254149   5.643   7.011   7.203  1.5613 -0.5953 -0.9729
17645SOL     OW54150   6.331   6.756   6.058 -0.2845  0.5898  0.2197
17645SOL    HW154151   6.283   6.691   6.008  1.1406 -1.6197  1.5545
17645SOL    HW254152   6.376   6.809   5.992  2.4985 -2.9615 -1.0572
17646SOL     OW54153   7.012   5.793   6.742  0.5785  0.3945  0.8216
17646SOL    HW154154   7.009   5.809   6.836 -1.2942 -0.3830  0.9371
17646SOL    HW254155   6.989   5.701   6.732  2.2877  0.0426 -0.3356
17647SOL     OW54156   5.221   6.331   6.232  0.0073 -0.0362 -0.4748
17647SOL    HW154157   5.308   6.371   6.231  0.3883 -0.8599 -0.4907
17647SOL    HW254158   5.235   6.242   6.199 -0.7987 -0.2554 -0.2304
17648SOL     OW54159   7.527   6.884   5.969  0.2236 -0.0800  0.0486
17648SOL    HW154160   7.546   6.853   5.881  2.1809  0.7761  0.1179
17648SOL    HW254161   7.568   6.819   6.027  1.3423  0.7669  0.2453
17649SOL     OW54162   5.394   7.094   5.576 -0.0353 -0.2513 -0.2955
17649SOL    HW154163   5.329   7.040   5.531 -1.6289  1.0808  0.3202
17649SOL    HW254164   5.400   7.056   5.664 -2.2372  1.3320  0.6159
17650SOL     OW54165   7.009   6.630   6.184 -0.3521 -0.4286 -0.1733
17650SOL    HW154166   7.057   6.552   6.159  0.3096  0.3367 -1.4083
17650SOL    HW254167   7.072   6.684   6.231 -0.5189 -0.2198 -0.1840
17651SOL     OW54168   7.181   6.278   6.071 -0.5129 -0.2697  0.0668
17651SOL    HW154169   7.186   6.196   6.021 -1.3766  0.9943 -2.2581
17651SOL    HW254170   7.135   6.338   6.013  1.3953  2.3411  1.0924
17652SOL     OW54171   5.607   5.885   7.197 -0.3903  0.8403  0.0290
17652SOL    HW154172   5.670   5.927   7.255  0.3847  1.1954 -1.0413
17652SOL    HW254173   5.534   5.861   7.254  1.3960 -1.1458  1.6872
17653SOL     OW54174   6.088   7.130   6.106  0.0957 -0.0466  0.1915
17653SOL    HW154175   6.002   7.158   6.076  0.6674  0.8249 -0.7057
17653SOL    HW254176   6.075   7.040   6.137 -0.6820 -0.7689 -2.0597
17654SOL     OW54177   6.558   6.711   6.487 -0.2355  0.6302  0.7378
17654SOL    HW154178   6.632   6.658   6.456  0.2343  1.8710 -0.3294
17654SOL    HW254179   6.484   6.650   6.489  0.5861 -0.3848  0.8327
17655SOL     OW54180   6.170   5.339   5.963 -0.3762  0.7320  0.7096
17655SOL    HW154181   6.098   5.334   5.901  0.1717 -0.6694  0.1304
17655SOL    HW254182   6.227   5.408   5.928  0.0187 -0.1554 -0.4951
17656SOL     OW54183   5.666   6.127   6.379  0.1772 -0.6429  0.1451
17656SOL    HW154184   5.618   6.114   6.297  1.5118 -0.9214 -0.6029
17656SOL    HW254185   5.599   6.160   6.440 -0.6576  0.3546 -1.2625
17657SOL     OW54186   6.792   6.815   5.546 -0.2025  0.0620  0.1409
17657SOL    HW154187   6.739   6.797   5.623  0.9814 -1.2668  0.6821
17657SOL    HW254188   6.879   6.781   5.568  0.0031 -0.9412 -2.0082
17658SOL     OW54189   6.625   7.655   7.016  0.2106 -0.6283 -0.3634
17658SOL    HW154190   6.540   7.611   7.003 -1.0984  1.7538 -0.3327
17658SOL    HW254191   6.665   7.657   6.929 -0.8687  0.3112 -0.8626
17659SOL     OW54192   5.503   6.007   7.652  0.2453  0.8236  0.0935
17659SOL    HW154193   5.448   5.937   7.688 -0.6226  1.6841  0.4676
17659SOL    HW254194   5.445   6.055   7.593  0.9372  1.0261 -0.4298
17660SOL     OW54195   6.981   7.079   6.168  0.0132 -0.1859  0.4918
17660SOL    HW154196   7.049   7.130   6.124 -0.5113 -0.2038 -0.3724
17660SOL    HW254197   6.899   7.111   6.129 -0.3428 -1.5270  0.0808
17661SOL     OW54198   6.794   7.353   5.857  0.1856 -0.2713  0.4139
17661SOL    HW154199   6.771   7.261   5.843 -1.8979 -0.0814  2.0542
17661SOL    HW254200   6.834   7.354   5.944  0.8118  0.2815  0.1194
17662SOL     OW54201   5.985   6.089   5.948 -0.5060  0.0513  0.0987
17662SOL    HW154202   5.903   6.104   5.900 -0.3761  0.1553 -0.0918
17662SOL    HW254203   5.957   6.055   6.033 -0.7868  0.8984  0.3568
17663SOL     OW54204   6.420   5.762   6.421 -0.2804  0.1318  0.1541
17663SOL    HW154205   6.403   5.681   6.470 -1.0566  0.8251  1.0591
17663SOL    HW254206   6.506   5.748   6.381 -0.5347 -1.2572  0.0464
17664SOL     OW54207   7.227   7.212   6.042  0.5001  0.2485 -0.1826
17664SOL    HW154208   7.177   7.287   6.074  1.8430  1.5759 -1.0676
17664SOL    HW254209   7.211   7.212   5.947 -0.7054 -1.5510 -0.0319
17665SOL     OW54210   6.268   6.144   6.946 -0.0651 -0.1852  0.1773
17665SOL    HW154211   6.279   6.069   7.004 -1.6236 -0.1851  0.5273
17665SOL    HW254212   6.300   6.115   6.861  2.6325 -0.0628  1.0654
17666SOL     OW54213   7.059   6.280   6.953 -0.0084  0.3438  0.4355
17666SOL    HW154214   7.075   6.197   6.908  2.0670  0.3703  0.9853
17666SOL    HW254215   7.088   6.264   7.043 -0.7249  1.3217  0.8583
17667SOL     OW54216   6.719   6.344   7.081  0.2784 -0.2516 -0.5093
17667SOL    HW154217   6.708   6.381   6.994 -0.4049  1.2084  0.1533
17667SOL    HW254218   6.779   6.405   7.125  1.1893 -1.3621 -0.1751
17668SOL     OW54219   6.607   6.021   6.717  0.3256  0.6286  0.6472
17668SOL    HW154220   6.650   6.001   6.801  1.0325 -0.0811  0.1341
17668SOL    HW254221   6.661   5.977   6.652 -1.4150 -0.6503 -0.0014
17669SOL     OW54222   6.664   6.361   5.907 -0.3329  0.1375 -0.5119
17669SOL    HW154223   6.671   6.299   5.979 -1.1920 -1.0612 -1.4088
17669SOL    HW254224   6.635   6.443   5.948  1.2662  0.1244  0.7562
17670SOL     OW54225   5.680   6.469   6.394  0.3558  0.2277  0.2555
17670SOL    HW154226   5.715   6.554   6.419 -2.8917  1.6814  0.3924
17670SOL    HW254227   5.638   6.436   6.473  1.1809 -1.3481  0.0780
17671SOL     OW54228   5.827   7.513   7.259  0.2737 -0.2248  0.1483
17671SOL    HW154229   5.759   7.569   7.224  0.6571  0.8170  1.0111
17671SOL    HW254230   5.905   7.535   7.208 -0.2820 -2.4433 -1.8310
17672SOL     OW54231   6.182   5.696   6.057 -0.6440  0.1819  0.4233
17672SOL    HW154232   6.207   5.786   6.035 -0.2066 -0.1614 -0.5355
17672SOL    HW254233   6.127   5.668   5.984 -1.1758 -0.1746  0.9518
17673SOL     OW54234   7.352   6.047   6.621 -0.5133 -0.5126 -0.1515
17673SOL    HW154235   7.372   6.134   6.587 -0.1039 -0.2275  0.7968
17673SOL    HW254236   7.286   6.063   6.689  0.1527 -0.8509  0.5831
17674SOL     OW54237   7.239   6.895   6.030  0.0070  0.1851  0.5163
17674SOL    HW154238   7.307   6.917   5.966 -0.7593  1.3401  0.0507
17674SOL    HW254239   7.157   6.911   5.983 -0.6374 -2.1419  0.7305
17675SOL     OW54240   6.238   5.329   6.238  0.0018 -0.2746 -0.5353
17675SOL    HW154241   6.220   5.327   6.144  1.9766  4.3801 -1.2877
17675SOL    HW254242   6.333   5.318   6.245  0.2961  2.1621  0.4988
17676SOL     OW54243   6.488   7.146   5.717  0.0808  0.6011 -0.7334
17676SOL    HW154244   6.454   7.157   5.628  0.8982 -0.4769 -1.2109
17676SOL    HW254245   6.528   7.059   5.716  2.7593  1.7482 -0.1903
17677SOL     OW54246   5.980   7.650   6.021 -0.1770  0.6428  0.1763
17677SOL    HW154247   6.043   7.707   5.977 -0.3315 -0.5217 -1.6473
17677SOL    HW254248   5.959   7.583   5.957  1.5672 -2.7719  2.8067
17678SOL     OW54249   7.622   6.591   6.127  0.6737  0.1432  0.3214
17678SOL    HW154250   7.536   6.609   6.089  0.8545  0.2827 -0.0274
17678SOL    HW254251   7.662   6.528   6.067  0.5729 -0.4073  0.8187
17679SOL     OW54252   6.364   7.313   6.744 -0.9419 -0.3623  0.1177
17679SOL    HW154253   6.405   7.239   6.788 -0.5353  0.3571  0.9762
17679SOL    HW254254   6.356   7.380   6.811 -0.0805  0.8623 -0.9511
17680SOL     OW54255   5.901   6.684   5.817 -0.0163  0.2506 -0.1430
17680SOL    HW154256   5.932   6.649   5.734 -0.2206  2.3094 -1.1610
17680SOL    HW254257   5.977   6.729   5.854 -0.1600  0.0724  0.3804
17681SOL     OW54258   6.325   6.132   6.103  0.3175  0.3586 -0.3707
17681SOL    HW154259   6.314   6.075   6.180 -0.2870  0.6115 -0.2629
17681SOL    HW254260   6.401   6.186   6.124 -0.7663  1.5033  0.7454
17682SOL     OW54261   6.080   6.305   7.102  0.0556 -0.9608  0.1701
17682SOL    HW154262   5.993   6.285   7.067 -0.2030 -0.7546  0.7004
17682SOL    HW254263   6.140   6.258   7.043 -0.4337 -1.4910  0.0857
17683SOL     OW54264   7.048   7.570   5.801  0.0590 -0.1055 -0.6922
17683SOL    HW154265   6.987   7.498   5.814  2.0092 -1.6936  0.3796
17683SOL    HW254266   7.030   7.631   5.873  0.8333 -1.4377  0.6960
17684SOL     OW54267   5.771   6.069   7.311 -0.6829  0.2815 -0.7922
17684SOL    HW154268   5.774   6.110   7.398  1.7271 -0.0238 -0.6475
17684SOL    HW254269   5.813   6.133   7.253 -1.7463  0.2352 -1.6417
17685SOL     OW54270   7.260   6.500   5.894 -0.5531 -0.7496  0.4378
17685SOL    HW154271   7.177   6.514   5.848 -0.3638  0.2522  0.3715
17685SOL    HW254272   7.296   6.421   5.856 -1.7016 -1.4687  0.8004
17686SOL     OW54273   5.641   7.188   5.863 -0.3754 -0.0206  0.2122
17686SOL    HW154274   5.606   7.265   5.818 -0.7632  0.3435  1.1230
17686SOL    HW254275   5.665   7.128   5.792 -1.9400  0.1144 -0.4676
17687SOL     OW54276   6.762   5.910   6.213  0.2300 -0.6156 -0.3702
17687SOL    HW154277   6.749   5.937   6.304  0.8064 -1.0765 -0.1450
17687SOL    HW254278   6.764   5.814   6.217  0.0239 -0.6400 -0.8992
17688SOL     OW54279   5.597   7.101   7.050 -0.2175  0.0161 -0.2764
17688SOL    HW154280   5.629   7.190   7.067 -2.4837  0.5673  1.7559
17688SOL    HW254281   5.517   7.114   6.999 -0.8056 -0.7848  0.4023
17689SOL     OW54282   6.112   7.326   6.316 -0.1091 -0.2680 -0.0672
17689SOL    HW154283   6.133   7.248   6.264  0.8953  0.4060 -0.7218
17689SOL    HW254284   6.152   7.309   6.401 -2.4930 -1.7527  0.8545
17690SOL     OW54285   5.752   6.392   6.081  0.6480  0.1445 -0.3667
17690SOL    HW154286   5.820   6.398   6.148  1.4417 -1.4616 -0.9671
17690SOL    HW254287   5.695   6.320   6.110  1.1048 -0.6997 -1.4438
17691SOL     OW54288   7.015   5.873   7.017 -0.1685 -0.0622 -0.0395
17691SOL    HW154289   7.065   5.948   7.048 -0.9746  0.6236 -0.3564
17691SOL    HW254290   7.072   5.798   7.032  0.6078  0.5994  0.3819
17692SOL     OW54291   5.996   5.628   5.473 -0.1266  0.1667 -0.1982
17692SOL    HW154292   5.978   5.553   5.528  2.3280 -0.7609 -0.5088
17692SOL    HW254293   5.913   5.649   5.431 -1.3415 -0.9899  1.5265
17693SOL     OW54294   6.568   6.101   7.334 -0.4664 -0.1720 -0.1169
17693SOL    HW154295   6.656   6.117   7.299 -0.6709 -1.4199 -1.2814
17693SOL    HW254296   6.544   6.015   7.299 -1.1504 -1.0221  2.2235
17694SOL     OW54297   6.167   7.171   6.527 -0.3337 -0.1294 -0.2389
17694SOL    HW154298   6.149   7.083   6.562  2.0482 -0.4359  0.3601
17694SOL    HW254299   6.224   7.211   6.592 -0.7713  1.6062 -0.8871
17695SOL     OW54300   7.458   5.680   6.569  0.4843 -0.2084  0.6204
17695SOL    HW154301   7.525   5.665   6.635  1.7677 -3.3341 -1.1791
17695SOL    HW254302   7.397   5.607   6.579  1.3228 -1.4388 -2.2009
17696SOL     OW54303   6.261   6.906   6.674  0.5079 -0.2814 -0.1459
17696SOL    HW154304   6.355   6.885   6.679  0.3402 -0.8069  1.0247
17696SOL    HW254305   6.218   6.832   6.716 -0.4212  0.1107 -0.3923
17697SOL     OW54306   6.555   6.571   6.103 -0.1481  0.2807  0.0113
17697SOL    HW154307   6.550   6.494   6.159  1.9048 -0.8895 -1.2716
17697SOL    HW254308   6.464   6.590   6.080 -0.6828 -2.4860 -0.5256
17698SOL     OW54309   6.025   5.386   6.376  0.4755 -0.0301  0.3355
17698SOL    HW154310   6.076   5.355   6.301  1.8128  0.5701  0.9406
17698SOL    HW254311   5.944   5.420   6.338  0.1649 -1.7223 -0.5919
17699SOL     OW54312   7.075   6.515   5.659  0.0559  0.1227 -0.2007
17699SOL    HW154313   7.107   6.465   5.585  1.2463 -1.8021  1.4892
17699SOL    HW254314   7.063   6.604   5.626  1.4503 -0.4569 -2.4261
17700SOL     OW54315   5.984   5.706   5.831 -0.5212 -0.0724  0.3143
17700SOL    HW154316   6.002   5.747   5.747 -1.0579  0.0374  0.2516
17700SOL    HW254317   5.963   5.615   5.809  0.5517 -0.3674  0.4427
17701SOL     OW54318   6.427   5.553   6.108  0.5089  0.3266 -0.1900
17701SOL    HW154319   6.344   5.595   6.131  0.7540  1.4468 -1.2621
17701SOL    HW254320   6.410   5.509   6.025  0.4453 -1.1729  0.5929
17702SOL     OW54321   6.591   6.340   6.664  0.1267 -0.1655 -0.2187
17702SOL    HW154322   6.673   6.364   6.707 -0.6968 -1.7491  2.5016
17702SOL    HW254323   6.524   6.358   6.730 -1.7432  0.7736 -2.2315
17703SOL     OW54324   6.825   7.423   6.448  0.1047  0.1439  0.2424
17703SOL    HW154325   6.773   7.375   6.512  0.8125 -0.3400  0.4597
17703SOL    HW254326   6.893   7.362   6.420 -0.0363  0.4329 -0.7852
17704SOL     OW54327   5.818   7.212   6.108 -0.3576 -0.2641  0.4082
17704SOL    HW154328   5.733   7.220   6.064  0.6932  0.2961 -1.6603
17704SOL    HW254329   5.817   7.282   6.173 -1.0011  0.5979 -0.4946
17705SOL     OW54330   6.820   7.067   5.758  0.3692 -0.3280  0.2259
17705SOL    HW154331   6.757   7.014   5.708 -0.4126  0.0668  0.7783
17705SOL    HW254332   6.905   7.047   5.718 -0.2846  0.3748 -1.6224
17706SOL     OW54333   6.801   6.257   5.331 -0.6051 -0.0334 -0.3844
17706SOL    HW154334   6.750   6.241   5.409 -1.8240  1.0466 -0.9294
17706SOL    HW254335   6.741   6.239   5.258  0.3515 -0.5535 -1.0707
17707SOL     OW54336   5.374   6.188   6.846 -0.0772 -0.2505  0.1571
17707SOL    HW154337   5.338   6.273   6.822 -0.0376 -0.0803  0.6816
17707SOL    HW254338   5.445   6.208   6.908  0.8212 -0.5870 -0.7271
17708SOL     OW54339   6.124   6.224   6.369  0.1396 -0.5249 -0.4402
17708SOL    HW154340   6.175   6.286   6.422 -1.0206 -0.0248  0.1323
17708SOL    HW254341   6.174   6.143   6.372  1.3004  0.1623 -0.5631
17709SOL     OW54342   6.278   6.540   5.929  0.1496  0.3915 -0.1316
17709SOL    HW154343   6.328   6.496   5.860 -0.7680  1.9889 -1.9054
17709SOL    HW254344   6.214   6.475   5.957  1.2203 -0.6377 -0.0189
17710SOL     OW54345   5.940   5.753   6.211  0.3214  0.6126 -0.1079
17710SOL    HW154346   6.017   5.720   6.165  1.0615  0.9342  0.8735
17710SOL    HW254347   5.920   5.835   6.167 -2.3663 -1.5515 -3.5015
17711SOL     OW54348   6.808   6.578   6.386  0.0929 -0.8953 -0.4839
17711SOL    HW154349   6.816   6.486   6.361  0.2193 -0.2950 -2.9729
17711SOL    HW254350   6.853   6.626   6.316  1.5355  1.0095  1.6318
17712SOL     OW54351   7.055   6.501   6.606 -0.0351  0.0592  0.4794
17712SOL    HW154352   7.089   6.426   6.558  0.3887 -0.0035  0.8685
17712SOL    HW254353   6.967   6.514   6.571 -1.4103 -2.6248  2.5759
17713SOL     OW54354   7.578   6.199   5.821  0.0691 -0.0760  0.6722
17713SOL    HW154355   7.626   6.254   5.884  0.5115 -0.0711  0.3291
17713SOL    HW254356   7.621   6.114   5.826  2.7786  0.9257 -2.5168
17714SOL     OW54357   6.001   6.739   5.520  0.4488 -0.4720  0.0528
17714SOL    HW154358   5.916   6.754   5.478  0.5672 -1.7599 -0.6941
17714SOL    HW254359   6.015   6.645   5.514  1.5753 -0.3818  0.8861
17715SOL     OW54360   7.292   6.965   5.749  0.0125  0.3678  0.4073
17715SOL    HW154361   7.201   6.935   5.759 -1.0946  3.1601 -0.4833
17715SOL    HW254362   7.321   6.928   5.666  0.3122 -1.8061  1.4029
17716SOL     OW54363   6.930   5.973   5.970  0.0441  0.2156  0.3599
17716SOL    HW154364   6.892   6.057   5.941  0.7683  0.7531  0.9561
17716SOL    HW254365   6.887   5.955   6.053 -1.6044 -1.0428 -0.6899
17717SOL     OW54366   5.797   5.547   6.275 -0.2688  0.6070 -0.1418
17717SOL    HW154367   5.842   5.631   6.266 -0.1366  0.4262 -1.2491
17717SOL    HW254368   5.800   5.508   6.188 -0.6543 -0.3889  0.2727
17718SOL     OW54369   7.259   7.052   6.737  0.3232 -0.1165  0.2376
17718SOL    HW154370   7.346   7.012   6.743  0.5071  0.3140  0.5956
17718SOL    HW254371   7.276   7.146   6.747 -0.0853  0.0633 -0.6582
17719SOL     OW54372   6.386   7.281   7.080 -0.5113 -0.1051 -0.6017
17719SOL    HW154373   6.401   7.227   7.002 -2.1645 -0.4075 -0.7403
17719SOL    HW254374   6.331   7.353   7.049 -1.2421 -0.2622  0.2927
17720SOL     OW54375   7.130   7.035   6.984 -0.3856 -0.2372 -0.3495
17720SOL    HW154376   7.153   7.041   6.891 -0.0111 -2.4313 -0.4600
17720SOL    HW254377   7.211   7.010   7.028 -0.6260  0.4851  0.5359
17721SOL     OW54378   6.266   7.024   5.927  0.1275  0.3886  0.1479
17721SOL    HW154379   6.221   6.950   5.888  0.5487 -0.5551  1.3883
17721SOL    HW254380   6.205   7.057   5.993  0.3098  0.5888  0.2175
17722SOL     OW54381   7.305   6.703   6.508  0.3450 -0.2610 -0.0114
17722SOL    HW154382   7.241   6.689   6.578 -0.7420  1.4087 -0.6314
17722SOL    HW254383   7.263   6.763   6.447  1.5544 -1.0799 -1.7504
17723SOL     OW54384   6.239   5.134   6.603 -0.2619 -0.1270  0.7558
17723SOL    HW154385   6.304   5.063   6.601 -0.2115 -0.0705 -0.0852
17723SOL    HW254386   6.290   5.213   6.590 -0.3424  0.0485  1.5011
17724SOL     OW54387   6.493   7.094   6.440  0.1691  0.0948 -0.3883
17724SOL    HW154388   6.404   7.120   6.419  0.1373 -0.4122 -0.8823
17724SOL    HW254389   6.509   7.015   6.388  1.1169  0.5365 -0.8057
17725SOL     OW54390   6.668   6.782   5.795 -0.3204  0.3449 -1.0275
17725SOL    HW154391   6.725   6.727   5.848 -0.7420 -0.6841 -1.6307
17725SOL    HW254392   6.612   6.827   5.858 -1.1468 -1.2292 -0.6074
17726SOL     OW54393   5.825   6.007   6.546 -0.1024 -0.5878 -0.0442
17726SOL    HW154394   5.875   6.082   6.578 -0.7622 -0.2467  0.2134
17726SOL    HW254395   5.773   6.042   6.474  0.0373 -0.9461 -0.3262
17727SOL     OW54396   6.858   6.163   6.603 -0.3636 -0.4926 -0.1058
17727SOL    HW154397   6.772   6.143   6.641  0.3833 -1.1488  1.3127
17727SOL    HW254398   6.883   6.246   6.642  1.1641 -1.9705  2.3583
17728SOL     OW54399   5.480   6.947   6.800 -0.0242  0.1906 -0.2922
17728SOL    HW154400   5.497   6.991   6.717 -2.9994  0.8475 -0.6760
17728SOL    HW254401   5.567   6.927   6.835  1.3456  0.9533 -2.9696
17729SOL     OW54402   5.656   6.625   5.979  0.4465  0.9151  0.2717
17729SOL    HW154403   5.691   6.539   6.004  1.3561  0.9573 -0.7688
17729SOL    HW254404   5.722   6.661   5.920 -0.8569  1.4740 -0.9102
17730SOL     OW54405   6.120   6.331   6.015 -0.0127  0.5204 -0.4762
17730SOL    HW154406   6.165   6.276   6.079 -0.9593  0.1289 -0.1255
17730SOL    HW254407   6.067   6.270   5.964 -0.7285  1.0541 -0.3826
17731SOL     OW54408   6.996   6.875   5.887  0.1767 -0.3451  0.4750
17731SOL    HW154409   6.948   6.792   5.891 -0.9751  0.2509 -0.1586
17731SOL    HW254410   6.928   6.942   5.902  0.6037  0.5793 -1.3810
17732SOL     OW54411   6.681   7.100   6.651 -0.0654  0.2220 -0.1267
17732SOL    HW154412   6.611   7.059   6.600  0.8026 -0.0105 -1.1690
17732SOL    HW254413   6.727   7.026   6.692 -0.2485  0.3583  0.3347
17733SOL     OW54414   7.248   6.501   6.314 -0.6879 -0.1421 -0.3013
17733SOL    HW154415   7.310   6.522   6.244 -2.0124 -0.1023 -1.5020
17733SOL    HW254416   7.241   6.582   6.365  1.9737 -0.7854  1.3330
17734SOL     OW54417   5.738   6.936   6.834  0.0061  0.2527  0.5580
17734SOL    HW154418   5.787   6.964   6.757 -0.0656 -0.0883  0.3841
17734SOL    HW254419   5.792   6.962   6.908  1.9849 -2.7299  0.3487
17735SOL     OW54420   5.838   6.202   6.934 -0.5217  0.5607 -0.5330
17735SOL    HW154421   5.856   6.108   6.933  1.3204  0.8950 -0.7690
17735SOL    HW254422   5.757   6.210   6.985 -2.0103 -1.3405 -2.4358
17736SOL     OW54423   7.308   6.232   7.156  0.6050  0.0192  0.0330
17736SOL    HW154424   7.235   6.291   7.177 -0.1573 -0.7229 -0.4803
17736SOL    HW254425   7.360   6.280   7.092 -1.0804 -0.5903 -1.8927
17737SOL     OW54426   6.668   5.693   7.041  0.1200  0.3026 -0.2789
17737SOL    HW154427   6.598   5.654   6.989 -0.2522 -1.3140  1.3421
17737SOL    HW254428   6.722   5.619   7.068 -0.4668  0.8274  2.6965
17738SOL     OW54429   5.979   5.937   6.964 -0.0238 -0.2231  0.3716
17738SOL    HW154430   5.902   5.911   6.915 -0.4340 -0.4992  1.1508
17738SOL    HW254431   6.046   5.953   6.897 -0.5927 -0.5104 -0.2741
17739SOL     OW54432   6.272   6.357   6.589  0.1800  0.0886 -0.4228
17739SOL    HW154433   6.309   6.442   6.564 -0.1527  0.0367 -1.1236
17739SOL    HW254434   6.348   6.300   6.599  0.4188  0.5051  0.2260
17740SOL     OW54435   6.522   6.879   6.265  0.3044 -0.0365  0.2004
17740SOL    HW154436   6.522   6.814   6.335  0.7892 -0.0916  0.1546
17740SOL    HW254437   6.543   6.830   6.186 -1.6595 -0.2330 -0.2602
17741SOL     OW54438   6.717   6.204   5.640 -0.2889  0.1265  0.2523
17741SOL    HW154439   6.686   6.116   5.660  0.2745  0.2945  2.0121
17741SOL    HW254440   6.667   6.261   5.698  1.4052  0.6523  1.2580
17742SOL     OW54441   5.777   5.674   7.251  0.3489 -0.0030 -0.3379
17742SOL    HW154442   5.722   5.655   7.175  1.4339  1.3331 -1.4913
17742SOL    HW254443   5.727   5.737   7.302 -0.3197 -0.7964  0.0187
17743SOL     OW54444   5.349   6.515   6.603  0.6167 -0.2768 -0.3616
17743SOL    HW154445   5.416   6.552   6.661 -0.1070 -0.1292  0.3972
17743SOL    HW254446   5.312   6.590   6.557 -1.0230  0.0414  1.3587
17744SOL     OW54447   5.614   6.616   6.705 -0.5998 -0.9962 -0.3304
17744SOL    HW154448   5.676   6.553   6.741 -0.3072 -0.6214 -0.1660
17744SOL    HW254449   5.631   6.697   6.754 -0.7809 -0.7112 -0.7301
17745SOL     OW54450   7.226   6.464   6.805  0.1719 -0.2258 -0.1861
17745SOL    HW154451   7.158   6.483   6.740 -0.5833  0.5200  0.7815
17745SOL    HW254452   7.187   6.400   6.864 -0.3581  1.3883  1.3212
17746SOL     OW54453   5.763   5.394   5.889  0.0811 -0.6305  0.5868
17746SOL    HW154454   5.680   5.353   5.864  0.9434 -2.2258  0.2311
17746SOL    HW254455   5.791   5.344   5.966 -0.2794  1.2575  2.0194
17747SOL     OW54456   7.006   6.112   6.212  0.4213 -0.3523 -0.3716
17747SOL    HW154457   7.044   6.024   6.204  0.2055 -0.9769  3.3801
17747SOL    HW254458   7.054   6.166   6.150  1.5646 -2.8025 -1.7554
17748SOL     OW54459   6.545   6.329   6.217 -0.2289 -0.6074 -0.6500
17748SOL    HW154460   6.638   6.314   6.201  0.8676  2.9125  1.2016
17748SOL    HW254461   6.527   6.284   6.300  0.2633 -0.1945 -0.3058
17749SOL     OW54462   6.338   6.815   7.217 -0.2744  0.3182 -0.0726
17749SOL    HW154463   6.349   6.734   7.168  0.2390 -1.4296  2.7338
17749SOL    HW254464   6.249   6.844   7.195 -0.7565 -1.4157 -0.5761
17750SOL     OW54465   7.067   6.855   6.700  0.1256  0.3505 -0.2016
17750SOL    HW154466   6.978   6.881   6.726  0.8657  0.2658  2.7963
17750SOL    HW254467   7.122   6.926   6.733  1.4061 -0.9193  0.4523
17751SOL     OW54468   6.066   6.228   7.362  0.5185  0.7016  0.2985
17751SOL    HW154469   6.150   6.256   7.400  0.6636  1.2702 -0.4154
17751SOL    HW254470   6.065   6.268   7.274 -0.3359  0.3988  0.1622
17752SOL     OW54471   6.971   6.355   5.874 -0.6940 -0.2276  0.1222
17752SOL    HW154472   6.991   6.393   5.788  0.4241  0.2243  0.5525
17752SOL    HW254473   6.877   6.369   5.886 -0.3896  2.2466  0.1536
17753SOL     OW54474   6.516   6.450   5.483 -0.4175  0.9458  0.4063
17753SOL    HW154475   6.523   6.373   5.426 -0.8726  0.7882  0.5641
17753SOL    HW254476   6.562   6.519   5.434 -0.5077  0.7256  0.0022
17754SOL     OW54477   6.510   7.289   6.154  0.5677  0.1564 -0.6185
17754SOL    HW154478   6.476   7.286   6.065  1.2109 -0.3491 -0.8567
17754SOL    HW254479   6.448   7.345   6.202 -0.1824 -0.1559 -1.2027
17755SOL     OW54480   5.874   6.272   6.513 -0.1419  0.2475  0.2177
17755SOL    HW154481   5.797   6.282   6.457  0.2372  2.3262 -0.0119
17755SOL    HW254482   5.949   6.277   6.453  0.2200  0.6766  0.6896
17756SOL     OW54483   5.984   6.428   6.223 -0.7229  0.3268  0.3056
17756SOL    HW154484   6.038   6.394   6.296 -0.9691 -0.1559  0.2649
17756SOL    HW254485   6.040   6.418   6.146 -1.0201 -0.5541  0.2009
17757SOL     OW54486   6.831   6.413   6.835 -0.5764 -0.1125 -0.0986
17757SOL    HW154487   6.854   6.503   6.859  0.4219 -0.3395 -0.1978
17757SOL    HW254488   6.903   6.360   6.867 -0.1947 -0.6617 -1.7645
17758SOL     OW54489   5.995   5.518   7.192  0.5413  0.1230  0.4341
17758SOL    HW154490   5.910   5.555   7.215 -0.3355 -1.7117  0.2913
17758SOL    HW254491   6.034   5.493   7.276  0.7560  0.5257  0.4605
17759SOL     OW54492   5.487   6.768   6.172 -0.0926 -0.1648 -0.5488
17759SOL    HW154493   5.517   6.724   6.092  1.1216  0.6296 -0.5650
17759SOL    HW254494   5.496   6.861   6.152 -0.8280  0.0568  0.1412
17760SOL     OW54495   5.570   7.298   6.733 -0.2045  0.7598 -0.2416
17760SOL    HW154496   5.563   7.211   6.693 -0.2962  0.2754  0.7872
17760SOL    HW254497   5.640   7.342   6.684 -0.5434  0.3115 -1.1338
17761SOL     OW54498   5.826   7.034   6.570  0.0251 -0.3067 -0.0780
17761SOL    HW154499   5.855   7.126   6.569  1.1874 -0.6504 -1.5301
17761SOL    HW254500   5.825   7.009   6.477 -3.0262 -0.9553  0.0451
17762SOL     OW54501   6.526   6.192   6.445  0.3127  0.2636  0.1718
17762SOL    HW154502   6.562   6.239   6.520 -0.8220 -0.8509  1.4810
17762SOL    HW254503   6.598   6.138   6.413  1.5684  2.5925 -1.2084
17763SOL     OW54504   5.500   5.977   6.754 -0.0883 -0.0400  0.0056
17763SOL    HW154505   5.442   6.050   6.773 -0.2957 -0.1410 -0.2191
17763SOL    HW254506   5.472   5.908   6.814  1.5454  0.7644  1.7486
17764SOL     OW54507   5.117   5.946   7.272  0.0544  0.4666 -0.0277
17764SOL    HW154508   5.077   6.032   7.257  0.7195  1.0018  1.0641
17764SOL    HW254509   5.045   5.884   7.262 -1.1492  1.4124  2.0064
17765SOL     OW54510   6.690   7.136   7.003 -0.0405  0.5924  0.3333
17765SOL    HW154511   6.608   7.120   6.957 -0.7995  1.9182  1.1632
17765SOL    HW254512   6.696   7.065   7.066 -0.4557  0.3877  0.1497
17766SOL     OW54513   6.230   5.956   5.931  0.0401 -0.1359 -0.1034
17766SOL    HW154514   6.260   6.014   6.001  0.8894 -0.7698  0.0658
17766SOL    HW254515   6.143   5.989   5.909  0.3487  0.9636  0.2554
17767SOL     OW54516   7.227   5.987   7.204  0.1579 -0.2553  0.5733
17767SOL    HW154517   7.259   6.074   7.182 -0.8147  0.6891  2.6517
17767SOL    HW254518   7.307   5.934   7.211  0.7015  0.1825 -1.5861
17768SOL     OW54519   5.566   6.709   7.332  0.3471 -0.3508 -0.0120
17768SOL    HW154520   5.561   6.793   7.286 -1.1701 -1.9965 -3.2022
17768SOL    HW254521   5.660   6.692   7.341  0.7315  0.3767 -2.0565
17769SOL     OW54522   6.343   6.076   6.698 -0.3510 -0.1197 -0.6832
17769SOL    HW154523   6.315   5.991   6.665  0.9119 -2.2195  3.1844
17769SOL    HW254524   6.438   6.071   6.701 -0.2184  1.6775 -0.8695
17770SOL     OW54525   5.924   7.314   6.602 -0.1118 -0.1277 -0.2963
17770SOL    HW154526   5.955   7.329   6.691  0.8179 -0.0964 -0.6213
17770SOL    HW254527   6.001   7.285   6.553 -0.3719  0.8598 -1.3455
17771SOL     OW54528   5.829   6.186   5.714 -0.8704 -0.0485  0.1595
17771SOL    HW154529   5.879   6.268   5.710 -1.2585  0.1635 -0.6662
17771SOL    HW254530   5.738   6.214   5.708 -1.0255 -0.5199  0.3243
17772SOL     OW54531   5.926   6.761   7.032 -0.0968 -0.4330 -0.2261
17772SOL    HW154532   5.974   6.684   7.063  0.8167  1.1684  2.7230
17772SOL    HW254533   5.940   6.761   6.937  1.2887 -2.9420 -0.1169
17773SOL     OW54534   6.673   7.077   6.123 -0.0166  0.4884  0.0963
17773SOL    HW154535   6.636   7.020   6.190  0.3666  1.4619  1.1599
17773SOL    HW254536   6.645   7.165   6.148  0.7609  0.9450 -0.5885
17774SOL     OW54537   6.463   6.454   5.742 -0.5290 -0.2594 -0.2392
17774SOL    HW154538   6.479   6.446   5.648 -1.1809 -0.7685 -0.3179
17774SOL    HW254539   6.549   6.447   5.782 -0.0178  1.6988 -0.8840
17775SOL     OW54540   6.982   7.673   6.717  0.1036  0.4279 -0.2317
17775SOL    HW154541   6.942   7.749   6.673  1.9575  1.6025 -0.0153
17775SOL    HW254542   7.000   7.611   6.647  0.6834  1.1965 -0.7832
17776SOL     OW54543   6.515   7.361   6.505  0.7879 -0.3444 -0.6627
17776SOL    HW154544   6.530   7.273   6.472 -0.2096 -0.7228 -0.1616
17776SOL    HW254545   6.502   7.349   6.600 -1.7484 -0.0196 -0.8957
17777SOL     OW54546   5.540   6.316   6.570 -0.2429  0.1909  0.0105
17777SOL    HW154547   5.457   6.354   6.601  0.5521  0.2403  2.2222
17777SOL    HW254548   5.554   6.239   6.626  0.9890 -0.0697 -0.6227
17778SOL     OW54549   6.011   7.277   7.029  0.0432  0.6264 -0.7646
17778SOL    HW154550   6.050   7.343   7.086 -1.8815  0.7711  0.4939
17778SOL    HW254551   6.013   7.197   7.081 -0.1553  0.3545 -1.1719
17779SOL     OW54552   7.147   5.623   6.069  0.7921 -0.3375 -0.1573
17779SOL    HW154553   7.155   5.540   6.116 -1.9620 -0.0422  1.0543
17779SOL    HW254554   7.124   5.687   6.137 -0.6489  0.6604 -1.5059
17780SOL     OW54555   6.380   7.310   5.909 -0.2148 -0.0305  0.1861
17780SOL    HW154556   6.409   7.291   5.820  1.2052  2.0454  0.1228
17780SOL    HW254557   6.317   7.241   5.930 -0.3065 -0.7748 -2.2791
17781SOL     OW54558   5.402   7.453   7.421  0.0275 -0.0940  0.0750
17781SOL    HW154559   5.328   7.465   7.481  0.5240 -0.2076  0.7362
17781SOL    HW254560   5.362   7.437   7.336 -0.7012  0.2301  0.3438
17782SOL     OW54561   6.793   6.626   5.992  0.2859  0.2404  0.3024
17782SOL    HW154562   6.853   6.604   6.064 -0.2137  0.9921  0.9672
17782SOL    HW254563   6.706   6.612   6.029  0.0259 -0.6138 -0.5805
17783SOL     OW54564   6.620   6.725   6.922  0.1293 -0.0004  0.2559
17783SOL    HW154565   6.546   6.667   6.940 -0.7033  0.5338 -1.3005
17783SOL    HW254566   6.658   6.742   7.009 -2.0749  0.3875  1.2218
17784SOL     OW54567   6.252   7.139   5.456 -0.0234  0.0329 -0.4636
17784SOL    HW154568   6.215   7.064   5.410 -1.7957  1.1792 -1.0086
17784SOL    HW254569   6.187   7.162   5.522  0.4963  1.0789 -0.2972
17785SOL     OW54570   6.814   7.311   6.782 -0.2323  0.5279  0.5995
17785SOL    HW154571   6.771   7.292   6.865 -2.4458  1.0008 -0.3612
17785SOL    HW254572   6.795   7.234   6.727  0.3827  0.6319  0.2365
17786SOL     OW54573   7.953   5.696   6.245  0.0848 -0.1844  0.2052
17786SOL    HW154574   7.879   5.662   6.295  0.6192  0.9434  1.8716
17786SOL    HW254575   7.988   5.621   6.198 -0.2365 -1.4222  1.8613
17787SOL     OW54576   5.518   6.134   6.142  0.7486 -0.5616 -0.1537
17787SOL    HW154577   5.572   6.127   6.064  0.4336 -0.0168 -0.4226
17787SOL    HW254578   5.431   6.106   6.113  0.6669 -0.5181  0.0468
17788SOL     OW54579   7.181   7.250   5.768  0.0464 -0.0985  0.4260
17788SOL    HW154580   7.184   7.333   5.720 -1.1909 -0.0009  0.4796
17788SOL    HW254581   7.247   7.196   5.725  1.0170  0.9685  0.5218
17789SOL     OW54582   6.451   6.368   6.912  0.1097  0.1070  0.6412
17789SOL    HW154583   6.418   6.456   6.933 -1.2885  0.6950 -3.1711
17789SOL    HW254584   6.381   6.309   6.938 -0.5247  0.5325 -0.0665
17790SOL     OW54585   6.354   6.673   5.597  0.3221 -0.0990 -0.0103
17790SOL    HW154586   6.405   6.620   5.658 -0.6829 -0.2079  0.7661
17790SOL    HW254587   6.298   6.611   5.551 -1.3313  0.2775  1.3604
17791SOL     OW54588   7.473   7.412   5.394 -0.0955  0.0173 -0.3992
17791SOL    HW154589   7.474   7.476   5.466  0.0570  0.1572 -0.5264
17791SOL    HW254590   7.427   7.457   5.323 -0.5884 -0.2602 -0.2621
17792SOL     OW54591   5.927   7.036   7.080 -0.4081  0.0709 -0.9439
17792SOL    HW154592   5.930   7.050   7.175  1.6435 -0.8785 -0.8215
17792SOL    HW254593   5.932   6.941   7.070  0.5208  0.2168 -2.0160
17793SOL     OW54594   6.820   6.885   6.502 -0.7537  0.0957 -0.6141
17793SOL    HW154595   6.756   6.821   6.473 -0.3966 -0.1983 -0.7572
17793SOL    HW254596   6.884   6.834   6.551 -0.2603  0.2826 -1.0589
17794SOL     OW54597   6.520   6.948   5.931  0.3592 -0.4470 -0.1457
17794SOL    HW154598   6.431   6.984   5.932 -0.5102 -2.4845  1.1244
17794SOL    HW254599   6.567   7.003   5.994 -0.1057  0.3469 -0.4669
17795SOL     OW54600   6.418   5.600   6.657  0.1092  0.5798 -0.0255
17795SOL    HW154601   6.412   5.592   6.752  0.3926  0.7762  0.0089
17795SOL    HW254602   6.327   5.602   6.628  0.0209  0.6290  0.2505
17796SOL     OW54603   5.893   7.450   5.842  0.2244  0.3446  0.2109
17796SOL    HW154604   5.902   7.356   5.857 -0.4447  0.1531 -0.4892
17796SOL    HW254605   5.804   7.460   5.808  0.2538  1.2464  0.3693
17797SOL     OW54606   7.100   5.627   7.083  0.2095  0.1120 -0.0579
17797SOL    HW154607   7.097   5.552   7.022 -0.5772 -0.6342  0.8525
17797SOL    HW254608   7.192   5.652   7.086  1.0034 -2.5318  1.5896
17798SOL     OW54609   5.416   6.762   5.492  0.3695  0.2318 -0.3939
17798SOL    HW154610   5.339   6.809   5.459  0.5105  0.8416  0.1384
17798SOL    HW254611   5.389   6.729   5.577  0.7986  0.7344 -0.0556
17799SOL     OW54612   5.771   6.406   6.759 -0.1533 -0.4315 -0.3253
17799SOL    HW154613   5.804   6.359   6.682 -0.7810 -0.7388 -0.4079
17799SOL    HW254614   5.794   6.350   6.833 -2.1256 -1.5890 -0.5293
17800SOL     OW54615   6.164   5.694   7.045  0.6138 -0.1264  0.2221
17800SOL    HW154616   6.109   5.621   7.072  1.1997 -0.1211  1.5069
17800SOL    HW254617   6.103   5.767   7.034  0.2317 -0.3847  0.5759
17801SOL     OW54618   5.467   5.957   5.083  0.6573 -0.2737  0.7225
17801SOL    HW154619   5.457   5.862   5.089  1.3806 -0.4874 -0.9552
17801SOL    HW254620   5.428   5.990   5.164 -2.4208 -1.7913  0.0192
17802SOL     OW54621   7.192   6.032   6.840  0.9596 -0.0144  0.0479
17802SOL    HW154622   7.260   6.019   6.906  2.4266  0.8973 -1.2081
17802SOL    HW254623   7.153   5.946   6.827  2.3508 -0.7122  0.3361
17803SOL     OW54624   5.270   6.106   6.080 -0.1101 -0.1009 -0.0334
17803SOL    HW154625   5.206   6.037   6.101 -2.8550  2.6174  1.3509
17803SOL    HW254626   5.245   6.136   5.993 -2.0502  2.0639  1.1307
17804SOL     OW54627   6.812   7.236   5.533 -0.1569  0.6923  0.0158
17804SOL    HW154628   6.786   7.187   5.611  1.3559 -0.0306  0.1068
17804SOL    HW254629   6.747   7.305   5.526 -0.5953  0.5057  1.6648
17805SOL     OW54630   6.139   6.460   6.806  0.3165  0.5930  0.0849
17805SOL    HW154631   6.173   6.431   6.721  1.2813  0.2974  0.5644
17805SOL    HW254632   6.115   6.378   6.850  1.0479  0.6480  0.6023
17806SOL     OW54633   7.029   7.662   6.422  0.5731  0.4599  0.1596
17806SOL    HW154634   6.957   7.600   6.426 -0.2421  1.3208 -0.8077
17806SOL    HW254635   7.106   7.609   6.402 -0.4156 -0.0675 -2.6461
17807SOL     OW54636   6.799   6.097   7.163 -0.0945 -0.1195  0.2111
17807SOL    HW154637   6.777   6.176   7.113  0.3329 -0.2265 -0.1535
17807SOL    HW254638   6.772   6.024   7.108 -0.7107 -0.2303  0.6538
17808SOL     OW54639   6.957   6.633   6.925  0.4259 -0.5198 -0.3180
17808SOL    HW154640   6.972   6.704   6.987  0.6219 -0.6625 -0.2004
17808SOL    HW254641   7.012   6.655   6.850  0.8466 -0.7870 -0.0899
17809SOL     OW54642   5.919   7.062   7.340 -0.6134 -0.0571 -0.3052
17809SOL    HW154643   5.937   6.999   7.409 -0.2326 -0.6792 -0.9680
17809SOL    HW254644   5.909   7.146   7.386 -0.9055 -0.5545  0.5516
17810SOL     OW54645   7.570   6.714   6.407 -0.4664  0.1117  0.3272
17810SOL    HW154646   7.592   6.663   6.329 -0.4314 -0.2112  0.5433
17810SOL    HW254647   7.477   6.696   6.421 -0.6144  0.6219  0.0342
17811SOL     OW54648   6.690   6.142   6.056 -0.5669  0.5071  0.3625
17811SOL    HW154649   6.713   6.067   6.111 -2.2456  0.5644  1.1994
17811SOL    HW254650   6.631   6.105   5.990  0.4511  0.6776 -0.6691
17812SOL     OW54651   6.293   6.637   6.504 -0.0372  0.2536 -0.3842
17812SOL    HW154652   6.200   6.621   6.523  0.1412 -0.1502  0.1840
17812SOL    HW254653   6.301   6.732   6.500  0.0585  0.4483  2.4633
17813SOL     OW54654   6.942   5.792   7.312 -0.2907  0.2112 -0.0099
17813SOL    HW154655   6.939   5.879   7.273  2.5752  0.0044 -0.9222
17813SOL    HW254656   6.982   5.737   7.245 -1.6233 -1.7511  0.7124
17814SOL     OW54657   7.624   6.691   6.702 -0.3304  0.3534 -0.1879
17814SOL    HW154658   7.604   6.771   6.749  0.4190  0.1248  0.5463
17814SOL    HW254659   7.639   6.719   6.612  0.9066  1.2010  0.2470
17815SOL     OW54660   6.155   6.786   5.807  0.5546 -0.2947  0.0407
17815SOL    HW154661   6.233   6.731   5.808 -1.6243 -3.7053 -1.2271
17815SOL    HW254662   6.137   6.801   5.714 -1.4063 -1.4179  0.1846
17816SOL     OW54663   5.815   7.405   6.308  0.7764 -0.5789  0.7332
17816SOL    HW154664   5.785   7.416   6.398  1.2234 -0.7965  0.9127
17816SOL    HW254665   5.911   7.404   6.315  0.8161 -0.4147  0.2352
17817SOL     OW54666   6.085   6.869   6.163  0.7769 -0.4531 -0.5889
17817SOL    HW154667   6.164   6.823   6.136  0.3645 -0.6389 -1.4898
17817SOL    HW254668   6.015   6.806   6.150  0.5461 -0.5502  0.9107
17818SOL     OW54669   6.623   6.992   5.433 -0.1632  0.3022  0.3864
17818SOL    HW154670   6.552   6.931   5.411  1.3066 -1.2526 -0.2678
17818SOL    HW254671   6.703   6.940   5.425  1.1721  2.3067 -0.0961
17819SOL     OW54672   6.911   7.374   6.118 -0.0258  0.0464 -0.2191
17819SOL    HW154673   6.991   7.426   6.109 -0.9988  1.4499 -1.2652
17819SOL    HW254674   6.871   7.404   6.199 -0.3683  0.6543 -0.6028
17820SOL     OW54675   5.298   6.822   7.941  0.1249  0.0146  0.3058
17820SOL    HW154676   5.243   6.874   7.883  1.0371  0.9882  0.2806
17820SOL    HW254677   5.255   6.829   8.026 -0.3917 -0.1505  0.0590
17821SOL     OW54678   5.759   6.716   6.488 -0.1364 -0.0660 -0.3088
17821SOL    HW154679   5.716   6.790   6.445 -1.5829 -1.0212 -0.5679
17821SOL    HW254680   5.702   6.694   6.562  0.2817 -0.9043 -0.2187
17822SOL     OW54681   6.109   6.577   7.185  0.1566  0.3274 -0.1801
17822SOL    HW154682   6.090   6.487   7.158 -0.0378  0.1107  0.6444
17822SOL    HW254683   6.132   6.569   7.278  0.0897  1.1327 -0.0926
17823SOL     OW54684   7.653   5.747   6.766 -0.5674 -0.7044  0.4627
17823SOL    HW154685   7.595   5.688   6.814  0.6172 -1.8513  0.5622
17823SOL    HW254686   7.724   5.690   6.735  0.0804  0.4982 -0.3445
17824SOL     OW54687   5.942   6.049   6.212  0.2951  0.3048  0.0920
17824SOL    HW154688   5.991   6.107   6.271 -1.1989  1.2390  0.4721
17824SOL    HW254689   5.854   6.045   6.251 -0.7401  0.9540 -2.0451
17825SOL     OW54690   6.925   7.140   6.415  0.0609 -0.3296 -0.9371
17825SOL    HW154691   6.897   7.060   6.461  1.4507 -1.1124 -1.3853
17825SOL    HW254692   6.945   7.110   6.326 -0.9710  0.8522 -1.5963
17826SOL     OW54693   5.933   5.466   6.770  0.3024 -0.3544  0.2100
17826SOL    HW154694   6.021   5.480   6.737 -0.7249  0.8986 -2.2680
17826SOL    HW254695   5.877   5.518   6.712 -2.0448 -0.8648  1.8714
17827SOL     OW54696   6.419   7.615   6.155  0.1170 -0.1942  0.6839
17827SOL    HW154697   6.350   7.678   6.175  0.4727  0.1661  0.7900
17827SOL    HW254698   6.401   7.586   6.066  1.5858  2.2448 -0.5196
17828SOL     OW54699   6.807   6.290   6.291  0.0560  0.3322  0.0517
17828SOL    HW154700   6.870   6.230   6.250 -0.4714 -0.7741  0.8174
17828SOL    HW254701   6.816   6.274   6.385 -1.8263 -0.3740  0.1654
17829SOL     OW54702   6.743   5.861   6.529  0.0280  0.1793  0.9230
17829SOL    HW154703   6.838   5.863   6.542  0.4117 -0.1703 -1.4338
17829SOL    HW254704   6.720   5.768   6.536  0.0967  0.0989  0.1920
17830SOL     OW54705   5.937   7.184   5.847 -0.6685  0.7492  0.4603
17830SOL    HW154706   5.896   7.158   5.930 -1.8796  1.8730  0.2403
17830SOL    HW254707   5.890   7.134   5.780 -0.5128  0.7623  0.3396
17831SOL     OW54708   6.198   7.030   6.985  0.4773 -0.1406  0.1620
17831SOL    HW154709   6.206   7.102   7.047 -1.6826  0.9578 -0.7122
17831SOL    HW254710   6.105   7.010   6.983  1.0017 -3.1207  0.4493
17832SOL     OW54711   6.747   5.628   5.746 -0.2076 -0.1075  0.2418
17832SOL    HW154712   6.818   5.651   5.686 -2.1348  0.1634 -2.0735
17832SOL    HW254713   6.778   5.657   5.832  1.9764  1.0874 -0.8658
17833SOL     OW54714   7.026   5.948   6.508  0.0914  0.2374  0.3245
17833SOL    HW154715   7.023   5.890   6.584  2.8684 -1.8684 -1.0350
17833SOL    HW254716   7.016   6.036   6.545 -1.0134 -0.8406  2.8140
17834SOL     OW54717   7.135   5.838   6.280 -0.0938 -0.1380 -0.5834
17834SOL    HW154718   7.087   5.862   6.359 -0.8099 -1.7137 -0.5005
17834SOL    HW254719   7.227   5.850   6.303 -0.3297  0.4624  0.1084
17835SOL     OW54720   5.783   6.950   6.300  0.6063 -0.3265  0.8880
17835SOL    HW154721   5.834   6.876   6.268  1.7122 -0.4321  2.7642
17835SOL    HW254722   5.817   7.025   6.250 -0.7955 -1.0519 -1.3120
17836SOL     OW54723   6.611   7.444   5.485  0.0582  0.3720 -0.1012
17836SOL    HW154724   6.579   7.521   5.437 -1.3022 -0.4165 -0.5232
17836SOL    HW254725   6.589   7.370   5.428  0.2498 -0.4273  0.8446
17837SOL     OW54726   5.448   6.401   7.576 -0.4027 -0.2537  0.3430
17837SOL    HW154727   5.416   6.319   7.539 -2.1272  0.6431 -0.3158
17837SOL    HW254728   5.428   6.395   7.670 -2.9918  0.3937 -0.0905
17838SOL     OW54729   5.662   6.366   8.235 -0.5419  0.4613 -0.0437
17838SOL    HW154730   5.696   6.365   8.146  0.0228 -1.1490  0.1558
17838SOL    HW254731   5.740   6.379   8.290 -1.0364  2.7924  0.2107
17839SOL     OW54732   5.604   5.505   7.493  0.2645 -0.2296  0.1596
17839SOL    HW154733   5.642   5.484   7.579  0.0760 -2.6667 -0.2766
17839SOL    HW254734   5.651   5.448   7.432  0.8389  1.8875 -1.5182
17840SOL     OW54735   6.378   6.726   8.558 -0.1697  0.5705  0.2837
17840SOL    HW154736   6.411   6.679   8.635 -2.5441 -1.7810  0.0116
17840SOL    HW254737   6.396   6.667   8.485  1.5066  2.5047 -0.9844
17841SOL     OW54738   7.526   7.209   8.247  0.4753 -0.0033  0.0752
17841SOL    HW154739   7.619   7.205   8.267  0.6454 -0.0243 -0.6913
17841SOL    HW254740   7.487   7.256   8.321  1.0299 -0.3589  0.5953
17842SOL     OW54741   6.745   6.501   8.042  0.3326 -0.5072  0.3932
17842SOL    HW154742   6.819   6.452   8.007 -0.3386 -1.8678  0.8083
17842SOL    HW254743   6.675   6.486   7.979  0.2541  0.3461  0.2672
17843SOL     OW54744   7.496   5.917   7.241  0.3765 -0.2434 -0.1239
17843SOL    HW154745   7.529   5.945   7.326 -0.4794 -1.2027  0.5502
17843SOL    HW254746   7.565   5.860   7.206  1.3820  1.2862 -0.7644
17844SOL     OW54747   6.516   7.221   8.189 -0.1032  0.3212 -0.3919
17844SOL    HW154748   6.515   7.255   8.100 -0.0546  1.0551 -0.1190
17844SOL    HW254749   6.565   7.139   8.183 -0.3618  0.2133 -1.0881
17845SOL     OW54750   6.428   6.456   8.113  0.2938  0.2091  0.1203
17845SOL    HW154751   6.466   6.477   8.028  2.0587  3.0024  1.4717
17845SOL    HW254752   6.444   6.362   8.123  1.5457  0.1432 -1.8912
17846SOL     OW54753   5.938   6.965   0.154 -0.0305  0.5855 -0.1784
17846SOL    HW154754   5.988   7.045   0.137  1.2472 -0.2757 -0.6457
17846SOL    HW254755   5.863   6.994   0.205 -0.7100  2.3929 -2.0661
17847SOL     OW54756   6.431   5.675   8.549  0.8625  0.0437  0.3724
17847SOL    HW154757   6.438   5.624   8.468 -1.5488 -0.9832  0.7280
17847SOL    HW254758   6.464   5.616   8.617  0.8684  0.1006  0.4185
17848SOL     OW54759   7.682   6.073   8.031  0.3446 -0.1269  0.3094
17848SOL    HW154760   7.700   6.106   8.119  0.1478 -0.4933  0.4901
17848SOL    HW254761   7.663   5.980   8.044  0.2189 -0.1613 -0.1084
17849SOL     OW54762   5.823   7.078   8.235 -0.2783  0.6421  0.2731
17849SOL    HW154763   5.747   7.041   8.190  0.2793 -2.2779  1.4643
17849SOL    HW254764   5.891   7.084   8.167 -0.1061 -1.6060  0.1683
17850SOL     OW54765   5.908   7.051   7.982 -0.6068  0.0314  0.2302
17850SOL    HW154766   5.826   7.079   7.942 -0.6786 -0.5785 -0.0453
17850SOL    HW254767   5.908   6.956   7.975  0.8744  0.0927 -1.2539
17851SOL     OW54768   5.864   6.771   8.697  0.4588  0.2664  0.0552
17851SOL    HW154769   5.777   6.779   8.737  0.3250 -0.8991  0.0372
17851SOL    HW254770   5.887   6.860   8.672  0.4287  1.0162  2.4662
17852SOL     OW54771   6.055   7.306   0.299  0.3747  0.1418  0.0607
17852SOL    HW154772   5.967   7.300   0.335  0.8617  2.0752  1.7780
17852SOL    HW254773   6.072   7.400   0.291  1.5750 -0.1901 -2.1851
17853SOL     OW54774   5.846   6.728   7.326 -0.2329 -0.2726 -0.2004
17853SOL    HW154775   5.868   6.767   7.411  0.9373  0.3476 -0.7581
17853SOL    HW254776   5.921   6.750   7.270 -1.8353  1.0804 -1.9470
17854SOL     OW54777   6.068   6.406   7.960  0.1851 -0.1638 -0.0368
17854SOL    HW154778   6.049   6.318   7.991 -0.0713  0.2670  1.0582
17854SOL    HW254779   6.090   6.456   8.039  0.7463  0.6508 -0.6843
17855SOL     OW54780   7.254   7.213   7.846  0.1856 -0.0595 -0.2700
17855SOL    HW154781   7.342   7.250   7.837  0.1901 -0.2174 -1.0067
17855SOL    HW254782   7.228   7.232   7.936 -0.1744  2.5769 -0.8539
17856SOL     OW54783   5.726   7.201   7.770  0.1640  0.1293 -0.1111
17856SOL    HW154784   5.758   7.258   7.839  1.5864 -0.4861 -0.2220
17856SOL    HW254785   5.653   7.249   7.730 -0.4334  0.6491  1.5469
17857SOL     OW54786   7.268   6.347   7.733  0.3538 -0.1837 -0.4253
17857SOL    HW154787   7.192   6.390   7.694  0.9736  0.1148 -1.3333
17857SOL    HW254788   7.233   6.266   7.770 -0.8537  1.0665  1.3908
17858SOL     OW54789   7.270   6.837   8.025 -0.5700  0.4438 -0.0063
17858SOL    HW154790   7.233   6.886   7.952 -2.0993 -2.6152 -1.4956
17858SOL    HW254791   7.194   6.814   8.079  0.3060  1.0332  1.5464
17859SOL     OW54792   6.021   6.745   8.176  0.0592 -0.3522  0.3977
17859SOL    HW154793   5.974   6.777   8.253  0.6945  0.8504  0.3139
17859SOL    HW254794   5.959   6.755   8.104  0.2860  0.8763  0.3492
17860SOL     OW54795   6.385   6.033   7.591  0.0937  0.2572  0.2208
17860SOL    HW154796   6.448   5.969   7.556 -1.3316 -0.3331 -1.4182
17860SOL    HW254797   6.299   5.999   7.564 -1.0607  0.5486  3.1452
17861SOL     OW54798   5.639   6.808   0.001 -0.0654  0.0890  0.2121
17861SOL    HW154799   5.624   6.780   0.092 -0.1604 -0.3637  0.0576
17861SOL    HW254800   5.662   6.901   0.009 -1.3661  0.3998  0.5962
17862SOL     OW54801   7.074   6.683   7.814 -0.2585 -0.0023 -0.2219
17862SOL    HW154802   7.162   6.713   7.791 -0.0538 -0.8873 -0.6244
17862SOL    HW254803   7.026   6.682   7.731 -0.3712 -0.4337 -0.1535
17863SOL     OW54804   7.533   6.924   8.159  0.2520  0.0952 -0.4910
17863SOL    HW154805   7.453   6.873   8.168 -0.8632  1.2844 -2.6941
17863SOL    HW254806   7.536   6.980   8.236 -1.3282  0.3639 -0.5962
17864SOL     OW54807   7.331   7.535   7.460  0.3223  0.5234 -0.4460
17864SOL    HW154808   7.310   7.589   7.383  0.6948  1.0763 -0.1673
17864SOL    HW254809   7.395   7.471   7.429 -1.6438 -1.1491 -1.3023
17865SOL     OW54810   6.204   6.519   7.420 -0.2425 -0.4237 -0.1065
17865SOL    HW154811   6.278   6.465   7.449  0.9861  0.9080 -0.6142
17865SOL    HW254812   6.153   6.534   7.500 -0.6661 -2.3612  0.0252
17866SOL     OW54813   6.520   6.183   8.072  0.5644  0.1942  0.0113
17866SOL    HW154814   6.505   6.181   7.977  0.5220  1.0218 -0.0040
17866SOL    HW254815   6.462   6.115   8.106  0.8914 -0.4063 -0.5916
17867SOL     OW54816   7.098   6.987   7.864 -0.2712  0.0991 -0.9410
17867SOL    HW154817   7.126   7.079   7.867 -0.5779  0.2410 -1.8642
17867SOL    HW254818   7.019   6.989   7.809 -1.5780 -0.4047  0.8099
17868SOL     OW54819   6.635   6.178   8.797  0.1025 -0.8887 -0.2070
17868SOL    HW154820   6.584   6.251   8.763 -0.1512 -1.0081 -0.0824
17868SOL    HW254821   6.589   6.100   8.767  1.8669 -1.0879 -2.7150
17869SOL     OW54822   6.834   5.919   8.804 -0.3153 -0.6698 -0.5119
17869SOL    HW154823   6.901   5.858   8.835 -1.2714 -0.1592  2.8529
17869SOL    HW254824   6.867   6.006   8.828 -2.2206 -0.4220  1.4767
17870SOL     OW54825   6.798   6.561   7.672 -0.2678 -0.7394 -0.1349
17870SOL    HW154826   6.785   6.569   7.766  0.3910  0.0073 -0.0971
17870SOL    HW254827   6.831   6.647   7.645 -0.9033 -0.7944 -1.1244
17871SOL     OW54828   5.547   6.696   8.543 -0.2171  0.4093 -0.0793
17871SOL    HW154829   5.509   6.675   8.628  1.3999 -2.0980  0.1361
17871SOL    HW254830   5.600   6.619   8.521  1.2835  1.9562 -2.2741
17872SOL     OW54831   5.232   7.427   0.008 -0.1209  0.1528  0.0227
17872SOL    HW154832   5.203   7.348   0.053  0.9924 -0.3998 -0.1853
17872SOL    HW254833   5.325   7.434   0.030  0.1379  0.5885 -1.1411
17873SOL     OW54834   6.364   6.267   7.417  0.1901  0.4625 -0.2783
17873SOL    HW154835   6.437   6.328   7.420  1.2625 -0.6782 -1.9935
17873SOL    HW254836   6.404   6.181   7.423 -1.0211 -0.1782 -1.0981
17874SOL     OW54837   7.009   6.678   8.069 -0.0631  0.2733  0.2874
17874SOL    HW154838   7.037   6.586   8.072 -1.1325 -0.0377  2.6431
17874SOL    HW254839   7.024   6.704   7.978 -0.1102 -2.3471 -0.5587
17875SOL     OW54840   6.009   6.176   8.090 -0.2020  0.1759 -0.0765
17875SOL    HW154841   6.003   6.150   8.182 -0.9701 -0.1352 -0.2057
17875SOL    HW254842   5.941   6.125   8.046  1.9037 -1.8011 -1.2945
17876SOL     OW54843   6.646   7.119   7.592  0.3416  0.3283  0.0511
17876SOL    HW154844   6.637   7.212   7.614 -1.6105 -0.0965  1.2608
17876SOL    HW254845   6.662   7.119   7.498 -1.2741  1.8765 -0.2945
17877SOL     OW54846   5.847   7.312   8.343  0.1547  0.4444 -0.5853
17877SOL    HW154847   5.844   7.226   8.302  1.3514 -0.5235  1.2318
17877SOL    HW254848   5.758   7.328   8.372  0.2320 -0.9546  0.5152
17878SOL     OW54849   7.266   6.407   8.337 -0.1452 -0.5622  0.1943
17878SOL    HW154850   7.175   6.378   8.331 -0.1260 -0.6321  0.2459
17878SOL    HW254851   7.306   6.379   8.255 -0.3015 -0.0755 -0.0497
17879SOL     OW54852   5.752   6.545   7.556  0.4638  0.7211 -0.2209
17879SOL    HW154853   5.788   6.545   7.467  0.8357 -1.2192 -0.1019
17879SOL    HW254854   5.687   6.475   7.556  0.4784  0.6876  1.0358
17880SOL     OW54855   6.828   6.601   8.319  0.4147 -0.4155  0.0276
17880SOL    HW154856   6.825   6.635   8.408 -1.7452 -1.8362  0.5532
17880SOL    HW254857   6.878   6.520   8.326 -0.2048 -0.7985  0.0552
17881SOL     OW54858   6.651   7.683   7.289  0.0001 -0.1317  0.0128
17881SOL    HW154859   6.738   7.648   7.307 -0.7394 -2.0243  0.1351
17881SOL    HW254860   6.637   7.665   7.196  0.0134  0.8357 -0.1854
17882SOL     OW54861   7.154   6.932   7.511  0.0827 -0.3378 -0.0199
17882SOL    HW154862   7.157   6.920   7.416 -0.5581  1.6355 -0.3368
17882SOL    HW254863   7.226   6.878   7.544  2.3917  1.3353 -1.9205
17883SOL     OW54864   5.809   7.454   7.901 -0.3233 -0.0866  0.5746
17883SOL    HW154865   5.848   7.541   7.886 -0.5169  0.1456  1.3604
17883SOL    HW254866   5.836   7.431   7.990 -1.2938 -0.2824  0.8316
17884SOL     OW54867   6.967   6.132   7.681 -0.1937  0.2190  0.8504
17884SOL    HW154868   7.042   6.112   7.737  2.0358 -1.8300 -2.5124
17884SOL    HW254869   6.917   6.050   7.678 -0.4411  0.3887  0.1019
17885SOL     OW54870   5.763   7.578   8.686  0.0287 -0.5397 -0.1028
17885SOL    HW154871   5.804   7.600   8.770  0.0285 -0.6079 -0.0855
17885SOL    HW254872   5.795   7.645   8.626 -0.0896 -0.4019 -0.0138
17886SOL     OW54873   6.244   7.265   8.282  0.2455 -0.1223 -0.4734
17886SOL    HW154874   6.214   7.186   8.327  0.1804 -0.6628 -1.4401
17886SOL    HW254875   6.337   7.250   8.266  0.4846  0.4755  0.2998
17887SOL     OW54876   6.065   6.465   7.678 -0.2538 -0.1124  0.1977
17887SOL    HW154877   5.982   6.423   7.657 -0.2629  0.2791 -0.5777
17887SOL    HW254878   6.068   6.466   7.774 -1.5527  0.6540  0.2557
17888SOL     OW54879   6.071   5.486   7.455 -0.1724  0.1973 -0.0440
17888SOL    HW154880   6.045   5.565   7.501 -0.9748 -0.2502  0.2929
17888SOL    HW254881   6.063   5.416   7.520 -0.5178 -0.3175 -0.6276
17889SOL     OW54882   6.729   7.309   8.344  0.2930  0.6478 -0.1822
17889SOL    HW154883   6.720   7.404   8.331  1.3127  0.4877 -2.6885
17889SOL    HW254884   6.656   7.271   8.295  0.3837  0.1111  0.0962
17890SOL     OW54885   6.259   7.035   7.960 -0.1882  0.1228  0.0662
17890SOL    HW154886   6.212   7.117   7.965 -1.1899 -0.2192 -2.3400
17890SOL    HW254887   6.248   6.995   8.046 -1.8320  1.3616  0.4723
17891SOL     OW54888   6.706   6.310   8.216 -0.1578  0.6496  0.4294
17891SOL    HW154889   6.630   6.270   8.173  0.1673  0.6362 -0.1458
17891SOL    HW254890   6.722   6.389   8.166  0.9828  0.0065 -0.2558
17892SOL     OW54891   6.201   5.948   7.326 -0.1728  0.4662  0.1705
17892SOL    HW154892   6.270   5.945   7.260  0.6976  0.4963  1.0425
17892SOL    HW254893   6.155   6.030   7.310  1.9619  2.0036  1.4239
17893SOL     OW54894   7.321   6.554   7.484  0.0053  0.1371 -0.2504
17893SOL    HW154895   7.392   6.502   7.446  0.1653  0.3450 -0.2387
17893SOL    HW254896   7.273   6.492   7.539  0.6390  0.1676  0.3597
17894SOL     OW54897   5.705   5.832   7.760  0.0130 -0.3178  0.2190
17894SOL    HW154898   5.784   5.882   7.737  0.4533 -1.4254 -0.8155
17894SOL    HW254899   5.633   5.895   7.752  0.3910 -0.0935 -2.2857
17895SOL     OW54900   6.759   5.918   6.921  0.0559  0.1769 -0.2397
17895SOL    HW154901   6.848   5.924   6.956 -0.2905  1.3316  0.4765
17895SOL    HW254902   6.728   5.832   6.951  1.0351 -0.3741 -0.7722
17896SOL     OW54903   7.058   6.854   8.360  0.1087  0.1979 -0.0241
17896SOL    HW154904   7.025   6.853   8.270 -0.0775  0.9129  0.0229
17896SOL    HW254905   6.981   6.874   8.413  0.5224  1.5918  0.1124
17897SOL     OW54906   5.842   6.771   7.956 -0.1438  0.1048  0.1259
17897SOL    HW154907   5.824   6.765   7.862 -1.0704 -0.4331  0.3273
17897SOL    HW254908   5.757   6.758   7.998  0.1939  0.7308  1.0366
17898SOL     OW54909   6.429   7.188   7.343  0.2874 -0.5617  0.2707
17898SOL    HW154910   6.513   7.233   7.356 -0.6317  0.9199  1.3980
17898SOL    HW254911   6.390   7.231   7.267 -1.1043  1.5025  2.0245
17899SOL     OW54912   6.827   6.511   7.257  0.1117  0.1328  0.1597
17899SOL    HW154913   6.780   6.579   7.208  1.2982  1.7056  1.1296
17899SOL    HW254914   6.771   6.493   7.332 -0.8543 -0.9979 -0.7835
17900SOL     OW54915   6.355   5.980   8.119 -0.5578 -0.4126  0.7245
17900SOL    HW154916   6.280   6.001   8.063  1.6366  0.1918 -2.2659
17900SOL    HW254917   6.319   5.927   8.190 -3.8726  0.4870 -0.1238
17901SOL     OW54918   6.321   6.311   7.713  0.6383  0.5278  0.2424
17901SOL    HW154919   6.338   6.291   7.621  0.6072 -0.2506  0.4020
17901SOL    HW254920   6.236   6.355   7.712 -0.8693 -2.2074  0.1860
17902SOL     OW54921   6.835   6.252   7.904 -0.1133  0.1475  0.0818
17902SOL    HW154922   6.863   6.212   7.822  1.2738 -0.8341  0.9813
17902SOL    HW254923   6.850   6.184   7.970 -0.4484  1.1759  1.2571
17903SOL     OW54924   6.894   6.095   8.506 -0.5713  0.0472 -0.1826
17903SOL    HW154925   6.835   6.047   8.448  1.5313 -0.1812 -2.3169
17903SOL    HW254926   6.961   6.030   8.531  0.7575  1.1340 -0.8158
17904SOL     OW54927   6.696   6.040   8.346  0.7254  0.1669 -0.0516
17904SOL    HW154928   6.609   6.039   8.386  1.9733  0.9215  2.9450
17904SOL    HW254929   6.696   6.120   8.293 -0.5277 -0.0618 -0.4267
17905SOL     OW54930   7.764   6.325   7.884 -0.0662  0.6494 -0.4597
17905SOL    HW154931   7.756   6.234   7.913  2.5302  0.0024 -1.4398
17905SOL    HW254932   7.692   6.337   7.822 -0.8451 -0.5233  0.1816
17906SOL     OW54933   5.964   6.863   7.526 -0.3206  0.0676  0.0876
17906SOL    HW154934   6.044   6.883   7.575  0.4852 -0.2436 -1.0364
17906SOL    HW254935   5.898   6.847   7.593  0.6229  0.0833  1.0597
17907SOL     OW54936   7.543   7.225   7.746 -0.0354  0.5630  0.3484
17907SOL    HW154937   7.547   7.319   7.728  1.4394  0.4668  0.0923
17907SOL    HW254938   7.619   7.188   7.701 -0.1001 -0.6301  1.1750
17908SOL     OW54939   7.097   6.379   7.215 -0.2528  0.1032 -0.0297
17908SOL    HW154940   7.036   6.453   7.216 -0.1046  0.2796 -1.6060
17908SOL    HW254941   7.045   6.305   7.245 -1.4513  0.1406 -1.8574
17909SOL     OW54942   6.330   5.921   7.088  0.4636 -0.6459  0.0010
17909SOL    HW154943   6.390   5.875   7.147 -1.1795 -1.7670  0.8752
17909SOL    HW254944   6.299   5.854   7.028 -0.0568 -0.1162 -0.3304
17910SOL     OW54945   7.119   6.730   8.711 -0.6196  0.5255  0.0267
17910SOL    HW154946   7.189   6.771   8.658  0.3426 -0.5874  0.3947
17910SOL    HW254947   7.166   6.670   8.769 -1.9121 -0.3401  0.1989
17911SOL     OW54948   6.849   6.774   8.548 -0.7310  0.2237  0.4994
17911SOL    HW154949   6.845   6.869   8.558 -2.6755  0.0489  2.2135
17911SOL    HW254950   6.922   6.747   8.603 -1.1166  0.6241  1.2216
17912SOL     OW54951   7.267   6.833   8.514 -0.1551  0.2549  0.3171
17912SOL    HW154952   7.305   6.921   8.510 -1.2606  0.7534  0.3772
17912SOL    HW254953   7.196   6.834   8.451 -1.2256 -0.0674  1.4738
17913SOL     OW54954   5.764   6.756   7.703  0.0556 -0.2591  0.4939
17913SOL    HW154955   5.763   6.673   7.655 -0.3000 -0.6783  1.2065
17913SOL    HW254956   5.673   6.768   7.731 -0.0093  0.6615 -0.0912
17914SOL     OW54957   6.082   6.255   8.614 -0.2109 -0.1842 -0.3831
17914SOL    HW154958   6.121   6.337   8.583 -1.3042  0.6184  0.2956
17914SOL    HW254959   6.022   6.282   8.684 -2.0443 -1.3209 -1.4172
17915SOL     OW54960   7.279   6.332   8.603 -0.5820 -0.3284 -0.0288
17915SOL    HW154961   7.284   6.344   8.508 -1.9611  1.7964  0.0984
17915SOL    HW254962   7.327   6.406   8.639  1.4963 -2.0879  0.9936
17916SOL     OW54963   5.693   7.125   0.009 -0.2648  0.0951 -0.2768
17916SOL    HW154964   5.788   7.128   0.009 -0.2062  0.7808  2.4263
17916SOL    HW254965   5.667   7.179  -0.066  1.4114 -1.3572 -2.0000
17917SOL     OW54966   5.591   7.002   7.909  0.0752  0.7389 -0.0632
17917SOL    HW154967   5.637   7.053   7.842 -0.0985 -0.1944 -0.9147
17917SOL    HW254968   5.557   6.926   7.862  0.5438 -0.3071  1.2267
17918SOL     OW54969   6.117   6.089   8.368  0.1059 -0.2580  0.4942
17918SOL    HW154970   6.091   6.093   8.460 -0.1665 -0.1010  0.4140
17918SOL    HW254971   6.147   5.999   8.355  2.5490  0.3703  1.3560
17919SOL     OW54972   6.865   7.046   7.745 -0.5545 -0.3920  0.1930
17919SOL    HW154973   6.779   7.052   7.702 -0.0374 -0.5420 -0.9128
17919SOL    HW254974   6.923   7.099   7.690  0.0145 -0.1117  1.0538
17920SOL     OW54975   6.708   7.013   8.413 -0.3274 -0.0278 -0.4313
17920SOL    HW154976   6.768   7.039   8.482  2.0509 -0.9920 -2.0092
17920SOL    HW254977   6.624   7.000   8.457  0.8622  0.2804  2.0717
17921SOL     OW54978   7.047   6.412   7.969 -0.5358  0.2052 -0.2272
17921SOL    HW154979   7.007   6.456   7.894  0.4284 -1.2528 -1.6621
17921SOL    HW254980   7.009   6.324   7.968  0.0291 -0.0596  0.5598
17922SOL     OW54981   5.620   7.352   8.680  0.3130  0.3114 -0.4355
17922SOL    HW154982   5.557   7.371   8.750 -0.7615 -0.1251 -1.2551
17922SOL    HW254983   5.678   7.429   8.678 -0.6335  1.0496 -0.1477
17923SOL     OW54984   6.252   6.917   8.224  0.2150 -0.4054 -0.2131
17923SOL    HW154985   6.184   6.854   8.199 -1.1178  0.5282  0.9200
17923SOL    HW254986   6.221   6.954   8.307  0.0798  2.9954 -1.6214
17924SOL     OW54987   6.855   6.943   8.180  0.4260 -0.4779  0.1922
17924SOL    HW154988   6.842   7.023   8.129  0.8350 -1.6638 -1.8524
17924SOL    HW254989   6.801   6.956   8.258 -1.6064  0.6803 -1.3196
17925SOL     OW54990   6.932   6.239   7.425 -0.1012 -0.5053 -0.1793
17925SOL    HW154991   6.958   6.195   7.505  0.3584  0.4638  0.2226
17925SOL    HW254992   6.856   6.190   7.394  0.1135 -1.2811  0.4951
17926SOL     OW54993   5.550   6.133   8.140 -0.4471 -0.0813 -0.7035
17926SOL    HW154994   5.622   6.192   8.118  0.4137 -0.0772  1.8960
17926SOL    HW254995   5.566   6.055   8.087  0.1974  0.7628 -1.7897
17927SOL     OW54996   5.901   7.045   8.541  0.1399 -0.3748  0.0437
17927SOL    HW154997   5.821   7.047   8.490  0.8107  0.2414 -1.0291
17927SOL    HW254998   5.922   7.137   8.558  0.0100 -0.5564  1.3346
17928SOL     OW54999   6.182   6.086   7.910  0.6561  0.4902 -0.2956
17928SOL    HW155000   6.210   6.166   7.866  1.5871 -0.4381 -1.4467
17928SOL    HW255001   6.143   6.117   7.992  2.9939  1.9960  0.3437
17929SOL     OW55002   5.856   5.569   7.847 -0.2178  0.3120 -0.3991
17929SOL    HW155003   5.792   5.639   7.842 -1.5000 -0.8564 -0.8518
17929SOL    HW255004   5.810   5.491   7.815  1.1507 -0.7509  0.1052
17930SOL     OW55005   7.589   5.745   7.540  0.4302 -0.1681  0.4969
17930SOL    HW155006   7.668   5.748   7.486 -0.2591 -0.6915 -0.5868
17930SOL    HW255007   7.556   5.835   7.538  0.9686  0.0429  0.9191
17931SOL     OW55008   6.575   6.792   8.232  0.0881  0.7370 -0.0430
17931SOL    HW155009   6.582   6.787   8.327  0.0921 -0.5042 -0.0935
17931SOL    HW255010   6.487   6.828   8.217 -0.8953 -1.3478  0.4288
17932SOL     OW55011   7.484   5.990   7.522 -0.0567  0.3126  0.8941
17932SOL    HW155012   7.472   6.083   7.540 -0.9292  0.3247  0.2922
17932SOL    HW255013   7.401   5.961   7.484  1.0641 -0.0808 -1.4659
17933SOL     OW55014   7.329   6.753   7.669 -0.3511  0.2538 -0.2636
17933SOL    HW155015   7.400   6.736   7.731 -0.9956 -0.0076  0.4161
17933SOL    HW255016   7.322   6.672   7.619 -0.9897 -0.1792  0.5099
17934SOL     OW55017   6.827   7.162   8.017 -0.4700 -0.4121 -0.1930
17934SOL    HW155018   6.787   7.247   8.000  0.0963 -0.5228 -2.4849
17934SOL    HW255019   6.821   7.116   7.933  0.5221 -2.0954  0.6037
17935SOL     OW55020   6.097   6.560   8.609  0.4679  0.2354  0.4494
17935SOL    HW155021   6.096   6.637   8.551  1.2454 -0.2740 -0.2703
17935SOL    HW255022   6.179   6.570   8.659 -0.3241  0.8102  1.6798
17936SOL     OW55023   5.936   6.347   8.335 -0.4622 -0.0131  0.0068
17936SOL    HW155024   6.012   6.381   8.288 -0.2393 -0.6537 -0.0927
17936SOL    HW255025   5.966   6.267   8.376 -0.7323  0.3954  1.0321
17937SOL     OW55026   7.116   6.042   0.260 -0.3073  0.5175 -0.3776
17937SOL    HW155027   7.206   6.036   0.229 -0.0244  0.0105  0.4932
17937SOL    HW255028   7.067   5.980   0.206  0.0569  0.0800 -0.2037
17938SOL     OW55029   5.498   6.811   7.741 -0.6174 -0.6640  0.2379
17938SOL    HW155030   5.453   6.766   7.670 -0.8368  0.3479 -0.2754
17938SOL    HW255031   5.444   6.795   7.818 -1.6371  0.1730 -0.2853
17939SOL     OW55032   5.398   7.150   8.186 -0.4046  0.1793  0.1011
17939SOL    HW155033   5.471   7.134   8.246 -0.2460 -1.3546 -0.4628
17939SOL    HW255034   5.434   7.209   8.121  0.5683 -1.0527 -0.5272
17940SOL     OW55035   5.654   6.951   8.465 -0.2221  0.0295 -0.3008
17940SOL    HW155036   5.621   6.864   8.489 -2.5956  0.7255 -0.7870
17940SOL    HW255037   5.683   6.941   8.374  0.2015 -0.4144 -0.1212
17941SOL     OW55038   6.405   6.485   8.428 -0.0606 -0.4138  0.6439
17941SOL    HW155039   6.482   6.430   8.444  1.4538  1.1722 -0.8587
17941SOL    HW255040   6.392   6.481   8.334 -0.2301  1.3543  0.5665
17942SOL     OW55041   5.956   6.220   0.010 -0.0272 -0.0330  0.0730
17942SOL    HW155042   5.970   6.306   0.048 -0.3727  0.4659 -0.8850
17942SOL    HW255043   6.035   6.170   0.033  0.1180  0.4933  0.7351
17943SOL     OW55044   6.530   6.475   7.852  0.9025 -0.2581  0.4168
17943SOL    HW155045   6.498   6.561   7.827  1.5362 -0.2177 -0.2832
17943SOL    HW255046   6.463   6.414   7.821 -0.3569  0.0560  2.3347
17944SOL     OW55047   7.880   5.973   8.540 -0.2583 -0.2786 -0.2688
17944SOL    HW155048   7.852   6.035   8.474  4.9494  3.1407  0.1383
17944SOL    HW255049   7.853   6.012   8.623  0.8287  0.1812 -0.1146
17945SOL     OW55050   6.263   5.832   8.334  0.4167 -0.0889 -0.0075
17945SOL    HW155051   6.270   5.775   8.410 -1.1798 -0.8251 -0.3848
17945SOL    HW255052   6.203   5.786   8.275  0.8804  0.9158 -1.3032
17946SOL     OW55053   6.865   7.565   8.597 -0.0952  0.2877 -0.0655
17946SOL    HW155054   6.898   7.587   8.684  0.0109 -0.9273  0.2294
17946SOL    HW255055   6.933   7.510   8.558 -0.6356 -0.1282 -0.4518
17947SOL     OW55056   5.874   6.194   7.532 -0.0674  0.5145 -0.3201
17947SOL    HW155057   5.918   6.144   7.600 -2.2404 -2.0270 -0.6291
17947SOL    HW255058   5.944   6.218   7.471  1.2699 -1.1741  0.4756
17948SOL     OW55059   5.751   6.584   0.559 -0.8230  0.3096  0.0669
17948SOL    HW155060   5.679   6.549   0.505 -0.8569  0.2846  0.1284
17948SOL    HW255061   5.829   6.573   0.504 -0.9571  0.9253 -0.2584
17949SOL     OW55062   6.930   7.036   8.572 -0.2335  0.2419 -0.3391
17949SOL    HW155063   6.983   7.102   8.527 -2.3597  1.8324 -0.6430
17949SOL    HW255064   6.966   7.033   8.660  1.4866 -0.0580 -1.0145
17950SOL     OW55065   6.896   6.795   7.582 -0.3440  0.4206 -0.4823
17950SOL    HW155066   6.849   6.867   7.626  0.7988 -0.0195  1.5853
17950SOL    HW255067   6.977   6.835   7.551 -0.4245  0.3646 -0.7687
17951SOL     OW55068   7.384   7.881   8.831  0.0337  0.2575 -0.2590
17951SOL    HW155069   7.435   7.953   8.868 -0.1648  0.3925 -0.2501
17951SOL    HW255070   7.444   7.839   8.769  0.9310 -0.9735  1.3699
17952SOL     OW55071   6.985   7.212   8.389 -0.3440  0.6378  0.3648
17952SOL    HW155072   7.013   7.302   8.405  0.7586  0.8475 -2.2961
17952SOL    HW255073   6.897   7.221   8.353 -0.0446  0.6860 -0.3549
17953SOL     OW55074   5.878   6.781   8.397  0.3971 -0.5372 -0.3987
17953SOL    HW155075   5.849   6.693   8.420  1.6884 -0.4808  1.7514
17953SOL    HW255076   5.860   6.832   8.476  1.1861  0.7581 -1.0318
17954SOL     OW55077   7.570   6.316   7.701  0.1230 -0.6774  0.4729
17954SOL    HW155078   7.478   6.326   7.726 -0.1680 -0.7753 -0.5153
17954SOL    HW255079   7.570   6.325   7.606  1.2511  0.1042  0.5293
17955SOL     OW55080   7.344   7.354   8.127  0.3440 -0.4274  0.1768
17955SOL    HW155081   7.260   7.312   8.147  0.1342  0.3766  1.0486
17955SOL    HW255082   7.409   7.287   8.149 -0.0129 -0.5387  0.9581
17956SOL     OW55083   5.878   7.248   7.522  0.0738 -0.4831 -0.7490
17956SOL    HW155084   5.802   7.286   7.478 -0.2742  0.2129  0.3938
17956SOL    HW255085   5.845   7.220   7.607  1.1414  0.1072 -0.1101
17957SOL     OW55086   7.374   5.612   7.999 -0.7160 -0.1111 -0.2637
17957SOL    HW155087   7.392   5.601   7.905 -2.6686 -2.5908 -0.4687
17957SOL    HW255088   7.290   5.568   8.012 -0.1500 -0.5072  2.7812
17958SOL     OW55089   5.806   6.073   7.961 -0.0755 -0.0634  0.3950
17958SOL    HW155090   5.783   6.115   7.878  2.0605 -1.3473 -0.9342
17958SOL    HW255091   5.744   6.000   7.968 -3.5633  2.7666  2.5388
17959SOL     OW55092   6.359   6.805   7.508 -0.0674 -0.2412  0.5067
17959SOL    HW155093   6.350   6.751   7.429 -0.6378  0.9991 -0.3207
17959SOL    HW255094   6.303   6.881   7.491 -0.6415 -0.1963  2.3548
17960SOL     OW55095   6.665   6.777   8.835  0.6959 -0.5165  0.0344
17960SOL    HW155096   6.688   6.691   8.798  2.1791  0.1344 -0.6681
17960SOL    HW255097   6.747   6.826   8.831 -0.3277  1.2103 -0.3396
17961SOL     OW55098   6.315   6.651   7.744  0.1422  0.0180 -0.3470
17961SOL    HW155099   6.332   6.720   7.680  0.6760  0.2583  0.0486
17961SOL    HW255100   6.261   6.694   7.811 -0.1733 -0.1539 -0.4929
17962SOL     OW55101   7.141   7.562   6.899  0.4092  0.6123 -0.3210
17962SOL    HW155102   7.093   7.604   6.828  0.4260  0.9446 -0.1387
17962SOL    HW255103   7.081   7.564   6.973  0.9003  1.5287  0.0624
17963SOL     OW55104   7.243   7.009   8.841  0.7027 -0.1129 -0.2699
17963SOL    HW155105   7.207   7.095   8.818  1.3359  0.3912  0.5734
17963SOL    HW255106   7.167   6.958   8.870  0.4023  0.3587 -0.2256
17964SOL     OW55107   6.687   6.787   7.903  0.3804  0.0576  0.4527
17964SOL    HW155108   6.656   6.783   7.813  0.2628  0.0075  0.4948
17964SOL    HW255109   6.646   6.866   7.939  2.2853  1.4264 -0.2233
17965SOL     OW55110   6.858   5.724   8.146  0.6418 -0.2310  0.2185
17965SOL    HW155111   6.910   5.742   8.067 -0.1390  1.1521 -0.0205
17965SOL    HW255112   6.913   5.757   8.218  1.5270 -1.8569  0.3210
17966SOL     OW55113   6.081   7.266   7.887 -0.3306 -0.3163 -0.2836
17966SOL    HW155114   6.059   7.312   7.968  1.5969 -0.7797  0.5551
17966SOL    HW255115   6.017   7.195   7.882 -1.4054  0.5958  0.0241
17967SOL     OW55116   6.946   6.268   0.267  0.4314 -0.2716  0.8817
17967SOL    HW155117   6.976   6.296   0.353 -0.8415 -1.0448  1.6077
17967SOL    HW255118   6.974   6.177   0.259 -1.3689 -0.9121  1.4512
17968SOL     OW55119   5.569   7.005   7.547 -0.1348  0.2484  0.6013
17968SOL    HW155120   5.617   7.005   7.464  2.3819 -1.1022  1.9382
17968SOL    HW255121   5.580   6.916   7.581 -0.3489  0.9927  2.7801
17969SOL     OW55122   6.383   5.772   0.060  0.2914 -0.2890 -0.0582
17969SOL    HW155123   6.363   5.679   0.070 -0.5209 -0.2205 -0.8630
17969SOL    HW255124   6.305   5.809   0.019  0.9165  0.6020 -0.4904
17970SOL     OW55125   5.354   5.882   7.386  0.4171 -0.3749  0.1263
17970SOL    HW155126   5.333   5.789   7.388 -0.4236 -0.1872  0.2705
17970SOL    HW255127   5.275   5.924   7.351  0.0801  0.4631  1.7888
17971SOL     OW55128   5.695   6.211   7.760  0.4343 -0.2866  0.3038
17971SOL    HW155129   5.739   6.235   7.678  1.8585 -0.7976  0.8881
17971SOL    HW255130   5.625   6.152   7.733  0.3533  0.2043 -0.6188
17972SOL     OW55131   6.610   6.857   7.648 -0.2435  0.2082  0.4595
17972SOL    HW155132   6.541   6.811   7.600  3.1003 -0.7091 -4.2407
17972SOL    HW255133   6.606   6.947   7.615  1.6089 -0.2443 -1.2368
17973SOL     OW55134   6.372   6.465   8.702 -0.0433  0.2014 -0.1008
17973SOL    HW155135   6.364   6.458   8.607  0.2287 -0.9236 -0.0569
17973SOL    HW255136   6.377   6.375   8.732 -0.2054  0.5424  0.9987
17974SOL     OW55137   7.209   7.673   8.527 -0.2048  0.2419 -0.0628
17974SOL    HW155138   7.195   7.767   8.519 -1.6852  0.0010 -0.6583
17974SOL    HW255139   7.192   7.654   8.620  0.4206  0.6101  0.1261
17975SOL     OW55140   6.034   7.194   0.043 -0.1052 -0.0852  0.0969
17975SOL    HW155141   6.043   7.248   0.122  2.2045 -0.0571 -0.1111
17975SOL    HW255142   6.008   7.255  -0.025  0.8098  0.4773  0.2341
17976SOL     OW55143   7.420   6.584   8.470 -0.0111 -0.1465  0.7177
17976SOL    HW155144   7.359   6.534   8.415 -2.5467  2.0036  1.3954
17976SOL    HW255145   7.387   6.673   8.469  2.5158  0.9303  2.1066
17977SOL     OW55146   7.302   6.444   8.030  0.7219  0.1192 -0.2701
17977SOL    HW155147   7.350   6.472   7.952 -0.2801  0.5995 -0.7312
17977SOL    HW255148   7.216   6.419   7.998  0.2280  0.5181  0.7013
17978SOL     OW55149   6.153   6.504   8.178 -0.2790  0.0415 -0.5303
17978SOL    HW155150   6.247   6.517   8.183 -0.3937  0.3482  1.3183
17978SOL    HW255151   6.117   6.593   8.178 -0.6295 -0.0923  0.6327
17979SOL     OW55152   6.979   6.922   0.015  0.6784  0.2947  0.5706
17979SOL    HW155153   6.988   6.849  -0.046 -3.5242  0.5317 -0.6091
17979SOL    HW255154   6.981   6.881   0.102 -0.2927 -1.0768 -0.0198
17980SOL     OW55155   6.560   6.965   7.188  0.2968  0.6146  0.6942
17980SOL    HW155156   6.527   7.049   7.219 -0.1601  0.1502  1.4913
17980SOL    HW255157   6.488   6.903   7.204 -0.0989  0.3850 -1.5498
17981SOL     OW55158   6.181   7.051   8.447 -1.0818 -0.1978 -0.9848
17981SOL    HW155159   6.094   7.010   8.457 -1.0385  0.1226  0.9480
17981SOL    HW255160   6.197   7.095   8.530 -0.4633  2.5464 -2.4550
17982SOL     OW55161   6.533   6.990   7.947 -0.5055  0.3324  0.0501
17982SOL    HW155162   6.567   7.072   7.912 -3.3257  1.0468 -1.2938
17982SOL    HW255163   6.439   6.996   7.935 -0.9691 -2.4314  1.4720
17983SOL     OW55164   6.530   6.514   7.257  0.4328 -0.6791 -0.2657
17983SOL    HW155165   6.516   6.504   7.351 -1.7689 -1.1136 -0.5861
17983SOL    HW255166   6.563   6.429   7.228  4.1662  0.3447  0.5039
17984SOL     OW55167   7.471   7.347   8.466 -0.3393  0.1130 -0.2102
17984SOL    HW155168   7.555   7.374   8.504 -0.3697 -0.8741  0.6096
17984SOL    HW255169   7.448   7.267   8.514 -0.7306 -0.7960 -1.8260
17985SOL     OW55170   5.603   6.942   8.170  0.5888 -0.5783 -0.0585
17985SOL    HW155171   5.550   6.862   8.176 -1.1095  0.2947 -2.1265
17985SOL    HW255172   5.581   6.980   8.085  2.1335  1.5651  0.3950
17986SOL     OW55173   7.423   5.584   8.448 -0.0045  0.3208  0.0233
17986SOL    HW155174   7.492   5.560   8.386 -0.1803  0.1496 -0.1048
17986SOL    HW255175   7.380   5.502   8.469  0.1965  0.3456  0.5461
17987SOL     OW55176   5.993   5.991   7.711 -0.3537  0.4197 -0.3995
17987SOL    HW155177   6.030   6.017   7.796 -3.3257 -0.4957  1.3260
17987SOL    HW255178   6.047   5.916   7.684  1.3999  1.4685  0.0166
17988SOL     OW55179   7.307   7.119   8.486  0.5214  0.3111  0.4362
17988SOL    HW155180   7.262   7.176   8.424  0.1656  1.3004  1.5719
17988SOL    HW255181   7.278   7.149   8.572  0.2714 -1.6218  1.0876
17989SOL     OW55182   5.960   5.869   8.623  0.1848 -0.3523  0.3537
17989SOL    HW155183   5.927   5.957   8.605  1.7415  0.2950  0.5609
17989SOL    HW255184   5.882   5.813   8.618 -0.3932  0.5657 -2.6699
17990SOL     OW55185   6.518   7.258   7.901 -0.5350 -0.2849 -0.0428
17990SOL    HW155186   6.431   7.298   7.898 -0.9416 -1.1983 -0.7070
17990SOL    HW255187   6.566   7.301   7.830  0.1193  1.4264  1.3634
17991SOL     OW55188   7.081   5.879   8.283 -0.2925 -0.4718  0.2712
17991SOL    HW155189   7.166   5.843   8.259 -0.6842 -0.1200 -1.9222
17991SOL    HW255190   7.087   5.898   8.376  2.2931  0.2603  0.0149
17992SOL     OW55191   7.061   5.616   8.362  0.0438 -0.1843 -0.2687
17992SOL    HW155192   7.140   5.592   8.313  0.9478 -0.5264  1.2679
17992SOL    HW255193   7.076   5.708   8.386 -0.0836 -0.2041 -0.1124
17993SOL     OW55194   6.174   6.973   7.687 -0.4478  0.4532  0.0341
17993SOL    HW155195   6.198   6.974   7.779  1.3679 -1.2598 -0.3444
17993SOL    HW255196   6.230   7.039   7.646 -0.2783  0.2582 -0.0478
17994SOL     OW55197   6.567   7.367   0.320 -0.2261  0.5832  0.5520
17994SOL    HW155198   6.553   7.340   0.411  2.0151 -0.6333  0.6144
17994SOL    HW255199   6.507   7.313   0.269  1.2305 -1.6427  1.0547
17995SOL     OW55200   7.051   6.444   7.570 -0.1375 -0.3980  0.2982
17995SOL    HW155201   7.028   6.380   7.503 -0.8084  0.6225 -0.4822
17995SOL    HW255202   6.991   6.517   7.554  1.4811  0.9847  0.3096
17996SOL     OW55203   6.934   6.317   8.335  0.1911 -0.3211  0.2201
17996SOL    HW155204   6.938   6.236   8.385  1.6350 -2.1579 -2.5820
17996SOL    HW255205   6.852   6.311   8.287  0.3675 -0.2200 -0.0969
17997SOL     OW55206   7.435   6.063   8.263 -0.0265  0.8355 -0.0766
17997SOL    HW155207   7.365   6.082   8.326 -1.0676 -0.5254 -0.7737
17997SOL    HW255208   7.500   6.015   8.314 -0.4467  0.5248  0.1755
17998SOL     OW55209   5.401   6.656   7.531  0.2959  0.1339  0.4052
17998SOL    HW155210   5.457   6.665   7.454  0.5837  0.7451  0.6835
17998SOL    HW255211   5.391   6.561   7.542 -1.1974  0.0327 -1.4082
17999SOL     OW55212   6.123   7.361   7.579 -0.0780 -0.1739 -0.6035
17999SOL    HW155213   6.033   7.339   7.556  0.5040 -1.7961 -1.4756
17999SOL    HW255214   6.147   7.296   7.646  0.1972  0.7347  0.1966
18000SOL     OW55215   5.615   8.241   0.077 -0.0802  0.1261 -0.3318
18000SOL    HW155216   5.579   8.313   0.024  0.0820  1.0418  0.7607
18000SOL    HW255217   5.610   8.273   0.167 -0.0585 -1.2789  0.1839
18001SOL     OW55218   5.856   7.659   1.291  0.5058 -0.4076 -0.3730
18001SOL    HW155219   5.895   7.685   1.375 -0.3797 -0.7209  0.1391
18001SOL    HW255220   5.838   7.566   1.301  0.9853 -0.5943 -1.1580
18002SOL     OW55221   5.441   7.984   0.158 -0.0303 -0.1487 -0.8173
18002SOL    HW155222   5.497   8.057   0.131 -0.0935 -0.1736 -1.0143
18002SOL    HW255223   5.477   7.908   0.112  0.0786 -0.2556 -0.5590
18003SOL     OW55224   5.767   8.813   1.085  0.1070  0.0263 -0.0484
18003SOL    HW155225   5.846   8.868   1.082  0.1171  0.1155  1.1187
18003SOL    HW255226   5.695   8.875   1.074  0.0486  0.5530  2.6497
18004SOL     OW55227   6.941   0.157   1.078 -0.5838  0.7892  0.1549
18004SOL    HW155228   6.904   0.222   1.019 -0.0732  1.0883  0.1575
18004SOL    HW255229   6.890   0.166   1.159 -1.3119  0.3482 -0.2480
18005SOL     OW55230   6.634   8.048   0.305  0.1501 -0.0195 -0.2464
18005SOL    HW155231   6.619   8.052   0.210  1.6640  1.0899 -0.4717
18005SOL    HW255232   6.726   8.072   0.316  0.4374 -1.6443  1.4022
18006SOL     OW55233   7.156   7.939   8.450 -0.2190  0.0002 -0.3220
18006SOL    HW155234   7.068   7.964   8.480 -0.6768 -0.1763 -1.4839
18006SOL    HW255235   7.141   7.894   8.367  0.8236 -1.5862  0.3008
18007SOL     OW55236   6.252   8.744   1.180 -0.5516  0.5302 -0.1653
18007SOL    HW155237   6.271   8.827   1.137  0.1305  1.4414  1.7713
18007SOL    HW255238   6.167   8.758   1.222 -0.7160  0.0418 -0.3311
18008SOL     OW55239   6.527   8.678   1.725 -0.0767 -0.1280  0.0971
18008SOL    HW155240   6.447   8.645   1.766  0.0874 -0.9392 -0.2017
18008SOL    HW255241   6.597   8.626   1.765  0.6912  2.6013  2.5950
18009SOL     OW55242   6.211   8.827   0.672  0.3711  0.4827  0.2662
18009SOL    HW155243   6.130   8.877   0.659  1.2925  1.9782  0.0115
18009SOL    HW255244   6.250   8.865   0.751 -0.2173 -1.7306  1.7212
18010SOL     OW55245   6.070   8.672   2.232  0.0334 -0.7755 -0.1508
18010SOL    HW155246   6.011   8.639   2.164 -0.1386 -0.9472  0.0758
18010SOL    HW255247   6.157   8.664   2.195 -0.0651 -0.8138 -0.3740
18011SOL     OW55248   5.903   0.388   0.883 -0.6874  0.2229  0.6463
18011SOL    HW155249   5.909   0.365   0.790 -0.1828 -1.0712  0.9880
18011SOL    HW255250   5.976   0.449   0.897 -0.7683  0.4285  0.1964
18012SOL     OW55251   6.200   7.944   1.817  0.1205 -0.0652  0.0073
18012SOL    HW155252   6.217   7.861   1.772  2.2563 -0.0319  0.6341
18012SOL    HW255253   6.287   7.983   1.829 -0.4912  0.7103  2.6426
18013SOL     OW55254   7.050   7.821   0.728 -0.1850  0.0149 -0.2659
18013SOL    HW155255   7.028   7.728   0.726  0.5782 -0.1774  0.0028
18013SOL    HW255256   6.994   7.858   0.796  1.0837 -0.6798  1.2016
18014SOL     OW55257   6.420   0.054   1.631  0.3109 -0.3948  0.6057
18014SOL    HW155258   6.442  -0.034   1.662  2.0194 -0.6922 -1.2747
18014SOL    HW255259   6.500   0.087   1.591 -0.9606  1.0766 -0.8809
18015SOL     OW55260   5.691   8.185   0.702  0.3887 -0.2256 -0.1567
18015SOL    HW155261   5.733   8.271   0.698 -1.8871  0.8990 -3.1363
18015SOL    HW255262   5.598   8.205   0.711 -0.1540 -2.3897 -0.5807
18016SOL     OW55263   6.045   8.574   0.735  0.1614  0.3535  0.5916
18016SOL    HW155264   6.109   8.542   0.798 -0.4827  0.8116  1.5158
18016SOL    HW255265   6.045   8.669   0.747 -0.9116  0.3388  0.8516
18017SOL     OW55266   6.916   7.417   1.376 -0.3222  0.2335 -0.2092
18017SOL    HW155267   6.942   7.350   1.439  1.5104  0.1300 -1.0047
18017SOL    HW255268   6.966   7.494   1.401 -1.2757  0.8730 -0.2151
18018SOL     OW55269   5.515   8.324   0.321 -0.3457  0.3361  0.8199
18018SOL    HW155270   5.537   8.380   0.396  1.8445 -0.6399  0.9773
18018SOL    HW255271   5.509   8.236   0.359 -3.8761  0.3453  0.6110
18019SOL     OW55272   7.269   8.457   0.592  0.0193  0.3015 -0.3372
18019SOL    HW155273   7.183   8.498   0.603 -0.0481 -0.0218  0.4069
18019SOL    HW255274   7.299   8.487   0.506  0.0316  2.0069  0.2234
18020SOL     OW55275   6.675   8.838   0.132  0.5497 -0.5397 -0.2599
18020SOL    HW155276   6.655   8.932   0.128  1.4423 -0.2872  0.8048
18020SOL    HW255277   6.629   8.807   0.210  0.6249 -0.8906 -0.3529
18021SOL     OW55278   5.220   8.413   1.594  0.3203  0.3391 -0.1047
18021SOL    HW155279   5.262   8.499   1.601 -0.5170  0.7236  0.2188
18021SOL    HW255280   5.293   8.351   1.600  0.9458  1.0223 -0.4544
18022SOL     OW55281   6.035   0.054   0.911  0.0791 -0.0432  0.0401
18022SOL    HW155282   5.987   0.079   0.990 -1.2277 -1.7493 -0.1417
18022SOL    HW255283   5.985   0.093   0.839 -0.9927 -1.6222 -0.1334
18023SOL     OW55284   6.604   0.021   1.079  0.5991 -0.4118 -0.5846
18023SOL    HW155285   6.577  -0.046   1.016 -1.0658 -1.2031  0.8863
18023SOL    HW255286   6.560   0.101   1.049  1.5538 -0.2574 -1.6170
18024SOL     OW55287   6.099   7.014   0.420 -0.2584  0.2041  0.8796
18024SOL    HW155288   6.108   6.966   0.338 -1.0253 -0.9467  1.4421
18024SOL    HW255289   6.020   7.067   0.408  0.0612  0.6239  0.6029
18025SOL     OW55290   5.668   8.057   1.118  0.2287  0.3015 -0.1415
18025SOL    HW155291   5.589   8.021   1.160  1.3588 -1.3215  0.6947
18025SOL    HW255292   5.706   8.114   1.185  0.4222  0.0969 -0.0769
18026SOL     OW55293   6.805   8.503   0.162  0.2883 -0.2263  0.1357
18026SOL    HW155294   6.831   8.419   0.125 -1.2641 -1.0769  0.8678
18026SOL    HW255295   6.854   8.568   0.112  1.2684 -1.5445 -0.6696
18027SOL     OW55296   6.248   8.011   2.137  0.1603 -0.8882  0.2515
18027SOL    HW155297   6.332   7.991   2.095  0.9774 -3.5218  2.8022
18027SOL    HW255298   6.272   8.057   2.217 -0.8870 -1.0331  0.6633
18028SOL     OW55299   6.660   8.473   0.585  0.1347 -0.4409  0.6214
18028SOL    HW155300   6.628   8.465   0.675 -0.7246 -0.4861  0.3168
18028SOL    HW255301   6.581   8.483   0.532  0.5794 -1.2670 -0.2227
18029SOL     OW55302   5.601   7.826   0.032 -0.6748  0.1080 -0.4085
18029SOL    HW155303   5.684   7.849   0.074  0.0096 -1.2588 -0.9277
18029SOL    HW255304   5.613   7.851  -0.060 -1.9751  2.6170  0.0068
18030SOL     OW55305   6.852   7.752   1.276  0.2823  0.1757 -0.3926
18030SOL    HW155306   6.914   7.823   1.294  1.0781 -0.6593  0.2635
18030SOL    HW255307   6.807   7.738   1.359 -1.2227  1.1424 -1.0031
18031SOL     OW55308   6.161   8.562   1.516 -0.3954  0.1920  0.3475
18031SOL    HW155309   6.084   8.529   1.562 -0.8934  1.7165  0.6491
18031SOL    HW255310   6.127   8.606   1.439  0.3402 -0.9846 -0.6815
18032SOL     OW55311   6.690   7.772   1.493  0.3530  0.0213 -0.0511
18032SOL    HW155312   6.646   7.700   1.538  1.8391 -0.3050  0.9541
18032SOL    HW255313   6.628   7.844   1.497 -0.6628 -0.8339  0.0484
18033SOL     OW55314   5.807   8.703   1.987 -0.2225  0.0424  0.1946
18033SOL    HW155315   5.804   8.662   1.901  0.7652  0.3682 -0.0147
18033SOL    HW255316   5.865   8.778   1.975 -0.6825  0.5311  0.9650
18034SOL     OW55317   6.374   7.909   1.157 -0.1965 -0.1488  0.2289
18034SOL    HW155318   6.415   7.830   1.193 -0.3975 -0.2572  0.2273
18034SOL    HW255319   6.281   7.898   1.177  0.0073  1.0490  2.0551
18035SOL     OW55320   6.418   7.635   0.256  0.3583 -0.2802 -0.4051
18035SOL    HW155321   6.337   7.589   0.280  0.9903 -1.7509 -0.9842
18035SOL    HW255322   6.393   7.689   0.181 -0.5755  0.9626  0.7559
18036SOL     OW55323   5.629   7.942   0.868 -0.2278  0.1142 -0.1415
18036SOL    HW155324   5.668   8.005   0.807 -1.4444  0.7309 -0.3019
18036SOL    HW255325   5.649   7.977   0.955  1.3800 -0.6894 -0.1438
18037SOL     OW55326   6.429   7.423   0.683  0.2337 -0.4241  0.0103
18037SOL    HW155327   6.385   7.354   0.634  0.4116 -0.6193  0.1222
18037SOL    HW255328   6.464   7.483   0.616  1.7180 -1.4396 -0.1711
18038SOL     OW55329   7.322   8.120   1.467 -0.2666 -0.2759  0.1326
18038SOL    HW155330   7.246   8.175   1.446 -0.6235 -0.2733  1.3337
18038SOL    HW255331   7.297   8.075   1.548  0.6126 -1.0746 -0.0202
18039SOL     OW55332   6.475   8.499   0.368 -0.2883  0.6170  0.2986
18039SOL    HW155333   6.431   8.414   0.363 -0.0161  0.3728  1.5437
18039SOL    HW255334   6.427   8.555   0.308 -0.3401 -0.4743 -0.7102
18040SOL     OW55335   5.731   7.471   1.096  0.1939 -0.3204  0.1543
18040SOL    HW155336   5.784   7.517   1.031 -0.5875 -0.5622 -0.6699
18040SOL    HW255337   5.704   7.391   1.052 -1.4446  0.1269  0.3069
18041SOL     OW55338   7.300   8.192   0.518 -0.0426  0.3667  0.3688
18041SOL    HW155339   7.240   8.256   0.555  2.7562  1.8205  2.8471
18041SOL    HW255340   7.331   8.233   0.437 -2.9015 -0.8643 -1.5345
18042SOL     OW55341   5.894   8.264   0.009 -0.0045 -0.3363  0.3826
18042SOL    HW155342   5.802   8.259   0.036 -0.1492  1.4631  0.3101
18042SOL    HW255343   5.895   8.327  -0.062  1.3332 -0.1006  0.5820
18043SOL     OW55344   7.190   7.911   1.105 -0.4684  0.3348  0.8719
18043SOL    HW155345   7.172   7.977   1.038  0.6915  1.5364  1.6961
18043SOL    HW255346   7.107   7.865   1.117 -0.9627  0.7749 -0.6358
18044SOL     OW55347   5.895   8.822   1.555 -0.0250  0.0270  0.1246
18044SOL    HW155348   5.914   8.897   1.612  0.1908 -1.1049  1.6006
18044SOL    HW255349   5.804   8.833   1.530  0.7721  2.4435 -2.3194
18045SOL     OW55350   5.604   7.891   1.619 -0.1808  0.0457  0.0421
18045SOL    HW155351   5.531   7.930   1.572  1.0387  0.8765 -1.2569
18045SOL    HW255352   5.606   7.800   1.591  0.3286  0.4522 -1.2881
18046SOL     OW55353   6.856   8.596   8.367 -0.4216  0.2340 -0.0528
18046SOL    HW155354   6.838   8.502   8.357 -0.3106  0.2473 -0.3886
18046SOL    HW255355   6.948   8.601   8.392 -0.6995  0.2030  1.0297
18047SOL     OW55356   6.742   7.622   0.652  0.3372  0.6276 -0.0721
18047SOL    HW155357   6.670   7.588   0.600  1.6463 -0.2014 -1.4443
18047SOL    HW255358   6.772   7.699   0.604  0.0292  1.2960  0.7884
18048SOL     OW55359   5.739   7.887   0.360 -0.0746  0.2958  0.0586
18048SOL    HW155360   5.723   7.794   0.370  0.3554  0.0613 -1.2648
18048SOL    HW255361   5.653   7.928   0.372 -0.0120 -0.0708  2.3159
18049SOL     OW55362   7.007   7.933   1.433  0.1006  0.2277 -0.6582
18049SOL    HW155363   7.014   8.024   1.405  1.5506  0.1807 -0.5384
18049SOL    HW255364   6.960   7.937   1.517  1.3094  1.0103  0.0002
18050SOL     OW55365   6.287   7.720   1.709 -0.3943  0.4108  0.2652
18050SOL    HW155366   6.329   7.692   1.791 -2.4117 -0.4242  1.0904
18050SOL    HW255367   6.227   7.649   1.687 -2.6285  2.2164  0.1260
18051SOL     OW55368   6.345   8.386   1.655 -0.2592  0.5125 -0.0315
18051SOL    HW155369   6.304   8.301   1.640  0.4394  0.4607 -1.9115
18051SOL    HW255370   6.292   8.448   1.606  0.6767  0.7609 -0.7618
18052SOL     OW55371   6.110   8.007   1.132 -0.9467 -0.1549  0.1254
18052SOL    HW155372   6.048   7.935   1.142 -1.3424 -0.1045 -1.6607
18052SOL    HW255373   6.089   8.046   1.047  0.8244  0.5591 -0.0415
18053SOL     OW55374   6.069   7.571   0.356  0.3913 -0.5004 -0.2937
18053SOL    HW155375   6.064   7.589   0.450  0.9960 -1.1534 -0.1288
18053SOL    HW255376   6.056   7.656   0.315  0.4210 -0.1576  0.3893
18054SOL     OW55377   7.075   8.201   0.072 -0.1814  0.6145  0.2729
18054SOL    HW155378   7.120   8.155   0.001 -0.9636  0.0804  0.1056
18054SOL    HW255379   6.999   8.241   0.030 -0.7757  0.1024  0.8391
18055SOL     OW55380   6.726   7.126   0.511 -0.1572 -0.1511 -0.1631
18055SOL    HW155381   6.800   7.171   0.552 -1.4650  1.0313  0.9581
18055SOL    HW255382   6.746   7.129   0.417  0.9459  0.6547  0.0762
18056SOL     OW55383   6.430   8.410   1.168 -0.7864  0.2051  0.0921
18056SOL    HW155384   6.453   8.325   1.206 -0.3177 -0.0047 -0.6608
18056SOL    HW255385   6.508   8.464   1.181 -1.0812  0.5265  0.5654
18057SOL     OW55386   6.644   8.754   0.415 -0.2914 -0.2105  0.4373
18057SOL    HW155387   6.631   8.670   0.371  0.4243 -0.8017  1.3047
18057SOL    HW255388   6.603   8.743   0.501 -0.0621  0.2703  0.6115
18058SOL     OW55389   5.926   0.123   0.669  0.5235  0.2446  0.2710
18058SOL    HW155390   5.848   0.171   0.640 -0.2754 -0.8006  0.6274
18058SOL    HW255391   5.966   0.090   0.589 -1.8157 -2.8638  0.2026
18059SOL     OW55392   6.822   7.997   8.774 -0.4773  0.0474 -0.4094
18059SOL    HW155393   6.739   7.950   8.765 -0.8712  0.5946  0.2794
18059SOL    HW255394   6.883   7.933   8.811 -0.4200 -0.5258 -1.4497
18060SOL     OW55395   5.559   8.273   1.319  0.1184 -0.0340  0.4315
18060SOL    HW155396   5.498   8.328   1.368 -1.3947 -0.1805 -1.2189
18060SOL    HW255397   5.607   8.334   1.263 -1.3775 -0.2824 -1.2065
18061SOL     OW55398   5.266   7.539   1.489  0.4181  0.2847 -0.5156
18061SOL    HW155399   5.245   7.575   1.403  0.7182  1.3247 -0.1700
18061SOL    HW255400   5.280   7.446   1.474 -1.2462  0.1216 -1.3040
18062SOL     OW55401   5.802   8.150   0.437 -0.0890 -0.2697  0.4944
18062SOL    HW155402   5.783   8.058   0.418 -0.5178 -0.1758  0.4588
18062SOL    HW255403   5.748   8.170   0.514  0.1613 -0.1069  0.6271
18063SOL     OW55404   6.430   7.834   0.611 -0.1939  0.0067  0.2244
18063SOL    HW155405   6.368   7.907   0.610  1.4843  1.5027 -0.6823
18063SOL    HW255406   6.430   7.804   0.702 -1.7365  0.3864  0.3820
18064SOL     OW55407   6.880   8.230   0.638 -0.8132 -0.6058 -0.0460
18064SOL    HW155408   6.884   8.279   0.556  0.0172 -2.2438 -1.0055
18064SOL    HW255409   6.809   8.167   0.625 -0.8077 -0.7462  0.5805
18065SOL     OW55410   6.313   8.203   0.825  0.3045  0.9358 -0.7632
18065SOL    HW155411   6.330   8.297   0.818  2.6281  0.5547 -1.3207
18065SOL    HW255412   6.381   8.171   0.885 -0.3656 -0.4133 -0.6755
18066SOL     OW55413   7.291   7.946   0.355 -0.1413  0.2450  0.1636
18066SOL    HW155414   7.336   7.927   0.437  1.1311 -0.6260 -0.6978
18066SOL    HW255415   7.267   8.038   0.361  3.0334  1.1887  0.1222
18067SOL     OW55416   7.018   8.597   0.643 -0.8971  0.2879  0.7241
18067SOL    HW155417   6.981   8.666   0.589 -0.0416 -1.3809 -2.2571
18067SOL    HW255418   6.997   8.516   0.596  2.1316 -1.1001  1.4912
18068SOL     OW55419   6.816   8.286   8.842  0.2602  0.1576 -0.2792
18068SOL    HW155420   6.733   8.278   8.890  0.4305  0.4202  0.0568
18068SOL    HW255421   6.819   8.207   8.789  0.7189 -0.8250  1.1525
18069SOL     OW55422   6.021   7.839   0.297 -0.4072 -0.2647 -0.5786
18069SOL    HW155423   6.081   7.897   0.250  0.0445 -0.6802 -0.5183
18069SOL    HW255424   5.936   7.882   0.290 -0.2526 -0.0777 -1.3601
18070SOL     OW55425   6.947   8.330   1.590 -0.6000  0.1618  0.0031
18070SOL    HW155426   6.866   8.290   1.560 -0.4679 -0.2037  0.1295
18070SOL    HW255427   6.997   8.258   1.628 -0.6486  0.5722  0.8586
18071SOL     OW55428   6.272   8.540   0.951 -0.1385 -0.1939 -0.1061
18071SOL    HW155429   6.279   8.625   0.995  0.4199 -0.4323  0.2863
18071SOL    HW255430   6.332   8.483   0.999 -0.8887 -0.9552 -0.0465
18072SOL     OW55431   6.581   8.458   0.885 -0.4696  0.7097 -0.2921
18072SOL    HW155432   6.663   8.410   0.871 -0.1500  1.3238 -0.6006
18072SOL    HW255433   6.532   8.405   0.947  0.1118  0.2659 -0.2041
18073SOL     OW55434   6.787   8.309   0.883 -0.1813 -0.1782 -0.1490
18073SOL    HW155435   6.843   8.278   0.812  0.5512  1.3271 -0.2710
18073SOL    HW255436   6.806   8.249   0.956  0.4596 -0.5952 -0.6462
18074SOL     OW55437   6.257   7.707   1.362 -0.4240 -0.0785 -0.2778
18074SOL    HW155438   6.258   7.655   1.282  0.6321  0.3955 -0.5968
18074SOL    HW255439   6.188   7.668   1.416 -0.4530 -1.0481 -0.9962
18075SOL     OW55440   6.631   8.417   1.619 -0.3744 -0.1167 -0.0389
18075SOL    HW155441   6.701   8.376   1.670  0.3533  0.5182 -0.4984
18075SOL    HW255442   6.550   8.379   1.654  0.1488 -0.2685  1.0573
18076SOL     OW55443   6.305   8.298   0.324  0.5172  0.2543  0.4082
18076SOL    HW155444   6.324   8.206   0.339 -1.0673 -0.3079 -0.7670
18076SOL    HW255445   6.218   8.299   0.284  0.1363  2.3160  1.1196
18077SOL     OW55446   6.129   8.474   1.228 -0.1646 -0.7760 -0.2449
18077SOL    HW155447   6.221   8.495   1.216 -0.0379 -2.4520 -3.0350
18077SOL    HW255448   6.086   8.558   1.240  1.4881  0.2049 -0.9014
18078SOL     OW55449   6.637   8.289   1.333  0.6332  0.2727 -0.1377
18078SOL    HW155450   6.581   8.218   1.365  0.0777  0.9052  0.3015
18078SOL    HW255451   6.644   8.349   1.407  2.1469  0.0610 -0.0790
18079SOL     OW55452   6.024   0.018   0.438 -0.6554  0.5004  0.4624
18079SOL    HW155453   6.053  -0.070   0.414 -3.3997 -0.6858  1.1150
18079SOL    HW255454   5.997   0.058   0.356 -0.4548  0.3039  0.3012
18080SOL     OW55455   5.928   7.987   0.728 -0.1995  0.3676  0.1573
18080SOL    HW155456   5.845   8.027   0.704 -1.4820 -2.3619 -0.3739
18080SOL    HW255457   5.973   8.053   0.780 -2.7147  1.9144  0.5221
18081SOL     OW55458   6.339   0.118   0.378  0.8598 -0.2326  0.0446
18081SOL    HW155459   6.368   0.078   0.460 -0.8049  0.9991  1.3251
18081SOL    HW255460   6.279   0.187   0.405  0.1490  0.1458 -2.2371
18082SOL     OW55461   6.916   8.083   0.255 -0.6519  0.3993 -0.0325
18082SOL    HW155462   6.981   8.152   0.242  1.2839 -0.7509  2.5468
18082SOL    HW255463   6.926   8.026   0.179  0.3315  1.0355 -0.3932
18083SOL     OW55464   5.820   8.608   1.717 -0.2050 -0.1095 -0.6393
18083SOL    HW155465   5.808   8.537   1.654 -1.0596 -0.0041 -0.5994
18083SOL    HW255466   5.876   8.671   1.671 -0.7357 -0.0799 -1.2635
18084SOL     OW55467   6.786   8.060   1.077 -0.5143  0.0906 -0.1861
18084SOL    HW155468   6.855   8.112   1.118 -0.4816  0.3280 -0.5423
18084SOL    HW255469   6.724   8.042   1.149 -0.0239 -0.2332  0.1624
18085SOL     OW55470   6.460   8.141   1.493 -0.6322  0.0495  0.0397
18085SOL    HW155471   6.378   8.178   1.462 -0.4272  0.1501 -0.3852
18085SOL    HW255472   6.451   8.046   1.481 -0.9075  0.0100  0.5303
18086SOL     OW55473   6.266   7.724   2.144  0.0939  0.8150  0.2954
18086SOL    HW155474   6.196   7.661   2.129  0.3416  0.7873 -0.8524
18086SOL    HW255475   6.220   7.808   2.156 -0.1914  0.5733  0.9466
18087SOL     OW55476   5.956   8.367   1.046  0.6584 -0.1400  0.2389
18087SOL    HW155477   5.878   8.401   1.088  0.5955  0.8649 -0.6322
18087SOL    HW255478   6.028   8.397   1.101  0.6267  1.7741 -0.7004
18088SOL     OW55479   6.898   8.448   0.440 -0.1610 -1.0807  0.2249
18088SOL    HW155480   6.870   8.497   0.362 -0.5700 -0.5215  0.7154
18088SOL    HW255481   6.826   8.459   0.502 -0.2560 -2.2996  0.3646
18089SOL     OW55482   6.296   7.250   0.497  0.9757 -0.1302  0.3784
18089SOL    HW155483   6.257   7.165   0.521  1.8148 -0.5907  0.1488
18089SOL    HW255484   6.264   7.266   0.408  0.0076  0.2972  0.7804
18090SOL     OW55485   5.504   7.492   1.225  0.0657 -0.5030  0.8403
18090SOL    HW155486   5.593   7.464   1.203 -0.3837 -1.2724 -0.1102
18090SOL    HW255487   5.508   7.587   1.228  0.0057 -0.1140 -3.8468
18091SOL     OW55488   5.576   0.050   1.555  0.5794 -0.1278  0.2181
18091SOL    HW155489   5.614   0.128   1.513  0.9980 -0.3688  0.1426
18091SOL    HW255490   5.535   0.083   1.635 -0.2310  0.3399 -0.3797
18092SOL     OW55491   6.045   8.169   0.894  0.9877 -0.5399 -0.4646
18092SOL    HW155492   5.987   8.233   0.936  0.7504 -0.7428 -0.4765
18092SOL    HW255493   6.133   8.198   0.916  0.8628 -1.6727  1.7399
18093SOL     OW55494   7.661   8.530   2.082 -0.0756 -0.0808 -0.0763
18093SOL    HW155495   7.657   8.519   1.987  0.2630 -1.1581  0.0237
18093SOL    HW255496   7.643   8.443   2.117 -0.8461  0.4427  0.8665
18094SOL     OW55497   5.967   7.761   0.581  0.3753  0.2050 -0.1685
18094SOL    HW155498   6.013   7.781   0.500  0.8032  1.1560  0.2851
18094SOL    HW255499   5.981   7.839   0.636 -1.4286  0.3637  0.1378
18095SOL     OW55500   7.143   7.400   0.551  0.0236  0.3181 -0.6993
18095SOL    HW155501   7.234   7.376   0.567  0.2898  1.1146 -0.9757
18095SOL    HW255502   7.146   7.457   0.474 -0.8337 -0.5087 -1.3777
18096SOL     OW55503   6.215   8.019   0.636 -0.4992 -0.4031 -0.4834
18096SOL    HW155504   6.230   8.092   0.695 -1.8514 -0.2675 -0.2900
18096SOL    HW255505   6.129   7.986   0.659  0.2122 -2.2861 -0.3385
18097SOL     OW55506   7.141   8.514   1.558 -0.3231  0.1025 -0.3960
18097SOL    HW155507   7.121   8.569   1.634  2.5713 -1.0799  1.3766
18097SOL    HW255508   7.077   8.443   1.563 -0.9327  0.6711  0.1802
18098SOL     OW55509   5.428   8.600   1.757  0.0091 -0.0040 -0.4199
18098SOL    HW155510   5.451   8.690   1.778 -1.0390  0.7308 -2.2323
18098SOL    HW255511   5.397   8.563   1.840  2.3283  0.6357  0.8201
18099SOL     OW55512   6.809   7.682   0.273  0.2012 -0.8901 -0.6022
18099SOL    HW155513   6.812   7.711   0.364 -0.5186  0.9874 -1.1152
18099SOL    HW255514   6.715   7.681   0.251  0.4258  1.9315 -2.1972
18100SOL     OW55515   7.258   8.278   0.258  0.3098  0.0698 -0.1401
18100SOL    HW155516   7.185   8.245   0.207  0.9836 -1.9803  0.1319
18100SOL    HW255517   7.251   8.373   0.252 -2.7230 -0.0299  0.3886
18101SOL     OW55518   5.760   8.558   0.717  1.2434  0.1420 -0.1861
18101SOL    HW155519   5.856   8.557   0.722  1.2262  0.4265  0.1745
18101SOL    HW255520   5.731   8.528   0.803  0.9903  2.2114  0.4969
18102SOL     OW55521   5.222   8.015   0.671  0.1708  0.1024  0.3235
18102SOL    HW155522   5.194   8.016   0.763  2.7596 -2.1937  1.2476
18102SOL    HW255523   5.225   8.108   0.647 -0.3655  0.7870  2.6117
18103SOL     OW55524   6.704   7.761   1.822 -0.3424 -0.2976  0.0372
18103SOL    HW155525   6.616   7.761   1.786 -0.3290 -1.9564 -0.0708
18103SOL    HW255526   6.753   7.698   1.768  0.4532 -0.6439  1.1136
18104SOL     OW55527   6.523   7.552   1.576  0.0003 -0.3710 -0.4849
18104SOL    HW155528   6.513   7.500   1.656 -0.6331  1.8154  0.9409
18104SOL    HW255529   6.437   7.548   1.534  0.6621 -2.5347 -1.8047
18105SOL     OW55530   5.889   7.870   1.124  0.9225 -0.3637  0.1707
18105SOL    HW155531   5.871   7.805   1.192 -2.2409 -0.6072 -0.7437
18105SOL    HW255532   5.820   7.936   1.135  1.1608  0.2960 -1.9200
18106SOL     OW55533   5.468   8.008   1.379 -0.7971  0.2011  0.4184
18106SOL    HW155534   5.508   8.093   1.362 -1.8836  0.9911  1.6556
18106SOL    HW255535   5.392   8.006   1.321 -1.6109  0.7323  1.4320
18107SOL     OW55536   5.202   7.635   1.229  0.0661  0.2080 -0.0870
18107SOL    HW155537   5.289   7.634   1.189 -0.2483  2.1477 -0.9116
18107SOL    HW255538   5.151   7.571   1.179  1.0996 -1.3145  0.7204
18108SOL     OW55539   6.715   8.635   1.187 -0.1221  0.2063 -0.2662
18108SOL    HW155540   6.705   8.643   1.281 -0.8263 -2.3973 -0.0522
18108SOL    HW255541   6.688   8.720   1.152 -0.6724  0.9230  1.8101
18109SOL     OW55542   6.031   8.219   0.258 -0.2425  0.4234  0.0181
18109SOL    HW155543   5.988   8.260   0.183 -2.3713 -1.6615 -0.0019
18109SOL    HW255544   5.959   8.189   0.313  1.2352 -1.0615  1.2378
18110SOL     OW55545   7.177   7.592   0.967  0.6386 -0.7815 -0.0115
18110SOL    HW155546   7.094   7.588   0.920  0.8253  2.0964 -0.7811
18110SOL    HW255547   7.155   7.565   1.057 -0.8278 -1.3303 -0.5126
18111SOL     OW55548   5.965   7.929   1.471 -0.3455  0.5168  0.5743
18111SOL    HW155549   6.046   7.885   1.446 -0.3518  1.3932 -1.1207
18111SOL    HW255550   5.920   7.865   1.527 -0.0954 -1.4565 -1.3095
18112SOL     OW55551   5.869   7.998   0.061 -0.2431  0.1530 -0.6688
18112SOL    HW155552   5.959   7.970   0.044  0.1154  1.3490 -0.7768
18112SOL    HW255553   5.875   8.091   0.078 -1.4542  0.2241 -0.5303
18113SOL     OW55554   5.507   8.474   1.533  0.3005 -0.2198 -0.1382
18113SOL    HW155555   5.498   8.524   1.613 -0.1285 -0.9177  0.2598
18113SOL    HW255556   5.590   8.427   1.542  0.3808 -0.0923 -0.2164
18114SOL     OW55557   6.512   8.080   0.937 -0.2041 -0.5733 -1.0227
18114SOL    HW155558   6.603   8.054   0.950 -0.4653 -1.5779 -1.1261
18114SOL    HW255559   6.461   8.017   0.988 -0.7384  2.4095  2.6027
18115SOL     OW55560   6.828   8.326   8.379 -0.3076  0.3326 -0.2013
18115SOL    HW155561   6.910   8.315   8.428 -0.0767  2.5955  0.0390
18115SOL    HW255562   6.765   8.273   8.427  0.7715 -0.5706  0.2720
18116SOL     OW55563   5.668   0.006   0.627  0.0957 -0.5810 -0.2799
18116SOL    HW155564   5.710  -0.069   0.668  0.5650  0.5113  1.3249
18116SOL    HW255565   5.604   0.035   0.691  1.4872  1.7397  0.1600
18117SOL     OW55566   7.153   7.585   8.786  0.3233 -0.3365  0.4464
18117SOL    HW155567   7.146   7.596   8.881  1.0334 -0.3750  0.5128
18117SOL    HW255568   7.225   7.523   8.775 -1.3409 -2.2519 -0.0514
18118SOL     OW55569   7.640   7.347   0.695 -0.7301  0.4920 -0.4732
18118SOL    HW155570   7.705   7.286   0.730 -2.2944 -1.6915 -1.1960
18118SOL    HW255571   7.642   7.421   0.757  2.4934  0.6390 -0.5672
18119SOL     OW55572   6.513   8.562   0.080  0.1258 -0.7660  0.2833
18119SOL    HW155573   6.564   8.555  -0.001 -1.1426 -1.5049 -0.5143
18119SOL    HW255574   6.574   8.540   0.150  0.7259 -2.4371 -0.7007
18120SOL     OW55575   5.997   8.693   1.323 -0.0221 -0.1232 -0.1689
18120SOL    HW155576   5.976   8.739   1.405  0.0722  1.0467 -0.7802
18120SOL    HW255577   5.913   8.675   1.283 -0.0281  0.3774 -0.3837
18121SOL     OW55578   7.298   7.116   0.822 -0.4404 -0.1048  0.2723
18121SOL    HW155579   7.261   7.097   0.735  0.7987  0.4773 -0.4071
18121SOL    HW255580   7.313   7.210   0.822  1.0139 -0.3141  0.5137
18122SOL     OW55581   5.894   7.727   0.893  0.0112  0.4147  0.1817
18122SOL    HW155582   5.850   7.802   0.853  1.8324  1.4786  0.1008
18122SOL    HW255583   5.905   7.752   0.985  3.8857  1.9427 -0.5454
18123SOL     OW55584   6.240   8.196   1.333 -0.0450 -0.1256  0.3607
18123SOL    HW155585   6.210   8.155   1.252  2.6804 -0.8397 -0.3713
18123SOL    HW255586   6.214   8.288   1.324  0.4350 -0.1314 -1.4612
18124SOL     OW55587   6.690   8.550   8.700 -0.7923 -0.3673  0.1810
18124SOL    HW155588   6.704   8.464   8.659 -0.8913 -0.4047  0.2250
18124SOL    HW255589   6.654   8.604   8.629  0.0124 -0.1362 -0.0571
18125SOL     OW55590   5.964   0.074   1.894 -0.4360 -0.3914  0.1165
18125SOL    HW155591   6.060   0.072   1.891 -0.4497 -1.9047 -0.4329
18125SOL    HW255592   5.943   0.157   1.937  1.1002  0.2156 -0.2367
18126SOL     OW55593   6.709   8.646   1.452  0.2493  0.3933  0.1774
18126SOL    HW155594   6.685   8.583   1.520 -1.3497 -0.9216 -1.5139
18126SOL    HW255595   6.633   8.703   1.444 -0.1451 -0.2780 -1.3343
18127SOL     OW55596   6.552   8.171   0.049 -0.6151  0.3768  0.6019
18127SOL    HW155597   6.499   8.094   0.032  0.4750 -0.6798  1.7722
18127SOL    HW255598   6.502   8.244   0.011 -1.7947 -0.8465 -0.2789
18128SOL     OW55599   6.371   7.762   0.883  0.0413 -0.3580  0.8627
18128SOL    HW155600   6.387   7.766   0.977  0.3928 -0.1850  0.8000
18128SOL    HW255601   6.375   7.668   0.862  0.4995 -0.3603  0.9368
18129SOL     OW55602   7.046   8.177   1.307 -0.3244 -0.9115  0.5514
18129SOL    HW155603   7.106   8.196   1.235  0.0028 -0.8660  0.8294
18129SOL    HW255604   7.011   8.262   1.332 -0.4566 -0.9301  0.4272
18130SOL     OW55605   5.672   8.148   1.634  0.2095  0.1250  0.6114
18130SOL    HW155606   5.687   8.059   1.666 -0.3125  0.6986  2.6013
18130SOL    HW255607   5.588   8.173   1.671  0.3496  1.4598  0.0852
18131SOL     OW55608   6.405   7.871   1.496 -0.0649 -0.3628 -1.1359
18131SOL    HW155609   6.366   7.856   1.582 -0.8402 -0.6604 -1.5353
18131SOL    HW255610   6.353   7.818   1.436 -0.2933  0.7486 -1.9643
18132SOL     OW55611   5.518   7.528   0.050 -0.4469 -0.1636 -0.3689
18132SOL    HW155612   5.584   7.503   0.115  1.0747 -1.1055 -2.1811
18132SOL    HW255613   5.515   7.624   0.056  0.9389 -0.1068 -0.0832
18133SOL     OW55614   6.606   7.983   1.268 -0.1731 -0.2404 -0.7454
18133SOL    HW155615   6.517   7.967   1.238  0.3602 -1.8634 -1.5560
18133SOL    HW255616   6.644   7.896   1.279  0.6707  0.3436  1.6558
18134SOL     OW55617   5.547   7.430   0.369 -0.3987  0.1859 -0.5627
18134SOL    HW155618   5.523   7.354   0.316 -2.0512  0.8759 -0.8785
18134SOL    HW255619   5.471   7.444   0.426  0.3296  0.9580  0.2515
18135SOL     OW55620   6.085   8.172   1.585  0.0014  0.1464  0.2756
18135SOL    HW155621   6.059   8.147   1.497 -0.9311  0.5727  0.4186
18135SOL    HW255622   6.125   8.093   1.622 -1.8997 -0.8306  0.3535
18136SOL     OW55623   6.372   8.533   1.884 -0.7934 -0.3938 -0.1044
18136SOL    HW155624   6.353   8.484   1.804  2.3712 -0.2145 -1.1194
18136SOL    HW255625   6.421   8.471   1.939  0.3061  0.5839  0.0526
18137SOL     OW55626   6.465   8.714   1.342  0.3666  0.3632 -0.3644
18137SOL    HW155627   6.407   8.741   1.271  2.0030  3.1644 -0.7741
18137SOL    HW255628   6.412   8.723   1.421 -0.4661  0.4591 -0.9220
18138SOL     OW55629   6.959   7.560   0.788  0.2554 -0.1912  0.0890
18138SOL    HW155630   6.920   7.484   0.830  0.4068 -0.4031 -0.1520
18138SOL    HW255631   6.893   7.589   0.725  0.1171 -0.0033  0.3191
18139SOL     OW55632   6.515   7.614   0.498 -0.1461  0.0914 -0.2817
18139SOL    HW155633   6.485   7.699   0.530 -0.0441  1.1275 -2.6747
18139SOL    HW255634   6.480   7.609   0.409  0.0321 -2.3093 -0.2835
18140SOL     OW55635   6.082   8.546   0.383 -0.4026  0.1529 -0.6076
18140SOL    HW155636   6.111   8.540   0.475  1.0733  1.9444 -0.8919
18140SOL    HW255637   6.163   8.537   0.333 -1.1756 -0.6084 -1.7535
18141SOL     OW55638   7.565   8.032   1.936  0.6335 -0.6294 -0.0689
18141SOL    HW155639   7.625   7.987   1.876 -0.5832 -1.2056 -0.9064
18141SOL    HW255640   7.614   8.040   2.017  2.0604 -0.5316 -0.9058
18142SOL     OW55641   6.892   8.581   1.001  0.1661 -0.1301  0.4006
18142SOL    HW155642   6.839   8.573   1.081  0.3289  0.1126  0.5336
18142SOL    HW255643   6.858   8.513   0.943  0.2561 -0.5152  0.7947
18143SOL     OW55644   6.344   8.025   0.381 -0.5444  0.4097 -0.3473
18143SOL    HW155645   6.299   7.998   0.462 -1.1641 -2.0818 -1.4397
18143SOL    HW255646   6.420   7.967   0.375 -2.1207 -1.5968 -2.9750
18144SOL     OW55647   6.753   7.774   8.234  0.2521 -0.4956  0.5260
18144SOL    HW155648   6.803   7.853   8.213  1.9940 -0.9100  2.7619
18144SOL    HW255649   6.735   7.781   8.328 -0.1521 -2.4130  0.6316
18145SOL     OW55650   5.625   0.025   2.118  0.2546 -0.3942 -0.4564
18145SOL    HW155651   5.561   0.031   2.047 -0.5648 -0.2761  0.2622
18145SOL    HW255652   5.684  -0.045   2.092  0.8855  0.6531 -1.9435
18146SOL     OW55653   5.912   0.057   0.167 -0.0271 -0.8208  0.3986
18146SOL    HW155654   5.878  -0.031   0.184  1.8368 -1.2965  2.1489
18146SOL    HW255655   5.957   0.050   0.083  0.4102 -1.6576  0.6892
18147SOL     OW55656   5.960   0.275   1.559 -0.6472  0.1010 -0.7999
18147SOL    HW155657   5.979   0.314   1.474  2.8687 -0.3022 -0.3623
18147SOL    HW255658   5.990   0.339   1.623  0.3031 -1.1069  0.0167
18148SOL     OW55659   6.971   7.422   1.062  0.5179 -0.4592 -0.3529
18148SOL    HW155660   7.019   7.420   1.145 -1.6521 -0.4713  0.9869
18148SOL    HW255661   6.941   7.332   1.050  1.4172 -0.6143 -1.5549
18149SOL     OW55662   5.731   7.623   0.350 -0.1518 -0.0418 -0.0904
18149SOL    HW155663   5.659   7.561   0.353  1.6494 -2.2542  0.3188
18149SOL    HW255664   5.804   7.577   0.391  1.8013  1.6583 -1.4368
18150SOL     OW55665   7.119   8.550   1.151 -0.2371  0.2775 -0.0517
18150SOL    HW155666   7.055   8.610   1.111 -2.8041 -1.2127  1.5196
18150SOL    HW255667   7.068   8.501   1.216  2.4447 -1.4277  0.9224
18151SOL     OW55668   5.812   8.145   1.351  0.2199  0.2806 -0.0292
18151SOL    HW155669   5.745   8.156   1.419  2.0696  1.5526  1.6981
18151SOL    HW255670   5.873   8.082   1.388  0.9776  0.5686 -0.7596
18152SOL     OW55671   6.641   7.466   1.296  0.5404  0.1738 -0.2187
18152SOL    HW155672   6.626   7.416   1.376 -0.7278  0.8626  0.0038
18152SOL    HW255673   6.736   7.472   1.289  0.7107 -1.5314  0.1871
18153SOL     OW55674   6.540   7.685   1.197 -0.4528  0.0565  0.0161
18153SOL    HW155675   6.550   7.616   1.262  1.6553  0.8928  0.7076
18153SOL    HW255676   6.592   7.656   1.122 -1.2070  0.0006 -0.4912
18154SOL     OW55677   6.158   0.110   8.547 -0.6647  0.4053 -0.4144
18154SOL    HW155678   6.244   0.089   8.511  0.0685 -1.2782  2.1030
18154SOL    HW255679   6.141   0.199   8.517  2.4302  1.1847 -0.1932
18155SOL     OW55680   7.117   7.156   0.312 -0.1958 -0.5043 -0.1105
18155SOL    HW155681   7.024   7.154   0.288 -0.2561 -1.8568  0.1690
18155SOL    HW255682   7.118   7.194   0.400 -0.4515 -0.2326 -0.2219
18156SOL     OW55683   6.657   8.052   0.565 -0.2599  0.2193 -0.1411
18156SOL    HW155684   6.578   8.023   0.610 -0.1509  0.4168  0.1860
18156SOL    HW255685   6.635   8.050   0.472 -0.7937  0.7014 -0.0248
18157SOL     OW55686   6.770   7.639   1.049  0.2899  0.2328 -0.0858
18157SOL    HW155687   6.829   7.564   1.039  0.1723  0.2014 -0.5591
18157SOL    HW255688   6.798   7.681   1.130  0.9641  0.2209 -0.3092
18158SOL     OW55689   5.310   8.458   0.187  0.1202  0.4940  0.6189
18158SOL    HW155690   5.389   8.429   0.233  0.3267  0.4089  0.2156
18158SOL    HW255691   5.240   8.451   0.252  0.3146 -0.1121  0.7651
18159SOL     OW55692   6.001   7.928   2.011 -0.1472  0.2610 -0.6283
18159SOL    HW155693   6.025   7.967   2.095 -0.8081  0.7041 -0.6347
18159SOL    HW255694   6.076   7.943   1.955 -0.0735  0.8010 -0.3878
18160SOL     OW55695   5.810   8.001   2.682 -0.0235 -0.8475 -0.1299
18160SOL    HW155696   5.758   7.978   2.605  1.4988 -0.2941 -1.3700
18160SOL    HW255697   5.856   7.921   2.705  0.2150 -0.7760 -0.3583
18161SOL     OW55698   5.707   7.844   2.433 -0.0735  0.5440 -0.1684
18161SOL    HW155699   5.624   7.819   2.473  0.7636  1.1781  2.1077
18161SOL    HW255700   5.682   7.899   2.359 -1.6885 -0.1688 -0.1906
18162SOL     OW55701   5.869   0.030   3.199  0.2941  0.2502  0.2118
18162SOL    HW155702   5.938   0.014   3.134 -1.2031 -2.4922 -0.8617
18162SOL    HW255703   5.912   0.019   3.283  1.3857 -0.5063 -0.4178
18163SOL     OW55704   7.253   0.113   2.000  0.5696 -0.7287  0.1748
18163SOL    HW155705   7.179   0.153   1.956  0.2819 -0.5675  0.7916
18163SOL    HW255706   7.214   0.054   2.064  0.9636 -0.4903  0.6458
18164SOL     OW55707   6.872   8.236   2.976 -0.1545 -0.6119  0.0477
18164SOL    HW155708   6.857   8.145   3.001 -3.1499 -1.5242 -3.9676
18164SOL    HW255709   6.800   8.284   3.016 -0.5148 -0.6774 -0.5058
18165SOL     OW55710   6.967   8.129   1.983  0.5184  0.7963  0.3095
18165SOL    HW155711   6.952   8.071   2.058  0.0397  0.2733 -0.1793
18165SOL    HW255712   7.061   8.122   1.966  0.2941 -0.8384 -0.5137
18166SOL     OW55713   5.898   8.619   2.973 -0.1325 -0.1346 -0.8413
18166SOL    HW155714   5.868   8.709   2.965  2.9406  0.9670 -1.1272
18166SOL    HW255715   5.991   8.622   2.949  1.4858 -2.4103  3.9042
18167SOL     OW55716   6.523   7.961   3.645 -0.3405  0.0160  0.1554
18167SOL    HW155717   6.529   8.013   3.565  0.3222  0.0469  0.2131
18167SOL    HW255718   6.526   8.026   3.715  1.5294 -0.1226  0.2566
18168SOL     OW55719   6.365   0.029   2.358  0.0892  0.3105  0.3482
18168SOL    HW155720   6.273   0.054   2.354 -0.1180 -0.5674 -0.7182
18168SOL    HW255721   6.374  -0.013   2.443 -0.5232  0.2762  0.4036
18169SOL     OW55722   6.372   8.595   3.991 -0.0488  0.7773  0.6030
18169SOL    HW155723   6.465   8.596   4.014  0.3276  0.6763 -0.8258
18169SOL    HW255724   6.329   8.638   4.065  1.2223  1.6185  0.8909
18170SOL     OW55725   5.354   0.251   2.668  0.1511  0.6564 -0.2308
18170SOL    HW155726   5.405   0.247   2.749  0.2048 -0.4879 -0.3016
18170SOL    HW255727   5.265   0.232   2.696 -0.2216  2.3923 -0.1469
18171SOL     OW55728   6.226   7.965   3.250  0.7005 -0.1554 -0.5604
18171SOL    HW155729   6.134   7.977   3.271  0.3049  0.2176 -2.3596
18171SOL    HW255730   6.251   7.885   3.297 -0.2760  0.2299  0.6658
18172SOL     OW55731   7.279   7.517   2.279 -0.0613 -0.3905  0.3330
18172SOL    HW155732   7.348   7.486   2.221 -0.0070 -0.6588  0.5395
18172SOL    HW255733   7.202   7.465   2.256  0.2770 -1.3881  1.3346
18173SOL     OW55734   7.158   8.441   3.642 -0.1629  0.3311 -0.0188
18173SOL    HW155735   7.195   8.478   3.561 -0.1846 -0.2990 -0.3262
18173SOL    HW255736   7.064   8.443   3.628 -0.1471 -0.2860 -0.2452
18174SOL     OW55737   5.845   8.432   2.766 -0.4177  0.5745 -0.7983
18174SOL    HW155738   5.865   8.483   2.844 -0.8290  0.6657 -0.7517
18174SOL    HW255739   5.751   8.441   2.755 -0.2212  1.3944 -1.8964
18175SOL     OW55740   6.261   8.764   2.023  0.2489  0.2434  0.2037
18175SOL    HW155741   6.337   8.816   1.998  1.5833 -1.6786  0.0601
18175SOL    HW255742   6.277   8.678   1.985 -0.1637 -1.3098  3.2279
18176SOL     OW55743   7.099   7.610   2.778 -0.2575 -0.0886  0.0815
18176SOL    HW155744   7.157   7.555   2.726  0.2431 -0.6554  1.2127
18176SOL    HW255745   7.039   7.649   2.713  0.8863 -0.0827 -1.0123
18177SOL     OW55746   6.172   8.409   2.482 -0.0880  0.2199  0.0569
18177SOL    HW155747   6.258   8.445   2.502 -0.5952  1.5303 -0.0443
18177SOL    HW255748   6.142   8.372   2.565  0.3962  0.1211  0.1937
18178SOL     OW55749   6.996   8.532   2.417  0.4674 -0.6190 -0.2788
18178SOL    HW155750   6.983   8.452   2.366  0.5488 -1.7781  1.4598
18178SOL    HW255751   7.078   8.517   2.464  0.4334  0.4599  0.1423
18179SOL     OW55752   7.315   8.542   2.147  0.4180  0.4608 -0.2115
18179SOL    HW155753   7.306   8.451   2.177  1.1930  0.2466 -0.5987
18179SOL    HW255754   7.391   8.575   2.195  0.4388  0.7475 -0.4391
18180SOL     OW55755   5.595   7.950   3.325  0.2283  0.0919  0.3878
18180SOL    HW155756   5.607   7.991   3.239 -0.9583  1.8475  0.9922
18180SOL    HW255757   5.646   8.005   3.385  1.8224 -1.6568  0.7388
18181SOL     OW55758   5.564   8.708   3.031 -0.3193 -0.2210 -0.5023
18181SOL    HW155759   5.478   8.728   2.994 -0.9802  0.5605  1.3379
18181SOL    HW255760   5.622   8.776   2.996 -0.9740  0.6334  0.0296
18182SOL     OW55761   7.011   8.484   3.256  0.6478  0.3168  0.0702
18182SOL    HW155762   7.071   8.544   3.301  2.4220 -0.8077 -0.7079
18182SOL    HW255763   6.995   8.525   3.171 -0.4519  1.0612  0.6172
18183SOL     OW55764   6.461   7.363   2.500 -0.4552  0.0030 -0.9050
18183SOL    HW155765   6.459   7.373   2.595 -0.5396  1.2920 -1.0204
18183SOL    HW255766   6.550   7.387   2.475 -0.7354  0.7460 -1.2352
18184SOL     OW55767   5.684   8.436   3.091 -0.3187  0.1305 -0.3399
18184SOL    HW155768   5.623   8.504   3.064 -0.0619  0.3207 -0.4510
18184SOL    HW255769   5.768   8.463   3.054 -0.6760 -1.5721 -2.6328
18185SOL     OW55770   7.060   8.291   2.238 -0.3389  0.5411 -0.0908
18185SOL    HW155771   7.060   8.196   2.241 -0.1645  0.5232 -0.6037
18185SOL    HW255772   7.147   8.314   2.204 -0.3325  0.8862  0.1500
18186SOL     OW55773   5.971   7.752   3.669  0.0189  0.0564  0.2888
18186SOL    HW155774   5.944   7.806   3.744  1.8734 -1.6840  2.3477
18186SOL    HW255775   5.896   7.696   3.651 -0.1574 -0.1222  1.4807
18187SOL     OW55776   6.477   0.014   3.299 -0.3622 -0.2135  0.2238
18187SOL    HW155777   6.463  -0.076   3.271 -0.2995 -0.0614 -0.3149
18187SOL    HW255778   6.502   0.007   3.391 -1.6329 -0.6546  0.5586
18188SOL     OW55779   6.744   8.553   2.596  0.4601 -0.4592  0.3108
18188SOL    HW155780   6.661   8.524   2.558 -0.1866 -0.2938  1.5613
18188SOL    HW255781   6.811   8.509   2.543 -0.3403  0.7366 -1.8428
18189SOL     OW55782   6.724   7.968   2.600  0.2168 -0.1718  0.9357
18189SOL    HW155783   6.693   7.906   2.666 -0.1759  0.3991  1.2944
18189SOL    HW255784   6.663   7.956   2.527 -0.6280  0.6461  1.4770
18190SOL     OW55785   6.570   7.982   2.875 -0.2887  0.3409  0.2800
18190SOL    HW155786   6.626   7.957   2.949 -0.5098  0.2133  0.4072
18190SOL    HW255787   6.505   8.041   2.914  0.8826  2.0418 -0.2175
18191SOL     OW55788   6.635   7.699   3.301 -0.3113  1.3359  0.4468
18191SOL    HW155789   6.641   7.726   3.393  0.5527  0.6200  0.6173
18191SOL    HW255790   6.708   7.638   3.289 -2.4112 -1.3295  0.2408
18192SOL     OW55791   6.592   8.084   3.408  0.9397  0.2198 -0.0067
18192SOL    HW155792   6.615   8.170   3.374  0.6353 -0.1076 -1.0844
18192SOL    HW255793   6.602   8.025   3.333  1.8634 -0.8085  0.8955
18193SOL     OW55794   6.282   7.006   3.281  0.4377 -0.4679 -0.0315
18193SOL    HW155795   6.356   7.034   3.228 -0.0647 -0.2128 -0.6111
18193SOL    HW255796   6.225   7.083   3.286 -0.3622 -1.0077 -0.5997
18194SOL     OW55797   6.896   8.661   2.209 -0.1142 -0.2024 -0.0041
18194SOL    HW155798   6.830   8.727   2.228 -1.9047 -1.5181 -1.3370
18194SOL    HW255799   6.912   8.619   2.294 -1.3660 -0.1681  0.2757
18195SOL     OW55800   4.963   8.017   2.980 -0.3269  0.2559 -0.1057
18195SOL    HW155801   4.927   8.057   2.900  1.1612  0.6713 -0.5849
18195SOL    HW255802   5.012   7.941   2.948  1.5964  1.3085  0.2135
18196SOL     OW55803   6.472   7.952   1.933 -0.4836  0.4969 -0.4185
18196SOL    HW155804   6.548   8.008   1.952 -0.7669  0.9744 -0.6984
18196SOL    HW255805   6.504   7.863   1.951  0.1238  0.6985 -0.4667
18197SOL     OW55806   7.548   7.996   3.979  0.5465 -0.0718 -0.2525
18197SOL    HW155807   7.471   7.951   3.944  0.5767  1.3038 -2.2262
18197SOL    HW255808   7.512   8.071   4.027  0.6187  0.4791 -1.0381
18198SOL     OW55809   7.359   0.047   2.312 -0.3537  0.4902 -0.2043
18198SOL    HW155810   7.428   0.011   2.256 -2.2639  0.4231 -2.7061
18198SOL    HW255811   7.278   0.013   2.274 -1.8911  2.3014  1.2742
18199SOL     OW55812   6.111   7.229   2.809 -0.0142  0.1390  0.0050
18199SOL    HW155813   6.099   7.195   2.720  2.5842 -0.4725 -0.2002
18199SOL    HW255814   6.086   7.157   2.866 -0.4006  0.0608 -0.2586
18200SOL     OW55815   7.533   0.128   2.988 -0.0875 -0.1920 -0.0769
18200SOL    HW155816   7.481   0.113   3.067 -0.7915 -2.9295 -0.9399
18200SOL    HW255817   7.470   0.153   2.921  0.0603 -0.8007 -0.4601
18201SOL     OW55818   6.107   8.365   2.064  0.5024 -0.2743  0.1407
18201SOL    HW155819   6.199   8.391   2.067  0.1775  1.0400 -0.3735
18201SOL    HW255820   6.095   8.331   1.975 -0.3610  3.2224 -1.2297
18202SOL     OW55821   7.115   0.201   2.674 -0.0672 -0.7392  0.2428
18202SOL    HW155822   7.049   0.180   2.741 -0.5406  0.0922  0.0543
18202SOL    HW255823   7.102   0.135   2.606  1.2773 -2.4002  1.5169
18203SOL     OW55824   6.263   8.333   3.917  0.0585  0.2859  0.1842
18203SOL    HW155825   6.200   8.364   3.852  0.4095  2.0742  0.6425
18203SOL    HW255826   6.282   8.411   3.970  1.9470 -0.4444  0.6360
18204SOL     OW55827   5.572   7.594   3.300 -0.2793 -0.4952 -0.2007
18204SOL    HW155828   5.513   7.598   3.226 -1.4990 -3.1619  0.4978
18204SOL    HW255829   5.646   7.542   3.270  0.0835 -0.0854 -0.0425
18205SOL     OW55830   6.926   8.389   1.859  0.2535 -0.2996 -0.4590
18205SOL    HW155831   6.962   8.308   1.896 -0.6949 -0.7122 -0.3891
18205SOL    HW255832   6.936   8.379   1.765  2.2871  0.5653 -0.3705
18206SOL     OW55833   7.063   7.765   1.888  0.1772 -0.1003  0.4191
18206SOL    HW155834   7.052   7.672   1.868  0.6102  0.0170 -0.4466
18206SOL    HW255835   7.143   7.770   1.939  1.0362 -0.0723 -0.8639
18207SOL     OW55836   6.366   8.194   2.746  0.6882  0.1894 -0.1865
18207SOL    HW155837   6.455   8.158   2.752  0.6374 -0.0268 -0.7159
18207SOL    HW255838   6.310   8.117   2.734  0.4841  0.3679 -0.3859
18208SOL     OW55839   6.907   7.673   3.258  0.5394 -0.1828  0.0607
18208SOL    HW155840   6.991   7.699   3.295 -0.1561  0.2078  1.4401
18208SOL    HW255841   6.927   7.597   3.203  2.1512  1.4150 -1.6712
18209SOL     OW55842   6.427   7.641   1.937  0.0589 -0.5422  0.5083
18209SOL    HW155843   6.497   7.579   1.918  1.4506  0.5972  1.6857
18209SOL    HW255844   6.405   7.625   2.028 -0.3244 -0.0463  0.5043
18210SOL     OW55845   6.586   7.917   3.179  0.0981 -0.5887 -1.0098
18210SOL    HW155846   6.588   7.828   3.216 -0.3134 -0.4089 -0.5456
18210SOL    HW255847   6.677   7.945   3.181  0.1667 -0.8228 -0.7201
18211SOL     OW55848   6.822   7.790   2.924 -0.1395  0.0601 -0.0766
18211SOL    HW155849   6.793   7.827   3.007 -1.8403  1.3181 -1.1729
18211SOL    HW255850   6.810   7.695   2.934 -0.3996  0.2007  1.0512
18212SOL     OW55851   6.267   7.931   2.661  0.1822  0.0268  0.3915
18212SOL    HW155852   6.226   7.890   2.585 -1.0217 -0.3979  1.2448
18212SOL    HW255853   6.200   7.929   2.729  0.9819  1.0685  1.2547
18213SOL     OW55854   6.221   7.609   2.844 -0.1536 -0.2955 -0.0207
18213SOL    HW155855   6.242   7.516   2.839 -0.2873 -0.3059 -0.4803
18213SOL    HW255856   6.206   7.626   2.937 -0.0951 -0.7246  0.0679
18214SOL     OW55857   6.853   7.720   2.068 -0.3404  0.0752  0.5728
18214SOL    HW155858   6.940   7.745   2.036 -0.4397 -1.2329 -0.8229
18214SOL    HW255859   6.795   7.732   1.993 -0.6677 -2.6095  0.2797
18215SOL     OW55860   5.806   8.374   1.571  0.4275  0.0035 -0.0449
18215SOL    HW155861   5.851   8.350   1.490  0.9644 -0.4015  0.3683
18215SOL    HW255862   5.763   8.293   1.599 -0.5589  0.3789 -0.4225
18216SOL     OW55863   6.485   7.685   2.317 -0.4200  0.4152  0.1761
18216SOL    HW155864   6.548   7.634   2.267  0.5318  1.1746  0.5843
18216SOL    HW255865   6.417   7.708   2.253 -0.7652 -1.1330 -0.0710
18217SOL     OW55866   6.950   8.544   2.981 -0.7812  0.3202  0.2682
18217SOL    HW155867   6.866   8.568   2.942 -0.4551  0.4118 -0.3774
18217SOL    HW255868   6.960   8.451   2.962 -0.6926  0.3286  0.2720
18218SOL     OW55869   6.719   8.623   3.199  0.0014 -0.9376  0.4012
18218SOL    HW155870   6.628   8.604   3.174  0.2544 -1.8272  0.1189
18218SOL    HW255871   6.719   8.621   3.294 -0.4286 -0.1623  0.4258
18219SOL     OW55872   6.401   8.508   2.614  0.2812 -0.3397  0.3308
18219SOL    HW155873   6.387   8.582   2.673  2.5175 -0.4648  1.0977
18219SOL    HW255874   6.457   8.543   2.545  1.2334 -1.2527  0.6121
18220SOL     OW55875   6.697   8.117   1.858  0.0549  0.9182 -0.2824
18220SOL    HW155876   6.704   8.083   1.769 -0.9020 -0.7729  0.2393
18220SOL    HW255877   6.781   8.092   1.899 -0.7542 -1.2780  0.1892
18221SOL     OW55878   5.306   7.856   3.274 -0.1649  0.1533 -0.1209
18221SOL    HW155879   5.316   7.848   3.180 -3.2076 -0.8837 -0.4793
18221SOL    HW255880   5.245   7.930   3.286  1.4301  1.3488  1.1890
18222SOL     OW55881   5.942   7.987   3.339  0.4720  0.5522 -0.3102
18222SOL    HW155882   5.895   8.049   3.395 -0.0584  0.9816 -1.2121
18222SOL    HW255883   5.943   7.905   3.389  0.4607  1.0590  0.5378
18223SOL     OW55884   6.459   8.227   2.432  0.2883 -0.1732 -0.0058
18223SOL    HW155885   6.454   8.275   2.515  0.0282  1.3282 -0.8561
18223SOL    HW255886   6.434   8.137   2.455 -0.2348  0.3099  1.4530
18224SOL     OW55887   6.625   7.619   2.533 -0.2875  0.6592 -0.5856
18224SOL    HW155888   6.584   7.649   2.452 -1.3602 -1.0904 -0.7566
18224SOL    HW255889   6.559   7.635   2.601 -0.1544  0.3906 -0.3875
18225SOL     OW55890   6.595   0.192   3.148 -0.2393  0.2354 -0.3464
18225SOL    HW155891   6.552   0.129   3.206 -0.5433  0.2811 -0.5204
18225SOL    HW255892   6.650   0.138   3.090  0.5269  0.2304  0.3594
18226SOL     OW55893   7.231   8.132   2.577  0.4768 -0.5124  0.5524
18226SOL    HW155894   7.268   8.217   2.553  1.6575 -1.0454  0.4411
18226SOL    HW255895   7.148   8.153   2.620  0.6038  0.6776  0.2414
18227SOL     OW55896   7.780   8.076   2.438  0.0331 -0.2171 -0.2148
18227SOL    HW155897   7.777   8.075   2.533  0.0793  2.9303 -0.0566
18227SOL    HW255898   7.861   8.029   2.416  0.2234 -0.6508  1.3144
18228SOL     OW55899   7.560   8.756   2.192  0.0830  0.7005  0.1644
18228SOL    HW155900   7.578   8.710   2.274  0.5279  0.5230 -0.0303
18228SOL    HW255901   7.598   8.700   2.124  1.2593  1.6901 -0.0134
18229SOL     OW55902   7.309   7.919   1.655 -0.0385 -0.4372 -0.1296
18229SOL    HW155903   7.299   7.903   1.749  1.2062 -0.4247  0.0110
18229SOL    HW255904   7.395   7.884   1.633  0.5351  1.3581 -0.8705
18230SOL     OW55905   6.163   7.800   2.420  0.3910  0.4751  0.6409
18230SOL    HW155906   6.101   7.733   2.449 -1.5082  1.4081 -0.9982
18230SOL    HW255907   6.210   7.759   2.347  0.9597  0.1438  1.1811
18231SOL     OW55908   7.828   0.014   3.118  0.0995 -0.1072 -0.4655
18231SOL    HW155909   7.848   0.083   3.056  0.6616 -0.7835 -1.0575
18231SOL    HW255910   7.904  -0.044   3.115 -0.0463 -0.3778  0.5433
18232SOL     OW55911   6.736   8.717   3.477 -0.3590  0.1680 -0.3942
18232SOL    HW155912   6.676   8.773   3.526  0.1185 -0.1249  0.5553
18232SOL    HW255913   6.805   8.776   3.447 -0.3505  0.2517 -0.2113
18233SOL     OW55914   6.943   0.032   3.375  0.4661  0.0066 -0.5547
18233SOL    HW155915   6.945   0.124   3.347  1.4142  0.5229  1.0680
18233SOL    HW255916   7.024  -0.005   3.341  0.3495 -0.0909 -0.7304
18234SOL     OW55917   7.397   0.181   2.763 -0.5618  0.5843  0.0170
18234SOL    HW155918   7.438   0.237   2.697  1.3476 -0.5529  0.1416
18234SOL    HW255919   7.303   0.190   2.748 -0.2168  1.5684 -1.8336
18235SOL     OW55920   5.930   6.685   3.331 -0.0312 -0.5468  0.1585
18235SOL    HW155921   5.959   6.598   3.360 -0.3255 -0.1444  1.7596
18235SOL    HW255922   5.851   6.702   3.383 -1.3327 -0.2843 -1.8289
18236SOL     OW55923   6.892   8.480   3.586 -0.5183  0.5179  0.0968
18236SOL    HW155924   6.827   8.500   3.653 -0.5586  2.3799 -0.4417
18236SOL    HW255925   6.871   8.539   3.513  0.6127 -0.1926 -0.8494
18237SOL     OW55926   6.569   8.829   2.609  0.4285  0.5418  0.1499
18237SOL    HW155927   6.619   8.785   2.678  0.4234 -1.2614 -0.9483
18237SOL    HW255928   6.480   8.832   2.642  0.5055  0.0979  0.4007
18238SOL     OW55929   5.765   8.338   3.343 -0.2082 -0.7525 -0.2790
18238SOL    HW155930   5.727   8.374   3.264  0.6652 -0.5409 -0.6176
18238SOL    HW255931   5.859   8.354   3.334 -0.3032  1.9960  2.1312
18239SOL     OW55932   6.360   7.362   2.783 -0.0806 -0.2776  0.2362
18239SOL    HW155933   6.429   7.313   2.828 -1.1199 -1.0262  1.0280
18239SOL    HW255934   6.280   7.312   2.797 -0.8041  0.5548 -0.7131
18240SOL     OW55935   6.533   8.598   2.388 -0.6677  0.4887 -0.2948
18240SOL    HW155936   6.620   8.638   2.393 -0.3629 -0.2684  0.7802
18240SOL    HW255937   6.495   8.635   2.308  0.8515  0.4023 -1.1030
18241SOL     OW55938   5.776   7.717   2.939  0.0563  0.0079  0.1675
18241SOL    HW155939   5.730   7.649   2.890 -0.6895 -0.2911  1.2300
18241SOL    HW255940   5.859   7.727   2.894  0.1705 -1.5952 -0.0550
18242SOL     OW55941   6.759   8.849   2.424 -0.0596 -0.3735 -0.3587
18242SOL    HW155942   6.676   8.872   2.466  0.3069  0.0835  0.1334
18242SOL    HW255943   6.825   8.875   2.488  0.4954 -0.0140 -1.0706
18243SOL     OW55944   7.350   7.833   1.933  0.0660 -0.6510 -0.5264
18243SOL    HW155945   7.406   7.756   1.938  1.4611  0.3333  3.5987
18243SOL    HW255946   7.410   7.907   1.934 -1.1614  0.4317  1.3984
18244SOL     OW55947   6.212   8.174   3.411 -0.7127 -0.0981 -0.0682
18244SOL    HW155948   6.232   8.113   3.341  1.5482  0.6085 -0.1209
18244SOL    HW255949   6.171   8.121   3.479 -1.0146 -1.1870 -1.0803
18245SOL     OW55950   7.305   8.006   3.823 -0.1704 -0.1552  0.2089
18245SOL    HW155951   7.306   8.044   3.735 -1.2257  1.1792  0.7378
18245SOL    HW255952   7.252   7.926   3.814 -0.1986 -0.0766 -0.3744
18246SOL     OW55953   6.379   7.508   3.640 -0.0498  0.0400  0.1139
18246SOL    HW155954   6.302   7.558   3.615  0.0244  0.5250  0.8269
18246SOL    HW255955   6.411   7.551   3.719  1.1494  0.0497 -0.3551
18247SOL     OW55956   5.951   7.453   3.500  0.5230 -0.3756 -0.1961
18247SOL    HW155957   5.893   7.390   3.456 -0.6394  0.2444  0.3875
18247SOL    HW255958   5.900   7.483   3.576  0.9046  1.5137 -0.6307
18248SOL     OW55959   6.559   8.410   2.862  0.6383  0.2732  0.7980
18248SOL    HW155960   6.468   8.382   2.850  0.0887  1.6658  1.5439
18248SOL    HW255961   6.609   8.353   2.803 -0.8852  0.5404 -0.8459
18249SOL     OW55962   6.728   8.831   3.029  0.1222  0.2728  0.1798
18249SOL    HW155963   6.744   8.781   3.109  1.1576  1.9221  1.0713
18249SOL    HW255964   6.731   8.767   2.959  0.8364 -0.9816  1.3164
18250SOL     OW55965   6.927   7.909   1.691  0.3837 -0.3096  0.1736
18250SOL    HW155966   6.980   7.863   1.755 -0.8483  0.2219  1.6235
18250SOL    HW255967   6.840   7.868   1.696  0.4611 -0.8216 -1.7807
18251SOL     OW55968   5.806   7.505   3.161  0.4571  0.1652 -0.3971
18251SOL    HW155969   5.797   7.575   3.096  1.0970  0.1608 -0.4964
18251SOL    HW255970   5.811   7.425   3.109 -2.0900 -0.1831 -0.2387
18252SOL     OW55971   5.348   0.433   3.140  0.5103 -0.2309 -0.0648
18252SOL    HW155972   5.325   0.526   3.129 -1.0165 -0.3906  1.3395
18252SOL    HW255973   5.375   0.426   3.232 -0.8270 -1.4142  0.2738
18253SOL     OW55974   6.029   8.307   3.062 -0.3967 -0.0867  0.2011
18253SOL    HW155975   5.998   8.345   3.144  1.4358 -1.2551  1.4965
18253SOL    HW255976   5.979   8.225   3.054 -0.1940 -0.2329  0.4290
18254SOL     OW55977   7.591   8.524   3.489 -0.1346  0.2941  0.0986
18254SOL    HW155978   7.561   8.586   3.555 -0.9014 -0.2641  0.2962
18254SOL    HW255979   7.589   8.439   3.533  1.7794  0.2130  0.1120
18255SOL     OW55980   5.925   7.711   2.308  0.2308  0.2443  0.2721
18255SOL    HW155981   5.870   7.728   2.384  1.5032 -1.0072  1.5411
18255SOL    HW255982   5.885   7.761   2.237 -3.1877 -1.4129  0.8192
18256SOL     OW55983   7.288   8.152   1.949  0.2762  0.1536  0.1774
18256SOL    HW155984   7.316   8.233   1.908 -1.7202  1.1535  0.7000
18256SOL    HW255985   7.370   8.109   1.975  1.4076  1.4186 -1.1260
18257SOL     OW55986   6.445   7.722   2.750  0.3085 -0.0575  1.0143
18257SOL    HW155987   6.364   7.681   2.779 -0.0210  0.2786  0.5797
18257SOL    HW255988   6.438   7.814   2.777  0.4514  0.0210  0.7961
18258SOL     OW55989   7.632   0.006   3.303 -0.6254 -0.7102 -0.5063
18258SOL    HW155990   7.677   0.042   3.379 -1.3792  1.1727 -0.8876
18258SOL    HW255991   7.699   0.002   3.235 -0.3881 -0.6164 -0.2788
18259SOL     OW55992   5.724   8.116   3.482  0.5194  0.4673 -0.0187
18259SOL    HW155993   5.781   8.141   3.555  0.1596  1.7778 -0.1746
18259SOL    HW255994   5.702   8.198   3.439 -1.4880  0.0011  0.0267
18260SOL     OW55995   7.046   7.438   1.905  0.4682 -0.4664  0.7900
18260SOL    HW155996   7.054   7.399   1.992 -1.7424  0.3549  1.4391
18260SOL    HW255997   6.961   7.408   1.873 -1.3802  3.5423  1.3279
18261SOL     OW55998   6.777   8.109   1.532 -0.1499 -0.2408  0.0729
18261SOL    HW155999   6.790   8.015   1.515  1.0586 -0.2453  0.8885
18261SOL    HW256000   6.701   8.133   1.479  0.2757 -1.4063 -1.1061
18262SOL     OW56001   5.383   8.164   2.782 -0.3798  0.1905 -0.3705
18262SOL    HW156002   5.387   8.074   2.815 -2.4084  0.1136 -0.1977
18262SOL    HW256003   5.354   8.216   2.856 -3.5952  0.2406 -1.5134
18263SOL     OW56004   5.594   8.175   3.129  0.5559 -0.0889  0.1811
18263SOL    HW156005   5.635   8.114   3.067  1.2873 -0.3501  0.9066
18263SOL    HW256006   5.604   8.261   3.088 -1.3700 -0.5259 -1.3246
18264SOL     OW56007   6.285   7.332   3.130  0.1590  0.4879  0.2949
18264SOL    HW156008   6.248   7.420   3.115  0.7353  0.5007 -1.1966
18264SOL    HW256009   6.249   7.306   3.214 -0.9099  1.7094  0.2580
18265SOL     OW56010   6.554   7.406   3.162 -0.0809  0.1861  0.0373
18265SOL    HW156011   6.558   7.486   3.214 -0.1818 -0.1469  0.5673
18265SOL    HW256012   6.469   7.368   3.183  0.0331 -0.1425 -0.0870
18266SOL     OW56013   5.454   8.742   1.381  0.4292  0.8301  0.0186
18266SOL    HW156014   5.494   8.818   1.422  1.2255  0.6548 -0.4046
18266SOL    HW256015   5.481   8.668   1.435 -0.7641  0.8835  0.7259
18267SOL     OW56016   6.705   8.351   3.360 -0.2604 -0.5465  0.2457
18267SOL    HW156017   6.787   8.400   3.352 -1.1476  0.7872 -1.2276
18267SOL    HW256018   6.676   8.338   3.270 -1.5869 -1.1445  0.7301
18268SOL     OW56019   5.380   7.834   3.007 -0.1272 -0.6156 -0.6161
18268SOL    HW156020   5.334   7.829   2.923  0.8491 -1.7086 -1.1146
18268SOL    HW256021   5.460   7.883   2.988 -0.6247  0.4926  0.0450
18269SOL     OW56022   7.013   8.210   3.380 -0.8195 -0.2046  0.0513
18269SOL    HW156023   7.008   8.288   3.325  0.3971  0.5194  0.9132
18269SOL    HW256024   7.070   8.149   3.332 -1.0246 -0.1921 -0.2041
18270SOL     OW56025   6.749   8.297   2.429  0.0082  0.5478 -0.0807
18270SOL    HW156026   6.735   8.323   2.338 -0.4251 -2.4357 -0.9653
18270SOL    HW256027   6.686   8.226   2.444  1.9865 -0.9805  1.5866
18271SOL     OW56028   7.111   7.933   2.973 -0.4355 -0.1154  0.0587
18271SOL    HW156029   7.105   7.837   2.969  0.3203 -0.1568 -2.7310
18271SOL    HW256030   7.067   7.962   2.893  1.6307  1.6921 -0.5021
18272SOL     OW56031   6.002   8.192   2.676  0.6645 -0.1037 -0.0897
18272SOL    HW156032   5.930   8.128   2.675 -0.8015  1.4729  0.3651
18272SOL    HW256033   5.959   8.276   2.694  2.8352  0.6206  2.2792
18273SOL     OW56034   6.478   7.924   2.457 -0.0255 -0.3060  0.5488
18273SOL    HW156035   6.481   7.841   2.410  1.2255 -0.2691  0.5305
18273SOL    HW256036   6.438   7.902   2.541 -0.3104 -0.7952  0.2900
18274SOL     OW56037   5.774   8.415   3.635 -0.6029  0.3538  0.6737
18274SOL    HW156038   5.768   8.426   3.540  0.9280 -0.8265  0.3907
18274SOL    HW256039   5.686   8.435   3.668 -0.9396  1.6163 -0.8817
18275SOL     OW56040   7.189   8.810   3.262 -0.3001  0.5904 -0.3335
18275SOL    HW156041   7.265   8.867   3.251  1.7336 -1.7440  0.7020
18275SOL    HW256042   7.155   8.797   3.174  1.0779  0.9767 -0.9504
18276SOL     OW56043   7.093   8.137   1.714  0.3439 -0.3352  0.0714
18276SOL    HW156044   7.037   8.064   1.689 -0.0127  0.1415 -0.5328
18276SOL    HW256045   7.139   8.105   1.792  0.0728 -1.1414 -0.0821
18277SOL     OW56046   5.383   0.115   3.147 -0.4793  0.0385  0.2970
18277SOL    HW156047   5.367   0.207   3.128  1.4769  0.3009 -0.3446
18277SOL    HW256048   5.368   0.069   3.064  2.1072  0.3525 -0.4547
18278SOL     OW56049   7.196   7.751   2.138 -0.2631 -0.4802  0.0779
18278SOL    HW156050   7.218   7.679   2.197 -0.7596 -0.7155 -0.0181
18278SOL    HW256051   7.280   7.779   2.102 -0.1403 -1.6228 -0.5889
18279SOL     OW56052   6.929   0.152   2.905 -0.1148  0.0835  0.2140
18279SOL    HW156053   6.871   0.136   2.980  0.2971  0.9643  0.7460
18279SOL    HW256054   6.870   0.172   2.833 -0.5013 -0.0369  0.4937
18280SOL     OW56055   6.389   8.403   3.418 -0.0310  0.3809  0.0273
18280SOL    HW156056   6.338   8.324   3.401 -0.8662  1.0060 -0.4348
18280SOL    HW256057   6.448   8.378   3.489 -0.7954 -0.4422  0.3972
18281SOL     OW56058   7.052   7.999   2.218 -0.3676 -0.6165  0.3193
18281SOL    HW156059   7.128   7.943   2.202  2.4571  2.8259  0.3898
18281SOL    HW256060   7.003   7.954   2.287  1.8198 -2.8216  0.5777
18282SOL     OW56061   5.989   7.770   2.727  1.0028 -0.0943 -0.6437
18282SOL    HW156062   5.937   7.696   2.694 -1.2261  0.9111  0.4665
18282SOL    HW256063   6.060   7.728   2.777 -0.9879 -1.5225  1.1354
18283SOL     OW56064   6.584   8.385   3.617  0.3583 -0.2646  0.0483
18283SOL    HW156065   6.634   8.377   3.537 -0.7906  0.4356 -0.7754
18283SOL    HW256066   6.634   8.446   3.671  2.1719 -2.2478  0.7482
18284SOL     OW56067   6.728   8.633   2.850  0.1307  0.8881 -0.0416
18284SOL    HW156068   6.760   8.612   2.763  0.6472 -0.9883  0.5506
18284SOL    HW256069   6.653   8.574   2.863 -0.9614  2.2639  0.2082
18285SOL     OW56070   6.174   8.663   3.708  0.6987 -0.2983  0.3360
18285SOL    HW156071   6.118   8.738   3.727 -0.3045 -0.1685 -2.5907
18285SOL    HW256072   6.128   8.589   3.746  0.5018  0.2760  1.2440
18286SOL     OW56073   7.201   0.319   3.283 -0.7466  0.3232  0.8747
18286SOL    HW156074   7.252   0.400   3.282 -1.5434  0.8775 -1.9792
18286SOL    HW256075   7.112   0.346   3.304 -1.0574  0.2521 -0.2912
18287SOL     OW56076   6.160   8.398   2.804 -0.1755 -0.2964 -0.6348
18287SOL    HW156077   6.232   8.336   2.793 -0.4617 -0.9089  0.7169
18287SOL    HW256078   6.094   8.349   2.852 -1.0284  0.6123 -0.8650
18288SOL     OW56079   5.831   7.244   3.029 -1.1233 -0.5895  0.0408
18288SOL    HW156080   5.748   7.204   3.005 -0.2350 -2.1180 -0.6715
18288SOL    HW256081   5.896   7.175   3.013  0.3934  0.8491 -0.2944
18289SOL     OW56082   7.165   7.745   3.331 -0.0460 -0.2100  0.4363
18289SOL    HW156083   7.170   7.760   3.237  0.3471 -0.1039  0.4696
18289SOL    HW256084   7.225   7.810   3.369 -0.9851  0.4434  0.8336
18290SOL     OW56085   5.792   8.074   3.797  0.2533  0.0780  0.0816
18290SOL    HW156086   5.785   8.145   3.861  0.0456  0.7865 -0.7011
18290SOL    HW256087   5.866   8.022   3.826  0.3466  0.5603  0.7293
18291SOL     OW56088   6.383   8.131   3.035 -0.5458 -0.3678  0.1926
18291SOL    HW156089   6.382   8.066   3.105 -1.4758  0.3476  0.8613
18291SOL    HW256090   6.298   8.123   2.993  0.3589 -1.4947 -1.5644
18292SOL     OW56091   5.944   7.796   1.715 -0.5291 -0.0908  0.2755
18292SOL    HW156092   6.009   7.858   1.749  1.7447 -1.4207 -1.4634
18292SOL    HW256093   5.898   7.766   1.794  2.0754 -0.3478  1.8107
18293SOL     OW56094   7.170   8.074   3.213 -0.3334 -0.3988 -0.0009
18293SOL    HW156095   7.262   8.100   3.206 -0.4249 -0.1595 -0.3338
18293SOL    HW256096   7.150   8.036   3.127 -0.8837  0.6317 -0.3367
18294SOL     OW56097   5.450   7.927   1.844 -0.1112  0.3636 -1.1822
18294SOL    HW156098   5.377   7.876   1.807  0.3448 -0.5748 -0.8192
18294SOL    HW256099   5.518   7.924   1.776 -0.7487  2.1055 -1.9589
18295SOL     OW56100   6.018   8.383   3.342 -0.3785  0.2002 -0.2233
18295SOL    HW156101   6.054   8.463   3.382  0.8311  0.6582 -2.1082
18295SOL    HW256102   6.080   8.314   3.367  0.2489  0.4436 -1.0465
18296SOL     OW56103   6.856   7.940   3.183  0.0010 -0.0772 -0.3080
18296SOL    HW156104   6.880   7.852   3.212 -1.4362  0.1780  1.9194
18296SOL    HW256105   6.935   7.993   3.198  1.6940 -1.2644 -3.8187
18297SOL     OW56106   7.256   8.582   3.417 -0.1702  0.1445 -0.1823
18297SOL    HW156107   7.233   8.670   3.388 -0.1364 -0.0871 -0.9369
18297SOL    HW256108   7.343   8.566   3.381  0.0909  0.0389  0.4872
18298SOL     OW56109   7.115   8.774   2.993  0.4359  0.4469  0.3543
18298SOL    HW156110   7.046   8.708   2.986  2.1301 -1.3049 -1.1293
18298SOL    HW256111   7.095   8.837   2.923  1.3511 -1.1641 -1.4574
18299SOL     OW56112   6.951   7.607   2.306  0.3101  0.1387  0.2977
18299SOL    HW156113   6.904   7.629   2.226  0.7585  1.8225  0.4447
18299SOL    HW256114   6.991   7.690   2.333  2.5635 -1.0170  0.7036
18300SOL     OW56115   6.659   8.225   2.689  0.0858 -0.1776 -0.3873
18300SOL    HW156116   6.689   8.140   2.658 -1.5023 -0.4316 -1.3317
18300SOL    HW256117   6.699   8.288   2.628 -1.5563 -0.5464 -1.9316
18301SOL     OW56118   7.442   7.566   3.461 -0.1916 -0.2942  0.1942
18301SOL    HW156119   7.392   7.643   3.435 -0.5099 -0.7126 -0.4540
18301SOL    HW256120   7.437   7.566   3.557 -1.8766 -0.5951  0.1473
18302SOL     OW56121   7.479   8.602   3.247  0.3594  0.1421  0.1702
18302SOL    HW156122   7.547   8.573   3.308 -0.8714 -0.0174  1.5203
18302SOL    HW256123   7.490   8.696   3.241  0.6095  0.1368  0.5048
18303SOL     OW56124   6.590   8.386   1.996 -0.3797 -0.2059  0.4807
18303SOL    HW156125   6.651   8.385   2.070  0.3126  0.9549 -0.0589
18303SOL    HW256126   6.604   8.301   1.953  0.8669  0.0452  0.3614
18304SOL     OW56127   6.620   8.305   3.099 -0.0381  0.1440  0.0783
18304SOL    HW156128   6.593   8.363   3.028  1.4163 -0.6444 -1.1775
18304SOL    HW256129   6.557   8.233   3.097  0.2014 -0.0493 -0.6633
18305SOL     OW56130   6.785   8.389   2.168 -0.0385  0.2340  0.0555
18305SOL    HW156131   6.815   8.480   2.161  1.4556 -0.1010  1.4444
18305SOL    HW256132   6.861   8.337   2.141 -0.8540 -0.6253 -0.6537
18306SOL     OW56133   6.012   8.440   3.805 -0.1251 -0.2113  0.6908
18306SOL    HW156134   5.947   8.389   3.756 -1.3474  1.5352  0.3820
18306SOL    HW256135   5.966   8.468   3.884  0.0004  1.6040  0.1575
18307SOL     OW56136   5.664   8.336   2.397 -0.8907  0.6527 -0.1394
18307SOL    HW156137   5.741   8.286   2.371 -1.4334 -0.3939  0.2354
18307SOL    HW256138   5.639   8.385   2.318  1.4583  2.8083  0.3173
18308SOL     OW56139   6.478   0.403   3.612  0.3062  0.3768 -0.1223
18308SOL    HW156140   6.558   0.353   3.630 -1.4461 -2.8326 -0.5476
18308SOL    HW256141   6.506   0.472   3.551  2.3622 -2.2052 -2.3442
18309SOL     OW56142   7.205   7.463   2.590  0.1814 -0.4051 -0.4123
18309SOL    HW156143   7.214   7.497   2.501 -1.1575 -0.1004 -0.4475
18309SOL    HW256144   7.148   7.387   2.581  0.4099 -0.6427  0.1309
18310SOL     OW56145   6.077   8.086   2.410 -0.3727  0.3958 -0.0097
18310SOL    HW156146   6.119   8.000   2.415  0.6951  0.7763 -1.7128
18310SOL    HW256147   6.061   8.110   2.501  0.7771 -0.9098  0.5694
18311SOL     OW56148   6.958   0.739   3.487 -0.6266 -0.0288 -0.2409
18311SOL    HW156149   6.904   0.777   3.418  0.6575  0.0232 -1.2387
18311SOL    HW256150   6.915   0.656   3.508 -2.5684  1.1883  0.8639
18312SOL     OW56151   5.885   8.023   3.065 -0.0115  0.0424 -0.3650
18312SOL    HW156152   5.807   7.968   3.056  1.2281 -1.8838  0.0207
18312SOL    HW256153   5.913   8.011   3.156  1.7522 -0.7970 -0.9668
18313SOL     OW56154   6.658   7.506   2.942  0.3519 -0.0930 -0.0092
18313SOL    HW156155   6.606   7.451   3.000 -1.3189 -0.0696 -1.4067
18313SOL    HW256156   6.605   7.584   2.928  1.9683  1.1819  0.6244
18314SOL     OW56157   6.323   6.737   3.099 -0.0238 -0.5606 -0.0395
18314SOL    HW156158   6.330   6.828   3.129  0.8992 -0.3770 -0.7650
18314SOL    HW256159   6.228   6.720   3.097 -0.2251  0.4885 -0.1961
18315SOL     OW56160   6.306   8.831   2.705 -0.0370  0.2565  0.0762
18315SOL    HW156161   6.217   8.815   2.672 -0.2925  0.3028  0.7258
18315SOL    HW256162   6.293   8.856   2.796  0.6661  0.0058  0.2493
18316SOL     OW56163   6.896   7.547   2.581 -0.2810  0.5884  1.0522
18316SOL    HW156164   6.928   7.569   2.494 -0.6697  1.7270  1.1847
18316SOL    HW256165   6.804   7.572   2.580 -0.4106  0.1574  1.6383
18317SOL     OW56166   6.964   7.857   2.427  0.3507 -0.5406 -0.3242
18317SOL    HW156167   7.038   7.866   2.488  0.5823 -1.9995 -0.3500
18317SOL    HW256168   6.889   7.894   2.474  0.9991  0.6165 -0.1477
18318SOL     OW56169   6.962   7.852   2.703  1.0406  0.3099 -0.1131
18318SOL    HW156170   6.936   7.821   2.789  0.9272 -0.2247 -0.3319
18318SOL    HW256171   6.898   7.919   2.681 -0.0328 -0.8156 -0.5392
18319SOL     OW56172   5.668   8.503   2.138  0.4714 -0.1443 -0.0945
18319SOL    HW156173   5.696   8.428   2.084 -0.4818  0.0085 -0.8135
18319SOL    HW256174   5.679   8.579   2.081  1.3778  0.2813  0.6144
18320SOL     OW56175   5.962   7.913   3.979 -0.5571 -0.3298 -0.2013
18320SOL    HW156176   5.904   7.838   3.991 -1.7770  0.7280  0.8688
18320SOL    HW256177   6.025   7.906   4.051 -1.3047  0.1939  0.5286
18321SOL     OW56178   5.969   7.673   4.545  0.1543  0.0415  0.1087
18321SOL    HW156179   5.878   7.700   4.536  0.0915 -0.2072 -0.0078
18321SOL    HW256180   5.972   7.621   4.625  0.1356 -0.1908 -0.0403
18322SOL     OW56181   5.528   8.248   4.400  0.0626 -0.2343 -0.1770
18322SOL    HW156182   5.616   8.239   4.436 -0.5728 -2.4883  0.9760
18322SOL    HW256183   5.512   8.342   4.401  2.4791  0.2584 -0.5547
18323SOL     OW56184   6.053   8.708   5.007 -0.6699 -0.3617 -0.2784
18323SOL    HW156185   6.042   8.615   4.992  0.4196 -0.8478  1.5317
18323SOL    HW256186   5.992   8.751   4.947 -0.5443 -2.1893 -1.7814
18324SOL     OW56187   7.115   0.295   4.271  0.1288  0.0650 -0.0319
18324SOL    HW156188   7.169   0.215   4.273  0.9302  0.5334 -1.3616
18324SOL    HW256189   7.151   0.350   4.341  0.5813 -0.1312 -0.1034
18325SOL     OW56190   6.789   8.114   4.194 -0.0708 -0.4690  0.3699
18325SOL    HW156191   6.838   8.158   4.263 -0.1350  1.0754 -0.5337
18325SOL    HW256192   6.807   8.165   4.115  1.8171 -3.4385 -1.3107
18326SOL     OW56193   7.875   7.939   3.983  0.3584 -0.2109  0.5193
18326SOL    HW156194   7.847   8.012   3.929  0.9662  0.3955  0.9961
18326SOL    HW256195   7.856   7.861   3.931  0.3538  0.3225 -0.2909
18327SOL     OW56196   6.146   8.114   4.933 -0.0729 -1.1072 -0.6942
18327SOL    HW156197   6.228   8.149   4.898 -0.3436  0.9899  0.6103
18327SOL    HW256198   6.168   8.083   5.020 -0.4998 -1.3537 -0.6699
18328SOL     OW56199   6.225   8.423   5.852 -0.0162  0.1391 -0.2282
18328SOL    HW156200   6.264   8.359   5.792  0.2895  2.1694 -2.3491
18328SOL    HW256201   6.299   8.475   5.884 -0.3768  0.1854  0.5542
18329SOL     OW56202   6.528   8.657   4.579 -0.2931 -0.2547 -0.2291
18329SOL    HW156203   6.462   8.593   4.554 -0.3542  0.4128 -1.9270
18329SOL    HW256204   6.479   8.739   4.586  0.0608 -0.0878  0.2577
18330SOL     OW56205   6.030   8.629   5.691  0.1763 -0.2461  0.1157
18330SOL    HW156206   5.976   8.694   5.736  0.2877  0.4734 -0.7641
18330SOL    HW256207   6.027   8.552   5.748 -1.4289 -0.0880  0.2796
18331SOL     OW56208   6.038   8.446   4.983  0.1879 -0.1671 -0.3469
18331SOL    HW156209   5.971   8.379   4.997 -0.1190  0.4414  1.4221
18331SOL    HW256210   6.097   8.408   4.918 -0.1969 -1.9909  0.3126
18332SOL     OW56211   5.669   7.902   5.222  0.1750 -0.2258 -0.2836
18332SOL    HW156212   5.714   7.818   5.226  0.9539  0.1813 -0.1660
18332SOL    HW256213   5.704   7.951   5.297 -0.1860  0.2396 -0.4149
18333SOL     OW56214   7.088   7.741   4.074 -0.0058 -0.0512  0.0377
18333SOL    HW156215   7.082   7.648   4.092  0.4028 -0.1601 -0.3557
18333SOL    HW256216   7.001   7.776   4.092 -0.2609 -0.5747 -0.1911
18334SOL     OW56217   7.045   0.200   5.003 -0.1827 -0.1813 -0.8497
18334SOL    HW156218   7.038   0.105   5.017  2.5014 -0.3699 -0.2093
18334SOL    HW256219   7.075   0.235   5.087 -1.0875  1.2616 -1.0940
18335SOL     OW56220   6.239   8.553   4.559 -0.0296  0.1179  0.0293
18335SOL    HW156221   6.253   8.524   4.469  1.1482 -0.1866  0.2871
18335SOL    HW256222   6.168   8.616   4.554  0.6545  0.8080 -1.2494
18336SOL     OW56223   6.476   8.206   3.806 -0.1539  0.6939  0.0002
18336SOL    HW156224   6.401   8.243   3.853  1.0138  2.1134  0.8340
18336SOL    HW256225   6.499   8.273   3.742  1.1827  0.8710  0.6266
18337SOL     OW56226   6.868   7.287   4.863 -0.2296 -0.6916 -0.9772
18337SOL    HW156227   6.878   7.275   4.957  1.0699  0.5566 -0.9211
18337SOL    HW256228   6.782   7.250   4.843 -0.8811 -0.2548  0.8390
18338SOL     OW56229   5.811   8.538   3.969 -0.3795  0.3933  0.1049
18338SOL    HW156230   5.790   8.617   3.919  0.5152 -0.0690 -1.0294
18338SOL    HW256231   5.817   8.569   4.060 -2.2973  1.1891 -0.0044
18339SOL     OW56232   6.715   7.892   3.878  0.3380  0.9578  0.4323
18339SOL    HW156233   6.764   7.840   3.942  0.2321  2.1187  1.5086
18339SOL    HW256234   6.779   7.953   3.842  0.0089  1.5424  0.8102
18340SOL     OW56235   7.396   8.217   4.109  0.0265 -0.1948  0.4112
18340SOL    HW156236   7.316   8.169   4.130 -0.9608  1.6090  0.9642
18340SOL    HW256237   7.372   8.275   4.036  0.8316  0.3361  0.5493
18341SOL     OW56238   5.496   7.936   4.735 -0.1277 -0.1650 -0.3756
18341SOL    HW156239   5.498   8.013   4.792  0.4808  0.9241 -1.7896
18341SOL    HW256240   5.562   7.955   4.668 -1.9784 -0.5994 -2.4037
18342SOL     OW56241   6.411   8.361   5.018  0.4072  0.7340 -0.2827
18342SOL    HW156242   6.504   8.380   5.033  0.5777  1.7606 -2.3561
18342SOL    HW256243   6.393   8.394   4.930 -1.9005  0.4184  0.0036
18343SOL     OW56244   6.636   0.319   5.446 -0.7419 -0.0876  0.0837
18343SOL    HW156245   6.690   0.239   5.448 -0.6810 -0.0401  0.4280
18343SOL    HW256246   6.580   0.308   5.369 -0.2252 -0.1278 -0.2910
18344SOL     OW56247   6.075   7.471   3.828  0.7544  0.6285  0.2402
18344SOL    HW156248   6.087   7.540   3.893  0.3977  2.0789 -1.1668
18344SOL    HW256249   6.015   7.409   3.869 -0.7790  2.3477  0.6903
18345SOL     OW56250   5.720   8.437   4.793  0.0981 -0.0591 -0.0841
18345SOL    HW156251   5.647   8.377   4.805 -0.2710  0.5489  0.7623
18345SOL    HW256252   5.798   8.381   4.802 -0.2169 -0.2974  1.6375
18346SOL     OW56253   7.486   8.377   3.694  0.5786  0.1837 -0.3236
18346SOL    HW156254   7.493   8.471   3.712 -3.8206  0.6209  0.0605
18346SOL    HW256255   7.467   8.338   3.779 -1.1110 -0.4868 -0.9611
18347SOL     OW56256   5.748   7.738   5.622 -0.2467 -0.5889  0.0555
18347SOL    HW156257   5.695   7.659   5.625 -1.3151  0.0910 -0.3130
18347SOL    HW256258   5.755   7.767   5.713 -0.8446 -0.4739  0.0679
18348SOL     OW56259   6.806   8.266   5.051  0.3169  0.1324 -0.3040
18348SOL    HW156260   6.831   8.196   4.990  1.9468  1.0208 -0.7329
18348SOL    HW256261   6.834   8.234   5.137 -1.8558 -1.0625  0.0203
18349SOL     OW56262   6.324   7.852   3.495 -0.0267  0.2750 -0.3039
18349SOL    HW156263   6.396   7.880   3.552  0.7803 -0.9528 -0.6725
18349SOL    HW256264   6.245   7.876   3.543  0.6264  0.6247  0.6383
18350SOL     OW56265   6.833   7.807   4.455 -0.1125  0.4599 -0.1718
18350SOL    HW156266   6.797   7.718   4.448 -1.5515  1.0228 -0.1990
18350SOL    HW256267   6.828   7.842   4.367 -0.9325  1.0790  0.1128
18351SOL     OW56268   5.931   8.119   5.539  0.0308  0.4741  0.3843
18351SOL    HW156269   5.947   8.071   5.621  1.3419 -0.0026 -0.1227
18351SOL    HW256270   5.922   8.050   5.473 -1.4629  0.8388  0.1788
18352SOL     OW56271   7.047   7.934   5.381 -0.5695  0.2351  0.3344
18352SOL    HW156272   7.041   7.903   5.472  0.2085  0.4919  0.4784
18352SOL    HW256273   7.017   7.860   5.329  1.2174 -0.7913  0.6752
18353SOL     OW56274   6.340   8.518   5.460  0.2382  0.2517 -0.1838
18353SOL    HW156275   6.254   8.478   5.470  0.2130  0.3999  0.2504
18353SOL    HW256276   6.325   8.612   5.474  0.9241 -0.0083  3.2495
18354SOL     OW56277   6.784   7.719   4.808 -0.0975  0.2612 -0.0505
18354SOL    HW156278   6.734   7.774   4.747 -0.8210 -1.4205 -1.0205
18354SOL    HW256279   6.741   7.732   4.892  0.4256  2.0108 -0.0047
18355SOL     OW56280   6.428   7.888   3.965  0.0338  0.0159 -0.0049
18355SOL    HW156281   6.376   7.824   3.917  0.8679 -1.3515  0.8650
18355SOL    HW256282   6.510   7.895   3.916  0.9105 -1.4250  1.1625
18356SOL     OW56283   5.995   8.428   4.248  0.3274 -0.1355 -0.2561
18356SOL    HW156284   5.906   8.445   4.216 -0.0554  0.2012  0.9435
18356SOL    HW256285   5.984   8.411   4.342  1.4904 -0.4504 -0.1637
18357SOL     OW56286   6.164   7.602   3.125 -0.2756  0.4666  0.3005
18357SOL    HW156287   6.225   7.599   3.199  0.0072 -0.0985  0.0507
18357SOL    HW256288   6.080   7.628   3.164 -0.3867 -0.8387  0.9983
18358SOL     OW56289   7.429   7.808   5.341  0.0718 -0.5266  0.1252
18358SOL    HW156290   7.416   7.728   5.391  1.2087 -0.8816 -0.1200
18358SOL    HW256291   7.504   7.789   5.285  0.1495  0.6011 -0.1740
18359SOL     OW56292   7.015   8.485   3.942 -0.1147 -0.1875  0.0104
18359SOL    HW156293   6.972   8.543   4.005  0.3451  0.3767 -0.1829
18359SOL    HW256294   6.984   8.515   3.857  0.3340 -0.0403 -0.1061
18360SOL     OW56295   6.214   7.427   4.390 -0.1444  0.0761 -0.2136
18360SOL    HW156296   6.262   7.366   4.334  1.1237  0.7216  0.1095
18360SOL    HW256297   6.283   7.476   4.435 -1.0821  2.4382 -1.2100
18361SOL     OW56298   7.043   8.556   4.598  0.5688 -0.0411 -0.3901
18361SOL    HW156299   7.103   8.618   4.558  1.1103 -0.2400  0.1081
18361SOL    HW256300   6.956   8.592   4.580  0.8502  0.5037 -0.6806
18362SOL     OW56301   5.589   8.123   4.098  0.5725 -0.1928  0.4436
18362SOL    HW156302   5.534   8.183   4.148  0.4228 -1.0303  1.3095
18362SOL    HW256303   5.635   8.179   4.035 -1.1146  0.5642 -0.1834
18363SOL     OW56304   7.148   8.010   4.397  0.8279  0.2050  0.5061
18363SOL    HW156305   7.174   8.102   4.400 -1.5012  0.9635 -0.2111
18363SOL    HW256306   7.130   7.993   4.304 -1.5755 -0.0273  0.9351
18364SOL     OW56307   6.225   0.304   5.169  0.1209  0.5795  0.3397
18364SOL    HW156308   6.189   0.376   5.117 -2.7725  0.0685  1.4505
18364SOL    HW256309   6.261   0.346   5.247  0.0372  0.9626  0.1746
18365SOL     OW56310   5.663   7.438   5.220  0.2034 -0.6378 -0.4015
18365SOL    HW156311   5.680   7.377   5.292  1.2822  1.3073  1.0732
18365SOL    HW256312   5.568   7.454   5.225  0.4621  0.6175  1.6373
18366SOL     OW56313   7.195   8.726   3.827  0.1832  0.0668 -0.1280
18366SOL    HW156314   7.242   8.699   3.747  0.8561  0.7776  0.0244
18366SOL    HW256315   7.121   8.777   3.794  0.6161  0.5957 -0.2889
18367SOL     OW56316   7.121   7.108   4.148 -0.1140  0.1341  0.0958
18367SOL    HW156317   7.033   7.143   4.155  0.7915  2.5906  0.0901
18367SOL    HW256318   7.142   7.113   4.055 -0.5082 -2.0305 -0.1687
18368SOL     OW56319   6.113   8.086   3.830  0.0771 -1.0987  0.4965
18368SOL    HW156320   6.170   8.156   3.862 -0.8214  0.4122 -1.0275
18368SOL    HW256321   6.075   8.049   3.909 -3.1931  3.4130  1.4302
18369SOL     OW56322   6.947   7.774   5.194  0.6502  0.3510  0.0173
18369SOL    HW156323   6.851   7.771   5.194  0.4607  3.0777 -1.3525
18369SOL    HW256324   6.973   7.707   5.131 -0.4667  0.4149 -0.5413
18370SOL     OW56325   5.813   7.229   3.622  0.7644  0.4297  0.4014
18370SOL    HW156326   5.904   7.200   3.612  0.4043 -0.2682 -1.0967
18370SOL    HW256327   5.761   7.157   3.586 -0.2932  1.7745 -0.8758
18371SOL     OW56328   6.145   7.751   5.052 -0.0110  0.0542  0.1870
18371SOL    HW156329   6.235   7.730   5.025  0.5161  0.5688  1.4677
18371SOL    HW256330   6.155   7.791   5.139 -1.4611  0.3689  0.2254
18372SOL     OW56331   6.585   7.929   4.961  0.0635 -0.0089 -0.2921
18372SOL    HW156332   6.659   7.964   4.912  0.9844 -0.4841  0.7010
18372SOL    HW256333   6.602   7.956   5.052 -2.2957  2.0692 -0.3345
18373SOL     OW56334   6.527   8.016   4.219  0.4190  0.3003  0.2587
18373SOL    HW156335   6.504   7.991   4.129 -0.5189  0.1693  0.5169
18373SOL    HW256336   6.610   8.062   4.211  0.0193  0.8922 -0.7698
18374SOL     OW56337   5.833   7.658   3.984 -0.6878  0.0655  0.3681
18374SOL    HW156338   5.829   7.638   4.077 -0.8429  1.2405  0.6251
18374SOL    HW256339   5.761   7.609   3.945 -2.3166  1.6337  1.2802
18375SOL     OW56340   7.268   8.376   3.887 -0.5441 -0.4419 -0.0182
18375SOL    HW156341   7.272   8.349   3.796 -3.0003 -2.2649  0.3277
18375SOL    HW256342   7.189   8.429   3.893  0.8393  1.6812  0.6453
18376SOL     OW56343   5.897   7.194   3.887  0.2055  0.2541 -0.1079
18376SOL    HW156344   5.949   7.130   3.839 -2.2681 -2.5996  0.7293
18376SOL    HW256345   5.834   7.227   3.824  0.6460  0.9260 -0.2083
18377SOL     OW56346   6.727   7.961   4.645 -0.1080 -0.1443 -0.7623
18377SOL    HW156347   6.643   7.978   4.603 -1.6366 -1.9689  1.3481
18377SOL    HW256348   6.775   7.908   4.581 -1.4192 -0.8618 -1.1890
18378SOL     OW56349   6.311   8.120   5.161 -0.6424 -0.3067  0.4258
18378SOL    HW156350   6.308   8.207   5.121 -2.6139 -0.3982  0.3030
18378SOL    HW256351   6.344   8.136   5.249  0.2553  0.3686 -0.0083
18379SOL     OW56352   6.859   0.104   4.630  0.4797 -0.6379 -0.1210
18379SOL    HW156353   6.903   0.111   4.714 -0.6319  0.5040  0.3986
18379SOL    HW256354   6.857   0.010   4.612  2.2046 -0.7916  0.2975
18380SOL     OW56355   6.366   8.205   4.364 -0.1070  0.4776 -0.2156
18380SOL    HW156356   6.424   8.161   4.302  1.3045  1.0665  0.6265
18380SOL    HW256357   6.419   8.214   4.444 -1.0241  1.8865  0.2744
18381SOL     OW56358   6.354   7.624   3.316 -0.1520 -0.3715 -0.5356
18381SOL    HW156359   6.316   7.643   3.402  0.8543 -1.4114  0.1738
18381SOL    HW256360   6.445   7.655   3.323 -0.1856 -0.0657 -1.3847
18382SOL     OW56361   5.474   7.990   5.033 -0.1943  0.5933  0.1066
18382SOL    HW156362   5.545   7.973   5.094  0.2513 -0.6494 -0.7008
18382SOL    HW256363   5.430   7.905   5.025  0.0123  0.6159 -1.5817
18383SOL     OW56364   6.178   7.831   4.751 -0.4951 -0.2887 -0.1771
18383SOL    HW156365   6.114   7.775   4.795 -0.6569 -0.7564 -0.9983
18383SOL    HW256366   6.240   7.856   4.821 -1.7062  0.3970  0.6829
18384SOL     OW56367   6.215   7.732   4.506 -0.0074 -0.8933  0.1705
18384SOL    HW156368   6.229   7.766   4.594  0.3172  1.1540 -0.6254
18384SOL    HW256369   6.123   7.705   4.506 -0.3114  0.0638  0.8539
18385SOL     OW56370   6.473   7.935   4.486  0.0490 -0.2086 -0.8032
18385SOL    HW156371   6.489   7.961   4.395  1.4509  0.6245 -0.3541
18385SOL    HW256372   6.388   7.892   4.484 -0.7424  1.2915 -2.2312
18386SOL     OW56373   7.284   8.544   4.216  0.0240 -0.0651 -0.1274
18386SOL    HW156374   7.255   8.599   4.289  0.3505  0.4003 -0.3384
18386SOL    HW256375   7.291   8.605   4.142  0.1219 -0.4478 -0.4364
18387SOL     OW56376   6.419   8.138   4.845 -0.2913  0.3570 -0.2112
18387SOL    HW156377   6.430   8.200   4.917 -2.1460 -0.6099  0.9921
18387SOL    HW256378   6.456   8.056   4.878 -0.8154  0.0023 -0.4784
18388SOL     OW56379   7.181   8.005   4.055 -0.2352  0.3472  0.0125
18388SOL    HW156380   7.160   7.912   4.047  1.3898 -0.0732  0.3353
18388SOL    HW256381   7.219   8.029   3.970  1.5630  0.0725  0.6853
18389SOL     OW56382   7.326   0.104   4.210  0.3718  1.0112  0.3707
18389SOL    HW156383   7.360   0.035   4.153 -0.5860  1.2800 -0.5340
18389SOL    HW256384   7.391   0.175   4.203  0.9395  0.5322  0.6743
18390SOL     OW56385   6.795   7.508   3.493 -0.4894  0.1157  0.4495
18390SOL    HW156386   6.757   7.592   3.519  0.5723  0.1736  1.9317
18390SOL    HW256387   6.888   7.516   3.513  0.3417 -0.1215 -2.8174
18391SOL     OW56388   6.171   7.621   3.530  0.6515  0.1979  0.1539
18391SOL    HW156389   6.124   7.538   3.522  0.0628  0.5107  0.3521
18391SOL    HW256390   6.113   7.677   3.580  0.8465  0.8876 -0.3784
18392SOL     OW56391   7.044   8.794   5.100  1.0183  0.1930  0.5524
18392SOL    HW156392   7.003   8.776   5.015 -0.5594  1.1988  1.0689
18392SOL    HW256393   7.094   8.715   5.119  0.2232 -0.6332 -0.6426
18393SOL     OW56394   6.497   8.716   5.209  0.0745  0.0252 -0.0688
18393SOL    HW156395   6.532   8.634   5.174 -1.4488 -0.5943 -0.2088
18393SOL    HW256396   6.419   8.734   5.157  0.1834  1.3884  0.1986
18394SOL     OW56397   6.653   8.506   5.117 -0.1007  0.5580 -0.0890
18394SOL    HW156398   6.651   8.544   5.030  0.9796 -0.1840 -0.4585
18394SOL    HW256399   6.700   8.423   5.106  1.3088  1.1040  1.4406
18395SOL     OW56400   6.880   8.787   4.858 -0.0144  0.3476 -0.3259
18395SOL    HW156401   6.800   8.813   4.903 -0.2319  0.2760 -0.6707
18395SOL    HW256402   6.887   8.693   4.872 -0.4945  0.1916 -1.0890
18396SOL     OW56403   6.542   7.520   4.819  0.0357  0.0895  0.1534
18396SOL    HW156404   6.531   7.556   4.732  3.0920  1.8170  0.3585
18396SOL    HW256405   6.584   7.435   4.805  4.2411  1.9923 -0.1574
18397SOL     OW56406   6.789   8.802   5.788  0.6872  0.5123  0.0656
18397SOL    HW156407   6.815   8.724   5.837  1.6563  0.8884  0.1778
18397SOL    HW256408   6.693   8.797   5.783  0.8375 -1.9633 -2.0714
18398SOL     OW56409   6.783   8.472   4.127 -0.1430  0.0092 -0.4765
18398SOL    HW156410   6.798   8.435   4.214 -1.8098  1.1128  0.3301
18398SOL    HW256411   6.776   8.395   4.070 -0.9684 -0.8363  0.6994
18399SOL     OW56412   5.733   8.002   4.599  0.1787 -0.0417 -0.3399
18399SOL    HW156413   5.762   7.956   4.520  2.1399  0.3614  0.1012
18399SOL    HW256414   5.808   8.056   4.625 -0.5827  0.2004  1.5278
18400SOL     OW56415   6.831   8.065   4.877  0.0705  0.4337  0.6964
18400SOL    HW156416   6.924   8.044   4.890 -0.1585  0.0247  1.8015
18400SOL    HW256417   6.813   8.040   4.786  1.0027  0.3773  0.5195
18401SOL     OW56418   6.339   8.789   4.235 -0.4745  0.5020 -0.2435
18401SOL    HW156419   6.429   8.795   4.268 -1.0461 -0.0156  1.5305
18401SOL    HW256420   6.303   8.711   4.276 -2.1676  1.4640  0.2211
18402SOL     OW56421   6.167   7.892   4.151  0.1301 -0.2568  0.3183
18402SOL    HW156422   6.176   7.986   4.166 -1.6289  0.0277 -0.2132
18402SOL    HW256423   6.251   7.866   4.112  1.4884  0.6327  2.4270
18403SOL     OW56424   6.942   0.001   4.355 -0.2249 -0.2199  0.3570
18403SOL    HW156425   6.914   0.090   4.334 -0.9988 -0.8725 -1.5414
18403SOL    HW256426   6.867  -0.037   4.402 -1.0493 -0.7211 -1.2916
18404SOL     OW56427   7.137   7.801   3.806 -0.2798  0.1909  0.3923
18404SOL    HW156428   7.129   7.758   3.891  3.6080 -1.3354  0.1778
18404SOL    HW256429   7.119   7.732   3.742  0.0411  0.4615  0.0018
18405SOL     OW56430   5.938   8.811   5.221  0.0644  0.2140 -0.1745
18405SOL    HW156431   5.972   8.772   5.140 -0.4845  0.6713 -0.6355
18405SOL    HW256432   5.854   8.768   5.234 -0.1871  0.6765 -0.2587
18406SOL     OW56433   6.959   8.463   5.503  0.5375  0.3018 -0.4834
18406SOL    HW156434   7.022   8.437   5.435  1.3987 -0.9658  0.7432
18406SOL    HW256435   6.887   8.503   5.455 -0.0167 -2.7044 -2.3954
18407SOL     OW56436   6.514   7.656   5.364  0.2191 -0.3052 -0.3473
18407SOL    HW156437   6.512   7.750   5.385  0.3492 -0.1256 -1.1028
18407SOL    HW256438   6.426   7.626   5.385  0.3310 -0.1338  0.4060
18408SOL     OW56439   5.878   7.868   5.430  0.0496 -0.1884  0.1216
18408SOL    HW156440   5.857   7.811   5.504 -1.1638 -0.2204 -0.2350
18408SOL    HW256441   5.887   7.808   5.356  0.9654 -0.1260  0.1764
18409SOL     OW56442   5.886   8.208   4.781 -0.0950 -0.0878 -0.6032
18409SOL    HW156443   5.972   8.166   4.772  0.5489  1.1550 -0.5810
18409SOL    HW256444   5.861   8.192   4.872 -0.3835 -1.3432 -0.8927
18410SOL     OW56445   7.181   8.305   4.327  0.5215 -0.4847  0.2595
18410SOL    HW156446   7.237   8.381   4.306  0.1200  0.5229  2.5263
18410SOL    HW256447   7.160   8.267   4.242  2.3983  0.7445 -0.8351
18411SOL     OW56448   6.687   7.768   3.547 -0.1408  0.1420 -0.3425
18411SOL    HW156449   6.633   7.821   3.606 -0.0864  0.8158 -0.8882
18411SOL    HW256450   6.758   7.827   3.520  1.0530 -0.7977  0.5761
18412SOL     OW56451   5.857   7.674   5.233 -0.1899 -0.2642 -0.4631
18412SOL    HW156452   5.899   7.607   5.178 -0.1860 -0.2487 -0.4792
18412SOL    HW256453   5.779   7.631   5.268  1.1477 -1.1903  1.6289
18413SOL     OW56454   5.790   0.001   4.907 -0.2780 -0.0916  0.1429
18413SOL    HW156455   5.720  -0.064   4.920  0.6460 -0.7970  1.8403
18413SOL    HW256456   5.765   0.074   4.963 -0.7815  0.6368 -0.9840
18414SOL     OW56457   5.937   7.931   4.958 -0.8740  0.3899 -0.1129
18414SOL    HW156458   6.010   7.985   4.929 -1.2345  0.1136 -1.6259
18414SOL    HW256459   5.977   7.847   4.982 -0.6730  0.2789 -0.8185
18415SOL     OW56460   7.534   8.613   5.831  0.3205  0.4410  0.3797
18415SOL    HW156461   7.505   8.616   5.922 -1.1914 -0.3109 -0.0362
18415SOL    HW256462   7.488   8.687   5.790 -1.2147 -0.8263 -0.3145
18416SOL     OW56463   5.651   7.867   4.167 -0.5179  0.2700 -0.3659
18416SOL    HW156464   5.631   7.957   4.141  0.2673  0.6669  0.3571
18416SOL    HW256465   5.572   7.818   4.146 -1.1212  1.2138 -0.3477
18417SOL     OW56466   7.412   7.514   3.720  0.1633 -0.1575 -0.7270
18417SOL    HW156467   7.410   7.498   3.815 -2.1089  0.1148 -0.6679
18417SOL    HW256468   7.320   7.512   3.694  0.7467 -0.1453 -2.9388
18418SOL     OW56469   6.092   8.088   4.606 -0.2427 -0.2252 -0.9162
18418SOL    HW156470   6.104   8.079   4.512 -0.5189 -0.0745 -0.9649
18418SOL    HW256471   6.123   8.004   4.642  0.3726 -0.0846 -1.0922
18419SOL     OW56472   7.791   8.666   5.196 -0.4270 -0.4885 -0.4961
18419SOL    HW156473   7.846   8.694   5.123  2.3304 -1.5137  1.0143
18419SOL    HW256474   7.797   8.571   5.196 -1.2636 -0.5607  0.4301
18420SOL     OW56475   5.913   8.228   5.072  0.1606 -0.6617  0.2705
18420SOL    HW156476   5.957   8.148   5.101  0.0289 -0.8175  0.0440
18420SOL    HW256477   5.821   8.215   5.094 -0.0506 -1.0481 -0.7608
18421SOL     OW56478   6.951   7.419   3.973 -0.1621 -0.0062  0.2756
18421SOL    HW156479   6.929   7.410   4.066  0.0756 -1.5104  0.2060
18421SOL    HW256480   6.993   7.336   3.949 -1.7198 -0.3445 -1.5733
18422SOL     OW56481   6.832   8.022   3.545  0.3637  0.0756 -0.1266
18422SOL    HW156482   6.893   8.085   3.507 -0.4702  1.5233  0.8592
18422SOL    HW256483   6.747   8.047   3.510  0.0264 -0.5849  0.2009
18423SOL     OW56484   6.273   8.490   4.284 -0.0504  0.2412 -0.2767
18423SOL    HW156485   6.183   8.479   4.254 -0.7282 -0.3046  1.8361
18423SOL    HW256486   6.316   8.408   4.259 -0.2645  0.2997 -0.8512
18424SOL     OW56487   5.941   8.317   4.503  0.1402 -0.4029 -0.5770
18424SOL    HW156488   5.894   8.391   4.541 -1.0099 -0.9454 -0.9154
18424SOL    HW256489   5.956   8.258   4.576 -4.3397 -2.6683 -1.2093
18425SOL     OW56490   6.224   7.858   5.342 -0.2423  0.0803  0.5766
18425SOL    HW156491   6.197   7.868   5.433  0.6555  0.3411  0.8276
18425SOL    HW256492   6.246   7.946   5.314 -0.7564  0.0398  0.0148
18426SOL     OW56493   6.702   7.657   5.136 -0.5453 -0.4297 -0.6001
18426SOL    HW156494   6.654   7.655   5.219 -1.1539  1.1174 -0.8956
18426SOL    HW256495   6.661   7.588   5.084 -0.6504 -0.9173  0.1020
18427SOL     OW56496   5.507   8.410   3.711  0.5249  0.0744 -0.0374
18427SOL    HW156497   5.482   8.318   3.708  1.5870 -0.2369 -2.8874
18427SOL    HW256498   5.428   8.457   3.683  0.4412 -0.1190 -0.1304
18428SOL     OW56499   6.392   7.734   4.947 -0.3127  0.2130 -0.3440
18428SOL    HW156500   6.432   7.661   4.899 -1.8941 -0.7282 -0.3345
18428SOL    HW256501   6.462   7.798   4.957  0.7081 -0.6173 -1.7722
18429SOL     OW56502   5.695   7.792   4.840  0.0498  0.5490 -0.1841
18429SOL    HW156503   5.723   7.837   4.919 -0.5314  0.8687 -0.1524
18429SOL    HW256504   5.650   7.859   4.789 -0.1564  0.1859 -0.4843
18430SOL     OW56505   5.738   8.302   5.685 -0.1378 -0.1087 -0.6270
18430SOL    HW156506   5.756   8.261   5.600 -0.2022  1.5334 -1.4891
18430SOL    HW256507   5.813   8.278   5.740  1.2541  0.8948 -1.9762
18431SOL     OW56508   7.116   8.382   5.290 -0.0236  0.3109  0.3896
18431SOL    HW156509   7.143   8.449   5.227 -0.2662 -0.5704 -0.6931
18431SOL    HW256510   7.172   8.307   5.269  0.7931  0.3966  2.0965
18432SOL     OW56511   6.205   7.597   4.041 -0.0365 -0.0823  0.2233
18432SOL    HW156512   6.293   7.585   4.076 -0.5155 -2.7493  0.7254
18432SOL    HW256513   6.157   7.640   4.113  0.5441  0.3364  0.3724
18433SOL     OW56514   7.106   7.987   4.906 -0.4236 -0.1504 -0.2471
18433SOL    HW156515   7.099   7.921   4.837 -0.2512 -0.3012 -0.1229
18433SOL    HW256516   7.144   7.939   4.981  1.0313  0.3990 -0.6010
18434SOL     OW56517   6.100   8.131   4.327  0.0094 -0.0701 -0.0949
18434SOL    HW156518   6.033   8.197   4.349 -1.0276 -1.6010  1.6810
18434SOL    HW256519   6.183   8.177   4.336 -0.7123  1.1947  0.3421
18435SOL     OW56520   6.100   8.000   3.586 -0.6961 -0.6279 -0.1883
18435SOL    HW156521   6.052   7.924   3.619 -0.0245 -1.8001 -1.7774
18435SOL    HW256522   6.120   8.051   3.664  0.3218 -2.9547  1.1740
18436SOL     OW56523   5.860   8.565   4.531 -0.3890 -0.2005  0.2368
18436SOL    HW156524   5.912   8.640   4.501 -0.5550 -0.2380 -0.1495
18436SOL    HW256525   5.831   8.590   4.619  0.8478 -0.4683  0.7354
18437SOL     OW56526   6.795   8.393   4.583 -0.5941  0.1194  0.6181
18437SOL    HW156527   6.747   8.310   4.588 -0.5398  0.0310 -0.2632
18437SOL    HW256528   6.796   8.425   4.674 -0.6124 -0.8419  0.9733
18438SOL     OW56529   7.177   8.174   3.589  0.0260 -0.4267  0.2740
18438SOL    HW156530   7.164   8.264   3.619 -1.9679 -0.9065  1.0092
18438SOL    HW256531   7.111   8.162   3.520  1.1335 -0.9443 -0.7273
18439SOL     OW56532   5.486   8.670   4.630 -0.0008  0.3223 -0.2241
18439SOL    HW156533   5.571   8.715   4.633  0.2140 -0.1260  0.7307
18439SOL    HW256534   5.450   8.681   4.718 -1.4123  1.3741 -0.8862
18440SOL     OW56535   7.452   7.471   4.011 -0.2434  0.0043 -0.1713
18440SOL    HW156536   7.436   7.562   4.036 -0.9266 -0.6076  1.8627
18440SOL    HW256537   7.449   7.423   4.094  0.3499 -1.8426 -1.1635
18441SOL     OW56538   7.046   8.252   4.097  0.2376  0.0744  0.3436
18441SOL    HW156539   7.024   8.322   4.036  0.6579  0.4121  0.5811
18441SOL    HW256540   7.062   8.176   4.041 -1.3540 -0.1552  0.1393
18442SOL     OW56541   6.390   0.107   4.908  0.2511 -0.0931  0.1521
18442SOL    HW156542   6.423   0.172   4.846  0.8551  1.2156  1.7740
18442SOL    HW256543   6.354   0.159   4.980  1.8641 -1.5009  2.0827
18443SOL     OW56544   7.288   7.726   4.713 -0.0292 -0.2488  0.8912
18443SOL    HW156545   7.286   7.639   4.752 -0.8071 -0.8047 -0.3253
18443SOL    HW256546   7.197   7.745   4.691  0.3351  0.1963 -0.2907
18444SOL     OW56547   5.836   7.882   4.371  0.0894  0.4463  0.6070
18444SOL    HW156548   5.753   7.886   4.325  0.2002 -3.6843 -0.2840
18444SOL    HW256549   5.894   7.940   4.320 -0.0770 -2.9820 -4.1885
18445SOL     OW56550   6.078   8.490   5.255  0.3207  0.0899  0.3630
18445SOL    HW156551   6.087   8.460   5.165  0.5662  0.0945  0.3845
18445SOL    HW256552   6.062   8.584   5.248  5.9208  1.3682  0.4063
18446SOL     OW56553   6.723   8.251   3.958  0.4684 -0.0861  1.2321
18446SOL    HW156554   6.786   8.203   3.904  1.3982 -0.0857  2.2823
18446SOL    HW256555   6.638   8.216   3.932  0.9820 -0.8874  0.5689
18447SOL     OW56556   6.119   0.089   4.723  0.1838  0.3607 -0.5978
18447SOL    HW156557   6.180   0.119   4.790  1.8926 -0.0445 -1.8864
18447SOL    HW256558   6.032   0.106   4.759  1.0576  1.8088  0.9413
18448SOL     OW56559   6.616   8.015   5.224  0.2704  0.1030  0.5515
18448SOL    HW156560   6.545   8.035   5.286  1.3509  1.6474  1.3461
18448SOL    HW256561   6.696   8.027   5.275  1.1677  0.5712 -0.9346
18449SOL     OW56562   6.912   8.370   4.350  0.1133  0.4076  0.4733
18449SOL    HW156563   6.884   8.383   4.440  1.1388  2.3791  0.5783
18449SOL    HW256564   7.005   8.351   4.356 -0.3713 -2.5844 -0.0543
18450SOL     OW56565   6.589   7.662   4.183  0.2820 -0.0146  0.2403
18450SOL    HW156566   6.576   7.617   4.099  2.0963 -1.2833  0.5760
18450SOL    HW256567   6.501   7.688   4.210 -0.3270  0.6755 -2.1644
18451SOL     OW56568   7.187   8.219   5.033  0.3175 -0.2699 -0.7752
18451SOL    HW156569   7.166   8.129   5.006  2.0139 -0.6930 -0.7922
18451SOL    HW256570   7.159   8.273   4.959 -0.8046 -0.7692 -0.7244
18452SOL     OW56571   5.458   8.486   5.114  0.2017  0.4787 -0.2375
18452SOL    HW156572   5.452   8.515   5.205  1.1923  2.1663 -0.6710
18452SOL    HW256573   5.370   8.454   5.094  0.2459 -1.0274  1.6271
18453SOL     OW56574   6.003   7.508   5.061  0.0865 -0.4589  0.6350
18453SOL    HW156575   6.079   7.566   5.059 -0.4617  0.2869  0.8112
18453SOL    HW256576   6.027   7.440   5.123  0.1594  0.4345  1.6191
18454SOL     OW56577   5.514   7.739   3.643  0.1892 -0.3045  0.1363
18454SOL    HW156578   5.575   7.667   3.631  1.3498  0.7549 -0.5681
18454SOL    HW256579   5.508   7.751   3.738  3.3070  1.3565  0.2243
18455SOL     OW56580   7.060   7.887   4.641 -0.1244 -0.0222  0.1847
18455SOL    HW156581   6.980   7.875   4.589 -0.1528  0.4509  0.1220
18455SOL    HW256582   7.122   7.928   4.581  0.8086 -2.0787 -0.3482
18456SOL     OW56583   5.747   7.563   3.667  0.1017  0.5790 -0.5375
18456SOL    HW156584   5.763   7.533   3.756 -1.2479  2.1735  0.2961
18456SOL    HW256585   5.670   7.514   3.639 -1.3732  2.2488  0.3830
18457SOL     OW56586   6.090   8.760   5.465  0.1893  0.1099  0.5188
18457SOL    HW156587   6.024   8.761   5.396 -0.1964 -0.3519  0.8699
18457SOL    HW256588   6.061   8.690   5.524  1.4383 -0.6408  0.2565
18458SOL     OW56589   6.124   8.363   5.474 -0.1979  0.5231  0.4882
18458SOL    HW156590   6.054   8.298   5.483 -0.2184  0.6980  1.9113
18458SOL    HW256591   6.111   8.401   5.387 -0.1502 -1.3866 -0.4050
18459SOL     OW56592   6.566   8.814   5.467  0.2438  0.0447  0.0257
18459SOL    HW156593   6.654   8.852   5.464  1.0304 -1.6292  0.6524
18459SOL    HW256594   6.540   8.807   5.376  0.1786  1.7352 -0.1327
18460SOL     OW56595   6.900   8.491   4.913 -0.2013 -0.1616 -0.3237
18460SOL    HW156596   6.866   8.417   4.962  0.5246  0.6181  1.4249
18460SOL    HW256597   6.968   8.454   4.857  2.4224 -0.5197  2.7956
18461SOL     OW56598   6.802   7.588   3.795  0.0779  0.2261  0.2273
18461SOL    HW156599   6.863   7.645   3.749  2.3787 -1.6894  0.6914
18461SOL    HW256600   6.857   7.538   3.856 -2.0160 -1.4036  0.9230
18462SOL     OW56601   6.501   8.247   4.601  0.0800  0.2495  0.5139
18462SOL    HW156602   6.477   8.321   4.657 -1.8656 -1.3235  1.9331
18462SOL    HW256603   6.484   8.170   4.656  1.5428 -1.2855 -1.0705
18463SOL     OW56604   7.269   7.153   5.486 -0.6692 -0.5688  0.2858
18463SOL    HW156605   7.242   7.232   5.439  0.2488 -0.9927 -1.0291
18463SOL    HW256606   7.338   7.183   5.546  0.2586 -0.4590 -0.7893
18464SOL     OW56607   7.231   8.595   5.120 -0.0903 -0.1847  0.2852
18464SOL    HW156608   7.318   8.603   5.158 -0.5064  0.7696  1.0766
18464SOL    HW256609   7.246   8.569   5.029  1.0147  0.0435  0.3968
18465SOL     OW56610   6.719   0.070   4.092  0.2363 -0.0091  0.2419
18465SOL    HW156611   6.776   0.132   4.138 -0.4476 -0.0369  1.1656
18465SOL    HW256612   6.754   0.065   4.004  0.5872  1.3487  0.2870
18466SOL     OW56613   6.234   8.369   4.790 -0.1720 -0.7535  0.5056
18466SOL    HW156614   6.210   8.312   4.717  4.4697 -0.1716 -1.8059
18466SOL    HW256615   6.262   8.451   4.748  0.7824  0.3611  3.1277
18467SOL     OW56616   6.907   8.065   3.810  0.7850 -0.5746 -0.1792
18467SOL    HW156617   6.890   8.059   3.716  2.2384  1.8773 -0.6790
18467SOL    HW256618   6.998   8.038   3.820  0.6548 -0.7739  0.5161
18468SOL     OW56619   5.671   8.734   5.197  0.3865 -0.5451  0.4878
18468SOL    HW156620   5.596   8.691   5.239 -0.6969  0.4052 -0.3976
18468SOL    HW256621   5.674   8.698   5.109  0.3764  0.0955  0.2184
18469SOL     OW56622   5.742   8.550   4.260  0.3341  0.2622  0.3678
18469SOL    HW156623   5.776   8.590   4.340  0.5082 -0.4577  0.6600
18469SOL    HW256624   5.655   8.518   4.283  0.9851 -1.3569  0.7549
18470SOL     OW56625   6.392   0.473   4.971 -0.4735  0.5313 -0.2876
18470SOL    HW156626   6.315   0.521   5.000 -1.1572 -0.2910 -0.7095
18470SOL    HW256627   6.367   0.435   4.887 -0.4476 -1.6634  0.6198
18471SOL     OW56628   7.002   7.602   4.998 -0.0025 -0.1673  0.6075
18471SOL    HW156629   7.044   7.536   4.943 -2.9934 -1.0429 -0.8585
18471SOL    HW256630   6.932   7.637   4.943 -0.7411  1.7178  2.6095
18472SOL     OW56631   6.356   7.753   4.276  0.3810  0.0193 -0.3032
18472SOL    HW156632   6.301   7.829   4.260  1.3675  0.7697 -0.2540
18472SOL    HW256633   6.317   7.711   4.353 -1.6080 -0.9502 -1.7712
18473SOL     OW56634   6.654   0.014   5.000  0.1746  0.3600  0.4784
18473SOL    HW156635   6.561   0.020   4.979  0.5028  3.0817 -0.5417
18473SOL    HW256636   6.657  -0.024   5.088 -1.7704 -1.1864 -0.0455
18474SOL     OW56637   5.441   8.059   5.403 -0.4768  0.0836 -0.3418
18474SOL    HW156638   5.430   7.970   5.369 -1.6903  0.1375 -0.1599
18474SOL    HW256639   5.524   8.057   5.450 -0.3896 -0.9015 -0.5130
18475SOL     OW56640   6.752   7.437   4.180 -0.0847 -0.2053  0.3787
18475SOL    HW156641   6.732   7.509   4.239  1.9051  1.6722 -1.0803
18475SOL    HW256642   6.687   7.444   4.110 -0.8387 -0.8095  1.0088
18476SOL     OW56643   6.748   7.561   4.507 -0.4604 -0.3239  0.0855
18476SOL    HW156644   6.775   7.584   4.597  0.0167 -1.1034  0.1486
18476SOL    HW256645   6.750   7.466   4.505 -0.2075 -0.3058 -0.8346
18477SOL     OW56646   6.788   8.671   4.509  0.6289  0.3340 -0.0444
18477SOL    HW156647   6.799   8.585   4.469  1.1926  0.4434 -0.1353
18477SOL    HW256648   6.698   8.671   4.541  1.1029 -0.9135  1.4197
18478SOL     OW56649   7.065   7.374   3.615  0.0389  0.2069 -0.0646
18478SOL    HW156650   7.096   7.324   3.540  0.0721  0.1588 -0.0191
18478SOL    HW256651   7.078   7.315   3.690 -1.3792 -0.3186 -0.2029
18479SOL     OW56652   6.822   7.842   4.128  0.3430 -0.2805  0.5503
18479SOL    HW156653   6.808   7.932   4.156  0.4535 -0.0737 -0.0377
18479SOL    HW256654   6.739   7.798   4.146 -0.3084  0.3647 -0.7476
18480SOL     OW56655   7.106   7.491   4.188 -0.0114 -0.1330 -0.2099
18480SOL    HW156656   7.085   7.496   4.281 -1.0820  1.1921 -0.4952
18480SOL    HW256657   7.197   7.460   4.185  1.6924  4.0101  1.4688
18481SOL     OW56658   5.479   8.535   4.393 -0.1160 -0.0001  0.3171
18481SOL    HW156659   5.457   8.577   4.476 -0.2733  0.2834  0.1317
18481SOL    HW256660   5.398   8.540   4.341  0.4129  1.1708 -0.4262
18482SOL     OW56661   5.500   8.247   5.845 -0.6682  0.1148 -0.1700
18482SOL    HW156662   5.499   8.256   5.940 -0.9807  0.1703 -0.1763
18482SOL    HW256663   5.590   8.264   5.820 -0.5750  0.0570  0.1208
18483SOL     OW56664   5.650   7.485   6.516 -0.3414  0.0599  0.6800
18483SOL    HW156665   5.716   7.549   6.544  0.2189 -0.4517  0.5573
18483SOL    HW256666   5.581   7.538   6.475 -0.6386  0.7260  1.9619
18484SOL     OW56667   5.473   7.920   5.832  0.1574 -0.6250 -0.4872
18484SOL    HW156668   5.485   8.015   5.828 -3.3895 -0.0226 -0.1481
18484SOL    HW256669   5.449   7.895   5.742 -0.9272 -0.7972 -0.1688
18485SOL     OW56670   6.244   8.834   6.790  0.3619  0.3128  0.6100
18485SOL    HW156671   6.306   8.781   6.740 -1.0327  1.0977 -2.1429
18485SOL    HW256672   6.200   8.772   6.848  0.3003 -1.1506 -0.9522
18486SOL     OW56673   7.137   0.339   6.291  0.6654 -0.4453  0.1104
18486SOL    HW156674   7.059   0.385   6.259  1.0360  0.8163  0.9568
18486SOL    HW256675   7.142   0.363   6.383  0.3386 -2.9798  0.8715
18487SOL     OW56676   6.273   8.138   6.095 -0.1913 -0.1349 -0.7246
18487SOL    HW156677   6.207   8.173   6.154  0.3473 -1.1071  0.5239
18487SOL    HW256678   6.228   8.125   6.012 -1.1450  0.6799 -0.3423
18488SOL     OW56679   7.188   8.323   5.661  0.0915  0.4052 -0.0529
18488SOL    HW156680   7.123   8.374   5.611  0.0675  0.5964  0.1716
18488SOL    HW256681   7.149   8.314   5.748  0.0992  0.0060 -0.0918
18489SOL     OW56682   6.320   8.499   6.702 -0.4398  0.3511  0.2953
18489SOL    HW156683   6.370   8.424   6.668 -1.5935  0.8565 -2.8560
18489SOL    HW256684   6.347   8.572   6.646 -1.6284  1.5783  1.2695
18490SOL     OW56685   6.390   8.053   6.926 -0.3628 -0.0954 -0.2785
18490SOL    HW156686   6.364   8.001   6.850  1.9747 -2.9303  0.6534
18490SOL    HW256687   6.408   7.988   6.994  0.0020  2.1770  1.9522
18491SOL     OW56688   6.291   8.652   6.294  0.3977  0.0727 -0.3085
18491SOL    HW156689   6.208   8.614   6.264  0.2558 -0.0451  0.2297
18491SOL    HW256690   6.274   8.746   6.300  0.3958  0.0847 -0.4927
18492SOL     OW56691   6.316   8.238   7.518  0.0318  0.1983  0.3205
18492SOL    HW156692   6.393   8.272   7.563 -0.1970  0.1227  0.7746
18492SOL    HW256693   6.290   8.308   7.459 -1.4353  1.5838  2.4353
18493SOL     OW56694   6.047   0.142   6.511  0.5879 -0.4418  0.4772
18493SOL    HW156695   6.125   0.189   6.482  0.2315 -0.2329 -0.1452
18493SOL    HW256696   6.049   0.150   6.607  1.2056 -0.2436  0.4511
18494SOL     OW56697   6.047   7.883   6.950  0.2232  0.2937 -0.0380
18494SOL    HW156698   6.007   7.921   7.027 -0.8434 -0.7760 -0.0293
18494SOL    HW256699   6.047   7.953   6.885 -2.6707  0.0684 -0.3833
18495SOL     OW56700   6.773   7.926   5.850 -0.5127  0.4233 -0.3827
18495SOL    HW156701   6.791   7.981   5.927  0.4700 -1.6332  0.9660
18495SOL    HW256702   6.682   7.898   5.861 -0.0448 -0.7971  0.7577
18496SOL     OW56703   7.053   8.554   7.140 -0.4538 -0.3148 -0.1621
18496SOL    HW156704   6.967   8.581   7.173 -0.5894 -0.9988  0.0551
18496SOL    HW256705   7.097   8.515   7.215 -0.1550 -0.4403 -0.4004
18497SOL     OW56706   5.563   8.812   6.122 -0.7792 -0.6910  0.0895
18497SOL    HW156707   5.507   8.888   6.101 -2.7394 -2.1528 -0.2866
18497SOL    HW256708   5.562   8.807   6.217  1.3319  1.0827  0.2905
18498SOL     OW56709   6.435   8.577   5.912 -0.1358 -0.0008  0.1884
18498SOL    HW156710   6.476   8.545   5.992 -1.6309 -2.4264  0.1018
18498SOL    HW256711   6.496   8.552   5.842  0.3613  0.5579  0.4162
18499SOL     OW56712   7.600   7.411   6.995  0.7313 -0.3886  0.1073
18499SOL    HW156713   7.553   7.490   7.021  1.5417  0.2690 -0.3752
18499SOL    HW256714   7.535   7.341   7.002  0.7729 -0.2266  3.4734
18500SOL     OW56715   5.793   8.188   5.984  0.1430 -0.5107 -0.2769
18500SOL    HW156716   5.759   8.272   6.014  1.4748  0.0003 -0.1155
18500SOL    HW256717   5.856   8.162   6.052  0.7295 -0.9734 -0.9868
18501SOL     OW56718   7.082   8.198   5.898 -0.5321  0.0456 -0.0464
18501SOL    HW156719   7.006   8.247   5.927 -0.6698  0.8037 -1.5809
18501SOL    HW256720   7.047   8.132   5.838  0.0413  0.8353 -1.2981
18502SOL     OW56721   7.330   8.251   6.251 -0.0420  0.1190  0.3195
18502SOL    HW156722   7.311   8.272   6.343  3.2789 -0.0565  1.1542
18502SOL    HW256723   7.347   8.335   6.209 -0.0805  0.0883  0.2408
18503SOL     OW56724   5.620   8.274   6.736 -0.0151  0.1491  0.5516
18503SOL    HW156725   5.677   8.262   6.812  0.1927 -0.9400  0.2512
18503SOL    HW256726   5.555   8.339   6.764  1.5001  1.6155  0.8113
18504SOL     OW56727   6.445   8.710   6.572  0.3617  0.1990 -0.1093
18504SOL    HW156728   6.459   8.750   6.486 -1.1760 -0.6638 -0.8006
18504SOL    HW256729   6.532   8.678   6.597  1.1643  1.8919 -0.5654
18505SOL     OW56730   6.292   8.283   7.086  0.1505  0.1998  0.3342
18505SOL    HW156731   6.296   8.209   7.026 -1.2924  1.3631 -1.2867
18505SOL    HW256732   6.373   8.332   7.068  0.5349 -0.3419  0.5643
18506SOL     OW56733   6.138   7.343   5.702  0.7153 -0.2894  0.0895
18506SOL    HW156734   6.184   7.401   5.763 -0.7968  0.2156  0.7962
18506SOL    HW256735   6.088   7.284   5.758  0.2761 -0.6330 -0.6520
18507SOL     OW56736   5.665   8.557   6.587  0.2392  0.0663  0.0543
18507SOL    HW156737   5.688   8.639   6.545  0.4814  0.5168  1.0332
18507SOL    HW256738   5.741   8.535   6.641 -0.2802 -0.1859  0.7030
18508SOL     OW56739   7.111   8.521   5.917 -0.2864  0.6262  0.3596
18508SOL    HW156740   7.026   8.492   5.886 -0.3275  2.0011 -0.9403
18508SOL    HW256741   7.167   8.517   5.839  0.7937 -0.0823  1.1541
18509SOL     OW56742   5.736   8.003   7.503 -0.6441  0.0948  0.1844
18509SOL    HW156743   5.758   7.920   7.462 -2.2356 -0.7470  0.9280
18509SOL    HW256744   5.662   8.036   7.452 -1.0726  0.2255  0.8767
18510SOL     OW56745   6.945   8.440   6.330 -0.2652  0.3823 -0.1157
18510SOL    HW156746   6.879   8.404   6.389 -0.2817  1.0967  0.3095
18510SOL    HW256747   6.979   8.364   6.283 -1.2433 -0.0172 -0.1897
18511SOL     OW56748   6.034   8.392   6.040  0.2277  0.1305  0.4953
18511SOL    HW156749   5.966   8.457   6.023  0.1176  0.2835  1.4962
18511SOL    HW256750   6.102   8.411   5.975 -0.9410 -0.4361 -0.9497
18512SOL     OW56751   6.517   8.110   6.246 -0.0084 -0.0980 -0.6753
18512SOL    HW156752   6.522   8.070   6.333  0.8040  1.5056  0.0716
18512SOL    HW256753   6.428   8.093   6.216 -0.3377 -0.5744  0.5173
18513SOL     OW56754   6.324   7.886   6.735 -0.6110 -0.0229 -0.6230
18513SOL    HW156755   6.228   7.883   6.734 -0.6307  0.4539 -0.4192
18513SOL    HW256756   6.351   7.794   6.728 -1.0725 -0.1195 -1.2812
18514SOL     OW56757   6.694   7.926   7.073  0.4508  0.1897 -0.1205
18514SOL    HW156758   6.741   7.927   7.157 -1.9556 -2.2492  1.4038
18514SOL    HW256759   6.638   7.849   7.078 -2.0317  1.6534 -2.7682
18515SOL     OW56760   6.353   7.980   7.409 -0.8444  0.1529 -0.1256
18515SOL    HW156761   6.414   7.982   7.483  2.3736 -1.0694 -2.5067
18515SOL    HW256762   6.322   8.071   7.401  1.7306  1.1758  0.4801
18516SOL     OW56763   6.712   7.565   6.766 -0.2693  0.1597 -0.0502
18516SOL    HW156764   6.741   7.476   6.746 -1.2709 -0.1660 -0.0747
18516SOL    HW256765   6.793   7.617   6.764  0.1960 -0.5658 -0.9860
18517SOL     OW56766   6.280   8.236   5.663 -0.3071  0.4195  0.4640
18517SOL    HW156767   6.249   8.276   5.582  1.0388  2.1227  0.7268
18517SOL    HW256768   6.350   8.178   5.636 -1.1834 -0.5669  0.2433
18518SOL     OW56769   5.780   8.497   6.042  0.0961  0.0424  0.0128
18518SOL    HW156770   5.688   8.521   6.050 -0.4420 -2.3073  1.6733
18518SOL    HW256771   5.813   8.495   6.132  0.9353 -2.0430 -0.2772
18519SOL     OW56772   6.014   7.612   5.647 -0.0381 -0.1653  0.3468
18519SOL    HW156773   5.920   7.629   5.650 -0.1049 -0.6667  2.5928
18519SOL    HW256774   6.029   7.543   5.712  1.9052  0.0728  0.2233
18520SOL     OW56775   7.212   8.051   7.469 -0.0304 -0.0303  0.4281
18520SOL    HW156776   7.299   8.071   7.434  0.1952  0.3628  1.1986
18520SOL    HW256777   7.152   8.101   7.413  0.2078 -0.5032 -0.2690
18521SOL     OW56778   7.059   0.028   6.092  0.0440  0.6570  0.0851
18521SOL    HW156779   7.065   0.033   6.187 -2.0447  0.0403  0.3002
18521SOL    HW256780   7.012   0.108   6.067  1.5026  1.3547 -0.5827
18522SOL     OW56781   5.787   7.693   6.583 -0.5307  0.0398  0.1823
18522SOL    HW156782   5.723   7.751   6.540 -0.0529  1.4647  1.3080
18522SOL    HW256783   5.868   7.707   6.534 -1.0272 -1.7848 -1.2598
18523SOL     OW56784   7.358   8.517   6.045  0.1545 -0.3281 -0.2694
18523SOL    HW156785   7.312   8.568   6.112  0.8889  2.9197 -2.0055
18523SOL    HW256786   7.291   8.499   5.979  0.1998 -0.2915 -0.3259
18524SOL     OW56787   5.713   8.833   5.748 -0.1585  0.3517  0.4281
18524SOL    HW156788   5.773   8.834   5.823  0.9423  2.4051 -0.3879
18524SOL    HW256789   5.709   8.925   5.721  0.3604 -0.4422 -2.6946
18525SOL     OW56790   7.044   7.803   5.976 -0.3340  0.5860 -0.3184
18525SOL    HW156791   7.037   7.893   5.943  0.6748 -0.0522 -2.4838
18525SOL    HW256792   6.994   7.803   6.057 -1.7419  2.6989 -1.1010
18526SOL     OW56793   6.139   8.638   7.551 -0.0507  0.2630 -0.3146
18526SOL    HW156794   6.104   8.694   7.481 -1.0800  0.5606  0.4003
18526SOL    HW256795   6.096   8.554   7.538  0.4447  0.0486 -0.5718
18527SOL     OW56796   5.743   7.774   7.172 -0.0433 -0.2475 -0.2441
18527SOL    HW156797   5.697   7.768   7.088 -1.0699 -1.6332  0.3826
18527SOL    HW256798   5.810   7.841   7.158 -0.8195  0.2357 -1.8676
18528SOL     OW56799   7.033   8.808   5.380 -0.3583 -0.3148 -0.0696
18528SOL    HW156800   7.036   8.773   5.292  0.2949 -1.0757  0.2488
18528SOL    HW256801   7.100   8.760   5.428 -1.7288 -1.0153  1.2446
18529SOL     OW56802   6.682   7.628   5.828  0.0585  0.1654  0.0252
18529SOL    HW156803   6.753   7.690   5.807 -0.3729  1.4300  2.0473
18529SOL    HW256804   6.725   7.542   5.829  2.0903  1.0660  3.0038
18530SOL     OW56805   5.898   8.023   5.798  0.3071 -0.2880  0.1478
18530SOL    HW156806   5.882   7.941   5.845  0.0577  0.2590  1.0427
18530SOL    HW256807   5.865   8.091   5.857 -0.1662  0.4080 -0.8971
18531SOL     OW56808   7.000   7.928   6.996 -0.1938 -1.0517  0.4032
18531SOL    HW156809   6.966   7.903   6.910 -0.8884  0.5718  0.1641
18531SOL    HW256810   6.930   7.980   7.035  0.3145 -1.3571  1.7580
18532SOL     OW56811   6.283   7.447   5.195 -0.5457  0.1980 -0.4120
18532SOL    HW156812   6.376   7.431   5.182 -0.6494 -0.0659 -0.8501
18532SOL    HW256813   6.275   7.469   5.288 -0.1221 -0.3163 -0.2480
18533SOL     OW56814   6.138   7.449   7.183 -0.0473  0.3201 -0.4319
18533SOL    HW156815   6.200   7.445   7.255 -1.2171  0.3734  0.6207
18533SOL    HW256816   6.144   7.538   7.150  1.4832 -0.0826 -1.3481
18534SOL     OW56817   6.867   7.904   6.555 -0.0152 -0.4343  0.1518
18534SOL    HW156818   6.829   7.914   6.642 -0.9961  0.0622 -0.3174
18534SOL    HW256819   6.888   7.993   6.528 -3.5862  0.0178 -1.7677
18535SOL     OW56820   6.360   7.864   6.286 -0.0032 -0.0472 -0.4106
18535SOL    HW156821   6.267   7.879   6.307  0.3893  0.1963  1.2910
18535SOL    HW256822   6.400   7.841   6.369  1.2143 -1.6289 -1.3818
18536SOL     OW56823   5.501   7.008   6.038 -0.2054 -0.2927  0.1526
18536SOL    HW156824   5.447   6.980   5.964  1.6496 -1.0857 -0.9567
18536SOL    HW256825   5.560   7.074   6.001  0.2329 -0.1236  1.1294
18537SOL     OW56826   7.234   8.678   5.475  0.0534 -0.3285  0.2552
18537SOL    HW156827   7.279   8.708   5.554  1.2434 -2.5027  0.4534
18537SOL    HW256828   7.285   8.603   5.445 -1.5970 -0.8534 -1.3973
18538SOL     OW56829   5.794   7.056   5.655 -0.0822 -0.0589  0.1302
18538SOL    HW156830   5.761   6.971   5.628  1.7875 -1.2305  1.3017
18538SOL    HW256831   5.796   7.108   5.574 -1.7972 -0.8961 -0.4887
18539SOL     OW56832   6.141   7.854   5.956 -0.2858  0.0779  0.3715
18539SOL    HW156833   6.176   7.931   5.911  2.0542 -0.7193  0.6452
18539SOL    HW256834   6.147   7.875   6.049  0.7873 -0.5505  0.4650
18540SOL     OW56835   6.650   8.192   6.978 -0.2264  0.1696 -0.4867
18540SOL    HW156836   6.640   8.111   7.029 -0.4298  1.7319  2.1462
18540SOL    HW256837   6.585   8.185   6.909  0.4294 -2.3109 -0.9766
18541SOL     OW56838   7.083   8.688   6.472  1.2189 -0.4129  0.1541
18541SOL    HW156839   7.063   8.606   6.517  0.9245 -0.4723 -0.0833
18541SOL    HW256840   7.010   8.746   6.495  1.3767 -0.2483  0.2421
18542SOL     OW56841   6.056   8.727   6.407  0.8959  0.3371 -0.1126
18542SOL    HW156842   6.043   8.815   6.442 -1.3069 -0.1623  0.4786
18542SOL    HW256843   6.021   8.669   6.475  2.6406 -1.0346 -0.3390
18543SOL     OW56844   6.212   7.560   5.459 -0.0760 -0.1170  0.0280
18543SOL    HW156845   6.180   7.632   5.405  1.3814 -0.2893 -1.1074
18543SOL    HW256846   6.146   7.552   5.529 -0.4989  2.0209 -0.0461
18544SOL     OW56847   5.994   8.083   6.743  0.5476  0.1618  0.5135
18544SOL    HW156848   5.976   8.163   6.694 -1.1347  0.1291  1.0040
18544SOL    HW256849   6.019   8.019   6.677  0.4411  0.6933 -0.0478
18545SOL     OW56850   5.658   7.547   6.972 -0.3091 -0.1149  0.2874
18545SOL    HW156851   5.651   7.458   7.008  0.1140  0.0109  0.6768
18545SOL    HW256852   5.750   7.556   6.947 -0.6630 -0.3305 -1.1804
18546SOL     OW56853   6.091   7.924   6.269  0.0302  0.0170 -0.0011
18546SOL    HW156854   6.070   8.013   6.240  0.2228  0.2683  0.5991
18546SOL    HW256855   6.017   7.871   6.240  0.2597  0.2304 -1.0153
18547SOL     OW56856   6.536   7.841   5.999  0.0401  0.2470 -0.2332
18547SOL    HW156857   6.535   7.747   6.021  1.6586  0.2119 -0.2168
18547SOL    HW256858   6.479   7.881   6.064  2.2730 -0.2669  2.2275
18548SOL     OW56859   6.638   8.310   6.123 -0.7806  0.0687 -0.4833
18548SOL    HW156860   6.613   8.238   6.181 -1.5758  0.5582 -0.2133
18548SOL    HW256861   6.578   8.381   6.145 -1.2909  0.1706 -2.1037
18549SOL     OW56862   6.808   8.051   6.101  0.4232 -0.4597 -0.2214
18549SOL    HW156863   6.812   7.964   6.140  0.1996 -1.0707 -1.5165
18549SOL    HW256864   6.719   8.082   6.119  0.6303 -0.3139  0.5929
18550SOL     OW56865   7.670   8.199   5.804 -0.1815 -0.2563 -0.4130
18550SOL    HW156866   7.671   8.210   5.900 -1.2264 -1.5032 -0.2295
18550SOL    HW256867   7.579   8.212   5.780 -0.3426 -2.1098 -0.9390
18551SOL     OW56868   7.224   8.658   6.239 -0.0260 -0.2497 -0.1729
18551SOL    HW156869   7.147   8.663   6.183 -0.7684  1.8686  0.9257
18551SOL    HW256870   7.189   8.652   6.328  1.1028 -0.9200  0.2555
18552SOL     OW56871   6.421   8.120   5.401 -0.2831  0.5871 -0.6119
18552SOL    HW156872   6.432   8.073   5.484  0.5867 -0.3120 -1.2214
18552SOL    HW256873   6.490   8.186   5.401 -0.1039  0.3996 -0.7479
18553SOL     OW56874   5.558   7.323   5.464 -0.3127  0.4753 -0.1174
18553SOL    HW156875   5.504   7.258   5.508  0.3686  0.3220  0.5053
18553SOL    HW256876   5.648   7.293   5.477 -0.0832  0.2529 -1.8751
18554SOL     OW56877   7.265   8.707   7.299  0.0637  0.0417 -0.4060
18554SOL    HW156878   7.290   8.679   7.387  0.2358 -0.8714 -0.7370
18554SOL    HW256879   7.303   8.641   7.241 -1.7828 -0.5311 -1.0339
18555SOL     OW56880   6.677   8.608   6.667  0.0644  0.3279  0.2262
18555SOL    HW156881   6.620   8.544   6.708 -0.6940  1.2082  0.5750
18555SOL    HW256882   6.739   8.634   6.736 -1.0476  1.6159  0.7806
18556SOL     OW56883   6.775   8.637   6.268  0.2629  0.1977  0.0119
18556SOL    HW156884   6.756   8.709   6.328 -2.3097  1.0349 -1.6342
18556SOL    HW256885   6.841   8.585   6.313  1.0667  2.6908  1.9702
18557SOL     OW56886   6.697   8.385   6.474 -0.2253 -0.1977 -0.4194
18557SOL    HW156887   6.728   8.426   6.555  0.9125 -2.5189  0.3969
18557SOL    HW256888   6.605   8.365   6.490  0.2881 -1.7043  0.7962
18558SOL     OW56889   6.368   7.537   6.946  0.0206  0.3229  0.1533
18558SOL    HW156890   6.403   7.580   6.868 -0.3030  1.0333  0.3870
18558SOL    HW256891   6.285   7.582   6.963  0.5929  0.9209  1.5157
18559SOL     OW56892   6.408   8.674   7.473 -0.2672 -0.0879  0.2937
18559SOL    HW156893   6.380   8.586   7.449  1.7693 -1.1016  1.3174
18559SOL    HW256894   6.336   8.709   7.524 -1.7332 -0.5550 -1.3584
18560SOL     OW56895   6.500   8.175   5.948  0.7915 -0.1829  0.1500
18560SOL    HW156896   6.420   8.165   6.001  1.1635  0.3164  0.8234
18560SOL    HW256897   6.551   8.241   5.995  1.0620  0.3932 -0.9310
18561SOL     OW56898   6.046   8.542   6.648 -0.0827  0.0647 -0.1919
18561SOL    HW156899   5.985   8.590   6.703 -0.1049  0.7528 -0.7946
18561SOL    HW256900   6.118   8.519   6.706  0.9189  2.6214 -0.2858
18562SOL     OW56901   6.616   7.811   6.454 -0.3525  0.2933 -0.2226
18562SOL    HW156902   6.637   7.745   6.389  0.0878  0.3232 -0.1143
18562SOL    HW256903   6.701   7.841   6.486 -0.4493 -2.2591  2.9485
18563SOL     OW56904   5.607   8.550   5.639 -0.1034 -0.1408 -0.1817
18563SOL    HW156905   5.663   8.475   5.658 -2.0279 -1.4956  0.5010
18563SOL    HW256906   5.652   8.625   5.679  0.9317 -1.2584  0.8198
18564SOL     OW56907   5.885   7.641   6.860  0.3865 -0.4796  0.3334
18564SOL    HW156908   5.930   7.722   6.885 -0.1833 -0.3169  0.8768
18564SOL    HW256909   5.856   7.656   6.770  0.4610 -0.1612  0.3625
18565SOL     OW56910   6.841   0.206   5.929  1.2637 -0.1184  0.7339
18565SOL    HW156911   6.779   0.259   5.981  2.1983 -0.6602  2.5004
18565SOL    HW256912   6.786   0.156   5.870  0.0646  0.0421  1.6641
18566SOL     OW56913   6.374   7.841   5.731  0.3032  1.0787  0.1374
18566SOL    HW156914   6.398   7.883   5.814  0.1598 -1.1015  1.3616
18566SOL    HW256915   6.381   7.747   5.749  1.5590  0.5082 -2.7200
18567SOL     OW56916   5.859   8.479   7.040  0.6844  0.2291  0.1562
18567SOL    HW156917   5.860   8.512   7.130  1.0219  1.8914 -0.4298
18567SOL    HW256918   5.950   8.453   7.023  0.6174 -0.1010  0.2799
18568SOL     OW56919   7.377   8.225   7.152  0.0468  0.1863 -0.1480
18568SOL    HW156920   7.387   8.148   7.208  2.1313 -0.6850 -1.5811
18568SOL    HW256921   7.349   8.189   7.068 -0.7261  1.2111 -0.3362
18569SOL     OW56922   6.303   7.469   7.412  0.1931 -0.7307  0.2984
18569SOL    HW156923   6.372   7.510   7.463 -0.2471  1.2313 -0.5895
18569SOL    HW256924   6.226   7.470   7.469  0.1471 -0.1387  0.2317
18570SOL     OW56925   5.890   7.740   7.653 -0.1847 -0.1642  0.3141
18570SOL    HW156926   5.816   7.708   7.601  0.5370 -1.5081  0.0802
18570SOL    HW256927   5.938   7.798   7.594 -1.8654  2.0087  0.9402
18571SOL     OW56928   6.003   8.160   6.174 -0.2937  0.5211  0.0090
18571SOL    HW156929   6.017   8.245   6.132  2.1490  0.9708  1.5083
18571SOL    HW256930   5.936   8.178   6.241  0.8900  1.5685  0.9673
18572SOL     OW56931   7.021   8.209   6.212 -0.3949 -0.5056  0.0628
18572SOL    HW156932   7.096   8.190   6.156  0.1228  0.3849  0.4178
18572SOL    HW256933   6.946   8.173   6.165 -0.0135  0.4111 -1.3426
18573SOL     OW56934   6.143   7.866   5.594 -0.3487 -0.0383 -0.0641
18573SOL    HW156935   6.086   7.792   5.618 -0.9460 -0.3368 -2.2157
18573SOL    HW256936   6.229   7.840   5.627 -0.0393 -2.8443 -2.6854
18574SOL     OW56937   5.753   7.302   7.118 -0.0087 -0.2383  0.4891
18574SOL    HW156938   5.834   7.295   7.068  0.1551 -1.0593  0.8492
18574SOL    HW256939   5.773   7.364   7.188  0.5159 -0.8916  0.9399
18575SOL     OW56940   5.826   0.312   6.568 -0.1366 -0.2698 -0.5539
18575SOL    HW156941   5.893   0.265   6.519 -0.8317 -0.8294 -0.9925
18575SOL    HW256942   5.752   0.318   6.507 -0.2977  0.8143 -0.2764
18576SOL     OW56943   5.610   7.838   6.459 -0.1136  0.4748 -0.3148
18576SOL    HW156944   5.558   7.915   6.482 -1.9048  0.0343 -2.5772
18576SOL    HW256945   5.546   7.773   6.430  1.5785 -0.3535 -2.5194
18577SOL     OW56946   7.474   8.010   7.326  0.2176  0.0067  0.1450
18577SOL    HW156947   7.441   7.929   7.364 -0.7664  0.5542  0.5033
18577SOL    HW256948   7.561   7.987   7.292  0.6554 -0.8025  1.6857
18578SOL     OW56949   5.553   7.492   6.230 -0.2196  0.3436 -0.1736
18578SOL    HW156950   5.596   7.417   6.272  0.0428  0.5400 -0.0906
18578SOL    HW256951   5.626   7.546   6.198 -0.4060 -0.2341 -1.6658
18579SOL     OW56952   6.583   7.883   5.536  0.3905 -0.2050  0.6131
18579SOL    HW156953   6.496   7.877   5.576 -0.3579 -1.3766 -1.0684
18579SOL    HW256954   6.616   7.968   5.564 -2.3454  1.4293 -0.6470
18580SOL     OW56955   6.212   8.263   6.379 -0.5827  0.1860 -0.9266
18580SOL    HW156956   6.127   8.281   6.339  0.3122  3.3724 -1.6906
18580SOL    HW256957   6.228   8.338   6.437  0.6518 -1.5736  1.1717
18581SOL     OW56958   7.676   8.413   7.234  0.1574 -0.4664 -0.0747
18581SOL    HW156959   7.706   8.449   7.318 -0.4412 -1.9492  0.8131
18581SOL    HW256960   7.740   8.344   7.213  0.6250  0.2654 -1.1506
18582SOL     OW56961   5.835   8.594   6.801 -0.0446 -0.7041  0.2118
18582SOL    HW156962   5.793   8.673   6.836  2.5889  2.1383 -2.5524
18582SOL    HW256963   5.861   8.545   6.880 -1.5232  1.2267  2.0394
18583SOL     OW56964   7.043   7.771   5.616 -0.0025 -0.1580  0.5488
18583SOL    HW156965   6.965   7.745   5.567  0.3311 -0.5882  0.2351
18583SOL    HW256966   7.056   7.700   5.680 -0.0543  0.0750  0.8229
18584SOL     OW56967   6.931   8.208   5.305  0.3217  0.3100  0.3534
18584SOL    HW156968   6.984   8.139   5.344  1.7312  0.2548 -1.4987
18584SOL    HW256969   6.991   8.282   5.297 -0.2476  0.6949 -0.5785
18585SOL     OW56970   5.867   8.538   6.294  0.4925 -0.0653 -0.0466
18585SOL    HW156971   5.910   8.623   6.305 -1.6163  0.8529  2.3245
18585SOL    HW256972   5.889   8.490   6.374  0.3751 -1.1272 -0.6438
18586SOL     OW56973   5.897   8.309   6.624 -0.3346  0.1370  0.0677
18586SOL    HW156974   5.812   8.350   6.642 -0.1530  1.0936 -1.1768
18586SOL    HW256975   5.960   8.381   6.630  0.4752 -0.6505  1.4509
18587SOL     OW56976   6.751   7.902   6.791 -0.0553  0.2144 -0.2566
18587SOL    HW156977   6.723   7.812   6.806  0.9156 -0.0461  0.1267
18587SOL    HW256978   6.729   7.948   6.872 -0.6074  0.3399 -0.4759
18588SOL     OW56979   6.456   7.656   6.711  0.3886 -0.3068  0.1847
18588SOL    HW156980   6.434   7.641   6.619  0.3921 -1.1957  0.3192
18588SOL    HW256981   6.547   7.627   6.719  1.3343  2.3139 -0.1176
18589SOL     OW56982   5.565   8.829   5.496  0.0284  1.0353 -0.1990
18589SOL    HW156983   5.586   8.840   5.589  1.4185  2.0063 -0.5975
18589SOL    HW256984   5.633   8.771   5.462  0.0857  1.4415 -0.7937
18590SOL     OW56985   6.526   8.021   6.572 -0.5351  0.0504  0.4097
18590SOL    HW156986   6.453   7.984   6.622 -1.5504 -0.4871 -1.3730
18590SOL    HW256987   6.570   7.945   6.534  0.8630  0.3840  1.2727
18591SOL     OW56988   5.801   8.195   6.343 -0.0442  0.1010 -0.2890
18591SOL    HW156989   5.724   8.250   6.354  0.5060  0.5288  1.8282
18591SOL    HW256990   5.816   8.157   6.429 -0.6973 -3.8709 -1.7092
18592SOL     OW56991   5.796   8.089   6.928 -0.3109  0.7956 -0.0104
18592SOL    HW156992   5.857   8.084   6.855  0.3570 -0.6720  0.6043
18592SOL    HW256993   5.731   8.021   6.911  0.5378 -0.4065  1.3227
18593SOL     OW56994   6.856   8.302   7.102 -0.3877 -0.7683  0.6395
18593SOL    HW156995   6.923   8.313   7.035  0.7197  0.6721  1.9336
18593SOL    HW256996   6.784   8.259   7.056  1.6994 -3.1864 -0.5964
18594SOL     OW56997   5.621   7.514   5.658  0.1657  0.3103  0.1682
18594SOL    HW156998   5.594   7.474   5.575  0.1999  0.8816 -0.1205
18594SOL    HW256999   5.550   7.492   5.719 -0.1615  0.4220 -0.1717
18595SOL     OW57000   7.344   8.067   6.047 -0.3667  0.0354 -0.2533
18595SOL    HW157001   7.343   8.148   6.098  0.2064  0.2628 -0.5854
18595SOL    HW257002   7.328   8.095   5.957  2.1914  0.1126 -0.7584
18596SOL     OW57003   6.069   7.643   6.569  0.2208 -0.0313 -0.5190
18596SOL    HW157004   6.087   7.555   6.601  0.9700  0.1937 -0.3068
18596SOL    HW257005   6.089   7.639   6.476  0.7883  0.0615 -0.3999
18597SOL     OW57006   5.385   7.800   5.591 -0.5760  0.0724 -0.0834
18597SOL    HW157007   5.306   7.836   5.552 -0.2990  0.6211 -0.1404
18597SOL    HW257008   5.394   7.713   5.551 -1.1321  0.0176 -0.0923
18598SOL     OW57009   6.416   0.153   7.831  0.0494  0.0499  0.3987
18598SOL    HW157010   6.326   0.170   7.860 -0.3176 -0.1516 -0.5895
18598SOL    HW257011   6.415   0.062   7.802 -0.0074  0.6658 -1.6634
18599SOL     OW57012   6.459   8.303   6.542  0.4174 -0.0631  0.1240
18599SOL    HW157013   6.405   8.281   6.467  2.8668 -1.4974 -1.3682
18599SOL    HW257014   6.480   8.219   6.583  0.9739  0.4912  1.0435
18600SOL     OW57015   7.223   8.840   5.869 -0.3727  0.0562  0.0168
18600SOL    HW157016   7.191   8.860   5.957  0.5017  1.1237  0.1186
18600SOL    HW257017   7.143   8.830   5.817 -0.9683  2.7159  0.2438
18601SOL     OW57018   5.765   8.809   6.957 -0.3462  0.3265  0.3788
18601SOL    HW157019   5.852   8.840   6.983 -0.2624  0.0829  0.3851
18601SOL    HW257020   5.718   8.798   7.039 -0.6505  1.2441  0.3362
18602SOL     OW57021   7.004   7.990   5.745 -0.0497 -0.1391 -0.0541
18602SOL    HW157022   7.021   7.913   5.692 -0.8800  0.3942 -1.1388
18602SOL    HW257023   6.916   7.976   5.781 -1.0046  1.0882 -1.7677
18603SOL     OW57024   6.787   8.277   5.655  0.1642  0.3649 -0.2486
18603SOL    HW157025   6.854   8.311   5.596 -2.4006  2.1258 -2.3638
18603SOL    HW257026   6.806   8.317   5.740  0.6718  2.4097 -1.2803
18604SOL     OW57027   6.707   8.731   7.511 -0.3249  0.2365  0.4244
18604SOL    HW157028   6.690   8.820   7.544 -1.5321  0.1861 -0.0191
18604SOL    HW257029   6.620   8.695   7.493  0.1219 -1.2376  1.0839
18605SOL     OW57030   7.165   7.900   6.552  0.4306 -0.1474 -0.0347
18605SOL    HW157031   7.178   7.936   6.464  0.5501  0.3128  0.1686
18605SOL    HW257032   7.111   7.822   6.538 -0.9537  0.8210 -0.3619
18606SOL     OW57033   5.730   7.700   6.155 -0.4362 -0.9625 -0.0751
18606SOL    HW157034   5.805   7.643   6.140 -0.2224 -1.0796  1.3219
18606SOL    HW257035   5.735   7.723   6.247  0.5657  2.9354 -0.9116
18607SOL     OW57036   6.255   8.419   7.307  0.0785 -0.2721 -0.0873
18607SOL    HW157037   6.269   8.366   7.229  0.5753  0.5693 -0.5730
18607SOL    HW257038   6.195   8.488   7.280 -2.6892 -2.0097  1.1873
18608SOL     OW57039   6.696   8.256   5.408 -0.2297 -0.0977  1.0017
18608SOL    HW157040   6.713   8.262   5.502  1.1733  0.3167  0.7388
18608SOL    HW257041   6.781   8.238   5.369 -1.1378 -2.5171 -0.0366
18609SOL     OW57042   5.643   8.709   7.220  0.3209 -0.2852  0.1485
18609SOL    HW157043   5.609   8.747   7.301  0.9956 -0.1742  0.3873
18609SOL    HW257044   5.732   8.680   7.242  1.4293  1.8496 -1.1305
18610SOL     OW57045   7.110   0.031   7.159 -0.1065  0.1611 -0.2174
18610SOL    HW157046   7.153  -0.042   7.203  0.2970  0.5759  0.0906
18610SOL    HW257047   7.175   0.064   7.097 -0.2097  0.3851 -0.2085
18611SOL     OW57048   6.510   8.527   6.184 -0.1544  0.8394  0.5854
18611SOL    HW157049   6.445   8.585   6.222  0.6097  1.8268  0.4391
18611SOL    HW257050   6.592   8.551   6.227  0.0744 -0.5690  0.9667
18612SOL     OW57051   6.087   7.585   6.285  0.2928 -0.2663 -0.6406
18612SOL    HW157052   6.112   7.494   6.301 -0.3224 -0.4248 -0.5483
18612SOL    HW257053   6.074   7.589   6.190  0.8287 -0.1407 -0.7093
18613SOL     OW57054   7.380   7.672   6.952 -0.2236  0.3054 -0.3899
18613SOL    HW157055   7.298   7.625   6.966 -0.8386  1.2366 -0.7393
18613SOL    HW257056   7.353   7.759   6.922  0.7729  1.6695  2.3483
18614SOL     OW57057   6.059   8.806   7.278  0.0077 -0.1053  0.1406
18614SOL    HW157058   6.095   8.832   7.193  0.0965 -1.5141 -0.2869
18614SOL    HW257059   6.009   8.881   7.307 -0.1941  0.3343 -1.2662
18615SOL     OW57060   6.039   7.417   6.812 -0.6095  0.2717 -0.7193
18615SOL    HW157061   5.986   7.493   6.835  0.5017  0.6640  0.7405
18615SOL    HW257062   6.031   7.358   6.887  0.6571  0.1625 -0.6442
18616SOL     OW57063   5.503   8.553   5.380 -0.0206  0.2352 -0.4371
18616SOL    HW157064   5.554   8.557   5.461  2.4467 -2.6630 -1.6869
18616SOL    HW257065   5.446   8.477   5.392 -0.7460  0.6942 -0.8829
18617SOL     OW57066   6.867   8.166   6.455  0.5965 -0.2708  0.0946
18617SOL    HW157067   6.882   8.165   6.360 -1.4288 -0.0688 -0.2653
18617SOL    HW257068   6.794   8.227   6.467  0.1396 -1.0827  1.6730
18618SOL     OW57069   5.661   8.045   5.552  0.0587 -0.2747 -0.7941
18618SOL    HW157070   5.635   7.975   5.612 -2.0100  0.8948 -0.2126
18618SOL    HW257071   5.755   8.034   5.541  0.4631 -0.8135  2.3146
18619SOL     OW57072   6.156   8.572   6.923  0.2836  0.2635  0.0186
18619SOL    HW157073   6.236   8.528   6.892  0.6103  0.8450  0.0156
18619SOL    HW257074   6.186   8.628   6.994 -0.0009  1.0386 -0.4642
18620SOL     OW57075   6.193   7.703   7.107  0.3697 -0.6462 -0.4533
18620SOL    HW157076   6.280   7.741   7.111  0.4108 -0.8599  0.8784
18620SOL    HW257077   6.141   7.767   7.059  0.4724  1.0601  1.5764
18621SOL     OW57078   7.167   8.524   6.897  0.1063  0.6609  0.3308
18621SOL    HW157079   7.132   8.531   6.986 -1.2480  0.2963 -0.1475
18621SOL    HW257080   7.147   8.609   6.858 -1.9493 -0.1383 -0.5024
18622SOL     OW57081   7.062   8.154   6.643 -0.7047  0.0904  0.2888
18622SOL    HW157082   7.113   8.077   6.618  1.4107  1.7374 -0.7533
18622SOL    HW257083   6.991   8.159   6.578  0.6927  0.4487 -1.2664
18623SOL     OW57084   6.422   7.590   5.858  0.5533 -0.4820  0.2457
18623SOL    HW157085   6.517   7.598   5.851  0.6722 -2.3802 -1.0376
18623SOL    HW257086   6.407   7.498   5.878 -1.0567 -0.4250 -0.5487
18624SOL     OW57087   6.169   8.106   5.868 -1.0782  0.7271 -0.0875
18624SOL    HW157088   6.228   8.134   5.799 -1.3838  0.9369 -0.2652
18624SOL    HW257089   6.097   8.064   5.823 -0.5019 -0.5983  0.1881
18625SOL     OW57090   7.144   7.846   7.202 -0.2638  0.2580  0.3861
18625SOL    HW157091   7.090   7.869   7.127 -0.4016  3.3522  1.2929
18625SOL    HW257092   7.096   7.879   7.278  0.2494 -2.0514  1.8150
18626SOL     OW57093   7.082   8.256   6.916 -0.1345 -0.2822  0.1777
18626SOL    HW157094   7.145   8.325   6.897 -1.1295  0.4968 -0.4547
18626SOL    HW257095   7.078   8.204   6.835 -1.6255  0.7883 -0.4848
18627SOL     OW57096   6.518   8.485   5.653 -0.7817 -0.2568  0.2149
18627SOL    HW157097   6.444   8.512   5.598 -0.1721  1.5344  0.1871
18627SOL    HW257098   6.565   8.421   5.600 -0.8020  0.6491 -0.9453
18628SOL     OW57099   6.068   7.897   6.553 -0.1609 -0.3582  0.7193
18628SOL    HW157100   6.062   7.802   6.557  2.5150 -0.6590 -0.3704
18628SOL    HW257101   6.074   7.917   6.460 -0.0202  0.8235  0.9658
18629SOL     OW57102   6.713   8.593   5.384  0.4188 -0.0059 -0.4956
18629SOL    HW157103   6.636   8.612   5.437  1.6877 -0.4465  1.6040
18629SOL    HW257104   6.677   8.568   5.299 -1.8092 -0.9985  0.6463
18630SOL     OW57105   6.287   0.499   7.807 -0.2073  0.0822  0.3083
18630SOL    HW157106   6.331   0.511   7.891  0.8542 -1.1280 -0.0403
18630SOL    HW257107   6.343   0.545   7.743 -0.7760  0.6275  0.1908
18631SOL     OW57108   5.925   8.730   5.929  0.2516  0.2857 -0.0450
18631SOL    HW157109   5.909   8.671   6.002 -2.4284 -0.3599 -1.0380
18631SOL    HW257110   5.948   8.814   5.969  0.2611 -0.4089  1.4644
18632SOL     OW57111   6.508   8.458   7.094 -0.3892  0.0151  0.0236
18632SOL    HW157112   6.569   8.462   7.167 -0.4184 -1.3037  0.1343
18632SOL    HW257113   6.493   8.550   7.070  0.2866  0.4189  1.1064
18633SOL     OW57114   7.227   7.888   6.829 -0.5277 -0.7992  0.0746
18633SOL    HW157115   7.147   7.873   6.879 -1.4997 -1.9483 -1.7111
18633SOL    HW257116   7.201   7.877   6.738  1.8729 -2.3234 -0.5321
18634SOL     OW57117   5.766   7.791   5.875 -0.2439 -0.3408 -0.0901
18634SOL    HW157118   5.812   7.737   5.939  1.6545  1.1401 -0.1304
18634SOL    HW257119   5.676   7.796   5.908 -0.4090 -3.1445  0.1025
18635SOL     OW57120   7.024   0.172   6.818  0.5128 -1.1342  0.5330
18635SOL    HW157121   7.025   0.224   6.898 -1.6621 -0.3837  0.1302
18635SOL    HW257122   6.937   0.133   6.815  0.1212 -0.2505 -1.9976
18636SOL     OW57123   5.482   7.668   6.791 -0.1364  0.6945  0.3152
18636SOL    HW157124   5.512   7.611   6.863 -1.0356  1.8944  1.7002
18636SOL    HW257125   5.478   7.610   6.715 -0.9960 -1.1381  1.6552
18637SOL     OW57126   6.692   7.584   6.254  0.5436  0.3728  0.3479
18637SOL    HW157127   6.619   7.543   6.208  1.8629  0.1738 -1.6846
18637SOL    HW257128   6.731   7.512   6.305  1.3665 -0.4004 -1.2896
18638SOL     OW57129   6.385   7.601   6.443  0.2144  0.1270  0.3411
18638SOL    HW157130   6.420   7.515   6.465  3.4081  1.1291 -0.2950
18638SOL    HW257131   6.424   7.621   6.358 -0.1809  2.3180  0.6222
18639SOL     OW57132   6.847   8.341   5.929  0.1500 -0.2231 -0.3841
18639SOL    HW157133   6.848   8.437   5.927  1.2645 -0.2185 -1.3384
18639SOL    HW257134   6.791   8.319   6.003 -0.2610  1.1632 -0.2451
18640SOL     OW57135   6.775   7.670   5.532  0.3035 -0.2542  0.2609
18640SOL    HW157136   6.718   7.746   5.547  1.2916  0.4626  0.4419
18640SOL    HW257137   6.722   7.595   5.561 -1.6919  0.0210 -2.2446
18641SOL     OW57138   6.549   8.123   5.657  0.1515 -0.3573  0.6548
18641SOL    HW157139   6.634   8.164   5.642  0.4241 -0.8095  0.9374
18641SOL    HW257140   6.532   8.137   5.751 -0.3325  0.1865  0.4923
18642SOL     OW57141   6.867   7.774   6.195 -0.4520 -0.3013  0.0548
18642SOL    HW157142   6.921   7.757   6.272 -1.3875 -2.2381  0.3449
18642SOL    HW257143   6.791   7.716   6.205 -0.5039 -0.7956 -2.4186
18643SOL     OW57144   5.361   8.302   5.343  0.0645 -0.1971  0.0422
18643SOL    HW157145   5.395   8.214   5.359 -0.2531 -0.1375  1.1952
18643SOL    HW257146   5.266   8.293   5.357 -0.1771  0.0092 -1.3639
18644SOL     OW57147   5.507   8.032   7.354 -0.6220 -1.1847 -0.2132
18644SOL    HW157148   5.426   8.059   7.397 -0.1170  0.2183 -0.1201
18644SOL    HW257149   5.503   8.070   7.267 -0.2602 -1.4972 -0.3731
18645SOL     OW57150   5.855   7.718   8.448 -0.2710  0.2468 -0.4309
18645SOL    HW157151   5.773   7.676   8.424  0.1391 -0.9304  0.1268
18645SOL    HW257152   5.844   7.810   8.423 -0.8376 -0.3663 -2.6007
18646SOL     OW57153   5.338   7.848   7.704  0.4934 -0.6240 -0.2538
18646SOL    HW157154   5.315   7.885   7.789  1.7484 -0.3292 -0.0262
18646SOL    HW257155   5.428   7.817   7.714 -0.4420 -3.7524 -0.4486
18647SOL     OW57156   6.052   8.285   8.229 -0.2393  0.0848  0.4678
18647SOL    HW157157   6.062   8.240   8.313 -0.8845 -1.4008 -0.2134
18647SOL    HW257158   5.982   8.348   8.245 -1.6199 -1.4176  0.6057
18648SOL     OW57159   7.086   8.674   7.598 -0.4661  0.1731  0.5604
18648SOL    HW157160   7.090   8.717   7.683  0.8708 -1.3844  1.3265
18648SOL    HW257161   7.083   8.581   7.618  0.8245 -0.2700 -1.0849
18649SOL     OW57162   6.582   7.662   7.813 -0.1480 -0.3111 -0.4803
18649SOL    HW157163   6.657   7.717   7.836  0.2163 -0.5778 -1.0174
18649SOL    HW257164   6.551   7.628   7.897  0.9350 -0.9790 -0.3299
18650SOL     OW57165   7.496   7.733   7.596 -0.0932 -0.3004  0.1464
18650SOL    HW157166   7.431   7.667   7.571 -0.9335  1.0277 -1.2924
18650SOL    HW257167   7.462   7.772   7.676 -2.2971  1.8773 -1.7072
18651SOL     OW57168   6.353   8.460   8.109  0.3784 -0.2325 -0.4115
18651SOL    HW157169   6.319   8.386   8.058  0.0036 -0.6482  0.4231
18651SOL    HW257170   6.292   8.468   8.183  0.3314  1.0110 -0.5684
18652SOL     OW57171   6.338   8.441   7.769 -0.4454  0.1077  0.2256
18652SOL    HW157172   6.249   8.475   7.772 -0.4246  0.5945 -2.1307
18652SOL    HW257173   6.336   8.362   7.823 -2.4766 -0.2020 -0.2233
18653SOL     OW57174   6.108   8.787   8.112 -0.2110 -0.6417  0.2708
18653SOL    HW157175   6.085   8.759   8.024 -0.3640 -1.9791  0.7175
18653SOL    HW257176   6.190   8.742   8.131 -0.1519 -0.3254  0.8009
18654SOL     OW57177   5.931   7.647   0.025  0.0417 -0.1450  0.2678
18654SOL    HW157178   6.017   7.682   0.001  1.0318 -1.9447  1.0060
18654SOL    HW257179   5.928   7.657   0.120 -0.0281 -1.1982  0.3830
18655SOL     OW57180   7.119   7.178   8.143  0.3139  0.2677  0.1279
18655SOL    HW157181   7.105   7.165   8.236  0.8149 -1.1674  0.0268
18655SOL    HW257182   7.041   7.141   8.101  0.8321 -0.5932 -0.0881
18656SOL     OW57183   5.755   8.809   8.059 -0.6188  0.6875 -0.5772
18656SOL    HW157184   5.847   8.790   8.043 -0.0051  1.4763  1.7626
18656SOL    HW257185   5.718   8.726   8.088 -0.3264  0.6990 -0.1745
18657SOL     OW57186   6.185   8.060   7.682 -0.5183 -0.6006  0.3998
18657SOL    HW157187   6.229   8.107   7.611 -1.0520 -0.5883  0.0652
18657SOL    HW257188   6.207   8.108   7.761 -0.0227 -0.5345  0.2210
18658SOL     OW57189   5.298   8.083   7.513  0.0065  0.5559  0.2857
18658SOL    HW157190   5.204   8.096   7.529 -0.1397  0.1493 -0.2165
18658SOL    HW257191   5.323   8.012   7.571 -0.8061 -1.8124 -2.0423
18659SOL     OW57192   7.273   8.232   8.083  0.0493 -0.1361 -0.2036
18659SOL    HW157193   7.295   8.178   8.158 -0.7279  0.7352  0.6939
18659SOL    HW257194   7.189   8.272   8.107  0.5544  1.3834 -0.8552
18660SOL     OW57195   7.753   8.541   7.813 -0.2866 -0.1767  0.2385
18660SOL    HW157196   7.728   8.520   7.903  0.6116 -1.7450  0.1434
18660SOL    HW257197   7.820   8.609   7.822  1.9202 -2.3323  0.9540
18661SOL     OW57198   6.744   8.669   8.097  0.2647 -0.4282 -0.3700
18661SOL    HW157199   6.699   8.626   8.169  0.1772 -1.7853 -1.2109
18661SOL    HW257200   6.816   8.611   8.075  2.4041  1.5966  0.8119
18662SOL     OW57201   6.318   7.468   7.908  0.3820  0.2825  0.2412
18662SOL    HW157202   6.311   7.555   7.868  0.9551  0.2247  0.0059
18662SOL    HW257203   6.240   7.421   7.877  0.9661  0.1388 -1.0739
18663SOL     OW57204   6.028   8.172   8.476 -0.1342 -0.4671  0.1589
18663SOL    HW157205   6.085   8.226   8.531 -0.1031 -0.7205  0.3762
18663SOL    HW257206   5.971   8.127   8.538  0.1339 -1.0216  0.0099
18664SOL     OW57207   7.067   8.387   7.446  0.6130 -0.0016 -0.0446
18664SOL    HW157208   6.994   8.447   7.432 -1.0217 -1.1285  2.7020
18664SOL    HW257209   7.044   8.310   7.394  1.2973  0.6443 -1.3509
18665SOL     OW57210   6.962   8.518   8.002  0.5512  0.7180  0.0918
18665SOL    HW157211   7.041   8.551   8.045  0.3463  2.4741 -0.7860
18665SOL    HW257212   6.978   8.534   7.909 -0.6832  0.7670 -0.1232
18666SOL     OW57213   5.813   8.199   7.915  0.3040  0.3061 -1.0954
18666SOL    HW157214   5.863   8.150   7.850  1.5683  1.1005 -0.7509
18666SOL    HW257215   5.738   8.232   7.867  0.3267 -0.5257 -1.7396
18667SOL     OW57216   6.571   8.293   8.577 -0.3771  0.0343  0.4392
18667SOL    HW157217   6.514   8.244   8.518 -0.1472 -1.2592  1.2356
18667SOL    HW257218   6.515   8.314   8.652 -0.7601  1.9574 -0.3158
18668SOL     OW57219   6.178   8.024   0.166  0.0645 -0.0377 -0.6400
18668SOL    HW157220   6.244   8.026   0.235  0.1792  1.8890 -0.7383
18668SOL    HW257221   6.123   8.101   0.184  0.0761  0.4944 -2.6406
18669SOL     OW57222   6.600   7.565   0.043  0.5919 -0.6596  0.0555
18669SOL    HW157223   6.599   7.484  -0.007 -0.1054 -2.3590  2.6110
18669SOL    HW257224   6.560   7.542   0.127  2.8004  1.6281  1.9114
18670SOL     OW57225   6.489   7.932   7.688 -0.1209 -0.5640 -0.3202
18670SOL    HW157226   6.483   7.850   7.737 -0.9585  0.2463  0.9911
18670SOL    HW257227   6.492   8.000   7.756 -2.2381  0.6616 -1.3618
18671SOL     OW57228   5.585   8.543   8.029  0.3388 -0.1639 -0.1467
18671SOL    HW157229   5.497   8.557   8.063 -0.1463 -0.9439 -1.0428
18671SOL    HW257230   5.632   8.501   8.102 -0.1398 -0.1088  0.2005
18672SOL     OW57231   6.023   7.897   7.407  0.1804  0.0260  0.4018
18672SOL    HW157232   5.992   7.890   7.316 -0.3887  0.1636  0.5811
18672SOL    HW257233   6.088   7.967   7.405  1.2602 -0.9606 -0.1806
18673SOL     OW57234   7.155   8.123   7.724  0.2399  0.0259 -0.2310
18673SOL    HW157235   7.187   8.095   7.639 -0.8826  2.3936 -1.5093
18673SOL    HW257236   7.224   8.180   7.759  0.2699 -0.1654  0.0306
18674SOL     OW57237   6.049   7.371   8.127  0.0773  0.9226 -0.6339
18674SOL    HW157238   6.009   7.450   8.164  0.4777  1.0432 -0.4467
18674SOL    HW257239   6.110   7.342   8.194  0.0396  0.5365 -0.7672
18675SOL     OW57240   7.397   8.497   8.171 -0.3688  0.0622 -0.1119
18675SOL    HW157241   7.479   8.510   8.218  0.0076 -1.9606 -0.1483
18675SOL    HW257242   7.417   8.430   8.106 -1.5856  0.8911 -1.4033
18676SOL     OW57243   5.803   8.612   7.781  0.1628 -0.2246  0.8787
18676SOL    HW157244   5.760   8.527   7.770 -1.6117  0.8549 -1.4505
18676SOL    HW257245   5.754   8.654   7.852 -0.8515 -0.0868  0.1190
18677SOL     OW57246   7.096   7.726   7.748 -0.3156  0.1743  0.1103
18677SOL    HW157247   7.092   7.675   7.829  0.2259  0.8894  0.6108
18677SOL    HW257248   7.186   7.760   7.746 -0.7132  1.2612 -0.0951
18678SOL     OW57249   7.555   8.262   7.498  0.0926 -0.3428 -0.6047
18678SOL    HW157250   7.511   8.289   7.417 -0.6755 -1.3700 -0.5620
18678SOL    HW257251   7.558   8.166   7.492  0.8022 -0.3790  0.1955
18679SOL     OW57252   6.936   7.496   7.596  0.0124 -0.3432 -0.1464
18679SOL    HW157253   6.966   7.407   7.616 -0.2811 -0.1385  1.3235
18679SOL    HW257254   7.012   7.551   7.615  0.6834 -0.3764 -2.4789
18680SOL     OW57255   5.624   8.383   7.825 -0.8486 -0.0857  0.2404
18680SOL    HW157256   5.596   8.455   7.881 -1.8264  0.2173 -0.6071
18680SOL    HW257257   5.543   8.348   7.788 -0.2599 -0.5045 -0.7004
18681SOL     OW57258   6.113   7.605   7.722 -0.1670 -0.0389 -0.2874
18681SOL    HW157259   6.120   7.529   7.665  0.1131 -1.1217  1.1338
18681SOL    HW257260   6.029   7.646   7.698  0.0508 -0.3259 -1.5914
18682SOL     OW57261   6.575   7.618   8.097  0.1039  0.2942 -0.2735
18682SOL    HW157262   6.626   7.682   8.146 -0.7658  0.7322  0.0708
18682SOL    HW257263   6.494   7.607   8.147 -0.3797  0.0212 -1.0869
18683SOL     OW57264   6.356   7.507   8.215  0.6485  0.0075 -0.9140
18683SOL    HW157265   6.321   7.503   8.126  0.0354 -3.3356 -0.6596
18683SOL    HW257266   6.298   7.451   8.266  2.6010 -0.4299  0.9566
18684SOL     OW57267   6.841   8.676   7.258  0.6498 -0.1621 -0.1988
18684SOL    HW157268   6.764   8.621   7.272 -0.1510  0.6071 -1.3702
18684SOL    HW257269   6.814   8.763   7.287  0.3075  0.5762 -2.5283
18685SOL     OW57270   5.662   7.331   7.404 -0.0610  0.1422 -0.0039
18685SOL    HW157271   5.627   7.262   7.347  0.5814 -0.2328  0.0393
18685SOL    HW257272   5.590   7.393   7.415 -1.2315 -1.3728  1.3366
18686SOL     OW57273   6.700   7.400   7.695 -0.2400  0.3973 -0.3242
18686SOL    HW157274   6.780   7.429   7.652  0.5228 -0.6632  0.3174
18686SOL    HW257275   6.633   7.462   7.667  0.3842  0.2234 -2.3786
18687SOL     OW57276   7.034   8.426   7.716 -0.5195  0.2232  0.0357
18687SOL    HW157277   7.064   8.372   7.643  1.3429 -0.0662  0.9367
18687SOL    HW257278   7.048   8.371   7.793 -2.0591  0.6726  0.6625
18688SOL     OW57279   6.527   0.244   8.056  0.1168 -0.2611  0.0786
18688SOL    HW157280   6.519   0.337   8.035 -0.8184  0.7334  4.0197
18688SOL    HW257281   6.468   0.200   7.995 -0.3380  1.8529 -1.0909
18689SOL     OW57282   6.438   7.858   7.165  0.0103 -0.1177 -0.1949
18689SOL    HW157283   6.491   7.786   7.200  0.5312  0.0711 -0.5853
18689SOL    HW257284   6.420   7.913   7.241 -0.2951 -0.5941  0.0884
18690SOL     OW57285   5.981   7.357   8.676 -0.3963 -0.3362 -0.0442
18690SOL    HW157286   5.925   7.434   8.673 -0.1413 -0.1822 -1.2001
18690SOL    HW257287   6.066   7.388   8.645  0.1706 -0.7197  1.0608
18691SOL     OW57288   6.166   7.835   7.849  0.4722 -0.1717 -0.9623
18691SOL    HW157289   6.163   7.759   7.791  0.6754 -0.4375 -0.6296
18691SOL    HW257290   6.166   7.910   7.790  1.2471 -0.4520 -1.3345
18692SOL     OW57291   6.288   7.571   8.479  0.5028  0.8762 -0.2644
18692SOL    HW157292   6.194   7.554   8.475  0.6261  0.2564 -0.6192
18692SOL    HW257293   6.313   7.590   8.389  1.3052 -2.2763 -0.8069
18693SOL     OW57294   7.143   7.992   7.968 -0.6688  0.0057 -0.7430
18693SOL    HW157295   7.140   8.016   7.875 -1.1026  0.1892 -0.6828
18693SOL    HW257296   7.215   8.044   8.004 -1.5785  1.2051 -0.6176
18694SOL     OW57297   7.093   7.811   8.191  0.0226  0.4785 -0.0276
18694SOL    HW157298   7.063   7.894   8.152  0.0128  0.5949  0.2240
18694SOL    HW257299   7.145   7.770   8.122  0.4525  0.9319  0.0172
18695SOL     OW57300   7.407   8.265   7.754  0.4606 -0.5018  0.3986
18695SOL    HW157301   7.437   8.285   7.665 -1.7221  0.2686 -0.2123
18695SOL    HW257302   7.386   8.350   7.792 -1.4770 -1.0198  0.5614
18696SOL     OW57303   7.655   0.073   8.040 -0.2074  0.4224  0.3797
18696SOL    HW157304   7.578   0.128   8.050 -0.5390  0.4078 -1.6826
18696SOL    HW257305   7.631  -0.010   8.079 -1.0764  0.5722  0.1777
18697SOL     OW57306   6.851   7.938   7.304 -0.0464 -0.3742  0.1891
18697SOL    HW157307   6.787   7.995   7.346 -0.4420  0.0563 -0.9650
18697SOL    HW257308   6.864   7.866   7.366  1.9118  1.8491  2.6300
18698SOL     OW57309   5.854   7.930   8.110  0.3317  0.2676  0.0735
18698SOL    HW157310   5.808   8.013   8.096 -1.2222 -0.5077  0.3904
18698SOL    HW257311   5.876   7.932   8.204 -0.0543  0.1576  0.1686
18699SOL     OW57312   6.857   8.708   8.827  0.6860  0.0698 -0.4402
18699SOL    HW157313   6.799   8.776   8.861  1.6152  1.9637 -2.4155
18699SOL    HW257314   6.800   8.648   8.779  0.1399  0.9547 -0.9094
18700SOL     OW57315   6.499   8.611   8.447  0.2532  0.5353 -0.1496
18700SOL    HW157316   6.536   8.556   8.378 -0.2853 -0.6498  0.4643
18700SOL    HW257317   6.544   8.695   8.439 -0.1478  0.5978 -2.2456
18701SOL     OW57318   6.947   0.029   8.076 -0.1001  0.1123 -0.0852
18701SOL    HW157319   6.965   0.069   8.161 -0.2315  2.6780 -1.1697
18701SOL    HW257320   6.854   0.007   8.080 -0.7320  2.4101 -0.2938
18702SOL     OW57321   7.016   8.273   8.161 -0.1176 -0.4786  0.2782
18702SOL    HW157322   6.955   8.297   8.231 -1.3970 -1.7073 -0.3384
18702SOL    HW257323   6.995   8.333   8.090  0.7053  0.3194  0.6969
18703SOL     OW57324   6.327   8.219   7.917 -0.5746  0.3799 -0.3642
18703SOL    HW157325   6.279   8.174   7.987 -1.3113 -1.7803 -2.1404
18703SOL    HW257326   6.408   8.168   7.907 -0.1177  1.1377 -0.5756
18704SOL     OW57327   6.388   7.963   8.807  0.4982  0.4719 -0.0256
18704SOL    HW157328   6.357   7.990   8.721 -1.5298 -0.5230  0.3289
18704SOL    HW257329   6.318   7.987   8.867  0.5970 -1.3908  0.9280
18705SOL     OW57330   6.634   7.797   8.734  0.0335 -0.3591 -0.1398
18705SOL    HW157331   6.539   7.804   8.742  0.3068  2.1254  2.0831
18705SOL    HW257332   6.659   7.737   8.804  0.2212  0.5170  0.5647
18706SOL     OW57333   6.475   8.844   7.253 -0.3036 -0.0437 -0.4288
18706SOL    HW157334   6.428   8.924   7.279  2.0896  1.0934  0.7828
18706SOL    HW257335   6.439   8.776   7.310 -2.2199  0.1491 -1.3173
18707SOL     OW57336   6.415   7.959   8.156  0.7289 -0.4222 -0.2294
18707SOL    HW157337   6.323   7.984   8.163  1.0900  0.5035  2.4783
18707SOL    HW257338   6.413   7.870   8.121 -1.1828 -0.3518 -0.3963
18708SOL     OW57339   6.697   0.006   7.872 -0.0742  0.1502 -0.0076
18708SOL    HW157340   6.623  -0.039   7.831 -0.9194  0.5290  1.0270
18708SOL    HW257341   6.718  -0.047   7.949  0.3297  0.3671  0.0346
18709SOL     OW57342   6.979   7.832   7.515  0.2062 -0.1061  0.2438
18709SOL    HW157343   7.056   7.887   7.501 -0.0236  0.7124  1.9495
18709SOL    HW257344   6.988   7.801   7.605 -1.9522  0.8229  0.8363
18710SOL     OW57345   6.357   8.157   8.415 -0.3936  0.7774  0.3876
18710SOL    HW157346   6.322   8.077   8.454 -1.6719  1.4772  0.7123
18710SOL    HW257347   6.372   8.133   8.323 -0.7878  0.1670  0.4718
18711SOL     OW57348   6.872   7.976   8.511  0.6654 -0.2664  0.2254
18711SOL    HW157349   6.810   7.905   8.496  1.2847 -0.4379 -1.7255
18711SOL    HW257350   6.863   7.996   8.604 -2.7529  0.1155 -0.0526
18712SOL     OW57351   6.498   7.605   7.546 -0.7066 -0.0576  0.2392
18712SOL    HW157352   6.495   7.689   7.500  1.8994 -0.3435 -0.6504
18712SOL    HW257353   6.522   7.628   7.636  0.1322  0.1730 -0.0333
18713SOL     OW57354   5.622   7.823   8.621  0.1221 -0.0661 -0.0511
18713SOL    HW157355   5.578   7.852   8.541 -1.2449  0.5178  0.8582
18713SOL    HW257356   5.601   7.729   8.627 -0.3833  0.0459 -0.0167
18714SOL     OW57357   5.708   8.430   8.257 -0.7002  0.2470  0.5850
18714SOL    HW157358   5.717   8.392   8.344  0.8154 -0.2204  0.2539
18714SOL    HW257359   5.769   8.503   8.256 -0.6714  0.2206 -0.1030
18715SOL     OW57360   6.356   7.904   8.534  0.2325 -0.4158  0.3351
18715SOL    HW157361   6.280   7.867   8.489 -0.7051  0.8008  0.8340
18715SOL    HW257362   6.432   7.860   8.496 -0.7184 -1.5635 -0.2765
18716SOL     OW57363   6.040   7.489   8.412 -0.0367 -0.1101  0.8081
18716SOL    HW157364   5.975   7.420   8.397 -1.6677  1.4264  0.3706
18716SOL    HW257365   5.989   7.570   8.407  1.9391  1.1676  0.5428
18717SOL     OW57366   6.911   7.617   7.349  0.2082 -0.1646 -0.1037
18717SOL    HW157367   6.890   7.564   7.426  2.1719 -0.2863  0.4035
18717SOL    HW257368   6.945   7.699   7.384 -0.7117  0.5668 -0.8756
18718SOL     OW57369   6.048   8.389   7.913 -0.6122 -0.1770  0.2964
18718SOL    HW157370   5.962   8.348   7.902 -1.2025  0.2675  2.6925
18718SOL    HW257371   6.092   8.336   7.979 -0.1285  1.1533  1.0835
18719SOL     OW57372   6.681   7.381   7.117 -0.1938 -0.2431  0.2283
18719SOL    HW157373   6.589   7.407   7.109 -0.3550 -1.0708 -0.7409
18719SOL    HW257374   6.687   7.297   7.072  1.0211 -0.2496  0.3601
18720SOL     OW57375   7.009   8.162   7.308  0.1556 -0.6031  0.5777
18720SOL    HW157376   6.976   8.073   7.294 -0.0494 -0.3419 -0.6822
18720SOL    HW257377   7.003   8.204   7.222 -1.5259  1.2369  1.5046
18721SOL     OW57378   6.062   8.705   7.847  0.0919 -0.2519  0.3101
18721SOL    HW157379   5.998   8.639   7.823  0.0153 -0.7116  1.6770
18721SOL    HW257380   6.137   8.689   7.789  0.1540 -1.6831  0.7495
18722SOL     OW57381   6.171   8.068   8.110  0.2260 -0.2191 -0.1582
18722SOL    HW157382   6.132   8.143   8.154  0.9659 -0.9153  1.7677
18722SOL    HW257383   6.101   8.004   8.102  0.5413 -0.8736  1.9042
18723SOL     OW57384   6.955   7.833   0.093  0.2305  0.0997  0.0760
18723SOL    HW157385   6.887   7.810   0.157  0.2811 -0.2097  0.0195
18723SOL    HW257386   7.029   7.777   0.115  0.0815 -0.3535 -0.5558
18724SOL     OW57387   6.484   8.681   7.800  0.4158 -0.0074 -0.3345
18724SOL    HW157388   6.481   8.596   7.755  1.4602 -0.8673  1.1110
18724SOL    HW257389   6.418   8.674   7.868 -0.5036  0.9276 -1.1000
18725SOL     OW57390   6.599   8.153   8.155 -0.3785 -0.2519 -0.6856
18725SOL    HW157391   6.534   8.086   8.176  0.7451 -1.4047 -0.7925
18725SOL    HW257392   6.595   8.160   8.060  0.2355 -0.9451 -0.7702
18726SOL     OW57393   5.828   7.964   8.383 -0.3224 -0.4919 -0.3010
18726SOL    HW157394   5.828   7.998   8.473 -1.4159 -1.6548  0.1766
18726SOL    HW257395   5.752   8.007   8.342 -1.9676 -2.5242  0.4302
18727SOL     OW57396   5.903   8.076   7.704 -0.1753  0.2452 -0.2058
18727SOL    HW157397   5.835   8.050   7.642 -0.0573 -0.3395 -0.0923
18727SOL    HW257398   5.985   8.051   7.661 -0.0762  0.1457  0.0422
18728SOL     OW57399   7.421   7.604   8.372 -0.0880  0.3492  0.4451
18728SOL    HW157400   7.410   7.514   8.402 -0.3513 -0.2403 -1.2708
18728SOL    HW257401   7.346   7.651   8.409  0.6302  0.1513  2.2377
18729SOL     OW57402   6.176   7.680   8.762 -0.2109 -0.3823  0.2258
18729SOL    HW157403   6.239   7.678   8.690 -0.8947  1.6717 -0.4836
18729SOL    HW257404   6.188   7.596   8.806  2.4783 -0.3850 -0.3442
18730SOL     OW57405   5.977   8.182   7.333 -0.1466 -0.0660  0.1753
18730SOL    HW157406   6.021   8.267   7.331 -1.2375  0.5436  1.0662
18730SOL    HW257407   5.893   8.199   7.375 -0.3023 -1.6327  0.5803
18731SOL     OW57408   5.791   8.045   8.637  0.3614  0.1616 -0.1341
18731SOL    HW157409   5.718   7.984   8.648 -1.4513  2.3046  0.6890
18731SOL    HW257410   5.842   8.036   8.718 -0.6278  0.5835  0.5682
18732SOL     OW57411   7.059   8.350   8.506  0.7038 -0.6016 -0.2802
18732SOL    HW157412   7.152   8.328   8.502  0.6155 -1.3938  1.3080
18732SOL    HW257413   7.056   8.429   8.560  0.5741  0.4978 -1.8242
18733SOL     OW57414   6.693   8.069   7.514 -0.2857 -0.2585 -0.6684
18733SOL    HW157415   6.680   8.155   7.553 -0.0048 -0.3237 -0.4298
18733SOL    HW257416   6.670   8.007   7.583 -0.9072 -0.3794 -0.9761
18734SOL     OW57417   6.060   8.708   8.509 -0.2853  0.6969 -0.2457
18734SOL    HW157418   5.967   8.722   8.490 -0.7726 -1.0569  0.6354
18734SOL    HW257419   6.090   8.791   8.545 -1.5261  1.2582 -0.4522
18735SOL     OW57420   7.020   7.208   7.609  0.0102 -0.3339  0.1738
18735SOL    HW157421   7.080   7.187   7.681 -0.4846 -1.4989  0.2606
18735SOL    HW257422   7.069   7.186   7.530  0.3108  0.3242  0.1691
18736SOL     OW57423   6.837   7.778   7.915  0.4358 -0.4239 -0.4791
18736SOL    HW157424   6.902   7.815   7.854  1.7627 -1.3563  0.3056
18736SOL    HW257425   6.889   7.749   7.990 -0.9425 -0.9809  0.2929
18737SOL     OW57426   6.341   8.616   8.663 -0.3360  0.9523 -0.5806
18737SOL    HW157427   6.399   8.614   8.587 -1.9557  3.1304 -1.9854
18737SOL    HW257428   6.374   8.689   8.717  0.8193 -0.5893  0.9195
18738SOL     OW57429   7.391   7.372   8.790 -0.6151  0.1899  0.0874
18738SOL    HW157430   7.437   7.313   8.850 -0.7047  0.9466  0.9160
18738SOL    HW257431   7.451   7.445   8.777 -0.4886 -0.0724 -0.9670
18739SOL     OW57432   5.883   7.595   8.181 -0.1351 -0.0218 -0.2205
18739SOL    HW157433   5.847   7.663   8.124 -0.0426 -0.8210 -1.2538
18739SOL    HW257434   5.818   7.584   8.250 -0.4667  0.6328 -0.4261
18740SOL     OW57435   6.228   8.604   8.325  0.3717 -0.0341 -0.1939
18740SOL    HW157436   6.160   8.652   8.372  0.9492 -0.1577  0.8078
18740SOL    HW257437   6.308   8.620   8.375  0.6550 -1.7025 -0.0441
18741SOL     OW57438   6.572   8.340   7.650 -0.0609 -0.2598  0.5095
18741SOL    HW157439   6.639   8.406   7.636 -1.5114  0.9401 -1.0883
18741SOL    HW257440   6.495   8.389   7.676 -1.4079 -1.1902 -1.5015
18742SOL     OW57441   5.937   8.488   8.671  0.4403 -0.4521  0.2095
18742SOL    HW157442   5.958   8.564   8.724  0.3501  0.5591 -1.1646
18742SOL    HW257443   6.016   8.470   8.621 -0.7977  1.5012 -2.7141
18743SOL     OW57444   7.550   8.394   8.408  0.0177 -0.7500  0.1160
18743SOL    HW157445   7.487   8.344   8.459 -0.1553 -0.8395 -0.1814
18743SOL    HW257446   7.603   8.328   8.363 -0.7834 -0.6773 -0.9773
18744SOL     OW57447   6.846   8.016   8.171  0.2508  0.2297 -0.4577
18744SOL    HW157448   6.764   8.058   8.194  0.9954  1.0303  0.8834
18744SOL    HW257449   6.910   8.087   8.171  1.1051 -0.5223 -0.5333
18745SOL     OW57450   6.666   7.370   8.633 -0.3121  0.2149  0.1799
18745SOL    HW157451   6.675   7.344   8.541 -1.4705 -0.3740  0.2128
18745SOL    HW257452   6.724   7.446   8.642 -0.9278  0.9049 -1.3062
18746SOL     OW57453   6.829   7.837   0.540  0.3140 -0.1602  0.4450
18746SOL    HW157454   6.905   7.862   0.593 -0.0811  0.5754  0.6828
18746SOL    HW257455   6.766   7.908   0.554 -0.3487 -0.6732  0.1113
18747SOL     OW57456   6.245   7.441   0.052  0.3517  0.2638  0.6438
18747SOL    HW157457   6.290   7.438  -0.032  0.9112  1.4337  0.8879
18747SOL    HW257458   6.276   7.364   0.099 -0.5914 -0.8682 -0.5070
18748SOL     OW57459   5.917   7.987   7.162 -0.0437  0.1312 -0.8239
18748SOL    HW157460   5.865   8.031   7.095  2.5301  1.9416 -1.7978
18748SOL    HW257461   5.954   8.058   7.214  2.8582 -0.8396 -1.3551
18749SOL     OW57462   5.884   7.712   7.935  0.7445  0.4302 -0.3158
18749SOL    HW157463   5.874   7.787   7.994  0.3267  1.5253 -1.7194
18749SOL    HW257464   5.889   7.751   7.848  0.9187 -1.1684 -1.0542
18750SOL     OW57465   6.403   8.349   8.796  0.1812  0.3150  0.4190
18750SOL    HW157466   6.401   8.432   8.844  0.5473  1.2762 -1.1415
18750SOL    HW257467   6.334   8.357   8.731  0.5338 -0.4239 -0.0580
18751SOL     OW57468   7.323   8.073   8.290  0.3450 -0.3002  0.1233
18751SOL    HW157469   7.411   8.038   8.304  0.5018  0.1290  0.2367
18751SOL    HW257470   7.266   8.018   8.344  0.5498 -0.5593  0.0753
18752SOL     OW57471   6.359   7.158   7.601  0.3799 -0.3196 -0.6429
18752SOL    HW157472   6.452   7.145   7.622  1.2858  2.6767 -2.3093
18752SOL    HW257473   6.358   7.181   7.508 -1.9158  0.9388 -0.3725
18753SOL     OW57474   6.135   7.792   8.429 -0.4599 -0.1156 -0.0892
18753SOL    HW157475   6.159   7.790   8.336 -2.0002 -0.5050 -0.4966
18753SOL    HW257476   6.040   7.790   8.430 -0.4666 -0.6812  1.5185
18754SOL     OW57477   7.211   7.784   0.136  0.1563 -0.2219 -0.3540
18754SOL    HW157478   7.271   7.827   0.076 -0.2627  0.1469 -0.5170
18754SOL    HW257479   7.219   7.834   0.218  0.5028 -0.5347 -0.1982
18755SOL     OW57480   6.674   8.437   7.296 -0.1572 -0.2564  0.3125
18755SOL    HW157481   6.670   8.396   7.382 -1.2153  0.1714  0.4826
18755SOL    HW257482   6.724   8.376   7.242 -0.9004 -1.3188  0.7996
18756SOL     OW57483   6.584   8.139   7.850  0.4274  0.3040  0.0676
18756SOL    HW157484   6.567   8.212   7.790 -2.9144 -0.6887 -0.4191
18756SOL    HW257485   6.679   8.139   7.862  0.6490  4.3410 -0.3302
18757SOL     OW57486   6.567   8.418   6.823  0.2336 -0.4509 -0.6078
18757SOL    HW157487   6.618   8.404   6.903 -0.5157 -0.2873 -0.0852
18757SOL    HW257488   6.476   8.425   6.854 -0.0605 -0.3510 -1.4715
18758SOL     OW57489   5.912   0.283   7.972  0.3199  0.0415  0.2814
18758SOL    HW157490   5.897   0.247   7.885  1.3092 -0.5880  0.3600
18758SOL    HW257491   5.857   0.229   8.029 -2.0222  1.8078 -0.1597
18759SOL     OW57492   7.142   7.586   0.337  0.3160  0.6299 -0.0723
18759SOL    HW157493   7.133   7.524   0.265  0.0145 -1.0340  1.3385
18759SOL    HW257494   7.118   7.671   0.299 -2.1576 -0.5543 -1.3500
18760SOL     OW57495   6.130   7.739   8.153  0.6119  0.1399  0.3459
18760SOL    HW157496   6.061   7.674   8.169  0.3709  0.5662  1.1177
18760SOL    HW257497   6.120   7.763   8.061 -1.8053  1.8653  0.9399
18761SOL     OW57498   7.159   8.601   8.150 -0.3199  0.9085 -0.0230
18761SOL    HW157499   7.155   8.654   8.230  0.8476 -1.0220  1.3910
18761SOL    HW257500   7.246   8.561   8.153 -0.9121 -0.5477 -1.3967
18762SOL     OW57501   6.114   7.959   8.710  0.3542  0.6862 -0.2449
18762SOL    HW157502   6.144   7.870   8.728 -1.5032 -0.1636 -1.1518
18762SOL    HW257503   6.151   7.979   8.624  0.0112  0.4337 -0.4515
18763SOL     OW57504   6.903   7.549   8.246 -0.2364  0.1359 -0.0771
18763SOL    HW157505   6.870   7.493   8.176  0.3467  2.2037 -2.1423
18763SOL    HW257506   6.853   7.630   8.238  0.1124  0.5881  1.7073
18764SOL     OW57507   6.701   7.765   8.490  0.1432 -0.2462  0.1902
18764SOL    HW157508   6.770   7.701   8.507 -1.0136 -1.7153 -0.4452
18764SOL    HW257509   6.662   7.781   8.576 -0.7464 -1.8429  0.1252
18765SOL     OW57510   6.891   0.083   7.699  0.0185 -0.5880  0.2701
18765SOL    HW157511   6.861   0.026   7.770 -0.6716  1.0611  1.3952
18765SOL    HW257512   6.902   0.025   7.624  2.9795 -2.8648  2.2383
18766SOL     OW57513   6.708   7.203   7.336 -0.4234  0.2606  0.1739
18766SOL    HW157514   6.791   7.157   7.321 -0.3205 -0.1736  1.8470
18766SOL    HW257515   6.714   7.282   7.282  0.5051 -0.4201 -0.7567
18767SOL     OW57516   6.758   7.424   8.020  0.4928  0.1334  0.0923
18767SOL    HW157517   6.779   7.458   7.933  0.1039 -0.3994 -0.2161
18767SOL    HW257518   6.683   7.476   8.049 -1.3181 -1.5799 -1.1546
18768SOL     OW57519   7.065   7.442   8.426 -0.2310 -0.4786 -0.2324
18768SOL    HW157520   7.135   7.501   8.453  0.2785 -0.4875 -1.4399
18768SOL    HW257521   7.018   7.491   8.357 -1.1555 -0.6351  0.2640
18769SOL     OW57522   5.895   8.595   7.281 -0.4516  0.2595  0.2547
18769SOL    HW157523   5.880   8.580   7.374  2.1837 -0.1279  0.6976
18769SOL    HW257524   5.945   8.676   7.277 -1.6923  1.0180 -0.9810
18770SOL     OW57525   7.352   0.542   0.019  0.0207  0.1108  0.0357
18770SOL    HW157526   7.290   0.497   0.077  1.6793  0.4065  2.1718
18770SOL    HW257527   7.351   0.633   0.048 -0.1878  0.6049 -1.4284
18771SOL     OW57528   7.559   0.380   1.664  0.4624  0.1317  0.1459
18771SOL    HW157529   7.608   0.416   1.590 -0.2327  1.3719  0.2674
18771SOL    HW257530   7.515   0.303   1.629  0.6899  0.3119 -0.5525
18772SOL     OW57531   7.355   0.435   1.175 -0.3038  0.6205 -1.2308
18772SOL    HW157532   7.308   0.352   1.180 -2.0368  1.6380  0.6290
18772SOL    HW257533   7.440   0.417   1.215 -1.0094 -0.0477  0.0020
18773SOL     OW57534   7.949   1.544   1.124 -0.0117  0.3139  0.2187
18773SOL    HW157535   7.893   1.538   1.047 -0.1993 -1.2891  0.4346
18773SOL    HW257536   7.999   1.625   1.112 -0.7599  0.6095 -1.0729
18774SOL     OW57537   0.061   1.518   0.379  0.0256 -0.4305  0.3980
18774SOL    HW157538   0.071   1.427   0.407 -0.0272 -0.4799  0.2573
18774SOL    HW257539   0.100   1.521   0.292 -1.2654 -0.6584 -0.2221
18775SOL     OW57540   8.290   0.869   0.452  0.1315  0.4205  0.4368
18775SOL    HW157541   8.316   0.813   0.525 -0.5633 -0.5589 -0.0585
18775SOL    HW257542   8.303   0.958   0.486  2.6350  0.0263  0.7409
18776SOL     OW57543   7.949   1.247   0.942 -0.0424  0.6070  0.1227
18776SOL    HW157544   7.879   1.280   0.885 -0.7286 -0.1696  0.4807
18776SOL    HW257545   8.019   1.221   0.882 -0.5269  0.3377 -0.3338
18777SOL     OW57546   8.424   0.688   1.859  0.6287  0.0418  0.0886
18777SOL    HW157547   8.468   0.682   1.944 -0.8850 -1.4856  0.8163
18777SOL    HW257548   8.399   0.598   1.838  0.7123  0.4257 -1.8598
18778SOL     OW57549   7.824   0.752   0.653  0.1436 -0.4530  0.1479
18778SOL    HW157550   7.865   0.824   0.605  1.0556 -0.7117  0.5226
18778SOL    HW257551   7.830   0.779   0.745 -0.7851 -0.3701  0.1944
18779SOL     OW57552   7.807   1.184   1.909  0.5056 -0.3691  0.0072
18779SOL    HW157553   7.881   1.216   1.960 -0.3179  3.0162 -0.7320
18779SOL    HW257554   7.734   1.180   1.971  0.2593  0.7237 -0.1902
18780SOL     OW57555   7.817   1.547   0.903  0.8316 -0.2747  0.1360
18780SOL    HW157556   7.813   1.480   0.835 -2.9342 -0.5823  0.4242
18780SOL    HW257557   7.795   1.628   0.857 -1.6246 -0.4690  0.8191
18781SOL     OW57558   7.827   0.239   1.377 -0.3343  0.5188  0.6470
18781SOL    HW157559   7.887   0.173   1.411 -1.1294 -0.1772  0.7212
18781SOL    HW257560   7.767   0.191   1.321 -1.4424  1.0338  1.3726
18782SOL     OW57561   8.012   1.486   0.359  0.7255 -0.0846 -0.0727
18782SOL    HW157562   8.100   1.498   0.324  1.4151  1.4316  1.9947
18782SOL    HW257563   7.975   1.575   0.362 -1.4066 -0.8084 -2.0504
18783SOL     OW57564   8.641   1.063   1.568  0.4625 -0.3701 -0.7024
18783SOL    HW157565   8.596   1.119   1.632  1.9598  0.2264 -0.1231
18783SOL    HW257566   8.729   1.052   1.604  0.5916 -2.0724 -1.4617
18784SOL     OW57567   7.606   1.613   0.317 -0.4065  0.3364 -0.1345
18784SOL    HW157568   7.627   1.647   0.404  0.9729  0.7726 -0.5934
18784SOL    HW257569   7.574   1.690   0.269 -1.6134 -0.0002  0.1007
18785SOL     OW57570   7.171   0.907   1.304  0.2056  0.3103 -0.7941
18785SOL    HW157571   7.204   0.940   1.387  0.1542 -0.9406 -0.2553
18785SOL    HW257572   7.108   0.973   1.275 -0.3017  0.4103  0.5107
18786SOL     OW57573   7.788   1.684   1.448 -0.3605 -0.5679  0.0419
18786SOL    HW157574   7.846   1.608   1.447  1.9406  1.0768 -0.2392
18786SOL    HW257575   7.847   1.758   1.461 -1.9707  1.5919 -3.5918
18787SOL     OW57576   7.612   0.578   0.136  0.7871 -0.1118  0.5355
18787SOL    HW157577   7.573   0.619   0.213  0.3595  1.4712 -0.4617
18787SOL    HW257578   7.538   0.545   0.085  0.7827  1.6133 -0.6595
18788SOL     OW57579   7.035   0.655   0.806 -0.0509 -0.0345  0.1248
18788SOL    HW157580   7.084   0.732   0.779  2.8123 -2.3302 -1.9499
18788SOL    HW257581   7.076   0.628   0.889  0.1180 -0.2670 -0.0332
18789SOL     OW57582   7.389   1.471   0.406 -0.0215 -0.5843 -0.1946
18789SOL    HW157583   7.426   1.383   0.398 -1.2027 -1.0358 -1.0694
18789SOL    HW257584   7.458   1.529   0.377  1.0130 -1.1592  1.0112
18790SOL     OW57585   8.748   0.931   0.297  0.2923  0.3021  0.6973
18790SOL    HW157586   8.735   0.980   0.215 -3.6337 -0.4370  0.6794
18790SOL    HW257587   8.723   0.993   0.366  0.9108  0.0642  1.1454
18791SOL     OW57588   7.598   0.656   1.043  0.2884  0.0086 -0.7277
18791SOL    HW157589   7.545   0.602   0.984  1.0287 -0.1365 -1.2712
18791SOL    HW257590   7.538   0.681   1.113 -0.2363 -1.0110 -0.7934
18792SOL     OW57591   7.509   1.294   0.690  0.5467  0.0977  0.0392
18792SOL    HW157592   7.512   1.247   0.774 -2.1917 -2.1564 -0.9511
18792SOL    HW257593   7.437   1.356   0.700  1.5203  1.2838 -0.0439
18793SOL     OW57594   8.518   0.430   1.489  0.4016 -0.3353 -0.0873
18793SOL    HW157595   8.597   0.480   1.510 -1.6191  2.3680  1.8814
18793SOL    HW257596   8.490   0.464   1.404  0.1557  0.3811  0.2745
18794SOL     OW57597   8.004   8.594   0.678 -0.2108  0.8432 -0.4391
18794SOL    HW157598   7.989   8.557   0.591 -0.5446 -1.1482  0.4088
18794SOL    HW257599   7.917   8.619   0.709 -0.4454 -0.6400  0.2038
18795SOL     OW57600   7.755   0.663   1.311  0.0350  0.3685  0.0798
18795SOL    HW157601   7.736   0.750   1.347 -2.7696 -0.4070  0.6994
18795SOL    HW257602   7.707   0.661   1.228 -1.1162 -1.0587  0.7486
18796SOL     OW57603   0.063   1.565   1.081 -0.3419 -0.1586 -0.6171
18796SOL    HW157604   0.033   1.502   1.147 -1.4869 -0.8023 -1.7018
18796SOL    HW257605  -0.018   1.598   1.043  0.2913  1.0271 -0.9493
18797SOL     OW57606   8.139   0.323   1.422  0.1481 -0.3410 -0.0210
18797SOL    HW157607   8.096   0.238   1.414 -0.1075 -0.2025 -0.1135
18797SOL    HW257608   8.228   0.308   1.390  0.6544 -0.9960  1.5445
18798SOL     OW57609   7.097   0.506   0.480  0.4564  0.4765 -0.0905
18798SOL    HW157610   7.083   0.601   0.475 -0.7302  0.2572 -3.1571
18798SOL    HW257611   7.017   0.473   0.520  0.2730  0.6958 -0.2674
18799SOL     OW57612   8.314   8.681   1.108  0.9417 -0.1279 -0.0383
18799SOL    HW157613   8.263   8.691   1.028  0.2941  2.9713  0.6552
18799SOL    HW257614   8.332   8.587   1.113 -1.8961 -0.8974 -2.0036
18800SOL     OW57615   8.454   0.498   1.234 -0.5153  0.7348 -0.2882
18800SOL    HW157616   8.372   0.465   1.197 -0.8872 -0.1653  1.2485
18800SOL    HW257617   8.523   0.448   1.190 -0.8097  1.0610 -1.1399
18801SOL     OW57618   8.727   0.596   1.943 -0.2537  0.2423 -0.1334
18801SOL    HW157619   8.687   0.517   1.978 -1.3041  1.1630  0.8543
18801SOL    HW257620   8.740   0.652   2.019  1.0640  0.7817 -0.7256
18802SOL     OW57621   8.354   0.928   1.566 -0.2512  0.0986 -0.1423
18802SOL    HW157622   8.346   0.930   1.470  1.3590 -0.0893 -0.3240
18802SOL    HW257623   8.400   1.009   1.587 -3.4234  1.7683  0.8758
18803SOL     OW57624   8.777   0.610   0.907 -0.0179 -0.0227 -0.1966
18803SOL    HW157625   8.698   0.556   0.898 -0.2522  0.1569  0.6523
18803SOL    HW257626   8.843   0.565   0.855 -0.6788 -0.1825 -0.9075
18804SOL     OW57627   8.168   0.667   0.334 -0.0208  0.0446  0.5569
18804SOL    HW157628   8.204   0.746   0.375  1.8431 -1.2000  1.4858
18804SOL    HW257629   8.109   0.632   0.400 -0.8247  0.6225  0.1569
18805SOL     OW57630   7.423   0.521   0.859 -0.0724 -0.4668 -0.2104
18805SOL    HW157631   7.391   0.450   0.802 -0.1754 -0.9589  0.4475
18805SOL    HW257632   7.344   0.568   0.886 -0.0076 -0.1218 -0.6134
18806SOL     OW57633   7.312   1.805   1.596  0.7832  0.2568 -0.0216
18806SOL    HW157634   7.230   1.839   1.630  1.3580  0.5171  1.1696
18806SOL    HW257635   7.302   1.709   1.600  0.3146  0.2821 -0.4789
18807SOL     OW57636   8.239   0.330   0.218  0.6717 -0.0625 -0.6240
18807SOL    HW157637   8.273   0.302   0.133  0.0671 -2.0993 -0.2553
18807SOL    HW257638   8.160   0.379   0.198  0.9139  0.0720 -1.2655
18808SOL     OW57639   0.268   1.159   0.347  0.4881 -0.0863  0.2237
18808SOL    HW157640   0.222   1.214   0.410 -0.4456  0.4526 -0.8887
18808SOL    HW257641   0.304   1.088   0.399 -0.3531  0.2889  1.3559
18809SOL     OW57642   8.382   0.179   0.937  0.0367  0.1235  0.2836
18809SOL    HW157643   8.377   0.182   0.841 -0.9801 -0.4265  0.3103
18809SOL    HW257644   8.305   0.228   0.966  0.2845  0.1925  0.8247
18810SOL     OW57645   8.370   1.316   0.802 -0.2485  0.7188  0.1125
18810SOL    HW157646   8.404   1.384   0.743  1.8867 -0.3864 -0.0294
18810SOL    HW257647   8.443   1.296   0.861 -0.7171 -1.5699  0.0124
18811SOL     OW57648   7.676   1.796   0.539  0.7229 -0.1071  0.0120
18811SOL    HW157649   7.743   1.800   0.607  0.3793  2.0247  0.2879
18811SOL    HW257650   7.593   1.798   0.587  0.4743  0.0589 -0.4198
18812SOL     OW57651   8.170   1.212   1.416 -0.6623  0.1706 -0.1729
18812SOL    HW157652   8.148   1.176   1.330 -0.1290  1.5962 -0.9312
18812SOL    HW257653   8.234   1.280   1.398 -0.9445  0.8697  1.3187
18813SOL     OW57654   7.445   0.776   8.695 -0.1313 -0.9795  0.2707
18813SOL    HW157655   7.363   0.819   8.719  0.0202  0.5740 -1.7858
18813SOL    HW257656   7.423   0.683   8.694 -1.5692 -0.6788  0.8015
18814SOL     OW57657   7.804   1.230   1.179  0.4870  0.1700  0.6696
18814SOL    HW157658   7.836   1.223   1.089  0.0971  0.2033  0.5272
18814SOL    HW257659   7.836   1.316   1.208  0.5657  0.1841  0.5449
18815SOL     OW57660   8.608   1.714   0.114  0.3703 -0.2515  0.5213
18815SOL    HW157661   8.686   1.665   0.091 -0.9109 -1.3185 -1.9889
18815SOL    HW257662   8.624   1.802   0.080  0.9238 -0.1627  1.0174
18816SOL     OW57663   7.031   8.688   1.796  0.3636  0.2240 -0.0284
18816SOL    HW157664   6.945   8.682   1.837 -0.0647 -0.4684 -0.9945
18816SOL    HW257665   7.042   8.781   1.776 -0.3023  0.2625 -0.2072
18817SOL     OW57666   0.482   1.347   0.149 -0.1327  0.5867 -0.1077
18817SOL    HW157667   0.475   1.268   0.202 -0.9680 -0.5294 -1.8081
18817SOL    HW257668   0.448   1.417   0.205  0.6957 -0.2015  1.4495
18818SOL     OW57669   8.080   1.244   0.467  0.1857  0.8545 -0.2813
18818SOL    HW157670   8.068   1.339   0.470 -2.0188  0.6311  1.5190
18818SOL    HW257671   8.034   1.216   0.388  0.0301  1.2134 -0.3188
18819SOL     OW57672   7.575   1.595   1.250 -0.3328 -0.0199  0.5089
18819SOL    HW157673   7.649   1.603   1.311  0.0863  2.2731 -0.1992
18819SOL    HW257674   7.498   1.602   1.306 -0.0296 -1.1838  1.1135
18820SOL     OW57675   8.549   1.547   0.633  0.0995  0.2983  0.1250
18820SOL    HW157676   8.599   1.590   0.702  0.7199 -0.1192 -0.0511
18820SOL    HW257677   8.602   1.560   0.554 -0.3892  0.4080 -0.1862
18821SOL     OW57678   7.310   0.334   0.633 -0.0592  0.4076 -0.3097
18821SOL    HW157679   7.291   0.398   0.564 -0.9560 -1.6727 -2.1092
18821SOL    HW257680   7.225   0.304   0.662  0.2346 -2.1454 -1.7358
18822SOL     OW57681   7.740   0.293   0.224  0.7005 -0.1710 -0.1108
18822SOL    HW157682   7.817   0.349   0.217  1.3644 -1.0919 -0.2606
18822SOL    HW257683   7.748   0.250   0.308  0.0925  0.0828  0.0860
18823SOL     OW57684   8.031   0.071   1.427  0.0158 -0.0179  0.2395
18823SOL    HW157685   8.107   0.020   1.398 -0.6937 -1.6481  1.0751
18823SOL    HW257686   8.042   0.075   1.522 -1.4357 -1.1854  0.4890
18824SOL     OW57687   7.988   1.467   1.399  0.1995  0.7441  0.3597
18824SOL    HW157688   8.074   1.504   1.417  0.0696  1.3499 -0.2169
18824SOL    HW257689   7.963   1.504   1.314 -0.1668 -0.2643  0.0163
18825SOL     OW57690   8.825   0.664   1.304  0.4464  0.2229  0.3838
18825SOL    HW157691   8.837   0.578   1.263 -1.7569 -0.2985  0.6993
18825SOL    HW257692   8.913   0.693   1.326  1.2823 -1.7032 -0.2338
18826SOL     OW57693   8.130   1.198   0.741  0.8199  1.1571 -0.0302
18826SOL    HW157694   8.118   1.211   0.647  0.3315 -1.1866 -0.3706
18826SOL    HW257695   8.212   1.244   0.762  0.8940  1.7762 -1.5831
18827SOL     OW57696   8.188   0.577   0.858  0.3338  0.5394 -0.5381
18827SOL    HW157697   8.111   0.591   0.802 -0.5424  0.2863  0.5717
18827SOL    HW257698   8.259   0.622   0.812 -0.6179  1.3725 -1.2422
18828SOL     OW57699   7.951   0.399   0.775  0.8432  0.5707  0.3907
18828SOL    HW157700   7.995   0.349   0.844 -0.2712 -0.7860  0.1796
18828SOL    HW257701   7.894   0.335   0.732  1.8409  1.2430 -2.1348
18829SOL     OW57702   8.182   1.376   0.130 -0.6609  0.6089  0.0869
18829SOL    HW157703   8.237   1.454   0.122  0.0654  0.1485  0.4975
18829SOL    HW257704   8.243   1.303   0.132 -1.2557  0.1100  1.0270
18830SOL     OW57705   7.082   0.213   0.766 -0.3579  0.6527  0.5279
18830SOL    HW157706   7.042   0.127   0.780 -1.5232  0.6984 -2.0506
18830SOL    HW257707   7.010   0.275   0.774  0.0156  1.1579  0.0836
18831SOL     OW57708   8.308   8.792   0.435 -0.2962  0.4248 -0.1867
18831SOL    HW157709   8.236   8.749   0.389  0.4042 -1.8113  0.6907
18831SOL    HW257710   8.385   8.776   0.381  0.1576 -0.3822  0.6686
18832SOL     OW57711   8.568   0.757   1.220 -0.1258  0.3690 -0.0907
18832SOL    HW157712   8.514   0.683   1.248  0.2146  0.4809  0.9300
18832SOL    HW257713   8.658   0.729   1.237  0.0086  1.0012  0.2946
18833SOL     OW57714   8.192   2.081   0.234  0.1958 -0.2264 -0.2944
18833SOL    HW157715   8.209   2.146   0.166  0.2396 -0.1036 -0.1664
18833SOL    HW257716   8.111   2.111   0.276 -0.5402 -0.9735 -1.1047
18834SOL     OW57717   7.380   1.101   0.878 -0.2721 -0.2619  0.3845
18834SOL    HW157718   7.388   1.007   0.862  0.0514 -0.3408  0.9861
18834SOL    HW257719   7.440   1.119   0.951 -2.8516 -0.2142  2.6814
18835SOL     OW57720   8.825   1.570   0.040 -0.0343 -0.1537 -0.0284
18835SOL    HW157721   8.853   1.566  -0.052 -0.5806 -1.7964 -0.1647
18835SOL    HW257722   8.887   1.514   0.086 -1.4881 -1.8230  0.0564
18836SOL     OW57723   8.248   0.604   0.096  0.7888 -0.1596 -0.0034
18836SOL    HW157724   8.224   0.633   0.184 -0.3988  2.1488 -0.9864
18836SOL    HW257725   8.301   0.675   0.060  1.4866 -1.1770 -1.0758
18837SOL     OW57726   7.770   0.473   1.503  0.3508  0.2701  0.3390
18837SOL    HW157727   7.764   0.540   1.435  1.2350  2.0311  1.8988
18837SOL    HW257728   7.798   0.394   1.457 -1.2248  0.8003 -1.6401
18838SOL     OW57729   7.966   0.375   1.154 -0.0048  0.0934  0.1210
18838SOL    HW157730   7.921   0.311   1.097  1.8330 -1.2547  0.0712
18838SOL    HW257731   7.949   0.344   1.243  1.1333 -0.6772  0.0860
18839SOL     OW57732   8.397   0.231   0.682 -0.3243 -0.0286  0.4001
18839SOL    HW157733   8.375   0.295   0.614  0.8665  0.5438  0.5331
18839SOL    HW257734   8.399   0.147   0.637 -1.4079  0.0757  0.1240
18840SOL     OW57735   7.853   8.560   1.035  0.0432 -0.1781 -0.2770
18840SOL    HW157736   7.832   8.605   0.953 -1.6271 -2.0317 -0.9266
18840SOL    HW257737   7.768   8.549   1.078  0.6628 -1.0401  0.7547
18841SOL     OW57738   7.456   1.210   0.414  0.4108 -0.2836 -0.1718
18841SOL    HW157739   7.465   1.226   0.509 -1.6754 -1.9639  0.3766
18841SOL    HW257740   7.452   1.115   0.406  0.2763 -0.1485 -1.9513
18842SOL     OW57741   0.223   1.103   0.064 -0.3711 -0.0553  0.1215
18842SOL    HW157742   0.269   1.133   0.143  0.2721 -1.3727  0.2767
18842SOL    HW257743   0.290   1.062   0.011 -1.3271 -2.0919  0.3768
18843SOL     OW57744   7.681   0.365   0.508 -0.4135 -0.2278 -0.0184
18843SOL    HW157745   7.687   0.329   0.596  0.9727  0.1738  0.0826
18843SOL    HW257746   7.657   0.457   0.521 -2.1398 -0.6239 -0.1832
18844SOL     OW57747   8.625   1.169   1.311 -0.1622 -0.5695  0.5997
18844SOL    HW157748   8.640   1.138   1.401  0.1483 -1.3628  0.2810
18844SOL    HW257749   8.548   1.120   1.282 -0.0003 -0.6408  0.2868
18845SOL     OW57750   8.128   1.107   1.136 -0.5516 -0.0354 -0.4220
18845SOL    HW157751   8.041   1.107   1.095 -2.0395 -0.0683  2.5191
18845SOL    HW257752   8.152   1.014   1.142 -0.8259 -0.0942 -0.2269
18846SOL     OW57753   8.431   0.176   1.444  0.0086 -0.5969 -0.0191
18846SOL    HW157754   8.481   0.155   1.365  0.5045 -0.7946  0.3400
18846SOL    HW257755   8.475   0.253   1.480 -0.5174 -0.2076 -0.1976
18847SOL     OW57756   7.852   0.688   1.622  0.2216  0.0334 -0.2538
18847SOL    HW157757   7.836   0.602   1.582  1.6134 -1.0482  1.3853
18847SOL    HW257758   7.936   0.715   1.586  0.2056  0.3161 -0.0770
18848SOL     OW57759   7.846   0.925   0.243 -0.5577  0.5463 -0.3624
18848SOL    HW157760   7.803   0.969   0.316 -0.4584  2.1797 -1.2580
18848SOL    HW257761   7.935   0.959   0.244  0.0534 -0.9555 -0.0453
18849SOL     OW57762   7.769   0.832   0.941  0.0265  0.8944 -0.0118
18849SOL    HW157763   7.706   0.770   0.978 -1.1734  1.0955 -1.5794
18849SOL    HW257764   7.736   0.918   0.967 -0.6516  1.0216 -1.1901
18850SOL     OW57765   8.851   0.381   1.158  0.5711 -0.0007 -0.0001
18850SOL    HW157766   8.766   0.370   1.114 -0.8967  2.7340  1.8336
18850SOL    HW257767   8.861   0.303   1.212 -0.5550 -0.5903 -0.6048
18851SOL     OW57768   7.529   1.199   1.113  0.5506 -0.4949 -0.4180
18851SOL    HW157769   7.608   1.180   1.164  0.4749  0.9081  0.2746
18851SOL    HW257770   7.540   1.290   1.086 -1.3913  0.1418  0.7630
18852SOL     OW57771   7.726   1.106   0.418 -0.4399 -0.2086 -0.5987
18852SOL    HW157772   7.724   1.196   0.386  0.7914 -0.0366 -0.2279
18852SOL    HW257773   7.634   1.082   0.426 -0.7892  1.0226 -0.6853
18853SOL     OW57774   7.475   8.683   0.701  0.0988  0.5166 -0.4599
18853SOL    HW157775   7.412   8.671   0.772 -0.0674  0.6472 -0.5823
18853SOL    HW257776   7.472   8.777   0.683 -0.1269  0.4302 -0.8801
18854SOL     OW57777   0.124   1.802   0.135 -0.0428 -0.0776  0.0924
18854SOL    HW157778   0.084   1.716   0.144 -0.9748  0.3252 -0.1218
18854SOL    HW257779   0.091   1.852   0.210 -0.3180  0.3994 -0.3445
18855SOL     OW57780   8.849   1.409   1.296  0.1449 -0.0551 -0.3619
18855SOL    HW157781   8.908   1.363   1.356  0.3759  1.5271  0.6903
18855SOL    HW257782   8.762   1.375   1.316  0.1208  0.9036  1.4136
18856SOL     OW57783   7.507   1.953   1.200  0.2840 -0.1808  0.0382
18856SOL    HW157784   7.455   1.881   1.236 -2.9294 -0.4365 -4.3550
18856SOL    HW257785   7.578   1.911   1.153 -0.0416 -0.3252 -0.3263
18857SOL     OW57786   7.698   0.610   1.835  0.0503  0.2453 -0.6280
18857SOL    HW157787   7.750   0.660   1.772  0.2617 -0.1810 -0.7964
18857SOL    HW257788   7.747   0.616   1.917  1.7247 -2.2037 -1.3337
18858SOL     OW57789   8.641   8.793   1.683 -0.4564  0.1325  0.3919
18858SOL    HW157790   8.556   8.800   1.640  0.7714  0.7513 -2.1701
18858SOL    HW257791   8.703   8.778   1.611  1.4850 -1.5691  2.2530
18859SOL     OW57792   7.843   0.075   1.960 -0.3028  0.1083  0.2750
18859SOL    HW157793   7.868   0.041   2.046  1.6150  0.5873 -0.0356
18859SOL    HW257794   7.791   0.006   1.920 -0.6678 -0.3856  1.5748
18860SOL     OW57795   8.026   0.803   0.906 -0.3375 -0.2462 -0.3738
18860SOL    HW157796   7.935   0.834   0.907  0.2472  1.6014 -0.3568
18860SOL    HW257797   8.031   0.741   0.979 -1.7230 -0.8844 -0.7791
18861SOL     OW57798   8.751   0.879   0.818 -0.4108  0.1377  0.4130
18861SOL    HW157799   8.665   0.907   0.851  0.8322  2.5803  1.9449
18861SOL    HW257800   8.771   0.799   0.867 -1.5072 -0.0432  0.5780
18862SOL     OW57801   8.569   0.420   0.399 -0.1244  0.4366  0.2646
18862SOL    HW157802   8.627   0.394   0.471  0.6255 -0.2583 -0.5599
18862SOL    HW257803   8.496   0.465   0.442 -0.2790 -0.9548  1.5505
18863SOL     OW57804   7.627   8.836   1.323  0.2571 -0.2605 -0.1096
18863SOL    HW157805   7.594   8.894   1.255 -0.7911  0.7249  1.1612
18863SOL    HW257806   7.569   8.853   1.398  1.6589 -0.9150  1.1722
18864SOL     OW57807   7.105   1.278   1.365 -0.3374  0.3564  0.0674
18864SOL    HW157808   7.046   1.206   1.387  2.5594 -1.9311  0.9664
18864SOL    HW257809   7.142   1.254   1.281  0.2060  1.1214  0.0754
18865SOL     OW57810   7.685   0.261   0.772 -0.5621  0.2398 -0.2572
18865SOL    HW157811   7.660   0.338   0.823 -0.3560  0.5878 -0.6708
18865SOL    HW257812   7.692   0.190   0.837  0.0196  0.7468  0.2502
18866SOL     OW57813   7.364   0.104   0.394  0.0935 -0.0105 -0.1407
18866SOL    HW157814   7.403   0.084   0.479  1.4523  0.4106 -0.6423
18866SOL    HW257815   7.364   0.200   0.390  0.3990 -0.0349 -0.7756
18867SOL     OW57816   0.371   0.684   8.788  0.5155 -0.4198 -0.1660
18867SOL    HW157817   0.394   0.726   8.871 -0.0166 -0.6849  0.1230
18867SOL    HW257818   0.276   0.693   8.783  0.7098  1.3541 -1.7021
18868SOL     OW57819   8.266   0.955   0.859 -0.2074 -0.5965  0.4446
18868SOL    HW157820   8.187   0.902   0.867 -0.3482 -0.4455  0.1060
18868SOL    HW257821   8.236   1.037   0.818  0.2413 -0.8359 -0.3821
18869SOL     OW57822   8.141   1.229   1.699 -0.1358  0.2268  0.1065
18869SOL    HW157823   8.188   1.196   1.623 -0.6720 -1.1318  0.3522
18869SOL    HW257824   8.172   1.320   1.708  1.3967 -0.2028 -0.5406
18870SOL     OW57825   7.342   0.995   1.813 -0.0831 -0.0837  0.5354
18870SOL    HW157826   7.287   0.989   1.735 -1.4842 -2.4607  1.6009
18870SOL    HW257827   7.430   0.972   1.783 -0.4839 -0.3740 -0.4532
18871SOL     OW57828   8.497   0.508   0.162 -0.1153 -0.5211  0.0067
18871SOL    HW157829   8.404   0.515   0.141 -0.0318 -2.7876 -1.3581
18871SOL    HW257830   8.499   0.485   0.255 -0.9377 -0.8610 -0.0546
18872SOL     OW57831   8.356   1.461   0.450  0.1243  0.5253  0.6411
18872SOL    HW157832   8.424   1.493   0.510  0.5738  0.0729  0.3814
18872SOL    HW257833   8.356   1.524   0.378  0.6767  0.2216  0.3636
18873SOL     OW57834   7.583   0.605   0.627  0.1154  0.0657  0.3697
18873SOL    HW157835   7.652   0.667   0.650 -1.7533  1.9640  1.1861
18873SOL    HW257836   7.543   0.580   0.710  0.6066 -2.0886  0.0393
18874SOL     OW57837   8.282   0.399   0.495  0.1925  0.4772  0.1893
18874SOL    HW157838   8.211   0.456   0.525 -0.8181 -1.0080  0.7620
18874SOL    HW257839   8.267   0.390   0.401 -1.2904 -0.9301  0.5052
18875SOL     OW57840   8.765   0.553   1.556 -0.0331  0.2106  0.3940
18875SOL    HW157841   8.803   0.608   1.487  0.4763  0.7012  1.0539
18875SOL    HW257842   8.688   0.601   1.586 -2.0017 -1.3501 -1.7859
18876SOL     OW57843   0.052   0.173   1.325 -0.0813 -0.4004  0.4053
18876SOL    HW157844  -0.006   0.126   1.266 -0.9215  0.6378  0.3786
18876SOL    HW257845   0.113   0.107   1.356  0.3183 -1.0077 -1.5292
18877SOL     OW57846   7.581   1.455   1.000  0.3805 -0.2709  0.6296
18877SOL    HW157847   7.671   1.486   0.986  0.2120  0.3496  0.8767
18877SOL    HW257848   7.539   1.526   1.050 -0.0432 -0.8627  1.1322
18878SOL     OW57849   7.743   2.034   0.876  0.4476  0.4976  0.1328
18878SOL    HW157850   7.723   1.995   0.961  2.1038 -0.3225  0.1806
18878SOL    HW257851   7.699   2.120   0.878 -2.7324 -0.9750  0.2761
18879SOL     OW57852   8.420   0.985   1.284 -0.0676  0.6266  0.1252
18879SOL    HW157853   8.483   0.916   1.265  1.4018  1.8831  0.2468
18879SOL    HW257854   8.334   0.946   1.265  0.7426 -1.0883 -0.1360
18880SOL     OW57855   7.421   0.605   1.737  0.0216  0.1397  0.2403
18880SOL    HW157856   7.401   0.644   1.652 -1.0833  0.4790  0.6382
18880SOL    HW257857   7.467   0.524   1.716 -0.1102  0.2879 -0.6742
18881SOL     OW57858   7.866   0.388   1.755  0.2629 -0.0488 -0.7166
18881SOL    HW157859   7.807   0.453   1.793 -1.5044 -1.5955 -0.6966
18881SOL    HW257860   7.848   0.391   1.661 -0.0611 -0.7349 -0.6767
18882SOL     OW57861   8.058   0.542   0.573  0.2191 -0.4276  0.3731
18882SOL    HW157862   8.011   0.622   0.595  0.8451  0.3234 -0.9327
18882SOL    HW257863   8.045   0.485   0.649 -1.3093  0.4130  0.7770
18883SOL     OW57864   7.468   1.375   1.458  0.1944 -0.2754 -0.0310
18883SOL    HW157865   7.513   1.356   1.540 -0.6968 -1.3639  0.2280
18883SOL    HW257866   7.379   1.342   1.471 -0.4933  1.1732 -0.7834
18884SOL     OW57867   8.585   0.360   1.048  0.4411  0.7933  0.3835
18884SOL    HW157868   8.527   0.286   1.031  1.8355 -0.6305  1.5983
18884SOL    HW257869   8.573   0.417   0.972 -1.6523 -0.0088  0.0533
18885SOL     OW57870   8.273   1.601   1.377 -0.3009 -0.6987 -0.3183
18885SOL    HW157871   8.351   1.656   1.377 -0.7102 -0.0369  1.7375
18885SOL    HW257872   8.304   1.515   1.349  1.2947 -0.5739  0.9109
18886SOL     OW57873   6.916   8.799   0.503 -0.5105 -0.4003  0.5214
18886SOL    HW157874   6.902   8.891   0.523 -0.9486 -0.8293  2.3901
18886SOL    HW257875   6.839   8.773   0.452 -0.1485  0.3685 -0.4335
18887SOL     OW57876   7.547   0.884   1.464 -0.7658 -0.1795  0.3743
18887SOL    HW157877   7.637   0.908   1.443 -1.1443 -0.4575 -1.7737
18887SOL    HW257878   7.547   0.873   1.559  1.6049 -0.7628  0.3706
18888SOL     OW57879   8.522   0.954   0.972  0.2105  0.0371  0.0929
18888SOL    HW157880   8.516   0.922   1.062  0.4828  0.5293  0.2904
18888SOL    HW257881   8.434   0.942   0.936 -0.2611  1.0537  0.8449
18889SOL     OW57882   8.120   0.985   8.475  0.3773 -0.2084 -0.1260
18889SOL    HW157883   8.138   1.022   8.561  0.2949  0.6112 -0.4569
18889SOL    HW257884   8.032   0.947   8.484  1.0284 -1.6098  0.6233
18890SOL     OW57885   8.571   1.619   1.223  0.2916  0.1557 -0.1148
18890SOL    HW157886   8.591   1.579   1.307 -2.8942  0.3375  0.8799
18890SOL    HW257887   8.573   1.714   1.240 -2.0773  0.1859  0.3403
18891SOL     OW57888   7.402   0.763   1.239  0.0898  0.3990  0.0679
18891SOL    HW157889   7.325   0.817   1.220 -0.2097  0.2459  0.7869
18891SOL    HW257890   7.446   0.808   1.310  0.4560  0.2805 -0.0839
18892SOL     OW57891   7.883   1.206   1.550  0.0751 -0.1287 -0.1073
18892SOL    HW157892   7.961   1.228   1.602 -0.1533  0.7993 -0.1321
18892SOL    HW257893   7.888   1.265   1.474 -0.0126 -0.9201 -0.7366
18893SOL     OW57894   8.091   0.175   0.406 -0.4733 -0.4760  0.1546
18893SOL    HW157895   8.112   0.222   0.326 -2.1354 -0.3592 -0.2495
18893SOL    HW257896   8.174   0.137   0.434  0.8075  2.0914  0.1368
18894SOL     OW57897   0.175   1.695   0.643  0.5721  0.4690 -0.4170
18894SOL    HW157898   0.231   1.747   0.584  0.2944  0.5535 -0.6082
18894SOL    HW257899   0.138   1.627   0.587  0.6179  0.3086 -0.2522
18895SOL     OW57900   7.435   1.880   1.849  0.0037  0.0443 -0.6047
18895SOL    HW157901   7.352   1.922   1.825 -1.6582 -2.3545  0.5703
18895SOL    HW257902   7.464   1.837   1.769 -1.1748 -1.0693 -0.4591
18896SOL     OW57903   8.733   0.462   0.070  0.7799 -0.0787 -0.2609
18896SOL    HW157904   8.655   0.504   0.105  0.7773 -0.9878  0.8840
18896SOL    HW257905   8.796   0.465   0.141  1.1881 -0.9043 -0.5705
18897SOL     OW57906   8.178   0.868   1.276 -0.1226 -0.1969  0.0740
18897SOL    HW157907   8.115   0.895   1.342  0.7021  0.2814  0.6817
18897SOL    HW257908   8.139   0.790   1.235 -0.3749 -0.8586  1.5245
18898SOL     OW57909   8.020   1.354   8.758  0.7069  0.0348  0.1794
18898SOL    HW157910   8.060   1.373   8.843  0.0652 -2.1095  1.0228
18898SOL    HW257911   7.941   1.409   8.756  0.0566 -0.7843  1.5521
18899SOL     OW57912   7.586   0.288   1.118 -0.2786 -0.3357  0.0907
18899SOL    HW157913   7.669   0.277   1.073  0.0170 -0.3208  0.6241
18899SOL    HW257914   7.534   0.213   1.091 -0.8232  0.6562 -1.7859
18900SOL     OW57915   8.712   1.821   8.576 -0.2371  0.2159 -0.4858
18900SOL    HW157916   8.764   1.740   8.576 -0.0260  0.3453  0.1803
18900SOL    HW257917   8.767   1.884   8.531 -0.4550 -0.0389 -1.1215
18901SOL     OW57918   8.008   0.642   1.178  0.2109  0.5567 -0.2457
18901SOL    HW157919   7.987   0.555   1.145  1.0707 -0.2479  1.2389
18901SOL    HW257920   7.933   0.668   1.230 -0.5143  1.2028 -1.5582
18902SOL     OW57921   7.999   1.146   0.174 -0.5349  0.3033  0.5494
18902SOL    HW157922   8.067   1.206   0.142 -0.6269 -0.0705 -0.3931
18902SOL    HW257923   7.963   1.107   0.094 -0.0051 -1.5204  1.1380
18903SOL     OW57924   7.647   1.180   1.677 -0.1500  0.1164  0.3491
18903SOL    HW157925   7.719   1.165   1.616 -0.4509 -0.7468  0.1968
18903SOL    HW257926   7.688   1.181   1.763  0.1409  0.3842  0.2113
18904SOL     OW57927   8.335   1.163   0.413  0.3652 -0.7170  0.2769
18904SOL    HW157928   8.242   1.168   0.388  0.8964 -0.5848 -1.9117
18904SOL    HW257929   8.359   1.253   0.435  0.1797 -0.5937 -0.0189
18905SOL     OW57930   8.529   0.467   0.763 -0.8162  0.6483 -0.2611
18905SOL    HW157931   8.451   0.414   0.749 -0.7534  0.4862 -0.0033
18905SOL    HW257932   8.597   0.423   0.712 -0.0513 -1.1822  2.1617
18906SOL     OW57933   7.751   1.378   0.335 -0.0642 -0.2426  0.1043
18906SOL    HW157934   7.687   1.446   0.313  0.0494 -0.2297 -0.1813
18906SOL    HW257935   7.833   1.426   0.347 -0.1346 -0.2415  0.6031
18907SOL     OW57936   6.972   1.511   0.288  0.1056 -0.1180 -0.1759
18907SOL    HW157937   7.004   1.551   0.206  0.3462  0.6118  0.2648
18907SOL    HW257938   7.031   1.437   0.303  1.9984  1.5113  0.8999
18908SOL     OW57939   7.819   0.907   1.820  0.5792  0.2453 -0.0772
18908SOL    HW157940   7.901   0.886   1.775  1.6622 -0.1526  1.9840
18908SOL    HW257941   7.838   0.987   1.869 -0.2647  0.1657  0.3953
18909SOL     OW57942   7.823   0.182   1.024 -0.2544 -0.8847  0.2005
18909SOL    HW157943   7.841   0.108   1.082  0.8459  0.1127  1.1730
18909SOL    HW257944   7.883   0.170   0.951  0.7357 -0.3831  0.9036
18910SOL     OW57945   7.431   0.000   8.700  0.1521  0.2434 -0.3942
18910SOL    HW157946   7.335   0.001   8.705  0.1646  0.9549 -0.1593
18910SOL    HW257947   7.457  -0.065   8.765 -0.1498  0.7693  0.2733
18911SOL     OW57948   0.049   0.940   1.150 -0.2253 -0.0391  0.3733
18911SOL    HW157949   0.007   1.015   1.108 -1.8536 -0.9019  0.3981
18911SOL    HW257950   0.058   0.966   1.242  0.1078  0.4740  0.2034
18912SOL     OW57951   7.277   0.043   0.916  0.1582 -0.3887  0.0471
18912SOL    HW157952   7.220  -0.034   0.923  1.2818 -1.2560 -0.0683
18912SOL    HW257953   7.229   0.102   0.858 -1.8823  0.1035  2.0811
18913SOL     OW57954   8.469   0.862   0.215 -0.7467  0.0354 -0.4487
18913SOL    HW157955   8.398   0.845   0.276 -1.3136  0.1886 -1.0505
18913SOL    HW257956   8.548   0.867   0.270 -1.4597  1.8638  0.4690
18914SOL     OW57957   7.802   0.950   1.234 -0.0784  0.0609 -0.4442
18914SOL    HW157958   7.805   1.041   1.204  1.4187  0.4081  0.6428
18914SOL    HW257959   7.844   0.953   1.320 -0.2875 -1.6200 -0.2651
18915SOL     OW57960   8.180   0.560   1.616  0.0300 -0.5568  0.1963
18915SOL    HW157961   8.160   0.501   1.544 -1.6918 -0.5991  0.6725
18915SOL    HW257962   8.242   0.511   1.671  1.4265 -0.4917 -1.2338
18916SOL     OW57963   8.547   1.247   2.208 -0.1152 -0.4357  0.3683
18916SOL    HW157964   8.562   1.222   2.299  1.1189  0.2534  0.3687
18916SOL    HW257965   8.524   1.165   2.164 -1.3905 -0.6699  1.4175
18917SOL     OW57966   7.610   1.657   1.692  0.2232 -0.2824 -0.1535
18917SOL    HW157967   7.659   1.734   1.664  0.0652 -0.4441 -0.8736
18917SOL    HW257968   7.625   1.592   1.624  2.0318 -1.6322  1.4042
18918SOL     OW57969   8.468   0.702   0.643 -0.3362  0.2410  0.4801
18918SOL    HW157970   8.554   0.715   0.602 -0.8993  1.2213 -0.4187
18918SOL    HW257971   8.472   0.613   0.679 -0.0001 -0.9109 -2.1776
18919SOL     OW57972   7.428   0.631   0.354 -0.2586  0.2212  0.2204
18919SOL    HW157973   7.471   0.620   0.439 -1.6447  0.3136  0.9741
18919SOL    HW257974   7.431   0.545   0.314  2.9343  0.7356 -0.9759
18920SOL     OW57975   8.602   1.148   0.447 -0.1827 -0.1804 -0.5970
18920SOL    HW157976   8.617   1.223   0.390 -2.0494  0.5667 -0.2022
18920SOL    HW257977   8.507   1.136   0.446  0.0960 -2.8784 -1.0396
18921SOL     OW57978   7.848   1.785   0.743  0.2070  0.2177 -0.4171
18921SOL    HW157979   7.815   1.855   0.800  0.3113  0.0014 -0.0862
18921SOL    HW257980   7.942   1.781   0.763 -0.0380 -0.9827  0.6274
18922SOL     OW57981   7.938   0.978   0.568  0.4227 -0.2519 -0.2538
18922SOL    HW157982   7.868   1.028   0.527 -0.0888  0.3174  1.2152
18922SOL    HW257983   8.011   1.039   0.575  0.1453 -0.0059  0.6162
18923SOL     OW57984   7.809   1.123   8.738 -0.3240  0.2290 -0.2332
18923SOL    HW157985   7.866   1.195   8.709 -0.9449  0.4855 -0.8409
18923SOL    HW257986   7.798   1.068   8.660 -1.8103  0.7893 -0.4526
18924SOL     OW57987   7.436   1.326   1.752 -0.1458  0.3806  0.0376
18924SOL    HW157988   7.518   1.289   1.719 -0.6803 -0.6887 -0.1577
18924SOL    HW257989   7.462   1.385   1.823  0.8795  1.1639 -0.9753
18925SOL     OW57990   7.110   1.254   0.831 -0.2883 -0.4529 -0.4365
18925SOL    HW157991   7.195   1.296   0.822  0.2575 -0.7497  2.5072
18925SOL    HW257992   7.049   1.314   0.788  0.4464  3.5453  3.4377
18926SOL     OW57993   7.970   0.945   1.445 -0.2125  0.1418  0.1776
18926SOL    HW157994   8.023   0.913   1.518 -0.7850  1.1845  1.0657
18926SOL    HW257995   7.929   1.025   1.477 -0.0504  0.9358 -1.4692
18927SOL     OW57996   7.488   0.092   0.645  0.1067 -0.3752  0.3030
18927SOL    HW157997   7.404   0.130   0.672 -0.0526  1.1091 -2.0013
18927SOL    HW257998   7.554   0.146   0.689 -0.1276 -0.0881  0.3049
18928SOL     OW57999   8.238   0.386   1.063  0.5816  0.2054  0.7983
18928SOL    HW158000   8.222   0.443   0.988 -0.9246 -2.8916 -1.4398
18928SOL    HW258001   8.157   0.390   1.114  1.0333  1.1147  1.4839
18929SOL     OW58002   7.995   1.755   0.413 -0.1088  0.1199  0.6167
18929SOL    HW158003   7.957   1.843   0.422  1.0951  0.7159  0.0053
18929SOL    HW258004   8.005   1.725   0.503  0.3068  0.9848  0.8739
18930SOL     OW58005   8.755   0.195   0.878 -0.1544  0.3811  0.0550
18930SOL    HW158006   8.674   0.207   0.829  0.4327 -1.4048 -1.4609
18930SOL    HW258007   8.728   0.199   0.970 -1.7430  1.0507 -0.4106
18931SOL     OW58008   7.916   8.810   1.167 -0.3833  0.1473  0.0789
18931SOL    HW158009   7.914   8.721   1.133 -2.2176  0.1430  0.1153
18931SOL    HW258010   7.954   8.801   1.255  1.4858 -0.2627 -0.7393
18932SOL     OW58011   7.810   1.354   0.710 -0.4447 -0.0071 -0.1182
18932SOL    HW158012   7.829   1.371   0.617 -0.3417 -1.2646 -0.3392
18932SOL    HW258013   7.723   1.315   0.710 -0.2942 -0.3502  0.2772
18933SOL     OW58014   7.736   1.849   1.085 -0.4078 -0.1716  0.9069
18933SOL    HW158015   7.829   1.869   1.098  0.2153 -0.6432 -2.0626
18933SOL    HW258016   7.731   1.754   1.094  0.0699 -0.5316 -1.7824
18934SOL     OW58017   7.431   0.927   0.367  0.0593  0.3333  0.0326
18934SOL    HW158018   7.336   0.944   0.365  0.2748  1.5818  0.2138
18934SOL    HW258019   7.438   0.835   0.340 -1.2922 -0.1937  1.2988
18935SOL     OW58020   8.453   1.635   8.743 -0.5898 -0.2408  0.3280
18935SOL    HW158021   8.516   1.666   8.808 -0.3979 -0.1889  0.1183
18935SOL    HW258022   8.387   1.705   8.738  0.0885  0.3525 -0.4812
18936SOL     OW58023   7.481   0.562   2.006 -0.7170  0.1174 -0.0601
18936SOL    HW158024   7.496   0.468   2.019  3.0711  0.4784 -0.6571
18936SOL    HW258025   7.509   0.578   1.916 -1.8833  1.7854 -0.1735
18937SOL     OW58026   7.334   0.518   2.869 -0.5683 -0.1636  0.1732
18937SOL    HW158027   7.291   0.472   2.940  0.2722 -0.4369  0.5200
18937SOL    HW258028   7.285   0.493   2.791 -2.4052  1.2666  0.7904
18938SOL     OW58029   7.312   0.975   2.736 -0.2412  0.4541  0.3874
18938SOL    HW158030   7.291   0.893   2.781 -0.2124  0.0324 -0.3485
18938SOL    HW258031   7.383   0.952   2.676  0.6156  1.3068  1.0595
18939SOL     OW58032   7.707   1.494   3.468 -0.5966  0.1037 -0.2350
18939SOL    HW158033   7.664   1.409   3.472 -1.3325  0.4484 -0.4734
18939SOL    HW258034   7.720   1.510   3.374  0.3539 -0.1305 -0.1561
18940SOL     OW58035   8.762   1.162   2.729  0.2783 -0.3448  0.1763
18940SOL    HW158036   8.819   1.094   2.695  2.0520  1.1071  0.0922
18940SOL    HW258037   8.820   1.235   2.749 -1.5076  1.1067  0.4163
18941SOL     OW58038   8.429   0.364   2.286 -0.0370 -0.0626  0.8260
18941SOL    HW158039   8.425   0.279   2.330  0.4870 -0.2618  0.4827
18941SOL    HW258040   8.346   0.406   2.310 -0.0328 -0.4163  1.5020
18942SOL     OW58041   8.515   1.202   2.829 -0.3161 -0.0620 -0.0528
18942SOL    HW158042   8.465   1.153   2.764 -1.4151 -1.8266  1.9637
18942SOL    HW258043   8.606   1.189   2.804 -0.7160 -0.4634 -1.3791
18943SOL     OW58044   8.132   0.558   3.759  0.0039  0.3299 -0.1741
18943SOL    HW158045   8.105   0.551   3.667 -0.0280  0.3173 -0.1635
18943SOL    HW258046   8.225   0.583   3.754  0.6438 -1.8789 -0.2124
18944SOL     OW58047   7.978   0.743   2.316  0.2330 -0.4280  0.6119
18944SOL    HW158048   8.049   0.725   2.254 -0.1818  2.3296 -0.8165
18944SOL    HW258049   8.022   0.771   2.396  0.8104  0.3483  0.0444
18945SOL     OW58050   8.433   1.623   3.684  0.5099 -0.2962  0.6011
18945SOL    HW158051   8.438   1.531   3.712  0.0699  0.0231  1.7730
18945SOL    HW258052   8.339   1.639   3.671  0.4910  0.2715  1.3983
18946SOL     OW58053   7.844   1.587   2.844 -0.1454  0.3722 -0.1757
18946SOL    HW158054   7.789   1.509   2.846 -0.6123  0.7064  0.3045
18946SOL    HW258055   7.915   1.567   2.905 -0.4571  0.4517  0.2207
18947SOL     OW58056   8.278   0.429   3.057 -0.0294  0.2813 -0.7432
18947SOL    HW158057   8.288   0.410   3.150 -0.3713 -1.3940 -1.0136
18947SOL    HW258058   8.291   0.344   3.014  0.4964  1.0983 -2.2535
18948SOL     OW58059   7.558   1.830   2.454 -0.0730 -0.1792 -0.5010
18948SOL    HW158060   7.486   1.771   2.479 -0.4858  0.5709  0.1149
18948SOL    HW258061   7.637   1.786   2.485 -0.2235 -1.1643 -1.4640
18949SOL     OW58062   8.779   1.220   3.256 -0.3925 -0.4075 -0.5058
18949SOL    HW158063   8.753   1.200   3.345 -2.5754  1.2643 -0.6888
18949SOL    HW258064   8.702   1.200   3.203  1.0914 -2.0533 -2.1737
18950SOL     OW58065   7.750   1.491   2.458  0.0883  0.0828  0.4088
18950SOL    HW158066   7.845   1.504   2.452 -0.0704  1.1005 -0.3437
18950SOL    HW258067   7.718   1.511   2.369 -0.8339 -0.1920  0.6673
18951SOL     OW58068   7.701   1.330   2.826 -0.5349  0.4141 -0.5939
18951SOL    HW158069   7.732   1.303   2.740 -0.6559 -0.3692 -0.4008
18951SOL    HW258070   7.608   1.308   2.826 -0.8134  1.5094 -0.6831
18952SOL     OW58071   7.923   2.043   3.248 -0.0926 -0.6075  0.1647
18952SOL    HW158072   7.856   2.079   3.307  0.8357 -0.0145  0.8712
18952SOL    HW258073   7.975   1.985   3.303  0.5071 -0.4038 -0.1789
18953SOL     OW58074   8.137   0.824   1.639  0.0200 -0.3321  0.4486
18953SOL    HW158075   8.157   0.733   1.616 -1.1848 -0.8289  1.2474
18953SOL    HW258076   8.217   0.872   1.620  0.2093 -1.2906 -1.4450
18954SOL     OW58077   7.490   1.037   2.511  0.1894 -0.2826 -0.6421
18954SOL    HW158078   7.567   0.986   2.486  0.5053  1.2126 -3.0055
18954SOL    HW258079   7.429   1.026   2.439 -0.2863  1.5008 -0.5748
18955SOL     OW58080   7.104   1.637   1.810  0.0015 -0.0002 -0.0998
18955SOL    HW158081   7.080   1.588   1.731 -0.8246 -2.6147  1.6320
18955SOL    HW258082   7.168   1.582   1.854  2.3034  2.5450 -0.0309
18956SOL     OW58083   0.375   0.901   2.458  0.6256 -0.5702 -0.0017
18956SOL    HW158084   0.372   0.897   2.554  0.6198  0.3576  0.0468
18956SOL    HW258085   0.376   0.809   2.430 -0.1461 -0.8564  0.8650
18957SOL     OW58086   7.201   0.643   3.550 -0.2720  0.1894  0.5322
18957SOL    HW158087   7.207   0.604   3.637  0.2603 -1.9235 -0.3631
18957SOL    HW258088   7.115   0.683   3.546  0.0081  1.0431  2.2788
18958SOL     OW58089   8.021   1.372   2.024 -0.4160 -0.2655  0.4327
18958SOL    HW158090   8.112   1.349   2.004 -0.1669  0.6437  0.4746
18958SOL    HW258091   8.027   1.425   2.104 -0.9362  0.1714  0.1838
18959SOL     OW58092   8.605   0.911   2.976  0.0397  0.0399  0.4360
18959SOL    HW158093   8.565   0.835   3.020 -0.6704  1.0707  1.6603
18959SOL    HW258094   8.534   0.946   2.922 -0.9620  2.0436  2.8308
18960SOL     OW58095   8.228   0.057   2.170  0.0463 -0.0333 -1.0211
18960SOL    HW158096   8.169   0.074   2.243  0.2509 -0.2905 -0.7878
18960SOL    HW258097   8.311   0.034   2.212  0.6398  1.4054 -1.3416
18961SOL     OW58098   7.805   0.864   3.288  0.1598 -0.0438 -0.4313
18961SOL    HW158099   7.766   0.781   3.259 -0.5557  0.1529 -0.0711
18961SOL    HW258100   7.735   0.906   3.339  0.8166  0.3823  0.1291
18962SOL     OW58101   8.322   1.107   3.020 -0.3915  0.1560  0.8086
18962SOL    HW158102   8.368   1.156   2.953 -0.2674 -2.8724 -1.5473
18962SOL    HW258103   8.233   1.095   2.985 -0.6185 -0.6775  1.6045
18963SOL     OW58104   8.087   1.019   3.771  0.1094  0.1840  0.0702
18963SOL    HW158105   8.093   1.078   3.696  0.4491 -0.9094 -0.7854
18963SOL    HW258106   7.993   1.018   3.793 -0.0140  0.3762 -0.4365
18964SOL     OW58107   7.891   0.654   2.056  0.1885 -0.1312 -0.4318
18964SOL    HW158108   7.945   0.599   2.000 -0.3285  0.6147 -1.6953
18964SOL    HW258109   7.951   0.718   2.093  0.3187  0.2254 -1.2378
18965SOL     OW58110   8.673   8.771   2.687  0.4533  0.4502 -0.5687
18965SOL    HW158111   8.717   8.765   2.771 -0.1079 -1.4473 -0.3682
18965SOL    HW258112   8.594   8.823   2.705 -1.3950 -2.5722  0.9479
18966SOL     OW58113   8.383   0.672   2.973  0.2231  0.5374  0.4505
18966SOL    HW158114   8.406   0.728   3.047  0.7460  0.2471  0.5103
18966SOL    HW258115   8.338   0.597   3.013  1.1149  0.0457  0.5457
18967SOL     OW58116   8.725   0.469   3.024 -0.2995 -0.0849  0.2765
18967SOL    HW158117   8.712   0.520   3.104 -0.2734  2.0588 -1.0109
18967SOL    HW258118   8.804   0.417   3.041  0.0007  0.7077  1.4335
18968SOL     OW58119   8.543   0.987   3.620  0.3940 -0.0995 -0.4652
18968SOL    HW158120   8.525   0.958   3.709  0.3697  0.8085 -0.1676
18968SOL    HW258121   8.460   0.975   3.574 -0.2492  1.4763  0.2031
18969SOL     OW58122   8.265   0.171   2.991 -0.1765 -0.3758 -0.2424
18969SOL    HW158123   8.356   0.148   2.973 -0.4388 -0.3610 -1.7673
18969SOL    HW258124   8.226   0.182   2.904 -1.3985  0.5434  0.3934
18970SOL     OW58125   8.303   0.809   2.448 -0.3233  0.8816 -0.2194
18970SOL    HW158126   8.232   0.852   2.496 -0.3721  1.0924 -0.4832
18970SOL    HW258127   8.282   0.716   2.454  0.1913  0.8180  1.0159
18971SOL     OW58128   7.334   1.035   3.056  0.5665  0.4049 -0.1473
18971SOL    HW158129   7.329   1.023   2.961  0.5118 -0.0882 -0.0843
18971SOL    HW258130   7.273   1.107   3.074  0.7945  0.6958 -0.5185
18972SOL     OW58131   7.222   1.562   3.685  0.1699  0.1927 -0.1111
18972SOL    HW158132   7.211   1.640   3.740 -0.4363 -0.2847  0.4606
18972SOL    HW258133   7.295   1.584   3.627  2.0712  0.0886  2.0613
18973SOL     OW58134   8.156   0.069   1.674 -0.1805  0.2464 -0.4138
18973SOL    HW158135   8.238   0.063   1.624  0.1896  0.4899  0.1539
18973SOL    HW258136   8.184   0.092   1.762 -0.7986 -0.5183 -0.0045
18974SOL     OW58137   8.831   0.772   2.426  0.2858  0.4234 -0.7289
18974SOL    HW158138   8.909   0.736   2.385  1.1241 -1.2554  2.0277
18974SOL    HW258139   8.863   0.841   2.484  0.0737 -1.2650  1.5674
18975SOL     OW58140   8.024   0.098   2.722  0.2933 -0.4748  0.3498
18975SOL    HW158141   7.954   0.072   2.662  0.3031 -1.9726  0.9425
18975SOL    HW258142   8.008   0.046   2.801  1.3190  0.1331  0.9736
18976SOL     OW58143   8.640   1.212   2.483  0.1680 -0.3890 -0.0856
18976SOL    HW158144   8.697   1.155   2.535 -0.2476  0.4849  1.3721
18976SOL    HW258145   8.552   1.191   2.513 -0.0646  0.3315 -0.2595
18977SOL     OW58146   7.792   1.743   2.622  0.3486 -0.4974 -0.0832
18977SOL    HW158147   7.807   1.694   2.703 -1.1516 -1.6700 -0.4556
18977SOL    HW258148   7.878   1.750   2.581  0.8625 -1.3528  0.8071
18978SOL     OW58149   8.846   1.400   3.023  0.9326  0.0545 -0.4304
18978SOL    HW158150   8.795   1.480   3.028  1.9600  0.6658  0.7349
18978SOL    HW258151   8.804   1.341   3.087  0.5424 -0.1433 -0.8588
18979SOL     OW58152   7.751   0.903   2.145  0.3986  0.0128  0.5302
18979SOL    HW158153   7.791   0.828   2.101  0.6234 -0.1354  0.9729
18979SOL    HW258154   7.826   0.958   2.170  0.1787  0.8517 -0.6170
18980SOL     OW58155   7.485   1.171   3.300  0.0826 -0.3648  0.6947
18980SOL    HW158156   7.436   1.202   3.224  2.2025 -0.6331 -0.8618
18980SOL    HW258157   7.497   1.077   3.285  1.8679 -0.1419  0.4971
18981SOL     OW58158   8.747   2.255   1.693 -0.0659  0.9055  0.1422
18981SOL    HW158159   8.733   2.169   1.654  2.5304 -0.0197  1.0034
18981SOL    HW258160   8.748   2.316   1.619 -0.0308 -0.1008 -0.7040
18982SOL     OW58161   7.482   0.359   3.392  0.3528 -0.1338 -0.1080
18982SOL    HW158162   7.530   0.342   3.310 -0.4858  1.7663 -1.0538
18982SOL    HW258163   7.516   0.443   3.422 -0.2872 -0.1984  0.8148
18983SOL     OW58164   7.901   1.934   2.258 -0.6669  0.5418 -0.0207
18983SOL    HW158165   7.823   1.980   2.288 -0.1208  2.6289 -1.5446
18983SOL    HW258166   7.958   1.929   2.335 -1.8988 -0.1665  0.8645
18984SOL     OW58167   7.880   2.130   2.992  0.0619  0.0968 -0.1262
18984SOL    HW158168   7.884   2.124   3.087 -1.0125  0.2056 -0.0563
18984SOL    HW258169   7.854   2.042   2.963  2.3788 -0.5347 -0.5009
18985SOL     OW58170   8.258   1.636   2.122 -0.2270 -0.0463  0.0984
18985SOL    HW158171   8.298   1.687   2.193 -1.8935 -0.2235  1.2280
18985SOL    HW258172   8.170   1.672   2.112 -1.8948 -3.1835  1.6608
18986SOL     OW58173   7.437   0.688   2.259 -0.8703 -0.1702  0.3232
18986SOL    HW158174   7.474   0.655   2.177  1.0528  0.1700  1.0030
18986SOL    HW258175   7.450   0.617   2.322  0.7387  0.7640  1.1065
18987SOL     OW58176   7.916   8.696   1.624 -0.2909 -0.0739  0.3273
18987SOL    HW158177   7.983   8.762   1.640  0.9011 -1.3608  0.9269
18987SOL    HW258178   7.848   8.715   1.689  0.1867  0.3695  0.7057
18988SOL     OW58179   8.594   0.327   3.310 -0.2979  0.1317 -0.3747
18988SOL    HW158180   8.671   0.331   3.367 -0.8632  1.3985  0.3454
18988SOL    HW258181   8.578   0.234   3.299 -0.0320 -0.1670  1.3885
18989SOL     OW58182   7.846   1.518   3.228  0.1409 -0.1741 -0.2556
18989SOL    HW158183   7.856   1.612   3.242  0.9421 -0.2148 -0.4587
18989SOL    HW258184   7.931   1.491   3.193  0.2170 -1.1244  0.6177
18990SOL     OW58185   8.690   0.648   3.238  0.0527 -0.1895  0.3329
18990SOL    HW158186   8.690   0.741   3.260 -0.7803 -0.0263 -0.3127
18990SOL    HW258187   8.608   0.614   3.273 -0.9553 -0.0793 -1.7476
18991SOL     OW58188   8.357   1.511   2.431 -0.5694  0.7256  0.1642
18991SOL    HW158189   8.390   1.597   2.404 -0.5565  1.7052  2.9607
18991SOL    HW258190   8.421   1.479   2.494 -0.8723 -1.1439 -0.4064
18992SOL     OW58191   7.734   0.356   2.721  0.3836  0.0686  0.1093
18992SOL    HW158192   7.695   0.340   2.635 -0.8010 -2.0019  0.9427
18992SOL    HW258193   7.687   0.432   2.755 -0.4781 -0.2468 -0.3461
18993SOL     OW58194   7.615   0.424   2.300  0.1350 -0.5330 -0.1034
18993SOL    HW158195   7.561   0.424   2.221  2.0098 -0.8270 -1.4481
18993SOL    HW258196   7.652   0.512   2.304  0.8140 -0.8092 -0.1308
18994SOL     OW58197   8.830   1.494   2.461  0.0043  0.8042 -0.0805
18994SOL    HW158198   8.755   1.435   2.467 -0.7609  1.7845  0.2123
18994SOL    HW258199   8.859   1.505   2.552  0.1821  0.8361 -0.1402
18995SOL     OW58200   8.001   0.295   1.968 -0.0283 -0.4064 -0.1899
18995SOL    HW158201   7.930   0.231   1.972 -1.5333  1.1240 -1.0497
18995SOL    HW258202   7.980   0.349   1.891  2.1486  0.0210 -0.5471
18996SOL     OW58203   8.088   0.124   2.377 -0.5081  0.1858 -0.0280
18996SOL    HW158204   8.023   0.085   2.435 -0.1117 -1.7703 -0.8016
18996SOL    HW258205   8.046   0.203   2.343 -0.4213  1.9144  3.4942
18997SOL     OW58206   8.562   0.269   2.922 -0.3130 -0.0812  0.4785
18997SOL    HW158207   8.600   0.345   2.967 -2.3287  1.1701  0.1691
18997SOL    HW258208   8.535   0.303   2.837 -2.1613 -0.8561  0.7088
18998SOL     OW58209   8.392   1.765   2.331 -0.1929 -1.0271  0.0177
18998SOL    HW158210   8.480   1.802   2.318 -1.6250  1.8704 -2.6928
18998SOL    HW258211   8.351   1.824   2.394 -0.3466 -2.2748  1.1371
18999SOL     OW58212   7.734   1.215   2.575 -0.0622 -0.3101 -0.1557
18999SOL    HW158213   7.701   1.286   2.520  1.0358 -0.2866 -0.8162
18999SOL    HW258214   7.700   1.135   2.535 -0.2892 -0.2232 -0.1360
19000SOL     OW58215   8.618   2.242   1.964  0.1718  0.2967  0.0326
19000SOL    HW158216   8.566   2.314   1.999  0.4221  1.0283 -1.0473
19000SOL    HW258217   8.653   2.276   1.882 -0.9021 -1.5461 -1.2676
19001SOL     OW58218   8.384   0.407   1.843  0.7019  0.5265 -0.2899
19001SOL    HW158219   8.336   0.332   1.877  0.9869 -0.2292 -1.4738
19001SOL    HW258220   8.459   0.369   1.797  0.6769  1.4932 -1.1828
19002SOL     OW58221   7.440   0.842   3.533 -0.1016  0.1000  0.0112
19002SOL    HW158222   7.441   0.887   3.449  1.3996 -0.1767 -0.1307
19002SOL    HW258223   7.373   0.888   3.584 -0.2428  0.9681 -0.9394
19003SOL     OW58224   7.851   0.425   3.198 -0.2537 -0.7169  0.2608
19003SOL    HW158225   7.908   0.424   3.121 -0.6881 -2.7346 -0.0898
19003SOL    HW258226   7.905   0.386   3.267 -0.2516  0.0433  0.6934
19004SOL     OW58227   8.141   0.486   2.403 -0.7887  0.1739  0.1352
19004SOL    HW158228   8.082   0.449   2.337  0.4455 -0.9164 -0.4155
19004SOL    HW258229   8.086   0.499   2.480 -1.7984 -0.6059 -0.4262
19005SOL     OW58230   8.057   8.542   2.663 -0.5822 -0.1392 -0.1751
19005SOL    HW158231   8.124   8.474   2.656  0.5613  0.9086  0.4287
19005SOL    HW258232   7.982   8.505   2.617 -0.5473 -2.4849  1.4470
19006SOL     OW58233   8.176   1.747   1.756 -0.0627 -0.5110 -0.0105
19006SOL    HW158234   8.214   1.786   1.834 -0.8202  1.8445 -0.7248
19006SOL    HW258235   8.144   1.822   1.705 -1.4966 -2.0924 -1.5722
19007SOL     OW58236   8.647   0.346   2.056  0.3039 -0.4779 -0.0156
19007SOL    HW158237   8.569   0.366   2.003 -0.3664  0.8686  1.3972
19007SOL    HW258238   8.620   0.272   2.110  0.5306 -0.9912 -0.6015
19008SOL     OW58239   7.616   0.313   1.928 -0.2239  0.1744  0.0858
19008SOL    HW158240   7.608   0.343   1.837  0.0280  1.8139  0.5712
19008SOL    HW258241   7.689   0.251   1.926  0.7876  1.3289 -0.5907
19009SOL     OW58242   0.020   0.914   2.911  0.7414 -0.0483  0.2516
19009SOL    HW158243   0.048   0.950   2.994  0.4588  0.8149 -0.0184
19009SOL    HW258244  -0.073   0.893   2.924  0.7882 -0.2479  0.2647
19010SOL     OW58245   0.060   0.949   2.644  0.2896 -0.0961 -0.1224
19010SOL    HW158246   0.143   0.909   2.616 -0.9803 -3.1285 -0.0046
19010SOL    HW258247   0.060   0.939   2.739  0.8021  2.1838  0.1647
19011SOL     OW58248   8.446   8.582   3.341 -0.0286  0.0635 -0.1229
19011SOL    HW158249   8.352   8.575   3.361 -0.0350 -0.7567 -0.3887
19011SOL    HW258250   8.449   8.598   3.247  0.0992 -0.2051 -0.1669
19012SOL     OW58251   8.524   1.368   3.494 -0.4632 -0.0003  0.0116
19012SOL    HW158252   8.570   1.436   3.444  0.6041 -0.5985  0.1548
19012SOL    HW258253   8.484   1.312   3.427  0.0398 -0.1707 -0.1514
19013SOL     OW58254   8.200   0.743   2.166  0.5172  0.0748 -0.1602
19013SOL    HW158255   8.285   0.700   2.154  0.5670 -0.0189  0.4678
19013SOL    HW258256   8.220   0.837   2.165  0.9816  0.0645  2.1136
19014SOL     OW58257   8.019   0.698   2.748  0.1860 -0.0590 -0.1658
19014SOL    HW158258   8.066   0.614   2.753  0.2429 -0.0198  4.5115
19014SOL    HW258259   7.927   0.673   2.734  0.1581 -1.0288  1.4457
19015SOL     OW58260   0.115   0.383   3.080  0.8302 -0.4504 -0.1721
19015SOL    HW158261   0.110   0.303   3.132  1.2633  0.9694  2.1994
19015SOL    HW258262   0.175   0.440   3.129 -0.8942  2.0251 -0.7694
19016SOL     OW58263   7.452   1.603   3.517 -0.2727 -0.0510  0.1041
19016SOL    HW158264   7.468   1.695   3.539  0.2744 -0.3459  1.0040
19016SOL    HW258265   7.540   1.564   3.514 -0.5173 -0.5973 -0.0118
19017SOL     OW58266   7.641   1.284   2.139  0.0706 -0.3008 -0.6933
19017SOL    HW158267   7.576   1.217   2.117 -0.0990  0.2375 -1.9196
19017SOL    HW258268   7.602   1.366   2.110  0.7210  0.2053 -0.1725
19018SOL     OW58269   7.792   0.623   2.612 -0.3908  0.0903  0.2166
19018SOL    HW158270   7.766   0.637   2.521  0.4188 -0.9936 -0.2034
19018SOL    HW258271   7.710   0.621   2.661 -0.7690  2.2093 -0.2326
19019SOL     OW58272   0.002   1.627   2.216  0.5137  0.7708  0.6232
19019SOL    HW158273  -0.032   1.572   2.146  0.4181  1.8315 -0.1820
19019SOL    HW258274  -0.017   1.579   2.296 -0.9631  0.3618  0.0450
19020SOL     OW58275   8.568   1.270   3.107 -0.2786 -0.6521  0.0841
19020SOL    HW158276   8.551   1.224   3.024 -2.8561 -0.6532  0.5365
19020SOL    HW258277   8.500   1.337   3.111 -1.4063 -1.8059  3.0122
19021SOL     OW58278   7.463   1.241   2.731 -0.3598  0.1551  0.4654
19021SOL    HW158279   7.398   1.171   2.732 -1.9838  1.5946  0.5226
19021SOL    HW258280   7.537   1.205   2.681 -0.2035 -2.3386  2.2917
19022SOL     OW58281   7.504   0.621   3.159  0.3336  0.1476  0.3232
19022SOL    HW158282   7.591   0.646   3.127 -0.2333  0.8156 -0.7508
19022SOL    HW258283   7.503   0.526   3.155  1.1293  0.1167  0.6662
19023SOL     OW58284   8.499   8.792   3.711 -0.5445 -0.1956  0.0943
19023SOL    HW158285   8.466   8.868   3.663 -1.3496 -0.6412 -0.0764
19023SOL    HW258286   8.565   8.754   3.654 -0.4620  0.1187 -0.0193
19024SOL     OW58287   8.328   0.370   3.326  0.3657 -0.7335 -0.6042
19024SOL    HW158288   8.305   0.285   3.361  1.3600 -0.5386  0.5979
19024SOL    HW258289   8.424   0.369   3.322  0.4670  0.7238  0.5380
19025SOL     OW58290   7.827   1.232   3.086  0.0931  0.7199 -0.2370
19025SOL    HW158291   7.845   1.283   3.165 -0.1840  0.8065 -0.2303
19025SOL    HW258292   7.766   1.285   3.036 -1.8881 -0.5138  0.7578
19026SOL     OW58293   8.337   0.883   2.800 -0.1213  0.0714 -0.1601
19026SOL    HW158294   8.359   0.798   2.839  2.3393  1.4508  1.7343
19026SOL    HW258295   8.252   0.905   2.839 -0.4339 -1.1557 -0.0890
19027SOL     OW58296   8.235   0.174   1.913  0.2644 -0.1404 -0.5860
19027SOL    HW158297   8.244   0.126   1.995 -1.3259 -0.9387 -0.8424
19027SOL    HW258298   8.161   0.233   1.927  0.3400  0.1286 -1.2631
19028SOL     OW58299   8.264   0.016   3.207  1.1290  0.6467 -0.0954
19028SOL    HW158300   8.195  -0.048   3.192  1.3031  0.5641 -0.5500
19028SOL    HW258301   8.259   0.076   3.133  1.3521  0.8135  0.0209
19029SOL     OW58302   7.415   1.518   2.798 -0.0777  0.3235  0.3736
19029SOL    HW158303   7.472   1.443   2.811  0.9080  0.6880 -1.5915
19029SOL    HW258304   7.338   1.482   2.754  0.4118  0.4572 -0.6037
19030SOL     OW58305   8.074   0.857   2.550 -0.3695  0.0756 -0.5636
19030SOL    HW158306   8.066   0.788   2.615  0.5357  1.1176  0.7059
19030SOL    HW258307   8.036   0.935   2.592 -0.0709  0.7006 -1.4053
19031SOL     OW58308   7.431   0.278   2.106 -0.0625  0.3427 -0.6240
19031SOL    HW158309   7.377   0.215   2.059  1.9129 -0.8044 -1.4468
19031SOL    HW258310   7.508   0.289   2.052  0.1569  2.6709  0.0419
19032SOL     OW58311   0.344   0.608   1.975  0.2180  1.0165  0.3550
19032SOL    HW158312   0.308   0.607   2.063  0.6606  0.5601  0.5322
19032SOL    HW258313   0.270   0.582   1.919  0.2405  0.1311  0.7120
19033SOL     OW58314   8.353   0.188   2.504  0.1347  0.1057  0.8873
19033SOL    HW158315   8.363   0.124   2.574  0.9778 -1.0490 -0.2615
19033SOL    HW258316   8.266   0.170   2.467  0.9853 -1.4348 -0.4348
19034SOL     OW58317   8.039   1.275   3.367  0.0261 -0.5824 -0.3153
19034SOL    HW158318   7.967   1.295   3.427  0.1799 -1.6959  0.2616
19034SOL    HW258319   8.106   1.340   3.388 -1.1878  1.2343 -1.6485
19035SOL     OW58320   8.218   1.180   3.600 -0.1964 -0.4531 -0.3142
19035SOL    HW158321   8.271   1.109   3.565 -0.1832 -0.3285 -0.5553
19035SOL    HW258322   8.181   1.222   3.522 -2.0389 -1.5881 -0.0945
19036SOL     OW58323   8.307   0.993   2.204 -0.3651  0.2327  0.1627
19036SOL    HW158324   8.387   0.970   2.251  0.9756  0.5039 -1.8611
19036SOL    HW258325   8.261   1.054   2.262  1.2781  0.6771  1.0549
19037SOL     OW58326   8.014   1.315   2.590  0.4417 -0.1890  0.1630
19037SOL    HW158327   8.004   1.295   2.683  0.9378 -0.3754  0.1784
19037SOL    HW258328   7.932   1.288   2.550 -0.5174  1.5782  0.8250
19038SOL     OW58329   7.742   0.930   2.466 -0.2001  0.2052  0.3954
19038SOL    HW158330   7.787   0.928   2.381 -0.7947  1.5088  0.0349
19038SOL    HW258331   7.812   0.921   2.530  0.1926 -1.5854 -0.2150
19039SOL     OW58332   7.608   0.574   2.836 -1.3320  0.3901 -0.2671
19039SOL    HW158333   7.642   0.599   2.922 -0.4662 -1.8259  0.0840
19039SOL    HW258334   7.513   0.569   2.849 -1.1483 -0.7557  0.8304
19040SOL     OW58335   0.143   0.431   3.762  0.5333 -0.3805  0.8595
19040SOL    HW158336   0.186   0.509   3.728  0.9480 -0.4774  1.1494
19040SOL    HW258337   0.203   0.359   3.739 -1.1519 -1.0534 -1.9937
19041SOL     OW58338   8.524   0.056   3.323 -0.3449 -0.2756 -0.0307
19041SOL    HW158339   8.471   0.050   3.402  0.2271 -2.7486  0.2448
19041SOL    HW258340   8.465   0.028   3.253 -0.5108  0.8253 -0.3654
19042SOL     OW58341   7.206   1.452   2.029 -0.3274 -0.1202 -0.4268
19042SOL    HW158342   7.281   1.488   2.076  0.8140 -0.4870 -1.8901
19042SOL    HW258343   7.167   1.389   2.090  1.1183 -0.6012  0.0265
19043SOL     OW58344   7.349   1.760   2.647  0.2064 -0.0159 -0.3364
19043SOL    HW158345   7.367   1.791   2.735 -1.7647 -0.9997  0.4871
19043SOL    HW258346   7.379   1.669   2.646 -2.0289 -0.8406  0.2334
19044SOL     OW58347   7.993   1.255   2.879  0.0387 -0.4292 -0.6382
19044SOL    HW158348   7.944   1.211   2.948  0.1441  0.7188  0.2165
19044SOL    HW258349   8.020   1.338   2.919  0.5719  0.0274 -1.8950
19045SOL     OW58350   8.098   0.910   2.930 -0.1646 -0.1178 -0.0880
19045SOL    HW158351   8.081   0.836   2.872 -0.7548  1.1032 -1.5296
19045SOL    HW258352   8.017   0.921   2.980 -0.2746 -0.1060 -0.2689
19046SOL     OW58353   7.265   0.766   2.907 -0.1733 -0.2763  0.0368
19046SOL    HW158354   7.298   0.677   2.905 -0.4698 -0.4786  1.8805
19046SOL    HW258355   7.217   0.772   2.990 -0.9208  1.3290 -0.4617
19047SOL     OW58356   7.822   1.063   3.579 -0.0784  0.3334  0.4360
19047SOL    HW158357   7.871   1.145   3.589  0.6374 -0.1385  0.8570
19047SOL    HW258358   7.743   1.089   3.531  1.2227  0.8563 -1.5234
19048SOL     OW58359   7.959   0.353   2.230 -0.1435 -0.0995 -0.2526
19048SOL    HW158360   7.970   0.332   2.137  0.7784  2.2123 -0.7283
19048SOL    HW258361   7.885   0.414   2.232 -0.3893 -0.4180  0.5827
19049SOL     OW58362   7.673   1.397   3.857 -0.2560 -0.1500  0.3794
19049SOL    HW158363   7.582   1.418   3.877 -0.4592 -2.2414  1.9506
19049SOL    HW258364   7.711   1.371   3.941  1.2387 -1.1926 -0.5598
19050SOL     OW58365   8.001   0.487   2.983  0.3634 -0.0756  0.7409
19050SOL    HW158366   8.097   0.477   2.986  0.4535  0.4838 -0.2338
19050SOL    HW258367   7.977   0.466   2.893 -0.5434 -1.0520  1.1869
19051SOL     OW58368   7.807   1.856   2.913 -0.0130  0.4187 -0.4441
19051SOL    HW158369   7.786   1.774   2.869  0.4608  0.1804 -0.2323
19051SOL    HW258370   7.766   1.848   2.999 -2.9216  1.8123 -1.5560
19052SOL     OW58371   8.069   0.613   1.874 -0.4802  0.7168 -0.0810
19052SOL    HW158372   8.162   0.635   1.872 -0.1873 -0.4577 -0.5843
19052SOL    HW258373   8.048   0.593   1.782 -0.5754 -1.4333  0.3412
19053SOL     OW58374   7.461   0.883   3.243  0.2954 -0.3707  0.0567
19053SOL    HW158375   7.442   0.942   3.170 -0.4686 -0.0335  0.5243
19053SOL    HW258376   7.442   0.796   3.208 -0.2768 -0.1938 -0.0801
19054SOL     OW58377   8.807   0.606   2.782  0.0203  0.3018  0.4090
19054SOL    HW158378   8.767   0.573   2.862 -0.2830  1.9769  0.9875
19054SOL    HW258379   8.829   0.697   2.802  0.2585  0.6547 -1.3037
19055SOL     OW58380   8.454   0.597   2.162  0.3107  0.6362 -0.4446
19055SOL    HW158381   8.457   0.507   2.192  2.0818  0.2069 -1.7343
19055SOL    HW258382   8.494   0.647   2.233  1.4631  0.0696 -0.6694
19056SOL     OW58383   8.388   1.673   2.753  0.1294  0.4478  0.0717
19056SOL    HW158384   8.475   1.662   2.714  0.2012 -0.1834  0.3889
19056SOL    HW258385   8.379   1.767   2.767 -0.6094  0.9550 -3.1011
19057SOL     OW58386   7.473   1.353   3.005  0.0401  0.2637 -0.0194
19057SOL    HW158387   7.382   1.329   3.024  0.4569 -0.9655  0.5107
19057SOL    HW258388   7.494   1.421   3.069 -0.7079  1.0494 -0.5872
19058SOL     OW58389   8.229   1.433   3.447 -0.3804 -0.1591 -1.2049
19058SOL    HW158390   8.197   1.504   3.502 -0.3724 -0.7437 -0.4251
19058SOL    HW258391   8.308   1.401   3.491  1.1596  1.0354 -2.9139
19059SOL     OW58392   8.738   1.821   2.025 -0.2091 -0.5487 -0.5748
19059SOL    HW158393   8.805   1.886   2.047 -1.4087  0.8174 -0.8005
19059SOL    HW258394   8.728   1.769   2.105  1.4327 -1.1004 -0.6924
19060SOL     OW58395   7.170   1.791   3.803 -0.3374 -0.0349 -0.4214
19060SOL    HW158396   7.246   1.845   3.824 -1.1053  0.3965  1.3952
19060SOL    HW258397   7.096   1.851   3.808 -1.1185 -1.0645  0.8533
19061SOL     OW58398   8.424   1.074   2.613  0.2991  0.0147 -0.1824
19061SOL    HW158399   8.402   0.988   2.649 -0.2170  1.3078  2.9389
19061SOL    HW258400   8.354   1.092   2.550 -1.4937 -0.5683  1.5159
19062SOL     OW58401   8.317   0.959   3.448 -0.7001 -0.4115  0.4155
19062SOL    HW158402   8.232   0.957   3.404 -0.6485  0.3595  0.2545
19062SOL    HW258403   8.351   0.870   3.439 -0.6108 -0.2514 -1.2706
19063SOL     OW58404   8.509   1.606   1.987 -0.4450  0.2799  0.0253
19063SOL    HW158405   8.487   1.602   1.894 -0.3606  1.4404 -0.0667
19063SOL    HW258406   8.428   1.637   2.029 -0.4472 -0.1241  0.3240
19064SOL     OW58407   6.957   0.203   2.129  0.7531 -0.6428  0.3999
19064SOL    HW158408   6.989   0.225   2.042 -0.5040  0.2335  0.1208
19064SOL    HW258409   7.008   0.259   2.188  0.6058 -0.1686  0.0825
19065SOL     OW58410   8.501   1.216   1.713  0.1544  0.1627 -0.0294
19065SOL    HW158411   8.549   1.291   1.746 -1.0470  1.4191 -0.9877
19065SOL    HW258412   8.459   1.178   1.790 -2.0376  2.6162  0.1204
19066SOL     OW58413   7.886   0.980   3.064 -0.0625  0.0353 -0.2033
19066SOL    HW158414   7.830   1.058   3.058 -0.4485 -0.1741  0.4843
19066SOL    HW258415   7.850   0.932   3.138  0.9800 -0.1584  0.1822
19067SOL     OW58416   8.121   1.022   1.897  0.1108  0.6562 -0.3516
19067SOL    HW158417   8.118   1.097   1.838 -1.7897  0.7778 -0.1373
19067SOL    HW258418   8.110   0.946   1.839 -1.0643  0.7363 -0.2469
19068SOL     OW58419   7.394   1.664   3.014  0.3671 -0.0190 -0.3029
19068SOL    HW158420   7.312   1.641   3.057  0.3849  0.4491 -0.0191
19068SOL    HW258421   7.401   1.602   2.941 -0.1136 -0.2172 -0.1802
19069SOL     OW58422   8.189   1.181   2.357 -0.1309  0.0062 -0.2914
19069SOL    HW158423   8.117   1.213   2.410  1.1646  0.8352  1.0383
19069SOL    HW258424   8.222   1.259   2.312  0.6418 -0.1403  0.0083
19070SOL     OW58425   8.299   0.023   2.697  0.0589  0.2083  0.0175
19070SOL    HW158426   8.216   0.060   2.725  0.0231  0.5381 -0.5290
19070SOL    HW258427   8.313  -0.051   2.756 -0.2696  0.5843  0.5772
19071SOL     OW58428   7.995   1.621   1.926  0.1623 -0.0163 -0.3386
19071SOL    HW158429   8.078   1.640   1.882 -1.2154 -0.1614 -3.2881
19071SOL    HW258430   7.982   1.527   1.913 -0.5006  0.0231 -0.0102
19072SOL     OW58431   7.534   1.523   1.938  0.0109 -0.5532 -0.0372
19072SOL    HW158432   7.478   1.540   2.015  0.9042  2.4391  0.0647
19072SOL    HW258433   7.518   1.597   1.880  1.2997 -1.4366 -1.6006
19073SOL     OW58434   8.028   1.400   3.873  0.0990  0.1243  0.0859
19073SOL    HW158435   7.987   1.351   3.944  0.0063 -0.7782 -0.5765
19073SOL    HW258436   8.118   1.368   3.870  1.0110  2.2611  1.6874
19074SOL     OW58437   8.389   0.666   3.416  0.0891 -0.0572  0.2279
19074SOL    HW158438   8.374   0.579   3.380  0.5555  0.0418 -0.2383
19074SOL    HW258439   8.456   0.653   3.483  0.2622 -0.0435  0.0606
19075SOL     OW58440   7.199   0.344   1.766 -0.5533  0.1562  0.3291
19075SOL    HW158441   7.137   0.278   1.735 -1.0260  0.6593  0.1903
19075SOL    HW258442   7.255   0.361   1.691 -0.4613 -0.0494  0.3501
19076SOL     OW58443   0.071   0.805   3.473 -0.2788  0.1237  0.3313
19076SOL    HW158444   0.121   0.884   3.451 -0.9970  0.5047  0.0331
19076SOL    HW258445  -0.020   0.827   3.450 -0.6301 -0.4532  1.1278
19077SOL     OW58446   7.406   8.827   1.799 -0.2462  0.1358 -0.1860
19077SOL    HW158447   7.385   8.736   1.817  2.9908 -0.3588  2.0541
19077SOL    HW258448   7.358   8.877   1.866 -1.2188  0.0037 -0.7716
19078SOL     OW58449   8.689   1.432   2.070 -0.8565 -0.2700 -0.1999
19078SOL    HW158450   8.653   1.376   2.138 -0.2982 -1.6332 -0.9875
19078SOL    HW258451   8.620   1.496   2.053 -1.0247  0.0781  1.5867
19079SOL     OW58452   7.769   0.670   3.086  0.7423  0.2520  0.3823
19079SOL    HW158453   7.792   0.596   3.141  1.1406 -0.0825 -0.2204
19079SOL    HW258454   7.850   0.694   3.042  0.4880  0.6724  0.1311
19080SOL     OW58455   8.427   0.840   3.177  0.2983 -0.4678 -0.5482
19080SOL    HW158456   8.374   0.919   3.170  1.3074  0.2647 -0.0735
19080SOL    HW258457   8.382   0.788   3.244  0.2707  0.2280 -0.0086
19081SOL     OW58458   0.163   1.114   3.581 -0.1599  0.3400  0.1342
19081SOL    HW158459   0.074   1.137   3.557  0.2192 -0.4441 -2.2167
19081SOL    HW258460   0.218   1.162   3.519  0.9772 -0.4478  0.4942
19082SOL     OW58461   7.701   1.882   3.705  0.5282  0.1567 -0.1038
19082SOL    HW158462   7.690   1.930   3.787  0.9983 -0.6131  0.4145
19082SOL    HW258463   7.614   1.881   3.666  0.5068  1.4397 -0.1371
19083SOL     OW58464   8.445   8.847   1.975  0.0710  0.4759  0.1818
19083SOL    HW158465   8.467   8.899   2.053 -0.3382 -1.3283  1.5807
19083SOL    HW258466   8.386   8.903   1.925  1.9450  2.5062  0.0761
19084SOL     OW58467   7.721   0.660   2.342  0.1436 -0.3697 -0.0139
19084SOL    HW158468   7.816   0.666   2.329  0.3674  0.1075  1.6165
19084SOL    HW258469   7.688   0.747   2.319  0.4063  0.1608  1.5448
19085SOL     OW58470   8.297   1.363   2.144  0.1747 -0.7298 -0.5842
19085SOL    HW158471   8.392   1.361   2.153  0.4388  2.3714 -1.4074
19085SOL    HW258472   8.276   1.456   2.132 -2.9828 -1.2952 -0.3454
19086SOL     OW58473   7.570   1.838   3.093  0.0220 -0.4240  0.4331
19086SOL    HW158474   7.502   1.772   3.085 -0.8721  0.5330 -0.2268
19086SOL    HW258475   7.547   1.904   3.027  0.2961  1.0555  1.7632
19087SOL     OW58476   7.891   1.011   2.690 -0.3145  0.0537  0.4200
19087SOL    HW158477   7.862   1.099   2.668 -1.7278 -0.2487  0.9349
19087SOL    HW258478   7.868   1.000   2.783 -1.7378 -1.3966 -0.0379
19088SOL     OW58479   8.400   0.981   1.909  0.9954  0.2686 -0.0193
19088SOL    HW158480   8.316   1.019   1.936  0.7725  1.6973 -2.4309
19088SOL    HW258481   8.383   0.886   1.907  0.3515  0.2706  2.2436
19089SOL     OW58482   7.261   1.269   4.348  0.6127  0.5758  0.8054
19089SOL    HW158483   7.229   1.181   4.367  2.0373 -0.6056 -1.7097
19089SOL    HW258484   7.182   1.323   4.341 -0.4844 -1.0544  0.0131
19090SOL     OW58485   7.848   1.267   2.310  0.2808 -0.6853  0.3814
19090SOL    HW158486   7.884   1.181   2.288  0.7839  0.1151 -2.3363
19090SOL    HW258487   7.774   1.277   2.250  0.7202  1.0653  0.0772
19091SOL     OW58488   8.108   1.006   3.259 -0.3225 -0.0056  0.5136
19091SOL    HW158489   8.068   1.087   3.292  1.6825  1.1326  0.3461
19091SOL    HW258490   8.081   1.001   3.167  0.2560  1.0053  0.2708
19092SOL     OW58491   7.156   0.391   2.146  0.2734  0.0463 -0.3236
19092SOL    HW158492   7.244   0.356   2.153  0.9229  0.5640 -3.8473
19092SOL    HW258493   7.168   0.476   2.102 -1.8102  1.3863  1.4852
19093SOL     OW58494   7.597   0.359   3.149 -0.7030 -0.1857 -0.0647
19093SOL    HW158495   7.692   0.372   3.150 -0.7837  0.4241 -0.2870
19093SOL    HW258496   7.584   0.281   3.095 -0.4905  1.0766 -2.0274
19094SOL     OW58497   8.300   1.896   1.938 -0.2099  0.3616 -0.3355
19094SOL    HW158498   8.394   1.898   1.918 -0.2365 -0.0453 -0.5173
19094SOL    HW258499   8.292   1.941   2.022 -0.0018  1.4803 -0.8928
19095SOL     OW58500   8.346   8.708   2.904  0.3958  0.0325  0.2253
19095SOL    HW158501   8.410   8.691   2.974  0.6097 -0.2825 -0.0474
19095SOL    HW258502   8.309   8.622   2.884 -0.5489  0.2927  0.7942
19096SOL     OW58503   8.230   8.464   3.157  0.6241 -0.0958  0.7764
19096SOL    HW158504   8.308   8.444   3.105 -0.1424  0.4923 -0.6663
19096SOL    HW258505   8.204   8.381   3.195  1.5440 -0.4303  0.6936
19097SOL     OW58506   8.025   1.025   2.170 -0.5006 -0.3349 -0.0392
19097SOL    HW158507   8.100   1.052   2.223 -2.1243  2.0823  1.1944
19097SOL    HW258508   8.057   1.027   2.080  0.8657  0.8286  0.4378
19098SOL     OW58509   7.375   1.473   3.262  0.3443  0.2490 -0.2588
19098SOL    HW158510   7.444   1.512   3.317  0.8130  1.0188 -1.3471
19098SOL    HW258511   7.295   1.516   3.290  0.8668  2.1774 -1.4979
19099SOL     OW58512   7.502   0.947   2.244 -0.1243 -0.0175  0.6581
19099SOL    HW158513   7.585   0.950   2.196 -0.2783 -0.3151  0.3644
19099SOL    HW258514   7.479   0.854   2.246 -1.3102  0.2005 -0.7848
19100SOL     OW58515   8.551   1.957   1.887 -0.0135  0.2416  0.2357
19100SOL    HW158516   8.618   1.905   1.933 -1.1905  1.1071  3.1682
19100SOL    HW258517   8.558   2.044   1.926 -0.5459  1.3311 -1.9440
19101SOL     OW58518   7.539   0.601   3.531 -0.2303 -0.5198 -0.2419
19101SOL    HW158519   7.490   0.681   3.514  0.7459 -0.1942 -1.7554
19101SOL    HW258520   7.516   0.576   3.620  0.5808  2.2626  0.8167
19102SOL     OW58521   7.562   0.358   4.363  0.2161 -0.1702 -0.1064
19102SOL    HW158522   7.633   0.352   4.426 -0.1122 -3.0566  0.1277
19102SOL    HW258523   7.488   0.391   4.414  0.8020  0.7338  0.1760
19103SOL     OW58524   7.114   0.541   4.422  0.2176 -0.7012 -0.1827
19103SOL    HW158525   7.041   0.541   4.483  0.2026  1.3303 -0.1422
19103SOL    HW258526   7.083   0.593   4.347  1.1972 -0.8297 -0.7026
19104SOL     OW58527   7.853   1.377   5.206  0.4126 -0.4946 -0.2623
19104SOL    HW158528   7.882   1.441   5.142  3.0396  0.1185  1.4030
19104SOL    HW258529   7.863   1.293   5.162 -0.1671  0.0195 -1.4247
19105SOL     OW58530   0.126   1.585   4.469  0.6176 -0.4336 -0.5645
19105SOL    HW158531   0.124   1.510   4.528  1.5712 -0.2313 -0.2589
19105SOL    HW258532   0.203   1.635   4.496 -0.7552  1.4196  0.1841
19106SOL     OW58533   8.716   0.878   4.080  0.6827  0.2158  0.0601
19106SOL    HW158534   8.753   0.802   4.125  0.4263 -0.0953 -0.2459
19106SOL    HW258535   8.700   0.942   4.150  1.6179  0.2898  0.2173
19107SOL     OW58536   8.183   1.329   4.821  0.1719  0.3268  0.1150
19107SOL    HW158537   8.225   1.352   4.904 -2.1633  2.4419  0.8330
19107SOL    HW258538   8.215   1.395   4.759 -0.3939  0.6295  0.1343
19108SOL     OW58539   7.983   0.403   5.825 -0.1020 -0.2691  0.0874
19108SOL    HW158540   7.899   0.447   5.813  0.3969  0.7184  0.1897
19108SOL    HW258541   8.047   0.460   5.783  0.4787 -1.2003 -0.3166
19109SOL     OW58542   8.174   1.075   4.418  0.0937 -0.4146  0.2348
19109SOL    HW158543   8.183   1.167   4.396  1.0841 -0.8943 -1.5144
19109SOL    HW258544   8.099   1.045   4.367  0.4080 -0.8146  0.0029
19110SOL     OW58545   8.370   0.974   5.029  0.2592 -0.0661 -0.4567
19110SOL    HW158546   8.456   1.009   5.049  0.7243 -1.8640  0.9443
19110SOL    HW258547   8.309   1.034   5.073  0.6166  2.0596 -2.6615
19111SOL     OW58548   7.617   1.144   4.919 -0.0592  0.2393  0.3744
19111SOL    HW158549   7.631   1.090   4.841 -2.6175  0.9880 -0.7110
19111SOL    HW258550   7.691   1.205   4.919  0.6602 -0.5756 -0.7268
19112SOL     OW58551   8.103   0.601   5.137  0.2489  0.6155 -0.5377
19112SOL    HW158552   8.162   0.650   5.195 -0.7941  1.5549 -0.2324
19112SOL    HW258553   8.146   0.605   5.051  0.8346  0.9357 -0.2405
19113SOL     OW58554   7.285   1.874   4.192 -0.1073 -0.1790 -0.0153
19113SOL    HW158555   7.328   1.790   4.174  1.0010  0.5904 -1.1262
19113SOL    HW258556   7.335   1.911   4.265 -0.4820 -0.4045  0.3556
19114SOL     OW58557   8.595   1.181   5.587 -0.1317 -0.5816  0.1389
19114SOL    HW158558   8.633   1.268   5.579  1.2183 -1.1697 -0.0802
19114SOL    HW258559   8.668   1.121   5.574 -0.7745 -1.7531  1.6005
19115SOL     OW58560   7.522   1.411   4.638 -0.1786  0.3286 -0.0993
19115SOL    HW158561   7.569   1.485   4.676  0.4102  0.0774 -0.3207
19115SOL    HW258562   7.472   1.374   4.711  0.9325 -0.1480  0.4500
19116SOL     OW58563   7.634   1.148   4.558 -0.0158  0.2670 -0.3769
19116SOL    HW158564   7.614   1.240   4.574  0.9466  0.3899  0.2377
19116SOL    HW258565   7.572   1.100   4.613  0.8683  0.6150  0.9639
19117SOL     OW58566   7.852   1.778   5.642  0.2806 -0.4042 -0.3223
19117SOL    HW158567   7.761   1.779   5.673 -0.5276  1.7418 -2.4349
19117SOL    HW258568   7.876   1.870   5.632  2.0524 -0.9386 -1.5117
19118SOL     OW58569   8.405   0.620   3.783 -0.2866  0.0235  0.0570
19118SOL    HW158570   8.406   0.694   3.844  2.0327 -2.0464  2.8445
19118SOL    HW258571   8.474   0.640   3.720 -0.2196  0.6127  0.3136
19119SOL     OW58572   7.545   0.770   4.206  0.0593 -0.3201  0.1366
19119SOL    HW158573   7.486   0.723   4.265 -1.7631  1.2617 -0.3285
19119SOL    HW258574   7.578   0.843   4.258  0.9948 -0.7587  0.1593
19120SOL     OW58575   7.685   1.440   4.139  1.0963 -0.0148 -0.3917
19120SOL    HW158576   7.643   1.420   4.223  1.1459 -1.0520 -0.6056
19120SOL    HW258577   7.749   1.508   4.160  0.7892  0.0648  0.3229
19121SOL     OW58578   0.364   0.969   4.280  0.5989 -0.1255  0.0934
19121SOL    HW158579   0.298   0.913   4.320 -1.2633 -1.1980 -3.9096
19121SOL    HW258580   0.437   0.910   4.259  0.7469  0.0183  0.1956
19122SOL     OW58581   7.877   1.186   4.842  0.1332  0.1397 -0.2400
19122SOL    HW158582   7.938   1.125   4.801 -0.4343  0.4583 -1.6565
19122SOL    HW258583   7.890   1.175   4.936  3.7503  1.5660 -0.4113
19123SOL     OW58584   7.456   1.716   3.950  0.1258  0.0452  0.0429
19123SOL    HW158585   7.447   1.803   3.912  0.3340  0.1301  0.1850
19123SOL    HW258586   7.533   1.723   4.007 -0.9104  0.2673  1.4543
19124SOL     OW58587   8.726   0.830   5.614 -0.3081  0.0389 -0.6806
19124SOL    HW158588   8.682   0.783   5.544 -0.9891  1.0453 -0.9512
19124SOL    HW258589   8.740   0.765   5.682 -1.1513 -0.5707 -1.0780
19125SOL     OW58590   8.188   8.514   4.120  0.1850 -0.3819  0.1780
19125SOL    HW158591   8.232   8.574   4.181  1.6478  1.3946 -2.4599
19125SOL    HW258592   8.136   8.570   4.063 -0.8934 -1.9578 -0.4603
19126SOL     OW58593   8.317   1.399   5.130  0.6595  0.1109  0.2394
19126SOL    HW158594   8.353   1.312   5.146  2.7513  1.2049  2.1473
19126SOL    HW258595   8.243   1.405   5.191 -1.1629 -1.1708 -1.7329
19127SOL     OW58596   8.707   1.648   5.455 -0.3820  0.3565 -0.2196
19127SOL    HW158597   8.772   1.643   5.525 -0.6329  1.0930  0.0774
19127SOL    HW258598   8.756   1.626   5.375  0.2023  0.7384  0.0210
19128SOL     OW58599   8.037   0.371   5.262 -0.2642  0.0210 -0.1967
19128SOL    HW158600   8.075   0.445   5.214  2.0538 -2.0066 -1.7238
19128SOL    HW258601   8.067   0.383   5.352 -2.5862  2.5412  0.3649
19129SOL     OW58602   8.505   0.877   3.867  0.6158 -0.3818  0.6059
19129SOL    HW158603   8.565   0.865   3.941 -0.6840 -1.6971  1.4937
19129SOL    HW258604   8.419   0.884   3.907  0.1716  2.1161 -0.5954
19130SOL     OW58605   8.641   0.195   4.407 -0.1723  0.1016  0.1146
19130SOL    HW158606   8.559   0.245   4.398 -1.5908 -1.9999  0.6686
19130SOL    HW258607   8.631   0.122   4.345  0.8302 -0.7598  0.9371
19131SOL     OW58608   8.236   0.608   4.846  0.2055 -0.6749  0.1399
19131SOL    HW158609   8.255   0.580   4.757  3.2758  0.1374  0.4433
19131SOL    HW258610   8.316   0.591   4.895 -0.4427  1.4101  2.0982
19132SOL     OW58611   0.170   0.716   5.474 -0.4145  0.0334  0.3223
19132SOL    HW158612   0.112   0.663   5.529 -0.8251  0.0788 -0.0558
19132SOL    HW258613   0.257   0.704   5.511 -0.4931 -0.9710  0.2044
19133SOL     OW58614   8.160   0.940   5.415 -0.4982  0.2177  0.1310
19133SOL    HW158615   8.246   0.958   5.453 -0.3050  0.1664 -0.2806
19133SOL    HW258616   8.134   0.856   5.454 -0.0489 -0.1176 -0.2683
19134SOL     OW58617   8.189   0.419   4.300 -0.4069 -0.2089  0.2486
19134SOL    HW158618   8.107   0.377   4.326 -1.3355  1.9710  1.1146
19134SOL    HW258619   8.168   0.513   4.298  2.0460  0.4029  0.4169
19135SOL     OW58620   8.325   1.035   4.139  0.1043 -0.5683 -0.0287
19135SOL    HW158621   8.282   1.059   4.221  0.5563 -1.8092  0.6069
19135SOL    HW258622   8.274   0.961   4.107  0.6368 -0.8491 -0.2422
19136SOL     OW58623   7.631   0.836   4.787  0.0040 -0.7532  0.4013
19136SOL    HW158624   7.645   0.888   4.708  1.8148 -0.3812  0.9172
19136SOL    HW258625   7.536   0.825   4.792 -0.4761  2.3769  0.1713
19137SOL     OW58626   7.424   1.638   5.182  0.5037  0.0843 -0.0965
19137SOL    HW158627   7.485   1.574   5.217  0.7558 -0.2513 -1.1183
19137SOL    HW258628   7.350   1.586   5.151 -0.7047  0.5404  1.8443
19138SOL     OW58629   8.130   0.307   3.867  0.1685  0.1405 -0.0726
19138SOL    HW158630   8.130   0.392   3.822  2.0124  0.2950  0.1178
19138SOL    HW258631   8.085   0.325   3.950 -0.7706  0.5510 -0.6584
19139SOL     OW58632   8.728   1.371   4.095  0.3903 -0.1244 -0.5093
19139SOL    HW158633   8.797   1.310   4.071  0.2928  0.0488 -1.2382
19139SOL    HW258634   8.744   1.391   4.187 -0.1047 -1.9680  0.0264
19140SOL     OW58635   7.950   0.259   4.112 -0.1259  0.2069 -0.9451
19140SOL    HW158636   7.896   0.240   4.036  0.3660 -1.2136 -0.9663
19140SOL    HW258637   7.899   0.323   4.162 -0.9184  0.3782 -1.9331
19141SOL     OW58638   8.801   1.408   4.349  0.2229  0.3337 -0.3257
19141SOL    HW158639   8.845   1.458   4.418 -2.5696 -0.7384  2.4838
19141SOL    HW258640   8.814   1.316   4.373  1.3672 -0.2545 -2.8079
19142SOL     OW58641   7.707   1.915   4.403  0.6042 -0.2906 -0.2740
19142SOL    HW158642   7.683   1.847   4.465  1.0354  0.1909  0.4355
19142SOL    HW258643   7.736   1.988   4.458 -1.9045  1.3183 -0.8849
19143SOL     OW58644   8.762   1.376   5.544 -0.0485  0.3133 -0.4588
19143SOL    HW158645   8.789   1.459   5.584 -0.5809  0.5838 -0.6531
19143SOL    HW258646   8.751   1.397   5.451 -2.1802  0.5383 -0.1878
19144SOL     OW58647   8.234   0.825   3.953  0.5169  0.4387 -0.2871
19144SOL    HW158648   8.169   0.849   3.887  0.7838 -0.7503 -0.9908
19144SOL    HW258649   8.210   0.736   3.979  0.1861  1.0047  1.5081
19145SOL     OW58650   8.189   1.517   5.811 -0.3122  0.1528 -0.2684
19145SOL    HW158651   8.103   1.520   5.769 -0.2469  0.5273 -0.3739
19145SOL    HW258652   8.180   1.570   5.890 -0.8008 -1.5702  0.8911
19146SOL     OW58653   0.043   1.695   3.698 -0.2645 -0.3762  1.0094
19146SOL    HW158654  -0.030   1.683   3.637 -0.7688  3.2636  0.6831
19146SOL    HW258655   0.020   1.641   3.773 -1.4969 -2.0615 -0.4997
19147SOL     OW58656   7.649   0.626   5.507  0.3575  0.1870  0.4013
19147SOL    HW158657   7.566   0.626   5.461  0.9476 -0.2176 -0.6902
19147SOL    HW258658   7.626   0.649   5.597 -1.0301 -0.7420  0.3157
19148SOL     OW58659   7.684   2.049   3.918 -0.2378 -0.4376 -0.1935
19148SOL    HW158660   7.645   1.986   3.979 -1.2202 -0.5773 -0.9419
19148SOL    HW258661   7.670   2.134   3.960  1.5588 -0.7041  1.0738
19149SOL     OW58662   7.219   1.644   4.790 -0.3281 -0.5329  0.1118
19149SOL    HW158663   7.270   1.625   4.712  0.6516 -0.8376  0.8092
19149SOL    HW258664   7.183   1.731   4.775 -0.1237 -0.5774 -0.6566
19150SOL     OW58665   8.298   1.491   4.644 -0.4565  0.5233  0.3009
19150SOL    HW158666   8.388   1.472   4.620 -0.4171 -0.2966  1.0176
19150SOL    HW258667   8.303   1.570   4.698 -0.0154 -0.1540  1.2813
19151SOL     OW58668   7.930   0.876   4.219  0.3127  0.6933  0.1520
19151SOL    HW158669   7.935   0.941   4.149 -0.3821  3.0229  2.1311
19151SOL    HW258670   7.859   0.907   4.276  1.0040 -0.9362  2.0373
19152SOL     OW58671   8.356   0.123   3.525  0.3437  0.1516 -0.0795
19152SOL    HW158672   8.265   0.099   3.507  0.1207  1.3794 -0.6542
19152SOL    HW258673   8.352   0.173   3.606  0.5509 -0.0365  0.0485
19153SOL     OW58674   8.285   0.201   5.613  0.1582 -0.9741  0.0643
19153SOL    HW158675   8.238   0.138   5.667 -1.2727 -0.9914 -1.1479
19153SOL    HW258676   8.355   0.150   5.573 -0.2866 -1.5297 -0.0206
19154SOL     OW58677   8.209   1.629   5.007 -0.2997  0.1485  0.3425
19154SOL    HW158678   8.264   1.556   5.038  1.2356  1.7535  1.6278
19154SOL    HW258679   8.271   1.701   4.996 -1.9496  1.5974  0.2799
19155SOL     OW58680   0.029   0.841   5.265 -0.7375 -0.0424 -0.3435
19155SOL    HW158681  -0.039   0.784   5.227 -1.5919 -0.4500  1.6653
19155SOL    HW258682   0.059   0.793   5.342  0.8949  0.7786 -0.4434
19156SOL     OW58683   8.144   1.543   4.224  0.4607 -0.7326 -0.2655
19156SOL    HW158684   8.120   1.603   4.295  1.7175 -1.6063  0.9431
19156SOL    HW258685   8.207   1.593   4.171 -0.1651 -0.2268 -0.5496
19157SOL     OW58686   8.320   0.177   4.313  0.3044  0.0276  0.1917
19157SOL    HW158687   8.357   0.166   4.226 -0.1429  0.6697 -0.0876
19157SOL    HW258688   8.308   0.272   4.322  0.4127 -0.0293  0.9768
19158SOL     OW58689   7.853   0.158   3.863 -0.0529 -0.0173 -0.2096
19158SOL    HW158690   7.912   0.084   3.848  0.0944  0.0177  0.1790
19158SOL    HW258691   7.877   0.221   3.795 -1.4094 -1.0453 -1.7196
19159SOL     OW58692   0.312   0.761   4.063 -0.2310  0.2029  0.1719
19159SOL    HW158693   0.392   0.813   4.073  0.2956 -0.8139  1.5542
19159SOL    HW258694   0.264   0.805   3.993  1.8461  0.4307 -1.2104
19160SOL     OW58695   7.586   0.086   3.759  0.0295 -0.6625 -0.0407
19160SOL    HW158696   7.542   0.168   3.735  0.8759 -0.4474 -0.9274
19160SOL    HW258697   7.632   0.107   3.840 -0.1665 -0.3938  0.0022
19161SOL     OW58698   8.365   0.190   3.789  0.2192 -0.3261 -0.8760
19161SOL    HW158699   8.280   0.225   3.816  0.0678 -0.4544 -1.1754
19161SOL    HW258700   8.367   0.102   3.827 -0.4751 -0.9415 -2.1828
19162SOL     OW58701   8.414   0.990   5.470 -0.3640 -0.3615 -0.1281
19162SOL    HW158702   8.472   0.916   5.492 -1.8945 -1.3050  0.9515
19162SOL    HW258703   8.462   1.067   5.500  0.0491 -1.1773  1.4427
19163SOL     OW58704   8.513   1.427   4.860 -0.0819  0.3760  0.4141
19163SOL    HW158705   8.469   1.343   4.870 -1.5211  0.8325 -1.5804
19163SOL    HW258706   8.583   1.410   4.796  1.2344  0.1880  1.8423
19164SOL     OW58707   8.202   1.345   4.398 -0.2008 -0.3443  0.1107
19164SOL    HW158708   8.172   1.413   4.338 -3.2945 -1.5763  0.0689
19164SOL    HW258709   8.234   1.392   4.475 -1.4120  1.1593 -0.2695
19165SOL     OW58710   8.365   1.747   4.713 -0.4017  0.7026 -0.4656
19165SOL    HW158711   8.276   1.774   4.691 -0.7616 -1.0605 -1.3438
19165SOL    HW258712   8.410   1.744   4.629  0.4028  1.2602 -0.0600
19166SOL     OW58713   8.772   0.563   3.717 -0.2227  0.4717 -0.1054
19166SOL    HW158714   8.701   0.502   3.738  0.4166 -0.1466  0.2965
19166SOL    HW258715   8.852   0.511   3.728  0.2819  1.0702 -0.8557
19167SOL     OW58716   7.589   0.548   4.835  0.1898  0.2783 -0.4300
19167SOL    HW158717   7.668   0.600   4.850 -0.1376  0.8410 -0.6462
19167SOL    HW258718   7.593   0.479   4.902  0.1660  1.1164  0.4594
19168SOL     OW58719   8.083   0.290   4.952 -0.5820  0.3550 -0.2266
19168SOL    HW158720   8.019   0.324   5.014 -2.1615  0.2238 -1.6993
19168SOL    HW258721   8.079   0.351   4.878  2.4828  1.4843  0.4077
19169SOL     OW58722   8.092   0.684   4.303 -0.1421 -0.1680  0.2319
19169SOL    HW158723   8.025   0.741   4.266  0.9651  0.9169 -0.1975
19169SOL    HW258724   8.068   0.675   4.395 -0.1844  1.2815  0.3879
19170SOL     OW58725   8.357   8.611   4.346  0.0104  0.1666 -0.6831
19170SOL    HW158726   8.297   8.677   4.381 -1.5738 -1.6314  0.2155
19170SOL    HW258727   8.433   8.616   4.404 -0.4273  0.6902 -0.1322
19171SOL     OW58728   7.917   1.331   3.627  0.3898 -0.4336  0.0810
19171SOL    HW158729   7.847   1.397   3.624 -1.0935 -1.9450 -0.7236
19171SOL    HW258730   7.955   1.340   3.714 -0.9836  0.2951  0.6433
19172SOL     OW58731   0.241   0.637   3.614  0.8491  0.2653 -0.3176
19172SOL    HW158732   0.306   0.699   3.645  0.8454  0.6113 -0.9782
19172SOL    HW258733   0.171   0.691   3.577 -0.6393 -0.0384  1.8831
19173SOL     OW58734   7.902   0.267   3.615  0.3344  0.6838  0.2956
19173SOL    HW158735   7.874   0.359   3.612  1.4808  1.0501 -1.7252
19173SOL    HW258736   7.954   0.256   3.535  0.2142 -1.7521  0.4835
19174SOL     OW58737   0.009   1.155   4.890  0.3899 -0.5183  0.1756
19174SOL    HW158738   0.098   1.150   4.925  0.6835  0.4720 -0.3970
19174SOL    HW258739   0.002   1.079   4.832  0.8023 -0.6866  0.3451
19175SOL     OW58740   8.748   1.424   4.670 -0.5517  0.3334 -0.4601
19175SOL    HW158741   8.819   1.362   4.656  0.3990  1.5826 -1.3771
19175SOL    HW258742   8.787   1.510   4.655 -1.5050  1.2898  2.0770
19176SOL     OW58743   8.657   0.060   5.226 -0.4026  0.5654 -0.8522
19176SOL    HW158744   8.673   0.150   5.197  0.2569  0.6089 -0.3795
19176SOL    HW258745   8.721   0.046   5.296 -0.1177 -0.4609 -1.3022
19177SOL     OW58746   8.488   1.187   5.236  0.0763  0.2755 -0.4709
19177SOL    HW158747   8.544   1.230   5.300 -1.0179  0.5483  0.3188
19177SOL    HW258748   8.549   1.151   5.171  1.3386 -1.4924  1.5793
19178SOL     OW58749   7.972   1.320   4.168 -0.1138  0.3102  0.5225
19178SOL    HW158750   7.935   1.308   4.255  0.4546 -0.4115  0.6736
19178SOL    HW258751   8.024   1.400   4.174  0.1576  0.1031  0.9272
19179SOL     OW58752   7.962   1.158   5.083 -0.3030  0.3389  0.1518
19179SOL    HW158753   8.053   1.171   5.108  0.8846 -3.1555 -1.6125
19179SOL    HW258754   7.941   1.070   5.115 -3.3272  1.2477  0.9977
19180SOL     OW58755   8.767   0.676   4.878  0.9704  0.1414  0.2618
19180SOL    HW158756   8.822   0.617   4.929 -0.1565 -0.4334  0.8556
19180SOL    HW258757   8.746   0.627   4.799  2.0530  0.7211 -0.4026
19181SOL     OW58758   7.631   1.242   5.472  0.1741  0.2114 -0.1061
19181SOL    HW158759   7.569   1.171   5.486  0.7411 -0.2258  0.2257
19181SOL    HW258760   7.716   1.206   5.497  0.6729  0.5777 -1.1881
19182SOL     OW58761   8.242   1.168   3.910  0.6920 -0.4632  0.1252
19182SOL    HW158762   8.206   1.094   3.862 -0.1398  0.0579 -0.0770
19182SOL    HW258763   8.279   1.129   3.989  0.9745 -1.1799 -0.3487
19183SOL     OW58764   7.819   0.464   4.265  0.4711 -0.2363  0.6255
19183SOL    HW158765   7.842   0.543   4.314  0.3229 -0.6373  1.3573
19183SOL    HW258766   7.723   0.464   4.264  0.4722  0.2241 -0.4258
19184SOL     OW58767   8.535   1.527   3.976 -0.7587  0.2798  0.1390
19184SOL    HW158768   8.626   1.495   3.970 -1.3172 -1.3639 -0.1966
19184SOL    HW258769   8.484   1.460   3.930 -1.9776  1.9977 -1.0911
19185SOL     OW58770   8.533   1.569   5.103 -0.2986 -0.3899  0.3731
19185SOL    HW158771   8.548   1.534   5.015  0.3219 -0.2937  0.4407
19185SOL    HW258772   8.454   1.523   5.133 -0.9792  0.1535 -0.5377
19186SOL     OW58773   7.562   1.869   5.257  0.5093 -0.0797 -0.0213
19186SOL    HW158774   7.633   1.836   5.313  1.5361  0.5513 -0.9139
19186SOL    HW258775   7.519   1.790   5.225  0.9749 -0.4861  0.3261
19187SOL     OW58776   8.213   1.125   5.223  0.0965 -0.2813 -0.5017
19187SOL    HW158777   8.298   1.133   5.267  0.4264  0.0856 -1.1902
19187SOL    HW258778   8.167   1.057   5.272  1.6467 -2.1200 -1.4771
19188SOL     OW58779   8.503   8.849   5.587 -0.3355 -0.2894  0.4388
19188SOL    HW158780   8.542   8.928   5.550  1.2299 -0.8362  0.8464
19188SOL    HW258781   8.541   8.777   5.538  0.9501 -0.9657  2.3159
19189SOL     OW58782   8.333   0.278   5.100 -0.0736 -0.1201 -0.1338
19189SOL    HW158783   8.255   0.283   5.045  0.7532 -0.5010 -1.3952
19189SOL    HW258784   8.406   0.294   5.039  0.9267 -1.3742  0.6829
19190SOL     OW58785   8.120   1.075   4.722 -0.1240 -0.2384 -0.1747
19190SOL    HW158786   8.127   1.165   4.753 -4.6706  0.5844 -0.8770
19190SOL    HW258787   8.146   1.080   4.629 -1.9652  0.8085 -0.6795
19191SOL     OW58788   8.527   0.446   4.367  0.1111 -0.2139 -0.2959
19191SOL    HW158789   8.446   0.474   4.325  0.1296 -0.0049 -0.1921
19191SOL    HW258790   8.593   0.450   4.298  0.5089  1.7846  0.1337
19192SOL     OW58791   8.424   0.468   4.096  0.5654 -0.0495 -0.4251
19192SOL    HW158792   8.380   0.481   4.180 -0.0772  0.3267 -0.8197
19192SOL    HW258793   8.359   0.491   4.030  0.8831 -0.8597 -1.0468
19193SOL     OW58794   7.579   0.132   4.818 -0.1577  0.4869  0.0248
19193SOL    HW158795   7.491   0.143   4.855 -0.9768  2.6558 -2.2590
19193SOL    HW258796   7.583   0.041   4.791 -1.7916  0.3975  0.0000
19194SOL     OW58797   7.394   0.943   4.975 -0.1447 -0.0687  0.2462
19194SOL    HW158798   7.421   1.018   5.028  0.2931 -0.3387  0.4178
19194SOL    HW258799   7.450   0.872   5.006  0.5683 -0.0753 -1.0212
19195SOL     OW58800   7.810   0.714   4.935  0.3946  0.0042  0.3917
19195SOL    HW158801   7.735   0.758   4.895  0.2418  0.0548  0.7312
19195SOL    HW258802   7.886   0.751   4.891  0.2127 -0.1483 -0.0538
19196SOL     OW58803   7.612   0.295   4.096  0.3410  0.2688 -0.8919
19196SOL    HW158804   7.597   0.312   4.190  0.6772 -1.5387 -0.4798
19196SOL    HW258805   7.596   0.380   4.054  1.8235  1.5730  0.9842
19197SOL     OW58806   0.205   0.452   4.342  0.1305 -0.0572  0.1588
19197SOL    HW158807   0.203   0.450   4.246  0.8437  1.9944  0.0539
19197SOL    HW258808   0.242   0.367   4.366  1.6502  0.0734 -1.4736
19198SOL     OW58809   8.349   0.681   4.285  0.3235 -0.0617  0.3263
19198SOL    HW158810   8.401   0.737   4.344 -1.2384  3.1293 -1.0787
19198SOL    HW258811   8.262   0.721   4.285 -0.5650 -1.8262 -1.7638
19199SOL     OW58812   8.595   1.721   6.103 -0.0770 -0.1061 -0.1296
19199SOL    HW158813   8.684   1.700   6.131  0.1025  0.4078 -0.2888
19199SOL    HW258814   8.546   1.641   6.116 -0.0242  0.1170  1.7217
19200SOL     OW58815   7.864   0.920   5.192 -0.6289 -0.0128 -0.0164
19200SOL    HW158816   7.784   0.900   5.142  0.2905 -2.8044 -0.5286
19200SOL    HW258817   7.860   0.861   5.268  0.6608  0.2492  0.2726
19201SOL     OW58818   8.619   0.725   3.560 -0.3168 -0.5519 -0.5165
19201SOL    HW158819   8.693   0.687   3.608  1.7185  0.2669 -2.7622
19201SOL    HW258820   8.613   0.815   3.592  0.1157 -0.4267 -0.7719
19202SOL     OW58821   8.550   1.254   4.564  0.3076  0.3813  0.1680
19202SOL    HW158822   8.611   1.324   4.587 -2.5468  2.9451  0.5230
19202SOL    HW258823   8.571   1.233   4.473  2.0677  0.7191  0.4641
19203SOL     OW58824   7.945   1.370   4.638 -0.3462 -0.1271  0.1369
19203SOL    HW158825   8.021   1.334   4.592 -0.6819 -0.4554 -0.1732
19203SOL    HW258826   7.930   1.309   4.710  0.1379  0.3499  0.6526
19204SOL     OW58827   7.730   0.276   4.629 -0.7825 -0.3424 -0.4793
19204SOL    HW158828   7.714   0.202   4.570 -0.4148  0.3825 -1.5057
19204SOL    HW258829   7.711   0.241   4.716 -1.4360 -1.4018 -1.0280
19205SOL     OW58830   8.415   0.435   5.297 -0.3145  0.3781  0.0291
19205SOL    HW158831   8.393   0.519   5.256 -0.1755  0.5818  0.3663
19205SOL    HW258832   8.372   0.369   5.242 -0.6374  0.6858 -0.0894
19206SOL     OW58833   8.316   0.422   4.596 -0.6719 -0.2058  0.3281
19206SOL    HW158834   8.335   0.328   4.601 -3.1722 -0.7555  0.9171
19206SOL    HW258835   8.265   0.432   4.516  1.9610  1.2330 -1.3214
19207SOL     OW58836   7.818   1.116   4.082  0.2964 -0.1173  0.8102
19207SOL    HW158837   7.733   1.130   4.123 -0.8582 -0.1805 -1.3995
19207SOL    HW258838   7.857   1.203   4.076 -1.1402  0.4677 -1.1542
19208SOL     OW58839   7.302   1.668   4.531  0.1503 -0.0807 -0.2438
19208SOL    HW158840   7.299   1.764   4.538  1.9082  0.0235 -0.4634
19208SOL    HW258841   7.323   1.652   4.439  0.0909 -0.6635 -0.1553
19209SOL     OW58842   8.065   1.692   4.440 -0.4632 -0.0168 -0.1914
19209SOL    HW158843   8.109   1.765   4.484  0.7727 -1.3200  0.7852
19209SOL    HW258844   7.976   1.693   4.475 -1.0672  2.1202 -1.5645
19210SOL     OW58845   8.735   0.929   4.801 -0.6666 -0.2478 -0.1004
19210SOL    HW158846   8.749   0.843   4.841  1.0455 -0.3151 -0.7499
19210SOL    HW258847   8.668   0.915   4.735  0.3321 -1.3456 -0.9155
19211SOL     OW58848   7.748   0.564   4.578  0.0448  0.4132  0.0279
19211SOL    HW158849   7.753   0.470   4.595  1.5142  0.2728 -0.9625
19211SOL    HW258850   7.686   0.597   4.643  0.3180 -1.0726  1.1005
19212SOL     OW58851   7.608   0.797   5.174 -0.4947  0.3766  0.3505
19212SOL    HW158852   7.645   0.718   5.136  0.5967  0.2352  1.6561
19212SOL    HW258853   7.579   0.771   5.261 -1.1792  1.1558  0.3727
19213SOL     OW58854   8.148   0.587   4.053 -0.6514  0.3890  0.5096
19213SOL    HW158855   8.125   0.609   4.143 -0.2826  0.8211  0.5009
19213SOL    HW258856   8.065   0.587   4.006 -0.7736  0.7651  0.7218
19214SOL     OW58857   7.420   1.568   5.840  0.3268 -0.4930 -0.1341
19214SOL    HW158858   7.403   1.487   5.793  0.6874  0.2098 -1.5332
19214SOL    HW258859   7.516   1.577   5.839  0.3182 -0.3020  0.4474
19215SOL     OW58860   8.073   8.835   4.174 -0.5556 -0.1920 -0.8332
19215SOL    HW158861   8.114   8.836   4.260 -2.8193 -0.8562  0.3458
19215SOL    HW258862   8.053   8.927   4.156 -0.8266 -0.1247 -0.2251
19216SOL     OW58863   8.065   1.654   5.244 -0.6292  0.7587  0.4233
19216SOL    HW158864   8.089   1.663   5.151 -1.0161  1.1637  0.3601
19216SOL    HW258865   8.107   1.573   5.271 -0.3018  0.7652 -0.0418
19217SOL     OW58866   7.961   0.798   3.628 -0.4346 -0.0050 -0.2754
19217SOL    HW158867   7.907   0.873   3.601  0.8136  0.1829 -2.4226
19217SOL    HW258868   8.048   0.835   3.642 -0.2996 -0.7080  0.9262
19218SOL     OW58869   7.940   1.331   5.471  0.5675 -0.3445  0.2012
19218SOL    HW158870   7.913   1.243   5.497 -0.6541 -0.0761 -0.1128
19218SOL    HW258871   7.901   1.343   5.385 -2.1091  1.7033  1.5642
19219SOL     OW58872   0.194   0.799   4.934  0.0584  0.6002  0.1671
19219SOL    HW158873   0.102   0.819   4.918  0.0912 -0.1273 -0.9637
19219SOL    HW258874   0.207   0.822   5.026 -2.1182 -2.4926  1.3903
19220SOL     OW58875   0.053   0.271   3.992 -0.1499 -0.7311 -0.1069
19220SOL    HW158876   0.052   0.312   3.906  0.1120 -0.3097  0.0881
19220SOL    HW258877   0.083   0.340   4.051  2.7125 -1.8245 -0.1177
19221SOL     OW58878   8.380   1.756   5.337 -0.2825 -0.0805 -0.1452
19221SOL    HW158879   8.426   1.749   5.421  0.6729  1.0754 -0.5446
19221SOL    HW258880   8.367   1.665   5.309  0.2631 -0.4552  0.7873
19222SOL     OW58881   7.451   1.003   4.694  0.4080  1.1423 -0.0889
19222SOL    HW158882   7.431   1.010   4.787  1.4813  0.4876  0.2148
19222SOL    HW258883   7.369   0.974   4.654 -0.2418  2.0513  0.5456
19223SOL     OW58884   8.147   1.752   5.508  0.2492  0.6955  0.7844
19223SOL    HW158885   8.191   1.800   5.437  1.0474 -1.2608 -0.1228
19223SOL    HW258886   8.069   1.715   5.466 -0.5542  1.4626  1.5661
19224SOL     OW58887   8.738   1.845   4.657  0.9322 -0.4101  0.2891
19224SOL    HW158888   8.833   1.851   4.658  0.9580 -0.2210 -1.0454
19224SOL    HW258889   8.716   1.823   4.567 -0.3347  0.5611  0.3257
19225SOL     OW58890   7.606   1.431   5.265  0.0629 -0.0575 -0.5740
19225SOL    HW158891   7.621   1.384   5.346  0.5040  1.8122  0.4899
19225SOL    HW258892   7.689   1.424   5.217 -0.1985 -1.1592 -0.8833
19226SOL     OW58893   8.670   0.974   4.408  0.5424 -0.5941 -0.0939
19226SOL    HW158894   8.575   0.973   4.420  0.4284  1.3407 -0.6096
19226SOL    HW258895   8.699   0.889   4.442 -1.2172 -0.7229  1.2017
19227SOL     OW58896   8.432   1.176   4.792 -0.2411  0.0156  0.1575
19227SOL    HW158897   8.345   1.139   4.776  0.4009 -2.1225  1.3323
19227SOL    HW258898   8.468   1.189   4.704 -1.8056  1.2000 -0.3617
19228SOL     OW58899   8.395   1.371   3.780  0.4984  0.0650 -0.2918
19228SOL    HW158900   8.430   1.346   3.694 -2.2132  1.2592 -1.8800
19228SOL    HW258901   8.328   1.305   3.799 -0.0499  0.7230  0.1120
19229SOL     OW58902   7.634   0.610   4.009  0.5911  0.9306 -0.0461
19229SOL    HW158903   7.616   0.684   4.068 -0.5506  1.1917 -0.7096
19229SOL    HW258904   7.722   0.629   3.975 -0.0738  2.5538 -0.9927
19230SOL     OW58905   8.363   1.214   3.310  0.3399  0.1407 -0.4803
19230SOL    HW158906   8.309   1.142   3.279 -0.9983  1.4018 -1.2038
19230SOL    HW258907   8.407   1.247   3.231  0.8518  0.2054 -0.1777
19231SOL     OW58908   8.625   1.054   5.040  0.4940  0.1811  0.0415
19231SOL    HW158909   8.706   1.029   5.084  1.0227 -0.2658 -1.1442
19231SOL    HW258910   8.652   1.074   4.951 -0.7339 -0.1368 -0.4146
19232SOL     OW58911   8.810   0.830   3.800  0.3738  0.2427 -0.5350
19232SOL    HW158912   8.744   0.854   3.865  0.9107  0.3750 -0.0234
19232SOL    HW258913   8.790   0.740   3.777  0.2123  0.1723 -0.1313
19233SOL     OW58914   7.815   1.784   5.347 -0.2111  0.1868 -0.1266
19233SOL    HW158915   7.884   1.736   5.300  1.0669  1.0623  0.7831
19233SOL    HW258916   7.837   1.774   5.439 -0.5803  1.5175  0.1303
19234SOL     OW58917   8.520   1.223   4.224 -0.4659 -0.7140 -0.3387
19234SOL    HW158918   8.469   1.153   4.183 -1.0410  0.2025 -1.2275
19234SOL    HW258919   8.576   1.257   4.154 -0.5553  0.0443 -0.0543
19235SOL     OW58920   8.128   0.022   4.463 -0.4445  0.2568  0.1003
19235SOL    HW158921   8.110   0.057   4.550 -1.5149  0.9307 -0.3723
19235SOL    HW258922   8.186   0.087   4.423  0.5147 -0.3377  0.4986
19236SOL     OW58923   7.664   2.251   4.134  0.0087  0.4624  0.3640
19236SOL    HW158924   7.715   2.286   4.208 -0.6384  2.6690 -0.1722
19236SOL    HW258925   7.701   2.293   4.057 -0.3850 -0.5822 -0.4237
19237SOL     OW58926   7.647   1.760   4.139 -0.8077 -0.4116 -0.1796
19237SOL    HW158927   7.721   1.725   4.089  0.4900  0.2837  1.1986
19237SOL    HW258928   7.683   1.779   4.225 -2.1097  1.7818 -0.0628
19238SOL     OW58929   7.888   1.070   5.544  0.4572  0.2762  0.2975
19238SOL    HW158930   7.866   0.989   5.498  1.5265 -0.1130  0.4570
19238SOL    HW258931   7.892   1.044   5.637  0.7273  0.5260  0.3556
19239SOL     OW58932   8.505   0.557   4.972 -0.3443  0.1892 -0.1809
19239SOL    HW158933   8.591   0.593   4.995 -0.4743  0.3606  0.0408
19239SOL    HW258934   8.525   0.474   4.928 -0.0937 -0.4156  1.0253
19240SOL     OW58935   7.821   0.535   3.584  0.5417  0.0997  0.6386
19240SOL    HW158936   7.877   0.613   3.585 -0.4622  0.8546  0.1703
19240SOL    HW258937   7.735   0.567   3.555  0.2890 -1.3074 -0.3018
19241SOL     OW58938   8.545   0.716   5.415  0.5709 -0.5969  0.5874
19241SOL    HW158939   8.592   0.635   5.397  1.9784  0.3998 -0.4502
19241SOL    HW258940   8.488   0.729   5.339 -0.2895 -1.0412  1.1500
19242SOL     OW58941   7.507   8.694   3.674  0.2815  0.0625  0.1281
19242SOL    HW158942   7.563   8.651   3.738  1.1059 -0.4634 -0.9066
19242SOL    HW258943   7.526   8.788   3.684  0.9444 -0.0707  0.1739
19243SOL     OW58944   0.147   1.407   3.772  0.3259  0.0461 -0.0006
19243SOL    HW158945   0.134   1.329   3.827  1.3069 -0.1752 -0.0680
19243SOL    HW258946   0.108   1.478   3.822  0.3830 -0.3097  0.5610
19244SOL     OW58947   8.056   0.789   4.798 -0.0513  0.1646 -0.0982
19244SOL    HW158948   8.076   0.870   4.845 -0.1947  0.6214 -0.8146
19244SOL    HW258949   8.135   0.736   4.808  0.3508  0.7149 -0.2993
19245SOL     OW58950   8.391   0.706   5.180  0.4031  0.4536 -1.1038
19245SOL    HW158951   8.371   0.799   5.173 -0.1196  0.4803  0.3664
19245SOL    HW258952   8.434   0.684   5.097  3.0100  2.5974 -0.4547
19246SOL     OW58953   0.275   1.137   5.579  0.0075  0.0409 -0.1515
19246SOL    HW158954   0.349   1.107   5.631  0.5146  0.9606 -0.3279
19246SOL    HW258955   0.314   1.184   5.506 -0.7392  1.3809  0.2638
19247SOL     OW58956   7.939   1.520   5.693 -0.3605 -0.1938 -0.4401
19247SOL    HW158957   7.926   1.612   5.669  0.7489  0.1402  0.1652
19247SOL    HW258958   7.920   1.472   5.613  0.3957  0.6693 -1.1601
19248SOL     OW58959   8.478   0.171   4.085 -0.2464 -0.8874 -0.5322
19248SOL    HW158960   8.481   0.267   4.087 -0.5292 -0.8651  1.9266
19248SOL    HW258961   8.565   0.144   4.055 -0.0548  0.1157 -0.9147
19249SOL     OW58962   7.980   0.693   4.536  0.1881  0.3621 -0.0551
19249SOL    HW158963   7.896   0.652   4.561  0.9055 -0.6056  0.9006
19249SOL    HW258964   8.015   0.727   4.618  1.9834 -1.6803  0.1405
19250SOL     OW58965   8.737   1.151   3.545  0.1682  0.2108  0.1899
19250SOL    HW158966   8.713   1.236   3.581 -0.5820  1.0266 -2.0901
19250SOL    HW258967   8.662   1.095   3.564 -0.2252  0.6319 -0.0973
19251SOL     OW58968   7.942   1.976   4.809  0.3316 -0.1218  0.7569
19251SOL    HW158969   7.973   2.066   4.797 -0.8634  0.2285  0.1206
19251SOL    HW258970   7.909   1.973   4.899  0.7924 -0.0569  0.9276
19252SOL     OW58971   8.471   0.891   4.722  0.2674 -0.3929 -0.1287
19252SOL    HW158972   8.467   0.972   4.773 -1.1396 -0.4944 -0.0433
19252SOL    HW258973   8.466   0.822   4.788 -3.3801 -0.5496 -0.3695
19253SOL     OW58974   0.162   1.000   3.817 -0.2876 -0.5459  0.2399
19253SOL    HW158975   0.083   0.946   3.813  0.6678 -1.9556 -0.1272
19253SOL    HW258976   0.170   1.037   3.729 -1.1498  0.5498  0.5948
19254SOL     OW58977   8.170   1.112   5.630  0.0024  0.1541 -0.4549
19254SOL    HW158978   8.153   1.076   5.543 -0.0351 -2.6758  0.6131
19254SOL    HW258979   8.088   1.153   5.656 -0.6022 -0.6659 -1.0158
19255SOL     OW58980   7.837   1.268   4.415  0.9726 -0.2398 -0.7144
19255SOL    HW158981   7.781   1.198   4.448  1.2929  0.0915  0.6037
19255SOL    HW258982   7.843   1.330   4.488 -1.2052  2.3664 -2.5742
19256SOL     OW58983   8.188   1.420   5.354  0.2085 -0.8330 -0.3063
19256SOL    HW158984   8.124   1.380   5.413  0.1789  0.7702  0.8125
19256SOL    HW258985   8.265   1.435   5.408  1.0990 -1.5444 -1.3217
19257SOL     OW58986   7.915   0.712   3.913 -0.0450  0.2073  0.5904
19257SOL    HW158987   7.918   0.683   3.822  0.2568  0.5949  0.4711
19257SOL    HW258988   7.861   0.791   3.910  2.3872  1.9714  0.2269
19258SOL     OW58989   7.876   0.460   5.018  0.3616 -0.3202 -0.1517
19258SOL    HW158990   7.891   0.503   5.103  0.7290 -0.5833 -0.0844
19258SOL    HW258991   7.861   0.532   4.957  0.4858 -0.1139  0.0610
19259SOL     OW58992   8.128   1.878   4.633 -0.0980 -0.3605  0.5359
19259SOL    HW158993   8.139   1.965   4.595  1.0478 -0.5962  0.2949
19259SOL    HW258994   8.061   1.889   4.700 -1.3951  0.2769 -0.8220
19260SOL     OW58995   8.711   0.540   5.251  0.5856 -0.0264 -0.1580
19260SOL    HW158996   8.779   0.512   5.190  1.9834  0.9814  0.8671
19260SOL    HW258997   8.636   0.485   5.231  2.0903 -2.0454 -0.5340
19261SOL     OW58998   8.713   0.292   5.097  0.3233 -0.0660  0.0771
19261SOL    HW158999   8.693   0.304   5.004 -0.3312 -0.9041  0.0981
19261SOL    HW259000   8.806   0.267   5.098  0.5826  0.8346 -0.2675
19262SOL     OW59001   8.501   1.484   4.356  0.3986 -0.6916  0.1943
19262SOL    HW159002   8.593   1.460   4.349  0.3238 -0.9296  0.0420
19262SOL    HW259003   8.456   1.425   4.296  0.1604 -0.4982  0.1830
19263SOL     OW59004   7.952   1.492   4.983  0.0061  0.0767 -0.8290
19263SOL    HW159005   8.026   1.553   4.984  0.4125 -0.4082 -0.0757
19263SOL    HW259006   7.952   1.455   4.895  1.1184 -0.4526 -0.6242
19264SOL     OW59007   7.667   0.977   4.335  0.8562  0.4089  0.2789
19264SOL    HW159008   7.641   1.019   4.417  1.1839  0.6012  0.2816
19264SOL    HW259009   7.615   1.021   4.268  0.4730  0.1462  0.4002
19265SOL     OW59010   8.113   1.694   3.889  0.5033  0.1543 -0.3096
19265SOL    HW159011   8.030   1.742   3.898  0.3123  0.3236 -2.4813
19265SOL    HW259012   8.091   1.604   3.913 -0.9220 -0.2816 -2.9642
19266SOL     OW59013   7.832   0.791   5.461 -0.3780 -0.0034 -0.5772
19266SOL    HW159014   7.761   0.737   5.496 -0.4999 -0.2768 -1.2274
19266SOL    HW259015   7.908   0.733   5.462 -0.0176  0.4506  0.6160
19267SOL     OW59016   7.330   0.375   6.697 -0.0985  0.3172 -0.2030
19267SOL    HW159017   7.366   0.288   6.716 -0.9578  0.1712  0.8591
19267SOL    HW259018   7.248   0.357   6.650 -1.4547  0.4205  1.9810
19268SOL     OW59019   7.740   0.567   5.839  1.0855 -0.2316 -0.6327
19268SOL    HW159020   7.762   0.574   5.932 -0.4450  0.4173 -0.3040
19268SOL    HW259021   7.673   0.634   5.824 -0.5691 -1.9988 -1.6073
19269SOL     OW59022   8.030   1.690   6.726 -0.1175  0.6398  0.1571
19269SOL    HW159023   7.935   1.697   6.735 -0.0901  1.5814 -0.1398
19269SOL    HW259024   8.052   1.757   6.660  0.6673 -0.0282 -0.2743
19270SOL     OW59025   0.100   1.402   6.410 -0.0187 -0.1876  0.2065
19270SOL    HW159026   0.055   1.330   6.455  0.8613 -0.2103  1.1002
19270SOL    HW259027   0.193   1.383   6.421  0.2198  0.4239 -0.6526
19271SOL     OW59028   0.241   0.420   6.105  0.5709 -0.0735  0.6096
19271SOL    HW159029   0.218   0.327   6.107  1.3446 -0.3111 -0.5092
19271SOL    HW259030   0.332   0.423   6.133  0.2576  0.4818  1.6367
19272SOL     OW59031   8.225   0.965   6.918 -0.3936  0.2814 -0.4482
19272SOL    HW159032   8.138   0.954   6.881 -0.7578  0.7763  0.2403
19272SOL    HW259033   8.280   0.990   6.844 -0.4034 -1.9712 -1.2852
19273SOL     OW59034   8.280   0.397   7.292 -0.1402 -0.0358  0.7093
19273SOL    HW159035   8.227   0.458   7.343 -0.4197 -0.1129  0.5101
19273SOL    HW259036   8.270   0.425   7.202 -1.7402 -1.4701  0.4052
19274SOL     OW59037   8.214   0.560   6.744  0.1924  0.1831  0.4108
19274SOL    HW159038   8.167   0.606   6.673 -1.0044 -1.0062  0.3886
19274SOL    HW259039   8.145   0.539   6.807  0.6566 -1.7866  0.3020
19275SOL     OW59040   7.906   1.228   6.737 -0.1879 -0.3217 -0.0558
19275SOL    HW159041   7.844   1.265   6.675 -0.3203  0.7121  0.6622
19275SOL    HW259042   7.977   1.292   6.741  0.6071 -1.1633 -0.3535
19276SOL     OW59043   7.556   1.516   6.780 -0.5992  0.4384 -0.0985
19276SOL    HW159044   7.463   1.538   6.774 -0.3687  1.9803  1.4216
19276SOL    HW259045   7.594   1.583   6.836  1.6464  0.4320 -1.4711
19277SOL     OW59046   7.654   0.402   6.865  0.2762  0.3660  0.5155
19277SOL    HW159047   7.650   0.387   6.959 -0.3329  2.1588  0.8092
19277SOL    HW259048   7.592   0.473   6.849  0.5142  0.2276 -1.2105
19278SOL     OW59049   7.714   1.562   5.845  0.1609 -0.3511 -0.2342
19278SOL    HW159050   7.787   1.538   5.788  0.3429  0.6424 -0.4260
19278SOL    HW259051   7.747   1.634   5.899  0.2258 -1.7008  1.6424
19279SOL     OW59052   8.478   1.099   7.044  0.5445 -0.3515 -0.4933
19279SOL    HW159053   8.569   1.124   7.028  0.6733 -1.2247 -1.1783
19279SOL    HW259054   8.426   1.172   7.010  1.0052  1.3353  2.1439
19280SOL     OW59055   7.609   1.461   6.091  0.2755 -0.0529 -0.6434
19280SOL    HW159056   7.660   1.463   6.010  0.8660  0.5325 -0.2651
19280SOL    HW259057   7.536   1.522   6.075  0.4054  0.0808 -0.7302
19281SOL     OW59058   7.697   1.372   6.598 -0.3524 -0.0767  0.5862
19281SOL    HW159059   7.713   1.427   6.521 -0.2980 -0.9676 -0.0593
19281SOL    HW259060   7.628   1.418   6.647 -2.0813 -0.6188 -1.1933
19282SOL     OW59061   7.743   2.331   7.354 -0.1437  0.0696 -0.3486
19282SOL    HW159062   7.802   2.404   7.337  0.2391 -0.2651 -0.4896
19282SOL    HW259063   7.799   2.266   7.397 -0.3693 -0.3226 -0.6464
19283SOL     OW59064   8.095   1.272   6.063  0.2383 -0.0756  0.2432
19283SOL    HW159065   8.191   1.270   6.065  0.2898  1.2654  0.1084
19283SOL    HW259066   8.069   1.183   6.085  1.5444 -1.2254 -2.3394
19284SOL     OW59067   7.658   1.017   5.867 -0.7361  0.1274  0.1217
19284SOL    HW159068   7.629   0.965   5.792  0.6614 -1.7514  0.8040
19284SOL    HW259069   7.584   1.015   5.928 -1.0422 -0.2588 -0.2595
19285SOL     OW59070   0.359   0.850   6.243  0.2931 -0.2959 -0.3983
19285SOL    HW159071   0.333   0.766   6.281 -1.1954 -0.4097 -1.5840
19285SOL    HW259072   0.278   0.900   6.235  1.0084  0.8723 -0.6399
19286SOL     OW59073   7.672   0.816   6.690 -0.2533  0.2342  0.0272
19286SOL    HW159074   7.735   0.881   6.658 -0.6793  0.0548 -1.2070
19286SOL    HW259075   7.695   0.735   6.644 -1.4746  0.2014 -0.5516
19287SOL     OW59076   7.965   1.461   6.240 -0.2208  0.0280  0.0659
19287SOL    HW159077   8.044   1.470   6.292 -0.6077 -2.0652  1.1252
19287SOL    HW259078   7.990   1.405   6.167 -0.0361  1.7944 -1.2916
19288SOL     OW59079   8.561   0.981   6.559  0.5379 -0.1118 -0.3233
19288SOL    HW159080   8.639   0.941   6.597  0.0987 -0.7412 -0.0635
19288SOL    HW259081   8.565   0.958   6.466 -0.0774 -1.4155 -0.0562
19289SOL     OW59082   8.031   0.198   6.209 -1.0745  0.2719  0.0882
19289SOL    HW159083   8.078   0.281   6.199 -1.2698  0.6946  2.3068
19289SOL    HW259084   7.941   0.220   6.184 -0.6876  0.1001 -1.6112
19290SOL     OW59085   7.960   0.975   6.821  0.5565 -0.0618  0.2902
19290SOL    HW159086   7.947   1.056   6.773 -0.4115 -0.6639 -0.5017
19290SOL    HW259087   7.927   0.994   6.909  1.3189  0.7070  0.4265
19291SOL     OW59088   8.344   1.893   6.901  0.0809 -0.2235  0.3901
19291SOL    HW159089   8.403   1.852   6.838 -1.5548 -3.6017  0.8079
19291SOL    HW259090   8.377   1.865   6.986 -1.1287 -0.7922  0.6947
19292SOL     OW59091   7.512   0.021   7.578 -0.3952  0.4312  0.3179
19292SOL    HW159092   7.534   0.065   7.496  1.6416  1.4490  1.3420
19292SOL    HW259093   7.538  -0.070   7.565  0.5874  0.7381  0.0410
19293SOL     OW59094   8.060   0.656   5.513  0.0689  0.0064 -0.1470
19293SOL    HW159095   8.077   0.562   5.510 -1.2918 -0.3378  1.3848
19293SOL    HW259096   8.054   0.677   5.606 -1.3566  1.2700 -0.4797
19294SOL     OW59097   8.580   0.181   6.298  0.5349  0.1712  0.5567
19294SOL    HW159098   8.522   0.252   6.325  0.6965 -0.3625  2.4381
19294SOL    HW259099   8.557   0.108   6.355  0.9227 -1.0525 -0.7892
19295SOL     OW59100   8.172   0.327   6.961  0.2881  0.0622  0.3954
19295SOL    HW159101   8.255   0.282   6.946  0.1006  0.3107 -1.7160
19295SOL    HW259102   8.197   0.412   6.997  0.9654  0.1777 -0.3266
19296SOL     OW59103   0.012   0.309   7.496  0.2806 -0.1858  0.1318
19296SOL    HW159104   0.092   0.348   7.530  1.6353 -1.0253 -1.9199
19296SOL    HW259105  -0.054   0.379   7.505  1.4945  0.9173  0.8018
19297SOL     OW59106   8.367   0.976   7.352 -0.0602  0.0340 -0.4944
19297SOL    HW159107   8.394   0.912   7.417 -2.6458 -0.5667  0.1062
19297SOL    HW259108   8.447   1.023   7.329  0.8748  0.8035  3.6446
19298SOL     OW59109   8.356   0.382   6.533 -0.4460  0.0141  0.0247
19298SOL    HW159110   8.290   0.321   6.565 -1.8351  1.6538  0.4134
19298SOL    HW259111   8.353   0.455   6.594  1.5872  0.2526 -0.0919
19299SOL     OW59112   8.352   0.511   5.822 -0.2393  0.3558  0.6112
19299SOL    HW159113   8.383   0.486   5.735 -0.9358 -0.6655  0.6348
19299SOL    HW259114   8.325   0.428   5.862  0.7878  0.6991  2.1065
19300SOL     OW59115   7.850   0.934   6.179 -0.2693 -0.3494 -0.3768
19300SOL    HW159116   7.892   0.887   6.251  0.7548  1.6360  0.4145
19300SOL    HW259117   7.919   0.946   6.114 -1.0798 -1.7559 -1.5285
19301SOL     OW59118   7.670   1.903   7.669 -0.5265 -0.5050  0.8117
19301SOL    HW159119   7.700   1.863   7.751  0.3965 -2.4734 -0.4177
19301SOL    HW259120   7.576   1.916   7.682 -0.2726 -0.0344  2.4379
19302SOL     OW59121   8.296   0.238   5.919 -0.1459 -0.1742 -0.3334
19302SOL    HW159122   8.228   0.190   5.872  0.4495  0.1401 -1.5701
19302SOL    HW259123   8.296   0.200   6.007 -3.4666  1.3560  0.4727
19303SOL     OW59124   0.170   1.047   6.199 -0.1143  0.2007 -0.8028
19303SOL    HW159125   0.204   1.135   6.185 -2.1634  1.0915 -0.4881
19303SOL    HW259126   0.077   1.053   6.175 -0.8921 -1.2337  1.5696
19304SOL     OW59127   8.188   8.834   6.450 -0.6379 -0.3037 -0.1039
19304SOL    HW159128   8.229   8.902   6.504 -0.3419 -0.3260 -0.2980
19304SOL    HW259129   8.241   8.831   6.370 -0.5358 -0.8864 -0.0212
19305SOL     OW59130   8.724   1.098   6.101  0.0045 -0.1542  0.0433
19305SOL    HW159131   8.713   1.048   6.020  0.4624  0.6385 -0.5242
19305SOL    HW259132   8.727   1.189   6.073 -0.3570  0.1696  1.0130
19306SOL     OW59133   7.825   1.687   6.059 -0.7086  0.2621 -0.1268
19306SOL    HW159134   7.876   1.623   6.108  0.6238  0.7879 -0.7761
19306SOL    HW259135   7.780   1.739   6.126  2.1967  1.9139  0.6895
19307SOL     OW59136   8.503   1.414   7.102  0.3317 -0.8168 -0.9183
19307SOL    HW159137   8.488   1.395   7.009  0.6408  0.2084 -1.1930
19307SOL    HW259138   8.588   1.458   7.104  0.3345 -0.8405 -0.1398
19308SOL     OW59139   7.939   1.277   5.832 -0.7055  0.5003  0.2568
19308SOL    HW159140   7.991   1.299   5.909  1.3445 -0.0407 -0.8920
19308SOL    HW259141   7.945   1.356   5.777 -1.8298  0.7428  0.4669
19309SOL     OW59142   8.046   1.525   7.477 -0.0935  0.0596  0.1207
19309SOL    HW159143   8.064   1.610   7.437 -0.1583  0.3038  0.6136
19309SOL    HW259144   8.065   1.462   7.407 -0.6192  0.5040 -0.4398
19310SOL     OW59145   0.200   0.969   5.851  0.2489  0.4921  0.1111
19310SOL    HW159146   0.225   1.057   5.880  0.5228  1.1002 -1.8363
19310SOL    HW259147   0.280   0.932   5.814  0.1628 -0.6408  1.0104
19311SOL     OW59148   7.303   0.122   6.985 -0.0192 -0.1122  0.1098
19311SOL    HW159149   7.365   0.058   6.950  0.8579 -0.1358  1.6397
19311SOL    HW259150   7.254   0.152   6.908  0.1850 -1.9052 -0.7741
19312SOL     OW59151   8.016   1.787   5.889 -0.4842  0.2241  0.3177
19312SOL    HW159152   7.941   1.769   5.946 -1.0391  2.5836  0.4093
19312SOL    HW259153   7.977   1.809   5.804  0.3001 -2.1486 -0.7585
19313SOL     OW59154   7.456   2.316   6.532 -0.0107  0.2226  0.1794
19313SOL    HW159155   7.523   2.251   6.509 -0.9590 -0.2596 -1.3192
19313SOL    HW259156   7.373   2.270   6.521 -0.7356  1.7749 -1.3386
19314SOL     OW59157   8.647   1.262   6.336 -0.7844 -0.1538  0.1516
19314SOL    HW159158   8.671   1.349   6.304 -0.6376  0.3849  1.6473
19314SOL    HW259159   8.629   1.212   6.257 -0.1066  1.0081 -0.7765
19315SOL     OW59160   7.778   0.604   6.114  0.0155 -0.3095  0.2363
19315SOL    HW159161   7.731   0.687   6.123 -0.2767 -0.4195 -0.2481
19315SOL    HW259162   7.722   0.540   6.157 -0.9339 -0.6721 -1.4617
19316SOL     OW59163   8.079   8.664   5.682  0.2461  0.3769  0.1403
19316SOL    HW159164   8.124   8.580   5.697  0.3959  0.6876  1.5718
19316SOL    HW259165   7.995   8.640   5.644 -0.0123 -0.5031  1.1959
19317SOL     OW59166   8.298   0.331   7.674 -0.0494  0.1742 -0.2727
19317SOL    HW159167   8.266   0.412   7.715 -0.4958 -0.4046  0.5337
19317SOL    HW259168   8.393   0.341   7.674 -0.0905  0.6266 -0.0263
19318SOL     OW59169   7.893   2.102   6.354  0.1796  0.4886  0.2494
19318SOL    HW159170   7.988   2.114   6.347  0.2967 -0.1270  0.7598
19318SOL    HW259171   7.882   2.017   6.395 -0.5861  1.0752  1.3037
19319SOL     OW59172   0.261   0.367   7.117  0.2026 -0.1267  0.1592
19319SOL    HW159173   0.229   0.411   7.195 -0.3179  0.5888 -0.4435
19319SOL    HW259174   0.264   0.274   7.141  1.5991  0.2200  1.5497
19320SOL     OW59175   8.321   0.986   6.673 -0.3633 -0.3284  0.3363
19320SOL    HW159176   8.288   1.032   6.596  0.5919  3.5918  2.0268
19320SOL    HW259177   8.412   0.968   6.652 -1.0434 -2.9756 -0.8391
19321SOL     OW59178   8.575   0.244   5.814  0.1647 -0.1074  0.7916
19321SOL    HW159179   8.572   0.269   5.722 -0.0574 -0.6085  0.6581
19321SOL    HW259180   8.488   0.263   5.848 -0.1566 -1.1105  0.5692
19322SOL     OW59181   7.829   0.065   5.730 -0.0390 -0.1818 -0.3927
19322SOL    HW159182   7.787   0.149   5.749 -1.1849 -0.9660  0.7125
19322SOL    HW259183   7.795   0.041   5.644 -2.8665 -1.2947  0.8934
19323SOL     OW59184   0.445   0.901   5.785  0.3766  0.2328 -0.2339
19323SOL    HW159185   0.518   0.911   5.723 -0.5874  0.0943 -1.4423
19323SOL    HW259186   0.439   0.807   5.800  1.1481  0.3317  0.7638
19324SOL     OW59187   7.381   0.532   5.627  0.6528  0.4214  0.6088
19324SOL    HW159188   7.323   0.590   5.675 -1.3569  0.4371 -1.6298
19324SOL    HW259189   7.387   0.571   5.540  1.0579 -1.5366 -0.2971
19325SOL     OW59190   8.332   8.571   5.849 -0.1495 -0.3270  0.4779
19325SOL    HW159191   8.410   8.624   5.837 -1.3215  0.8279 -5.0034
19325SOL    HW259192   8.266   8.633   5.881 -0.2875  0.4046 -1.1194
19326SOL     OW59193   8.778   0.394   6.750  0.0384  0.0158  0.7448
19326SOL    HW159194   8.696   0.346   6.754 -0.1348  0.2221 -0.0755
19326SOL    HW259195   8.756   0.475   6.703  0.8704 -0.3062 -0.2495
19327SOL     OW59196   8.717   1.560   6.313 -0.0065 -0.1405 -0.3717
19327SOL    HW159197   8.759   1.636   6.273 -1.3356  0.0988 -1.3682
19327SOL    HW259198   8.790   1.509   6.349  0.8279  2.9938  3.0028
19328SOL     OW59199   7.936   1.232   6.400  0.6864  0.2021 -0.1618
19328SOL    HW159200   7.882   1.241   6.322 -0.2594 -0.9269  0.3402
19328SOL    HW259201   7.918   1.311   6.451  0.7238  0.5783 -0.7180
19329SOL     OW59202   0.036   1.768   6.236 -0.0546  0.2258  0.0972
19329SOL    HW159203   0.099   1.764   6.309  1.1734 -3.3714 -0.9691
19329SOL    HW259204   0.061   1.847   6.188  1.8243  0.4106  1.2545
19330SOL     OW59205   8.729   0.554   5.991 -0.5791  0.2954 -0.1412
19330SOL    HW159206   8.740   0.648   6.002  0.5961  0.0258  1.2860
19330SOL    HW259207   8.817   0.521   5.978 -0.8460 -0.7367  0.5440
19331SOL     OW59208   7.573   0.726   6.962  0.4007 -0.4312 -0.7136
19331SOL    HW159209   7.575   0.766   6.875 -1.0614 -1.1011 -1.0774
19331SOL    HW259210   7.499   0.666   6.959 -0.8315  0.8541  1.5663
19332SOL     OW59211   8.113   0.017   6.819  0.4157  0.3070 -0.1888
19332SOL    HW159212   8.027  -0.006   6.785  0.8717 -1.3351 -0.3539
19332SOL    HW259213   8.121  -0.034   6.900  1.3245  0.2277 -0.3134
19333SOL     OW59214   8.074   0.514   6.088 -0.3464 -0.3619 -0.3042
19333SOL    HW159215   8.101   0.469   6.008  0.4719 -1.1341  0.3865
19333SOL    HW259216   7.979   0.511   6.087 -0.3136 -2.5122 -0.0672
19334SOL     OW59217   8.407   8.608   6.856  0.3915  0.2312  0.0338
19334SOL    HW159218   8.338   8.597   6.790 -0.1966 -0.0067  0.6870
19334SOL    HW259219   8.368   8.577   6.937  1.1285  0.4955  0.4940
19335SOL     OW59220   8.323   1.363   5.628  0.4301  0.0770 -0.0536
19335SOL    HW159221   8.301   1.400   5.714  1.6858 -1.8334  1.1480
19335SOL    HW259222   8.282   1.277   5.628  0.8180 -0.1233 -1.2101
19336SOL     OW59223   8.808   0.223   5.988  0.3501  0.1851 -0.1579
19336SOL    HW159224   8.728   0.235   5.935 -1.2610 -1.4198  1.7447
19336SOL    HW259225   8.795   0.280   6.064  0.8949 -0.2822  0.2875
19337SOL     OW59226   7.739   0.034   5.370  0.4612  0.1202  0.0397
19337SOL    HW159227   7.741  -0.027   5.297  0.0357  0.1145  0.0294
19337SOL    HW259228   7.820   0.083   5.363 -0.8557  2.1900 -2.1949
19338SOL     OW59229   8.472   1.257   6.581 -0.3636 -0.9045 -0.3909
19338SOL    HW159230   8.518   1.175   6.566 -0.1958 -0.7739 -0.6003
19338SOL    HW259231   8.379   1.233   6.580 -0.2863 -1.2540  0.5841
19339SOL     OW59232   8.420   0.795   7.006 -0.2047  0.5928  0.1777
19339SOL    HW159233   8.351   0.855   6.980  0.7121  0.3794 -3.1976
19339SOL    HW259234   8.469   0.842   7.073 -1.0244  2.5535 -0.5362
19340SOL     OW59235   8.202   0.054   7.758 -0.0343 -0.4233 -0.2318
19340SOL    HW159236   8.173   0.145   7.747  0.1835 -0.4740 -1.3726
19340SOL    HW259237   8.181   0.012   7.674  1.4953 -0.9679 -0.3640
19341SOL     OW59238   8.367   0.759   7.692  0.4412 -0.2640 -0.2471
19341SOL    HW159239   8.438   0.737   7.632 -0.7644 -0.3444 -1.7077
19341SOL    HW259240   8.395   0.841   7.734  1.2151 -0.0800 -1.0935
19342SOL     OW59241   8.328   0.929   5.802  0.6670  0.3322  0.2768
19342SOL    HW159242   8.376   1.012   5.792  0.5414  0.5583  1.4023
19342SOL    HW259243   8.272   0.924   5.725  3.1560 -0.4116 -1.5986
19343SOL     OW59244   8.187   0.222   6.678  0.2045 -0.5520  0.1952
19343SOL    HW159245   8.172   0.299   6.733 -1.9808 -0.2919 -0.6709
19343SOL    HW259246   8.154   0.148   6.730 -0.0442 -0.5726  0.0054
19344SOL     OW59247   0.174   0.317   6.800  0.1941 -0.0964  0.0472
19344SOL    HW159248   0.165   0.308   6.895  1.3413  0.5892  0.2426
19344SOL    HW259249   0.098   0.368   6.773  0.7789  1.2956  0.8858
19345SOL     OW59250   7.604   1.659   7.256 -0.3101  0.5396  0.0915
19345SOL    HW159251   7.656   1.726   7.301  0.5789 -0.4462  0.5756
19345SOL    HW259252   7.517   1.664   7.296 -0.0808  1.0046  0.5358
19346SOL     OW59253   8.240   0.778   6.161  0.1806 -0.1808  0.0112
19346SOL    HW159254   8.319   0.746   6.118 -1.6687 -1.5881 -2.6058
19346SOL    HW259255   8.195   0.699   6.191 -0.9872  0.4811  0.0429
19347SOL     OW59256   8.129   0.569   6.348 -0.0477 -0.1038  0.5619
19347SOL    HW159257   8.102   0.552   6.258 -0.9746 -0.1007  0.8234
19347SOL    HW259258   8.091   0.497   6.399  0.2856  0.0085  0.9769
19348SOL     OW59259   0.262   1.276   6.089  0.1071 -0.0959 -0.4873
19348SOL    HW159260   0.198   1.340   6.057 -0.8188 -1.6567 -1.9552
19348SOL    HW259261   0.304   1.243   6.009  1.8660 -0.0265  0.3708
19349SOL     OW59262   8.500   1.317   6.848 -0.0465 -0.0252 -0.5674
19349SOL    HW159263   8.584   1.274   6.860 -0.0092  0.5353  1.6302
19349SOL    HW259264   8.480   1.307   6.755  1.5162 -1.8360 -0.7472
19350SOL     OW59265   7.780   1.944   6.567  0.0516  0.3970 -0.1535
19350SOL    HW159266   7.867   1.983   6.560  0.1517  0.2311  0.1541
19350SOL    HW259267   7.783   1.894   6.648  0.0232 -0.5266 -0.7182
19351SOL     OW59268   8.118   0.616   7.410  0.3759 -0.1961  0.4426
19351SOL    HW159269   8.031   0.643   7.437  0.8421  1.6818  0.1629
19351SOL    HW259270   8.151   0.565   7.485 -0.9647 -1.0532  0.4930
19352SOL     OW59271   8.294   0.171   7.448  0.6412  0.1605 -0.1375
19352SOL    HW159272   8.315   0.233   7.379  0.1282  1.3893  0.7782
19352SOL    HW259273   8.267   0.225   7.522  1.9555 -1.0745  1.3168
19353SOL     OW59274   7.745   8.820   7.334 -0.7597 -0.0039 -0.0692
19353SOL    HW159275   7.790   8.739   7.355 -1.5140 -0.4204 -0.0110
19353SOL    HW259276   7.725   8.813   7.240 -0.0961  0.4897 -0.2562
19354SOL     OW59277   7.959   0.762   6.642 -0.0225  0.2152  0.0292
19354SOL    HW159278   7.932   0.684   6.690 -2.7844  0.7627 -0.4879
19354SOL    HW259279   7.981   0.826   6.709  0.5566 -0.4263  0.4645
19355SOL     OW59280   8.734   0.633   6.630 -0.2045  1.2560 -0.3026
19355SOL    HW159281   8.639   0.622   6.639 -0.2800  2.6456  0.9337
19355SOL    HW259282   8.744   0.680   6.547 -0.2812 -1.8764 -2.2691
19356SOL     OW59283   0.089   0.627   6.176 -0.3281 -0.0484 -0.1859
19356SOL    HW159284   0.101   0.668   6.090 -2.0458 -0.5519 -0.6997
19356SOL    HW259285   0.149   0.553   6.177  0.0192  0.2225 -0.7756
19357SOL     OW59286   7.697   8.809   7.060  0.0444 -0.6020 -0.3356
19357SOL    HW159287   7.622   8.791   7.003  0.9156 -0.1601 -1.6754
19357SOL    HW259288   7.751   8.870   7.009  1.2105 -0.7534  0.6844
19358SOL     OW59289   7.377   1.401   7.165 -0.4798 -0.3912 -1.0585
19358SOL    HW159290   7.413   1.339   7.228  0.4498 -1.2104 -2.3495
19358SOL    HW259291   7.432   1.391   7.087 -1.6863  0.4760 -2.0615
19359SOL     OW59292   8.315   0.332   6.260 -0.1769  0.2100  0.0989
19359SOL    HW159293   8.362   0.397   6.209 -1.2180 -0.0828 -1.2818
19359SOL    HW259294   8.332   0.356   6.351  0.7215  1.4775 -0.3798
19360SOL     OW59295   7.443   8.842   6.327 -0.3477 -0.1041 -0.2626
19360SOL    HW159296   7.423   8.926   6.285 -0.0566  0.0966 -0.0016
19360SOL    HW259297   7.374   8.783   6.296  0.3727 -0.2155 -1.7637
19361SOL     OW59298   0.123   8.305   6.308 -0.6585 -0.7340  0.2673
19361SOL    HW159299   0.030   8.330   6.304 -0.3853  0.5132  1.2050
19361SOL    HW259300   0.169   8.380   6.270  0.0823 -0.5223  1.5307
19362SOL     OW59301   8.596   0.514   6.239 -0.2054 -0.1522 -0.0831
19362SOL    HW159302   8.623   0.550   6.154  1.3926  1.7717  1.1492
19362SOL    HW259303   8.546   0.585   6.279 -0.4886 -0.8425  0.7973
19363SOL     OW59304   8.195   1.250   7.366 -0.2025  0.5582 -0.2247
19363SOL    HW159305   8.184   1.209   7.280 -0.0384 -0.8418  0.3863
19363SOL    HW259306   8.232   1.336   7.347  4.6625 -1.4156 -1.4524
19364SOL     OW59307   7.821   0.626   7.069 -0.0590  0.6387  0.0247
19364SOL    HW159308   7.773   0.546   7.090 -0.3561 -0.0586 -2.8808
19364SOL    HW259309   7.755   0.686   7.034  0.3986  1.6259  0.8095
19365SOL     OW59310   8.438   0.427   5.572  0.5169 -0.4583 -0.0974
19365SOL    HW159311   8.363   0.370   5.588 -0.6098  0.6961 -1.0762
19365SOL    HW259312   8.424   0.462   5.484  1.2799  1.1442  0.3678
19366SOL     OW59313   8.230   1.150   6.460  0.3998 -0.1598  0.0659
19366SOL    HW159314   8.255   1.130   6.370  0.5080  1.2216 -0.2262
19366SOL    HW259315   8.144   1.190   6.453  1.2512  1.8735  0.3234
19367SOL     OW59316   7.933   0.773   6.394  0.3422 -0.0582  0.0723
19367SOL    HW159317   7.944   0.806   6.483  2.1525  0.0343 -0.1512
19367SOL    HW259318   8.004   0.709   6.384 -1.1948 -1.7520 -0.5607
19368SOL     OW59319   8.013   0.371   6.497  0.0782  0.5875  0.0801
19368SOL    HW159320   7.934   0.336   6.536  0.2850  1.1180  0.9944
19368SOL    HW259321   8.083   0.313   6.528  0.2960  1.2460  0.8522
19369SOL     OW59322   8.071   8.815   7.501 -0.4644  0.3253  0.3183
19369SOL    HW159323   8.115   8.812   7.416  0.9778  0.0445  1.0563
19369SOL    HW259324   8.030   8.729   7.510 -0.7773  0.4206 -0.1666
19370SOL     OW59325   8.179   0.082   7.214  0.7135 -0.1159 -0.0829
19370SOL    HW159326   8.206   0.124   7.296  0.0146 -0.0380  0.1081
19370SOL    HW259327   8.104   0.132   7.184  0.6988 -0.4103 -0.5537
19371SOL     OW59328   7.314   1.537   6.124  0.5338  0.3701  0.0086
19371SOL    HW159329   7.289   1.455   6.167 -0.8982  0.4804 -0.5714
19371SOL    HW259330   7.352   1.590   6.194 -1.5325  0.4493  1.1387
19372SOL     OW59331   7.619   1.972   6.139  0.0305  0.5554  0.7074
19372SOL    HW159332   7.665   1.944   6.060 -2.7120  0.6419 -1.0134
19372SOL    HW259333   7.641   2.065   6.147  0.0271  0.6419 -0.1831
19373SOL     OW59334   7.716   1.499   6.349 -0.6751  0.0053 -0.2516
19373SOL    HW159335   7.670   1.473   6.269 -0.0271 -0.0781 -0.5985
19373SOL    HW259336   7.808   1.484   6.331 -0.6719 -2.8827  1.5453
19374SOL     OW59337   8.282   0.552   7.061  0.2829 -0.1381  0.5495
19374SOL    HW159338   8.236   0.614   7.117 -0.1357 -1.3011  1.5305
19374SOL    HW259339   8.356   0.602   7.026  2.0823  0.0355  4.1299
19375SOL     OW59340   7.726   0.595   6.515  0.1330 -0.2325 -0.4893
19375SOL    HW159341   7.763   0.511   6.490  1.1538  0.2113 -0.5278
19375SOL    HW259342   7.773   0.659   6.461 -0.2969  0.4037 -0.1276
19376SOL     OW59343   7.568   8.608   7.608 -0.0840 -0.3083 -0.1459
19376SOL    HW159344   7.493   8.551   7.592  0.0380 -0.9222  1.2606
19376SOL    HW259345   7.607   8.573   7.688  1.9939 -0.2991 -1.0987
19377SOL     OW59346   8.129   0.077   5.769  0.3816  0.2682 -0.1351
19377SOL    HW159347   8.095  -0.004   5.731 -0.5802  0.6680 -0.1502
19377SOL    HW259348   8.053   0.120   5.806  1.1903  0.1385  1.8320
19378SOL     OW59349   7.782   1.800   6.809  0.1440 -0.2082 -0.1199
19378SOL    HW159350   7.813   1.873   6.863 -0.3629 -0.6651  0.8091
19378SOL    HW259351   7.712   1.760   6.860 -1.5238  0.3524 -1.8619
19379SOL     OW59352   8.386   0.013   6.784  0.1068 -1.1823 -0.2289
19379SOL    HW159353   8.290   0.019   6.788  0.1679 -0.7378  2.6855
19379SOL    HW259354   8.407  -0.070   6.826  1.0402 -0.2362  1.2548
19380SOL     OW59355   8.201   1.509   7.220 -0.1687 -0.3916 -0.1293
19380SOL    HW159356   8.270   1.491   7.156 -0.2305  0.3116 -0.4036
19380SOL    HW259357   8.191   1.604   7.218  1.9903  0.0589  3.1651
19381SOL     OW59358   8.070   0.374   5.524 -0.2170  0.8171  0.1381
19381SOL    HW159359   7.981   0.347   5.548 -0.1087 -1.1721 -1.4029
19381SOL    HW259360   8.124   0.298   5.543  0.6929  1.0411 -1.3687
19382SOL     OW59361   7.773   1.135   7.222 -0.9720  0.6601  0.0764
19382SOL    HW159362   7.805   1.169   7.138 -1.9392 -0.8613 -0.9410
19382SOL    HW259363   7.831   1.062   7.242  0.1073  1.8238  1.4722
19383SOL     OW59364   8.830   0.739   6.867 -0.3688  0.3070  0.0529
19383SOL    HW159365   8.810   0.678   6.938  0.4627 -0.4133 -0.3049
19383SOL    HW259366   8.777   0.709   6.794 -0.5617  0.5106  0.1078
19384SOL     OW59367   8.422   0.733   5.972  0.0327 -0.5522  0.0142
19384SOL    HW159368   8.399   0.646   5.937 -0.2843 -1.0425  1.3694
19384SOL    HW259369   8.385   0.794   5.909  1.7772 -1.3837 -1.9095
19385SOL     OW59370   8.747   1.590   7.125 -0.0421  0.1184 -0.5814
19385SOL    HW159371   8.724   1.621   7.038 -0.2240  0.3870 -0.4384
19385SOL    HW259372   8.768   1.670   7.174 -1.9965  0.1911  0.2387
19386SOL     OW59373   7.724   1.014   6.419 -0.0666  0.5507 -0.2114
19386SOL    HW159374   7.792   1.081   6.417 -0.5405  1.0289 -0.7846
19386SOL    HW259375   7.752   0.949   6.354  0.1236  0.4644 -0.0427
19387SOL     OW59376   8.113   1.807   7.752  0.4376 -0.0752  0.6593
19387SOL    HW159377   8.075   1.803   7.664  0.4335  1.9728  0.5226
19387SOL    HW259378   8.130   1.716   7.775  0.3672 -0.6593 -1.4243
19388SOL     OW59379   0.095   1.441   5.958  0.2738 -0.0288 -0.3488
19388SOL    HW159380   0.121   1.531   5.938 -1.2444  0.4527 -0.2049
19388SOL    HW259381   0.101   1.396   5.874  1.3496  0.1042 -0.3621
19389SOL     OW59382   7.537   1.467   7.801 -0.1134 -0.5110 -0.4021
19389SOL    HW159383   7.583   1.434   7.878 -0.3553  0.5907  0.2296
19389SOL    HW259384   7.481   1.394   7.773  0.3003 -1.0652  0.2041
19390SOL     OW59385   8.611   0.937   6.296 -0.1316  0.1591 -0.0280
19390SOL    HW159386   8.683   0.873   6.305  1.0221  1.7379  4.1921
19390SOL    HW259387   8.646   1.003   6.235  0.8978 -0.4210 -0.0948
19391SOL     OW59388   8.199   1.098   7.148  0.0854 -0.0380  0.2745
19391SOL    HW159389   8.204   1.062   7.059 -1.6659  0.0232  0.1029
19391SOL    HW259390   8.259   1.045   7.200  0.1392 -0.9393 -0.6868
19392SOL     OW59391   8.363   1.717   5.730  0.8498 -0.2881  0.0995
19392SOL    HW159392   8.325   1.629   5.725  2.7766 -1.1214 -1.4909
19392SOL    HW259393   8.308   1.770   5.673  0.8855 -0.9875 -0.6017
19393SOL     OW59394   7.587   0.436   6.194  0.3666  0.0464  0.5491
19393SOL    HW159395   7.535   0.445   6.113  1.6160 -1.0873 -0.4239
19393SOL    HW259396   7.527   0.396   6.257  0.3539 -2.5849 -0.9762
19394SOL     OW59397   0.108   1.294   5.736 -0.2120  0.2004  0.2926
19394SOL    HW159398   0.178   1.250   5.688 -0.4266 -0.2307  0.3687
19394SOL    HW259399   0.039   1.308   5.671 -0.2162  0.2530  0.3089
19395SOL     OW59400   8.130   0.882   7.340 -0.1904  0.6141 -0.2356
19395SOL    HW159401   8.221   0.913   7.341  0.5863 -1.0379  4.2314
19395SOL    HW259402   8.135   0.791   7.366 -3.0848 -0.4324 -2.7297
19396SOL     OW59403   8.354   1.263   6.085 -0.0871  0.4292  0.2442
19396SOL    HW159404   8.421   1.222   6.031 -1.0501 -0.3328 -0.4319
19396SOL    HW259405   8.348   1.207   6.163 -0.4220  0.0869 -0.0249
19397SOL     OW59406   7.933   0.915   7.152 -0.4179 -0.5837 -0.3137
19397SOL    HW159407   7.988   0.916   7.230  1.0273  1.6939 -1.2508
19397SOL    HW259408   7.933   0.823   7.124  1.1043 -1.0251  0.9892
19398SOL     OW59409   8.371   1.037   6.256  0.1900 -0.2463  0.3809
19398SOL    HW159410   8.460   1.010   6.278  1.1098  0.5000 -2.0073
19398SOL    HW259411   8.335   0.963   6.206  0.2433  0.2259 -0.3793
19399SOL     OW59412   8.487   0.176   7.029 -0.3661 -0.0157  0.6223
19399SOL    HW159413   8.486   0.144   6.939  1.4289  0.7886  0.2895
19399SOL    HW259414   8.471   0.098   7.082 -1.8009 -0.4428 -0.3577
19400SOL     OW59415   8.397   1.544   6.130 -0.4621 -0.3708 -0.1352
19400SOL    HW159416   8.360   1.465   6.090  0.5446 -0.8089 -0.2249
19400SOL    HW259417   8.330   1.611   6.115 -0.5183 -0.7358 -1.7636
19401SOL     OW59418   7.636   1.271   5.807  0.3291  0.3089 -0.5069
19401SOL    HW159419   7.674   1.195   5.850 -0.5629  0.1195 -0.0374
19401SOL    HW259420   7.709   1.333   5.799  0.6124  0.1987  0.9406
19402SOL     OW59421   7.662   1.041   7.553 -0.2879 -0.2694 -0.1403
19402SOL    HW159422   7.687   1.023   7.643  0.9354 -0.3528 -0.4884
19402SOL    HW259423   7.659   0.954   7.512 -1.5460 -0.3035 -0.0221
19403SOL     OW59424   7.995   0.267   7.133  0.0207 -0.3795  0.2427
19403SOL    HW159425   8.061   0.280   7.065 -1.1990  0.5829 -0.8004
19403SOL    HW259426   7.911   0.281   7.089 -0.8031  0.4820  1.9623
19404SOL     OW59427   7.553   0.241   5.492  0.0013 -0.0250  0.3583
19404SOL    HW159428   7.596   0.160   5.463  2.9501  1.6837 -0.4513
19404SOL    HW259429   7.517   0.279   5.412  1.0911  0.7856  0.2355
19405SOL     OW59430   0.195   0.648   6.737 -0.4716 -0.0657 -0.3489
19405SOL    HW159431   0.134   0.702   6.788 -2.4185  0.2880 -2.8727
19405SOL    HW259432   0.257   0.615   6.802 -2.6540  0.4899  2.2081
19406SOL     OW59433   6.828   0.128   5.428 -0.1898  0.0005  0.7009
19406SOL    HW159434   6.883   0.187   5.479  0.3750  0.0482  0.0502
19406SOL    HW259435   6.887   0.059   5.398 -0.2936  0.4752 -0.6600
19407SOL     OW59436   0.010   1.077   5.534 -0.7181  0.0938  0.1393
19407SOL    HW159437   0.103   1.079   5.558 -0.6361  0.2315 -0.1807
19407SOL    HW259438  -0.020   0.990   5.560 -0.6795  0.3055  0.9053
19408SOL     OW59439   7.928   0.496   6.776  0.0125 -0.1903  0.0188
19408SOL    HW159440   7.858   0.496   6.842  0.1192  1.0681  0.1542
19408SOL    HW259441   7.938   0.404   6.752 -1.0874 -0.4922  0.6387
19409SOL     OW59442   8.440   1.000   7.736 -0.0025 -0.0885 -0.2764
19409SOL    HW159443   8.385   1.049   7.675 -0.2324 -0.0209 -0.0193
19409SOL    HW259444   8.429   1.045   7.820 -2.9583 -2.5189  0.8195
19410SOL     OW59445   8.710   0.813   7.194  0.0385 -0.0119 -1.0837
19410SOL    HW159446   8.760   0.732   7.188  0.4322  0.2018 -0.7258
19410SOL    HW259447   8.712   0.849   7.106  0.2715 -0.1464 -1.1351
19411SOL     OW59448   7.741   1.844   7.413 -0.5421  0.1280 -0.3754
19411SOL    HW159449   7.781   1.926   7.385 -0.6561 -0.1647 -1.4214
19411SOL    HW259450   7.712   1.861   7.503  0.0029  1.0211 -0.3588
19412SOL     OW59451   8.553   8.742   5.849 -0.6690  0.3601 -0.3797
19412SOL    HW159452   8.526   8.782   5.931  3.2197  1.7296  0.4669
19412SOL    HW259453   8.523   8.802   5.781 -1.2147  0.8481  0.2881
19413SOL     OW59454   8.059   0.737   5.777  0.0442 -0.3926 -0.2907
19413SOL    HW159455   8.083   0.709   5.865  1.0923  1.0441 -0.0744
19413SOL    HW259456   8.005   0.816   5.791 -1.9886 -1.5958 -0.8920
19414SOL     OW59457   8.469   1.509   5.455  0.1640 -0.0918  0.2600
19414SOL    HW159458   8.438   1.459   5.530 -0.9508  2.2023  1.4394
19414SOL    HW259459   8.558   1.536   5.478  1.7133 -3.2995 -1.3857
19415SOL     OW59460   8.004   1.459   6.600  0.2011  0.4586 -0.4196
19415SOL    HW159461   8.071   1.442   6.533  0.8349  0.6584  0.1581
19415SOL    HW259462   8.004   1.554   6.611  0.2171  0.4146 -0.0194
19416SOL     OW59463   8.456   0.688   6.400  0.7047  0.7119 -0.1812
19416SOL    HW159464   8.473   0.765   6.454 -0.2930  2.1228 -1.7680
19416SOL    HW259465   8.367   0.662   6.424  0.4090  1.1021 -0.8225
19417SOL     OW59466   8.490   1.165   5.840  0.1105 -0.6025  0.3483
19417SOL    HW159467   8.554   1.093   5.840  0.5557 -0.2485 -1.2454
19417SOL    HW259468   8.492   1.199   5.750 -0.0933  1.4027  1.0450
19418SOL     OW59469   7.968   1.144   7.471  0.3406  0.1102  0.0868
19418SOL    HW159470   8.030   1.204   7.429  0.1371  0.5605  0.4069
19418SOL    HW259471   8.012   1.060   7.472  0.3249  0.0790 -1.0680
19419SOL     OW59472   7.782   1.230   6.179  0.2336 -0.2500  0.1979
19419SOL    HW159473   7.698   1.259   6.143  0.1700 -0.5970  0.0650
19419SOL    HW259474   7.779   1.134   6.174  0.0195 -0.3345  1.6049
19420SOL     OW59475   7.954   1.528   7.081 -0.0819  0.1006  0.8922
19420SOL    HW159476   7.944   1.621   7.099  0.5459  0.2112  0.7067
19420SOL    HW259477   8.036   1.504   7.125  0.1143 -0.2100  0.3710
19421SOL     OW59478   7.783   0.252   6.084  0.4288 -0.0579  0.1265
19421SOL    HW159479   7.733   0.328   6.114 -0.7113 -0.5949 -0.3686
19421SOL    HW259480   7.769   0.249   5.989  0.0299 -1.1733  0.2027
19422SOL     OW59481   7.783   0.296   6.604 -0.5907 -0.1788  0.3520
19422SOL    HW159482   7.727   0.322   6.678  0.1113 -0.1274  0.8787
19422SOL    HW259483   7.743   0.216   6.571 -1.1504  0.0217  0.5230
19423SOL     OW59484   8.704   1.364   6.033 -0.0487  0.0305  0.2409
19423SOL    HW159485   8.654   1.394   5.957 -0.5231 -0.3165  0.4168
19423SOL    HW259486   8.794   1.391   6.013 -0.2330  0.3092 -0.2537
19424SOL     OW59487   8.552   0.243   6.725 -0.1606 -0.1956 -0.2238
19424SOL    HW159488   8.495   0.168   6.741 -1.0174  0.9492  2.9403
19424SOL    HW259489   8.517   0.284   6.646 -0.6133 -2.2134 -1.1356
19425SOL     OW59490   8.098   8.732   7.047  0.7389  0.1348 -0.3790
19425SOL    HW159491   8.058   8.665   7.103 -0.0521  0.8299 -0.0958
19425SOL    HW259492   8.148   8.787   7.107  0.2400  0.6261 -0.4008
19426SOL     OW59493   8.746   1.037   5.830  0.3985  0.3267 -1.0615
19426SOL    HW159494   8.831   1.082   5.830  0.8082 -0.4196 -0.5979
19426SOL    HW259495   8.763   0.955   5.783  0.0772 -0.0691 -0.4971
19427SOL     OW59496   7.934   1.954   7.020 -0.1120 -0.0864  0.4125
19427SOL    HW159497   7.970   2.025   6.968  0.3609 -0.8877 -0.3748
19427SOL    HW259498   8.003   1.887   7.021 -0.9614 -0.9927  0.2041
19428SOL     OW59499   8.096   0.966   6.042  1.0998  0.0532 -0.4535
19428SOL    HW159500   8.134   0.909   6.109  0.2899  1.0664  0.9184
19428SOL    HW259501   8.168   0.983   5.982  1.1192 -3.1956 -1.5219
19429SOL     OW59502   8.440   1.871   6.282  0.3977  0.3346  0.5062
19429SOL    HW159503   8.508   1.835   6.225  1.7391  1.7718  1.1500
19429SOL    HW259504   8.380   1.797   6.296  0.5774 -0.3742 -1.8621
19430SOL     OW59505   7.475   0.742   7.232  0.3814  0.0925 -1.0705
19430SOL    HW159506   7.449   0.660   7.274  3.3787  0.2336  1.4198
19430SOL    HW259507   7.512   0.716   7.148 -0.8091 -0.7999 -1.3520
19431SOL     OW59508   7.891   0.025   8.458  0.2059  0.0072 -0.1835
19431SOL    HW159509   7.841   0.107   8.465 -1.1967 -0.6828 -1.5512
19431SOL    HW259510   7.857  -0.030   8.528 -0.0038  0.0259 -0.2697
19432SOL     OW59511   7.534   0.398   8.023 -0.6346  0.3277 -0.5167
19432SOL    HW159512   7.558   0.395   8.115  1.5887 -1.2706 -1.0858
19432SOL    HW259513   7.447   0.439   8.023 -0.3658  1.1079  2.1807
19433SOL     OW59514   7.864   0.925   8.512 -0.2598 -0.5784  0.1238
19433SOL    HW159515   7.852   0.885   8.426  1.3058 -0.5905 -0.1051
19433SOL    HW259516   7.803   0.877   8.569 -0.9396 -0.9136 -0.8530
19434SOL     OW59517   0.104   1.278   8.492 -0.2759  0.1088  0.1596
19434SOL    HW159518   0.159   1.336   8.440  0.3691 -0.1618  0.5322
19434SOL    HW259519   0.130   1.189   8.466  0.5105 -0.0452  1.3830
19435SOL     OW59520   8.633   0.826   8.337  0.4218 -0.0017  0.2620
19435SOL    HW159521   8.577   0.881   8.392  2.0682  0.4743  1.5642
19435SOL    HW259522   8.582   0.746   8.324  0.2625 -0.5213  3.2866
19436SOL     OW59523   8.185   1.117   8.694 -0.1695 -0.3179  1.2267
19436SOL    HW159524   8.260   1.144   8.747 -0.3779  0.8838  0.9553
19436SOL    HW259525   8.111   1.165   8.731 -0.0799  1.6856 -0.9546
19437SOL     OW59526   8.141   1.209   8.308  0.5694  0.3636  0.2348
19437SOL    HW159527   8.129   1.279   8.371 -0.0506  0.9421 -0.5032
19437SOL    HW259528   8.146   1.129   8.361 -0.4942  0.7757  0.9973
19438SOL     OW59529   7.327   1.371   8.795 -0.4958 -0.3817 -0.1937
19438SOL    HW159530   7.319   1.302   8.730  2.1424  1.6433 -2.9881
19438SOL    HW259531   7.412   1.355   8.836 -1.1004 -0.3250  1.1096
19439SOL     OW59532   7.467   0.351   0.311  0.0535  0.1126  0.2731
19439SOL    HW159533   7.491   0.304   0.231  2.2475  2.5231 -0.6605
19439SOL    HW259534   7.536   0.328   0.373  1.4125  2.2268 -0.3386
19440SOL     OW59535   7.354   2.098   8.115  0.2946 -0.4449 -0.0954
19440SOL    HW159536   7.386   2.111   8.025 -1.4777  0.5316 -0.6379
19440SOL    HW259537   7.430   2.114   8.170  0.9136  1.1547 -1.3304
19441SOL     OW59538   7.770   1.558   7.987  0.1097 -0.4208  1.0686
19441SOL    HW159539   7.759   1.463   7.994 -2.4659 -0.3087 -0.4184
19441SOL    HW259540   7.819   1.571   7.906 -1.0303 -0.4738  0.3435
19442SOL     OW59541   7.803   0.787   8.297  0.1644  0.0953 -0.4051
19442SOL    HW159542   7.739   0.801   8.227 -0.4526  2.3445  0.4938
19442SOL    HW259543   7.770   0.712   8.345 -2.3269  1.6194  0.4760
19443SOL     OW59544   7.529   2.015   8.440  0.3863 -0.3505  0.2880
19443SOL    HW159545   7.618   1.986   8.457  0.7914  0.6658 -0.0030
19443SOL    HW259546   7.475   1.939   8.458  1.1268 -0.4487  2.4011
19444SOL     OW59547   8.068   1.183   7.733  0.3358 -0.3485 -0.0385
19444SOL    HW159548   8.151   1.186   7.686 -0.2730 -0.8963 -1.2011
19444SOL    HW259549   8.001   1.194   7.665 -0.5315  1.0118  0.9900
19445SOL     OW59550   7.523   0.593   7.711 -0.0094 -0.2753  0.3169
19445SOL    HW159551   7.491   0.503   7.701 -0.6277 -0.1430  1.0670
19445SOL    HW259552   7.614   0.582   7.738 -0.6612 -0.7489  2.5407
19446SOL     OW59553   7.671   1.290   7.991 -0.1053 -0.7880  0.0259
19446SOL    HW159554   7.735   1.221   8.009 -0.4000 -0.7901  1.1538
19446SOL    HW259555   7.588   1.254   8.022 -0.5845 -0.6174 -1.0290
19447SOL     OW59556   0.639   0.724   8.159  0.2340 -0.9318  0.3259
19447SOL    HW159557   0.573   0.789   8.181 -1.4059 -1.6305 -2.2025
19447SOL    HW259558   0.691   0.766   8.090  0.4998 -1.5246  0.1653
19448SOL     OW59559   7.747   1.339   8.314  0.1914  0.3956 -0.3270
19448SOL    HW159560   7.684   1.303   8.377 -1.2453  1.2108 -1.2543
19448SOL    HW259561   7.761   1.268   8.252 -1.7163  0.9495 -1.4735
19449SOL     OW59562   8.224   0.069   8.052  0.2664 -0.3692  0.4189
19449SOL    HW159563   8.217   0.076   7.957  1.8430 -0.9590  0.2389
19449SOL    HW259564   8.149   0.119   8.085  0.0416  0.3531 -1.1115
19450SOL     OW59565   7.702   0.751   8.652 -0.0661  0.2598 -0.0175
19450SOL    HW159566   7.716   0.674   8.706  0.4439  0.7925  0.6298
19450SOL    HW259567   7.616   0.784   8.677 -0.2278 -0.0192 -0.2016
19451SOL     OW59568   8.408   0.678   8.156 -0.0843  0.3757 -0.2938
19451SOL    HW159569   8.341   0.625   8.113 -0.2060 -1.2785  1.7995
19451SOL    HW259570   8.385   0.768   8.134  0.2205 -0.3203 -4.1086
19452SOL     OW59571   8.570   0.353   8.712 -0.5244 -0.2957  0.3183
19452SOL    HW159572   8.650   0.321   8.669 -0.0647 -0.3067  1.1652
19452SOL    HW259573   8.593   0.360   8.805 -1.5535 -0.4303  0.6000
19453SOL     OW59574   7.985   0.427   0.239 -0.8360 -0.2464 -0.1210
19453SOL    HW159575   7.994   0.507   0.187  1.2314 -0.7296 -0.6015
19453SOL    HW259576   7.941   0.455   0.319  0.6917  1.6022  0.1486
19454SOL     OW59577   8.692   0.869   8.068  0.2360 -0.3478  0.4265
19454SOL    HW159578   8.645   0.881   8.151  0.1934 -2.4699  0.7492
19454SOL    HW259579   8.659   0.787   8.032  1.8418 -0.6030 -0.6033
19455SOL     OW59580   7.897   0.729   7.985  0.1819  0.0052  0.0574
19455SOL    HW159581   7.916   0.817   7.952  0.7135 -0.8169 -1.9461
19455SOL    HW259582   7.901   0.738   8.081  2.9291  1.6018 -0.1031
19456SOL     OW59583   7.503   2.015   8.769  0.6277 -0.0460 -0.1900
19456SOL    HW159584   7.469   2.062   8.845  0.9045 -2.1209  1.3179
19456SOL    HW259585   7.425   1.997   8.715  0.1417 -0.1245  0.5267
19457SOL     OW59586   8.674   0.524   7.547 -0.5056  0.2284 -0.0417
19457SOL    HW159587   8.630   0.490   7.624  2.0046 -2.4469  0.3886
19457SOL    HW259588   8.628   0.484   7.473 -1.2477  0.6620  0.1763
19458SOL     OW59589   0.077   1.044   8.353  0.4144  0.6339 -0.0421
19458SOL    HW159590  -0.001   1.073   8.305 -1.1329 -0.5206  1.6106
19458SOL    HW259591   0.110   0.969   8.303 -0.0105  0.6447 -0.3435
19459SOL     OW59592   8.230   8.667   8.412  0.3047  0.2818  0.0544
19459SOL    HW159593   8.166   8.664   8.342 -0.3588  0.4764  0.6333
19459SOL    HW259594   8.184   8.710   8.484  0.8980 -0.0994  0.6760
19460SOL     OW59595   8.442   1.237   8.355  0.5153 -0.1869  1.0057
19460SOL    HW159596   8.373   1.279   8.304  0.8073  0.3251  1.0232
19460SOL    HW259597   8.467   1.302   8.421 -0.9858 -1.4387  2.9039
19461SOL     OW59598   8.041   1.439   8.169 -0.3775  0.2217 -0.5439
19461SOL    HW159599   8.070   1.351   8.193 -1.2664  0.1236  0.1947
19461SOL    HW259600   7.959   1.452   8.217 -0.4726  1.2951 -0.9669
19462SOL     OW59601   7.666   0.968   7.814 -0.7071 -0.3591  0.0453
19462SOL    HW159602   7.759   0.964   7.836 -0.1236 -1.4046 -2.3110
19462SOL    HW259603   7.633   0.880   7.830 -0.5143 -0.8520 -2.0314
19463SOL     OW59604   8.340   1.770   7.511 -0.2862  0.0389  0.3834
19463SOL    HW159605   8.353   1.853   7.556 -1.6158  0.7804 -0.4975
19463SOL    HW259606   8.418   1.760   7.457 -0.9208  1.7479 -0.9703
19464SOL     OW59607   7.938   1.968   8.051  0.2467  0.3251 -0.0477
19464SOL    HW159608   7.979   1.893   8.095  1.0388  0.3232 -0.7583
19464SOL    HW259609   7.973   1.965   7.961 -1.5834  0.1261 -0.7869
19465SOL     OW59610   7.466   1.647   8.650  0.4174 -0.6128  0.0124
19465SOL    HW159611   7.414   1.628   8.729 -0.1509  1.8967  0.3205
19465SOL    HW259612   7.414   1.711   8.602  2.6459  1.1015 -0.2679
19466SOL     OW59613   8.248   1.838   8.692  0.9360  0.6099  0.4702
19466SOL    HW159614   8.168   1.827   8.743  1.1211 -0.5431  0.5365
19466SOL    HW259615   8.271   1.930   8.703 -0.3033  0.9257  0.5533
19467SOL     OW59616   8.324   0.572   7.880  0.0351  1.0318 -0.3455
19467SOL    HW159617   8.234   0.588   7.907  0.0660  2.2628 -0.9349
19467SOL    HW259618   8.338   0.628   7.804  1.0469  0.2350 -0.7830
19468SOL     OW59619   7.696   0.227   7.374 -0.6462  0.3861  1.2957
19468SOL    HW159620   7.757   0.280   7.425  0.4636  0.3648  0.0336
19468SOL    HW259621   7.738   0.141   7.367 -0.7717  0.3892  0.3543
19469SOL     OW59622   8.049   1.817   8.367  0.0271  0.3345  0.1866
19469SOL    HW159623   7.985   1.746   8.357 -0.9802  1.2031  0.3114
19469SOL    HW259624   8.133   1.772   8.372 -0.7302 -1.0298  2.2284
19470SOL     OW59625   8.439   1.485   8.516 -0.1480  0.2668  0.0336
19470SOL    HW159626   8.454   1.520   8.603 -0.9149 -0.0331  0.2991
19470SOL    HW259627   8.482   1.546   8.457  2.1037 -0.5665  0.7079
19471SOL     OW59628   8.267   0.458   8.446  0.3371  0.0771  0.2119
19471SOL    HW159629   8.224   0.421   8.370  1.0656 -0.3788  0.0110
19471SOL    HW259630   8.359   0.433   8.436  0.7928  1.6554  0.2398
19472SOL     OW59631   7.915   0.031   8.076  0.0679  0.0250 -0.5993
19472SOL    HW159632   7.911   0.089   8.152  1.1675 -1.4014  0.5857
19472SOL    HW259633   7.823   0.018   8.052 -0.3480 -0.2324  1.0520
19473SOL     OW59634   0.248   1.013   7.946  0.0356 -0.5741 -0.1967
19473SOL    HW159635   0.200   0.943   7.990 -1.5892 -0.0092 -1.0096
19473SOL    HW259636   0.340   0.991   7.960 -0.4348 -2.3725  0.3467
19474SOL     OW59637   7.685   8.684   8.139 -0.2202  0.3178 -0.1038
19474SOL    HW159638   7.661   8.676   8.232 -3.0425  1.1650 -0.6887
19474SOL    HW259639   7.693   8.593   8.109 -1.4271 -0.0046  0.4893
19475SOL     OW59640   8.780   0.459   7.896 -0.2178  0.3048 -0.7099
19475SOL    HW159641   8.864   0.493   7.865 -0.5157 -0.1618 -2.0984
19475SOL    HW259642   8.803   0.405   7.971  0.7692  0.0022 -1.2014
19476SOL     OW59643   8.501   1.571   8.025 -0.1294 -0.0185  0.6207
19476SOL    HW159644   8.499   1.666   8.032 -0.1037 -0.0943  1.9574
19476SOL    HW259645   8.478   1.553   7.934  0.7685  1.2881  0.1142
19477SOL     OW59646   8.122   0.728   8.354  0.3978 -0.3084  0.6697
19477SOL    HW159647   8.134   0.810   8.402  1.2961 -0.4597  0.7191
19477SOL    HW259648   8.184   0.733   8.282  1.3859 -1.4902  1.4016
19478SOL     OW59649   8.516   1.842   8.046  0.2006 -0.6347 -0.4594
19478SOL    HW159650   8.450   1.882   8.103  1.7504  1.3725  0.0290
19478SOL    HW259651   8.523   1.901   7.972  0.6696 -1.4149 -1.0525
19479SOL     OW59652   8.570   0.388   7.325 -0.3487  0.4351 -0.2229
19479SOL    HW159653   8.579   0.408   7.232 -2.0133  1.4495 -0.2122
19479SOL    HW259654   8.478   0.361   7.335  0.3487 -1.8355  0.7733
19480SOL     OW59655   7.669   0.213   8.727 -0.0103 -0.6411  0.8151
19480SOL    HW159656   7.641   0.159   8.653  1.6476 -0.2437 -0.1573
19480SOL    HW259657   7.754   0.177   8.752  1.3566  1.6793 -0.1260
19481SOL     OW59658   8.151   0.477   8.135 -0.4266 -0.0484 -0.0530
19481SOL    HW159659   8.091   0.434   8.074 -0.0209 -0.5310 -0.1214
19481SOL    HW259660   8.098   0.497   8.212 -1.1536  1.3304 -0.8833
19482SOL     OW59661   8.392   0.113   8.314  0.3825  0.7659 -0.6911
19482SOL    HW159662   8.382   0.203   8.282 -2.4014  0.8679  0.2023
19482SOL    HW259663   8.325   0.064   8.266 -0.2059 -0.1565  1.0051
19483SOL     OW59664   8.154   1.475   7.753  0.1828  0.2029 -0.3497
19483SOL    HW159665   8.136   1.384   7.777 -0.3527  0.2392 -0.5963
19483SOL    HW259666   8.130   1.480   7.660 -2.1758  1.1987  0.2480
19484SOL     OW59667   0.076   0.676   7.595  0.1255 -0.8041 -0.2502
19484SOL    HW159668  -0.018   0.661   7.591  0.0998 -0.9371  0.7097
19484SOL    HW259669   0.101   0.652   7.684  1.0584 -0.7144 -0.4769
19485SOL     OW59670   7.919   0.372   7.423  0.0793 -0.1908  0.1629
19485SOL    HW159671   7.974   0.445   7.452 -0.7703  0.4593  0.1864
19485SOL    HW259672   7.959   0.344   7.340 -0.7021  1.6051 -0.8741
19486SOL     OW59673   8.370   1.183   0.101 -0.4131  0.0989  0.4282
19486SOL    HW159674   8.450   1.207   0.055 -0.4038 -0.5300  0.1024
19486SOL    HW259675   8.391   1.100   0.143 -0.5519  0.4700  1.2451
19487SOL     OW59676   8.278   0.924   8.089  0.3744 -0.5075  0.0033
19487SOL    HW159677   8.265   0.949   8.180  3.0841  0.1219  0.3116
19487SOL    HW259678   8.323   1.000   8.050  1.0149 -1.5243 -1.3256
19488SOL     OW59679   7.697   0.472   8.741 -0.3224  0.6940 -0.1948
19488SOL    HW159680   7.689   0.474   8.836  0.7919  0.3214 -0.0767
19488SOL    HW259681   7.689   0.379   8.718 -0.5356  0.7770 -0.4636
19489SOL     OW59682   8.309   0.317   8.767  0.5085  0.3281 -0.7974
19489SOL    HW159683   8.295   0.234   8.722  1.1277  0.5637 -1.4329
19489SOL    HW259684   8.402   0.337   8.754  0.2640  1.3622 -1.0833
19490SOL     OW59685   7.150   1.285   0.160 -0.6330  0.2741  0.1008
19490SOL    HW159686   7.240   1.287   0.193 -1.2811 -0.4739  2.0504
19490SOL    HW259687   7.147   1.355   0.095  1.4095  0.1545 -0.1854
19491SOL     OW59688   7.345   1.002   7.550 -0.1958  0.2011 -0.3980
19491SOL    HW159689   7.377   1.061   7.619  0.9437  0.1282 -0.8334
19491SOL    HW259690   7.414   1.005   7.483  1.3177 -3.6844  0.7130
19492SOL     OW59691   7.778   0.253   8.296  0.2693 -0.4612 -0.2891
19492SOL    HW159692   7.686   0.278   8.307  0.3391  0.4109 -1.4471
19492SOL    HW259693   7.827   0.330   8.324  0.6466 -0.8088  0.0184
19493SOL     OW59694   8.750   1.997   7.593 -0.0418 -0.0439 -0.8145
19493SOL    HW159695   8.748   2.075   7.537  0.9951 -0.2717 -1.1935
19493SOL    HW259696   8.659   1.981   7.615 -0.1414  2.8477  1.5116
19494SOL     OW59697   8.548   1.704   8.379 -0.1742 -0.2682 -0.2669
19494SOL    HW159698   8.474   1.750   8.339 -0.8970 -1.4412 -0.3297
19494SOL    HW259699   8.571   1.758   8.455 -1.2199  0.0372 -0.1428
19495SOL     OW59700   7.335   1.004   8.831  0.8816 -0.2058 -0.5945
19495SOL    HW159701   7.421   1.000   8.873  1.1952 -1.0271 -1.2682
19495SOL    HW259702   7.342   1.077   8.770  0.6620  0.5399  0.2627
19496SOL     OW59703   8.024   0.713   8.704 -0.3195  0.0033 -0.6109
19496SOL    HW159704   7.947   0.740   8.655 -1.9053 -0.3882  1.5033
19496SOL    HW259705   7.995   0.712   8.795  1.3255 -2.9830  0.0075
19497SOL     OW59706   8.814   0.922   8.563 -0.6484  0.2891  0.6064
19497SOL    HW159707   8.768   0.861   8.505 -1.2446  1.5872 -0.3565
19497SOL    HW259708   8.866   0.975   8.503  1.2944 -0.4409  1.5908
19498SOL     OW59709   8.528   0.462   7.765  0.0823  0.7755  0.1121
19498SOL    HW159710   8.449   0.485   7.815 -0.5879 -0.0256 -0.5569
19498SOL    HW259711   8.600   0.475   7.827 -0.7435 -0.4900  1.4116
19499SOL     OW59712   7.605   0.068   8.492 -0.2802 -0.2383  0.1028
19499SOL    HW159713   7.614  -0.004   8.430 -1.9375  0.1766 -0.7066
19499SOL    HW259714   7.539   0.038   8.555 -3.2122  1.4601 -1.8774
19500SOL     OW59715   7.617   1.448   0.042 -0.4422  0.3865  0.1794
19500SOL    HW159716   7.700   1.485   0.011 -0.4193 -0.3780 -0.7283
19500SOL    HW259717   7.638   1.357   0.063 -1.0911  0.1309 -0.2496
19501SOL     OW59718   7.417   0.562   8.447  0.2578  0.5023  0.3009
19501SOL    HW159719   7.393   0.470   8.454 -0.1275  0.5675 -0.1488
19501SOL    HW259720   7.349   0.608   8.497 -0.7783  0.7161 -1.2539
19502SOL     OW59721   7.941   8.654   8.278 -0.6379  0.0694  0.8745
19502SOL    HW159722   7.923   8.734   8.328 -1.8189  0.2848  0.1473
19502SOL    HW259723   7.902   8.670   8.193  2.0017  0.0120 -0.4444
19503SOL     OW59724   0.166   0.486   7.783  0.7749  0.1240 -0.1799
19503SOL    HW159725   0.227   0.522   7.848 -0.2070  1.4744  0.0216
19503SOL    HW259726   0.223   0.451   7.714  1.8101 -0.4843  0.9518
19504SOL     OW59727   8.541   0.438   8.384  0.3181 -0.1239  0.4744
19504SOL    HW159728   8.626   0.464   8.348 -0.2533  0.6863 -0.3428
19504SOL    HW259729   8.562   0.385   8.461  1.5831 -1.2656 -0.6149
19505SOL     OW59730   8.542   0.764   7.462 -0.3784 -0.2001  0.0092
19505SOL    HW159731   8.601   0.698   7.498 -1.5741 -1.1563  0.2718
19505SOL    HW259732   8.579   0.784   7.376 -0.4154 -1.7961 -0.4050
19506SOL     OW59733   8.694   1.519   8.217 -0.5655  0.1595  0.0337
19506SOL    HW159734   8.630   1.517   8.146 -1.5737 -2.4356  0.9130
19506SOL    HW259735   8.654   1.574   8.284  0.5644  2.9643 -1.4014
19507SOL     OW59736   7.711   0.558   8.445 -0.2437  0.6080 -0.0700
19507SOL    HW159737   7.727   0.535   8.536 -1.1674 -0.2398 -0.0949
19507SOL    HW259738   7.615   0.558   8.437 -0.1753  0.6969 -1.0231
19508SOL     OW59739   7.500   0.302   8.347 -0.3999  0.7526 -0.2369
19508SOL    HW159740   7.430   0.277   8.287 -0.5048  3.0961 -1.2218
19508SOL    HW259741   7.504   0.231   8.411 -0.9837 -1.3727 -2.4013
19509SOL     OW59742   8.427   0.086   0.022  0.0198  0.3602 -0.1313
19509SOL    HW159743   8.386   0.010   0.064  2.5981 -1.8666 -1.3759
19509SOL    HW259744   8.461   0.138   0.095 -1.6063  0.2644  0.7331
19510SOL     OW59745   7.727   1.370   7.605 -0.2892 -0.0451  0.0138
19510SOL    HW159746   7.675   1.449   7.591 -2.7306 -1.2748  1.4957
19510SOL    HW259747   7.771   1.385   7.689  0.3952  0.2666 -0.3866
19511SOL     OW59748   7.523   1.577   8.252  0.1757 -0.1968  0.0170
19511SOL    HW159749   7.600   1.532   8.288  0.6877  0.0862 -0.7146
19511SOL    HW259750   7.559   1.657   8.213 -0.6218  0.4520  0.5761
19512SOL     OW59751   7.915   1.133   8.092 -0.8018 -0.9164  1.2978
19512SOL    HW159752   8.005   1.163   8.099 -1.0006  0.1355 -0.2689
19512SOL    HW259753   7.915   1.072   8.019 -1.7575  0.8949 -0.2903
19513SOL     OW59754   8.362   0.680   8.662  0.2593  0.2360  0.3294
19513SOL    HW159755   8.340   0.749   8.600 -0.4507 -0.9378 -0.7830
19513SOL    HW259756   8.442   0.710   8.704  1.4139  0.5811 -1.9642
19514SOL     OW59757   7.175   8.711   8.424 -0.8312  0.0556 -0.3076
19514SOL    HW159758   7.134   8.681   8.505 -1.0251 -1.3149 -0.8868
19514SOL    HW259759   7.265   8.680   8.430 -0.6040  0.7291 -0.2244
19515SOL     OW59760   8.662   0.583   8.148 -0.5601  0.3687  0.6884
19515SOL    HW159761   8.675   0.553   8.057  0.1300 -0.2670  0.9827
19515SOL    HW259762   8.568   0.598   8.155 -0.6701  0.0715 -0.0314
19516SOL     OW59763   7.989   0.389   8.758  0.0823  0.1698 -0.2087
19516SOL    HW159764   7.909   0.441   8.747  0.4544  0.7188 -0.3841
19516SOL    HW259765   7.958   0.301   8.779 -0.5769  0.2426 -0.8472
19517SOL     OW59766   8.334   1.606   0.218 -0.2066 -0.2813 -0.1712
19517SOL    HW159767   8.416   1.635   0.177 -0.1584  0.2813  0.2963
19517SOL    HW259768   8.306   1.682   0.269 -2.2571  0.3983 -2.1735
19518SOL     OW59769   7.471   0.316   7.611  0.2308 -0.6780  0.5283
19518SOL    HW159770   7.504   0.237   7.654 -1.0758 -0.5953  1.7481
19518SOL    HW259771   7.417   0.283   7.539  1.0679 -0.8389 -0.0486
19519SOL     OW59772   7.302   1.130   8.592 -0.2633  0.2407  0.1542
19519SOL    HW159773   7.284   1.189   8.519  0.3427 -1.1301 -1.1500
19519SOL    HW259774   7.270   1.045   8.563 -0.9151 -0.1635  1.8985
19520SOL     OW59775   8.777   1.061   0.038 -0.0708  0.0253  0.3701
19520SOL    HW159776   8.867   1.093   0.043 -0.7819  2.5883 -1.1896
19520SOL    HW259777   8.725   1.140   0.022 -2.5678 -1.4247  0.8897
19521SOL     OW59778   0.100   1.026   7.661 -0.1385  0.2676 -0.1679
19521SOL    HW159779   0.161   1.011   7.733 -0.3073 -0.9463 -0.2482
19521SOL    HW259780   0.106   0.947   7.608 -0.7687  0.7159 -0.9240
19522SOL     OW59781   8.085   2.030   8.538 -0.1399  0.4555  0.9740
19522SOL    HW159782   8.062   1.978   8.461  1.4788 -0.2715  0.9425
19522SOL    HW259783   8.049   1.982   8.612 -0.9154  0.6784  0.7430
19523SOL     OW59784   7.289   1.243   8.075 -0.2344 -0.1601  0.0368
19523SOL    HW159785   7.347   1.168   8.061 -0.9177 -0.4938 -1.1808
19523SOL    HW259786   7.209   1.222   8.026 -1.3150  0.3913  1.4691
19524SOL     OW59787   0.259   1.500   8.384 -0.1837  0.0138  0.8856
19524SOL    HW159788   0.199   1.573   8.370 -0.1115  0.1614  1.3116
19524SOL    HW259789   0.319   1.504   8.310  0.1520  0.7299  1.1828
19525SOL     OW59790   8.474   0.981   8.486 -0.0130 -0.0938  0.4086
19525SOL    HW159791   8.492   1.005   8.576  1.9218 -0.0011  0.0324
19525SOL    HW259792   8.466   1.064   8.439  1.0091 -0.1383  0.1397
19526SOL     OW59793   7.873   1.590   7.731 -0.4796 -0.0036 -0.4913
19526SOL    HW159794   7.841   1.633   7.651 -0.3037  1.2601  0.0892
19526SOL    HW259795   7.950   1.541   7.703 -0.1190  0.8457 -1.0072
19527SOL     OW59796   7.817   0.575   7.781 -0.0144  0.3393  0.4144
19527SOL    HW159797   7.830   0.628   7.861 -1.5015 -0.7457  1.4303
19527SOL    HW259798   7.799   0.487   7.814 -1.0848 -0.0408 -1.1015
19528SOL     OW59799   8.541   1.328   7.602 -0.3385  0.1292  0.0598
19528SOL    HW159800   8.625   1.288   7.625 -0.2721  1.3438  2.1655
19528SOL    HW259801   8.555   1.364   7.514  1.2747  0.1161  0.2830
19529SOL     OW59802   8.571   0.807   8.790  0.1020 -0.1856  0.1905
19529SOL    HW159803   8.535   0.813   8.878 -0.9589  0.9333 -0.2924
19529SOL    HW259804   8.633   0.880   8.784 -1.2862  0.9837 -0.5985
19530SOL     OW59805   8.419   1.132   7.979  0.1220 -0.2986  0.4412
19530SOL    HW159806   8.379   1.216   8.002  1.0568  0.1713  0.3957
19530SOL    HW259807   8.513   1.147   7.985  0.3047 -1.4033  0.6234
19531SOL     OW59808   8.111   1.420   8.496  0.1489  0.5153  0.1915
19531SOL    HW159809   8.060   1.376   8.564  1.0856  1.5241  1.6109
19531SOL    HW259810   8.185   1.459   8.543  0.9373  1.0952 -1.4480
19532SOL     OW59811   8.405   0.357   8.156 -0.4805 -0.3363 -0.1929
19532SOL    HW159812   8.333   0.419   8.144 -1.2231 -0.8386  1.3380
19532SOL    HW259813   8.468   0.404   8.211 -0.2525 -0.3521 -0.4400
19533SOL     OW59814   7.950   0.985   7.868 -0.0139  0.2277  0.3359
19533SOL    HW159815   7.986   0.930   7.799 -0.6532  0.2643 -0.0363
19533SOL    HW259816   7.968   1.075   7.840 -1.4256  0.2905 -0.4552
19534SOL     OW59817   7.882   0.669   7.537  0.0560  0.1864  0.3986
19534SOL    HW159818   7.808   0.722   7.509 -1.5481 -2.4169 -0.7040
19534SOL    HW259819   7.846   0.609   7.602  1.4191 -0.5408  0.5313
19535SOL     OW59820   7.641   0.362   7.147  0.0976 -0.7963 -0.4274
19535SOL    HW159821   7.555   0.402   7.164  0.2480  0.1355 -1.7178
19535SOL    HW259822   7.669   0.330   7.232  0.8792  3.6706  1.2788
19536SOL     OW59823   8.037   8.680   7.873  0.4679 -0.3342 -0.2768
19536SOL    HW159824   8.023   8.707   7.964 -1.2398  0.1277 -0.6356
19536SOL    HW259825   8.082   8.754   7.833  0.9178 -0.3983  0.0991
19537SOL     OW59826   8.780   1.224   7.689 -0.3319  0.1626 -0.4309
19537SOL    HW159827   8.858   1.174   7.666  0.6609  1.8372 -0.9151
19537SOL    HW259828   8.761   1.199   7.779  1.9912  1.1509  0.4207
19538SOL     OW59829   7.865   0.692   0.085  0.1821  0.0127 -0.1414
19538SOL    HW159830   7.781   0.662   0.122  0.5518  0.0430  0.7639
19538SOL    HW259831   7.886   0.771   0.136  2.2416 -1.6573  1.8386
19539SOL     OW59832   7.824   1.528   8.763 -0.0420 -0.2018  0.0326
19539SOL    HW159833   7.822   1.621   8.786  0.5909  0.4468 -2.2523
19539SOL    HW259834   7.771   1.522   8.684  0.3601 -1.6945 -0.1569
19540SOL     OW59835   8.789   0.285   8.102  0.4345  0.1492  0.3958
19540SOL    HW159836   8.766   0.192   8.101 -0.2550  0.2979  1.1264
19540SOL    HW259837   8.817   0.302   8.192  1.4341  0.4506  0.0379
19541SOL     OW59838   7.977   0.506   8.356  0.1690  0.1206  0.1854
19541SOL    HW159839   7.884   0.528   8.369  0.5509  1.9575 -0.0286
19541SOL    HW259840   8.023   0.590   8.359  1.7405 -0.6685 -0.5755
19542SOL     OW59841   8.315   1.205   7.603 -0.1524 -0.4889  0.4040
19542SOL    HW159842   8.291   1.212   7.510 -1.6059 -0.8913  0.7253
19542SOL    HW259843   8.404   1.239   7.607 -0.5106  0.7233 -0.9525
19543SOL     OW59844   8.225   1.615   8.294 -0.3188 -0.7328  0.1385
19543SOL    HW159845   8.149   1.557   8.287 -1.6801  0.4791  3.1604
19543SOL    HW259846   8.278   1.576   8.363  0.1821  0.0860  0.2283
19544SOL     OW59847   8.670   1.222   8.601  0.2673 -0.5636  0.1555
19544SOL    HW159848   8.721   1.279   8.544  1.1126  0.1656  1.5807
19544SOL    HW259849   8.725   1.144   8.613  0.4937 -0.3366  0.6484
19545SOL     OW59850   8.673   1.034   7.388 -0.2369  0.2459  0.0662
19545SOL    HW159851   8.696   0.984   7.310 -1.6588 -0.5755  0.1267
19545SOL    HW259852   8.675   0.970   7.459  0.3271  0.8277  0.5899
19546SOL     OW59853   7.651   1.013   8.214  0.2876  0.0586  0.2261
19546SOL    HW159854   7.734   1.036   8.256 -0.3212  2.8058  0.1078
19546SOL    HW259855   7.594   0.988   8.287  0.8662 -0.6818  0.4306
19547SOL     OW59856   8.098   0.499   7.693 -0.0110  0.2015  0.1692
19547SOL    HW159857   8.082   0.408   7.667  0.6016 -0.2870  1.3879
19547SOL    HW259858   8.018   0.525   7.739  0.2281 -0.1175  0.7877
19548SOL     OW59859   7.343   0.313   8.710 -0.5846 -0.8586 -0.0871
19548SOL    HW159860   7.418   0.259   8.735  0.4884 -0.1570 -1.6353
19548SOL    HW259861   7.358   0.396   8.756  0.9634  0.1500 -2.2610
19549SOL     OW59862   8.077   1.728   8.077  0.2157  0.0482 -0.1782
19549SOL    HW159863   8.065   1.642   8.038  0.7520 -0.1998  0.1938
19549SOL    HW259864   8.166   1.726   8.112  0.8619  1.3098 -1.6129
19550SOL     OW59865   8.814   0.255   8.617  0.0652  0.2044 -0.1055
19550SOL    HW159866   8.848   0.301   8.694  1.8192 -0.6248 -0.3196
19550SOL    HW259867   8.860   0.171   8.617 -1.7322 -0.8400 -0.7030
19551SOL     OW59868   8.087   0.214   8.296 -0.0597  0.9120  0.1426
19551SOL    HW159869   8.035   0.290   8.322 -2.2932 -0.2235 -0.7741
19551SOL    HW259870   8.043   0.140   8.336 -0.0911 -0.2595 -1.9188
19552SOL     OW59871   8.707   1.216   8.244  0.7599  0.1367 -0.0433
19552SOL    HW159872   8.623   1.181   8.275  1.6840 -0.2439  2.2051
19552SOL    HW259873   8.697   1.310   8.252  0.6291  0.0826  0.5406
19553SOL     OW59874   7.593   1.024   0.044 -0.1777  0.3169 -0.7784
19553SOL    HW159875   7.651   0.983   0.108  0.4416  0.3616 -1.2873
19553SOL    HW259876   7.653   1.070  -0.015 -0.8404  1.7084 -0.3906
19554SOL     OW59877   7.641   0.764   7.488  0.0782  0.0443  0.0096
19554SOL    HW159878   7.587   0.753   7.410  0.9235 -0.9617 -0.4602
19554SOL    HW259879   7.594   0.717   7.557  0.4869 -1.1358 -0.4808
19555SOL     OW59880   8.339   1.382   8.106  0.8717 -0.2054 -0.5013
19555SOL    HW159881   8.246   1.407   8.110 -0.0001 -3.0763 -0.4906
19555SOL    HW259882   8.386   1.465   8.094 -1.4138  1.7595  2.5580
19556SOL     OW59883   7.790   3.127   0.197  0.4442  0.2482  0.5116
19556SOL    HW159884   7.797   3.101   0.105  0.1822  3.1613 -0.4565
19556SOL    HW259885   7.881   3.128   0.228  1.0653  2.9842 -1.0094
19557SOL     OW59886   7.301   2.320   1.030  0.2746  0.0455 -0.0399
19557SOL    HW159887   7.341   2.394   0.985 -3.2612  1.3482 -1.3684
19557SOL    HW259888   7.287   2.255   0.961  0.3390 -0.4878  0.4419
19558SOL     OW59889   7.484   2.108   0.811 -0.1024  0.4480  0.8490
19558SOL    HW159890   7.519   2.174   0.871 -0.1416 -1.8192  3.5285
19558SOL    HW259891   7.394   2.093   0.842  0.0182 -1.0979  0.5280
19559SOL     OW59892   8.051   3.154   1.262  0.2093  0.5345  0.0195
19559SOL    HW159893   8.035   3.195   1.177  0.4213 -1.3871 -1.0124
19559SOL    HW259894   7.963   3.139   1.298 -0.0604 -1.1624 -1.1903
19560SOL     OW59895   0.093   3.719   0.570  0.3431  0.0197  0.3122
19560SOL    HW159896   0.003   3.702   0.544 -0.2999 -0.6358  2.7466
19560SOL    HW259897   0.086   3.771   0.649  2.0284 -1.5082  1.5421
19561SOL     OW59898   8.182   3.048   0.879  0.4849 -0.0874 -0.5564
19561SOL    HW159899   8.262   3.057   0.932  1.8516 -0.5768 -2.4340
19561SOL    HW259900   8.170   2.953   0.870  1.6134 -0.0815 -2.9279
19562SOL     OW59901   7.815   2.781   1.113  0.4703 -0.0101  0.5102
19562SOL    HW159902   7.908   2.798   1.096  0.3739  0.1440  0.1392
19562SOL    HW259903   7.770   2.858   1.080  0.2487  0.1628  1.1932
19563SOL     OW59904   8.414   2.922   2.273 -0.0973  0.0223 -0.0054
19563SOL    HW159905   8.422   2.971   2.355 -0.8865  3.2320 -1.6465
19563SOL    HW259906   8.490   2.863   2.272 -0.7186 -1.0495  3.4864
19564SOL     OW59907   8.105   2.763   0.820  0.0111 -0.4417 -0.2932
19564SOL    HW159908   8.151   2.679   0.821  1.6947  0.4326 -0.7721
19564SOL    HW259909   8.022   2.744   0.775  1.0954 -1.5065 -1.9403
19565SOL     OW59910   8.033   3.103   2.103  0.7165  0.2433  0.7627
19565SOL    HW159911   7.940   3.118   2.120  0.3875 -0.6673 -0.1346
19565SOL    HW259912   8.052   3.155   2.026  0.3927 -1.2205 -0.3512
19566SOL     OW59913   8.157   3.524   1.446 -0.5436  0.1603 -0.7774
19566SOL    HW159914   8.105   3.592   1.404  1.4245  1.4511 -1.2437
19566SOL    HW259915   8.213   3.490   1.377  0.9464  0.5258  0.2057
19567SOL     OW59916   7.851   1.969   1.473 -0.0661 -0.5430  0.2805
19567SOL    HW159917   7.756   1.981   1.475  0.1865  2.1827 -0.1818
19567SOL    HW259918   7.879   1.988   1.563  0.2100  1.1092 -0.1184
19568SOL     OW59919   7.499   3.958   0.425 -0.0865  0.2992 -0.3002
19568SOL    HW159920   7.590   3.929   0.431 -0.0525  0.1523 -1.2868
19568SOL    HW259921   7.496   4.038   0.478  0.1459 -0.7106  1.3003
19569SOL     OW59922   8.530   3.025   1.365  0.2057 -0.2094  0.5098
19569SOL    HW159923   8.511   2.945   1.316  0.4764 -1.4827  2.3927
19569SOL    HW259924   8.609   3.060   1.324 -0.4871 -0.3057 -0.9934
19570SOL     OW59925   7.759   3.614   0.633  0.2443  0.2310  0.1718
19570SOL    HW159926   7.787   3.656   0.715  0.1959  0.9889 -0.1910
19570SOL    HW259927   7.782   3.677   0.565 -0.3884 -0.0748 -0.3319
19571SOL     OW59928   7.704   2.988   0.670  0.0491 -0.3875 -0.2877
19571SOL    HW159929   7.679   3.026   0.585  1.3284  0.8894 -0.1429
19571SOL    HW259930   7.686   3.058   0.733 -0.3024 -1.1043  0.4197
19572SOL     OW59931   7.980   3.791   1.400 -0.1496  0.2869 -0.2166
19572SOL    HW159932   7.889   3.817   1.408 -0.4129 -0.5868 -0.2318
19572SOL    HW259933   8.015   3.847   1.331 -0.0964  2.0658  1.1632
19573SOL     OW59934   8.046   3.098   0.352  0.1275  0.4283  0.3311
19573SOL    HW159935   8.067   3.030   0.289 -1.7055 -0.3476  0.5037
19573SOL    HW259936   8.052   3.055   0.437  0.6051  0.9307  0.5562
19574SOL     OW59937   7.600   2.570   8.752  0.4857  0.0201 -0.2426
19574SOL    HW159938   7.634   2.625   8.822  0.0471  0.6965 -0.5569
19574SOL    HW259939   7.661   2.496   8.748  0.0225 -0.5169  1.4747
19575SOL     OW59940   6.868   3.692   0.295 -0.1454  0.1711  0.0720
19575SOL    HW159941   6.891   3.777   0.255  0.8964  0.9788  2.2735
19575SOL    HW259942   6.951   3.649   0.311 -0.6806 -2.0013 -2.2866
19576SOL     OW59943   0.069   2.613   0.903 -0.3166 -0.4205  0.1844
19576SOL    HW159944   0.045   2.572   0.986 -1.6174 -0.6329 -0.2779
19576SOL    HW259945   0.057   2.706   0.918  1.0364 -0.3101  0.7217
19577SOL     OW59946   7.141   2.585   1.604 -0.1440  0.1792 -0.0866
19577SOL    HW159947   7.093   2.639   1.666  1.8621  1.1490  0.6951
19577SOL    HW259948   7.212   2.546   1.655  0.9018  0.1247 -1.5093
19578SOL     OW59949   8.147   3.200   0.648  0.0402 -0.1536  0.2474
19578SOL    HW159950   8.132   3.293   0.661  0.8375  0.0511 -0.2811
19578SOL    HW259951   8.135   3.161   0.735  3.2849  0.9110  1.2747
19579SOL     OW59952   8.160   2.646   1.435 -0.0724  0.0417  0.5926
19579SOL    HW159953   8.130   2.639   1.525  0.6112 -0.0881  0.8134
19579SOL    HW259954   8.180   2.739   1.423 -0.8687  0.1844  0.3430
19580SOL     OW59955   8.179   2.453   0.342  0.5462 -0.1986  0.2954
19580SOL    HW159956   8.204   2.456   0.250 -0.7270 -0.3678 -0.0830
19580SOL    HW259957   8.189   2.544   0.373 -0.4374  0.1734 -0.4282
19581SOL     OW59958   7.420   2.559   1.378 -0.6289  0.4289 -0.1062
19581SOL    HW159959   7.508   2.589   1.353 -0.6087  0.9211  0.5381
19581SOL    HW259960   7.435   2.504   1.455 -0.6323 -1.5171 -1.4058
19582SOL     OW59961   8.446   3.643   1.437  0.3907  0.1384  0.2849
19582SOL    HW159962   8.388   3.611   1.506  0.0606 -0.9441 -0.4660
19582SOL    HW259963   8.388   3.660   1.363  0.9976 -0.9925 -0.4915
19583SOL     OW59964   7.961   2.024   1.707  0.3290  0.4881  0.3985
19583SOL    HW159965   7.964   1.971   1.786 -1.6025 -0.4187 -0.0820
19583SOL    HW259966   8.038   1.997   1.657 -0.3848 -1.6029  0.3623
19584SOL     OW59967   7.414   2.644   0.528 -0.6771 -0.0603  0.2320
19584SOL    HW159968   7.498   2.670   0.564 -0.3296 -1.8724  0.8361
19584SOL    HW259969   7.352   2.709   0.562  0.6212  2.1789 -1.4109
19585SOL     OW59970   8.586   1.894   0.472  0.0788 -0.3752  0.3970
19585SOL    HW159971   8.620   1.813   0.434  0.9664 -0.3909  1.1823
19585SOL    HW259972   8.495   1.874   0.493 -0.6744 -0.1554 -2.2829
19586SOL     OW59973   8.239   2.372   1.390 -0.0818  0.1172 -0.3271
19586SOL    HW159974   8.172   2.338   1.450  0.9353  0.7171  1.1852
19586SOL    HW259975   8.200   2.452   1.354 -1.1128 -0.7905 -1.3071
19587SOL     OW59976   0.302   1.949   1.563  0.2636  0.4366  0.0720
19587SOL    HW159977   0.241   1.992   1.503  0.2858  1.7984  1.0064
19587SOL    HW259978   0.386   1.990   1.545  0.1306  1.4249  1.5400
19588SOL     OW59979   8.386   2.223   1.641  0.0872  0.1915  0.0615
19588SOL    HW159980   8.332   2.205   1.718  0.2828 -1.2495 -0.1157
19588SOL    HW259981   8.396   2.318   1.640 -1.8048  0.4217  0.5257
19589SOL     OW59982   8.283   2.532   0.828 -0.3557  0.5878 -0.2124
19589SOL    HW159983   8.231   2.466   0.782  1.0105 -1.1830  0.6500
19589SOL    HW259984   8.373   2.499   0.822 -0.0235  0.5872  3.1090
19590SOL     OW59985   8.542   2.529   0.557 -0.1069 -0.1411  0.0334
19590SOL    HW159986   8.557   2.441   0.524 -1.6119 -0.1775 -0.6480
19590SOL    HW259987   8.555   2.522   0.652  0.9273 -0.8089 -0.1412
19591SOL     OW59988   7.136   2.679   0.949 -0.6044 -0.0305 -0.0290
19591SOL    HW159989   7.188   2.743   0.900 -0.4752  1.2463  1.6655
19591SOL    HW259990   7.185   2.667   1.030 -1.5246 -0.9727  0.4004
19592SOL     OW59991   7.362   3.632   1.716  0.0445 -0.2743  0.1448
19592SOL    HW159992   7.385   3.554   1.667  0.6423 -0.3631  0.5463
19592SOL    HW259993   7.291   3.604   1.775  0.6916 -0.6937  0.7445
19593SOL     OW59994   7.992   1.904   8.758  0.3126 -0.1413 -0.2233
19593SOL    HW159995   8.009   1.851   8.837  0.4013 -1.6702 -1.2212
19593SOL    HW259996   7.897   1.898   8.746 -0.0537  2.0230  1.0177
19594SOL     OW59997   8.600   3.166   0.489 -0.5054 -0.4681 -0.0924
19594SOL    HW159998   8.515   3.146   0.527  0.0609 -0.1453  1.4016
19594SOL    HW259999   8.637   3.080   0.468 -0.6931 -0.6724  0.4008
19595SOL     OW60000   8.122   2.107   0.633  0.8679 -0.0161  0.3687
19595SOL    HW160001   8.171   2.158   0.568  0.7925  0.6907  0.8526
19595SOL    HW260002   8.051   2.165   0.661  1.1665 -0.1337  1.4158
19596SOL     OW60003   8.323   3.278   0.346 -0.2453  0.2186 -0.2980
19596SOL    HW160004   8.329   3.207   0.410  2.3514 -0.6104 -1.3177
19596SOL    HW260005   8.231   3.283   0.323 -1.4106  0.7826  3.6964
19597SOL     OW60006   7.772   3.544   1.438  0.2812  0.4385 -0.1797
19597SOL    HW160007   7.840   3.579   1.381 -0.8844  0.7161 -1.4436
19597SOL    HW260008   7.702   3.610   1.435 -0.0284  0.2007  1.1572
19598SOL     OW60009   8.485   3.290   1.318  0.0985  0.6210 -0.1689
19598SOL    HW160010   8.493   3.276   1.224  0.0386  2.1686 -0.4154
19598SOL    HW260011   8.454   3.205   1.352  1.7472 -0.4792 -1.2929
19599SOL     OW60012   7.444   2.981   0.143  0.3158  0.3099 -0.6173
19599SOL    HW160013   7.492   2.983   0.060  1.5656  2.0293  0.0923
19599SOL    HW260014   7.490   2.916   0.196  0.2523  0.0791 -0.8413
19600SOL     OW60015   7.880   3.222   1.651 -0.8270  0.1470  0.3206
19600SOL    HW160016   7.818   3.170   1.703 -1.1599  1.9021  1.7784
19600SOL    HW260017   7.826   3.260   1.582 -0.6910 -0.9486 -0.4108
19601SOL     OW60018   8.607   3.741   0.156  0.1603 -0.1740 -0.0942
19601SOL    HW160019   8.592   3.793   0.077 -2.8848 -2.1439 -1.0120
19601SOL    HW260020   8.553   3.783   0.223 -0.7766 -0.9859 -0.3174
19602SOL     OW60021   7.349   2.148   1.538  1.1227 -0.4380  0.1171
19602SOL    HW160022   7.277   2.155   1.475  1.9928 -0.0709 -0.8847
19602SOL    HW260023   7.310   2.169   1.622  0.1275  0.1081 -0.4582
19603SOL     OW60024   0.385   3.287   8.476  0.1872 -0.3355 -0.1172
19603SOL    HW160025   0.332   3.314   8.551 -1.7871  0.7151 -1.8096
19603SOL    HW260026   0.406   3.195   8.494 -0.5924 -0.2466  1.4969
19604SOL     OW60027   8.088   3.781   0.356 -0.0628  0.3977 -0.5671
19604SOL    HW160028   8.126   3.868   0.365  2.0876 -0.1352 -3.0925
19604SOL    HW260029   8.147   3.724   0.406 -0.0492  0.1170 -0.8943
19605SOL     OW60030   7.541   3.264   1.146 -0.4031  0.2472  0.2696
19605SOL    HW160031   7.624   3.312   1.134  0.5436 -1.5721 -0.8031
19605SOL    HW260032   7.497   3.311   1.217  0.5618  2.5507 -0.5387
19606SOL     OW60033   8.310   3.517   0.771  0.0198 -0.0763 -0.6690
19606SOL    HW160034   8.355   3.535   0.854 -0.9657  0.9309 -0.3339
19606SOL    HW260035   8.362   3.448   0.731  0.3187 -0.8525  0.9588
19607SOL     OW60036   7.908   2.412   0.956  0.6068 -0.4504 -0.5424
19607SOL    HW160037   7.867   2.341   1.005  0.9273 -0.7962 -0.7648
19607SOL    HW260038   7.945   2.469   1.023 -0.8783  0.2879 -0.2989
19608SOL     OW60039   8.151   2.255   1.814 -0.0099  0.1565 -0.3446
19608SOL    HW160040   8.131   2.196   1.886 -0.6126  0.3956 -0.3113
19608SOL    HW260041   8.085   2.237   1.748 -0.8216  1.4752  0.0743
19609SOL     OW60042   8.455   3.508   0.996  0.2998  0.6684  0.2781
19609SOL    HW160043   8.543   3.541   0.979  1.1093 -1.4847 -0.0071
19609SOL    HW260044   8.467   3.415   1.015 -1.8520  0.4616  0.9169
19610SOL     OW60045   8.755   2.173   1.175  0.0500 -0.1339 -0.3388
19610SOL    HW160046   8.748   2.078   1.176  1.8472 -0.2931  0.5911
19610SOL    HW260047   8.806   2.193   1.096 -0.3744  0.0847 -0.5664
19611SOL     OW60048   8.470   3.289   0.703  0.2528  0.3326  0.4827
19611SOL    HW160049   8.431   3.205   0.726 -0.1179  0.2459 -0.3842
19611SOL    HW260050   8.564   3.270   0.693  0.1044 -0.1076 -0.2064
19612SOL     OW60051   7.999   2.563   1.178 -0.4502 -0.3842 -0.2432
19612SOL    HW160052   8.013   2.573   1.272  1.0059 -0.1296 -0.4689
19612SOL    HW260053   7.950   2.641   1.153 -1.9554 -1.0476  0.4899
19613SOL     OW60054   7.937   2.036   0.283  0.0044 -0.5074 -0.0451
19613SOL    HW160055   7.853   2.040   0.330 -0.5115 -2.1452 -0.7480
19613SOL    HW260056   7.919   2.079   0.199 -0.2587 -1.2119 -0.3546
19614SOL     OW60057   0.129   3.603   8.776  0.1565 -0.7242  0.2709
19614SOL    HW160058   0.077   3.525   8.754  0.9899 -1.2023 -0.0286
19614SOL    HW260059   0.128   3.656   8.696 -0.4912 -0.3659  0.5051
19615SOL     OW60060   8.216   2.333   0.096 -0.2704  0.0425 -0.3313
19615SOL    HW160061   8.174   2.304   0.016  1.1020  1.3638 -1.5964
19615SOL    HW260062   8.243   2.423   0.078 -2.4725  1.4936  2.6252
19616SOL     OW60063   8.338   2.095   1.405  0.0160  0.2772  0.1059
19616SOL    HW160064   8.294   2.178   1.386 -1.7758 -0.2991  1.4597
19616SOL    HW260065   8.393   2.113   1.481 -0.8087  0.1114  0.7527
19617SOL     OW60066   8.721   3.449   0.743 -0.2292  0.5707  0.3252
19617SOL    HW160067   8.646   3.507   0.753 -0.2626  0.5253  0.3416
19617SOL    HW260068   8.752   3.436   0.832 -0.3379  0.4124  0.3406
19618SOL     OW60069   7.245   2.842   0.548  0.2170  0.0367  0.4221
19618SOL    HW160070   7.215   2.895   0.474  0.5000 -0.8449 -0.3565
19618SOL    HW260071   7.281   2.905   0.610  1.2036  0.7128 -0.7874
19619SOL     OW60072   8.615   4.062   0.692  0.3832 -0.4916 -0.0209
19619SOL    HW160073   8.579   4.142   0.731 -1.2987 -0.9251 -0.5722
19619SOL    HW260074   8.695   4.045   0.741  0.1881  0.9161  0.8459
19620SOL     OW60075   8.408   2.800   0.137  0.1386 -0.8129  0.3154
19620SOL    HW160076   8.504   2.800   0.127 -0.0106  0.7804 -1.7978
19620SOL    HW260077   8.391   2.872   0.199  0.2848 -0.7644  0.3013
19621SOL     OW60078   6.964   2.371   1.472 -0.1964  0.0666  0.2799
19621SOL    HW160079   7.046   2.404   1.508  0.9218 -0.6249 -1.4986
19621SOL    HW260080   6.946   2.429   1.397 -0.6270 -0.5644 -0.1125
19622SOL     OW60081   7.938   2.077   1.223  0.6579 -0.6228 -0.4135
19622SOL    HW160082   8.026   2.090   1.187  0.2608 -0.3904 -1.3370
19622SOL    HW260083   7.942   1.991   1.264  1.6689 -0.0935  0.6616
19623SOL     OW60084   8.679   2.257   0.444 -0.2196 -0.3118 -0.4399
19623SOL    HW160085   8.681   2.206   0.525  1.2378 -0.4056 -0.5145
19623SOL    HW260086   8.655   2.193   0.377 -0.6260 -0.4091 -0.2045
19624SOL     OW60087   8.277   1.842   0.389 -0.2560 -0.1858 -0.0519
19624SOL    HW160088   8.186   1.821   0.414 -0.3117  0.5292  0.3722
19624SOL    HW260089   8.269   1.916   0.329  0.0736  0.2288  0.4089
19625SOL     OW60090   7.732   3.465   0.407 -0.0991  0.3950  0.3010
19625SOL    HW160091   7.775   3.385   0.437  0.3463  0.2699 -0.6307
19625SOL    HW260092   7.742   3.526   0.479  0.3013 -0.1228  0.6915
19626SOL     OW60093   8.839   2.207   8.612 -0.8708  0.4389  0.2095
19626SOL    HW160094   8.774   2.275   8.598  0.4155  1.4665 -1.0191
19626SOL    HW260095   8.837   2.191   8.707  0.0861  3.5418  0.8503
19627SOL     OW60096   7.724   1.824   8.738 -1.0381 -0.1266 -0.1812
19627SOL    HW160097   7.672   1.745   8.726 -2.2338  0.6501 -0.2513
19627SOL    HW260098   7.668   1.883   8.789 -0.6964  1.1637 -1.2330
19628SOL     OW60099   8.094   2.819   1.106 -0.2486  0.2072 -0.1552
19628SOL    HW160100   8.136   2.864   1.179  0.5857 -2.5695  1.2142
19628SOL    HW260101   8.161   2.760   1.072 -1.7747 -1.4073 -0.5432
19629SOL     OW60102   8.398   2.990   1.043  0.7343 -0.2214  0.3136
19629SOL    HW160103   8.437   2.915   0.998 -2.4220 -1.8236 -0.0194
19629SOL    HW260104   8.365   2.954   1.125  0.8297  1.2873  1.0483
19630SOL     OW60105   8.189   2.098   1.103 -0.2679  0.1458 -0.5237
19630SOL    HW160106   8.229   2.091   1.016 -2.5081  0.1328 -1.6350
19630SOL    HW260107   8.262   2.097   1.164  1.5092  1.6610 -2.4782
19631SOL     OW60108   7.839   2.825   1.834 -0.3062  0.3142 -0.0285
19631SOL    HW160109   7.889   2.820   1.753 -1.7350  1.6502 -1.0656
19631SOL    HW260110   7.894   2.782   1.900  0.2877 -2.0699 -1.9489
19632SOL     OW60111   8.022   2.917   0.560  0.3250 -0.3482  0.3394
19632SOL    HW160112   8.080   2.847   0.591 -2.1735 -3.0762 -0.6736
19632SOL    HW260113   7.948   2.916   0.621 -0.1013  0.9496 -0.1173
19633SOL     OW60114   7.851   2.562   1.476 -0.0212  0.3682  0.3537
19633SOL    HW160115   7.926   2.547   1.533 -0.7690  0.1292  1.3145
19633SOL    HW260116   7.811   2.475   1.465  0.9728  0.1238 -1.8340
19634SOL     OW60117   8.454   1.843   1.366 -0.3768  0.8373  0.1748
19634SOL    HW160118   8.548   1.846   1.384  0.0952  0.4928 -1.9945
19634SOL    HW260119   8.427   1.935   1.365  0.0858  0.9754  0.0826
19635SOL     OW60120   7.409   2.862   1.020  0.5684 -0.4328 -0.2899
19635SOL    HW160121   7.481   2.898   1.071 -0.7079  0.6936  0.7545
19635SOL    HW260122   7.421   2.899   0.932  1.1358 -0.0954 -0.0751
19636SOL     OW60123   7.546   3.422   0.710 -0.5470  0.4514  0.4263
19636SOL    HW160124   7.527   3.383   0.624  0.5046  1.7608 -0.4455
19636SOL    HW260125   7.570   3.512   0.690 -0.7062  0.9045  2.1649
19637SOL     OW60126   8.104   1.833   0.664  0.0004  0.2066  0.5767
19637SOL    HW160127   8.182   1.783   0.683  0.8381  0.7592 -1.1681
19637SOL    HW260128   8.132   1.925   0.667 -0.3711  0.3958 -0.7178
19638SOL     OW60129   8.560   3.466   0.459  0.1580 -0.2140 -0.2379
19638SOL    HW160130   8.511   3.501   0.534  0.5015  0.3113 -0.2531
19638SOL    HW260131   8.602   3.387   0.493  0.4574  0.1166  0.1761
19639SOL     OW60132   8.665   3.375   1.504 -0.0637 -0.0434  0.0797
19639SOL    HW160133   8.732   3.307   1.514  1.3024  1.1528 -0.5252
19639SOL    HW260134   8.607   3.342   1.436  1.2106 -0.1398 -0.9946
19640SOL     OW60135   7.666   3.015   1.101  0.3250 -0.0057  0.4359
19640SOL    HW160136   7.736   3.049   1.156  0.2098  1.3127 -0.2006
19640SOL    HW260137   7.609   3.090   1.085 -1.9016 -1.2758  1.8941
19641SOL     OW60138   8.088   2.786   1.974 -0.2156 -0.1799 -0.3139
19641SOL    HW160139   8.181   2.772   1.988 -0.0910 -0.1023 -1.0378
19641SOL    HW260140   8.083   2.844   1.898 -0.8580 -0.4889 -0.5208
19642SOL     OW60141   8.139   1.906   1.532 -0.3847 -0.4998 -0.1357
19642SOL    HW160142   8.186   1.973   1.482  0.6878  1.0973  2.7433
19642SOL    HW260143   8.160   1.824   1.488  3.5321  0.3452 -0.2772
19643SOL     OW60144   8.253   1.478   1.693 -0.0728  0.0293  0.1822
19643SOL    HW160145   8.237   1.568   1.722  1.6372  0.9121 -1.3873
19643SOL    HW260146   8.306   1.488   1.614 -0.7771 -2.3585 -0.6486
19644SOL     OW60147   7.662   2.660   1.299  0.0873  0.1166  0.7258
19644SOL    HW160148   7.719   2.697   1.231 -0.5657  0.1475  0.1843
19644SOL    HW260149   7.713   2.589   1.337  1.2844  1.4056  1.6271
19645SOL     OW60150   8.487   2.489   1.155 -0.5239 -0.0274 -0.0859
19645SOL    HW160151   8.442   2.425   1.210 -0.0987 -1.5711 -1.4626
19645SOL    HW260152   8.417   2.532   1.106 -0.7692  0.2234  0.4691
19646SOL     OW60153   0.190   2.682   0.246  0.7129  0.1130 -0.0275
19646SOL    HW160154   0.219   2.660   0.334 -0.5108 -0.5054  0.2441
19646SOL    HW260155   0.190   2.599   0.199  1.1126  0.3972 -0.5386
19647SOL     OW60156   7.570   2.168   1.335  0.2880 -0.2024  0.2013
19647SOL    HW160157   7.567   2.095   1.274 -0.0485 -0.2568  0.2791
19647SOL    HW260158   7.479   2.181   1.361  0.0011  1.7043 -1.5560
19648SOL     OW60159   7.276   2.664   1.174  0.2879  0.3632  0.0024
19648SOL    HW160160   7.328   2.615   1.238 -0.2431  0.3459  0.4323
19648SOL    HW260161   7.323   2.746   1.161 -0.1085  0.8061  1.1921
19649SOL     OW60162   7.757   2.264   1.161 -0.5465  0.0558  1.0363
19649SOL    HW160163   7.687   2.262   1.227 -0.1954 -1.5033  1.4208
19649SOL    HW260164   7.814   2.191   1.186  1.1838  1.2488  0.6925
19650SOL     OW60165   7.675   2.062   0.377  0.0278 -0.1116  0.5424
19650SOL    HW160166   7.609   2.108   0.430  0.1711 -0.0404  0.6572
19650SOL    HW260167   7.673   1.972   0.410 -0.4367 -0.2545  0.1438
19651SOL     OW60168   8.499   2.491   0.247 -0.8199  0.0297  0.0031
19651SOL    HW160169   8.524   2.580   0.221  0.1457 -0.2133  0.0776
19651SOL    HW260170   8.470   2.500   0.338 -1.2678  0.3592 -0.1691
19652SOL     OW60171   8.371   2.295   0.722  0.4928 -0.2629  0.0981
19652SOL    HW160172   8.371   2.282   0.628 -0.8650  0.8077 -0.0893
19652SOL    HW260173   8.308   2.230   0.755  1.3075 -0.9492  0.3398
19653SOL     OW60174   8.326   3.065   1.559 -0.1498 -1.1047  0.2730
19653SOL    HW160175   8.416   3.051   1.589  0.2947  0.1967 -0.3752
19653SOL    HW260176   8.308   3.157   1.580 -0.0736 -0.3200 -2.6132
19654SOL     OW60177   7.733   3.081   1.846  0.2165 -0.4636  0.3356
19654SOL    HW160178   7.773   3.126   1.921  0.9882 -0.2261 -0.2044
19654SOL    HW260179   7.757   2.989   1.858 -1.0969 -0.7203  1.2712
19655SOL     OW60180   8.701   2.897   0.368 -0.6984  0.8858 -0.3353
19655SOL    HW160181   8.785   2.944   0.365 -0.9233  1.3467  0.3553
19655SOL    HW260182   8.705   2.837   0.294  0.3332  0.7454 -0.1840
19656SOL     OW60183   8.524   3.234   1.050  0.2155  0.2374 -0.1129
19656SOL    HW160184   8.608   3.191   1.065  0.6526  1.4451  1.1548
19656SOL    HW260185   8.460   3.163   1.046  1.0011 -0.5651  1.1195
19657SOL     OW60186   7.556   2.618   0.909 -0.6376  0.0108  0.5422
19657SOL    HW160187   7.566   2.666   0.826 -1.4065  0.0657  0.4711
19657SOL    HW260188   7.547   2.687   0.975  1.5905  0.0093  0.9333
19658SOL     OW60189   7.256   2.159   1.260 -0.5538  0.2960 -0.0251
19658SOL    HW160190   7.264   2.221   1.187 -1.7101 -0.8080 -1.1287
19658SOL    HW260191   7.306   2.082   1.232  0.6666  0.5748  1.2332
19659SOL     OW60192   8.545   1.723   1.671  0.4709 -0.3673  0.3385
19659SOL    HW160193   8.574   1.705   1.581  3.2040 -0.2201  1.1203
19659SOL    HW260194   8.482   1.794   1.661 -0.5234 -1.4175 -1.5745
19660SOL     OW60195   8.644   1.550   1.459  0.1483 -0.4860  0.3594
19660SOL    HW160196   8.624   1.515   1.545 -0.9697 -1.3026 -0.2093
19660SOL    HW260197   8.738   1.535   1.447  0.5707  0.6922  1.8782
19661SOL     OW60198   7.605   3.629   1.103  0.0975  0.2939  0.1819
19661SOL    HW160199   7.674   3.570   1.135  2.0087  2.8647  1.1562
19661SOL    HW260200   7.524   3.591   1.136  1.3107 -1.3550  1.4558
19662SOL     OW60201   7.994   3.222   1.007  0.2565  0.7061  0.5798
19662SOL    HW160202   8.048   3.291   0.968  0.7312  0.1429  0.2285
19662SOL    HW260203   8.020   3.142   0.962  0.7183  0.0545  1.9581
19663SOL     OW60204   8.490   2.435   1.440 -0.5991 -0.7586  0.3975
19663SOL    HW160205   8.477   2.513   1.494 -0.2445 -0.6084  0.2677
19663SOL    HW260206   8.403   2.394   1.436 -1.2349  0.6058 -1.0642
19664SOL     OW60207   7.608   2.323   0.938 -0.1092  0.3224 -0.2963
19664SOL    HW160208   7.591   2.416   0.920  0.4561  0.1467 -1.8624
19664SOL    HW260209   7.661   2.323   1.018 -3.7080  1.0892  2.3558
19665SOL     OW60210   7.535   2.802   1.797 -0.5478 -0.1609 -0.1849
19665SOL    HW160211   7.629   2.808   1.783 -0.1084 -0.7245  2.0743
19665SOL    HW260212   7.496   2.822   1.712  1.5520  1.6823 -0.7837
19666SOL     OW60213   7.879   2.591   0.713 -0.0034  0.6125 -0.1713
19666SOL    HW160214   7.881   2.540   0.794 -2.6894  1.0799  0.2638
19666SOL    HW260215   7.898   2.527   0.644 -2.5292 -0.9085  0.4277
19667SOL     OW60216   7.652   3.316   1.502 -0.3809  0.1614 -0.3100
19667SOL    HW160217   7.682   3.399   1.466 -0.9243  0.3188 -0.4100
19667SOL    HW260218   7.613   3.339   1.586 -0.0385 -0.0709 -0.0827
19668SOL     OW60219   8.139   2.285   0.863 -0.1201  0.1484  0.4453
19668SOL    HW160220   8.090   2.212   0.901  1.5562 -0.3978  1.6952
19668SOL    HW260221   8.074   2.355   0.851 -1.1292 -0.3872  2.4172
19669SOL     OW60222   8.717   3.866   1.150 -0.1820  0.0798 -0.2083
19669SOL    HW160223   8.707   3.847   1.244 -0.6698  0.5170 -0.1718
19669SOL    HW260224   8.812   3.867   1.137 -0.0820 -2.2239 -0.1790
19670SOL     OW60225   7.495   2.415   0.213 -0.6501  0.4742  0.0851
19670SOL    HW160226   7.503   2.510   0.205 -1.7528  0.5412 -0.3691
19670SOL    HW260227   7.443   2.402   0.293 -1.5292  0.3166 -0.4944
19671SOL     OW60228   7.666   2.894   1.471  0.2865  0.1073  0.5105
19671SOL    HW160229   7.657   2.814   1.420  1.1944 -0.5149  1.2802
19671SOL    HW260230   7.577   2.917   1.496  0.0324 -0.8302  0.5118
19672SOL     OW60231   8.435   2.751   1.250  0.5484 -0.0537  0.4707
19672SOL    HW160232   8.489   2.672   1.256  1.5102  0.6628  2.0148
19672SOL    HW260233   8.348   2.722   1.277  0.6140 -0.8092 -0.0893
19673SOL     OW60234   8.570   2.591   0.848  0.1393  0.1427 -0.1404
19673SOL    HW160235   8.575   2.686   0.851 -1.9851  0.2903  0.6732
19673SOL    HW260236   8.574   2.563   0.939  1.7084 -0.6478 -0.4278
19674SOL     OW60237   8.798   3.481   1.031  0.0875  0.6271 -0.2598
19674SOL    HW160238   8.735   3.515   1.094 -0.9554 -0.0199 -0.9099
19674SOL    HW260239   8.847   3.414   1.079 -0.9687 -0.1428 -0.2124
19675SOL     OW60240   7.181   3.377   1.164  0.1629 -0.4027 -0.6993
19675SOL    HW160241   7.196   3.283   1.160  3.0806 -0.0580  0.1037
19675SOL    HW260242   7.192   3.407   1.073  0.9463 -0.6505 -0.6927
19676SOL     OW60243   8.069   3.547   1.835  0.2811 -0.2195  0.0919
19676SOL    HW160244   8.124   3.549   1.757  1.4337 -1.2468  0.8258
19676SOL    HW260245   8.077   3.457   1.867 -2.3296 -0.5863 -0.0679
19677SOL     OW60246   8.097   1.792   0.159 -0.8773 -0.3167  0.1547
19677SOL    HW160247   8.064   1.747   0.237  1.0090  0.0506  1.2494
19677SOL    HW260248   8.130   1.876   0.192  1.6461 -0.8982 -0.6231
19678SOL     OW60249   0.033   3.883   0.790  0.2471 -0.3006  0.0114
19678SOL    HW160250   0.104   3.923   0.841 -1.0874  0.7738  1.1377
19678SOL    HW260251  -0.016   3.832   0.855  0.1144 -1.2110 -0.7955
19679SOL     OW60252   7.172   3.600   1.923 -0.4191 -0.2547  0.4504
19679SOL    HW160253   7.129   3.637   2.000 -0.7260 -1.7512  1.0198
19679SOL    HW260254   7.119   3.524   1.900  0.9769 -1.1809  0.1748
19680SOL     OW60255   8.647   2.851   0.987 -0.0446 -0.8259 -0.2531
19680SOL    HW160256   8.677   2.888   1.070  0.1543 -0.3632 -0.5275
19680SOL    HW260257   8.723   2.859   0.928 -0.8481  0.8930 -1.1295
19681SOL     OW60258   8.241   2.969   1.293 -1.1764 -0.1628  0.0474
19681SOL    HW160259   8.273   2.995   1.379  0.0819 -0.7017 -0.2224
19681SOL    HW260260   8.186   3.042   1.264  0.5490  1.2495  0.1768
19682SOL     OW60261   8.323   4.021   8.825  0.0414  0.1714 -0.2328
19682SOL    HW160262   8.344   3.944   8.878 -0.4638  1.2408  1.6371
19682SOL    HW260263   8.357   4.001   8.738 -0.3165 -2.2575  0.1138
19683SOL     OW60264   7.759   2.304   0.307  0.2560  0.1241 -0.2607
19683SOL    HW160265   7.747   2.220   0.352  1.1595 -0.1193 -0.4538
19683SOL    HW260266   7.673   2.326   0.273 -0.4620  0.3042  1.5771
19684SOL     OW60267   8.648   4.090   8.513  0.0804  0.0690  0.4636
19684SOL    HW160268   8.595   4.165   8.541  1.0628  0.5180  1.1881
19684SOL    HW260269   8.662   4.105   8.419 -1.8932 -0.6000  0.0188
19685SOL     OW60270   8.614   2.735   1.535  1.1319 -0.4514  0.1118
19685SOL    HW160271   8.623   2.784   1.452  0.7071  1.3186  1.0585
19685SOL    HW260272   8.590   2.802   1.599 -0.4996 -2.0889  1.3034
19686SOL     OW60273   8.308   2.579   0.031  0.1792 -0.2055 -0.4625
19686SOL    HW160274   8.351   2.650   0.079  0.5587 -0.0732 -0.9836
19686SOL    HW260275   8.293   2.615  -0.056 -1.7599  0.0262 -0.0615
19687SOL     OW60276   7.798   3.094   1.341 -0.1951  0.0371 -0.0114
19687SOL    HW160277   7.761   3.024   1.394  1.3618 -0.7311  0.1022
19687SOL    HW260278   7.753   3.173   1.371 -0.2096 -0.5483  1.5966
19688SOL     OW60279   8.241   2.566   1.092 -0.0289 -0.4479 -0.6915
19688SOL    HW160280   8.148   2.562   1.114 -0.4489  2.3933 -1.5612
19688SOL    HW260281   8.245   2.541   1.000 -0.4462  2.2888 -1.5398
19689SOL     OW60282   8.314   1.688   0.752 -0.0619  0.1400 -0.4853
19689SOL    HW160283   8.388   1.645   0.709  0.1874  0.4115 -0.3330
19689SOL    HW260284   8.276   1.621   0.809  0.1306  0.0324 -0.4839
19690SOL     OW60285   7.657   2.921   0.355  0.5165  0.1994  0.5526
19690SOL    HW160286   7.725   2.854   0.352 -0.0553 -0.4343  1.1401
19690SOL    HW260287   7.687   2.989   0.295  0.6301 -1.0416 -0.8521
19691SOL     OW60288   7.698   3.399   8.781  0.6476 -0.4292 -1.3705
19691SOL    HW160289   7.624   3.347   8.750 -0.0439  0.5300 -1.3615
19691SOL    HW260290   7.732   3.442   8.702  0.9642 -0.5700 -1.3130
19692SOL     OW60291   7.329   3.002   1.988  0.9792 -0.0594  0.3199
19692SOL    HW160292   7.331   3.068   1.918 -2.2393 -0.3502 -0.1877
19692SOL    HW260293   7.397   2.940   1.963  1.7841  1.2868 -1.0281
19693SOL     OW60294   8.059   1.790   1.053 -0.1305 -0.3661 -0.0377
19693SOL    HW160295   8.092   1.866   1.005 -0.5375  0.4715  0.9658
19693SOL    HW260296   8.136   1.755   1.099  0.1760 -0.9299 -0.9526
19694SOL     OW60297   7.424   2.161   0.147  0.5683 -0.0118  0.2514
19694SOL    HW160298   7.462   2.248   0.155 -1.0722  0.8134 -0.4389
19694SOL    HW260299   7.336   2.169   0.183  1.0803 -1.9592  2.1592
19695SOL     OW60300   0.122   2.522   1.396 -0.0133 -0.1459  0.1748
19695SOL    HW160301   0.056   2.456   1.416  0.5241 -0.5352  0.6833
19695SOL    HW260302   0.184   2.479   1.338  0.2742 -0.0623  0.4120
19696SOL     OW60303   7.495   1.857   0.181 -0.2412  0.8497  0.3932
19696SOL    HW160304   7.518   1.924   0.117 -1.0635  0.2006 -0.6175
19696SOL    HW260305   7.468   1.906   0.259 -3.0677  1.8353 -1.0681
19697SOL     OW60306   8.365   3.033   0.570 -0.1856  0.5480  0.4071
19697SOL    HW160307   8.361   2.939   0.588  1.6913  0.5796  1.2467
19697SOL    HW260308   8.280   3.067   0.597  0.0900 -0.4920  2.8518
19698SOL     OW60309   8.047   2.550   1.676 -0.4935 -0.6582 -0.3358
19698SOL    HW160310   7.990   2.550   1.753 -0.2830 -1.6278 -0.1732
19698SOL    HW260311   8.117   2.488   1.698 -0.3940 -0.8824 -1.2792
19699SOL     OW60312   8.020   2.240   1.520  0.1534  0.5419 -0.1052
19699SOL    HW160313   7.946   2.291   1.487  1.0679  1.7024 -0.4131
19699SOL    HW260314   7.998   2.149   1.499 -0.1578  1.0610 -2.2483
19700SOL     OW60315   8.705   2.574   1.931 -0.0755  0.0793  0.0407
19700SOL    HW160316   8.733   2.663   1.950  2.6094  0.4674 -4.3929
19700SOL    HW260317   8.770   2.519   1.973 -1.1824  0.1539  1.9567
19701SOL     OW60318   7.561   3.946   1.672 -0.2177  0.3945 -0.0975
19701SOL    HW160319   7.512   4.014   1.718  0.1358 -0.7353  2.0942
19701SOL    HW260320   7.581   3.881   1.740 -1.8493 -2.6829 -2.2909
19702SOL     OW60321   8.521   2.311   0.040 -0.5235  0.3797  0.4015
19702SOL    HW160322   8.477   2.365   0.105  1.0138  0.6024  1.3235
19702SOL    HW260323   8.564   2.242   0.092 -0.3654 -0.2220 -0.5069
19703SOL     OW60324   7.630   2.730   0.673  0.4472  0.7156 -0.5489
19703SOL    HW160325   7.712   2.683   0.688  1.3149  2.5712  1.1219
19703SOL    HW260326   7.656   2.822   0.666 -1.3104  1.1581 -2.2042
19704SOL     OW60327   8.039   3.360   0.258  0.5442  0.8830 -0.6578
19704SOL    HW160328   8.013   3.288   0.315 -0.2810  1.0271 -0.8383
19704SOL    HW260329   8.041   3.322   0.170 -2.8947  1.6877 -1.2450
19705SOL     OW60330   8.233   3.697   0.561  0.3534 -0.1848  0.3931
19705SOL    HW160331   8.268   3.777   0.600 -1.2071  0.8846 -0.2735
19705SOL    HW260332   8.232   3.633   0.633  1.5718  0.4021  0.9504
19706SOL     OW60333   7.915   2.827   1.557 -0.3348 -0.0290  0.3123
19706SOL    HW160334   7.887   2.738   1.539  0.1387 -0.0668 -0.2877
19706SOL    HW260335   7.845   2.882   1.521 -1.0745 -0.1585  1.5039
19707SOL     OW60336   8.456   2.771   0.488  0.2756  0.1912 -0.0924
19707SOL    HW160337   8.498   2.692   0.522  1.1039  0.2530 -0.9504
19707SOL    HW260338   8.528   2.824   0.455 -0.0308  2.1518  2.0845
19708SOL     OW60339   7.622   3.374   1.764  0.1155 -0.6167  0.5327
19708SOL    HW160340   7.566   3.391   1.839 -0.1365 -0.1975  0.2559
19708SOL    HW260341   7.689   3.443   1.768  0.1284 -0.6210  0.4006
19709SOL     OW60342   7.785   3.385   1.156  0.2800 -0.0822 -0.1238
19709SOL    HW160343   7.828   3.349   1.079 -0.4729  1.3714 -1.2837
19709SOL    HW260344   7.854   3.434   1.201  0.1888  1.1625 -1.2740
19710SOL     OW60345   8.148   3.296   1.638 -0.3130  0.0117 -0.6526
19710SOL    HW160346   8.160   3.367   1.575 -0.2734  1.4096  0.8792
19710SOL    HW260347   8.062   3.261   1.617 -0.7181  1.0967 -0.8910
19711SOL     OW60348   8.283   2.236   0.467 -0.0975  0.3819  0.7183
19711SOL    HW160349   8.243   2.305   0.416  2.1562  0.8008 -0.6357
19711SOL    HW260350   8.351   2.200   0.410 -1.1118 -2.9592  1.3837
19712SOL     OW60351   7.728   2.312   1.510 -0.4138 -0.2858  0.7830
19712SOL    HW160352   7.714   2.277   1.598  0.1227 -1.1477  0.5375
19712SOL    HW260353   7.682   2.252   1.452 -0.7878  0.2944  0.4621
19713SOL     OW60354   7.823   3.238   0.563 -0.4179  0.0259  0.0945
19713SOL    HW160355   7.808   3.304   0.632 -0.5816  0.6602 -0.5399
19713SOL    HW260356   7.918   3.238   0.552 -0.4358  0.3649 -0.0948
19714SOL     OW60357   8.350   1.955   0.913  0.3209  0.1849  0.3469
19714SOL    HW160358   8.342   1.871   0.869  2.3429 -0.3344  0.8627
19714SOL    HW260359   8.444   1.974   0.912  0.0580  1.7627  1.4834
19715SOL     OW60360   8.337   1.581   0.988 -0.4273 -0.4982  0.2814
19715SOL    HW160361   8.422   1.598   1.029  0.1609 -0.2154 -0.9983
19715SOL    HW260362   8.305   1.502   1.031  0.5747 -0.7106  0.6686
19716SOL     OW60363   7.535   3.098   8.720  0.3864 -0.1250 -0.3485
19716SOL    HW160364   7.534   3.105   8.624  2.3816  0.4134 -0.3808
19716SOL    HW260365   7.448   3.127   8.747  0.3590  1.4288 -1.9297
19717SOL     OW60366   7.956   3.602   1.195  0.0473  0.5439 -0.2104
19717SOL    HW160367   7.991   3.687   1.224 -0.1148  0.5558 -0.0513
19717SOL    HW260368   8.020   3.571   1.130  0.3835  0.5401  0.1190
19718SOL     OW60369   7.028   2.631   0.511  0.2909 -0.3086 -0.0909
19718SOL    HW160370   7.043   2.575   0.587  1.1379  0.1426  0.0756
19718SOL    HW260371   7.052   2.719   0.540  1.9064 -0.3310 -1.2575
19719SOL     OW60372   8.287   3.814   0.142  0.0312 -0.1202 -0.5035
19719SOL    HW160373   8.196   3.838   0.158  0.7837  2.8438 -0.1242
19719SOL    HW260374   8.289   3.719   0.154 -2.3851  0.0770  2.7427
19720SOL     OW60375   7.518   2.429   1.899 -0.0976 -0.0131  0.1997
19720SOL    HW160376   7.497   2.394   1.985 -1.1172 -1.2054 -0.5136
19720SOL    HW260377   7.501   2.523   1.907 -0.5230 -0.1642  1.1925
19721SOL     OW60378   8.074   1.969   2.736 -0.7426 -0.0908  0.6252
19721SOL    HW160379   8.043   2.006   2.654  0.8377 -0.5054 -0.2073
19721SOL    HW260380   8.063   1.874   2.725  1.0045 -0.2683  0.1857
19722SOL     OW60381   7.317   2.246   2.515  0.2504  0.3538 -0.3579
19722SOL    HW160382   7.249   2.311   2.497 -0.5279 -0.9040 -2.1944
19722SOL    HW260383   7.297   2.173   2.458  1.9357 -0.9544  0.6154
19723SOL     OW60384   7.471   2.983   2.745  0.1228  0.5843 -0.4483
19723SOL    HW160385   7.467   2.970   2.840  2.5823  1.7738 -0.0906
19723SOL    HW260386   7.482   2.895   2.709  1.4932  0.2780  0.6035
19724SOL     OW60387   8.779   3.253   2.515  0.2281 -0.5285 -0.6481
19724SOL    HW160388   8.684   3.237   2.514  0.2863 -0.9458 -2.2122
19724SOL    HW260389   8.810   3.215   2.433  1.6390  0.2848 -0.5115
19725SOL     OW60390   8.659   2.789   2.321 -0.0830  0.4037 -0.8065
19725SOL    HW160391   8.673   2.707   2.273 -0.9966  1.1788 -2.4932
19725SOL    HW260392   8.713   2.853   2.273  0.4731  0.8392  0.3775
19726SOL     OW60393   8.090   2.975   2.569  0.0908 -0.4588  0.2170
19726SOL    HW160394   8.123   3.042   2.509 -0.7382 -0.2840 -0.0584
19726SOL    HW260395   8.079   3.021   2.652 -2.4588  0.3603 -0.4618
19727SOL     OW60396   8.472   2.141   3.838  0.0584 -0.5075 -0.8047
19727SOL    HW160397   8.429   2.057   3.823 -1.1360 -0.0033 -0.2644
19727SOL    HW260398   8.482   2.179   3.751 -1.3251 -0.2860 -0.8857
19728SOL     OW60399   8.217   2.743   2.441 -0.4451  0.3476  1.0528
19728SOL    HW160400   8.143   2.729   2.381  0.1156  1.3811  0.0827
19728SOL    HW260401   8.208   2.834   2.468  0.5266  0.5087  0.8419
19729SOL     OW60402   7.700   2.736   4.057  0.4645 -0.6491  0.6505
19729SOL    HW160403   7.686   2.786   3.977  0.1961  0.0965  1.1505
19729SOL    HW260404   7.631   2.670   4.057  1.3612 -1.6351 -0.4638
19730SOL     OW60405   7.572   2.738   2.974 -0.0420 -0.2615  0.0189
19730SOL    HW160406   7.647   2.797   2.966 -0.4680  0.0839 -2.0874
19730SOL    HW260407   7.552   2.712   2.884 -0.8907 -2.3556  0.7442
19731SOL     OW60408   8.165   2.185   3.271 -0.0713  0.5360  0.3116
19731SOL    HW160409   8.109   2.117   3.235  0.2214  0.5597 -0.1913
19731SOL    HW260410   8.175   2.161   3.364  1.3609 -1.0332 -0.2056
19732SOL     OW60411   7.621   3.689   2.091 -0.0130  0.2216 -0.2341
19732SOL    HW160412   7.612   3.645   2.007 -0.2320 -0.3481  0.0845
19732SOL    HW260413   7.707   3.732   2.087  0.5817 -0.9315 -0.2347
19733SOL     OW60414   8.152   2.899   3.078 -0.2794 -0.6018  0.3263
19733SOL    HW160415   8.085   2.966   3.064  0.0061 -0.1002  1.2755
19733SOL    HW260416   8.125   2.827   3.022 -1.5894 -0.3851  0.6352
19734SOL     OW60417   7.757   3.430   2.514  0.1651  0.3982  0.1051
19734SOL    HW160418   7.849   3.421   2.487 -0.0484  2.8230 -1.7367
19734SOL    HW260419   7.718   3.345   2.494  1.8344 -0.4773  0.3220
19735SOL     OW60420   7.274   2.639   2.567  0.1473 -0.4949  0.4644
19735SOL    HW160421   7.206   2.579   2.537  0.1094 -1.0195  1.5578
19735SOL    HW260422   7.252   2.656   2.659  0.6876  0.4634  0.4286
19736SOL     OW60423   7.919   3.585   3.750  0.2097 -0.9689  0.1458
19736SOL    HW160424   7.983   3.589   3.821 -0.5005 -2.2186  0.8857
19736SOL    HW260425   7.955   3.521   3.689  2.1211  1.9312 -2.0322
19737SOL     OW60426   7.763   3.199   2.117  0.0036 -0.0467  0.3037
19737SOL    HW160427   7.789   3.286   2.147  0.9101  0.0234 -0.6202
19737SOL    HW260428   7.669   3.194   2.134  0.2932  0.3425  2.1994
19738SOL     OW60429   7.744   2.548   2.350  0.1047  0.1606 -0.0019
19738SOL    HW160430   7.778   2.486   2.286 -1.8389 -1.0772  0.0570
19738SOL    HW260431   7.674   2.500   2.395 -1.0569  2.1726  0.5089
19739SOL     OW60432   7.622   3.715   1.821 -0.3404  0.4632 -0.6367
19739SOL    HW160433   7.692   3.666   1.780 -0.8303 -0.6922 -0.1391
19739SOL    HW260434   7.541   3.678   1.784 -0.7625 -0.1165  0.7793
19740SOL     OW60435   0.615   2.946   2.752 -0.1796 -0.3223 -0.0639
19740SOL    HW160436   0.536   2.993   2.778 -0.5350 -0.3535 -1.0586
19740SOL    HW260437   0.686   3.009   2.764 -0.2264 -0.5160  1.5357
19741SOL     OW60438   7.953   2.424   3.448 -0.4086 -0.0047 -0.2950
19741SOL    HW160439   7.942   2.496   3.386 -0.5996 -0.2376 -0.5295
19741SOL    HW260440   8.044   2.430   3.475 -1.1061  2.1618  1.9395
19742SOL     OW60441   7.871   3.602   2.735 -0.5946  0.5478  0.0725
19742SOL    HW160442   7.955   3.596   2.690  0.4794  0.2655  1.9950
19742SOL    HW260443   7.817   3.535   2.694  0.2252  0.5134 -0.9827
19743SOL     OW60444   8.582   2.270   3.068 -0.1306 -0.0376 -0.4465
19743SOL    HW160445   8.563   2.360   3.039 -0.7876 -0.3448 -1.0040
19743SOL    HW260446   8.529   2.215   3.010  1.7289 -0.9050 -1.4109
19744SOL     OW60447   8.375   2.076   2.126  0.2347 -0.4162 -0.7514
19744SOL    HW160448   8.418   2.065   2.211  0.2663 -1.2132 -0.8666
19744SOL    HW260449   8.332   2.161   2.132 -0.7045 -0.9577  0.4726
19745SOL     OW60450   7.576   2.200   3.054  0.2229 -0.3088 -0.1228
19745SOL    HW160451   7.553   2.260   2.983 -1.2429 -0.6238  0.0452
19745SOL    HW260452   7.671   2.191   3.049  0.2177  0.2203 -1.6037
19746SOL     OW60453   8.362   2.547   3.394  0.4236  0.3599  0.4064
19746SOL    HW160454   8.450   2.587   3.397  0.7603 -0.3065 -0.2179
19746SOL    HW260455   8.359   2.504   3.308 -0.0518 -0.6878  0.9335
19747SOL     OW60456   7.942   2.397   3.976 -0.0778  0.1310  0.3174
19747SOL    HW160457   7.976   2.333   3.914 -2.4655 -0.2231 -0.7031
19747SOL    HW260458   7.885   2.454   3.924  0.5982  2.0372  1.5343
19748SOL     OW60459   7.988   2.751   2.251  0.6235  0.2991 -0.0127
19748SOL    HW160460   8.033   2.784   2.173  1.8408  2.1031  1.3581
19748SOL    HW260461   7.907   2.803   2.256 -0.3075 -1.0070 -0.9593
19749SOL     OW60462   8.825   2.105   2.923  0.1746  0.3457 -0.4470
19749SOL    HW160463   8.881   2.150   2.860 -0.3673  1.1405 -0.3773
19749SOL    HW260464   8.838   2.153   3.005 -0.1590  0.1689 -0.2881
19750SOL     OW60465   8.522   2.373   3.572 -0.0235  0.0033 -0.3707
19750SOL    HW160466   8.521   2.280   3.552  0.9299 -0.0492 -0.2222
19750SOL    HW260467   8.440   2.407   3.537 -0.3148 -0.8678 -0.5363
19751SOL     OW60468   8.458   1.833   3.333 -0.2261 -0.0810  0.1260
19751SOL    HW160469   8.529   1.768   3.335  0.4476  0.5994 -0.9861
19751SOL    HW260470   8.381   1.782   3.311  0.3987 -0.4552 -1.3142
19752SOL     OW60471   8.420   2.777   3.712 -0.3627  0.2850 -0.1377
19752SOL    HW160472   8.362   2.702   3.701 -1.2077  0.6314  1.5344
19752SOL    HW260473   8.504   2.747   3.678 -0.6823 -1.4415  0.4544
19753SOL     OW60474   8.163   2.281   2.561  0.0591 -0.0292 -0.6548
19753SOL    HW160475   8.101   2.209   2.562 -0.2210  0.1930  1.1984
19753SOL    HW260476   8.245   2.242   2.529 -0.6380 -0.6451 -1.7263
19754SOL     OW60477   8.416   2.511   1.701 -0.0932  0.4942 -0.5635
19754SOL    HW160478   8.473   2.471   1.766 -2.6569  0.1698  1.6747
19754SOL    HW260479   8.421   2.604   1.719  1.0113  0.6403 -1.5381
19755SOL     OW60480   7.954   2.127   2.505 -0.2510 -0.6339  0.0814
19755SOL    HW160481   7.952   2.183   2.428 -0.0559 -0.5215  0.1578
19755SOL    HW260482   7.891   2.167   2.565  0.6567  0.1252  0.5611
19756SOL     OW60483   7.378   4.030   3.467  0.5329 -0.0949 -0.2125
19756SOL    HW160484   7.441   3.963   3.440  0.6367  0.8081 -2.4737
19756SOL    HW260485   7.373   4.022   3.562 -0.1808 -3.8977 -0.4455
19757SOL     OW60486   8.233   2.518   2.086 -0.0066  0.2947 -0.4724
19757SOL    HW160487   8.139   2.512   2.075 -0.0280  2.0618 -1.5490
19757SOL    HW260488   8.250   2.612   2.100  1.6558  0.1104 -1.0330
19758SOL     OW60489   0.132   2.785   1.812 -0.0651 -0.1059  0.5453
19758SOL    HW160490   0.207   2.728   1.831  0.0815 -0.3051 -0.5604
19758SOL    HW260491   0.103   2.758   1.725 -0.4026  1.0636  0.2745
19759SOL     OW60492   8.159   1.523   2.782  0.2870 -0.0995 -0.3963
19759SOL    HW160493   8.169   1.453   2.717  0.6925 -0.1332 -0.2967
19759SOL    HW260494   8.233   1.581   2.766  1.1916 -0.8237  0.9297
19760SOL     OW60495   8.375   3.230   1.996 -0.0413 -0.2037  0.4670
19760SOL    HW160496   8.436   3.284   1.944  0.0624 -0.4386  0.3423
19760SOL    HW260497   8.377   3.269   2.083 -2.4675  2.0718 -0.3802
19761SOL     OW60498   8.000   3.535   3.054 -0.5081  0.0512 -0.0556
19761SOL    HW160499   7.932   3.468   3.061 -0.0691 -0.8684 -3.0922
19761SOL    HW260500   7.952   3.617   3.042 -1.0437 -0.1452  0.6516
19762SOL     OW60501   0.087   3.235   3.370  0.5675 -0.6832  0.2044
19762SOL    HW160502   0.052   3.320   3.342 -0.1446 -0.2039  2.3685
19762SOL    HW260503   0.144   3.208   3.298  0.2590  1.2814 -0.8524
19763SOL     OW60504   8.358   2.750   2.038 -0.4777 -0.1513 -0.2968
19763SOL    HW160505   8.391   2.807   2.108  0.6712 -1.0188 -0.1051
19763SOL    HW260506   8.378   2.798   1.957 -1.4772  0.6873 -0.0656
19764SOL     OW60507   7.489   3.119   3.155 -0.3472  0.5870 -0.0324
19764SOL    HW160508   7.522   3.111   3.245 -1.6329 -0.0747  0.4100
19764SOL    HW260509   7.455   3.208   3.150  0.6185  0.9535 -0.1867
19765SOL     OW60510   8.457   3.344   1.664 -0.3312 -0.1156 -0.1332
19765SOL    HW160511   8.531   3.345   1.603 -0.4237  1.1452 -0.2448
19765SOL    HW260512   8.498   3.334   1.750  0.0180  0.9475 -0.1573
19766SOL     OW60513   7.748   1.798   3.325 -0.2006  0.1413  0.5953
19766SOL    HW160514   7.715   1.864   3.386 -1.5320 -0.8195  0.9469
19766SOL    HW260515   7.689   1.803   3.249 -1.2641 -1.6176  1.2432
19767SOL     OW60516   7.530   3.634   2.580 -0.1773 -0.1968  0.4608
19767SOL    HW160517   7.500   3.655   2.491 -3.2470 -1.2692  1.1266
19767SOL    HW260518   7.597   3.567   2.567  0.5141  0.7523 -1.0970
19768SOL     OW60519   7.264   3.353   2.995 -0.4605 -0.5005  0.1770
19768SOL    HW160520   7.221   3.321   3.074 -0.1227  1.7741  1.3738
19768SOL    HW260521   7.328   3.417   3.026 -0.2463  0.4192 -1.9321
19769SOL     OW60522   8.452   3.899   2.863  0.0316  0.7022  0.6024
19769SOL    HW160523   8.394   3.894   2.939  1.0110 -0.6464  1.2827
19769SOL    HW260524   8.395   3.877   2.789 -0.3839 -0.4071  1.2329
19770SOL     OW60525   7.661   2.752   2.201 -0.4675 -0.4512 -0.6561
19770SOL    HW160526   7.700   2.824   2.251 -0.2312  0.4545 -2.0890
19770SOL    HW260527   7.700   2.673   2.239  0.0104  0.2243  0.3043
19771SOL     OW60528   8.031   2.096   2.020  0.2566 -0.0337 -0.0487
19771SOL    HW160529   8.046   2.095   2.114 -0.0279  0.1354 -0.0000
19771SOL    HW260530   7.954   2.040   2.008  1.0691 -1.1215 -0.3213
19772SOL     OW60531   8.142   1.619   3.606 -0.2114  0.1280  0.4308
19772SOL    HW160532   8.139   1.644   3.698 -1.6063 -2.9763  1.3575
19772SOL    HW260533   8.054   1.639   3.573  0.1762  0.9041 -0.1569
19773SOL     OW60534   8.476   3.597   3.095 -0.4734  0.0747 -0.0640
19773SOL    HW160535   8.545   3.622   3.033  0.8731 -1.3189  0.7950
19773SOL    HW260536   8.395   3.603   3.044  0.2469  1.7108 -1.1253
19774SOL     OW60537   8.763   2.440   3.489 -0.0862 -0.1765  0.1084
19774SOL    HW160538   8.678   2.410   3.522 -0.2352 -0.8040 -0.8023
19774SOL    HW260539   8.810   2.360   3.467  1.8017 -0.0165  2.9937
19775SOL     OW60540   8.189   3.421   2.732  0.2099  0.2717  0.4483
19775SOL    HW160541   8.219   3.473   2.807 -0.4127  0.8598  0.3045
19775SOL    HW260542   8.206   3.477   2.656 -2.7180  1.4168  0.4818
19776SOL     OW60543   8.377   2.179   2.433  0.1880 -0.0072 -0.3375
19776SOL    HW160544   8.453   2.237   2.444 -0.2047  0.8501 -1.8394
19776SOL    HW260545   8.330   2.216   2.358  0.3143 -2.7328 -1.8586
19777SOL     OW60546   7.923   2.294   2.294 -0.0233 -0.1640  0.3554
19777SOL    HW160547   7.965   2.353   2.231 -0.1060  0.3202  0.7492
19777SOL    HW260548   7.846   2.261   2.248  0.2430 -0.2789 -0.0124
19778SOL     OW60549   8.759   2.339   1.410  0.3133 -0.0182  0.0789
19778SOL    HW160550   8.675   2.382   1.421  0.9579  1.5506 -0.7648
19778SOL    HW260551   8.745   2.275   1.340 -0.7282 -1.4510  1.5378
19779SOL     OW60552   7.871   1.853   1.986  0.3820 -0.2161 -0.2914
19779SOL    HW160553   7.893   1.764   1.959 -1.2058 -0.4103 -1.0013
19779SOL    HW260554   7.894   1.856   2.079  0.5105 -1.3423 -0.2770
19780SOL     OW60555   8.290   1.949   2.525 -0.0192  0.1702  0.2810
19780SOL    HW160556   8.333   2.034   2.514 -1.3264  0.7734 -0.3879
19780SOL    HW260557   8.307   1.925   2.616  1.9391  0.2347 -0.0180
19781SOL     OW60558   8.185   2.355   2.831  0.4221 -0.1540 -0.2768
19781SOL    HW160559   8.219   2.278   2.877 -1.0097 -0.2177  0.7541
19781SOL    HW260560   8.182   2.329   2.739 -1.7600 -2.0757  0.2412
19782SOL     OW60561   8.555   3.415   1.919 -0.0362  0.3016  0.4656
19782SOL    HW160562   8.540   3.510   1.919  0.1028  0.3846 -1.8677
19782SOL    HW260563   8.649   3.406   1.933  0.1484  0.5986 -0.4904
19783SOL     OW60564   7.518   2.716   2.708 -0.3091 -0.2198 -0.0327
19783SOL    HW160565   7.446   2.721   2.645  0.3441 -0.1008 -0.7755
19783SOL    HW260566   7.597   2.724   2.655  0.3017 -1.6008  0.6247
19784SOL     OW60567   8.766   3.303   2.234  0.1938 -0.3730  0.5824
19784SOL    HW160568   8.753   3.322   2.141 -0.5427 -2.1427  0.2766
19784SOL    HW260569   8.861   3.303   2.246  0.3534 -1.5397 -0.5216
19785SOL     OW60570   8.536   2.008   1.635  0.1018 -0.0924 -0.0377
19785SOL    HW160571   8.543   1.982   1.727  0.6378  0.0389 -0.0364
19785SOL    HW260572   8.485   2.089   1.638  0.8578  0.3866  0.2367
19786SOL     OW60573   7.542   2.068   2.589 -0.0825  0.2940  0.6662
19786SOL    HW160574   7.550   1.977   2.563  1.3385  0.9289 -1.4074
19786SOL    HW260575   7.515   2.114   2.510 -1.6956  1.5906  1.8976
19787SOL     OW60576   8.053   1.800   2.998  0.0729 -0.1637  0.3850
19787SOL    HW160577   7.969   1.833   2.969  0.2970  0.2088  0.1646
19787SOL    HW260578   8.106   1.878   3.016  0.4474 -0.3937  0.3013
19788SOL     OW60579   8.231   2.286   2.245 -0.1743  0.0114 -0.6358
19788SOL    HW160580   8.229   2.364   2.190 -1.3330 -0.1671 -0.8713
19788SOL    HW260581   8.157   2.297   2.305  1.3018  0.4024  1.1854
19789SOL     OW60582   8.376   1.934   2.788  0.4214 -0.7426 -0.1116
19789SOL    HW160583   8.297   1.977   2.822  0.1532 -2.2444  1.2971
19789SOL    HW260584   8.446   1.997   2.802 -0.4763  0.5694 -1.2756
19790SOL     OW60585   8.117   3.284   1.897 -0.1951 -0.2514 -0.6738
19790SOL    HW160586   8.209   3.273   1.922 -0.3428 -1.3343 -0.5782
19790SOL    HW260587   8.118   3.281   1.801 -0.0501  0.4567 -0.6981
19791SOL     OW60588   0.247   2.555   1.669  0.8540 -0.2834  0.0984
19791SOL    HW160589   0.197   2.556   1.587 -1.7319  1.2971  1.5625
19791SOL    HW260590   0.191   2.511   1.732  1.4734  1.1096  1.7195
19792SOL     OW60591   7.763   2.232   1.756 -0.4030 -0.1194 -0.1605
19792SOL    HW160592   7.712   2.182   1.821 -0.3371  1.3485  1.0825
19792SOL    HW260593   7.836   2.175   1.734 -1.8386 -1.7368 -0.9925
19793SOL     OW60594   8.057   3.184   2.738 -0.2389 -0.5119  0.5908
19793SOL    HW160595   8.056   3.164   2.832 -0.8073 -0.9645  0.4949
19793SOL    HW260596   8.102   3.268   2.732  0.4130 -0.8012  1.2048
19794SOL     OW60597   8.348   3.079   2.849  0.4511 -0.5009  0.4374
19794SOL    HW160598   8.270   3.110   2.895  0.2918  0.9189 -0.7071
19794SOL    HW260599   8.334   2.985   2.838 -0.2004 -0.6004  1.8873
19795SOL     OW60600   8.034   1.533   3.025  0.1435 -0.0020  0.1921
19795SOL    HW160601   8.090   1.505   2.952 -0.0580  0.1579 -0.0257
19795SOL    HW260602   8.052   1.627   3.034  0.4618 -0.1023  0.6061
19796SOL     OW60603   8.217   3.037   4.063 -0.0726 -0.6514 -0.0442
19796SOL    HW160604   8.181   3.028   3.975  0.3567  1.7838 -0.5378
19796SOL    HW260605   8.304   2.998   4.057  0.2263  0.1041 -0.9208
19797SOL     OW60606   8.346   2.954   1.872  0.5083 -0.0434 -0.1008
19797SOL    HW160607   8.325   3.036   1.916 -1.7386 -1.3474  1.4561
19797SOL    HW260608   8.270   2.935   1.817  1.2811 -0.7692 -0.9592
19798SOL     OW60609   7.704   2.533   3.141 -0.0119 -0.3977 -0.5167
19798SOL    HW160610   7.653   2.587   3.081  1.8643  1.5127 -0.5338
19798SOL    HW260611   7.761   2.481   3.084  0.0673 -0.3971 -0.4382
19799SOL     OW60612   8.405   1.967   3.088  0.1597 -0.6630 -0.4475
19799SOL    HW160613   8.400   1.927   3.175 -0.7095  0.5289  0.0809
19799SOL    HW260614   8.497   1.960   3.063  0.5033 -0.6437  0.7533
19800SOL     OW60615   7.816   3.738   3.042 -0.1462 -0.0146  0.0621
19800SOL    HW160616   7.744   3.733   2.980 -0.2891  1.0119  0.1180
19800SOL    HW260617   7.870   3.810   3.010  1.8607 -1.8562 -0.9818
19801SOL     OW60618   7.799   2.949   2.345 -0.0253  0.2173 -0.5173
19801SOL    HW160619   7.858   2.991   2.408 -2.6152  1.3300  1.3381
19801SOL    HW260620   7.746   3.021   2.311  0.8361 -0.4582 -3.6323
19802SOL     OW60621   8.049   1.801   2.513  0.2594 -0.7107 -0.0226
19802SOL    HW160622   8.066   1.713   2.479  2.0352 -0.8311  1.0116
19802SOL    HW260623   8.135   1.844   2.512 -0.4702  0.8236  0.0397
19803SOL     OW60624   8.802   3.059   2.714 -0.1081  0.4203 -0.5565
19803SOL    HW160625   8.828   3.090   2.800  0.7754 -0.1751 -0.5990
19803SOL    HW260626   8.821   3.131   2.655 -1.5218  1.1615 -0.1561
19804SOL     OW60627   8.738   3.459   2.930  0.3394 -0.3562  0.2326
19804SOL    HW160628   8.701   3.540   2.893 -1.6923 -0.8103  1.0928
19804SOL    HW260629   8.687   3.389   2.888 -0.7288 -0.9623  2.3738
19805SOL     OW60630   7.363   2.857   3.087 -0.0345 -0.7779  0.0888
19805SOL    HW160631   7.445   2.821   3.053  0.7768  0.1674  1.0079
19805SOL    HW260632   7.388   2.936   3.134 -1.6498  0.3901 -0.9065
19806SOL     OW60633   8.062   2.763   3.605  0.2112  0.0568 -0.1690
19806SOL    HW160634   8.100   2.812   3.532 -1.2109  0.4884 -0.6543
19806SOL    HW260635   8.078   2.671   3.584  1.6218  0.2337  0.0294
19807SOL     OW60636   8.233   1.681   3.293  0.1147 -0.2014 -0.0622
19807SOL    HW160637   8.231   1.627   3.372  0.6693 -0.0762  0.0411
19807SOL    HW260638   8.157   1.738   3.301 -0.2255 -0.6684  0.0391
19808SOL     OW60639   7.866   1.702   3.581  0.0952 -0.0732 -0.1224
19808SOL    HW160640   7.813   1.765   3.630  0.1151  1.2620 -1.7407
19808SOL    HW260641   7.801   1.642   3.543 -0.0731  0.1167 -0.1383
19809SOL     OW60642   7.931   2.813   2.736 -0.1155 -1.2149  0.0721
19809SOL    HW160643   7.865   2.782   2.674  0.8135 -0.5761 -1.2763
19809SOL    HW260644   7.989   2.868   2.684  1.4884 -1.7409  1.2187
19810SOL     OW60645   8.493   2.649   3.131 -0.0240  0.3306 -0.0174
19810SOL    HW160646   8.467   2.625   3.042 -0.2339  0.1450  0.0926
19810SOL    HW260647   8.588   2.658   3.127  0.1703 -1.4046  0.1483
19811SOL     OW60648   0.180   2.956   2.093 -0.4420 -0.5045 -0.3883
19811SOL    HW160649   0.211   2.915   2.012  0.1787 -1.1514  0.1638
19811SOL    HW260650   0.260   2.968   2.145 -0.9482 -0.9161  0.4909
19812SOL     OW60651   7.457   1.897   3.568  0.5141  0.3461  0.7214
19812SOL    HW160652   7.449   1.990   3.589 -1.3091  0.1203  1.1729
19812SOL    HW260653   7.369   1.871   3.542  0.9202 -1.3609  0.9653
19813SOL     OW60654   7.180   2.608   3.435  0.2628  0.5083  0.2153
19813SOL    HW160655   7.184   2.689   3.486  0.6258  0.1824  0.7231
19813SOL    HW260656   7.089   2.580   3.442  0.4404  0.1294  1.2517
19814SOL     OW60657   8.305   2.796   2.776  0.0365 -0.0137 -0.0977
19814SOL    HW160658   8.371   2.737   2.741 -1.5524 -1.2543 -1.1682
19814SOL    HW260659   8.232   2.738   2.801 -1.2062  1.4031 -0.2795
19815SOL     OW60660   7.722   2.220   2.138 -0.4241  0.0628  0.2263
19815SOL    HW160661   7.627   2.228   2.139 -0.4235  0.0626  0.2634
19815SOL    HW260662   7.743   2.190   2.050 -0.3659  1.1392 -0.1347
19816SOL     OW60663   0.552   2.066   1.753  0.0099  0.0259  0.1089
19816SOL    HW160664   0.521   2.062   1.663 -0.1326  3.3331 -0.1083
19816SOL    HW260665   0.489   2.013   1.802 -0.5869 -0.8658 -1.5534
19817SOL     OW60666   8.553   2.430   2.473 -0.1258 -0.2610 -0.0299
19817SOL    HW160667   8.585   2.511   2.432 -0.5840  1.3127  2.4510
19817SOL    HW260668   8.626   2.401   2.528  0.2252 -1.8907 -1.3035
19818SOL     OW60669   8.177   2.851   3.348  0.9694  0.0758 -0.2544
19818SOL    HW160670   8.175   2.756   3.336 -2.7786  0.1651 -1.5213
19818SOL    HW260671   8.146   2.886   3.264  1.7612  2.4366  0.3709
19819SOL     OW60672   8.150   2.850   3.872  0.1710 -0.2209  0.1637
19819SOL    HW160673   8.193   2.775   3.914  0.6754 -0.1460 -0.2080
19819SOL    HW260674   8.121   2.817   3.787  0.7650  0.1116 -0.1745
19820SOL     OW60675   0.075   2.457   2.081  0.0094 -0.3667  0.0934
19820SOL    HW160676   0.130   2.402   2.024 -0.0340 -0.1191 -0.1879
19820SOL    HW260677   0.138   2.499   2.140  0.1074 -0.2434 -0.0940
19821SOL     OW60678   8.190   3.073   2.328 -0.1465  0.2968 -0.3044
19821SOL    HW160679   8.125   3.081   2.258  0.5738 -0.9875 -1.1589
19821SOL    HW260680   8.267   3.037   2.285  0.1424 -1.0497  1.2652
19822SOL     OW60681   7.880   2.431   2.706  0.4161 -0.6259 -0.4109
19822SOL    HW160682   7.963   2.416   2.660  1.6535 -0.5910  1.6955
19822SOL    HW260683   7.831   2.350   2.694  1.8416 -1.6639  0.4222
19823SOL     OW60684   7.761   2.195   2.694  0.5665 -0.0208  0.0083
19823SOL    HW160685   7.789   2.127   2.756 -1.3266 -0.1742  0.7736
19823SOL    HW260686   7.681   2.160   2.655  1.1677  0.5341 -1.8105
19824SOL     OW60687   8.256   2.433   3.167 -0.3635 -0.3546 -0.6760
19824SOL    HW160688   8.256   2.424   3.072 -1.8459 -1.8940 -0.5824
19824SOL    HW260689   8.220   2.351   3.199  2.6875 -1.0610  1.3983
19825SOL     OW60690   8.372   1.483   3.084  0.0071 -0.1307  0.1218
19825SOL    HW160691   8.345   1.493   2.992 -1.8408 -0.6732  0.5500
19825SOL    HW260692   8.300   1.523   3.133  0.9754  0.1448  1.3365
19826SOL     OW60693   7.491   3.408   2.003 -0.1869 -0.0061  0.4012
19826SOL    HW160694   7.418   3.439   2.055 -0.7261  0.8907 -0.8306
19826SOL    HW260695   7.525   3.333   2.051 -2.1743 -0.7097  0.7994
19827SOL     OW60696   7.315   3.565   2.748  0.3366  0.2957 -0.1455
19827SOL    HW160697   7.258   3.584   2.674  0.0896  0.2392  0.0307
19827SOL    HW260698   7.404   3.580   2.714  0.3261 -1.1369 -0.8825
19828SOL     OW60699   7.787   3.148   2.698 -1.0684 -0.0100 -0.3025
19828SOL    HW160700   7.878   3.169   2.681 -0.9251 -0.7392 -0.4537
19828SOL    HW260701   7.783   3.132   2.792 -0.9838 -0.2207 -0.3330
19829SOL     OW60702   8.109   2.665   2.927  0.2776  0.0604  0.5379
19829SOL    HW160703   8.113   2.573   2.952 -1.1295  0.3656  2.0834
19829SOL    HW260704   8.058   2.666   2.846  0.4648 -0.5360  0.4117
19830SOL     OW60705   7.556   2.350   3.288  0.1106 -0.3199  0.4031
19830SOL    HW160706   7.596   2.427   3.248  2.6037 -1.8399 -0.2558
19830SOL    HW260707   7.545   2.288   3.216 -0.0229 -1.2886  1.2270
19831SOL     OW60708   8.036   2.274   3.723  0.5653  0.4148 -0.1666
19831SOL    HW160709   8.038   2.337   3.651 -1.4222  0.5884 -0.1231
19831SOL    HW260710   7.969   2.210   3.698  0.8653 -0.3389  0.8784
19832SOL     OW60711   7.955   2.515   2.096  0.3166 -0.2613 -0.6544
19832SOL    HW160712   7.975   2.599   2.138  1.3563 -1.2525  0.9595
19832SOL    HW260713   7.876   2.532   2.044 -0.4641  1.3332  0.9373
19833SOL     OW60714   7.844   2.902   3.828 -0.5343 -0.1415 -0.3065
19833SOL    HW160715   7.860   2.984   3.875 -0.3167 -0.4206  0.1083
19833SOL    HW260716   7.927   2.854   3.833 -1.3617 -1.5149  1.6971
19834SOL     OW60717   8.267   2.189   3.020  0.1986 -0.1782 -0.1276
19834SOL    HW160718   8.247   2.185   3.113  0.4078  0.4296 -0.0493
19834SOL    HW260719   8.312   2.106   3.001 -0.4483 -0.6013  0.1536
19835SOL     OW60720   8.301   3.152   3.191 -0.0357  0.2003 -0.5107
19835SOL    HW160721   8.330   3.062   3.203 -0.1475  0.2483  0.1535
19835SOL    HW260722   8.382   3.201   3.176  0.1502  0.1705  0.3189
19836SOL     OW60723   7.595   1.982   1.603 -0.1101  0.6486 -0.2308
19836SOL    HW160724   7.519   2.026   1.563  0.2939  0.4085 -1.3022
19836SOL    HW260725   7.593   2.009   1.695 -2.8953 -1.2432  0.3918
19837SOL     OW60726   7.513   2.394   2.854 -0.2427  0.1580  0.2649
19837SOL    HW160727   7.550   2.368   2.770  0.0020  0.2528  0.3446
19837SOL    HW260728   7.501   2.488   2.847  0.4878  0.2798  0.6170
19838SOL     OW60729   8.410   2.897   3.153  0.4470  0.3151 -0.4002
19838SOL    HW160730   8.325   2.885   3.112  1.1063  0.7168 -1.9556
19838SOL    HW260731   8.449   2.810   3.154 -0.2675 -0.0299  1.0803
19839SOL     OW60732   0.405   3.050   2.186  0.3912 -0.3763  0.0882
19839SOL    HW160733   0.487   3.055   2.136 -0.7868  0.3545 -1.8618
19839SOL    HW260734   0.423   3.100   2.266  1.3503  1.2151 -1.0552
19840SOL     OW60735   8.647   3.669   2.814  0.2489 -0.1708  0.9403
19840SOL    HW160736   8.608   3.751   2.843  1.9274  0.6113  1.1362
19840SOL    HW260737   8.714   3.695   2.751  0.5891 -1.4152  0.7553
19841SOL     OW60738   7.188   2.880   2.843  0.3929  0.1301 -0.0464
19841SOL    HW160739   7.165   2.796   2.804  1.5435 -0.6396  0.8422
19841SOL    HW260740   7.224   2.856   2.929  1.3178  1.4856 -0.0408
19842SOL     OW60741   8.071   3.153   3.424  0.1992 -0.4441 -0.0932
19842SOL    HW160742   8.151   3.195   3.392  0.3496 -1.1448 -0.6647
19842SOL    HW260743   8.089   3.059   3.415 -0.7209 -0.6034 -0.2953
19843SOL     OW60744   0.192   3.288   2.357 -0.3879  0.6593 -0.1100
19843SOL    HW160745   0.253   3.337   2.303  0.6608 -0.1525  0.3082
19843SOL    HW260746   0.230   3.290   2.445 -0.7407 -0.1911  0.0774
19844SOL     OW60747   7.479   3.482   3.540  0.0543 -0.3046  0.1181
19844SOL    HW160748   7.554   3.465   3.483 -0.3466  2.6066 -1.4467
19844SOL    HW260749   7.411   3.423   3.506  0.6809 -0.6673 -0.5427
19845SOL     OW60750   8.645   2.817   2.575  0.4364 -0.4883  0.8484
19845SOL    HW160751   8.712   2.885   2.580 -1.3183  1.3437  0.8858
19845SOL    HW260752   8.633   2.802   2.481  1.1551 -1.1264  0.8486
19846SOL     OW60753   8.077   3.173   3.000  0.3557 -0.3231 -0.4258
19846SOL    HW160754   7.996   3.188   3.049  0.3815  2.7428 -1.1020
19846SOL    HW260755   8.144   3.163   3.068 -0.1299  0.3064  0.1660
19847SOL     OW60756   8.112   3.560   2.126  0.1823  0.7199  0.2931
19847SOL    HW160757   8.112   3.655   2.135  1.5519  0.7168  0.4472
19847SOL    HW260758   8.062   3.544   2.046  0.0318  1.5673  0.2100
19848SOL     OW60759   7.475   1.976   2.866  0.5372  0.5378  0.1129
19848SOL    HW160760   7.417   2.052   2.859  0.4381  0.3345 -1.5735
19848SOL    HW260761   7.529   1.979   2.787  1.2780 -0.5473  0.5532
19849SOL     OW60762   8.755   3.128   1.607 -0.4037 -0.1728  0.1709
19849SOL    HW160763   8.784   3.083   1.527  0.6382  0.0826  0.3784
19849SOL    HW260764   8.687   3.072   1.643 -0.2282 -0.7753 -0.4025
19850SOL     OW60765   7.818   2.871   2.970  0.1961  0.2296  0.2429
19850SOL    HW160766   7.864   2.860   2.886  1.4582 -0.8291  1.0222
19850SOL    HW260767   7.807   2.965   2.980 -0.1938  0.3605 -1.2144
19851SOL     OW60768   8.753   2.854   1.937  0.0739  0.2880 -0.2484
19851SOL    HW160769   8.792   2.891   2.016  0.2745 -1.5915  0.5850
19851SOL    HW260770   8.827   2.836   1.879  0.3288 -1.5623  0.5875
19852SOL     OW60771   7.738   3.155   2.982  0.0998 -0.0226  0.3445
19852SOL    HW160772   7.787   3.231   3.014  0.4443 -0.0573 -0.0918
19852SOL    HW260773   7.669   3.143   3.046 -0.0856  0.7892  0.3166
19853SOL     OW60774   8.621   2.751   2.842  0.5148  0.0411  0.4410
19853SOL    HW160775   8.661   2.664   2.835 -2.0579 -1.1738 -0.6232
19853SOL    HW260776   8.635   2.790   2.756  0.2690 -0.0057  0.3781
19854SOL     OW60777   8.708   2.133   2.493 -0.5686 -0.3151 -0.3067
19854SOL    HW160778   8.732   2.167   2.407  1.3470 -0.0996  0.2692
19854SOL    HW260779   8.758   2.186   2.555  1.0461 -2.8614  0.7438
19855SOL     OW60780   7.784   3.885   2.429  0.9156 -0.6415 -0.0026
19855SOL    HW160781   7.837   3.810   2.457 -0.9600 -1.8566  0.5364
19855SOL    HW260782   7.809   3.899   2.338  2.7735 -0.5659  0.4738
19856SOL     OW60783   8.034   3.373   2.390 -0.0288  0.1672  0.4668
19856SOL    HW160784   7.985   3.367   2.308  0.1284  0.8591  0.3155
19856SOL    HW260785   8.118   3.331   2.371  0.3126  1.0104  0.0176
19857SOL     OW60786   7.707   3.086   3.358 -0.1617 -0.3003  0.1064
19857SOL    HW160787   7.684   3.124   3.443  1.3782 -3.2257  1.9940
19857SOL    HW260788   7.756   3.007   3.380  1.1842 -0.6505 -3.5617
19858SOL     OW60789   8.059   1.861   3.392  0.3505  0.0660  0.0456
19858SOL    HW160790   8.102   1.927   3.445 -1.5030 -0.4140  2.3370
19858SOL    HW260791   7.986   1.831   3.446 -2.3820  0.2503 -3.1806
19859SOL     OW60792   7.408   2.420   1.615 -0.1315 -0.1518  0.5403
19859SOL    HW160793   7.384   2.330   1.595 -1.5113  0.3823 -0.3136
19859SOL    HW260794   7.463   2.413   1.693 -2.3616 -1.5473  2.0966
19860SOL     OW60795   8.680   2.695   3.597  0.0046  0.2695  0.3658
19860SOL    HW160796   8.712   2.609   3.568  2.0048  1.4024 -0.9900
19860SOL    HW260797   8.655   2.740   3.516  2.2672  2.1788  0.6396
19861SOL     OW60798   7.667   2.015   1.878 -0.0351 -0.6742  0.0565
19861SOL    HW160799   7.586   1.964   1.876  0.7134 -1.8913 -1.0052
19861SOL    HW260800   7.730   1.957   1.920  0.2866  0.2833  0.9224
19862SOL     OW60801   8.570   2.960   1.743  0.0757 -0.5783  0.0973
19862SOL    HW160802   8.638   2.929   1.803  1.1834 -2.8981 -2.1423
19862SOL    HW260803   8.489   2.954   1.793  1.0390 -1.6117  1.6360
19863SOL     OW60804   8.008   2.593   3.260 -0.2192 -0.3914  0.3207
19863SOL    HW160805   7.968   2.584   3.173 -0.2052  0.6101  0.1935
19863SOL    HW260806   8.096   2.556   3.250 -0.0165  0.2167 -0.2620
19864SOL     OW60807   8.264   2.562   3.785  0.4686  0.2724 -0.5474
19864SOL    HW160808   8.351   2.544   3.821 -0.4824 -0.2854  1.6348
19864SOL    HW260809   8.206   2.560   3.861 -1.4481  0.7499 -1.9346
19865SOL     OW60810   8.606   2.839   3.394  0.8744 -0.2103 -0.1259
19865SOL    HW160811   8.648   2.924   3.407  0.1833  0.2733 -0.9795
19865SOL    HW260812   8.519   2.860   3.360 -0.0070 -1.2005  1.4146
19866SOL     OW60813   7.797   3.654   4.193  0.1394  0.3103  0.1738
19866SOL    HW160814   7.850   3.731   4.172  0.8793 -0.3505 -0.4340
19866SOL    HW260815   7.859   3.591   4.230 -0.8433  0.8258  2.9325
19867SOL     OW60816   8.741   2.125   2.190 -0.9035  0.1075  0.6355
19867SOL    HW160817   8.825   2.169   2.201 -0.6024 -0.2318 -0.2556
19867SOL    HW260818   8.710   2.153   2.104 -0.1004 -2.3984 -0.5447
19868SOL     OW60819   7.757   2.750   2.546 -0.5136 -0.1915  0.0167
19868SOL    HW160820   7.767   2.808   2.471  1.8779 -0.0310  0.3972
19868SOL    HW260821   7.771   2.662   2.511 -0.3113 -0.1972  0.1115
19869SOL     OW60822   8.461   3.277   2.252  0.1699 -0.6144 -0.6057
19869SOL    HW160823   8.431   3.365   2.229 -0.2745 -0.4612  0.4783
19869SOL    HW260824   8.556   3.280   2.239  0.0260 -0.3482 -1.7064
19870SOL     OW60825   7.918   3.239   3.213  0.0244  0.5522  0.3866
19870SOL    HW160826   7.863   3.175   3.257  1.5074 -1.0647  0.0391
19870SOL    HW260827   7.983   3.265   3.278  0.2369  0.6846  0.1271
19871SOL     OW60828   8.356   2.589   2.614 -0.4865 -0.4370 -0.1498
19871SOL    HW160829   8.399   2.522   2.561  0.2051  0.2339 -0.4419
19871SOL    HW260830   8.291   2.628   2.556 -0.2499 -0.2189 -0.2676
19872SOL     OW60831   8.134   2.911   1.704 -0.1972 -0.2944 -0.1332
19872SOL    HW160832   8.055   2.885   1.657  0.3964 -2.8268  0.1350
19872SOL    HW260833   8.179   2.970   1.644 -1.8757  0.5711 -0.6146
19873SOL     OW60834   7.835   2.829   3.275  0.3209  0.1166 -0.0519
19873SOL    HW160835   7.804   2.841   3.185 -1.2840 -0.9928  0.3030
19873SOL    HW260836   7.905   2.764   3.268  0.3657  0.2130 -0.5197
19874SOL     OW60837   7.372   3.090   2.489  0.0732  0.1213 -0.5073
19874SOL    HW160838   7.281   3.084   2.459 -0.5553  1.5628  0.9606
19874SOL    HW260839   7.375   3.033   2.565  0.7194 -0.7624 -1.1720
19875SOL     OW60840   7.667   3.405   3.104  0.4633  0.0380 -0.2387
19875SOL    HW160841   7.591   3.463   3.099  0.9071  0.5965 -0.5805
19875SOL    HW260842   7.677   3.386   3.197  0.0320  0.1251 -0.1707
19876SOL     OW60843   7.792   2.484   1.878 -0.2662 -0.0209 -0.6862
19876SOL    HW160844   7.700   2.464   1.895 -0.1911  0.6670  0.6701
19876SOL    HW260845   7.826   2.405   1.834 -1.4705 -0.2970 -1.1586
19877SOL     OW60846   7.915   2.404   2.990  0.8939  0.8505  0.3450
19877SOL    HW160847   7.910   2.309   2.980  0.7783  0.9476 -0.6847
19877SOL    HW260848   7.928   2.436   2.901 -1.8640  1.9752  0.2252
19878SOL     OW60849   7.951   3.856   2.769  0.3408  0.1103 -0.3746
19878SOL    HW160850   8.030   3.843   2.718  0.5377 -0.1243 -0.0073
19878SOL    HW260851   7.897   3.779   2.750  0.4483 -0.0161 -0.1641
19879SOL     OW60852   8.437   2.516   2.882 -0.3737  0.0788  0.4925
19879SOL    HW160853   8.365   2.453   2.880 -0.3423  0.0406  0.5706
19879SOL    HW260854   8.446   2.544   2.791  0.1319 -0.6191  0.3251
19880SOL     OW60855   8.103   1.546   2.468  0.6766 -0.5330 -0.2092
19880SOL    HW160856   8.195   1.534   2.442  0.4028 -1.7281 -0.7173
19880SOL    HW260857   8.076   1.459   2.498 -0.2505 -0.1543  0.0721
19881SOL     OW60858   8.397   2.989   2.550 -0.0753  0.1654 -0.7030
19881SOL    HW160859   8.372   2.898   2.537 -0.5728  0.0839  0.6625
19881SOL    HW260860   8.374   3.008   2.641  1.4288  1.2028 -0.4880
19882SOL     OW60861   7.613   3.781   2.835  0.0701 -0.2300  0.0050
19882SOL    HW160862   7.585   3.736   2.755  1.7098 -1.9262  0.3192
19882SOL    HW260863   7.662   3.857   2.802  0.7971 -0.9517 -0.6431
19883SOL     OW60864   8.498   2.446   2.098 -0.3954 -0.0737  0.0128
19883SOL    HW160865   8.405   2.466   2.108 -0.8570 -1.7941 -0.4658
19883SOL    HW260866   8.534   2.520   2.049 -1.4401  0.7677  0.4968
19884SOL     OW60867   7.660   3.189   2.478  0.0756  0.0480  0.3190
19884SOL    HW160868   7.567   3.165   2.478 -0.3014  1.3784 -0.0720
19884SOL    HW260869   7.694   3.156   2.561 -0.9251  0.1422  0.7819
19885SOL     OW60870   7.968   3.661   2.442 -0.2290 -0.3447  0.3033
19885SOL    HW160871   8.015   3.581   2.422 -0.5712 -0.0966 -1.7755
19885SOL    HW260872   7.997   3.723   2.375 -0.7353  0.9597  1.2442
19886SOL     OW60873   7.680   2.440   3.890 -0.2346 -0.1735 -0.2482
19886SOL    HW160874   7.601   2.493   3.903 -0.1314  0.1384 -0.8364
19886SOL    HW260875   7.691   2.437   3.795 -0.6359 -1.8578 -0.2709
19887SOL     OW60876   7.682   2.186   5.006  0.3949  0.3247  0.1817
19887SOL    HW160877   7.738   2.110   5.021 -0.4901 -0.0963  1.5441
19887SOL    HW260878   7.644   2.171   4.920 -1.4431 -1.9485  1.2777
19888SOL     OW60879   7.451   2.192   4.661 -0.4477  0.5562  0.4095
19888SOL    HW160880   7.433   2.278   4.699  2.5084  1.3359  0.2675
19888SOL    HW260881   7.461   2.134   4.736 -0.1892  0.8527  0.6085
19889SOL     OW60882   7.975   3.168   4.657 -0.0289  0.2601  0.5133
19889SOL    HW160883   7.926   3.086   4.647 -3.4654  2.3565 -3.6777
19889SOL    HW260884   7.920   3.222   4.714  0.1614  0.8575  0.1460
19890SOL     OW60885   0.076   3.381   4.624 -0.6028 -0.1970 -0.1166
19890SOL    HW160886   0.001   3.399   4.681 -1.2735 -2.3628 -0.2445
19890SOL    HW260887   0.058   3.431   4.544 -2.1433 -1.0104 -0.3113
19891SOL     OW60888   8.530   2.331   4.274 -0.5703 -0.5472  0.6227
19891SOL    HW160889   8.577   2.295   4.198 -0.2148  1.7502 -0.3369
19891SOL    HW260890   8.598   2.348   4.339 -0.4705 -0.0165  0.3882
19892SOL     OW60891   8.090   2.689   5.213 -0.3445  0.3060 -0.4641
19892SOL    HW160892   8.059   2.677   5.123 -0.4426  0.8263 -0.5041
19892SOL    HW260893   8.079   2.603   5.254  0.6848 -0.2330 -1.2473
19893SOL     OW60894   8.415   2.329   5.600 -0.7307 -0.0039 -0.5149
19893SOL    HW160895   8.418   2.237   5.574 -0.3105  0.0602 -0.6940
19893SOL    HW260896   8.453   2.330   5.688 -1.9959 -0.1953  0.0736
19894SOL     OW60897   8.305   2.781   4.884  0.4124 -0.7157 -0.2802
19894SOL    HW160898   8.333   2.798   4.794  0.7051  0.2703 -0.0204
19894SOL    HW260899   8.211   2.796   4.883  0.3831 -0.9029 -0.4605
19895SOL     OW60900   8.116   2.976   5.764  0.3643  0.6074  0.0442
19895SOL    HW160901   8.194   3.026   5.740  1.5717 -1.5921 -0.9587
19895SOL    HW260902   8.044   3.037   5.751  1.8900  2.8731  1.4636
19896SOL     OW60903   8.255   3.140   4.716 -0.1186  0.2267 -0.4260
19896SOL    HW160904   8.168   3.169   4.692 -0.3714  0.6043  0.8522
19896SOL    HW260905   8.270   3.062   4.662 -1.2084  0.1998 -0.7174
19897SOL     OW60906   7.454   2.086   5.134  0.1363  0.3038  0.2544
19897SOL    HW160907   7.538   2.105   5.093  0.0982 -0.8869 -0.3967
19897SOL    HW260908   7.471   2.011   5.192 -0.2438  0.7424  0.9601
19898SOL     OW60909   7.706   3.532   3.919 -0.0337 -0.1454  0.1400
19898SOL    HW160910   7.747   3.558   3.837  0.3801 -1.9704 -0.2909
19898SOL    HW260911   7.751   3.582   3.986  0.9274 -0.0059 -0.5928
19899SOL     OW60912   8.628   3.235   5.853  0.5383  0.2710 -0.0238
19899SOL    HW160913   8.553   3.285   5.886  0.9785  2.0111 -1.5033
19899SOL    HW260914   8.683   3.220   5.930  0.5321  2.3879  0.4602
19900SOL     OW60915   7.383   3.732   4.023 -0.4768 -0.2827  0.2589
19900SOL    HW160916   7.287   3.738   4.021 -0.4582  0.1273 -1.7535
19900SOL    HW260917   7.408   3.711   3.933  1.2690 -2.1299  1.0900
19901SOL     OW60918   8.040   2.877   4.806  0.1368 -0.2463 -0.7702
19901SOL    HW160919   8.001   2.945   4.752 -0.6856 -1.2849 -1.5429
19901SOL    HW260920   7.978   2.804   4.801  1.5644 -1.5000 -0.9889
19902SOL     OW60921   8.056   3.462   5.083  0.1874 -0.0801  0.2072
19902SOL    HW160922   8.112   3.529   5.122  1.0274  0.3671 -1.6397
19902SOL    HW260923   8.057   3.390   5.146  1.8717  0.3944  0.7764
19903SOL     OW60924   8.109   2.693   4.373 -0.0851  0.3480 -0.0094
19903SOL    HW160925   8.066   2.721   4.292 -0.4397  0.0887  0.0818
19903SOL    HW260926   8.155   2.612   4.350  1.8695  1.5647 -0.5475
19904SOL     OW60927   7.487   2.720   4.472 -0.3448 -0.2487  0.2439
19904SOL    HW160928   7.539   2.648   4.507 -0.8360 -1.0431 -0.6334
19904SOL    HW260929   7.397   2.700   4.500 -0.8170 -1.1117 -1.7346
19905SOL     OW60930   7.424   3.097   3.587 -0.5592 -0.7006 -0.1585
19905SOL    HW160931   7.396   3.075   3.676  0.5814 -0.9952  0.1386
19905SOL    HW260932   7.428   3.013   3.541 -3.5133 -0.3783 -1.2670
19906SOL     OW60933   0.229   2.632   4.166  0.3466  0.1923 -0.1928
19906SOL    HW160934   0.286   2.704   4.143  0.3681  0.3572  0.3818
19906SOL    HW260935   0.249   2.564   4.101  0.4264  0.6438 -0.6439
19907SOL     OW60936   7.435   2.886   5.107  0.2315 -0.4546  0.5921
19907SOL    HW160937   7.490   2.848   5.175 -0.4009 -0.2611  1.2223
19907SOL    HW260938   7.460   2.839   5.027 -0.2633 -1.9266  1.2776
19908SOL     OW60939   7.787   3.349   4.351  0.2175  0.4872 -0.1878
19908SOL    HW160940   7.755   3.259   4.339 -1.3175  1.0122 -0.2410
19908SOL    HW260941   7.724   3.389   4.409  1.6847  1.1434  1.0172
19909SOL     OW60942   8.135   3.092   5.009 -0.1942 -0.2496 -0.0563
19909SOL    HW160943   8.225   3.110   4.982  0.5216 -0.7099  1.8932
19909SOL    HW260944   8.108   3.019   4.954  1.2073 -1.1544  0.4077
19910SOL     OW60945   8.040   2.308   4.216 -0.6783 -0.2094  0.4516
19910SOL    HW160946   8.129   2.274   4.213 -1.0035 -1.1464  1.0042
19910SOL    HW260947   8.016   2.322   4.125  0.1744  0.4638  0.3162
19911SOL     OW60948   7.736   2.780   5.104  0.1263 -0.7756 -0.4584
19911SOL    HW160949   7.678   2.734   5.165 -3.3438  2.5618 -0.8776
19911SOL    HW260950   7.752   2.716   5.034 -2.7582 -2.0912 -0.0599
19912SOL     OW60951   0.309   3.766   5.354 -0.1035  0.2731 -0.1040
19912SOL    HW160952   0.221   3.751   5.388 -1.2475 -1.3558 -3.3561
19912SOL    HW260953   0.295   3.796   5.264  2.6842  0.9262 -0.4149
19913SOL     OW60954   7.605   1.884   5.722  0.9911 -0.1146  1.0414
19913SOL    HW160955   7.598   1.946   5.795 -0.2389  0.7860  0.1937
19913SOL    HW260956   7.620   1.940   5.645 -0.9425 -0.7759  0.1410
19914SOL     OW60957   8.280   2.208   4.178  0.7702 -0.2939 -0.2769
19914SOL    HW160958   8.356   2.253   4.216 -0.2533  1.6931 -0.4207
19914SOL    HW260959   8.273   2.244   4.090 -0.4363 -0.2824 -0.1956
19915SOL     OW60960   8.740   1.733   4.414 -0.3872 -0.6411 -0.0851
19915SOL    HW160961   8.817   1.680   4.437  0.4597  0.7763  0.4770
19915SOL    HW260962   8.716   1.704   4.326  0.5507 -1.3700 -0.1189
19916SOL     OW60963   8.294   2.017   5.458  0.2996 -0.4671 -0.5838
19916SOL    HW160964   8.241   2.073   5.402  2.2839  2.9071  0.5984
19916SOL    HW260965   8.380   2.015   5.416  1.6786  1.6970  1.8928
19917SOL     OW60966   0.119   1.844   5.509 -0.3908  0.4329 -0.4950
19917SOL    HW160967   0.081   1.904   5.445 -0.0188  0.8005 -0.3800
19917SOL    HW260968   0.070   1.861   5.589 -0.5436  0.3085 -0.5628
19918SOL     OW60969   8.430   2.673   5.629  0.1165  0.5509 -0.2097
19918SOL    HW160970   8.464   2.754   5.591  0.2037  0.8236  0.4418
19918SOL    HW260971   8.338   2.671   5.601 -0.0229  1.1347  0.1879
19919SOL     OW60972   8.177   2.345   4.852 -0.2022  0.4715 -0.0659
19919SOL    HW160973   8.225   2.263   4.840  0.7473  1.0694 -0.4157
19919SOL    HW260974   8.243   2.413   4.842 -0.9381  1.2778  0.4774
19920SOL     OW60975   8.668   2.215   4.079 -0.1876 -0.2125  0.6960
19920SOL    HW160976   8.629   2.205   3.992  1.4732 -0.6140 -0.0377
19920SOL    HW260977   8.654   2.130   4.121 -0.4046 -0.2370  0.5769
19921SOL     OW60978   7.226   2.680   4.539  0.3419  0.1831  0.3375
19921SOL    HW160979   7.185   2.594   4.548  0.4506  0.1486  0.5079
19921SOL    HW260980   7.180   2.735   4.602 -0.9723  0.7179 -1.0231
19922SOL     OW60981   7.530   3.330   5.473  0.4936  0.1163  0.2699
19922SOL    HW160982   7.527   3.272   5.549  0.8814 -0.5636 -0.2105
19922SOL    HW260983   7.478   3.406   5.498  0.4128 -0.2051  1.1177
19923SOL     OW60984   8.410   1.862   3.797  0.1732 -0.3353 -0.0224
19923SOL    HW160985   8.321   1.832   3.818  0.9651 -1.5868  1.7223
19923SOL    HW260986   8.455   1.785   3.765  1.1942 -0.1935  1.0151
19924SOL     OW60987   8.783   2.469   4.126 -0.5171 -0.6043 -0.2299
19924SOL    HW160988   8.748   2.522   4.055 -0.5096 -1.3272 -0.7767
19924SOL    HW260989   8.762   2.379   4.102 -1.0210 -0.8236  0.9618
19925SOL     OW60990   7.965   2.237   4.702 -0.0443  0.4112  0.1155
19925SOL    HW160991   8.026   2.300   4.740 -0.3190  0.7642 -0.0223
19925SOL    HW260992   7.995   2.226   4.612 -2.0923  3.1529 -1.0512
19926SOL     OW60993   8.164   3.291   4.128 -0.1560  0.6895 -0.6466
19926SOL    HW160994   8.238   3.344   4.099  1.2869 -0.9701 -0.1093
19926SOL    HW260995   8.191   3.201   4.115 -0.3965 -0.1554  3.3038
19927SOL     OW60996   7.804   3.884   4.537  0.2555 -0.0701  0.3932
19927SOL    HW160997   7.741   3.819   4.566  0.2630  0.0031  0.5717
19927SOL    HW260998   7.869   3.889   4.607  1.2786 -1.2223 -0.4351
19928SOL     OW60999   8.811   3.512   5.270 -0.7745  0.0356  0.1586
19928SOL    HW161000   8.897   3.499   5.229 -0.7059  0.9139  0.0131
19928SOL    HW261001   8.791   3.427   5.310 -1.4930 -1.3922 -2.8825
19929SOL     OW61002   7.980   2.783   4.127 -0.4543  0.2449 -0.0645
19929SOL    HW161003   7.888   2.766   4.106 -0.4668  0.7617 -0.4585
19929SOL    HW261004   8.029   2.744   4.054 -0.3000 -0.8762  0.6275
19930SOL     OW61005   8.160   3.184   6.008  0.1416  0.0716  0.2216
19930SOL    HW161006   8.187   3.105   6.054  0.0434 -0.5004 -0.6911
19930SOL    HW261007   8.081   3.158   5.960  0.2962  0.6298 -0.3466
19931SOL     OW61008   8.533   3.249   3.548 -0.0326 -0.1725  0.1059
19931SOL    HW161009   8.463   3.293   3.499  0.1371 -1.1704 -1.0769
19931SOL    HW261010   8.487   3.198   3.615 -0.3518  0.1530  0.1396
19932SOL     OW61011   7.655   2.039   5.498 -0.0869 -0.2848  0.6822
19932SOL    HW161012   7.741   2.073   5.472 -0.9217  1.1499 -0.3368
19932SOL    HW261013   7.626   1.988   5.423 -0.4945 -0.0185  0.6556
19933SOL     OW61014   7.720   3.279   3.853 -0.0850 -0.5274 -0.5850
19933SOL    HW161015   7.702   3.373   3.863 -0.6983 -0.4821 -1.8232
19933SOL    HW261016   7.793   3.262   3.911 -0.2542  0.6322 -0.0004
19934SOL     OW61017   7.575   3.205   4.676 -0.3124  0.0819  0.7233
19934SOL    HW161018   7.497   3.152   4.695 -0.7004  1.2992  2.9224
19934SOL    HW261019   7.648   3.153   4.711 -0.2901 -0.4222 -0.0528
19935SOL     OW61020   8.008   3.456   4.244  0.3608 -0.2179 -0.3717
19935SOL    HW161021   7.938   3.409   4.290  0.1872  0.7029  0.3231
19935SOL    HW261022   8.073   3.388   4.224  0.7930 -0.5412  1.9072
19936SOL     OW61023   7.665   2.530   4.553  0.1287 -0.3996 -0.2799
19936SOL    HW161024   7.680   2.477   4.475 -0.8524 -1.4367  0.2107
19936SOL    HW261025   7.674   2.468   4.626 -0.4458  0.2285  0.3363
19937SOL     OW61026   8.199   2.424   3.552 -0.1567 -0.1025  0.1946
19937SOL    HW161027   8.255   2.460   3.483 -0.2945  0.1427  0.2077
19937SOL    HW261028   8.223   2.472   3.631 -0.5310  0.1527  0.1557
19938SOL     OW61029   8.540   2.085   5.342 -0.1094  0.0412  0.0070
19938SOL    HW161030   8.523   2.170   5.301 -1.4410 -1.2019 -2.2157
19938SOL    HW261031   8.635   2.075   5.337 -0.1014  0.5990 -1.5313
19939SOL     OW61032   8.519   3.600   4.700 -0.0061  0.2012 -0.1975
19939SOL    HW161033   8.555   3.631   4.617 -0.2192  1.0840  0.0315
19939SOL    HW261034   8.478   3.517   4.678  1.5151 -0.4817 -0.6042
19940SOL     OW61035   8.541   2.896   5.445 -0.5071 -0.2885 -0.7362
19940SOL    HW161036   8.562   2.890   5.352 -3.2016 -1.8919 -1.3363
19940SOL    HW261037   8.617   2.858   5.489  0.8292  0.5264 -2.2266
19941SOL     OW61038   8.373   2.815   4.617  0.1081 -0.2028 -0.2812
19941SOL    HW161039   8.402   2.734   4.575  4.9014  2.2577 -2.4407
19941SOL    HW261040   8.309   2.852   4.556 -0.0970 -1.0911 -0.6189
19942SOL     OW61041   8.689   2.452   4.801 -0.1757 -0.6841  0.7361
19942SOL    HW161042   8.599   2.421   4.817 -0.4734  0.2301  0.8994
19942SOL    HW261043   8.686   2.546   4.821  0.4687 -0.3413 -0.6642
19943SOL     OW61044   7.409   1.434   3.979 -0.3326 -0.7738 -0.0206
19943SOL    HW161045   7.478   1.407   4.040 -0.8384 -1.1772  0.3811
19943SOL    HW261046   7.399   1.527   3.995 -2.2445 -1.2928  2.3997
19944SOL     OW61047   8.701   2.668   3.954  0.5460  0.0809  0.1430
19944SOL    HW161048   8.751   2.710   3.884  0.9259 -0.8188 -0.1372
19944SOL    HW261049   8.702   2.732   4.026  1.4500  0.3932 -0.1321
19945SOL     OW61050   7.355   1.978   3.886 -0.4673  0.1970  0.0776
19945SOL    HW161051   7.342   2.021   3.971  1.2232  1.0420 -0.0643
19945SOL    HW261052   7.335   2.045   3.822  1.9273  0.7564 -0.1495
19946SOL     OW61053   8.652   1.864   3.963 -0.2066  0.1319 -0.6974
19946SOL    HW161054   8.562   1.876   3.933 -0.4966 -0.0923  0.0507
19946SOL    HW261055   8.705   1.910   3.898 -0.9732  1.6391 -0.3014
19947SOL     OW61056   8.374   2.622   5.251 -0.0287 -0.0215  0.2991
19947SOL    HW161057   8.398   2.558   5.183 -0.1895  0.0284  0.1965
19947SOL    HW261058   8.302   2.672   5.213 -1.0813 -0.9159  1.0383
19948SOL     OW61059   8.639   3.702   4.471  0.2825  0.1669  0.0208
19948SOL    HW161060   8.705   3.632   4.466  0.7959  0.5790  0.8575
19948SOL    HW261061   8.690   3.782   4.459 -0.1110  0.4700  0.3855
19949SOL     OW61062   8.114   2.627   4.648  0.6355 -0.4844 -0.2122
19949SOL    HW161063   8.027   2.640   4.686  0.9580 -0.0543  0.4059
19949SOL    HW261064   8.106   2.660   4.558  0.2711 -0.0427 -0.0221
19950SOL     OW61065   8.612   3.443   3.917 -0.2461 -0.1457 -0.4438
19950SOL    HW161066   8.650   3.357   3.935 -0.2712  0.0926  0.8455
19950SOL    HW261067   8.678   3.505   3.947 -0.3352  0.2862 -1.1305
19951SOL     OW61068   8.153   2.069   3.536 -0.6239  0.7555 -0.4273
19951SOL    HW161069   8.061   2.085   3.557 -0.9205 -0.5658 -0.6042
19951SOL    HW261070   8.202   2.128   3.594 -1.5249 -0.3053  1.5295
19952SOL     OW61071   7.201   2.605   4.873  0.3447 -0.7476  0.7872
19952SOL    HW161072   7.205   2.698   4.853  1.6449 -1.4708 -3.6036
19952SOL    HW261073   7.110   2.581   4.856  0.2137 -0.4173  1.0166
19953SOL     OW61074   8.167   2.197   5.310  0.2022  0.3728 -0.7660
19953SOL    HW161075   8.223   2.267   5.275  0.8820  0.3236  0.1816
19953SOL    HW261076   8.103   2.243   5.365 -1.2636  0.5122 -2.4968
19954SOL     OW61077   8.406   1.942   4.215  0.2537  0.2542  0.3788
19954SOL    HW161078   8.352   2.013   4.181  1.0049  0.3296 -0.7132
19954SOL    HW261079   8.382   1.866   4.163 -1.4620 -0.6804  2.3666
19955SOL     OW61080   8.320   1.700   4.073  0.4933 -0.4251 -0.4028
19955SOL    HW161081   8.388   1.653   4.026  1.1270 -0.8424  0.8810
19955SOL    HW261082   8.247   1.704   4.012  1.9602  0.8812 -2.1833
19956SOL     OW61083   7.711   3.412   3.397  0.3611  0.3067 -0.1024
19956SOL    HW161084   7.728   3.348   3.466 -0.3804 -1.4259 -1.4401
19956SOL    HW261085   7.794   3.457   3.384  0.8155 -0.1667  1.0944
19957SOL     OW61086   8.491   2.117   3.490  0.0415 -0.9828  0.4340
19957SOL    HW161087   8.471   2.060   3.415  2.3438  0.8886 -1.7527
19957SOL    HW261088   8.552   2.066   3.543  0.2092 -1.4463 -0.1954
19958SOL     OW61089   7.797   1.642   3.902  0.2850  0.5562 -0.1137
19958SOL    HW161090   7.765   1.555   3.876  2.6122 -0.0527 -1.2270
19958SOL    HW261091   7.761   1.701   3.835 -3.3610  1.0110  1.9885
19959SOL     OW61092   8.401   3.172   4.989  0.2801 -0.1398  0.1856
19959SOL    HW161093   8.393   3.266   5.001  1.0416  0.0224 -0.4630
19959SOL    HW261094   8.418   3.160   4.896 -0.2829 -0.9566  0.1757
19960SOL     OW61095   8.500   2.911   4.999 -0.5414  0.2704 -0.1349
19960SOL    HW161096   8.423   2.872   4.958  0.0377  1.2414 -2.2549
19960SOL    HW261097   8.483   3.006   4.997  1.0652  0.5746 -1.5164
19961SOL     OW61098   8.403   1.886   5.081  0.3704 -0.4194 -0.4357
19961SOL    HW161099   8.474   1.849   5.028 -0.6857 -2.1178 -0.7534
19961SOL    HW261100   8.406   1.836   5.163 -0.2517 -0.2919 -0.3293
19962SOL     OW61101   8.325   3.036   5.544 -0.2110 -0.2254 -0.0069
19962SOL    HW161102   8.265   2.961   5.548  0.6425 -0.8802  0.8850
19962SOL    HW261103   8.395   3.007   5.485 -0.1582  0.0778 -0.0919
19963SOL     OW61104   8.437   2.547   4.117 -0.0693 -0.1684  0.2928
19963SOL    HW161105   8.490   2.515   4.189  1.4421  2.1637  0.3100
19963SOL    HW261106   8.480   2.513   4.038  0.2278  0.0299  0.3709
19964SOL     OW61107   7.990   2.501   5.421  0.0297 -0.0392  0.1424
19964SOL    HW161108   7.976   2.595   5.409 -0.9041 -0.0576  0.9083
19964SOL    HW261109   8.079   2.494   5.454  0.0026  0.6074  0.3680
19965SOL     OW61110   8.776   2.164   4.946 -0.5746  0.3847 -0.1531
19965SOL    HW161111   8.837   2.142   4.875 -1.2999 -1.2141 -0.3223
19965SOL    HW261112   8.690   2.143   4.911 -0.7804 -3.7143  2.2010
19966SOL     OW61113   7.724   2.999   4.784  0.5744 -0.7051 -0.3681
19966SOL    HW161114   7.676   2.918   4.802 -0.3274 -0.0562  0.1891
19966SOL    HW261115   7.777   3.013   4.863 -0.1125 -0.1619 -0.0005
19967SOL     OW61116   7.461   3.411   4.016 -0.1663  0.2290  0.1320
19967SOL    HW161117   7.486   3.319   4.008 -0.7564 -0.0147  0.9668
19967SOL    HW261118   7.533   3.459   3.975 -0.1885 -0.6252 -0.9628
19968SOL     OW61119   8.095   2.200   4.466 -0.0550  0.3509  0.0102
19968SOL    HW161120   8.077   2.217   4.374  1.7479 -3.0316 -1.0981
19968SOL    HW261121   8.189   2.211   4.475  0.0397 -1.0437  1.0219
19969SOL     OW61122   0.003   2.927   4.136 -0.6670 -0.2882 -0.4711
19969SOL    HW161123   0.033   2.924   4.227  0.3643 -1.0949 -0.8260
19969SOL    HW261124  -0.079   2.977   4.140 -0.6307 -0.2986  0.8931
19970SOL     OW61125   8.709   3.153   4.851 -0.8075 -0.0085 -0.3362
19970SOL    HW161126   8.790   3.103   4.856  0.3041  1.7827  0.5388
19970SOL    HW261127   8.658   3.110   4.783  1.8609  0.1762 -2.6414
19971SOL     OW61128   7.804   3.626   5.085  0.1345 -0.1293 -0.6129
19971SOL    HW161129   7.888   3.582   5.075  0.9590  1.3157 -0.2263
19971SOL    HW261130   7.739   3.558   5.065  1.3628 -1.3822 -0.4686
19972SOL     OW61131   7.819   2.294   5.474 -0.2023 -0.3387 -0.7997
19972SOL    HW161132   7.821   2.274   5.568 -0.4785  0.5636 -0.5943
19972SOL    HW261133   7.885   2.362   5.463  0.0130 -0.6264 -1.3130
19973SOL     OW61134   8.615   1.714   5.819  0.3908  0.0344  0.4437
19973SOL    HW161135   8.599   1.740   5.909 -0.0306  0.2181  0.3204
19973SOL    HW261136   8.529   1.721   5.776  0.9009  1.6871 -0.4094
19974SOL     OW61137   7.980   2.013   5.623  0.1612  0.0955  0.4012
19974SOL    HW161138   8.070   1.988   5.603  0.3909  2.0996 -1.4297
19974SOL    HW261139   7.989   2.094   5.673 -0.5193  2.3585 -2.8424
19975SOL     OW61140   7.855   2.427   5.173 -0.4290  0.2481  0.3334
19975SOL    HW161141   7.788   2.359   5.177  1.2354 -1.5572 -0.3645
19975SOL    HW261142   7.868   2.454   5.264 -1.5508  0.0793  0.5487
19976SOL     OW61143   0.345   2.663   4.569  0.3555 -0.2572  0.7069
19976SOL    HW161144   0.414   2.666   4.503  1.0870 -0.4125  1.4602
19976SOL    HW261145   0.284   2.596   4.537 -1.3447  2.2183 -1.7710
19977SOL     OW61146   0.143   2.184   3.872 -0.0750  0.1205 -0.0997
19977SOL    HW161147   0.116   2.094   3.852  0.4413  0.0923 -0.7219
19977SOL    HW261148   0.232   2.175   3.905 -0.0844  0.3885 -0.0039
19978SOL     OW61149   7.833   1.955   5.092  0.0943  0.1350  0.5494
19978SOL    HW161150   7.790   1.902   5.159 -0.0636 -2.0803 -1.1906
19978SOL    HW261151   7.926   1.951   5.115 -0.0985  0.7684  1.5102
19979SOL     OW61152   7.304   3.101   5.127  0.0417  0.6396  0.0910
19979SOL    HW161153   7.344   3.015   5.139  0.0253  0.1435 -2.5810
19979SOL    HW261154   7.362   3.145   5.065  0.9618  3.3016  2.6444
19980SOL     OW61155   8.101   2.449   5.078 -0.3905  0.4671 -0.8713
19980SOL    HW161156   8.018   2.409   5.103 -0.1473 -0.5715 -1.6448
19980SOL    HW261157   8.116   2.419   4.988  0.7413  0.7578 -0.7936
19981SOL     OW61158   7.505   2.082   4.251  0.0755  0.1006  0.0582
19981SOL    HW161159   7.559   2.154   4.220  0.0678 -0.2461 -0.7888
19981SOL    HW261160   7.562   2.034   4.312 -0.6765  2.1189  2.4833
19982SOL     OW61161   0.209   2.418   4.507  0.1163 -0.1328 -0.0327
19982SOL    HW161162   0.259   2.336   4.507 -0.8828 -0.7816 -1.3850
19982SOL    HW261163   0.190   2.435   4.599  0.4355 -1.3765  0.2757
19983SOL     OW61164   8.355   2.519   4.623 -0.3375 -0.1936  0.4900
19983SOL    HW161165   8.267   2.554   4.633  0.1274  0.8269  1.2602
19983SOL    HW261166   8.383   2.497   4.712  0.2765 -0.2666  0.2862
19984SOL     OW61167   8.146   3.648   5.280 -0.1162  0.1738  0.3099
19984SOL    HW161168   8.228   3.652   5.328  0.5986  2.2252 -0.9751
19984SOL    HW261169   8.079   3.657   5.348  0.6237 -2.0298  1.4305
19985SOL     OW61170   7.868   2.760   5.452 -0.2883 -0.2703 -0.0792
19985SOL    HW161171   7.803   2.731   5.517  0.2150 -2.8927 -0.6292
19985SOL    HW261172   7.818   2.770   5.371 -0.5009  0.6872  0.1581
19986SOL     OW61173   8.728   1.993   3.597  0.3197 -0.0593 -0.1705
19986SOL    HW161174   8.778   1.983   3.678 -0.0456  0.4449  0.1258
19986SOL    HW261175   8.714   1.904   3.566 -2.3185 -0.5764  2.0576
19987SOL     OW61176   8.648   3.121   4.170  0.6477  0.0386 -0.8988
19987SOL    HW161177   8.673   3.173   4.246 -0.6031  0.8518 -1.0189
19987SOL    HW261178   8.673   3.174   4.094 -1.4634  0.9345 -1.0203
19988SOL     OW61179   7.858   2.679   4.776  0.3382 -0.0825  0.4796
19988SOL    HW161180   7.817   2.593   4.791 -2.5473  1.3872  1.7885
19988SOL    HW261181   7.816   2.711   4.696 -0.2861  1.0267  1.2421
19989SOL     OW61182   7.651   2.459   4.903  0.2480  0.5094  0.2763
19989SOL    HW161183   7.556   2.447   4.905  0.0172  1.9942 -0.4615
19989SOL    HW261184   7.687   2.375   4.934 -1.2927 -0.0085  0.7369
19990SOL     OW61185   8.810   1.963   5.304  0.4542  0.4147 -0.2343
19990SOL    HW161186   8.756   1.899   5.258 -1.3648  1.6607  0.0748
19990SOL    HW261187   8.849   2.015   5.235 -0.2268  0.6623 -0.4424
19991SOL     OW61188   0.277   1.926   4.922  0.0420  0.2275  0.1677
19991SOL    HW161189   0.219   1.892   4.991  0.1320  0.8808  0.5694
19991SOL    HW261190   0.364   1.922   4.961  0.3538 -1.2287 -0.6186
19992SOL     OW61191   7.563   2.938   3.790  0.2340 -0.1152  0.2907
19992SOL    HW161192   7.547   2.868   3.726 -0.1304 -1.2942  1.6193
19992SOL    HW261193   7.657   2.935   3.805  0.2772 -0.0418  0.0317
19993SOL     OW61194   7.593   3.711   4.635  0.0075  0.4288 -0.1798
19993SOL    HW161195   7.573   3.618   4.641  2.4073 -0.1294  0.6245
19993SOL    HW261196   7.537   3.744   4.565 -1.7842 -1.3201  0.3367
19994SOL     OW61197   7.990   3.010   4.317  0.0990 -0.5950  0.4107
19994SOL    HW161198   8.020   2.961   4.240  1.0658  0.3523  0.1653
19994SOL    HW261199   7.912   3.056   4.286 -0.1211 -1.0337  0.3025
19995SOL     OW61200   8.512   2.420   5.119 -0.3333  0.6126 -0.7642
19995SOL    HW161201   8.514   2.330   5.087 -0.1295  1.0877 -2.2042
19995SOL    HW261202   8.599   2.433   5.158 -0.3428  0.2082 -0.6035
19996SOL     OW61203   7.055   2.236   4.766 -0.5551  0.0422 -0.0846
19996SOL    HW161204   7.125   2.282   4.720 -1.2652  0.5602 -0.6849
19996SOL    HW261205   7.094   2.207   4.848 -0.1214  1.9210  0.4127
19997SOL     OW61206   7.077   3.146   5.260 -0.3064  0.4178 -0.1499
19997SOL    HW161207   7.161   3.137   5.216  0.9608 -1.3281  2.3617
19997SOL    HW261208   7.088   3.223   5.316 -0.5601  0.4816 -0.1878
19998SOL     OW61209   8.262   2.301   3.929 -1.0181  0.0205  0.6659
19998SOL    HW161210   8.351   2.268   3.921 -0.3183  1.9482  0.0971
19998SOL    HW261211   8.222   2.282   3.844  0.1065  2.5409 -0.5266
19999SOL     OW61212   7.792   3.663   5.704 -0.2595 -0.4970 -0.2770
19999SOL    HW161213   7.697   3.650   5.713 -0.6159  2.3541  1.3638
19999SOL    HW261214   7.829   3.621   5.782 -0.5162  0.8877  0.6139
20000SOL     OW61215   8.504   2.161   4.956 -0.2085  0.4979  0.4970
20000SOL    HW161216   8.427   2.154   4.899 -0.4929 -1.0345  1.0127
20000SOL    HW261217   8.508   2.076   5.001  1.5291  0.7044  0.8096
20001SOL     OW61218   8.417   3.423   5.020  0.3126 -0.0433  0.0938
20001SOL    HW161219   8.389   3.411   5.111  1.3854 -0.3387  0.4044
20001SOL    HW261220   8.478   3.497   5.023 -0.0957  0.3266 -0.4910
20002SOL     OW61221   8.141   2.570   4.018  0.4028  0.5245  0.0714
20002SOL    HW161222   8.213   2.530   4.067  0.7775  0.8273 -0.2253
20002SOL    HW261223   8.066   2.514   4.037  1.0821 -0.7997 -0.9786
20003SOL     OW61224   7.877   3.324   4.923  0.4458 -0.2849 -0.3773
20003SOL    HW161225   7.953   3.366   4.964 -1.2798  1.3827  1.2780
20003SOL    HW261226   7.867   3.242   4.971  0.0995  0.3639  0.6712
20004SOL     OW61227   8.608   2.962   4.670 -0.7388  0.0489 -0.1033
20004SOL    HW161228   8.520   2.924   4.674 -0.6145 -0.2102  0.2244
20004SOL    HW261229   8.637   2.948   4.580 -0.7563 -0.4894 -0.0281
20005SOL     OW61230   8.743   2.356   4.458 -0.3725  0.3175 -0.0543
20005SOL    HW161231   8.715   2.273   4.496  0.0917  0.3331  0.3334
20005SOL    HW261232   8.747   2.416   4.533 -0.3447  0.5898 -0.2746
20006SOL     OW61233   0.136   3.642   4.886 -0.7533 -0.3621  0.3061
20006SOL    HW161234   0.100   3.554   4.893  0.9983 -1.4513 -2.4699
20006SOL    HW261235   0.075   3.689   4.829  0.3304 -1.1791 -1.6507
20007SOL     OW61236   7.992   3.511   4.748  0.0555  0.4695  0.0309
20007SOL    HW161237   7.916   3.460   4.775 -1.3941  2.4545 -0.0721
20007SOL    HW261238   8.060   3.487   4.811 -0.7867 -0.9907  0.4254
20008SOL     OW61239   8.406   3.315   5.553  0.2106 -0.7660  0.2075
20008SOL    HW161240   8.347   3.350   5.619 -0.0225  0.1594 -0.4667
20008SOL    HW261241   8.366   3.232   5.526 -1.6009  0.4909 -1.2479
20009SOL     OW61242   0.072   3.380   4.204 -0.2326 -0.1525 -0.5122
20009SOL    HW161243   0.159   3.361   4.169  1.4654  1.3729  2.4365
20009SOL    HW261244   0.045   3.299   4.247  0.2949 -0.2952 -0.4419
20010SOL     OW61245   7.361   3.541   5.518 -0.3010 -0.0654 -0.0058
20010SOL    HW161246   7.291   3.489   5.557  0.1472 -0.9294 -0.3198
20010SOL    HW261247   7.315   3.610   5.470 -0.9016 -0.0415  0.5845
20011SOL     OW61248   8.688   2.916   4.417 -0.5196  0.3864 -0.0123
20011SOL    HW161249   8.625   2.881   4.354 -1.2522  2.8998 -0.8132
20011SOL    HW261250   8.773   2.881   4.389 -0.8826  1.0996 -2.1960
20012SOL     OW61251   8.688   3.162   5.158 -0.5547 -0.4469 -0.1151
20012SOL    HW161252   8.617   3.189   5.217 -0.4769  0.8864 -0.6007
20012SOL    HW261253   8.654   3.178   5.070  0.4688  0.6001 -0.3483
20013SOL     OW61254   8.246   3.501   3.801 -0.5693 -0.4754  0.0306
20013SOL    HW161255   8.213   3.416   3.772 -0.3732 -0.2850 -0.7821
20013SOL    HW261256   8.290   3.537   3.724 -0.6405  0.3560  0.3664
20014SOL     OW61257   7.716   2.137   4.545  0.6483  0.0968 -0.1994
20014SOL    HW161258   7.786   2.148   4.610  0.7007 -0.4026 -0.1689
20014SOL    HW261259   7.642   2.184   4.583  0.0385 -1.8671  1.2387
20015SOL     OW61260   8.132   3.266   3.671 -0.1446  0.2255 -0.2236
20015SOL    HW161261   8.204   3.204   3.685  0.0111  0.7430  1.5525
20015SOL    HW261262   8.066   3.216   3.624  0.9416 -0.5753 -0.9571
20016SOL     OW61263   8.038   3.202   5.231 -0.3824  0.4186  0.3501
20016SOL    HW161264   8.043   3.137   5.301 -1.2005  0.7327  0.7111
20016SOL    HW261265   8.080   3.160   5.156 -0.6436 -0.4139  0.6610
20017SOL     OW61266   8.544   2.458   3.886 -0.4430  0.0257 -0.2852
20017SOL    HW161267   8.583   2.413   3.811 -3.2041 -1.6200 -0.9177
20017SOL    HW261268   8.606   2.527   3.908  1.1380 -0.2806 -3.2155
20018SOL     OW61269   8.026   3.248   5.682  0.1248 -0.0066 -0.4744
20018SOL    HW161270   8.099   3.310   5.688 -2.6775  3.5576  0.4204
20018SOL    HW261271   7.983   3.269   5.599 -0.7141 -1.0162 -0.3220
20019SOL     OW61272   8.566   2.786   4.195 -0.1214  0.0761  0.2749
20019SOL    HW161273   8.531   2.839   4.123 -2.1603 -0.4410  0.8061
20019SOL    HW261274   8.519   2.703   4.190  1.2868 -0.8048  0.9076
20020SOL     OW61275   8.456   1.769   4.466  0.1383  0.0986  0.4916
20020SOL    HW161276   8.416   1.775   4.379 -0.3120  1.1628  0.7635
20020SOL    HW261277   8.525   1.702   4.456  0.1620  0.2825 -0.7055
20021SOL     OW61278   7.402   3.457   4.302 -0.0416  0.3160  0.1829
20021SOL    HW161279   7.425   3.461   4.209 -0.7337 -1.1471 -0.0851
20021SOL    HW261280   7.481   3.486   4.347  1.1383 -1.1761 -0.8135
20022SOL     OW61281   7.672   3.237   3.590 -0.1641 -0.2666  0.0206
20022SOL    HW161282   7.712   3.242   3.677  0.0714 -0.7158 -0.0596
20022SOL    HW261283   7.596   3.180   3.602 -0.1988 -0.2347 -0.0436
20023SOL     OW61284   8.029   3.018   5.455 -0.0433  0.2604 -0.4537
20023SOL    HW161285   7.985   2.936   5.433  0.5877 -0.0498 -0.5805
20023SOL    HW261286   7.984   3.050   5.532 -1.0002  0.3427 -1.0332
20024SOL     OW61287   8.089   1.964   5.132 -0.6719 -0.0999 -0.0166
20024SOL    HW161288   8.176   1.945   5.096 -0.6012 -0.1043  0.1531
20024SOL    HW261289   8.102   2.042   5.186 -0.6978 -0.3041  0.2896
20025SOL     OW61290   7.876   2.056   3.589 -0.2132  0.1044  0.2778
20025SOL    HW161291   7.815   2.005   3.643 -0.3141  0.1303  0.1864
20025SOL    HW261292   7.821   2.113   3.536 -0.0803  0.7057  0.7718
20026SOL     OW61293   0.032   2.613   4.991  0.1142  0.1409 -0.5086
20026SOL    HW161294  -0.024   2.682   4.957 -0.3608 -0.0206 -0.0622
20026SOL    HW261295   0.040   2.550   4.919 -0.2430  0.1839 -0.5840
20027SOL     OW61296   6.864   1.948   4.030  0.1537 -0.1479 -0.3630
20027SOL    HW161297   6.780   1.984   4.057  0.4489  1.0943 -1.0459
20027SOL    HW261298   6.875   1.870   4.084  0.1417  1.5300  2.2271
20028SOL     OW61299   8.500   2.918   3.949 -0.0173  0.1406  0.2468
20028SOL    HW161300   8.487   2.843   3.891  0.5495 -0.6427  1.1014
20028SOL    HW261301   8.580   2.959   3.918 -0.8726  1.0135 -0.8591
20029SOL     OW61302   8.255   2.480   5.468 -0.4243 -0.1038 -0.2789
20029SOL    HW161303   8.313   2.450   5.538 -1.7720 -1.0190  0.4683
20029SOL    HW261304   8.313   2.529   5.409  0.9740 -0.4088  0.7916
20030SOL     OW61305   8.700   2.292   5.505  0.4718 -0.3177  0.3284
20030SOL    HW161306   8.668   2.375   5.469  1.3190  0.3858  1.1286
20030SOL    HW261307   8.662   2.287   5.593 -0.4218 -1.3083 -0.0960
20031SOL     OW61308   8.711   2.847   5.163  0.0337 -0.0393  0.6384
20031SOL    HW161309   8.630   2.885   5.129  0.8957  0.5093 -0.9273
20031SOL    HW261310   8.767   2.923   5.179  0.0076 -0.3645  2.4091
20032SOL     OW61311   7.893   3.599   5.448 -0.7075 -0.4104 -0.3797
20032SOL    HW161312   7.858   3.657   5.380 -0.4408 -0.4592 -0.5615
20032SOL    HW261313   7.841   3.620   5.526 -0.3168  0.3953 -0.3241
20033SOL     OW61314   8.838   1.578   3.959  0.6618 -0.4964  0.5372
20033SOL    HW161315   8.770   1.529   4.005  0.5461 -1.5129 -0.6353
20033SOL    HW261316   8.893   1.613   4.028 -1.4095  0.9533  1.5665
20034SOL     OW61317   8.359   2.276   4.462  0.6696  0.5024  0.1877
20034SOL    HW161318   8.419   2.293   4.389  0.9025  0.6587  0.4173
20034SOL    HW261319   8.340   2.363   4.498  0.4026  0.4424  0.1954
20035SOL     OW61320   8.326   3.033   3.735  0.5843  0.6424  0.0782
20035SOL    HW161321   8.261   2.997   3.796 -0.8363  1.4221 -0.9152
20035SOL    HW261322   8.367   2.956   3.696  0.1354  0.1293  0.5861
20036SOL     OW61323   8.043   3.635   4.453  0.2765  0.1710  0.5472
20036SOL    HW161324   8.010   3.587   4.529 -0.7423  0.0425  0.0376
20036SOL    HW261325   8.038   3.572   4.381 -0.0088  0.6973  0.1020
20037SOL     OW61326   8.403   2.500   4.893 -0.4290  0.3197 -0.1700
20037SOL    HW161327   8.420   2.463   4.980 -0.9183  0.4802 -0.0071
20037SOL    HW261328   8.390   2.593   4.909  0.6336  0.5597 -0.5593
20038SOL     OW61329   8.762   2.303   3.789  0.4410 -0.0572  0.1261
20038SOL    HW161330   8.816   2.358   3.732  1.6829 -1.1817  0.1461
20038SOL    HW261331   8.826   2.253   3.840 -0.6522 -0.5213  1.0600
20039SOL     OW61332   7.898   3.326   5.463 -0.0737  0.4161 -0.5425
20039SOL    HW161333   7.918   3.419   5.454 -0.6650  0.4842 -1.2577
20039SOL    HW261334   7.925   3.287   5.380 -1.3987  0.2474 -0.9080
20040SOL     OW61335   7.619   2.878   4.283  0.1674  0.3538  0.1175
20040SOL    HW161336   7.643   2.806   4.224  1.0392 -0.1835  1.0909
20040SOL    HW261337   7.562   2.837   4.348  0.9740  0.4369  0.8983
20041SOL     OW61338   8.333   3.345   5.270  0.1777 -0.1182  0.0418
20041SOL    HW161339   8.350   3.354   5.364 -0.7372 -1.3745  0.3572
20041SOL    HW261340   8.265   3.278   5.264 -0.7552  0.8843 -1.4511
20042SOL     OW61341   7.789   2.324   4.355  0.3784  0.1426 -0.1237
20042SOL    HW161342   7.879   2.331   4.323  0.4612 -0.7500 -0.1154
20042SOL    HW261343   7.787   2.241   4.402 -0.4832  0.0998 -0.2254
20043SOL     OW61344   7.630   2.399   5.328  0.5699 -0.1700  0.2763
20043SOL    HW161345   7.694   2.360   5.388  0.6482  1.4211  1.2891
20043SOL    HW261346   7.549   2.351   5.345  0.8363 -0.3907  0.9517
20044SOL     OW61347   7.954   3.180   4.006  0.8853 -0.0699 -0.1805
20044SOL    HW161348   7.947   3.139   4.092  1.0767 -0.3434 -0.2947
20044SOL    HW261349   8.012   3.255   4.019 -4.1425  4.1256  1.5018
20045SOL     OW61350   0.111   2.150   5.128  0.3463  0.2317 -0.4311
20045SOL    HW161351   0.027   2.156   5.083  0.3558 -0.3877 -0.5324
20045SOL    HW261352   0.176   2.153   5.058  0.3229 -2.7888 -0.7037
20046SOL     OW61353   8.588   1.801   4.877  0.2424  0.4700  0.2468
20046SOL    HW161354   8.654   1.813   4.809  0.3161  2.8901  0.6477
20046SOL    HW261355   8.507   1.783   4.829  0.7864 -0.4654 -0.3389
20047SOL     OW61356   8.211   2.945   4.451 -0.2083 -0.1458 -0.2588
20047SOL    HW161357   8.178   2.859   4.423  2.7428 -0.3813 -3.8938
20047SOL    HW261358   8.156   3.007   4.404  0.5311 -0.3123 -1.3973
20048SOL     OW61359   7.873   3.874   5.035  0.3025  0.3242 -0.1037
20048SOL    HW161360   7.837   3.786   5.049 -1.1878  0.7563 -0.9670
20048SOL    HW261361   7.938   3.885   5.104  0.0135 -1.1832  0.4498
20049SOL     OW61362   0.038   1.942   3.821  0.0213  0.0627 -0.8715
20049SOL    HW161363   0.060   1.918   3.912  2.7124  0.6290 -1.2741
20049SOL    HW261364   0.067   1.867   3.769 -0.3458  0.2566 -1.3569
20050SOL     OW61365   7.427   2.576   4.150  0.3934  0.4691 -0.1729
20050SOL    HW161366   7.408   2.488   4.182  0.7463  0.6498  0.5612
20050SOL    HW261367   7.429   2.567   4.055 -0.8882 -0.0414 -0.1740
20051SOL     OW61368   8.079   3.602   3.974  0.2022  0.3286  0.5332
20051SOL    HW161369   8.149   3.579   3.914 -1.2025  0.0136 -1.0686
20051SOL    HW261370   8.093   3.546   4.051 -0.3981 -2.5417 -1.3084
20052SOL     OW61371   7.622   2.672   5.345 -0.1444 -0.1415  0.3707
20052SOL    HW161372   7.537   2.678   5.390 -0.7982  0.6865 -0.9082
20052SOL    HW261373   7.636   2.578   5.335 -1.9640 -0.3213 -1.2155
20053SOL     OW61374   7.773   2.325   6.582  0.0220 -0.4507 -0.0609
20053SOL    HW161375   7.756   2.378   6.504  0.5860  0.0972  0.1742
20053SOL    HW261376   7.709   2.356   6.646  0.0312 -0.3962 -0.0780
20054SOL     OW61377   7.241   2.454   6.066  0.0672  0.0703 -0.1414
20054SOL    HW161378   7.179   2.427   6.134  1.3791  0.1421  1.1109
20054SOL    HW261379   7.308   2.386   6.067  0.6561  0.6366 -0.6203
20055SOL     OW61380   7.576   3.171   7.042 -0.2729  0.1021  0.1875
20055SOL    HW161381   7.670   3.159   7.056 -0.3863  0.0771  0.9663
20055SOL    HW261382   7.549   3.231   7.111 -1.2699 -1.7330  1.4757
20056SOL     OW61383   8.738   3.340   6.146 -0.1863 -0.0333  0.2379
20056SOL    HW161384   8.812   3.399   6.159  0.1118 -0.4163  0.2894
20056SOL    HW261385   8.661   3.395   6.160  0.0942 -0.0156  1.9094
20057SOL     OW61386   8.458   2.389   6.290 -0.2514 -0.0013 -0.0353
20057SOL    HW161387   8.462   2.342   6.373  0.6227 -0.1077 -0.1332
20057SOL    HW261388   8.382   2.447   6.299 -0.7377 -0.7025  0.4617
20058SOL     OW61389   7.807   2.830   7.124 -0.1017  0.1599  0.1670
20058SOL    HW161390   7.717   2.817   7.154 -0.8340  2.8112 -0.6236
20058SOL    HW261391   7.825   2.923   7.140  1.1182  0.6323 -3.1536
20059SOL     OW61392   8.292   3.045   7.461 -0.0179  0.0847  0.3952
20059SOL    HW161393   8.297   3.124   7.406 -0.5770 -0.0533  0.1367
20059SOL    HW261394   8.201   3.042   7.490 -0.5089 -1.4418 -1.0981
20060SOL     OW61395   8.049   2.739   5.917 -0.6262  0.3739 -0.6249
20060SOL    HW161396   8.079   2.813   5.864 -1.6648 -0.3039 -2.2205
20060SOL    HW261397   7.961   2.764   5.945 -1.3086 -0.5624 -1.8511
20061SOL     OW61398   8.169   3.035   6.896  0.1418  0.3789  0.0181
20061SOL    HW161399   8.127   3.119   6.876 -0.8043  0.1898  1.1824
20061SOL    HW261400   8.216   3.050   6.978  1.9502  0.4195 -0.9515
20062SOL     OW61401   7.537   3.466   6.595 -0.0064  0.2394 -0.1448
20062SOL    HW161402   7.556   3.401   6.663 -0.2295  1.0307  0.6880
20062SOL    HW261403   7.452   3.439   6.560 -0.2442  0.2577  0.4127
20063SOL     OW61404   7.918   2.278   7.050 -0.0885  0.2804  0.6868
20063SOL    HW161405   7.894   2.233   6.969 -0.8993  0.5191  0.7871
20063SOL    HW261406   7.945   2.365   7.022  1.5996 -0.2800  0.4797
20064SOL     OW61407   7.189   3.147   6.540 -0.3651 -0.1072 -0.6596
20064SOL    HW161408   7.266   3.090   6.544 -0.7157 -0.5213  1.7393
20064SOL    HW261409   7.225   3.235   6.532  0.3971 -0.2670  0.7791
20065SOL     OW61410   8.532   3.527   6.719 -0.1453 -0.1003  0.1428
20065SOL    HW161411   8.603   3.464   6.735 -0.6132 -0.9812 -1.0327
20065SOL    HW261412   8.454   3.472   6.710 -0.5463  0.6341 -1.0624
20066SOL     OW61413   7.418   3.309   6.210  0.1227  0.2125 -0.1766
20066SOL    HW161414   7.504   3.314   6.251  1.0190 -1.6955 -1.6814
20066SOL    HW261415   7.431   3.346   6.122 -1.0956  1.6756  0.2034
20067SOL     OW61416   7.565   2.733   6.213  0.0794 -0.0672 -0.5258
20067SOL    HW161417   7.601   2.695   6.293 -0.7955  0.6672  0.2467
20067SOL    HW261418   7.628   2.800   6.187  0.0155  0.1873 -0.0346
20068SOL     OW61419   7.810   3.910   7.156 -0.2213  0.5384  0.6194
20068SOL    HW161420   7.895   3.888   7.193 -0.1125  0.9226  0.6089
20068SOL    HW261421   7.807   3.865   7.072 -0.8292 -1.0703  1.4546
20069SOL     OW61422   8.128   2.770   5.591  0.8718 -0.2130 -0.4817
20069SOL    HW161423   8.059   2.776   5.525  1.2872  0.0775 -0.8951
20069SOL    HW261424   8.099   2.830   5.660  0.7313 -0.0601 -0.6701
20070SOL     OW61425   7.403   2.662   5.979  0.0661  0.3431 -0.2226
20070SOL    HW161426   7.343   2.608   6.031 -0.2342 -0.4551 -1.3713
20070SOL    HW261427   7.471   2.688   6.042 -0.0858 -0.9148  0.5090
20071SOL     OW61428   7.218   3.528   6.005  0.0088 -0.5538  0.3146
20071SOL    HW161429   7.161   3.559   5.934 -0.7003 -0.3444  0.9566
20071SOL    HW261430   7.177   3.447   6.034 -0.8672  0.3599  1.7857
20072SOL     OW61431   0.146   2.788   6.240 -0.0792 -0.3449  0.2688
20072SOL    HW161432   0.177   2.787   6.149 -1.2910  0.1762 -0.1799
20072SOL    HW261433   0.170   2.703   6.275 -0.7892 -1.0821 -0.9781
20073SOL     OW61434   7.327   2.752   7.133 -0.0920 -0.7697 -0.2512
20073SOL    HW161435   7.241   2.716   7.112  0.7955 -3.2723  0.1312
20073SOL    HW261436   7.349   2.806   7.057 -1.9361 -0.1223 -0.3837
20074SOL     OW61437   7.936   3.072   6.437  0.4855  0.1240  0.0882
20074SOL    HW161438   7.886   3.135   6.490  1.5760  0.3884  0.8374
20074SOL    HW261439   8.006   3.042   6.495  1.4968  0.1378 -1.0857
20075SOL     OW61440   8.399   3.283   6.776 -0.7934 -0.0921  1.3071
20075SOL    HW161441   8.383   3.269   6.683 -0.2543  0.8720  1.0500
20075SOL    HW261442   8.445   3.204   6.805 -1.3772 -0.5994  0.8702
20076SOL     OW61443   8.245   1.747   5.992 -0.7621  0.1574 -0.6501
20076SOL    HW161444   8.297   1.753   5.912  2.0918  0.7826  1.1099
20076SOL    HW261445   8.156   1.773   5.965  0.6493  3.1192 -3.0420
20077SOL     OW61446   7.553   2.526   6.951  0.0680 -0.2074 -1.2545
20077SOL    HW161447   7.584   2.563   7.034 -0.9059 -0.2267 -0.8687
20077SOL    HW261448   7.633   2.506   6.902  0.7755 -2.1426  0.5160
20078SOL     OW61449   8.742   3.354   6.786 -0.8976  0.2036  0.7019
20078SOL    HW161450   8.791   3.421   6.834  0.8239 -1.2798  1.1135
20078SOL    HW261451   8.772   3.271   6.823  1.1537 -1.1271 -3.3374
20079SOL     OW61452   8.335   2.199   7.513  0.6161 -0.4396  0.1041
20079SOL    HW161453   8.240   2.212   7.506  0.3722 -1.8980  0.4923
20079SOL    HW261454   8.372   2.287   7.498 -0.6549 -0.2272 -2.1802
20080SOL     OW61455   7.880   2.521   5.743  0.3669 -0.1348  0.0303
20080SOL    HW161456   7.955   2.576   5.720  0.3363 -0.1943 -0.2202
20080SOL    HW261457   7.808   2.555   5.689  0.2208 -0.0990  0.2448
20081SOL     OW61458   8.816   2.127   6.368  0.1454  0.2428 -0.5147
20081SOL    HW161459   8.827   2.181   6.446  1.6300 -0.7300 -0.0048
20081SOL    HW261460   8.735   2.079   6.384  0.3007  0.2377  0.3151
20082SOL     OW61461   8.574   2.250   6.636  0.1942 -0.1793 -0.2301
20082SOL    HW161462   8.569   2.182   6.569 -0.1076  0.0307 -0.4197
20082SOL    HW261463   8.499   2.235   6.693  0.2858 -0.1759 -0.1063
20083SOL     OW61464   8.350   2.034   7.312  0.3577  0.2703 -0.3016
20083SOL    HW161465   8.256   2.023   7.322  0.4100 -0.9130 -0.8763
20083SOL    HW261466   8.377   2.087   7.387 -0.7077  0.3094  0.0635
20084SOL     OW61467   8.167   2.485   6.751  0.1387  0.1857  0.7010
20084SOL    HW161468   8.122   2.458   6.671  2.0559  0.1918 -0.4453
20084SOL    HW261469   8.243   2.534   6.720  1.1546 -0.1600  2.5057
20085SOL     OW61470   8.807   2.047   6.845  0.0516  0.1395 -0.1176
20085SOL    HW161471   8.840   1.964   6.812  2.3316  0.3634  1.4205
20085SOL    HW261472   8.749   2.024   6.917 -0.0457 -0.1485 -0.2881
20086SOL     OW61473   8.661   2.328   6.096 -0.2443  0.0087 -0.0210
20086SOL    HW161474   8.594   2.353   6.159 -0.2155 -2.5902  1.2097
20086SOL    HW261475   8.612   2.298   6.019 -0.3815  0.7142 -0.2100
20087SOL     OW61476   8.028   2.404   6.546  0.0296  0.1510 -0.4322
20087SOL    HW161477   7.937   2.384   6.568 -0.0803 -0.9042 -1.7013
20087SOL    HW261478   8.028   2.411   6.451  1.6240 -1.9294 -0.6567
20088SOL     OW61479   7.510   3.726   7.029 -0.7631  0.2511 -0.2108
20088SOL    HW161480   7.422   3.718   7.065 -1.3775  3.2865 -0.8091
20088SOL    HW261481   7.565   3.675   7.089 -2.6282 -0.0425  1.3351
20089SOL     OW61482   8.664   1.886   5.619 -0.1351 -0.4914 -0.0631
20089SOL    HW161483   8.681   1.816   5.557  0.6862 -0.1479 -0.2454
20089SOL    HW261484   8.658   1.842   5.704 -0.6602 -0.8919 -0.3034
20090SOL     OW61485   0.238   2.547   6.345 -0.0795  0.1268 -0.2201
20090SOL    HW161486   0.270   2.459   6.326  1.3606  0.7160 -0.6845
20090SOL    HW261487   0.294   2.578   6.417 -0.3645  0.7724 -0.2693
20091SOL     OW61488   7.655   2.218   6.255 -0.6565  0.2982 -0.3950
20091SOL    HW161489   7.671   2.311   6.240 -1.1178  0.6608  1.1771
20091SOL    HW261490   7.730   2.189   6.307 -0.3792 -0.2911 -1.1009
20092SOL     OW61491   8.047   3.415   6.389 -0.0047 -0.3583 -0.0185
20092SOL    HW161492   8.044   3.468   6.469 -2.0083 -0.7842  0.2509
20092SOL    HW261493   7.968   3.440   6.341 -0.2889 -2.1139 -0.5302
20093SOL     OW61494   7.685   3.247   6.343 -0.0877  0.1497  0.0601
20093SOL    HW161495   7.745   3.308   6.301 -1.8033  1.5544 -0.4866
20093SOL    HW261496   7.732   3.217   6.421  1.6145  0.5438 -0.7678
20094SOL     OW61497   8.333   3.518   7.183 -0.1953 -0.0796  0.0323
20094SOL    HW161498   8.416   3.567   7.181  0.0736 -0.5429 -1.8158
20094SOL    HW261499   8.307   3.520   7.275  0.5509  2.2846  0.2781
20095SOL     OW61500   7.672   2.690   5.691 -0.2595 -0.5070  0.0355
20095SOL    HW161501   7.638   2.775   5.664  0.3881 -0.1549  0.3109
20095SOL    HW261502   7.593   2.636   5.703 -0.6253 -0.2352 -1.0455
20096SOL     OW61503   7.858   3.142   7.061  1.0853 -0.5669  0.1891
20096SOL    HW161504   7.919   3.173   6.994  1.6010 -3.2672 -0.6890
20096SOL    HW261505   7.896   3.171   7.144  2.2557 -0.1425 -0.4818
20097SOL     OW61506   8.739   3.396   5.667  0.4069  0.5081  0.4653
20097SOL    HW161507   8.708   3.328   5.727  0.1632  1.3982  1.3691
20097SOL    HW261508   8.662   3.451   5.652  0.2029 -0.2085 -1.4179
20098SOL     OW61509   7.808   2.136   7.574  0.4994  0.8146  0.1462
20098SOL    HW161510   7.743   2.201   7.601 -0.2523  0.2178 -0.1694
20098SOL    HW261511   7.786   2.058   7.625  1.1120  0.6753  0.1987
20099SOL     OW61512   7.786   3.608   5.993 -0.2259 -0.1324  0.7617
20099SOL    HW161513   7.821   3.696   6.005  0.3136 -0.5162  2.0672
20099SOL    HW261514   7.692   3.622   5.977  0.0977  0.7469 -0.5598
20100SOL     OW61515   7.590   4.049   6.700  0.1286 -0.4402 -0.3485
20100SOL    HW161516   7.630   4.001   6.772  0.6728 -0.1637 -0.4606
20100SOL    HW261517   7.649   4.122   6.684 -0.4782  0.0460 -0.4429
20101SOL     OW61518   8.269   4.131   6.472 -0.0013 -0.0185  0.3905
20101SOL    HW161519   8.243   4.120   6.381 -1.5169  2.1003  0.5011
20101SOL    HW261520   8.227   4.058   6.518  1.5697 -1.6808 -0.6651
20102SOL     OW61521   7.465   2.490   5.674  0.3320 -0.2335  0.0521
20102SOL    HW161522   7.378   2.500   5.713 -0.4055  3.0786 -2.0938
20102SOL    HW261523   7.458   2.413   5.618 -0.2394 -1.7445  2.0823
20103SOL     OW61524   8.424   2.041   5.711  0.8670  0.5002 -0.2370
20103SOL    HW161525   8.363   2.013   5.643 -0.9356  0.4362  1.3267
20103SOL    HW261526   8.511   2.032   5.671 -0.0907  0.0328 -2.3378
20104SOL     OW61527   8.329   2.247   6.792  0.2242 -0.2678 -0.2559
20104SOL    HW161528   8.254   2.306   6.794 -0.5831 -1.2849  0.4549
20104SOL    HW261529   8.350   2.231   6.884  1.0381 -0.3537 -0.4439
20105SOL     OW61530   7.691   3.613   6.433 -0.4105  0.4754 -0.1043
20105SOL    HW161531   7.647   3.696   6.414 -1.8398 -0.2674 -0.2515
20105SOL    HW261532   7.624   3.561   6.478  0.9005 -0.0988  1.2530
20106SOL     OW61533   8.394   2.648   7.057 -0.8971  0.4787 -0.4369
20106SOL    HW161534   8.447   2.693   6.991  1.8736  1.2519  2.1108
20106SOL    HW261535   8.314   2.701   7.063  0.0436  2.0582 -1.1366
20107SOL     OW61536   7.781   3.201   6.631 -0.4464 -0.0625  0.5945
20107SOL    HW161537   7.700   3.204   6.682  1.4428 -0.5534  3.9247
20107SOL    HW261538   7.815   3.290   6.636 -0.3526 -0.0594 -0.0514
20108SOL     OW61539   8.518   2.062   6.454  0.3100  0.5219 -0.0393
20108SOL    HW161540   8.480   1.985   6.412 -0.8223  0.3945  1.1580
20108SOL    HW261541   8.455   2.132   6.437 -0.5804  0.2899  2.0383
20109SOL     OW61542   8.180   2.181   6.202 -0.0027 -0.2276 -0.0046
20109SOL    HW161543   8.189   2.264   6.156  0.7249 -0.3268 -0.0533
20109SOL    HW261544   8.218   2.116   6.142  0.3449 -0.4481  0.4505
20110SOL     OW61545   0.070   3.081   5.879  0.4295  0.2853 -0.4671
20110SOL    HW161546   0.049   3.077   5.786  1.5545 -0.5431 -0.7025
20110SOL    HW261547  -0.016   3.077   5.923 -0.0574 -0.4209 -1.4410
20111SOL     OW61548   7.669   2.092   5.873 -0.0295 -0.2749  0.1238
20111SOL    HW161549   7.648   2.185   5.867  1.0821  0.0506  0.8309
20111SOL    HW261550   7.757   2.090   5.911  0.4829 -1.5843 -1.0242
20112SOL     OW61551   8.299   2.026   5.967  0.8506  0.1681 -0.0888
20112SOL    HW161552   8.333   2.033   5.878 -1.6521 -0.8199 -1.2189
20112SOL    HW261553   8.312   1.934   5.991  1.5675  0.4386  0.6326
20113SOL     OW61554   8.323   2.423   7.209 -0.0239 -0.4292 -0.0985
20113SOL    HW161555   8.374   2.358   7.161 -0.7585 -1.1893  0.1352
20113SOL    HW261556   8.344   2.506   7.167  2.0880 -0.5847  0.5620
20114SOL     OW61557   8.256   3.274   6.280  0.0874 -0.4677 -0.1573
20114SOL    HW161558   8.231   3.222   6.204 -0.7234 -1.2254  0.6007
20114SOL    HW261559   8.176   3.321   6.303 -0.4091 -2.0990  1.6651
20115SOL     OW61560   7.741   3.028   6.188  0.4096  0.2054 -0.3624
20115SOL    HW161561   7.825   3.018   6.233  0.0517 -1.2509  0.0263
20115SOL    HW261562   7.694   3.094   6.240  0.3700 -0.7748  0.8854
20116SOL     OW61563   8.115   3.918   6.172 -0.5146 -0.4564  0.2709
20116SOL    HW161564   8.025   3.923   6.140 -0.6552 -2.1035  0.3395
20116SOL    HW261565   8.147   4.008   6.168 -1.9975  0.0713 -0.2262
20117SOL     OW61566   0.123   2.260   5.372  0.3692 -0.2590 -0.4995
20117SOL    HW161567   0.117   2.212   5.290  0.4150 -0.1485 -0.5685
20117SOL    HW261568   0.033   2.287   5.391  0.5225  0.8343 -1.1942
20118SOL     OW61569   7.570   2.171   7.131  0.2673  0.1982 -0.0496
20118SOL    HW161570   7.643   2.226   7.158  0.4887 -0.1982  0.1759
20118SOL    HW261571   7.588   2.150   7.039  1.6613 -1.7563  0.6012
20119SOL     OW61572   8.081   1.877   6.529  0.4146  0.3243  0.1211
20119SOL    HW161573   8.111   1.958   6.570  1.3480 -0.3210  0.7616
20119SOL    HW261574   8.153   1.851   6.471  0.9232 -0.9890  1.2886
20120SOL     OW61575   8.554   2.257   5.838  0.2440 -0.1460 -0.2971
20120SOL    HW161576   8.484   2.197   5.812  1.3522 -1.5877 -0.0954
20120SOL    HW261577   8.635   2.211   5.814  1.1377  1.3017 -0.1681
20121SOL     OW61578   8.189   1.507   6.384 -0.1219 -0.5726  0.7489
20121SOL    HW161579   8.260   1.472   6.330  0.6698 -1.6313  2.3505
20121SOL    HW261580   8.231   1.572   6.440 -0.8137  0.1450  0.4511
20122SOL     OW61581   8.392   3.349   5.945  0.1867  0.2768  0.3802
20122SOL    HW161582   8.342   3.269   5.963  1.9999 -1.2029 -0.8169
20122SOL    HW261583   8.338   3.397   5.882 -0.7010 -0.2020  0.7559
20123SOL     OW61584   0.160   2.229   5.655 -0.0063 -0.3080 -0.3055
20123SOL    HW161585   0.140   2.321   5.668  1.3766  0.0794 -0.7266
20123SOL    HW261586   0.157   2.216   5.560  0.3434 -0.5644 -0.2841
20124SOL     OW61587   7.938   2.247   5.760 -0.0878 -0.4512 -0.3560
20124SOL    HW161588   7.920   2.341   5.771 -1.3989 -0.6177 -0.8695
20124SOL    HW261589   7.937   2.212   5.849 -1.9141 -0.3414 -0.2868
20125SOL     OW61590   8.231   3.473   6.887  0.1622 -0.3154  0.3422
20125SOL    HW161591   8.258   3.517   6.967  2.3622  1.9250 -1.4787
20125SOL    HW261592   8.305   3.417   6.863  0.6897  1.0515 -1.4322
20126SOL     OW61593   8.267   2.951   6.639 -0.1864 -0.1663 -0.1241
20126SOL    HW161594   8.221   2.943   6.722  0.9115 -0.3096  0.4956
20126SOL    HW261595   8.334   3.018   6.654 -0.3433  0.2256 -1.0710
20127SOL     OW61596   8.127   1.750   6.963 -0.5242  0.0174  0.8504
20127SOL    HW161597   8.097   1.731   6.874  1.2363  0.1829  0.1889
20127SOL    HW261598   8.217   1.781   6.953  0.1718 -1.1704  2.7902
20128SOL     OW61599   8.399   3.087   7.049 -0.1967  0.6178  0.4165
20128SOL    HW161600   8.451   3.048   7.119  0.1889  1.5429  0.6683
20128SOL    HW261601   8.453   3.079   6.971  0.6108  2.1098  0.7940
20129SOL     OW61602   8.222   2.599   6.087 -0.6591 -0.2613 -0.4571
20129SOL    HW161603   8.295   2.623   6.030 -0.9567 -0.0949 -0.7689
20129SOL    HW261604   8.144   2.627   6.040 -0.8327  1.4979  0.8052
20130SOL     OW61605   8.010   2.520   7.005 -0.5806  0.0014 -0.4845
20130SOL    HW161606   8.079   2.541   6.942 -1.0890  0.2986 -0.9438
20130SOL    HW261607   7.992   2.602   7.051 -0.9288  0.0236 -0.6603
20131SOL     OW61608   8.584   2.372   7.038  0.1655 -0.2698 -0.0420
20131SOL    HW161609   8.530   2.297   7.012  1.0062 -0.7518 -0.4321
20131SOL    HW261610   8.641   2.387   6.962 -0.5768  1.3297 -0.3419
20132SOL     OW61611   7.247   3.657   7.088 -0.2141  0.3172  0.0760
20132SOL    HW161612   7.212   3.659   7.177 -1.5757 -0.0949 -0.4315
20132SOL    HW261613   7.266   3.564   7.072  2.9079  0.6762  0.9692
20133SOL     OW61614   7.858   3.126   5.966  0.4317  0.3921 -0.1692
20133SOL    HW161615   7.825   3.102   6.053  0.2337  0.4391 -0.2298
20133SOL    HW261616   7.783   3.113   5.908  0.8061 -0.4782 -0.4818
20134SOL     OW61617   8.216   2.504   6.328 -0.0272 -0.7099 -0.0852
20134SOL    HW161618   8.184   2.566   6.393  1.1543  0.6622 -0.7716
20134SOL    HW261619   8.184   2.537   6.244 -0.2744 -1.6255 -0.3651
20135SOL     OW61620   8.734   3.076   6.089 -0.9183 -0.7755 -0.0878
20135SOL    HW161621   8.763   3.161   6.120  1.0840 -1.3144 -0.3412
20135SOL    HW261622   8.656   3.056   6.141 -0.1766  0.2581  1.4718
20136SOL     OW61623   8.731   3.573   6.436 -0.0821 -0.6454  0.0786
20136SOL    HW161624   8.768   3.492   6.471 -1.1093 -1.2152 -0.1151
20136SOL    HW261625   8.646   3.582   6.480  0.0504  0.3670  0.1527
20137SOL     OW61626   7.083   3.775   6.920  0.2022 -0.0130 -0.3412
20137SOL    HW161627   7.146   3.735   6.979  0.2386  0.5122 -0.0116
20137SOL    HW261628   7.022   3.821   6.979  0.8073  1.3379 -0.7386
20138SOL     OW61629   8.166   2.602   7.361 -0.2331 -0.3991  0.1629
20138SOL    HW161630   8.237   2.666   7.369  0.7379 -1.4308  0.0721
20138SOL    HW261631   8.207   2.528   7.316 -1.5672 -0.7393 -0.5170
20139SOL     OW61632   8.081   2.025   7.330  0.1873 -0.2877  0.3442
20139SOL    HW161633   8.097   2.117   7.350  1.0680  0.0843 -1.8195
20139SOL    HW261634   7.990   2.023   7.299  0.8019  0.3144 -1.6859
20140SOL     OW61635   7.563   1.736   7.928 -0.3413 -0.4604 -0.2685
20140SOL    HW161636   7.499   1.668   7.906  0.7703 -2.2943  1.7563
20140SOL    HW261637   7.636   1.688   7.968  0.2141  1.9866  1.8879
20141SOL     OW61638   7.532   3.234   6.742  0.2704 -0.3034 -0.2679
20141SOL    HW161639   7.451   3.196   6.709 -0.0360  0.1693 -0.0597
20141SOL    HW261640   7.522   3.233   6.837 -0.6253  2.1459 -0.2621
20142SOL     OW61641   8.836   2.485   6.531 -0.0430 -0.2979  0.5774
20142SOL    HW161642   8.862   2.397   6.559 -0.7216 -1.2200 -1.4853
20142SOL    HW261643   8.909   2.516   6.478 -1.0455 -0.9103 -1.2221
20143SOL     OW61644   0.088   2.509   5.656 -0.4079 -0.1632  0.1760
20143SOL    HW161645   0.111   2.532   5.565  1.4304  0.9827  0.8618
20143SOL    HW261646  -0.007   2.506   5.657 -0.5290  1.2415 -1.4974
20144SOL     OW61647   7.639   2.041   6.892  0.0951  0.3664 -0.0466
20144SOL    HW161648   7.622   1.957   6.935 -0.2982 -0.1306 -1.1457
20144SOL    HW261649   7.555   2.065   6.853  0.1133  1.4601  0.5536
20145SOL     OW61650   7.219   3.481   6.737 -0.1840  0.0540 -0.3412
20145SOL    HW161651   7.204   3.481   6.642  0.6302 -1.4552 -0.5134
20145SOL    HW261652   7.292   3.542   6.749 -1.6456  1.8754 -0.3902
20146SOL     OW61653   8.123   2.090   6.671 -0.3014 -0.0027 -0.1142
20146SOL    HW161654   8.214   2.099   6.698 -0.2291 -1.2112  0.1171
20146SOL    HW261655   8.080   2.169   6.704  0.9178  1.2835 -1.4471
20147SOL     OW61656   7.917   2.108   5.987  0.4335  0.0590  0.2898
20147SOL    HW161657   8.004   2.067   5.990 -0.0882 -1.0165  1.9653
20147SOL    HW261658   7.906   2.146   6.074 -0.7938  0.1779  0.0961
20148SOL     OW61659   0.262   2.380   6.046  0.2456 -0.1154  0.0324
20148SOL    HW161660   0.185   2.324   6.060  0.5492 -1.1208 -1.9651
20148SOL    HW261661   0.228   2.469   6.052 -0.3688 -0.4458  2.7012
20149SOL     OW61662   8.786   2.343   6.804  0.0340 -0.3712  0.7889
20149SOL    HW161663   8.821   2.256   6.825 -0.5127 -0.8645 -0.2612
20149SOL    HW261664   8.704   2.324   6.758 -0.9775  0.7304  2.0779
20150SOL     OW61665   8.543   3.722   6.906  0.2066 -0.2080 -0.0798
20150SOL    HW161666   8.541   3.632   6.873 -0.9129  0.0469 -0.7926
20150SOL    HW261667   8.481   3.769   6.849 -0.1050  0.7481  1.0119
20151SOL     OW61668   8.110   3.009   7.208  0.2062  0.2678  0.5901
20151SOL    HW161669   8.085   3.101   7.217  0.4431  0.1886  2.5721
20151SOL    HW261670   8.128   2.981   7.298 -2.3472 -2.4254  0.4097
20152SOL     OW61671   8.802   2.635   5.296  0.2980 -0.2483 -0.3322
20152SOL    HW161672   8.764   2.697   5.233 -2.1511 -1.9212 -0.6350
20152SOL    HW261673   8.726   2.595   5.338  1.8393 -0.3600  2.6017
20153SOL     OW61674   8.412   3.234   6.516 -0.7164  0.3257 -0.2869
20153SOL    HW161675   8.488   3.186   6.483 -0.9769  0.2714 -0.8188
20153SOL    HW261676   8.351   3.235   6.442 -1.3679  0.0782  0.2440
20154SOL     OW61677   7.639   2.938   6.533 -0.4442  0.0297 -0.1843
20154SOL    HW161678   7.703   3.007   6.549  0.2369  0.0755 -2.7094
20154SOL    HW261679   7.680   2.881   6.468 -1.5495 -2.0037  0.7927
20155SOL     OW61680   7.870   2.179   6.802 -0.2512  0.1899 -0.0523
20155SOL    HW161681   7.840   2.200   6.714 -1.4333  0.4164  0.3826
20155SOL    HW261682   7.797   2.131   6.841  0.1764  0.2644  0.8670
20156SOL     OW61683   8.036   2.328   7.285 -0.0875 -0.1444  0.0777
20156SOL    HW161684   7.971   2.291   7.225  0.0458 -1.7614  0.8659
20156SOL    HW261685   8.100   2.371   7.227  0.0026 -1.5851 -0.9602
20157SOL     OW61686   8.369   2.135   7.033 -0.0573  0.5784 -0.0887
20157SOL    HW161687   8.345   2.048   7.004 -2.7206  1.5077 -1.0007
20157SOL    HW261688   8.371   2.129   7.129 -2.7586  0.0115  0.0033
20158SOL     OW61689   7.466   3.271   5.740  0.1205 -0.4650  0.6626
20158SOL    HW161690   7.560   3.277   5.755  0.3241  0.8717 -0.8045
20158SOL    HW261691   7.440   3.187   5.777  2.4067 -2.1640 -1.2765
20159SOL     OW61692   7.835   3.470   6.241 -0.2625 -0.6921  0.1098
20159SOL    HW161693   7.764   3.512   6.290 -0.2710 -1.4499  0.7674
20159SOL    HW261694   7.810   3.482   6.149 -0.7582 -0.1254  0.3065
20160SOL     OW61695   7.970   2.900   6.180 -0.0355 -0.3278 -0.0667
20160SOL    HW161696   8.056   2.892   6.138  0.2712 -0.4896  0.5684
20160SOL    HW261697   7.989   2.890   6.273 -0.7014 -0.0035  0.1075
20161SOL     OW61698   8.388   2.562   6.609  0.1566 -0.6974 -0.3523
20161SOL    HW161699   8.467   2.605   6.579  0.0010  0.7560  1.1567
20161SOL    HW261700   8.418   2.478   6.643  0.9821 -0.3858 -0.2937
20162SOL     OW61701   7.377   2.945   6.958  0.0850 -0.4563  0.4639
20162SOL    HW161702   7.432   3.018   6.987 -1.0490  0.1105  1.2593
20162SOL    HW261703   7.314   2.986   6.898  0.2484 -1.0151 -0.0947
20163SOL     OW61704   7.753   2.801   7.475  0.2805  0.6822 -0.5797
20163SOL    HW161705   7.818   2.746   7.433  1.5754  0.7793  1.1723
20163SOL    HW261706   7.691   2.824   7.405  0.9477 -1.1169 -1.8311
20164SOL     OW61707   8.655   2.510   5.700 -0.2533  0.2258 -0.1558
20164SOL    HW161708   8.568   2.547   5.711 -0.9302 -1.2366 -0.2684
20164SOL    HW261709   8.672   2.464   5.782  0.9506  1.5013  0.3440
20165SOL     OW61710   7.715   3.557   7.132  0.4079 -0.1084 -0.1140
20165SOL    HW161711   7.783   3.562   7.065  1.0039  0.8087  0.5437
20165SOL    HW261712   7.758   3.586   7.212 -0.7381  0.4098  0.3378
20166SOL     OW61713   8.316   2.283   6.490 -0.7757  0.0396  0.6529
20166SOL    HW161714   8.259   2.326   6.427 -1.3355  0.8888  1.7149
20166SOL    HW261715   8.263   2.275   6.569  0.5388  0.7905  1.6463
20167SOL     OW61716   8.051   3.489   7.286 -0.2359  0.2069 -0.1609
20167SOL    HW161717   8.087   3.527   7.206 -0.6585  0.4828 -0.2218
20167SOL    HW261718   7.973   3.542   7.305 -0.8382 -0.6261 -0.2506
20168SOL     OW61719   7.579   2.345   5.874  0.2156  0.1024  0.1483
20168SOL    HW161720   7.595   2.385   5.789 -1.0682  0.3378 -0.0056
20168SOL    HW261721   7.570   2.418   5.935 -0.7963  0.0250  0.1139
20169SOL     OW61722   7.566   2.918   7.336  0.0110  0.9576  0.0850
20169SOL    HW161723   7.502   2.938   7.404 -0.3905  0.3417 -0.1123
20169SOL    HW261724   7.514   2.885   7.263  0.5320  0.6608 -0.1562
20170SOL     OW61725   0.128   2.503   6.851  0.1567  0.1172  0.1964
20170SOL    HW161726   0.050   2.454   6.827 -0.7905  0.9238  1.5052
20170SOL    HW261727   0.199   2.439   6.843 -0.8796 -1.1576  0.7599
20171SOL     OW61728   8.736   2.611   6.071 -0.0061  0.1896  0.2308
20171SOL    HW161729   8.723   2.651   6.157 -1.3444 -0.6444  0.4299
20171SOL    HW261730   8.724   2.517   6.085 -0.7663  0.0899 -0.9616
20172SOL     OW61731   8.385   3.848   6.724  0.7598  0.1323 -0.2368
20172SOL    HW161732   8.348   3.806   6.647  0.3384 -1.1153  0.6069
20172SOL    HW261733   8.475   3.870   6.699  0.2585  0.8232 -1.4545
20173SOL     OW61734   7.122   2.720   6.743 -0.6150  0.0455 -0.4700
20173SOL    HW161735   7.112   2.815   6.745 -0.9251  0.0133  2.0973
20173SOL    HW261736   7.217   2.706   6.748 -0.6494  0.2356  0.9936
20174SOL     OW61737   7.853   3.672   7.374 -0.2906  0.5891 -0.6375
20174SOL    HW161738   7.806   3.661   7.457  0.0266  0.0931 -0.5213
20174SOL    HW261739   7.829   3.760   7.345  0.0395  0.9851  0.2573
20175SOL     OW61740   8.296   3.735   6.511  0.2391  0.0130  0.3186
20175SOL    HW161741   8.216   3.786   6.502  0.7038  0.7452  0.3193
20175SOL    HW261742   8.345   3.752   6.431  0.0454 -1.0656 -0.0469
20176SOL     OW61743   7.312   3.706   7.554 -0.0254  0.0919 -0.6787
20176SOL    HW161744   7.279   3.791   7.526 -0.3508  0.2836  0.2731
20176SOL    HW261745   7.308   3.708   7.649  1.9124 -0.2138 -0.5483
20177SOL     OW61746   8.813   2.860   6.408 -0.4494 -0.1809  0.3221
20177SOL    HW161747   8.871   2.852   6.333  0.3704  0.0412  0.9136
20177SOL    HW261748   8.828   2.949   6.441 -0.4648 -0.4167  0.9963
20178SOL     OW61749   8.027   3.271   6.890 -0.2202 -0.6686 -0.0241
20178SOL    HW161750   7.988   3.303   6.808 -0.1929  0.4062  0.3658
20178SOL    HW261751   8.090   3.339   6.914 -0.4251 -0.8322  1.0324
20179SOL     OW61752   8.235   3.725   5.995 -0.3427 -0.0583 -0.2220
20179SOL    HW161753   8.200   3.772   6.071 -0.1135 -0.0246 -0.1376
20179SOL    HW261754   8.170   3.657   5.977 -0.7332  0.3584 -0.4131
20180SOL     OW61755   7.775   2.482   6.285  0.4864 -0.0492  0.1794
20180SOL    HW161756   7.759   2.562   6.335  0.5716 -1.5226  2.6950
20180SOL    HW261757   7.802   2.513   6.198 -0.2006  2.6118  0.8421
20181SOL     OW61758   8.824   3.275   5.406  0.3113 -0.8210  0.1002
20181SOL    HW161759   8.907   3.234   5.431  0.9676  0.8273  0.7881
20181SOL    HW261760   8.780   3.292   5.490 -0.2215 -0.6999 -0.2007
20182SOL     OW61761   7.948   2.845   6.875 -0.0849  0.0416  0.7162
20182SOL    HW161762   7.965   2.933   6.906  0.1175 -0.2438  1.4270
20182SOL    HW261763   7.893   2.805   6.942  0.8225 -0.7629  1.0095
20183SOL     OW61764   8.465   2.789   6.171 -0.5401  0.0142  0.5420
20183SOL    HW161765   8.418   2.710   6.197  0.7238 -1.1269 -0.5572
20183SOL    HW261766   8.476   2.781   6.076 -0.5124  1.5904  0.3810
20184SOL     OW61767   7.632   2.612   7.216 -0.1916 -0.4666 -0.4426
20184SOL    HW161768   7.725   2.621   7.239  0.0954 -1.4124 -1.1424
20184SOL    HW261769   7.589   2.586   7.297 -0.0060  0.8846  0.1024
20185SOL     OW61770   8.533   3.020   6.290  0.3248  0.3135 -1.0266
20185SOL    HW161771   8.514   2.927   6.280 -1.2258  0.5070 -0.2256
20185SOL    HW261772   8.605   3.024   6.353  0.0164 -0.3147 -0.6307
20186SOL     OW61773   8.326   1.712   6.513 -0.0338  0.0135 -0.2234
20186SOL    HW161774   8.385   1.638   6.503  0.4269  0.2508  0.6765
20186SOL    HW261775   8.357   1.758   6.591 -0.0261  1.4159 -1.0181
20187SOL     OW61776   7.786   2.836   5.978 -0.0477  0.3021  0.0775
20187SOL    HW161777   7.750   2.878   5.900  1.3845  0.6204 -0.4382
20187SOL    HW261778   7.801   2.908   6.039 -0.0762  0.1942  0.2136
20188SOL     OW61779   7.477   3.440   5.955  0.3015  0.1979  0.0736
20188SOL    HW161780   7.464   3.386   5.877 -0.2592 -0.4794  0.6251
20188SOL    HW261781   7.392   3.483   5.968 -0.3419 -1.4243  1.5875
20189SOL     OW61782   7.766   3.048   7.573  0.2294 -0.3203 -0.1531
20189SOL    HW161783   7.755   2.955   7.553 -0.3573 -0.3492  0.2731
20189SOL    HW261784   7.771   3.051   7.669  1.4798 -0.0393 -0.2119
20190SOL     OW61785   7.823   2.038   7.241 -0.1318  0.0474  0.1534
20190SOL    HW161786   7.854   2.018   7.152 -0.6084  1.4999 -0.3638
20190SOL    HW261787   7.738   2.080   7.228 -0.7673 -0.8069  1.3826
20191SOL     OW61788   7.441   2.229   5.577  0.2218 -1.1715  0.2636
20191SOL    HW161789   7.402   2.252   5.492 -1.4610 -2.2161  0.7033
20191SOL    HW261790   7.480   2.143   5.563  0.7515 -0.9447  0.3243
20192SOL     OW61791   8.573   2.993   7.233 -0.5817 -0.0037 -0.4206
20192SOL    HW161792   8.645   3.022   7.177  0.2852  0.4768  0.8901
20192SOL    HW261793   8.583   2.898   7.239 -1.1867 -0.1648 -1.7262
20193SOL     OW61794   7.369   2.151   5.821 -0.4934  0.0479  0.2678
20193SOL    HW161795   7.410   2.181   5.740  0.7170 -0.9909  0.4629
20193SOL    HW261796   7.398   2.214   5.887 -0.8223  0.4361  0.0441
20194SOL     OW61797   8.757   2.828   5.937 -0.0461 -0.2893  0.0374
20194SOL    HW161798   8.756   2.747   5.987  1.0490 -0.0536  0.4860
20194SOL    HW261799   8.763   2.897   6.003 -2.3416  0.2807 -0.2633
20195SOL     OW61800   8.175   2.713   6.509  0.4093 -0.1864 -0.5630
20195SOL    HW161801   8.207   2.800   6.533 -0.8956 -0.1668  1.3614
20195SOL    HW261802   8.245   2.654   6.536  0.4302  0.1252  0.1076
20196SOL     OW61803   8.484   2.428   7.478  0.0368 -0.1649  0.2531
20196SOL    HW161804   8.468   2.487   7.404 -1.9053  0.4700  1.1046
20196SOL    HW261805   8.472   2.484   7.555  1.7000 -0.8857  1.0933
20197SOL     OW61806   8.769   3.078   7.049 -0.4576  0.8216  0.2026
20197SOL    HW161807   8.841   3.105   6.991 -1.3561  1.1599 -0.7981
20197SOL    HW261808   8.749   3.157   7.100 -1.0192  1.1586 -0.5113
20198SOL     OW61809   7.137   3.306   6.937 -0.1279  0.3967 -0.1623
20198SOL    HW161810   7.057   3.270   6.898 -2.5303  2.9877  1.9233
20198SOL    HW261811   7.159   3.381   6.881  0.1004  0.4409 -0.0142
20199SOL     OW61812   8.523   1.785   6.733  0.2259 -0.3944  0.0568
20199SOL    HW161813   8.602   1.829   6.702 -0.5322 -0.1657 -1.6765
20199SOL    HW261814   8.551   1.694   6.747  1.0738 -0.0544  0.6787
20200SOL     OW61815   7.697   2.675   6.450  0.7384 -0.5930  0.2966
20200SOL    HW161816   7.758   2.681   6.523  1.0123 -1.3893  0.1475
20200SOL    HW261817   7.612   2.660   6.491  1.0427 -2.1346  0.4592
20201SOL     OW61818   8.460   3.471   6.193 -0.1750 -0.3142 -0.3001
20201SOL    HW161819   8.452   3.436   6.105  0.3899 -0.6764 -0.2130
20201SOL    HW261820   8.399   3.419   6.246 -0.5354 -0.0772 -0.4792
20202SOL     OW61821   7.848   3.460   6.615 -0.7927 -0.7789 -0.0594
20202SOL    HW161822   7.786   3.525   6.581 -0.0120 -0.5239 -1.0454
20202SOL    HW261823   7.930   3.508   6.624 -0.2692 -1.5647 -0.5677
20203SOL     OW61824   8.229   2.972   6.172  0.0458  0.3680  0.1397
20203SOL    HW161825   8.226   2.995   6.265 -0.6484  0.7889  0.0140
20203SOL    HW261826   8.321   2.950   6.156 -0.0105 -0.6822  1.1500
20204SOL     OW61827   8.403   2.743   5.901  0.6118 -0.4887  0.3160
20204SOL    HW161828   8.364   2.825   5.871 -0.7747 -1.2650 -0.1224
20204SOL    HW261829   8.426   2.697   5.820  0.7834 -0.7996  0.5430
20205SOL     OW61830   7.640   3.218   7.330 -0.1435  0.0711  0.4546
20205SOL    HW161831   7.734   3.219   7.314 -0.3449  2.5975 -0.9525
20205SOL    HW261832   7.625   3.138   7.381  2.1709 -2.6474 -2.7325
20206SOL     OW61833   7.730   3.346   5.718 -0.1193  0.1210 -0.5994
20206SOL    HW161834   7.810   3.294   5.717 -0.1762  0.0456 -1.7131
20206SOL    HW261835   7.726   3.387   5.632 -0.6752  1.0592 -0.1443
20207SOL     OW61836   7.938   3.228   7.293 -0.0394 -0.1700  0.4578
20207SOL    HW161837   7.976   3.206   7.379 -1.2191  0.4356  1.1506
20207SOL    HW261838   7.959   3.320   7.281  0.8895 -0.4684 -0.3311
20208SOL     OW61839   7.818   2.559   6.012 -0.5622  0.0413 -0.6017
20208SOL    HW161840   7.849   2.539   5.923 -1.6084 -0.0427 -0.9526
20208SOL    HW261841   7.808   2.654   6.013  0.6741  0.1893 -0.1534
20209SOL     OW61842   7.894   2.726   6.631 -0.0329 -0.1844  0.0386
20209SOL    HW161843   7.897   2.789   6.702 -1.3997  0.7666 -0.6987
20209SOL    HW261844   7.986   2.707   6.611  0.3722  0.3677  1.2973
20210SOL     OW61845   8.059   3.525   5.964 -0.4933  0.0638  0.0976
20210SOL    HW161846   8.077   3.447   6.016 -1.7331 -0.6562 -0.4979
20210SOL    HW261847   7.971   3.551   5.990 -0.6715  0.3754 -0.7894
20211SOL     OW61848   0.143   1.977   7.279  0.2704  0.5189  0.0224
20211SOL    HW161849   0.220   1.978   7.335 -0.9245  1.4317  1.7365
20211SOL    HW261850   0.114   2.068   7.276 -1.4131  0.0420  0.4192
20212SOL     OW61851   8.489   1.505   6.476  0.0974 -0.3789  0.2320
20212SOL    HW161852   8.572   1.524   6.434 -0.4201 -0.5820 -0.9076
20212SOL    HW261853   8.495   1.413   6.501  0.6656 -0.0840  1.2427
20213SOL     OW61854   8.430   3.038   5.809  0.0815 -0.0460  0.2159
20213SOL    HW161855   8.509   3.089   5.827  0.2451  0.3457 -1.4808
20213SOL    HW261856   8.425   3.034   5.714 -0.9694 -1.5986  0.2970
20214SOL     OW61857   7.403   3.681   6.755 -0.0616  0.1589 -0.2379
20214SOL    HW161858   7.453   3.641   6.684  1.8126  1.1494  0.4506
20214SOL    HW261859   7.469   3.702   6.822 -1.8747 -1.7650  2.3386
20215SOL     OW61860   8.762   2.106   5.747  0.8757  0.3393 -0.3017
20215SOL    HW161861   8.733   2.049   5.675  1.5695  1.0720 -1.1853
20215SOL    HW261862   8.843   2.146   5.715  0.4961  1.7046  0.3413
20216SOL     OW61863   7.649   3.039   5.817 -0.0673 -0.1790  0.3523
20216SOL    HW161864   7.640   3.039   5.722  1.9604  1.4965  0.0829
20216SOL    HW261865   7.561   3.017   5.850 -1.6011  2.1497 -1.8585
20217SOL     OW61866   8.460   3.733   6.289 -0.6391 -0.0185  0.2638
20217SOL    HW161867   8.476   3.645   6.256 -1.2889 -0.1539  0.3085
20217SOL    HW261868   8.416   3.778   6.218  2.4185  1.2686 -1.0099
20218SOL     OW61869   7.651   2.621   7.922  0.0627  0.2889  0.3409
20218SOL    HW161870   7.673   2.547   7.865  2.1376  1.2485 -0.2107
20218SOL    HW261871   7.628   2.692   7.862  0.0499  0.6619  0.7755
20219SOL     OW61872   7.896   2.670   8.043  0.6445 -0.9938 -0.1880
20219SOL    HW161873   7.813   2.628   8.022  0.1088 -0.0684  0.0031
20219SOL    HW261874   7.872   2.761   8.064  1.9060 -0.2249 -1.8807
20220SOL     OW61875   7.318   2.685   7.759  0.1612  0.2685 -0.8087
20220SOL    HW161876   7.403   2.729   7.761 -0.8204  2.3076 -1.7709
20220SOL    HW261877   7.295   2.680   7.666 -0.9324  0.0535 -0.5457
20221SOL     OW61878   7.699   2.695   0.119 -1.3311 -0.3853 -0.2067
20221SOL    HW161879   7.622   2.683   0.174 -0.4951  1.2142  1.4156
20221SOL    HW261880   7.772   2.661   0.172 -0.3918  1.9421  0.1136
20222SOL     OW61881   0.193   3.410   8.351  0.4769 -0.3849 -0.2528
20222SOL    HW161882   0.237   3.491   8.322 -0.0411  0.0489  0.1464
20222SOL    HW261883   0.262   3.359   8.392  0.8917 -0.3117 -0.8475
20223SOL     OW61884   8.663   2.419   7.782  0.1486  0.3095  0.4189
20223SOL    HW161885   8.711   2.340   7.807 -1.0811 -0.6259 -0.0958
20223SOL    HW261886   8.683   2.430   7.689  0.2319  0.5364  0.4648
20224SOL     OW61887   8.104   2.918   0.181 -0.0636 -0.0525  0.2033
20224SOL    HW161888   8.063   2.843   0.138 -2.6292  1.1553  0.3310
20224SOL    HW261889   8.152   2.963   0.111  0.8659 -1.3509 -0.0265
20225SOL     OW61890   8.324   2.860   7.891  0.1475  0.2223  0.2311
20225SOL    HW161891   8.393   2.921   7.864 -1.7197  2.2425 -0.2638
20225SOL    HW261892   8.268   2.852   7.813 -0.5291 -0.8795  0.8105
20226SOL     OW61893   7.832   3.062   8.745  0.4086  0.0021  0.9886
20226SOL    HW161894   7.741   3.056   8.719  0.5433  1.5788 -0.0225
20226SOL    HW261895   7.882   3.047   8.664  1.1028 -1.5505  1.6548
20227SOL     OW61896   7.851   2.176   0.045 -0.4174 -0.8427  0.1769
20227SOL    HW161897   7.871   2.152  -0.046  1.4295  1.6041 -0.1707
20227SOL    HW261898   7.772   2.229   0.038 -0.5443 -1.0423  0.0695
20228SOL     OW61899   7.748   3.616   7.667  0.0632 -0.0103 -0.4631
20228SOL    HW161900   7.683   3.635   7.735  0.0548 -0.3931 -0.3664
20228SOL    HW261901   7.771   3.524   7.679 -1.0005 -0.5004 -1.8615
20229SOL     OW61902   7.632   3.932   8.504  0.8153  0.2873  0.5303
20229SOL    HW161903   7.632   4.028   8.504  1.4994  0.2956  0.8402
20229SOL    HW261904   7.646   3.908   8.412 -1.4184  0.4483  0.1057
20230SOL     OW61905   8.009   2.927   8.515  0.5842 -0.2348  0.2605
20230SOL    HW161906   7.931   2.907   8.464  0.8528 -1.6241  0.3508
20230SOL    HW261907   8.050   2.842   8.532  1.4767  0.3512  1.2354
20231SOL     OW61908   7.964   4.357   0.360  0.0607  0.1226 -0.3498
20231SOL    HW161909   7.903   4.298   0.316  0.1755  1.0443 -1.8196
20231SOL    HW261910   7.940   4.353   0.452 -1.1605 -0.7583 -0.6867
20232SOL     OW61911   8.028   3.013   7.487  0.6946  0.8516 -0.4491
20232SOL    HW161912   7.940   3.047   7.501  1.0650  2.0757 -1.0155
20232SOL    HW261913   8.033   2.937   7.546 -0.3747  1.3730  0.3587
20233SOL     OW61914   8.745   2.536   8.771  0.5086  0.0994 -0.1530
20233SOL    HW161915   8.688   2.477   8.722  0.0921 -0.5439  1.0852
20233SOL    HW261916   8.761   2.609   8.711 -1.9824  0.5270 -0.3974
20234SOL     OW61917   7.117   3.234   8.486  0.6641  1.7096  0.0984
20234SOL    HW161918   7.090   3.324   8.472 -1.0467  1.3716  0.9651
20234SOL    HW261919   7.066   3.204   8.561  0.8722 -0.1011 -0.4139
20235SOL     OW61920   7.574   3.714   7.359  0.1543 -0.3265  0.0649
20235SOL    HW161921   7.509   3.696   7.427  1.6517 -1.4518  1.2381
20235SOL    HW261922   7.539   3.790   7.313 -2.2882 -1.2440  0.2603
20236SOL     OW61923   0.510   2.998   8.395  0.0368 -0.0100  0.1725
20236SOL    HW161924   0.546   2.975   8.481 -1.4687 -1.3571  0.4887
20236SOL    HW261925   0.472   2.916   8.362 -2.7798  1.2800 -0.0805
20237SOL     OW61926   8.417   2.972   8.474 -0.0972 -0.4309  0.0396
20237SOL    HW161927   8.339   2.920   8.461 -0.5958  0.4770 -0.7158
20237SOL    HW261928   8.389   3.062   8.461  0.3891  0.2248  2.8125
20238SOL     OW61929   8.528   2.080   7.924 -0.2567 -0.1621  0.0286
20238SOL    HW161930   8.487   2.140   7.986  0.8422  1.8352 -1.0691
20238SOL    HW261931   8.616   2.115   7.910  0.0598 -1.3999 -1.5033
20239SOL     OW61932   8.172   2.742   8.685  0.0410  0.3245 -0.1150
20239SOL    HW161933   8.101   2.737   8.748 -0.1541 -0.0275 -0.3606
20239SOL    HW261934   8.201   2.833   8.688 -2.3242  1.2630 -2.0824
20240SOL     OW61935   8.049   3.053   7.819 -0.2919 -0.0945  0.0416
20240SOL    HW161936   7.954   3.051   7.812 -0.1652 -0.4740 -2.0071
20240SOL    HW261937   8.078   2.972   7.778  0.9030 -0.3761  1.3726
20241SOL     OW61938   8.810   1.917   8.058 -0.0396 -0.1678  0.1192
20241SOL    HW161939   8.768   1.996   8.091  1.3289  0.8641 -0.5311
20241SOL    HW261940   8.747   1.847   8.075 -1.0533  0.9732  1.1763
20242SOL     OW61941   7.936   2.465   0.463 -0.3331 -0.6063  0.2035
20242SOL    HW161942   7.886   2.390   0.430  0.5010 -0.5893 -1.1897
20242SOL    HW261943   8.024   2.453   0.427  0.4029 -0.0894  1.7476
20243SOL     OW61944   8.779   2.727   8.562 -0.2043  0.4649 -0.1332
20243SOL    HW161945   8.827   2.685   8.490 -1.9159 -2.8837  0.4743
20243SOL    HW261946   8.687   2.712   8.541 -0.7596  0.2726  2.2250
20244SOL     OW61947   8.364   2.794   7.372 -0.1486  0.3048  0.2005
20244SOL    HW161948   8.332   2.884   7.376 -1.4426 -0.0385 -1.3225
20244SOL    HW261949   8.403   2.778   7.458  0.9609  2.6026  0.1728
20245SOL     OW61950   7.780   2.858   8.398  0.7241 -0.2653 -0.1737
20245SOL    HW161951   7.780   2.765   8.420 -1.1216 -0.5188 -1.0596
20245SOL    HW261952   7.749   2.861   8.307 -1.9961  1.3496  0.6886
20246SOL     OW61953   7.819   3.798   0.452  0.0282 -0.1045 -0.3841
20246SOL    HW161954   7.785   3.831   0.369 -1.4182 -1.7440 -0.4950
20246SOL    HW261955   7.910   3.775   0.434  0.5559  2.0535 -0.7488
20247SOL     OW61956   8.152   2.455   7.978  0.3941  0.6166  0.2967
20247SOL    HW161957   8.103   2.404   7.913  2.0253 -1.2425  0.4346
20247SOL    HW261958   8.238   2.469   7.939  1.6525 -1.1084  2.2198
20248SOL     OW61959   0.004   2.959   7.816  0.6134  0.2862  0.0850
20248SOL    HW161960   0.032   2.869   7.835 -0.2609 -0.0378 -0.0976
20248SOL    HW261961   0.084   3.005   7.793  1.4532  0.2400  2.6863
20249SOL     OW61962   8.282   2.010   8.140  0.3386  0.4376 -0.1193
20249SOL    HW161963   8.199   2.018   8.092  0.3503 -0.8374 -0.3846
20249SOL    HW261964   8.294   2.096   8.181  0.2783  1.5890 -2.3241
20250SOL     OW61965   8.328   3.413   7.981 -0.1190  0.1073  0.4531
20250SOL    HW161966   8.287   3.335   8.018  0.1924  0.6726  2.1081
20250SOL    HW261967   8.334   3.474   8.055  0.5140  1.3390 -0.5683
20251SOL     OW61968   7.720   3.667   8.002  0.0503 -0.1540  0.4310
20251SOL    HW161969   7.662   3.688   7.929 -0.1820  0.2495  0.7316
20251SOL    HW261970   7.800   3.715   7.984  0.1994 -0.4912  0.1613
20252SOL     OW61971   7.574   2.802   7.751  0.1588  0.1705 -0.0053
20252SOL    HW161972   7.588   2.894   7.775 -0.0696  0.4028 -0.7546
20252SOL    HW261973   7.625   2.790   7.671 -0.2231 -0.2179 -0.1924
20253SOL     OW61974   8.419   3.638   7.539  0.6194  0.2101 -0.0389
20253SOL    HW161975   8.424   3.546   7.515 -1.0536  0.3978 -1.1975
20253SOL    HW261976   8.352   3.642   7.607  1.1458  0.5023  0.4763
20254SOL     OW61977   8.039   3.785   7.945  0.2590  0.7511  0.1757
20254SOL    HW161978   8.102   3.853   7.969 -0.5250  1.1058  1.2972
20254SOL    HW261979   7.987   3.824   7.874 -0.1563  1.3023  0.7818
20255SOL     OW61980   7.845   3.516   8.544  0.2007 -0.3760 -0.0221
20255SOL    HW161981   7.939   3.501   8.557  0.5485  0.3012 -1.5231
20255SOL    HW261982   7.840   3.568   8.464 -1.5371 -1.4910 -0.6972
20256SOL     OW61983   8.122   3.447   8.574 -0.3861 -0.0011 -0.1827
20256SOL    HW161984   8.162   3.438   8.661 -0.3281 -1.4408 -0.3472
20256SOL    HW261985   8.174   3.516   8.532 -0.7620  1.1220  1.0995
20257SOL     OW61986   7.762   3.051   7.846  0.1110  0.3446 -0.3350
20257SOL    HW161987   7.763   2.992   7.922  4.9231 -0.2052 -0.5151
20257SOL    HW261988   7.738   3.136   7.882  0.9694 -0.1720  1.5910
20258SOL     OW61989   8.053   2.089   7.816  0.0757  0.2116  0.1677
20258SOL    HW161990   8.074   2.132   7.734  0.2776  0.1497  0.1858
20258SOL    HW261991   8.099   2.005   7.812  0.4776  0.4070  0.5431
20259SOL     OW61992   8.570   3.441   8.441  0.5154 -0.2241 -0.0533
20259SOL    HW161993   8.642   3.495   8.411  0.3071  0.6075  0.8871
20259SOL    HW261994   8.543   3.391   8.364  0.9049  0.7905 -0.8627
20260SOL     OW61995   8.158   3.186   8.491 -0.0128 -0.0902  0.0725
20260SOL    HW161996   8.086   3.129   8.462 -0.4306  0.5997 -0.2832
20260SOL    HW261997   8.116   3.271   8.505  0.6872  0.2447  0.1528
20261SOL     OW61998   8.455   2.192   8.490 -0.1174 -0.7546  0.0861
20261SOL    HW161999   8.466   2.108   8.445 -1.9232 -0.7259 -0.5078
20261SOL    HW262000   8.378   2.231   8.448  0.1630  0.8091  0.9520
20262SOL     OW62001   8.428   1.526   7.752  0.0666  0.2636  0.0162
20262SOL    HW162002   8.334   1.521   7.764 -0.1665  1.9985 -0.7974
20262SOL    HW262003   8.451   1.444   7.708 -0.9444 -0.4601  0.7928
20263SOL     OW62004   8.562   3.667   7.178 -0.2315 -0.1726  0.0336
20263SOL    HW162005   8.540   3.685   7.086 -0.5440  1.4349  0.3971
20263SOL    HW262006   8.586   3.752   7.214 -2.3367 -0.3273  2.0293
20264SOL     OW62007   8.086   2.238   7.528  0.3082 -0.1473 -0.4075
20264SOL    HW162008   8.007   2.188   7.550  0.6567 -0.3158  0.5001
20264SOL    HW262009   8.058   2.297   7.458 -0.5823 -0.3203 -0.2153
20265SOL     OW62010   8.454   2.710   7.643 -0.1508  0.0219 -0.9172
20265SOL    HW162011   8.528   2.765   7.669 -0.7004  1.2841 -1.9030
20265SOL    HW262012   8.431   2.662   7.723  2.2409 -1.0526 -0.8025
20266SOL     OW62013   8.469   3.238   8.228 -0.4207 -0.1271  0.1817
20266SOL    HW162014   8.395   3.299   8.228 -0.5198 -0.2294 -0.6321
20266SOL    HW262015   8.427   3.151   8.224 -0.2678 -0.2106  0.4179
20267SOL     OW62016   8.172   2.994   8.766 -0.4044 -0.3974 -1.1522
20267SOL    HW162017   8.235   3.056   8.728 -0.3639  1.3359  1.4326
20267SOL    HW262018   8.087   3.031   8.744 -0.4029  1.7809  1.7895
20268SOL     OW62019   8.700   3.857   8.257  0.2468  0.1371  0.2774
20268SOL    HW162020   8.677   3.770   8.290  2.8179  0.1753  2.4364
20268SOL    HW262021   8.617   3.904   8.256 -0.8663 -1.6774  1.1371
20269SOL     OW62022   8.152   2.783   7.056  0.3171  0.1494 -0.1881
20269SOL    HW162023   8.137   2.817   6.968 -0.4251 -0.0777 -0.1590
20269SOL    HW262024   8.147   2.859   7.113  2.5346  0.5922 -0.4806
20270SOL     OW62025   8.193   2.207   8.318  0.3138  0.2068  0.0898
20270SOL    HW162026   8.127   2.276   8.320 -1.7516 -1.6063 -0.6651
20270SOL    HW262027   8.167   2.148   8.389  1.5432 -0.2371  0.1969
20271SOL     OW62028   8.420   2.519   7.842 -0.5860 -0.1748  0.6988
20271SOL    HW162029   8.447   2.589   7.901 -0.2513 -0.2497  0.6370
20271SOL    HW262030   8.501   2.472   7.822 -0.9338 -1.1676  1.4954
20272SOL     OW62031   8.680   2.121   8.226 -0.5709 -0.2599 -0.2032
20272SOL    HW162032   8.717   2.205   8.254 -1.6025 -0.2383  1.2418
20272SOL    HW262033   8.585   2.133   8.236 -0.8388 -1.0299 -1.6657
20273SOL     OW62034   7.947   3.385   7.702  0.0027 -0.3578 -0.7275
20273SOL    HW162035   7.880   3.321   7.726  0.3870 -0.5115 -0.0290
20273SOL    HW262036   8.014   3.334   7.656  1.2473 -0.8738  1.5105
20274SOL     OW62037   8.647   2.704   7.220 -0.6081 -0.1301  0.2304
20274SOL    HW162038   8.567   2.659   7.191 -0.4072  0.5263 -1.4714
20274SOL    HW262039   8.704   2.701   7.143  2.1868 -3.0418  2.1509
20275SOL     OW62040   7.888   2.254   8.047 -0.4382  0.6246 -0.2108
20275SOL    HW162041   7.963   2.286   7.998  0.6842  1.2812  1.8417
20275SOL    HW262042   7.893   2.158   8.040  1.7034  0.5595  1.3922
20276SOL     OW62043   8.807   3.417   8.695 -0.0650 -0.6231 -0.2398
20276SOL    HW162044   8.739   3.385   8.755  0.9518  0.4993  1.5963
20276SOL    HW262045   8.822   3.344   8.634 -1.8599 -1.4204  0.2075
20277SOL     OW62046   8.111   3.324   7.501 -0.0737  0.2942 -0.0212
20277SOL    HW162047   8.093   3.391   7.435 -0.5893  0.9581  0.7772
20277SOL    HW262048   8.192   3.353   7.544 -1.1410  1.3256  1.4193
20278SOL     OW62049   7.900   2.717   0.349  0.1193 -0.2262 -0.3762
20278SOL    HW162050   7.936   2.643   0.398 -0.7823 -0.5275 -0.1545
20278SOL    HW262051   7.968   2.784   0.353  0.4472 -0.6003  0.4690
20279SOL     OW62052   0.060   2.587   8.341  0.0800 -0.4445  0.2485
20279SOL    HW162053   0.074   2.651   8.271  3.0925  0.7657  1.7600
20279SOL    HW262054   0.141   2.536   8.343 -0.7779 -1.8330  1.5072
20280SOL     OW62055   7.563   3.293   0.174 -0.4923  0.5835 -0.1896
20280SOL    HW162056   7.645   3.245   0.181  0.4690  1.6902 -2.5794
20280SOL    HW262057   7.583   3.367   0.116 -3.1048  1.0191 -0.6781
20281SOL     OW62058   8.169   3.194   8.019  0.9406  0.3605 -0.6045
20281SOL    HW162059   8.132   3.124   7.964  1.3175 -1.1255  0.9514
20281SOL    HW262060   8.105   3.265   8.012  0.7318  0.0511 -2.5422
20282SOL     OW62061   8.450   2.292   8.098 -0.1906 -0.3430 -0.1304
20282SOL    HW162062   8.355   2.293   8.090 -0.1178  1.1170 -1.3968
20282SOL    HW262063   8.470   2.372   8.146  0.3960 -0.6694  0.1764
20283SOL     OW62064   8.699   3.354   8.086 -0.7014  0.8715  0.0185
20283SOL    HW162065   8.758   3.280   8.078  0.7841  1.6680  2.4628
20283SOL    HW262066   8.616   3.317   8.115 -0.2543  0.0797  0.2947
20284SOL     OW62067   0.028   3.865   0.072 -0.0795  0.3975 -0.4982
20284SOL    HW162068   0.072   3.791   0.115  0.6131  0.4997 -1.0142
20284SOL    HW262069  -0.021   3.907   0.142 -0.2221 -0.3626 -0.1315
20285SOL     OW62070   7.856   3.264   8.384  0.1919  0.6265  0.7869
20285SOL    HW162071   7.832   3.350   8.417 -1.7928  1.2983 -2.0028
20285SOL    HW262072   7.812   3.202   8.442 -2.4581  1.7002  0.0725
20286SOL     OW62073   7.993   2.722   0.023  0.7534  0.2475  0.1312
20286SOL    HW162074   7.991   2.630   0.049  0.6347  0.3847  0.6292
20286SOL    HW262075   7.902   2.750   0.029  0.7639  0.3512 -0.1897
20287SOL     OW62076   0.082   2.407   8.019 -0.3393  0.4001 -0.3039
20287SOL    HW162077   0.058   2.442   7.933  0.9498  3.0784  0.3038
20287SOL    HW262078   0.003   2.418   8.072 -0.7495 -0.0873 -0.7975
20288SOL     OW62079   8.615   2.695   8.013  0.0967  0.0565  0.2086
20288SOL    HW162080   8.706   2.666   8.002  0.1589  0.7561 -1.3320
20288SOL    HW262081   8.603   2.763   7.947 -1.4776  0.1849  0.5835
20289SOL     OW62082   7.802   2.381   8.671 -0.2369 -0.6376 -0.0718
20289SOL    HW162083   7.761   2.306   8.629 -0.5714 -0.4920 -0.0047
20289SOL    HW262084   7.894   2.356   8.681 -0.0019 -0.4118 -1.4941
20290SOL     OW62085   7.515   3.066   8.447  0.0503  0.2527  0.0232
20290SOL    HW162086   7.558   3.097   8.367 -1.8447  1.1453 -0.7234
20290SOL    HW262087   7.456   2.996   8.416 -1.0933  0.9664  0.5070
20291SOL     OW62088   8.230   2.469   8.573 -0.1335  0.3109  0.1803
20291SOL    HW162089   8.172   2.531   8.617 -1.0192 -1.4805  1.6993
20291SOL    HW262090   8.219   2.488   8.480 -3.0548  0.2261  0.4022
20292SOL     OW62091   7.810   1.981   8.372 -0.2625 -0.5073 -0.2117
20292SOL    HW162092   7.900   2.007   8.351 -0.7207 -0.7829 -2.7071
20292SOL    HW262093   7.790   1.911   8.310 -1.9341 -1.0377  0.8721
20293SOL     OW62094   8.678   3.307   7.560 -0.4416  0.2102  0.4781
20293SOL    HW162095   8.635   3.357   7.491 -0.4282  0.3118  0.5433
20293SOL    HW262096   8.663   3.357   7.639 -2.5921 -1.1273  0.9960
20294SOL     OW62097   8.741   2.386   8.275  0.3621 -0.4883  0.5594
20294SOL    HW162098   8.801   2.447   8.318  0.5329  0.4033 -0.9100
20294SOL    HW262099   8.660   2.435   8.264  0.9329 -0.0031 -1.8842
20295SOL     OW62100   8.546   2.985   7.550  0.3161  0.4709  0.1220
20295SOL    HW162101   8.580   2.961   7.464 -0.2562 -1.2452  0.3304
20295SOL    HW262102   8.457   3.016   7.534 -0.1591 -0.8130  0.1661
20296SOL     OW62103   8.772   3.222   8.466 -0.1451 -0.1802 -0.2203
20296SOL    HW162104   8.705   3.288   8.481 -0.3952 -0.6438  0.7303
20296SOL    HW262105   8.769   3.206   8.372  0.0483  1.2908 -0.5017
20297SOL     OW62106   7.947   2.664   7.797  0.0081  0.4502 -0.6656
20297SOL    HW162107   7.927   2.683   7.888 -2.1069  1.5558 -1.2875
20297SOL    HW262108   7.933   2.570   7.788  0.6855  0.2500  0.2179
20298SOL     OW62109   8.009   2.444   8.296 -0.1645  0.6336  0.5472
20298SOL    HW162110   7.983   2.398   8.217  0.9557 -0.2054  0.6441
20298SOL    HW262111   7.947   2.516   8.304  0.1154  1.1416 -1.4614
20299SOL     OW62112   8.053   2.277   8.657 -0.1031  0.2590 -0.4043
20299SOL    HW162113   8.090   2.195   8.624  1.5402 -0.7883  3.4424
20299SOL    HW262114   8.113   2.345   8.626 -0.2532 -0.2266 -1.8291
20300SOL     OW62115   7.201   3.296   7.866  0.0018  0.0442  0.4956
20300SOL    HW162116   7.208   3.299   7.961 -1.1377  0.7170  0.5776
20300SOL    HW262117   7.292   3.295   7.835  0.4007 -1.3457  1.5965
20301SOL     OW62118   7.476   3.773   0.060 -1.1970  0.3036  0.5619
20301SOL    HW162119   7.486   3.677   0.058  3.0605  0.5774  0.5887
20301SOL    HW262120   7.493   3.800  -0.031  0.2952  1.1717  1.0821
20302SOL     OW62121   7.833   3.680   8.342 -0.0598  0.5932  0.1000
20302SOL    HW162122   7.891   3.635   8.281  0.0344  0.4553  0.2919
20302SOL    HW262123   7.858   3.772   8.336 -0.6193  0.7046 -0.7034
20303SOL     OW62124   8.528   2.608   8.546 -0.3795 -0.8129  0.0866
20303SOL    HW162125   8.435   2.626   8.531 -0.8616 -0.3177  3.0622
20303SOL    HW262126   8.531   2.516   8.574  0.2032 -1.1594 -1.0574
20304SOL     OW62127   7.766   3.173   8.136  0.3403 -0.4000  0.0928
20304SOL    HW162128   7.703   3.246   8.141  0.6106 -0.0654 -1.1324
20304SOL    HW262129   7.824   3.187   8.211  0.2824  0.5560 -0.0275
20305SOL     OW62130   7.982   2.388   7.777 -0.2969  0.2689  0.6538
20305SOL    HW162131   7.890   2.407   7.760  0.1472  0.6153 -1.7192
20305SOL    HW262132   8.012   2.341   7.700  1.6738  0.6920  1.0884
20306SOL     OW62133   8.249   2.543   8.265 -0.2821  0.1175  0.0389
20306SOL    HW162134   8.238   2.615   8.202 -1.0858 -0.4165 -0.4480
20306SOL    HW262135   8.166   2.496   8.262 -0.7844  0.7503  2.3937
20307SOL     OW62136   8.464   3.732   8.381  0.2472  0.0388 -0.6654
20307SOL    HW162137   8.384   3.715   8.330  0.6164  0.4762 -1.4074
20307SOL    HW262138   8.452   3.682   8.462 -0.7728  0.0986 -0.7712
20308SOL     OW62139   7.889   2.641   7.287 -0.2727  0.0987  0.4448
20308SOL    HW162140   7.894   2.708   7.218 -1.0418 -0.6534 -0.3676
20308SOL    HW262141   7.978   2.634   7.319  0.0910  0.5371 -0.4175
20309SOL     OW62142   7.569   3.375   8.534  0.2085 -0.3273 -0.1923
20309SOL    HW162143   7.504   3.307   8.516  0.3858 -0.5379 -0.0462
20309SOL    HW262144   7.570   3.429   8.455  0.7217 -1.0279 -0.6848
20310SOL     OW62145   0.054   2.839   8.819  0.8077 -0.2717 -0.1305
20310SOL    HW162146   0.057   2.829   8.724  1.7310  1.2379 -0.2885
20310SOL    HW262147  -0.011   2.907   8.834 -0.0118 -1.1402  0.4065
20311SOL     OW62148   8.560   3.449   7.780  0.0946  0.2771  0.4254
20311SOL    HW162149   8.621   3.465   7.852 -0.1051  2.1335  0.2452
20311SOL    HW262150   8.474   3.451   7.821  0.0880 -1.4818  0.5458
20312SOL     OW62151   8.234   3.552   0.230 -0.5070  0.0301  0.8265
20312SOL    HW162152   8.146   3.519   0.246 -0.5415 -0.5032 -0.3791
20312SOL    HW262153   8.292   3.480   0.254 -0.5190 -0.4228 -0.4089
20313SOL     OW62154   7.493   2.913   8.136 -0.5878  0.8638  0.1472
20313SOL    HW162155   7.428   2.874   8.194 -0.9354  1.1791 -0.0226
20313SOL    HW262156   7.451   2.914   8.050 -0.5213  1.4395  0.1121
20314SOL     OW62157   8.818   3.523   8.274 -0.5663 -0.3328 -0.0454
20314SOL    HW162158   8.902   3.494   8.310 -1.4777 -1.4039  1.3096
20314SOL    HW262159   8.807   3.470   8.195 -0.3689 -0.8254  0.2510
20315SOL     OW62160   8.523   2.531   8.218  0.3918 -0.4962 -0.0373
20315SOL    HW162161   8.437   2.564   8.246  0.0286 -1.2712 -0.2296
20315SOL    HW262162   8.547   2.589   8.146  0.0769 -0.2090  0.0816
20316SOL     OW62163   8.215   3.620   7.752  0.6898  0.4850  0.0242
20316SOL    HW162164   8.148   3.653   7.812  0.7234  2.1080 -0.7830
20316SOL    HW262165   8.268   3.560   7.806 -2.2653 -2.1400  0.3010
20317SOL     OW62166   7.693   2.428   7.698  0.0738  0.0239  0.4783
20317SOL    HW162167   7.645   2.488   7.639 -2.6284 -0.0865  2.3657
20317SOL    HW262168   7.641   2.348   7.696  1.0846 -0.6677  1.4765
20318SOL     OW62169   8.690   3.898   7.321 -0.3823  0.0782  0.0587
20318SOL    HW162170   8.769   3.865   7.363 -0.2467  1.8579  1.3354
20318SOL    HW262171   8.625   3.899   7.391 -2.1313 -2.8564 -1.2940
20319SOL     OW62172   8.627   2.975   8.636  0.3904  0.0522 -0.4544
20319SOL    HW162173   8.562   2.958   8.568  2.2987 -0.4142 -2.2495
20319SOL    HW262174   8.695   2.909   8.622  1.1347  0.3086  1.5685
20320SOL     OW62175   8.590   2.915   7.802 -0.8916  0.1279  0.3786
20320SOL    HW162176   8.581   2.946   7.712  0.8892 -1.7086 -0.5075
20320SOL    HW262177   8.681   2.933   7.825 -1.0337 -0.3868  1.4153
20321SOL     OW62178   8.683   2.919   8.227 -0.0579  0.4029 -0.3759
20321SOL    HW162179   8.705   2.838   8.274  1.2546  1.0853  0.2151
20321SOL    HW262180   8.591   2.933   8.247 -0.6842 -1.5952 -1.4956
20322SOL     OW62181   8.380   1.943   8.435 -0.5353  0.2412 -0.2512
20322SOL    HW162182   8.318   1.912   8.501  1.0078  2.1240  2.2928
20322SOL    HW262183   8.334   1.935   8.352 -3.3614 -0.3859  1.2684
20323SOL     OW62184   8.021   3.597   8.152  0.2116 -0.0460 -0.1445
20323SOL    HW162185   8.026   3.517   8.100  1.6013  0.7825 -1.3666
20323SOL    HW262186   7.987   3.663   8.091  1.1199  0.7644  0.2067
20324SOL     OW62187   7.962   3.369   7.993  0.3841 -0.0953  0.0855
20324SOL    HW162188   7.875   3.337   8.017  1.0233 -0.5699  1.9044
20324SOL    HW262189   7.960   3.376   7.897 -0.2199 -4.4637 -0.4086
20325SOL     OW62190   7.946   2.488   0.123  0.0161  0.1494  0.3004
20325SOL    HW162191   7.950   2.405   0.076 -1.0571 -0.4787  1.2428
20325SOL    HW262192   7.888   2.470   0.198 -0.1263  1.7083  0.6047
20326SOL     OW62193   7.303   2.300   6.923 -0.7041  0.2900  0.0539
20326SOL    HW162194   7.267   2.289   7.011  1.9243  1.1210  1.3410
20326SOL    HW262195   7.382   2.353   6.936  0.9092 -1.2678 -2.5403
20327SOL     OW62196   7.538   2.217   7.615  0.0792 -0.4518  0.0764
20327SOL    HW162197   7.496   2.170   7.544 -2.2533 -0.2340  1.2238
20327SOL    HW262198   7.475   2.214   7.687  0.9125  2.1760  1.0450
20328SOL     OW62199   8.518   3.913   7.520 -0.6297  0.6824 -0.3193
20328SOL    HW162200   8.500   3.821   7.537  1.2547  0.4050  0.4841
20328SOL    HW262201   8.442   3.960   7.554 -1.4942 -0.5523 -0.5019
20329SOL     OW62202   8.200   2.736   0.371  0.4564 -1.2644 -0.6194
20329SOL    HW162203   8.274   2.770   0.421 -2.7449  2.2726  2.3273
20329SOL    HW262204   8.195   2.792   0.294 -0.2171 -0.1415  0.2105
20330SOL     OW62205   7.803   3.557   0.124  0.1284 -0.2138  0.0887
20330SOL    HW162206   7.778   3.514   0.206 -1.0744  1.0160  0.4014
20330SOL    HW262207   7.775   3.496   0.056  0.3247 -0.8533  0.5730
20331SOL     OW62208   8.480   1.975   7.639 -0.2529 -0.2711 -0.3472
20331SOL    HW162209   8.436   2.050   7.598 -3.0512 -1.1480  0.8227
20331SOL    HW262210   8.487   1.998   7.731  3.2769  0.4378 -0.6557
20332SOL     OW62211   8.187   2.734   8.090 -0.4837 -0.1942  0.4646
20332SOL    HW162212   8.236   2.786   8.026 -0.7812  0.8069  1.0165
20332SOL    HW262213   8.116   2.694   8.041 -1.7684  1.9839  0.4407
20333SOL     OW62214   8.395   3.352   7.495 -0.5822 -0.2842  0.4006
20333SOL    HW162215   8.433   3.289   7.557  0.2414  0.6551  0.8877
20333SOL    HW262216   8.392   3.305   7.412  1.5050 -0.4938  0.3798
20334SOL     OW62217   8.234   3.439   8.821  0.2068  0.3083  0.5418
20334SOL    HW162218   8.197   3.351   8.829 -1.1414  0.7357 -0.5707
20334SOL    HW262219   8.247   3.468   8.911 -0.8667 -0.4110  0.9453
20335SOL     OW62220   8.226   2.811   8.372 -0.3768 -0.5303 -0.0400
20335SOL    HW162221   8.210   2.838   8.282 -0.1584 -1.8532 -0.5069
20335SOL    HW262222   8.222   2.715   8.369  0.7284 -0.6449  1.1376
20336SOL     OW62223   8.313   3.256   7.255 -0.1983  0.3282 -0.1310
20336SOL    HW162224   8.355   3.208   7.183 -0.3478 -1.4209  0.8863
20336SOL    HW262225   8.289   3.340   7.216 -0.4702 -0.6266 -2.1920
20337SOL     OW62226   7.767   2.900   8.131 -0.7253 -0.3420  0.0506
20337SOL    HW162227   7.672   2.909   8.121 -0.4297  1.8967 -1.3199
20337SOL    HW262228   7.799   2.990   8.136  1.4237 -1.0312 -0.5730
20338SOL     OW62229   8.116   2.809   7.669 -0.8847  0.1507 -0.3339
20338SOL    HW162230   8.173   2.754   7.615  0.4806  0.2614  0.9096
20338SOL    HW262231   8.050   2.749   7.703 -0.0238 -0.5214  0.1781
20339SOL     OW62232   7.784   2.585   8.467 -0.4298 -0.1113  0.4869
20339SOL    HW162233   7.736   2.531   8.405 -0.6661 -0.2585  0.7954
20339SOL    HW262234   7.781   2.536   8.549  0.1490 -0.0660  0.5375
20340SOL     OW62235   8.118   4.163   8.015  0.2979  0.0810  0.7199
20340SOL    HW162236   8.155   4.188   7.930 -1.7309 -0.8336 -0.5067
20340SOL    HW262237   8.152   4.076   8.032 -2.7188 -1.7062 -1.4732
20341SOL     OW62238   8.363   2.104   8.725 -0.9626  0.8199 -0.0977
20341SOL    HW162239   8.372   2.183   8.778  0.4202  0.8455 -0.3443
20341SOL    HW262240   8.411   2.123   8.644  1.5360 -1.1042  0.8033
20342SOL     OW62241   8.583   1.948   8.828 -0.0236  0.4268  0.1469
20342SOL    HW162242   8.627   1.922   8.746  1.0340  2.3253  0.0514
20342SOL    HW262243   8.502   1.989   8.799  0.2259  0.8601  0.0458
20343SOL     OW62244   8.346   3.024   8.156  0.2517  0.4579 -0.4126
20343SOL    HW162245   8.388   2.965   8.094 -0.5756 -0.1090 -0.4593
20343SOL    HW262246   8.267   3.054   8.110 -0.0214  0.5438  0.1047
20344SOL     OW62247   7.987   3.306   8.820  0.1112  0.4903 -0.4180
20344SOL    HW162248   7.936   3.385   8.837  0.9243  0.8972  0.1636
20344SOL    HW262249   7.921   3.241   8.795 -0.4154  2.0022 -3.4986
20345SOL     OW62250   8.449   1.829   7.143 -0.6624 -0.3170  0.2202
20345SOL    HW162251   8.428   1.887   7.216 -0.5268  1.0207 -0.7612
20345SOL    HW262252   8.485   1.751   7.184  0.5701  0.8864  1.5571
20346SOL     OW62253   7.474   3.240   7.698 -0.3455  0.0722  0.8338
20346SOL    HW162254   7.467   3.315   7.638 -0.5561  0.8966  1.8628
20346SOL    HW262255   7.467   3.164   7.641  3.5588  0.7045 -0.8283
20347SOL     OW62256   7.922   3.851   7.661  0.8486 -0.3543 -0.0139
20347SOL    HW162257   7.867   3.897   7.598  0.4174  1.6996  1.7426
20347SOL    HW262258   7.878   3.768   7.675 -0.4909  0.2507 -0.4680
20348SOL     OW62259   7.333   4.781   0.120 -0.1376  0.2373  0.6048
20348SOL    HW162260   7.400   4.841   0.152 -0.3222 -0.3026  2.0594
20348SOL    HW262261   7.372   4.741   0.042  0.4807  1.2867  0.3545
20349SOL     OW62262   7.434   3.777   0.684 -0.4853 -0.3315  0.1570
20349SOL    HW162263   7.456   3.808   0.596 -2.3542  1.0861  0.1100
20349SOL    HW262264   7.417   3.858   0.734 -0.4389 -1.1451  1.5431
20350SOL     OW62265   6.979   4.328   0.754 -0.0301 -0.1415  0.0925
20350SOL    HW162266   7.034   4.405   0.741  0.5520 -0.3047  1.3920
20350SOL    HW262267   7.020   4.259   0.701  1.3257 -0.3776  1.3691
20351SOL     OW62268   7.768   4.778   1.328  0.0314  0.0822  0.1577
20351SOL    HW162269   7.778   4.705   1.389 -1.7146  0.4686  0.9496
20351SOL    HW262270   7.811   4.748   1.248  0.6834 -1.1989  0.9538
20352SOL     OW62271   0.183   5.276   0.542 -0.1580  0.2590 -0.3413
20352SOL    HW162272   0.260   5.221   0.533 -1.1068 -1.1665  0.0399
20352SOL    HW262273   0.210   5.344   0.605  0.4081 -0.9611  0.7897
20353SOL     OW62274   8.570   4.357   0.594 -0.0882 -0.4763 -0.4024
20353SOL    HW162275   8.643   4.364   0.655 -0.5167  2.5024 -0.0872
20353SOL    HW262276   8.500   4.409   0.634 -1.2993 -0.6757 -2.1503
20354SOL     OW62277   8.032   4.870   0.936  0.6017 -0.3386 -0.4872
20354SOL    HW162278   8.007   4.854   0.845 -0.4164 -2.5178  0.1161
20354SOL    HW262279   7.977   4.811   0.987  0.8428  1.1436  1.6013
20355SOL     OW62280   8.275   4.369   2.002 -0.2745  0.0622  0.5831
20355SOL    HW162281   8.212   4.355   2.072 -0.4171  2.0678  0.8941
20355SOL    HW262282   8.225   4.359   1.921 -0.8065  0.7939  0.8190
20356SOL     OW62283   7.943   4.856   0.652 -0.8848  0.3856  0.2422
20356SOL    HW162284   7.887   4.799   0.599 -2.1669  1.0174  0.8867
20356SOL    HW262285   7.953   4.936   0.600 -0.2817  0.1488 -0.0189
20357SOL     OW62286   8.188   4.719   1.896 -0.0526 -0.4766  0.5052
20357SOL    HW162287   8.163   4.727   1.804  1.3568 -1.0825  0.0397
20357SOL    HW262288   8.105   4.711   1.943 -0.7744 -1.4733 -0.8572
20358SOL     OW62289   7.921   5.109   1.027 -0.1056  0.3616 -0.3598
20358SOL    HW162290   7.962   5.030   0.989  0.6323  0.9358 -0.7826
20358SOL    HW262291   7.960   5.116   1.114  0.7040  0.8923 -0.7514
20359SOL     OW62292   7.744   3.945   1.476 -0.5714  0.3176 -0.7406
20359SOL    HW162293   7.684   3.928   1.548  0.1384  1.2347  0.1178
20359SOL    HW262294   7.812   4.000   1.515  0.5217 -0.2223 -1.8074
20360SOL     OW62295   8.129   5.838   0.671 -0.3425  0.4846  0.3172
20360SOL    HW162296   8.157   5.921   0.710 -0.9971  0.6750  0.3989
20360SOL    HW262297   8.209   5.787   0.663  0.2381  1.4891 -0.6141
20361SOL     OW62298   8.576   5.140   1.680 -0.0237 -0.2759  0.6358
20361SOL    HW162299   8.572   5.210   1.614 -0.9951  1.4360  2.4065
20361SOL    HW262300   8.670   5.120   1.687  0.2291  0.5160 -0.2246
20362SOL     OW62301   7.634   5.418   0.622  0.4735  0.1130  0.3450
20362SOL    HW162302   7.609   5.462   0.703  1.9546 -0.6819  1.2634
20362SOL    HW262303   7.572   5.452   0.557 -1.2928  0.1422  1.9541
20363SOL     OW62304   7.819   4.737   1.039 -0.1317 -0.1503  0.2885
20363SOL    HW162305   7.799   4.658   0.988 -0.8969  0.8903 -1.1113
20363SOL    HW262306   7.749   4.798   1.016  1.4138  1.5580 -0.0865
20364SOL     OW62307   8.121   5.495   1.774  0.4330 -0.1773  0.0927
20364SOL    HW162308   8.157   5.583   1.769  0.2433 -0.0389  0.9471
20364SOL    HW262309   8.118   5.475   1.868  0.1832 -0.9694 -0.0711
20365SOL     OW62310   7.807   5.067   0.160 -0.1332 -0.5805  0.0373
20365SOL    HW162311   7.851   5.109   0.086 -0.9223 -0.6253 -0.4672
20365SOL    HW262312   7.822   4.973   0.148 -0.2631 -0.5878 -0.0680
20366SOL     OW62313   7.537   4.419   0.553 -0.4045  0.4207  0.2506
20366SOL    HW162314   7.553   4.417   0.459  1.7518 -0.2089  0.5738
20366SOL    HW262315   7.587   4.494   0.584  0.9539 -0.8256  1.1865
20367SOL     OW62316   7.315   5.388   0.572  0.4281 -0.3308 -0.1453
20367SOL    HW162317   7.221   5.379   0.589  0.1280  0.1035 -1.4536
20367SOL    HW262318   7.349   5.436   0.648 -0.3900 -0.5694  0.3806
20368SOL     OW62319   0.152   4.971   0.487 -0.1936 -0.2800  0.1684
20368SOL    HW162320   0.163   4.889   0.440  0.5004  0.0646 -0.2878
20368SOL    HW262321   0.123   5.033   0.420  0.0230  0.0267  0.3561
20369SOL     OW62322   7.424   4.542   1.845 -0.1222 -0.3575  0.0851
20369SOL    HW162323   7.331   4.565   1.850 -0.4435 -1.7245  1.2095
20369SOL    HW262324   7.456   4.553   1.935  0.3162 -1.7479  0.1187
20370SOL     OW62325   8.410   5.062   0.845  0.1728 -0.1861  0.2904
20370SOL    HW162326   8.357   5.120   0.791  0.4009 -1.3102 -1.2116
20370SOL    HW262327   8.491   5.049   0.795  1.1172  0.0185  1.6719
20371SOL     OW62328   8.407   4.759   1.649  0.1648 -0.0101  0.3415
20371SOL    HW162329   8.462   4.804   1.585  1.4601 -1.7405  0.1351
20371SOL    HW262330   8.465   4.743   1.724 -0.4010 -0.7594  0.6383
20372SOL     OW62331   8.083   3.956   0.723  0.4963 -0.6273  0.2196
20372SOL    HW162332   8.047   4.044   0.735  0.7609 -0.6781  1.5089
20372SOL    HW262333   8.163   3.970   0.672 -1.1902 -0.5077 -2.6226
20373SOL     OW62334   7.524   4.540   1.340  0.2314 -0.7024  0.0067
20373SOL    HW162335   7.515   4.622   1.292  0.4219  1.0822  2.8105
20373SOL    HW262336   7.436   4.521   1.371 -0.1004 -2.4258 -1.8226
20374SOL     OW62337   8.573   5.380   1.510  0.3899 -0.1063 -0.3235
20374SOL    HW162338   8.632   5.453   1.528  0.8519 -0.5809  0.1322
20374SOL    HW262339   8.486   5.414   1.529  0.7483 -0.2115  1.6493
20375SOL     OW62340   7.881   3.740   2.028  0.0626 -0.0897 -0.1563
20375SOL    HW162341   7.952   3.751   1.965 -0.2377 -0.2655 -0.5296
20375SOL    HW262342   7.874   3.826   2.070  0.2562  0.0349 -0.3713
20376SOL     OW62343   7.907   4.665   0.446 -0.0424 -0.6029 -0.1101
20376SOL    HW162344   7.999   4.690   0.438  0.6767 -2.6875  0.9442
20376SOL    HW262345   7.909   4.573   0.470 -2.3972 -0.5379  0.6100
20377SOL     OW62346   8.399   4.180   0.827  0.0995  0.2643 -0.4408
20377SOL    HW162347   8.478   4.189   0.880 -0.0281  0.6928 -0.3253
20377SOL    HW262348   8.365   4.269   0.817  0.9765  0.4233 -2.5584
20378SOL     OW62349   7.959   4.111   1.560 -0.0087  0.4705  0.1098
20378SOL    HW162350   8.041   4.078   1.522 -1.1613 -0.3997 -1.7243
20378SOL    HW262351   7.963   4.083   1.651  2.9674  2.8358  0.9006
20379SOL     OW62352   8.755   4.069   1.534  0.1084  0.0818 -0.0949
20379SOL    HW162353   8.720   3.980   1.529 -0.4446  0.1985  1.2514
20379SOL    HW262354   8.849   4.056   1.545 -0.1956 -0.4768  2.5458
20380SOL     OW62355   8.296   4.465   1.606  0.4527 -0.2289  0.3850
20380SOL    HW162356   8.252   4.450   1.522  2.4768 -1.9431 -0.4673
20380SOL    HW262357   8.274   4.555   1.629 -1.3160 -0.1782 -1.2553
20381SOL     OW62358   8.051   3.908   1.157  0.2084  0.2781  0.4172
20381SOL    HW162359   8.028   3.908   1.064 -0.5862  1.7980  0.5772
20381SOL    HW262360   8.068   4.000   1.177  0.6963 -0.0740  1.7042
20382SOL     OW62361   8.126   4.523   0.193  0.0406 -0.0955  0.1115
20382SOL    HW162362   8.094   4.455   0.252 -1.0618  0.3983  0.1116
20382SOL    HW262363   8.160   4.591   0.251 -2.2923  1.0121  0.3086
20383SOL     OW62364   7.394   4.349   0.788  0.2258 -0.3180 -0.1710
20383SOL    HW162365   7.412   4.383   0.701 -0.8226 -0.6084 -0.5172
20383SOL    HW262366   7.480   4.329   0.825  0.6407 -1.0509 -1.4880
20384SOL     OW62367   7.711   5.105   1.946  0.2128 -0.8081  0.0469
20384SOL    HW162368   7.664   5.021   1.943 -1.1582 -0.0545 -0.9207
20384SOL    HW262369   7.685   5.143   2.030 -0.2922 -0.7524 -0.1270
20385SOL     OW62370   8.044   4.235   8.667  0.0705  0.6379 -0.0284
20385SOL    HW162371   8.118   4.292   8.646 -0.9110  2.3029  0.9008
20385SOL    HW262372   8.072   4.189   8.746  0.6442  0.2084 -0.4680
20386SOL     OW62373   8.252   4.813   0.769 -0.4275 -0.2078  0.4699
20386SOL    HW162374   8.181   4.821   0.833 -1.0197  0.3403 -0.2364
20386SOL    HW262375   8.297   4.898   0.771 -0.2260 -0.3121  0.4217
20387SOL     OW62376   7.665   4.227   0.854 -0.2089 -0.0629  0.6868
20387SOL    HW162377   7.756   4.215   0.880 -0.2523 -0.6898  0.5790
20387SOL    HW262378   7.616   4.165   0.909 -0.7458  1.2720  1.7622
20388SOL     OW62379   8.524   5.222   1.044 -0.3552  0.3810  0.3321
20388SOL    HW162380   8.515   5.318   1.042 -0.1227  0.4187  0.9828
20388SOL    HW262381   8.475   5.192   0.967 -1.0221  0.9790  0.5141
20389SOL     OW62382   7.740   5.547   0.937  0.1858  0.4423  0.0131
20389SOL    HW162383   7.816   5.490   0.930 -0.5615 -0.4291 -1.7311
20389SOL    HW262384   7.671   5.490   0.971  0.1644  1.0804  1.0550
20390SOL     OW62385   8.528   5.203   1.322  0.1517  0.1409 -0.0237
20390SOL    HW162386   8.548   5.267   1.390 -3.0607  1.3219 -0.0518
20390SOL    HW262387   8.554   5.245   1.240 -2.4788  1.8184 -0.1044
20391SOL     OW62388   7.540   4.731   0.408 -0.1958  0.2888  0.2219
20391SOL    HW162389   7.475   4.800   0.395 -0.5473 -0.1822 -0.6100
20391SOL    HW262390   7.564   4.738   0.500 -1.8045  0.1491  0.6779
20392SOL     OW62391   7.933   4.644   1.995 -0.8801  0.3734  0.2981
20392SOL    HW162392   7.920   4.696   1.915 -0.0446 -1.1600 -0.8952
20392SOL    HW262393   7.863   4.580   1.994  0.7280 -1.4837 -0.8046
20393SOL     OW62394   8.780   5.254   0.502  0.2449 -0.4942 -0.3249
20393SOL    HW162395   8.736   5.198   0.567 -0.1604  0.8776  0.6121
20393SOL    HW262396   8.874   5.241   0.520  0.1487 -0.5991  0.1207
20394SOL     OW62397   7.402   4.282   2.008 -0.1739 -0.2526  0.0608
20394SOL    HW162398   7.326   4.320   1.964  0.1237 -0.2925 -0.4943
20394SOL    HW262399   7.365   4.218   2.068 -0.5475 -0.8402 -0.7762
20395SOL     OW62400   0.042   5.692   8.356  0.0965  0.2185  0.2634
20395SOL    HW162401  -0.024   5.694   8.425 -0.4245 -0.0392 -0.2168
20395SOL    HW262402   0.121   5.728   8.397  0.1620 -1.0629  1.3567
20396SOL     OW62403   7.691   5.421   0.271 -0.1244 -0.0684 -0.4252
20396SOL    HW162404   7.705   5.423   0.177  1.0389 -0.4944 -0.2737
20396SOL    HW262405   7.596   5.435   0.282 -0.3497 -0.5605 -1.6675
20397SOL     OW62406   8.083   5.189   1.234 -0.0312 -0.6959 -0.4401
20397SOL    HW162407   8.045   5.235   1.309  1.7003  1.1246 -0.5962
20397SOL    HW262408   8.134   5.255   1.188  0.1800 -2.1236 -2.4062
20398SOL     OW62409   8.490   5.508   1.043 -0.3237  0.2455 -0.4971
20398SOL    HW162410   8.421   5.511   1.109 -1.2489  0.0343 -1.4145
20398SOL    HW262411   8.485   5.593   1.000 -1.6041 -0.5637 -2.0824
20399SOL     OW62412   7.817   4.360   0.615 -0.1234 -0.2493 -0.1475
20399SOL    HW162413   7.852   4.271   0.612  1.4621  0.3717 -1.1014
20399SOL    HW262414   7.723   4.349   0.603  0.1499 -1.7311 -1.1377
20400SOL     OW62415   8.102   3.853   1.877  0.0586 -0.1630  0.4439
20400SOL    HW162416   8.176   3.835   1.934  0.4774 -0.1754 -0.0896
20400SOL    HW262417   8.131   3.825   1.790 -1.0493 -1.4045  0.4343
20401SOL     OW62418   8.326   5.035   1.247  0.2481  0.2142 -0.5904
20401SOL    HW162419   8.382   5.106   1.279  0.2651  1.3585 -2.9478
20401SOL    HW262420   8.239   5.075   1.237 -0.0435 -0.4437 -0.7745
20402SOL     OW62421   8.562   4.375   1.614  0.4109 -0.2389  0.1808
20402SOL    HW162422   8.603   4.404   1.532  2.7424 -1.4547  0.8204
20402SOL    HW262423   8.474   4.412   1.611  0.0753 -0.9246 -3.2675
20403SOL     OW62424   8.132   4.629   1.163 -0.0564 -0.0882  0.3825
20403SOL    HW162425   8.099   4.589   1.082  0.1983 -1.8501  1.1057
20403SOL    HW262426   8.224   4.604   1.166 -0.0780 -0.0771  1.2255
20404SOL     OW62427   8.421   4.152   0.415  0.9522 -0.3042 -0.3353
20404SOL    HW162428   8.457   4.221   0.472 -2.8433  0.8011  1.0165
20404SOL    HW262429   8.392   4.199   0.337 -0.2798 -0.5578 -0.0521
20405SOL     OW62430   7.977   3.767   0.885 -0.0628  0.1026 -0.5185
20405SOL    HW162431   7.884   3.778   0.902  0.3239  2.2524  0.5380
20405SOL    HW262432   7.993   3.818   0.806  0.2085 -0.3941 -0.7924
20406SOL     OW62433   8.448   5.329   0.059 -0.7776 -0.1007  0.0125
20406SOL    HW162434   8.517   5.314  -0.006 -1.4332  0.8804 -0.9475
20406SOL    HW262435   8.492   5.317   0.143  0.2107 -0.9152 -0.5933
20407SOL     OW62436   8.071   4.545   8.785 -0.1881 -0.4878  0.4881
20407SOL    HW162437   8.081   4.535   8.880 -1.0350 -2.7455  0.4069
20407SOL    HW262438   8.149   4.504   8.748 -1.4277 -2.8279  0.2212
20408SOL     OW62439   8.119   4.484   1.394 -0.2408  0.7489 -0.3442
20408SOL    HW162440   8.114   4.538   1.315  1.7834 -0.8279 -1.6636
20408SOL    HW262441   8.048   4.421   1.385 -0.9792  1.5184 -0.0894
20409SOL     OW62442   8.691   5.478   0.847 -0.3202 -0.7631  0.6753
20409SOL    HW162443   8.620   5.461   0.909 -1.5723  0.0404 -0.4667
20409SOL    HW262444   8.748   5.401   0.853 -1.6063 -1.7017  1.2028
20410SOL     OW62445   7.484   4.574   0.962  0.5018  0.5933  0.4983
20410SOL    HW162446   7.434   4.493   0.956 -0.0173  0.8258  1.4804
20410SOL    HW262447   7.552   4.555   1.027 -0.7717  1.4822  2.1931
20411SOL     OW62448   8.343   5.660   0.660 -0.1565 -0.4337  0.3297
20411SOL    HW162449   8.391   5.620   0.587 -0.6115 -0.2498 -0.0758
20411SOL    HW262450   8.411   5.703   0.712  0.1907 -0.6949  0.0970
20412SOL     OW62451   8.111   4.864   8.588  0.1168 -0.0848  0.0046
20412SOL    HW162452   8.101   4.941   8.644  0.9484 -1.1670  1.7041
20412SOL    HW262453   8.049   4.800   8.623  0.4692 -0.6987 -0.4758
20413SOL     OW62454   7.413   4.312   1.645 -1.2137  0.1353  0.2869
20413SOL    HW162455   7.374   4.362   1.573 -0.2426  1.9030  0.9225
20413SOL    HW262456   7.433   4.378   1.712  0.8076 -0.9953  0.8850
20414SOL     OW62457   8.110   3.545   0.969  0.6079 -0.4328  0.5230
20414SOL    HW162458   8.175   3.533   0.900 -1.5821 -1.9989 -1.4605
20414SOL    HW262459   8.068   3.629   0.948 -0.9256 -1.4947 -0.9815
20415SOL     OW62460   8.315   4.266   0.205  0.5081 -0.0040  0.2478
20415SOL    HW162461   8.317   4.218   0.122 -0.3883 -2.2371  1.4389
20415SOL    HW262462   8.309   4.358   0.180  2.5941 -0.4099 -2.1660
20416SOL     OW62463   8.098   3.463   0.526 -0.4642  0.4645 -0.2902
20416SOL    HW162464   8.158   3.538   0.529  0.3472 -0.1179 -1.2397
20416SOL    HW262465   8.066   3.463   0.435 -0.3628 -0.4080 -0.3284
20417SOL     OW62466   7.567   5.132   0.640  0.2911  0.2883 -0.1313
20417SOL    HW162467   7.603   5.144   0.552  0.2461  1.2017 -0.0322
20417SOL    HW262468   7.552   5.221   0.672 -0.5312 -0.0516  0.4559
20418SOL     OW62469   8.562   3.869   8.769 -0.3433  0.0496  0.3209
20418SOL    HW162470   8.615   3.801   8.727 -2.2161 -1.5927  0.4604
20418SOL    HW262471   8.519   3.915   8.697  0.2222  0.5165  0.2696
20419SOL     OW62472   7.682   3.808   0.213 -0.4743 -0.3930  0.2222
20419SOL    HW162473   7.752   3.767   0.162  1.6104  2.8307  0.1797
20419SOL    HW262474   7.603   3.795   0.160  0.8721 -0.5662 -1.8733
20420SOL     OW62475   8.544   4.875   1.414 -0.3826 -0.7204 -0.5755
20420SOL    HW162476   8.611   4.912   1.472  1.3777 -2.3584 -1.4542
20420SOL    HW262477   8.528   4.944   1.350 -0.4971  0.1707  0.3839
20421SOL     OW62478   8.497   4.628   1.017 -0.1105 -0.5316  0.6372
20421SOL    HW162479   8.486   4.586   1.102 -3.9677 -1.7775 -0.2582
20421SOL    HW262480   8.476   4.720   1.032  0.8098 -0.4168  1.2764
20422SOL     OW62481   8.244   4.023   1.400  0.0630  0.2601 -0.4725
20422SOL    HW162482   8.252   3.940   1.448  0.2130  0.0504 -0.8551
20422SOL    HW262483   8.269   4.001   1.310  3.1128  1.3453 -0.0103
20423SOL     OW62484   8.294   4.180   1.654 -0.5520 -0.4136  0.1899
20423SOL    HW162485   8.259   4.269   1.658  0.3925 -0.0369  0.3663
20423SOL    HW262486   8.278   4.151   1.565 -0.3223  0.1737 -0.0459
20424SOL     OW62487   8.173   5.085   0.429 -0.7158  0.4346 -0.1227
20424SOL    HW162488   8.257   5.082   0.475 -0.5884 -0.5130 -0.3894
20424SOL    HW262489   8.179   5.163   0.374  1.1974 -1.1037 -2.3167
20425SOL     OW62490   7.729   4.564   1.503  0.1063 -0.0678  0.5014
20425SOL    HW162491   7.646   4.546   1.458 -0.8545  0.3120  2.0694
20425SOL    HW262492   7.752   4.481   1.545  0.3960 -0.0949  0.2957
20426SOL     OW62493   8.575   4.163   1.359 -0.2656 -0.1544 -0.2464
20426SOL    HW162494   8.524   4.093   1.318 -0.2694 -0.2969  0.0052
20426SOL    HW262495   8.607   4.126   1.441  0.1223 -0.0192 -0.3315
20427SOL     OW62496   7.687   5.189   1.688  0.6897 -0.3716 -0.5439
20427SOL    HW162497   7.727   5.125   1.628  0.1244 -1.0060 -0.2622
20427SOL    HW262498   7.699   5.150   1.775  1.2966  0.4309 -0.2547
20428SOL     OW62499   7.702   4.930   0.761  0.3141 -0.1550  0.8007
20428SOL    HW162500   7.795   4.919   0.737 -0.0074 -0.8916 -0.1835
20428SOL    HW262501   7.673   5.005   0.710  0.0315 -0.7671  0.0349
20429SOL     OW62502   8.166   4.052   0.326 -0.2097  0.0908 -0.5961
20429SOL    HW162503   8.245   4.091   0.288  0.1129  1.0522  0.9645
20429SOL    HW262504   8.094   4.101   0.285  0.1597  1.6942  0.5896
20430SOL     OW62505   8.644   4.997   0.685  0.0059 -0.2972  0.3856
20430SOL    HW162506   8.625   4.907   0.657  0.5100 -0.2171 -0.2467
20430SOL    HW262507   8.733   4.992   0.719 -0.8457 -0.5452  2.7171
20431SOL     OW62508   8.775   4.984   1.082 -0.2674  0.4681 -0.1947
20431SOL    HW162509   8.828   4.941   1.149 -0.4429  1.5766  0.6822
20431SOL    HW262510   8.691   4.939   1.085 -0.4598  0.8662  0.7257
20432SOL     OW62511   7.697   4.920   1.548 -0.3133 -0.9010  0.2286
20432SOL    HW162512   7.742   4.869   1.481  0.9175 -0.9652  1.0830
20432SOL    HW262513   7.670   4.855   1.613 -0.9529 -0.7576  0.1165
20433SOL     OW62514   7.693   4.179   1.845  0.1057  0.0779  0.3261
20433SOL    HW162515   7.765   4.117   1.860 -1.0289 -1.2679  0.3762
20433SOL    HW262516   7.615   4.133   1.876 -1.2033  0.3583 -2.2922
20434SOL     OW62517   8.060   3.837   2.256 -0.0956  0.0685 -0.4626
20434SOL    HW162518   8.074   3.914   2.312 -0.3873  0.9404 -1.5614
20434SOL    HW262519   8.097   3.862   2.171  0.0452 -1.1132 -0.7665
20435SOL     OW62520   7.819   3.578   1.722 -0.2620 -0.1660 -0.1412
20435SOL    HW162521   7.842   3.556   1.631  2.2020 -1.1325  0.6096
20435SOL    HW262522   7.903   3.573   1.769 -1.2864  1.3625  1.9992
20436SOL     OW62523   7.936   4.280   1.343 -0.1187  0.3144 -0.2007
20436SOL    HW162524   7.849   4.259   1.309  0.5135 -2.4856 -0.2986
20436SOL    HW262525   7.939   4.237   1.429  1.0575  0.6886 -0.0403
20437SOL     OW62526   8.786   4.320   0.782  0.1277 -0.1273  0.0105
20437SOL    HW162527   8.856   4.345   0.722  0.8195  1.7909  1.5166
20437SOL    HW262528   8.826   4.255   0.840 -0.3340 -1.4363 -1.0714
20438SOL     OW62529   7.871   4.802   0.149 -0.1042 -0.0453  0.3729
20438SOL    HW162530   7.898   4.732   0.209  2.1128  1.9278  1.8411
20438SOL    HW262531   7.953   4.837   0.114 -1.1894  1.3323 -0.9295
20439SOL     OW62532   7.550   3.690   1.426  0.2006  0.2211 -0.1491
20439SOL    HW162533   7.487   3.652   1.365 -1.0576  1.4411  0.3514
20439SOL    HW262534   7.501   3.756   1.474  1.8925  1.2722  0.2165
20440SOL     OW62535   7.665   5.170   1.058  0.1302 -0.3923 -0.4254
20440SOL    HW162536   7.756   5.150   1.037  0.7814  0.4174  1.3979
20440SOL    HW262537   7.617   5.090   1.036  1.0832 -0.4744 -2.4046
20441SOL     OW62538   7.962   4.188   0.880  0.2263 -0.5255 -0.3313
20441SOL    HW162539   8.010   4.258   0.834 -1.4424  1.1800  0.3683
20441SOL    HW262540   7.999   4.188   0.968 -0.0333 -0.2145 -0.2168
20442SOL     OW62541   7.701   3.748   0.875 -0.1436 -0.4299 -0.2255
20442SOL    HW162542   7.620   3.788   0.842 -0.3100 -0.8179 -0.2978
20442SOL    HW262543   7.672   3.692   0.948 -0.1267 -1.6003 -1.0858
20443SOL     OW62544   0.126   4.039   0.572 -0.1625 -0.1002 -0.3435
20443SOL    HW162545   0.035   4.064   0.558 -0.1812 -0.2245 -0.4458
20443SOL    HW262546   0.123   3.976   0.644 -0.0874  0.3920  0.0937
20444SOL     OW62547   8.284   3.940   0.926 -0.2351  0.1365  0.1921
20444SOL    HW162548   8.333   4.018   0.901 -0.0297 -0.4018 -1.1870
20444SOL    HW262549   8.209   3.939   0.867  0.3855 -1.3099 -0.6464
20445SOL     OW62550   8.145   4.735   1.612 -0.2425  0.1449 -0.0587
20445SOL    HW162551   8.129   4.767   1.524  0.6239 -0.3520 -0.4050
20445SOL    HW262552   8.239   4.750   1.627  0.0302 -1.4984  0.0554
20446SOL     OW62553   7.925   4.516   2.313 -0.6626 -0.0142  0.6477
20446SOL    HW162554   7.838   4.517   2.352 -1.0262  1.3659 -0.1357
20446SOL    HW262555   7.911   4.542   2.222  0.3182 -1.9736 -0.1112
20447SOL     OW62556   8.648   4.742   0.560 -0.0679  0.3599  0.2357
20447SOL    HW162557   8.663   4.707   0.648  1.0630  0.2394  0.0104
20447SOL    HW262558   8.693   4.681   0.502  0.0385  0.9880 -0.3476
20448SOL     OW62559   8.499   4.904   1.081 -0.2283  0.4421 -0.3862
20448SOL    HW162560   8.487   4.961   1.006  0.2670  0.3806 -0.5119
20448SOL    HW262561   8.443   4.942   1.149  0.3542  1.2696 -0.3591
20449SOL     OW62562   7.661   4.461   1.134  0.5778  0.6862  0.5271
20449SOL    HW162563   7.614   4.484   1.214  1.0732 -0.5450  1.2085
20449SOL    HW262564   7.709   4.381   1.157 -1.3872 -1.3249 -1.7644
20450SOL     OW62565   7.673   3.915   1.199  0.2034  0.0318  0.1776
20450SOL    HW162566   7.685   3.921   1.294  0.3699  0.0303  0.1568
20450SOL    HW262567   7.650   3.823   1.184 -3.1546  0.6551  0.5854
20451SOL     OW62568   8.416   3.975   1.792 -0.4543 -0.3137  0.1189
20451SOL    HW162569   8.350   4.028   1.748 -1.6853 -0.7747  1.3577
20451SOL    HW262570   8.499   4.020   1.773 -1.0602  0.1547 -1.6419
20452SOL     OW62571   8.315   3.581   1.688 -0.0379 -0.2570 -0.1531
20452SOL    HW162572   8.379   3.589   1.758 -1.1867 -1.7619  1.1658
20452SOL    HW262573   8.332   3.495   1.649 -1.8369 -1.1815  0.9356
20453SOL     OW62574   7.620   5.428   1.594  0.1582 -0.1390  0.2716
20453SOL    HW162575   7.687   5.474   1.544  1.2532  0.5123  2.2466
20453SOL    HW262576   7.660   5.344   1.617 -0.1793 -0.2620  0.4270
20454SOL     OW62577   8.212   5.220   0.674  0.0011  0.3254 -0.6151
20454SOL    HW162578   8.120   5.212   0.697 -0.0280  1.3497 -0.3664
20454SOL    HW262579   8.213   5.229   0.579 -0.2438  1.6034 -0.5023
20455SOL     OW62580   8.122   4.318   0.640  0.3189  0.0417 -0.1893
20455SOL    HW162581   8.201   4.332   0.589  0.0177  0.9134 -0.4266
20455SOL    HW262582   8.070   4.257   0.588  0.9507 -0.7894  0.1144
20456SOL     OW62583   7.495   4.037   1.030 -0.5147 -0.5309 -0.2819
20456SOL    HW162584   7.558   3.984   1.078 -0.5648 -1.9259 -1.6876
20456SOL    HW262585   7.434   4.069   1.097  1.6578  0.9157  1.1178
20457SOL     OW62586   7.575   4.709   1.685  0.2925  0.0659  0.4523
20457SOL    HW162587   7.639   4.650   1.647 -0.4083 -0.3424 -0.0989
20457SOL    HW262588   7.503   4.653   1.714 -1.8705  0.7801 -2.9059
20458SOL     OW62589   7.860   4.105   0.245  0.8350 -0.1998 -0.0283
20458SOL    HW162590   7.872   4.042   0.174  0.7140 -0.5088  0.2186
20458SOL    HW262591   7.768   4.130   0.240  0.8321 -0.2034 -0.0002
20459SOL     OW62592   8.261   5.034   2.304 -0.0198  0.2105  0.2562
20459SOL    HW162593   8.226   5.122   2.312 -0.2155  0.0044  1.9860
20459SOL    HW262594   8.213   4.982   2.369  0.5175 -1.0326 -0.2982
20460SOL     OW62595   8.069   4.193   1.128 -0.8264  0.1650  0.3181
20460SOL    HW162596   8.108   4.280   1.123 -0.1716  0.0214  1.9706
20460SOL    HW262597   8.012   4.197   1.205 -2.0461 -0.4060 -0.5430
20461SOL     OW62598   8.322   5.469   1.545  0.1928 -0.2974  0.2830
20461SOL    HW162599   8.243   5.483   1.493  0.2693  0.0236  0.2497
20461SOL    HW262600   8.293   5.472   1.636 -0.1316 -1.9554  0.2746
20462SOL     OW62601   7.630   4.719   0.029  0.4649 -0.5202 -0.5316
20462SOL    HW162602   7.707   4.749   0.076  1.8360 -0.2319 -2.8086
20462SOL    HW262603   7.591   4.652   0.086  3.2903 -1.8378  0.0048
20463SOL     OW62604   7.170   4.946   1.513  0.1204  0.4232  0.0535
20463SOL    HW162605   7.194   4.962   1.422  0.2512 -0.6194 -0.1099
20463SOL    HW262606   7.248   4.971   1.563  0.9095 -1.1519 -0.3227
20464SOL     OW62607   8.367   4.306   1.146  0.5828  0.6047  0.7524
20464SOL    HW162608   8.373   4.253   1.067 -1.9486 -1.7679  1.9268
20464SOL    HW262609   8.399   4.248   1.216 -2.0538  0.5332  2.0588
20465SOL     OW62610   8.145   4.774   0.424  0.8301 -0.2659  0.3549
20465SOL    HW162611   8.238   4.765   0.402  0.3189  1.7364 -3.6313
20465SOL    HW262612   8.140   4.856   0.473  1.2018 -0.5775  0.9160
20466SOL     OW62613   8.745   5.530   1.216 -0.1135 -0.1411 -0.1848
20466SOL    HW162614   8.749   5.434   1.209 -1.2282 -0.1640 -0.6327
20466SOL    HW262615   8.822   5.560   1.169 -0.4949 -0.7839 -1.2481
20467SOL     OW62616   7.501   4.776   1.246 -0.8787 -0.7535  0.1598
20467SOL    HW162617   7.493   4.847   1.182 -1.1051 -1.1568 -0.2568
20467SOL    HW262618   7.587   4.791   1.286  0.0747 -1.5356 -1.4977
20468SOL     OW62619   8.046   5.059   1.888 -0.3348  0.2934  0.8056
20468SOL    HW162620   8.139   5.081   1.896  0.0306  0.1505 -1.9574
20468SOL    HW262621   8.001   5.141   1.906  0.2137  0.1639  3.0523
20469SOL     OW62622   8.557   3.711   0.637  0.5989  0.4808  0.2722
20469SOL    HW162623   8.593   3.794   0.669 -0.2231  0.6763  0.7384
20469SOL    HW262624   8.499   3.737   0.565 -0.9120  0.5052  1.4488
20470SOL     OW62625   8.775   5.541   0.440 -0.0032  0.1691 -0.0006
20470SOL    HW162626   8.709   5.579   0.498 -0.5793  0.3869 -0.7722
20470SOL    HW262627   8.776   5.448   0.462 -0.5766  0.1638  0.0361
20471SOL     OW62628   7.736   5.525   2.045 -0.2357  0.1790 -0.2511
20471SOL    HW162629   7.719   5.581   1.969 -3.1631 -1.6843 -1.1410
20471SOL    HW262630   7.731   5.585   2.120  0.3665  1.6616 -1.3373
20472SOL     OW62631   8.384   4.633   0.608  0.0069  0.0240  0.1071
20472SOL    HW162632   8.454   4.696   0.590 -0.1452  0.7667  1.9203
20472SOL    HW262633   8.319   4.683   0.657 -1.6043 -0.7729 -1.1135
20473SOL     OW62634   8.142   4.843   1.363 -0.1750  0.1399 -0.1093
20473SOL    HW162635   8.220   4.876   1.319  0.2991  0.1883  0.7495
20473SOL    HW262636   8.116   4.766   1.312  0.5773 -0.0189 -0.2607
20474SOL     OW62637   7.849   5.265   0.650  0.2481 -0.6201 -0.3055
20474SOL    HW162638   7.760   5.297   0.641  0.2652 -0.4977 -0.0562
20474SOL    HW262639   7.849   5.180   0.607  0.6829  0.5394 -2.8008
20475SOL     OW62640   7.334   3.974   0.811  0.3110 -0.0253  0.5951
20475SOL    HW162641   7.279   4.050   0.793  0.3097 -0.3913 -1.0469
20475SOL    HW262642   7.399   4.006   0.874  0.7972  1.5563 -0.6522
20476SOL     OW62643   8.366   5.576   8.814  0.2080 -0.7264 -0.6275
20476SOL    HW162644   8.316   5.594   8.735  3.0484 -0.5998 -2.5339
20476SOL    HW262645   8.353   5.482   8.830 -0.7917 -0.6466 -0.9027
20477SOL     OW62646   7.758   4.414   2.006 -0.2242 -0.6231 -0.4349
20477SOL    HW162647   7.679   4.463   2.028 -0.1414 -0.5846 -0.2211
20477SOL    HW262648   7.728   4.344   1.948 -0.5312 -1.0617  0.2370
20478SOL     OW62649   7.753   5.046   8.687 -0.0792 -0.4702  0.4643
20478SOL    HW162650   7.811   5.097   8.744 -0.2632  1.1226 -0.7288
20478SOL    HW262651   7.765   5.084   8.600 -2.2673 -0.6472  0.0276
20479SOL     OW62652   8.006   5.347   1.517  0.0501 -0.3554 -0.5828
20479SOL    HW162653   7.987   5.253   1.526 -1.2006  0.0400  1.6719
20479SOL    HW262654   8.026   5.376   1.606  0.1129  1.6065 -1.1843
20480SOL     OW62655   8.361   4.459   0.835 -0.1624  0.1802  0.2863
20480SOL    HW162656   8.402   4.502   0.910  0.7441  0.8624 -0.5793
20480SOL    HW262657   8.360   4.526   0.766  0.9878 -1.0580 -0.9867
20481SOL     OW62658   8.343   3.979   0.627  0.1786  0.7800  0.5177
20481SOL    HW162659   8.388   4.024   0.699  2.5009 -0.4071 -0.1015
20481SOL    HW262660   8.372   4.024   0.548  0.3212 -0.0446  0.0906
20482SOL     OW62661   7.938   5.372   0.900  0.3761 -0.7198  0.0160
20482SOL    HW162662   7.931   5.295   0.956  0.5448 -2.0390 -1.6905
20482SOL    HW262663   7.906   5.343   0.815 -1.6185  1.7132 -0.1821
20483SOL     OW62664   7.460   5.671   8.764  0.0833 -0.0420  0.7479
20483SOL    HW162665   7.477   5.581   8.736 -0.3986 -0.0212  0.3831
20483SOL    HW262666   7.449   5.665   8.859  1.6427 -0.1225  0.9397
20484SOL     OW62667   7.667   4.832   1.931 -0.1924  0.1785  0.3050
20484SOL    HW162668   7.583   4.824   1.885  0.2527  0.9901 -0.6937
20484SOL    HW262669   7.730   4.851   1.862  0.9494 -1.1165  0.9590
20485SOL     OW62670   8.163   3.788   1.619 -0.1256  0.3162  0.4958
20485SOL    HW162671   8.209   3.705   1.631  0.1610  0.7502  3.0588
20485SOL    HW262672   8.080   3.764   1.578 -0.3524 -1.3444  1.8107
20486SOL     OW62673   7.214   4.344   0.487  0.1818 -0.2083  0.5544
20486SOL    HW162674   7.273   4.420   0.485 -0.9690  0.7037 -0.6741
20486SOL    HW262675   7.244   4.292   0.562  1.1224  1.3616  1.3189
20487SOL     OW62676   8.603   4.432   1.331 -0.3422 -0.4449 -0.3698
20487SOL    HW162677   8.567   4.344   1.320  0.2925 -0.7086 -0.3581
20487SOL    HW262678   8.527   4.490   1.325 -0.6319 -0.9121 -1.4378
20488SOL     OW62679   7.005   3.566   8.686 -0.4488 -0.3928 -0.1282
20488SOL    HW162680   7.036   3.507   8.756 -0.2803 -0.4323 -0.2358
20488SOL    HW262681   6.919   3.531   8.663 -1.0943  0.3994  0.9693
20489SOL     OW62682   8.389   4.837   0.285 -0.2281  0.4357 -0.1992
20489SOL    HW162683   8.411   4.930   0.296 -1.8879  0.8474 -0.0105
20489SOL    HW262684   8.464   4.799   0.240  2.6198  0.8424  3.6860
20490SOL     OW62685   7.783   4.329   1.623 -0.5715 -0.2893  0.7551
20490SOL    HW162686   7.759   4.280   1.702  0.5092 -1.9438  0.1122
20490SOL    HW262687   7.840   4.270   1.574 -0.1473  1.1985 -0.6514
20491SOL     OW62688   7.953   4.059   1.861 -0.0735  0.1319  0.6362
20491SOL    HW162689   8.013   3.985   1.869  0.8752  0.7081 -0.8319
20491SOL    HW262690   7.960   4.105   1.945  0.9923 -0.2259  0.7524
20492SOL     OW62691   0.243   4.706   1.473  0.2514  0.3656 -0.4010
20492SOL    HW162692   0.224   4.766   1.545  1.9912 -0.1477  0.5555
20492SOL    HW262693   0.203   4.623   1.500 -2.5880  1.1101 -1.9520
20493SOL     OW62694   7.707   5.687   1.803 -0.3465  0.1114 -0.0689
20493SOL    HW162695   7.721   5.595   1.781 -1.7168 -0.4381  1.1722
20493SOL    HW262696   7.796   5.723   1.811  0.2095 -1.0442 -0.7387
20494SOL     OW62697   8.771   4.193   0.489  0.0243  0.0476 -0.3746
20494SOL    HW162698   8.706   4.172   0.557  1.3714  1.3497  1.4236
20494SOL    HW262699   8.732   4.265   0.440  0.3118  1.2402  1.0879
20495SOL     OW62700   7.795   4.531   0.884  0.0471  0.6378  0.6458
20495SOL    HW162701   7.742   4.479   0.944 -1.5363  1.8831  0.3959
20495SOL    HW262702   7.780   4.491   0.798 -0.5581  1.0043  0.5709
20496SOL     OW62703   8.136   5.400   0.425  0.2460 -0.2007  0.3127
20496SOL    HW162704   8.048   5.433   0.442  0.7717  0.4497  2.0226
20496SOL    HW262705   8.177   5.465   0.369 -0.3129 -0.4514 -0.3967
20497SOL     OW62706   8.394   4.644   1.290 -0.8405  0.5268 -0.4118
20497SOL    HW162707   8.337   4.634   1.366 -0.4141 -0.4972 -0.2068
20497SOL    HW262708   8.441   4.726   1.306  1.0893 -0.8675  1.7283
20498SOL     OW62709   8.088   4.482   0.932 -0.6067 -0.4205  0.3769
20498SOL    HW162710   8.016   4.502   0.872 -1.4637 -0.4691  1.3650
20498SOL    HW262711   8.166   4.480   0.876 -1.4565 -1.0599 -0.8247
20499SOL     OW62712   8.129   4.878   0.160 -1.0892 -0.2517  0.5487
20499SOL    HW162713   8.167   4.864   0.247 -0.0314  0.3842  0.2101
20499SOL    HW262714   8.159   4.965   0.135  0.2411 -1.1769 -1.2530
20500SOL     OW62715   7.959   5.077   1.492 -0.2432  0.0980  0.5835
20500SOL    HW162716   8.008   5.035   1.421 -1.0203  1.3111 -0.7216
20500SOL    HW262717   7.901   5.008   1.525 -0.3141 -0.3234 -0.3827
20501SOL     OW62718   7.468   5.277   0.893  0.0404  0.6937 -0.7666
20501SOL    HW162719   7.400   5.219   0.860 -0.1660  1.2991 -1.4427
20501SOL    HW262720   7.527   5.220   0.944 -2.3039  0.5475  2.0191
20502SOL     OW62721   8.375   4.907   2.089  0.4687  0.2328  0.5275
20502SOL    HW162722   8.348   4.972   2.154  1.1956  1.5119 -0.4199
20502SOL    HW262723   8.303   4.844   2.088 -1.0532  1.8895  0.3062
20503SOL     OW62724   7.538   4.147   0.612 -0.0999  0.3309 -0.4997
20503SOL    HW162725   7.608   4.147   0.678  1.4547  0.3886 -2.0837
20503SOL    HW262726   7.515   4.240   0.603  0.3123  0.4198 -0.6668
20504SOL     OW62727   7.711   4.193   1.237 -0.0087 -0.1643  0.3700
20504SOL    HW162728   7.645   4.185   1.306 -0.7522 -0.0788 -0.3171
20504SOL    HW262729   7.709   4.109   1.191 -0.6324  0.3066 -0.5093
20505SOL     OW62730   8.222   5.372   1.097 -0.0496 -0.0063  0.4939
20505SOL    HW162731   8.144   5.428   1.096  0.6282  1.0405  1.9389
20505SOL    HW262732   8.253   5.372   1.007 -1.0928  0.4820  0.1210
20506SOL     OW62733   8.425   3.960   1.176  0.1738 -0.2872  0.4826
20506SOL    HW162734   8.381   3.959   1.091  1.6461  0.1221 -0.3167
20506SOL    HW262735   8.463   3.873   1.183  0.1742 -0.2720  0.6533
20507SOL     OW62736   8.292   3.620   1.204 -0.2508  0.0186 -0.2045
20507SOL    HW162737   8.217   3.640   1.148  1.5177  3.7984 -1.6520
20507SOL    HW262738   8.360   3.591   1.143  1.3182  2.9735 -0.0713
20508SOL     OW62739   7.875   5.059   0.485  0.4261  0.4638 -0.1905
20508SOL    HW162740   7.958   5.086   0.445 -0.4153  0.7710 -1.7971
20508SOL    HW262741   7.812   5.058   0.413 -0.2547 -3.1777  0.2699
20509SOL     OW62742   8.433   5.613   2.064  0.1613  0.2800  0.0589
20509SOL    HW162743   8.426   5.520   2.044  0.5327 -0.1654  1.8575
20509SOL    HW262744   8.390   5.623   2.149  0.3514  1.7171  0.0149
20510SOL     OW62745   7.303   4.612   0.579  1.0282 -0.4590 -0.8346
20510SOL    HW162746   7.285   4.674   0.508 -0.7463  1.0352  0.7953
20510SOL    HW262747   7.381   4.647   0.622  0.4280  0.3107 -0.3370
20511SOL     OW62748   8.416   5.219   0.467  0.0812  0.6332  0.0130
20511SOL    HW162749   8.449   5.265   0.544  0.0789  0.1192  0.3267
20511SOL    HW262750   8.471   5.251   0.395 -0.4959  1.7759  0.0626
20512SOL     OW62751   7.519   4.500   2.156  0.0498  0.1580 -0.3879
20512SOL    HW162752   7.447   4.561   2.174  0.0206  0.1253 -0.3953
20512SOL    HW262753   7.478   4.424   2.116  0.1544  0.3703 -0.9150
20513SOL     OW62754   7.657   4.141   3.320 -0.5583  0.4932  0.0034
20513SOL    HW162755   7.646   4.049   3.344  0.0430  0.4729  0.2257
20513SOL    HW262756   7.618   4.190   3.392  0.7192  0.4262  0.7812
20514SOL     OW62757   7.375   4.766   2.421  0.4488  0.0630 -0.0811
20514SOL    HW162758   7.292   4.755   2.375 -0.8476  0.7676  1.9041
20514SOL    HW262759   7.403   4.855   2.399 -0.7484  0.8214  1.2521
20515SOL     OW62760   7.475   4.412   2.992 -0.3176  0.2479  0.3307
20515SOL    HW162761   7.434   4.351   3.053  0.6270  0.0692  0.8114
20515SOL    HW262762   7.429   4.494   3.005 -2.0768 -0.5019 -0.8160
20516SOL     OW62763   0.252   5.069   2.795  0.2121 -0.5182  0.8287
20516SOL    HW162764   0.340   5.082   2.829  0.6476 -1.5588  0.1427
20516SOL    HW262765   0.254   4.982   2.755 -0.2005  0.6408 -2.0045
20517SOL     OW62766   8.748   3.942   2.404 -0.1629 -0.0834 -0.1868
20517SOL    HW162767   8.695   3.984   2.471 -1.2556  0.3579 -1.2776
20517SOL    HW262768   8.804   4.012   2.370  0.9996 -0.5000  0.8172
20518SOL     OW62769   8.117   4.728   3.098 -0.4177  0.5836 -0.3461
20518SOL    HW162770   8.191   4.705   3.043 -0.7068 -0.7945 -0.1987
20518SOL    HW262771   8.093   4.817   3.071  0.1571  0.3653 -1.6371
20519SOL     OW62772   8.389   4.490   3.710  1.1312 -0.1782 -0.7238
20519SOL    HW162773   8.448   4.516   3.781  0.5445  0.1972 -0.3657
20519SOL    HW262774   8.438   4.507   3.630  0.7720  2.1253 -0.5223
20520SOL     OW62775   8.285   4.422   2.826 -0.6076 -0.1329 -0.0770
20520SOL    HW162776   8.322   4.347   2.871 -2.4720 -1.3481 -0.4501
20520SOL    HW262777   8.197   4.394   2.801 -0.6980  1.5326 -1.8714
20521SOL     OW62778   8.208   4.950   3.935 -0.1969 -0.1308 -0.2213
20521SOL    HW162779   8.229   4.861   3.907 -0.0232 -0.5017  1.0124
20521SOL    HW262780   8.294   4.991   3.950 -0.2848 -0.0548  0.0867
20522SOL     OW62781   8.054   4.993   3.079 -0.1377 -0.9652  0.3078
20522SOL    HW162782   8.099   5.063   3.127 -1.2979 -0.2404  0.3819
20522SOL    HW262783   8.023   5.036   2.999 -1.9873 -1.0370  0.9550
20523SOL     OW62784   7.838   3.836   3.646  0.2360  0.5860 -0.6715
20523SOL    HW162785   7.885   3.760   3.681  1.0971  0.9756 -0.9368
20523SOL    HW262786   7.866   3.909   3.702 -0.6904  0.6986 -0.3296
20524SOL     OW62787   7.477   5.784   2.257  0.7076 -0.0357  0.2585
20524SOL    HW162788   7.513   5.782   2.168 -0.1902  1.9198 -0.1963
20524SOL    HW262789   7.509   5.866   2.294  1.6566 -1.1520  2.0471
20525SOL     OW62790   8.345   4.881   3.631 -0.0956 -0.8450 -0.1195
20525SOL    HW162791   8.296   4.841   3.559 -0.5971 -2.1420  0.8833
20525SOL    HW262792   8.409   4.938   3.589 -1.9760  0.3562 -1.5048
20526SOL     OW62793   7.585   5.190   2.358 -0.8501 -0.3340 -0.0276
20526SOL    HW162794   7.595   5.099   2.331  1.8779  0.2635 -1.4337
20526SOL    HW262795   7.580   5.240   2.276  2.3335  1.0795  0.4631
20527SOL     OW62796   8.032   4.707   2.681  0.1650 -0.2575  0.4084
20527SOL    HW162797   7.952   4.716   2.734  0.3216  1.3548  0.4097
20527SOL    HW262798   8.061   4.617   2.697 -1.9998 -1.1232 -0.1120
20528SOL     OW62799   7.842   5.237   3.037 -0.2421  0.1277 -0.3100
20528SOL    HW162800   7.884   5.207   2.956 -0.2853  1.1459 -0.7307
20528SOL    HW262801   7.913   5.275   3.088 -0.0093 -1.5329  0.6584
20529SOL     OW62802   0.047   4.428   2.077 -0.1108  0.2003  0.2848
20529SOL    HW162803  -0.004   4.349   2.091  2.0227 -1.5486 -1.1894
20529SOL    HW262804   0.014   4.464   1.994 -1.7017  1.4627  1.3980
20530SOL     OW62805   8.177   4.210   2.215 -0.6632 -0.5182 -0.1581
20530SOL    HW162806   8.118   4.165   2.276 -2.9320  2.2552 -0.0779
20530SOL    HW262807   8.235   4.260   2.272 -0.1477 -0.9973 -0.2612
20531SOL     OW62808   7.604   5.298   2.122  0.2235 -0.4305 -0.1515
20531SOL    HW162809   7.512   5.324   2.113  0.5655  1.1210  0.5522
20531SOL    HW262810   7.653   5.370   2.084  1.1637 -1.5104 -1.0473
20532SOL     OW62811   0.082   4.148   2.387 -0.5480  0.0123  0.4138
20532SOL    HW162812   0.077   4.179   2.477 -0.4817  1.4053 -0.0439
20532SOL    HW262813   0.173   4.120   2.376 -0.3243  0.6773  0.5234
20533SOL     OW62814   7.626   4.413   4.037  0.7321 -0.3302  0.6117
20533SOL    HW162815   7.533   4.400   4.057  0.6264  0.9021  1.0036
20533SOL    HW262816   7.672   4.351   4.094  0.1577 -1.1557  0.2050
20534SOL     OW62817   8.449   4.672   2.655  0.2073 -0.9319  0.1359
20534SOL    HW162818   8.496   4.606   2.604 -0.5243 -0.2803 -1.4543
20534SOL    HW262819   8.369   4.628   2.683  0.0334 -0.9340 -0.3479
20535SOL     OW62820   8.568   4.397   3.339  0.1274 -0.4054 -0.0545
20535SOL    HW162821   8.559   4.397   3.244 -0.0745 -0.1777 -0.0355
20535SOL    HW262822   8.522   4.476   3.368 -1.3413 -1.3731  0.3739
20536SOL     OW62823   8.007   3.973   3.036 -0.2887  0.3239 -0.3265
20536SOL    HW162824   8.001   3.960   2.941  1.4462  1.6646 -0.6817
20536SOL    HW262825   7.940   4.038   3.056 -1.6170 -0.9899 -0.3552
20537SOL     OW62826   7.719   4.517   3.414  0.3486  0.7656 -0.5449
20537SOL    HW162827   7.652   4.451   3.430  1.9831 -0.5804  1.2092
20537SOL    HW262828   7.770   4.482   3.340  0.4160  0.7024 -0.4694
20538SOL     OW62829   8.619   5.344   3.246 -0.1857 -0.2810  1.0532
20538SOL    HW162830   8.634   5.250   3.254  2.0596 -0.2630 -1.5813
20538SOL    HW262831   8.538   5.352   3.194  1.0207 -0.8858 -1.0080
20539SOL     OW62832   7.572   4.019   4.212 -0.2334 -0.2455  0.3632
20539SOL    HW162833   7.551   4.073   4.288  1.5506  0.8412  0.1631
20539SOL    HW262834   7.572   3.929   4.246 -0.8397  0.0902  1.3025
20540SOL     OW62835   8.421   4.588   2.014  0.3432  0.0366 -0.4590
20540SOL    HW162836   8.361   4.643   1.964 -0.8310 -0.0730  0.7608
20540SOL    HW262837   8.374   4.506   2.028  0.1733  0.4208  1.6485
20541SOL     OW62838   8.821   3.794   2.631  0.5005 -0.8002 -0.1493
20541SOL    HW162839   8.816   3.819   2.539 -1.8851 -0.7233 -0.0585
20541SOL    HW262840   8.909   3.820   2.658  0.8354  0.2804 -2.0836
20542SOL     OW62841   8.027   3.755   3.452 -0.0504 -0.2448  0.2378
20542SOL    HW162842   7.940   3.789   3.470 -0.6489 -0.3977 -2.0949
20542SOL    HW262843   8.012   3.664   3.424  1.0538 -0.8610  1.5156
20543SOL     OW62844   8.815   4.081   3.534 -0.4436 -0.1834 -0.5496
20543SOL    HW162845   8.816   3.993   3.497  0.9103 -0.3819 -0.1125
20543SOL    HW262846   8.889   4.081   3.595 -0.7752  1.0837 -0.1300
20544SOL     OW62847   7.969   4.608   3.532  0.6886  0.7796 -0.3216
20544SOL    HW162848   8.001   4.562   3.610  0.1549  0.5289 -0.2443
20544SOL    HW262849   7.882   4.571   3.516  1.2828 -0.0997 -1.7814
20545SOL     OW62850   8.219   3.803   2.690 -0.2277 -0.2819  0.0217
20545SOL    HW162851   8.209   3.897   2.683 -2.0382 -0.4633 -0.3057
20545SOL    HW262852   8.270   3.778   2.613 -1.3837  0.2378 -0.9420
20546SOL     OW62853   8.606   3.677   2.208 -0.2005  0.1497  0.1349
20546SOL    HW162854   8.638   3.660   2.297 -1.3662  0.7511  0.6954
20546SOL    HW262855   8.547   3.752   2.218 -2.0473 -1.1027 -0.7580
20547SOL     OW62856   7.603   4.926   2.228  0.2594 -0.2328 -0.6568
20547SOL    HW162857   7.512   4.925   2.199 -0.2202 -0.9378  0.7775
20547SOL    HW262858   7.645   4.860   2.174 -0.8144 -2.1511  0.7225
20548SOL     OW62859   7.434   5.789   3.371  0.4031 -0.5069 -0.0794
20548SOL    HW162860   7.379   5.714   3.395  1.3393 -0.9713  0.6729
20548SOL    HW262861   7.509   5.784   3.430 -1.0279  2.9334  2.4158
20549SOL     OW62862   8.773   4.197   2.059 -0.4315 -0.2507 -0.0777
20549SOL    HW162863   8.781   4.136   1.986 -2.3085 -0.4575 -0.1629
20549SOL    HW262864   8.679   4.198   2.080 -0.5155  2.5810 -0.0927
20550SOL     OW62865   0.169   4.468   2.569 -0.1295  0.5818  0.1223
20550SOL    HW162866   0.264   4.475   2.576 -0.1003 -0.0061  0.3900
20550SOL    HW262867   0.152   4.466   2.475  0.3959 -2.3444 -0.0186
20551SOL     OW62868   7.416   4.034   2.669 -0.1282  0.0039  0.0652
20551SOL    HW162869   7.491   3.989   2.630 -0.9279 -0.8842 -0.5084
20551SOL    HW262870   7.445   4.060   2.756  0.2407 -2.0353  0.5941
20552SOL     OW62871   8.523   5.380   2.330  0.2728  0.0409 -0.2458
20552SOL    HW162872   8.458   5.445   2.357 -1.3486 -1.1679 -1.0597
20552SOL    HW262873   8.505   5.366   2.237  1.4747 -0.6116 -0.3955
20553SOL     OW62874   7.623   5.125   2.883 -0.0389  0.0620  0.2221
20553SOL    HW162875   7.652   5.188   2.949  0.5272  0.0357  0.0042
20553SOL    HW262876   7.692   5.127   2.816  0.9156 -2.0684  1.0524
20554SOL     OW62877   8.442   5.091   3.275 -0.0995 -0.0862  0.1873
20554SOL    HW162878   8.435   5.034   3.199  1.6521  0.3428 -0.3342
20554SOL    HW262879   8.502   5.044   3.334 -0.8872 -0.0877  1.0044
20555SOL     OW62880   7.681   4.464   2.393  0.2988 -0.1394  0.1506
20555SOL    HW162881   7.632   4.458   2.311 -4.0356  0.7667  2.3655
20555SOL    HW262882   7.680   4.374   2.428 -1.0877  0.0951  0.7791
20556SOL     OW62883   7.847   5.190   3.700  0.3332  0.8188  0.0752
20556SOL    HW162884   7.922   5.151   3.745 -1.2741 -0.4821  1.7971
20556SOL    HW262885   7.771   5.160   3.750 -1.4242  1.2935 -2.1446
20557SOL     OW62886   8.438   5.337   2.068  0.1581 -0.1006  0.3207
20557SOL    HW162887   8.363   5.283   2.044 -0.6934  0.1812  2.1857
20557SOL    HW262888   8.506   5.314   2.004 -0.4385 -2.7306  0.5433
20558SOL     OW62889   7.629   3.892   3.475  0.1772  0.5839  0.1895
20558SOL    HW162890   7.683   3.893   3.553  0.6017  0.0150 -0.0860
20558SOL    HW262891   7.684   3.849   3.409 -0.2649  0.8366 -0.3492
20559SOL     OW62892   8.113   4.899   2.492 -0.8544  0.3335 -0.0376
20559SOL    HW162893   8.099   4.848   2.571 -1.0352  1.6799  0.8354
20559SOL    HW262894   8.025   4.917   2.458 -0.7651 -1.2458 -1.2739
20560SOL     OW62895   7.832   5.022   2.690  0.7355 -0.4616  0.8205
20560SOL    HW162896   7.755   5.021   2.633  2.0078  0.3459 -1.0163
20560SOL    HW262897   7.844   4.931   2.715 -0.0750 -0.7965  0.0522
20561SOL     OW62898   8.483   4.955   2.713  0.0693 -0.5213  0.0167
20561SOL    HW162899   8.477   4.861   2.695 -1.6104 -0.7199  1.3626
20561SOL    HW262900   8.478   4.996   2.626 -1.3735 -1.6182 -0.4633
20562SOL     OW62901   7.931   4.214   2.077 -0.3748  0.4906 -0.2881
20562SOL    HW162902   7.999   4.243   2.138 -2.2328  1.0766  1.6495
20562SOL    HW262903   7.877   4.292   2.063 -0.8878 -0.0583 -1.4728
20563SOL     OW62904   8.452   4.109   2.051 -0.6164  0.0420  0.1082
20563SOL    HW162905   8.428   4.199   2.029 -0.6575 -0.0904 -0.3993
20563SOL    HW262906   8.437   4.060   1.971  1.1975 -0.0910 -0.1737
20564SOL     OW62907   8.416   4.957   3.010 -0.4616 -0.0892 -0.0955
20564SOL    HW162908   8.446   4.991   2.925  1.9012 -0.3665  0.5414
20564SOL    HW262909   8.383   4.870   2.991  2.0778 -1.0555 -0.5217
20565SOL     OW62910   8.554   4.156   3.476 -0.1287 -0.0265 -0.0184
20565SOL    HW162911   8.647   4.137   3.488  0.0169  0.7417  0.1608
20565SOL    HW262912   8.553   4.240   3.430 -0.7308  0.2319  0.4549
20566SOL     OW62913   8.499   4.425   3.060  0.0269  0.1224  0.3611
20566SOL    HW162914   8.474   4.337   3.030  2.6005 -0.8445  0.8095
20566SOL    HW262915   8.568   4.452   2.999 -0.4483  1.6930  0.4783
20567SOL     OW62916   8.339   3.762   2.451 -0.8716 -0.1381  0.0771
20567SOL    HW162917   8.342   3.823   2.377  0.4159 -0.8142 -0.4450
20567SOL    HW262918   8.343   3.675   2.411 -0.5873 -0.5184  0.9180
20568SOL     OW62919   7.728   4.009   2.660  0.1035  0.0186  0.4134
20568SOL    HW162920   7.727   4.000   2.565  0.1956  1.6480  0.2387
20568SOL    HW262921   7.821   4.008   2.684  0.0604 -2.6824  0.7779
20569SOL     OW62922   8.786   5.257   1.167  0.5732 -0.2407 -0.5037
20569SOL    HW162923   8.743   5.178   1.133 -0.4543 -0.2815  0.7948
20569SOL    HW262924   8.852   5.224   1.228  0.8589 -0.1033 -0.7310
20570SOL     OW62925   7.823   3.447   2.200  0.0199 -0.2825 -0.5096
20570SOL    HW162926   7.830   3.510   2.129  0.6639  0.9994  0.6367
20570SOL    HW262927   7.805   3.501   2.278  0.0754 -1.5585  0.4168
20571SOL     OW62928   8.445   3.911   2.240  0.0955  0.1834 -0.0240
20571SOL    HW162929   8.435   3.999   2.203  0.5406  0.0603 -0.4491
20571SOL    HW262930   8.524   3.916   2.293 -0.6581  0.4128  1.0972
20572SOL     OW62931   8.154   4.310   3.447 -0.3441  0.0987 -0.1664
20572SOL    HW162932   8.159   4.235   3.387 -1.6254 -0.6713  0.6415
20572SOL    HW262933   8.142   4.386   3.391  1.5666 -0.1744 -1.0469
20573SOL     OW62934   8.776   5.059   2.453 -0.1248  0.0604 -0.3557
20573SOL    HW162935   8.697   5.087   2.500 -1.3660  0.2716 -2.4598
20573SOL    HW262936   8.837   5.131   2.463 -1.5578  1.5449 -1.7178
20574SOL     OW62937   7.867   4.921   2.354 -0.5060  0.0622  0.1267
20574SOL    HW162938   7.778   4.923   2.318 -0.1747 -0.4756 -0.7555
20574SOL    HW262939   7.924   4.923   2.277  0.2639  0.9903  0.7019
20575SOL     OW62940   0.069   5.402   2.627  0.2379 -0.5416 -0.4220
20575SOL    HW162941   0.105   5.473   2.573  0.0097 -0.6028 -0.6523
20575SOL    HW262942   0.127   5.328   2.611  1.0039 -0.1698  0.4873
20576SOL     OW62943   0.098   4.322   1.822  0.1078 -0.0495  0.0199
20576SOL    HW162944   0.092   4.227   1.818  1.2552 -0.1266 -0.3833
20576SOL    HW262945   0.140   4.340   1.905 -1.0027  0.1759  0.5497
20577SOL     OW62946   7.209   4.576   2.811  0.0120  0.0018 -0.7473
20577SOL    HW162947   7.257   4.624   2.879 -1.0427  1.0870 -0.7392
20577SOL    HW262948   7.118   4.576   2.841 -0.1419 -1.2896 -1.1769
20578SOL     OW62949   8.187   3.415   3.205 -0.1018 -0.0409  0.4601
20578SOL    HW162950   8.270   3.378   3.173  0.7970  1.1899  1.2829
20578SOL    HW262951   8.150   3.461   3.129  0.3968  0.1178  0.3090
20579SOL     OW62952   8.186   4.071   2.657  0.3685 -0.3488  0.0309
20579SOL    HW162953   8.252   4.132   2.623  0.7646  0.0437  1.4194
20579SOL    HW262954   8.127   4.125   2.708  1.1795 -1.1675  1.9648
20580SOL     OW62955   8.333   3.550   2.264  0.4110 -0.2749  0.0492
20580SOL    HW162956   8.391   3.578   2.193 -0.3958  2.2646  0.2750
20580SOL    HW262957   8.246   3.546   2.225  0.0272  0.7149  0.7427
20581SOL     OW62958   7.916   4.829   1.781 -0.9386 -0.6608 -0.8346
20581SOL    HW162959   7.969   4.804   1.705  1.5048 -0.8074  0.7959
20581SOL    HW262960   7.941   4.920   1.798 -1.5827 -0.5811 -0.2987
20582SOL     OW62961   8.626   4.167   1.771  0.5007  0.0609 -0.1210
20582SOL    HW162962   8.712   4.139   1.740  0.2828  0.5417 -1.2192
20582SOL    HW262963   8.606   4.245   1.718 -0.3286  0.3230  0.5662
20583SOL     OW62964   8.049   4.043   2.423 -0.2489  0.1649 -0.1088
20583SOL    HW162965   8.119   4.067   2.484  0.6118 -1.5913 -0.3423
20583SOL    HW262966   7.970   4.077   2.463  0.8083  3.4964 -0.5217
20584SOL     OW62967   8.251   4.812   3.358  0.1396  0.3530  0.2894
20584SOL    HW162968   8.203   4.890   3.383  1.6091  1.5931 -0.5395
20584SOL    HW262969   8.239   4.805   3.263  1.7006  0.8240  0.0227
20585SOL     OW62970   8.689   5.014   3.107 -0.2688  0.4917  0.0942
20585SOL    HW162971   8.621   4.972   3.055  1.0424 -0.4716 -0.9288
20585SOL    HW262972   8.746   5.056   3.043  0.4572  0.7313  0.8748
20586SOL     OW62973   8.338   3.428   3.457  0.0779 -0.3005 -0.7391
20586SOL    HW162974   8.292   3.470   3.384  0.5696  0.3950 -0.6574
20586SOL    HW262975   8.352   3.498   3.521 -0.7001 -0.9797  0.2183
20587SOL     OW62976   8.446   4.662   3.466 -0.1303  0.0181 -0.5574
20587SOL    HW162977   8.370   4.707   3.431 -1.1827 -0.3810  1.1040
20587SOL    HW262978   8.496   4.730   3.510  0.4003  0.2400 -1.4649
20588SOL     OW62979   8.620   4.531   2.480  0.0997  0.0885  0.6520
20588SOL    HW162980   8.599   4.602   2.419 -0.5107 -0.2276  0.4885
20588SOL    HW262981   8.650   4.459   2.423  1.9223  0.6123  0.8918
20589SOL     OW62982   8.100   4.515   3.285  0.5176 -0.1880 -0.1719
20589SOL    HW162983   8.118   4.590   3.229  0.7173  0.5006  0.7968
20589SOL    HW262984   8.068   4.553   3.367 -0.3282 -1.1951 -0.0178
20590SOL     OW62985   8.388   3.975   3.365  0.4263  1.0048 -0.1732
20590SOL    HW162986   8.436   4.030   3.426  0.5238  0.9276 -0.1812
20590SOL    HW262987   8.308   4.025   3.346 -0.3152  0.3904  1.1494
20591SOL     OW62988   7.334   4.860   3.235  0.2554 -0.2718 -0.1615
20591SOL    HW162989   7.398   4.823   3.296  0.9647 -0.8336 -1.2157
20591SOL    HW262990   7.381   4.931   3.192 -0.0446 -0.2733 -0.4874
20592SOL     OW62991   8.237   4.475   2.334  0.0566  0.2114  0.6821
20592SOL    HW162992   8.266   4.563   2.312  0.9754 -0.2338 -0.0117
20592SOL    HW262993   8.142   4.476   2.322  0.2349  0.6688 -0.9798
20593SOL     OW62994   8.235   3.843   3.064 -0.2054  0.7958 -0.1975
20593SOL    HW162995   8.152   3.889   3.055 -1.3682 -1.1528  0.0811
20593SOL    HW262996   8.260   3.857   3.155 -0.7136  0.6261 -0.0285
20594SOL     OW62997   0.026   4.806   2.502 -0.1736  0.0273  0.2760
20594SOL    HW162998   0.011   4.769   2.415 -0.2415  0.4650  0.1020
20594SOL    HW262999  -0.013   4.893   2.498 -0.2591  0.0134  0.7747
20595SOL     OW63000   8.645   5.367   2.587 -0.1187  0.8094  0.0119
20595SOL    HW163001   8.725   5.410   2.558 -0.4150 -0.0723 -2.4073
20595SOL    HW263002   8.580   5.389   2.520 -0.4029 -2.8656 -1.1426
20596SOL     OW63003   7.822   4.992   3.322  0.5842  0.0494 -0.1574
20596SOL    HW163004   7.887   4.985   3.252 -0.0377 -2.3403 -0.5673
20596SOL    HW263005   7.856   4.938   3.393 -1.1707 -1.8272 -0.6405
20597SOL     OW63006   7.760   4.303   3.787 -0.2049  0.1605 -0.2014
20597SOL    HW163007   7.710   4.330   3.864  0.5231  0.8476  0.0345
20597SOL    HW263008   7.753   4.376   3.726  2.1994  1.1649  0.6438
20598SOL     OW63009   8.417   3.732   3.910  0.3853  0.0999 -0.4338
20598SOL    HW163010   8.507   3.708   3.931  0.3587 -0.3746 -0.8503
20598SOL    HW263011   8.366   3.654   3.932 -0.2332  1.0281  1.7909
20599SOL     OW63012   8.221   3.863   3.655 -0.1647  0.3364  0.1400
20599SOL    HW163013   8.303   3.836   3.615  0.2751  1.0932  0.5111
20599SOL    HW263014   8.157   3.859   3.584 -0.4244 -2.7441  0.3924
20600SOL     OW63015   7.820   4.653   3.111 -0.1954 -0.1810 -0.4607
20600SOL    HW163016   7.869   4.681   3.188 -0.6163  0.5143 -0.4401
20600SOL    HW263017   7.786   4.567   3.134  1.4406 -0.9253 -0.6742
20601SOL     OW63018   0.249   4.196   3.350  0.0370  0.4993  0.6387
20601SOL    HW163019   0.299   4.115   3.363  0.2437  0.2413 -1.4023
20601SOL    HW263020   0.157   4.168   3.352  0.0562  0.4902  1.5241
20602SOL     OW63021   0.069   4.052   1.830  0.0146 -0.1170 -0.7719
20602SOL    HW163022   0.088   3.995   1.756  1.3008 -0.3140 -0.3263
20602SOL    HW263023   0.090   3.999   1.907  0.0807  0.5554 -0.3198
20603SOL     OW63024   8.262   3.603   2.902 -0.0933  0.7852  0.4510
20603SOL    HW163025   8.227   3.672   2.846 -0.9045 -0.8645 -1.1921
20603SOL    HW263026   8.209   3.608   2.982 -1.9616  0.4260 -0.6988
20604SOL     OW63027   7.161   4.203   3.484 -0.4033 -0.1117  0.6749
20604SOL    HW163028   7.230   4.148   3.447  0.3250  0.5322  1.0440
20604SOL    HW263029   7.136   4.157   3.565 -0.0520 -0.1009  0.7949
20605SOL     OW63030   8.050   4.290   2.737 -0.8869 -0.3484  0.0006
20605SOL    HW163031   8.003   4.337   2.806 -1.1463 -0.0961 -0.3474
20605SOL    HW263032   7.995   4.299   2.660 -1.5104 -2.1793  0.1811
20606SOL     OW63033   7.775   4.123   3.074 -0.5484  0.2411  0.3336
20606SOL    HW163034   7.718   4.111   2.998 -0.6387 -0.9176  0.5676
20606SOL    HW263035   7.715   4.120   3.149 -0.3620  0.5689  0.4975
20607SOL     OW63036   0.064   3.923   2.101 -0.2917  0.0687  0.4732
20607SOL    HW163037   0.116   3.860   2.151 -0.9198 -1.4046 -0.6795
20607SOL    HW263038   0.044   3.992   2.165  2.2937  0.2745  1.1825
20608SOL     OW63039   8.620   4.030   2.704 -0.5726  0.3003  0.1158
20608SOL    HW163040   8.691   3.966   2.694  1.7974  2.8721 -0.8928
20608SOL    HW263041   8.556   3.987   2.761  0.9536 -2.8320 -0.3468
20609SOL     OW63042   8.480   4.994   3.922  0.2286  0.7674  0.3564
20609SOL    HW163043   8.539   4.923   3.946 -1.9338 -1.2961 -0.1611
20609SOL    HW263044   8.514   5.025   3.837  2.0412  1.4401  1.2614
20610SOL     OW63045   7.732   4.580   3.751 -0.3537 -0.1261 -0.0246
20610SOL    HW163046   7.743   4.669   3.719  1.4538 -0.4883 -0.5463
20610SOL    HW263047   7.721   4.589   3.845  0.9972  0.6246  0.0883
20611SOL     OW63048   8.808   4.596   1.440 -0.5592  0.2770 -0.1607
20611SOL    HW163049   8.740   4.543   1.398 -0.8241  0.5198 -0.0412
20611SOL    HW263050   8.801   4.574   1.533  0.7143 -1.0485 -0.3388
20612SOL     OW63051   8.836   5.094   2.863  0.4627 -0.1910  0.3426
20612SOL    HW163052   8.929   5.106   2.847  0.1484  0.0871 -1.5836
20612SOL    HW263053   8.815   5.009   2.823  0.0817 -0.7685  1.7287
20613SOL     OW63054   7.716   4.396   3.155  0.0927  0.1297 -0.0797
20613SOL    HW163055   7.643   4.407   3.095 -0.0657  0.9893  0.2497
20613SOL    HW263056   7.703   4.309   3.193 -0.5139  0.0982 -0.3447
20614SOL     OW63057   7.904   4.464   2.882  0.1955  0.1134  0.0669
20614SOL    HW163058   7.812   4.479   2.857 -0.6176 -0.7427  2.3585
20614SOL    HW263059   7.921   4.530   2.949  0.5310 -1.0908  1.2073
20615SOL     OW63060   8.697   3.481   3.544 -0.0417 -0.3060  0.4580
20615SOL    HW163061   8.647   3.399   3.551 -1.7201  0.7459  1.9322
20615SOL    HW263062   8.776   3.465   3.594  0.6590 -1.6625 -0.9932
20616SOL     OW63063   8.752   3.437   3.276  0.4678 -0.1315  0.5485
20616SOL    HW163064   8.746   3.434   3.371 -2.7531 -0.6024  0.4324
20616SOL    HW263065   8.695   3.510   3.250  0.8730 -0.3392 -1.0388
20617SOL     OW63066   7.360   4.952   2.102  0.1365  0.0311  0.0323
20617SOL    HW163067   7.306   5.031   2.097  2.3378  1.5874 -1.5268
20617SOL    HW263068   7.378   4.930   2.011 -0.3338 -2.2833  0.4404
20618SOL     OW63069   7.348   4.705   2.996 -0.5127  0.4259 -0.2338
20618SOL    HW163070   7.323   4.762   3.068  1.7319  0.0197  0.9904
20618SOL    HW263071   7.431   4.742   2.964 -1.5702  0.7363 -2.8192
20619SOL     OW63072   8.363   5.221   2.808  0.0685 -0.0431 -0.5025
20619SOL    HW163073   8.431   5.156   2.792 -1.6439 -1.9432 -0.3834
20619SOL    HW263074   8.299   5.207   2.739 -1.0376  0.5579  0.3672
20620SOL     OW63075   8.402   4.196   2.993  0.3644 -0.2687  0.7908
20620SOL    HW163076   8.430   4.124   2.936 -2.8448 -0.5332 -0.7385
20620SOL    HW263077   8.344   4.154   3.057 -1.6917  0.8566 -0.2272
20621SOL     OW63078   7.356   4.366   2.676 -0.1041 -0.1245 -0.3111
20621SOL    HW163079   7.424   4.428   2.649 -1.1020  0.6749 -1.0852
20621SOL    HW263080   7.290   4.420   2.720 -1.1045 -0.5757 -1.2051
20622SOL     OW63081   7.881   4.046   3.815  0.0181 -0.7766  0.3449
20622SOL    HW163082   7.830   4.029   3.894 -0.3882 -2.2861 -0.2026
20622SOL    HW263083   7.845   4.128   3.781  0.2203 -0.0890  1.7169
20623SOL     OW63084   8.339   4.245   2.488 -0.1236  0.2919  0.8692
20623SOL    HW163085   8.434   4.241   2.480 -0.1181  0.5694  0.7645
20623SOL    HW263086   8.318   4.337   2.469 -0.5914 -0.1710 -1.1289
20624SOL     OW63087   7.456   5.200   3.638  0.2058 -0.0693 -0.0549
20624SOL    HW163088   7.492   5.162   3.719  0.2278 -1.2450 -0.5928
20624SOL    HW263089   7.502   5.153   3.568 -1.0993 -0.3418 -0.7511
20625SOL     OW63090   8.164   4.103   3.263  0.8684  0.1048 -0.4609
20625SOL    HW163091   8.149   4.145   3.179 -2.2244  1.5024  0.6444
20625SOL    HW263092   8.088   4.045   3.275  0.2934  1.2162  2.0117
20626SOL     OW63093   8.174   5.172   3.235  0.3089  0.6099 -0.0972
20626SOL    HW163094   8.144   5.137   3.319 -0.5050 -0.3174 -0.7692
20626SOL    HW263095   8.270   5.167   3.241  0.2560 -2.3208 -0.3813
20627SOL     OW63096   7.796   3.983   2.133 -0.0040  0.1572 -0.1130
20627SOL    HW163097   7.851   4.053   2.099 -0.4708 -0.3510 -2.0070
20627SOL    HW263098   7.706   4.013   2.118 -0.2681  0.2186  1.3764
20628SOL     OW63099   7.541   4.257   3.510  0.2908  0.0834  0.3554
20628SOL    HW163100   7.509   4.181   3.558 -1.5167  0.3372 -0.3400
20628SOL    HW263101   7.504   4.333   3.556 -0.6120  0.3688 -0.7631
20629SOL     OW63102   8.729   4.493   2.945  0.7155  0.0786 -0.4499
20629SOL    HW163103   8.816   4.489   2.985  0.8973 -0.5972 -0.8954
20629SOL    HW263104   8.737   4.560   2.877  1.6102 -1.6417 -2.1260
20630SOL     OW63105   0.437   4.192   1.938  0.3153  0.0370 -0.6425
20630SOL    HW163106   0.402   4.104   1.922 -0.5789  0.1740  0.4313
20630SOL    HW263107   0.414   4.210   2.029  2.1927  0.6212 -0.2441
20631SOL     OW63108   8.750   5.373   2.845  0.0445  0.4294 -0.1110
20631SOL    HW163109   8.789   5.286   2.842 -0.2370  0.3309 -1.2502
20631SOL    HW263110   8.750   5.403   2.755 -0.8947  1.1483  0.1111
20632SOL     OW63111   7.648   4.514   2.800  0.1835 -0.4096 -0.0006
20632SOL    HW163112   7.590   4.558   2.737  0.6576 -0.9973 -0.8664
20632SOL    HW263113   7.588   4.465   2.857 -0.2529  0.1108 -0.0036
20633SOL     OW63114   8.284   5.180   3.653 -0.0632 -0.6612 -0.0831
20633SOL    HW163115   8.292   5.250   3.589  0.7624  0.6423  1.3877
20633SOL    HW263116   8.372   5.143   3.660 -0.2526 -1.1202 -0.0488
20634SOL     OW63117   8.706   4.895   2.214  0.1173  0.1164 -0.3166
20634SOL    HW163118   8.732   4.968   2.271  0.3594 -0.0989 -0.1531
20634SOL    HW263119   8.621   4.867   2.250  0.6920 -0.6161  0.5138
20635SOL     OW63120   7.472   5.467   3.628  0.4530 -0.3222 -0.1598
20635SOL    HW163121   7.469   5.373   3.641  1.6844 -0.5209 -1.1541
20635SOL    HW263122   7.517   5.500   3.706  0.5089 -0.6094 -0.0706
20636SOL     OW63123   8.839   4.327   2.737  0.1734 -0.6548 -0.4279
20636SOL    HW163124   8.913   4.384   2.713 -1.8847  0.9484 -3.6567
20636SOL    HW263125   8.794   4.375   2.807  1.7214 -1.3645  1.1527
20637SOL     OW63126   7.904   4.861   3.547  0.0132 -0.0468  0.2856
20637SOL    HW163127   7.841   4.866   3.620 -0.8640 -1.6655 -0.3179
20637SOL    HW263128   7.945   4.775   3.556  1.9094  0.8310  0.4349
20638SOL     OW63129   8.316   5.143   1.874  0.1590  0.0512 -0.6596
20638SOL    HW163130   8.355   5.143   1.786  1.1070  1.4599 -0.2793
20638SOL    HW263131   8.332   5.055   1.907  2.4041  0.3337 -0.8266
20639SOL     OW63132   7.476   4.146   2.909 -0.5669  0.0408  0.4296
20639SOL    HW163133   7.472   4.240   2.924  0.5188  0.3414 -0.9605
20639SOL    HW263134   7.418   4.109   2.976 -0.5662  1.6356  1.3773
20640SOL     OW63135   0.023   5.467   1.975  0.4849 -0.1557  0.7567
20640SOL    HW163136  -0.067   5.452   1.944  0.9391  0.0923 -0.7398
20640SOL    HW263137   0.077   5.456   1.897  1.6865  0.4779  1.4822
20641SOL     OW63138   8.362   4.680   2.994  0.1813  0.7016  0.2226
20641SOL    HW163139   8.435   4.668   3.055  1.3982  2.4721 -0.7911
20641SOL    HW263140   8.344   4.592   2.961  0.6643 -0.0261  1.7728
20642SOL     OW63141   8.692   4.297   2.339  0.2859  0.7154  0.5129
20642SOL    HW163142   8.694   4.278   2.433  0.3841  2.1849  0.8314
20642SOL    HW263143   8.776   4.263   2.307  1.4275  2.4770  1.4658
20643SOL     OW63144   7.528   4.763   3.393 -0.0106 -0.4116 -0.0132
20643SOL    HW163145   7.494   4.739   3.479 -2.3674 -2.6244 -1.4057
20643SOL    HW263146   7.585   4.690   3.369  0.0097 -0.1968 -0.6317
20644SOL     OW63147   8.794   4.634   2.676 -0.1112 -0.3490 -0.1484
20644SOL    HW163148   8.847   4.686   2.616  0.2105 -0.2627  0.2100
20644SOL    HW263149   8.725   4.597   2.621  1.1216 -1.6202 -0.8955
20645SOL     OW63150   8.652   3.544   2.505  0.1134  0.3389  0.1083
20645SOL    HW163151   8.657   3.451   2.525 -0.4426  0.6477  1.9962
20645SOL    HW263152   8.604   3.581   2.580 -1.3899  1.8572 -1.5175
20646SOL     OW63153   8.307   4.726   2.410  0.5342 -0.4388  0.4038
20646SOL    HW163154   8.225   4.770   2.433  1.5870  2.7656 -1.3881
20646SOL    HW263155   8.356   4.721   2.492 -0.9838 -1.5355  1.3071
20647SOL     OW63156   7.961   4.912   2.097 -0.3077  0.0497 -0.0710
20647SOL    HW163157   7.993   4.947   2.014 -1.4585  1.1039 -0.1035
20647SOL    HW263158   7.953   4.818   2.083 -0.4024  0.2113 -1.1296
20648SOL     OW63159   7.505   4.511   3.640  0.1129 -0.3680 -0.1915
20648SOL    HW163160   7.452   4.580   3.679 -3.1630 -2.3288 -0.8025
20648SOL    HW263161   7.593   4.525   3.675 -1.2259  1.8224  2.6431
20649SOL     OW63162   7.994   3.464   3.416  0.3842  0.6739  0.1627
20649SOL    HW163163   8.017   3.387   3.469  0.4317 -0.1770 -1.0703
20649SOL    HW263164   8.062   3.468   3.349 -0.7984  0.5323 -1.0693
20650SOL     OW63165   7.566   3.956   1.954  0.0790  0.6154 -0.3668
20650SOL    HW163166   7.474   3.945   1.929  0.0274  2.4691 -1.1124
20650SOL    HW263167   7.603   3.868   1.947 -1.3312  0.0555 -1.3190
20651SOL     OW63168   0.091   4.502   3.308  0.1720 -0.5323 -0.3868
20651SOL    HW163169   0.100   4.446   3.231  1.9161  0.1848 -0.7505
20651SOL    HW263170   0.178   4.539   3.322 -1.0276  2.7401 -0.6579
20652SOL     OW63171   7.584   4.214   2.332  0.3352  0.5270 -0.0462
20652SOL    HW163172   7.584   4.139   2.273  2.2749 -0.3235  0.9527
20652SOL    HW263173   7.500   4.209   2.377  0.8164 -1.6918  0.7301
20653SOL     OW63174   0.022   4.670   2.247  0.6680  0.4388 -0.3305
20653SOL    HW163175   0.033   4.591   2.193 -0.2675 -0.0082  0.1085
20653SOL    HW263176  -0.051   4.717   2.207 -1.9220 -1.2698  2.0306
20654SOL     OW63177   8.246   4.264   3.685 -0.2539  0.5581 -0.2325
20654SOL    HW163178   8.302   4.338   3.708 -0.8784  1.0724 -0.3465
20654SOL    HW263179   8.210   4.287   3.599  0.1906 -0.2540 -0.6421
20655SOL     OW63180   8.145   4.081   3.863 -0.5675 -0.0995 -0.2457
20655SOL    HW163181   8.164   4.139   3.790 -2.2637 -0.0017 -0.6595
20655SOL    HW263182   8.070   4.029   3.833 -0.8249 -0.5779  1.1399
20656SOL     OW63183   8.743   5.090   3.359  0.0409  0.5379  0.0612
20656SOL    HW163184   8.728   5.015   3.416 -0.9976  1.5808  1.2175
20656SOL    HW263185   8.726   5.057   3.271  1.1676 -0.9719  0.3540
20657SOL     OW63186   7.620   5.484   3.271  0.2165  0.2303  0.6690
20657SOL    HW163187   7.668   5.412   3.311  1.4768  1.4426  1.4364
20657SOL    HW263188   7.600   5.543   3.344  0.4481  1.3355 -0.1234
20658SOL     OW63189   8.302   3.799   2.050 -0.0031  0.3652  0.1629
20658SOL    HW163190   8.352   3.831   2.125  1.0235  0.1391 -0.4005
20658SOL    HW263191   8.369   3.778   1.985 -0.7496 -1.0888 -0.1797
20659SOL     OW63192   7.933   4.274   2.476  0.5138  0.5037 -0.0671
20659SOL    HW163193   7.958   4.351   2.425 -0.6621 -0.1194 -1.6777
20659SOL    HW263194   7.846   4.295   2.509  0.0219 -0.2287 -0.8319
20660SOL     OW63195   8.534   4.805   1.886  0.4659  0.3037  0.0605
20660SOL    HW163196   8.531   4.717   1.923  2.7073  0.3879  0.6076
20660SOL    HW263197   8.469   4.854   1.936 -0.1755 -0.8101  0.3631
20661SOL     OW63198   8.175   5.180   2.613  0.2867  0.0363  0.1582
20661SOL    HW163199   8.140   5.267   2.597  0.3806  0.0709  0.1439
20661SOL    HW263200   8.115   5.121   2.567 -0.4058  0.0083  1.0666
20662SOL     OW63201   8.610   4.269   2.598  1.0834 -0.4190 -0.1380
20662SOL    HW163202   8.620   4.187   2.647  1.7545 -1.2399 -1.5654
20662SOL    HW263203   8.684   4.323   2.624  1.2568 -0.7186 -0.0076
20663SOL     OW63204   8.785   4.528   1.704 -0.3332  0.3525  0.1289
20663SOL    HW163205   8.700   4.484   1.710 -0.9585  1.2651 -1.3939
20663SOL    HW263206   8.848   4.461   1.727 -1.1844 -1.6596 -2.7909
20664SOL     OW63207   7.660   4.849   3.719 -0.0594 -0.1223 -0.2064
20664SOL    HW163208   7.585   4.813   3.670 -0.6679  1.1785 -0.2928
20664SOL    HW263209   7.620   4.913   3.778  1.1416  2.3307 -1.8752
20665SOL     OW63210   7.568   5.029   2.586 -0.0832 -0.2208  0.2755
20665SOL    HW163211   7.482   5.012   2.625 -0.6697 -1.5747 -1.4789
20665SOL    HW263212   7.554   5.107   2.532 -0.2509 -0.4630 -0.0405
20666SOL     OW63213   7.774   5.282   3.386  0.0726  0.2888  0.3442
20666SOL    HW163214   7.694   5.231   3.376 -1.0423  1.8481  0.8729
20666SOL    HW263215   7.807   5.258   3.472 -1.2169  1.4116  1.2044
20667SOL     OW63216   7.517   4.575   2.581 -0.6295 -0.2900  0.5943
20667SOL    HW163217   7.460   4.620   2.519  0.2634 -1.5173 -1.1975
20667SOL    HW263218   7.589   4.540   2.527  0.6723 -0.6230  2.4572
20668SOL     OW63219   8.083   4.297   3.064  0.2801  0.1831  0.0650
20668SOL    HW163220   8.009   4.348   3.031  0.9690  0.1916 -1.5899
20668SOL    HW263221   8.125   4.354   3.128  0.0558  1.0235 -0.5201
20669SOL     OW63222   8.488   5.103   2.483  0.4677 -0.4994  0.1931
20669SOL    HW163223   8.409   5.065   2.446  1.2361 -1.6895 -0.2901
20669SOL    HW263224   8.486   5.195   2.457 -0.8101 -0.4756  0.3153
20670SOL     OW63225   0.143   3.362   2.999  0.0315  0.0100 -0.6331
20670SOL    HW163226   0.052   3.391   3.002 -0.0654 -0.3998  1.5137
20670SOL    HW263227   0.138   3.267   2.994  0.2540 -0.2425  2.3603
20671SOL     OW63228   8.518   3.714   3.352  0.1416  0.1661  0.4447
20671SOL    HW163229   8.488   3.676   3.269 -1.0218 -0.3987  1.1006
20671SOL    HW263230   8.461   3.790   3.365 -0.4254 -0.3803  1.2474
20672SOL     OW63231   8.539   4.677   2.264  0.1883  0.1753  0.1610
20672SOL    HW163232   8.516   4.626   2.187  1.9320 -0.7068  0.1813
20672SOL    HW263233   8.457   4.719   2.291 -0.7937 -0.8253 -1.1759
20673SOL     OW63234   7.806   4.771   2.809  0.0077 -0.2852 -0.0135
20673SOL    HW163235   7.822   4.774   2.903  3.3945 -1.9347 -0.3759
20673SOL    HW263236   7.731   4.713   2.800 -1.0990  0.7905  1.6543
20674SOL     OW63237   8.502   3.720   1.869  0.1770 -0.0212  1.0295
20674SOL    HW163238   8.591   3.725   1.903 -0.5267  0.5015  2.8792
20674SOL    HW263239   8.490   3.802   1.820  1.5155 -1.1994 -1.4765
20675SOL     OW63240   7.411   4.897   1.839  0.1066  0.4629 -0.7255
20675SOL    HW163241   7.339   4.852   1.794  1.7461 -0.2246 -2.8617
20675SOL    HW263242   7.462   4.936   1.768  1.9699  0.7401  0.6894
20676SOL     OW63243   8.822   5.377   2.273  0.0941 -0.0034  0.0220
20676SOL    HW163244   8.734   5.356   2.303 -0.1513  0.6532 -0.2171
20676SOL    HW263245   8.809   5.444   2.206  0.5661 -1.8237 -2.0180
20677SOL     OW63246   7.602   4.560   4.430  0.2924 -0.4224  0.1767
20677SOL    HW163247   7.530   4.498   4.436 -0.9540  0.8519 -0.7791
20677SOL    HW263248   7.589   4.604   4.346  1.4541  0.7120  0.5488
20678SOL     OW63249   7.380   3.783   4.460 -0.1039  0.0056 -0.0852
20678SOL    HW163250   7.333   3.860   4.429  0.8955  0.6676 -0.0046
20678SOL    HW263251   7.455   3.775   4.402  0.1602 -0.5258  0.3156
20679SOL     OW63252   8.201   5.143   4.707  0.3699  0.2964  0.3006
20679SOL    HW163253   8.231   5.119   4.619 -1.2123  0.0510 -0.1915
20679SOL    HW263254   8.188   5.060   4.752  0.0208  0.3850  0.3680
20680SOL     OW63255   0.079   5.255   4.718 -0.2491  0.3155 -0.3211
20680SOL    HW163256   0.092   5.312   4.642  1.0433  0.6203  0.0959
20680SOL    HW263257   0.167   5.243   4.754 -0.8579  0.3654  1.2668
20681SOL     OW63258   8.729   4.350   4.145  0.7324 -0.3342  0.4498
20681SOL    HW163259   8.818   4.368   4.176  0.1551  0.1759  1.8354
20681SOL    HW263260   8.696   4.282   4.203 -0.2191  0.3524  0.7403
20682SOL     OW63261   8.041   4.753   5.054  0.7773 -0.5690  0.0081
20682SOL    HW163262   8.091   4.673   5.072  1.3141 -0.6532 -1.7061
20682SOL    HW263263   7.972   4.725   4.993  1.2000  0.3326 -0.9020
20683SOL     OW63264   8.309   4.691   5.389  0.6456  0.1266  0.5998
20683SOL    HW163265   8.225   4.717   5.350  0.9589  1.5025  0.7986
20683SOL    HW263266   8.369   4.682   5.315  0.1637 -1.6891  0.3644
20684SOL     OW63267   7.787   4.778   4.312 -0.5818 -0.7926 -0.2317
20684SOL    HW163268   7.792   4.731   4.229  2.3755  0.2681 -0.7702
20684SOL    HW263269   7.704   4.825   4.308 -2.4309 -3.8771 -0.7479
20685SOL     OW63270   7.712   5.032   5.350 -0.0428 -0.2452 -0.2428
20685SOL    HW163271   7.632   5.047   5.298 -1.1947 -2.4000  0.7545
20685SOL    HW263272   7.776   5.093   5.314 -2.1900  1.7402 -0.9473
20686SOL     OW63273   7.970   4.841   4.767 -0.0699  0.3132 -0.8412
20686SOL    HW163274   7.898   4.779   4.780  1.3583 -1.6405 -1.5758
20686SOL    HW263275   7.933   4.911   4.713 -0.8934 -1.9093 -3.4055
20687SOL     OW63276   7.583   3.855   5.468  0.3186  0.7536  0.3610
20687SOL    HW163277   7.663   3.906   5.452  0.5941  0.3490  0.4145
20687SOL    HW263278   7.593   3.778   5.413  0.1772  0.4795  0.7149
20688SOL     OW63279   7.628   5.682   4.102  0.1995 -0.4214  0.0427
20688SOL    HW163280   7.637   5.644   4.189 -2.3942  1.4571  1.2213
20688SOL    HW263281   7.705   5.739   4.093 -0.7928  1.4646  2.3207
20689SOL     OW63282   8.611   5.106   5.157  0.2643  0.2056 -0.4534
20689SOL    HW163283   8.669   5.128   5.084  0.6556 -0.7638 -0.4528
20689SOL    HW263284   8.547   5.177   5.159 -0.3330 -0.2275 -2.3492
20690SOL     OW63285   7.617   5.102   4.465  0.0681  0.2500 -0.0998
20690SOL    HW163286   7.593   5.115   4.374 -0.1222  0.3776 -0.0323
20690SOL    HW263287   7.537   5.121   4.514 -0.0470 -0.5498  0.0457
20691SOL     OW63288   7.597   4.702   5.083  0.7023  0.6890 -0.3853
20691SOL    HW163289   7.579   4.640   5.153  0.2011 -0.4638 -1.4864
20691SOL    HW263290   7.541   4.777   5.102  0.8602  0.5589  0.6394
20692SOL     OW63291   8.118   5.623   5.546  0.4465  0.3424 -0.1333
20692SOL    HW163292   8.212   5.628   5.526  0.8041  1.1813  1.5456
20692SOL    HW263293   8.110   5.550   5.608  0.0521  0.5517  0.0660
20693SOL     OW63294   8.249   4.727   3.812  0.0199 -0.5278  0.1609
20693SOL    HW163295   8.288   4.645   3.784  0.3255  0.1347 -1.4816
20693SOL    HW263296   8.279   4.791   3.747  0.1658  0.9783  1.6580
20694SOL     OW63297   7.328   4.574   4.993 -0.4490 -0.2771 -0.2110
20694SOL    HW163298   7.404   4.631   4.983  0.2657 -0.4294  3.2845
20694SOL    HW263299   7.282   4.581   4.909  2.3255  1.3451 -1.7473
20695SOL     OW63300   7.418   5.160   4.139  0.2101 -0.8211  0.2137
20695SOL    HW163301   7.491   5.214   4.112  0.3063 -0.8634  0.3903
20695SOL    HW263302   7.354   5.169   4.068  0.4191 -0.8513  0.0215
20696SOL     OW63303   0.412   4.583   4.252  0.0073  0.0460  0.1411
20696SOL    HW163304   0.467   4.660   4.270 -0.4980  0.4074  0.1727
20696SOL    HW263305   0.329   4.602   4.297 -0.3372 -0.2417 -0.3628
20697SOL     OW63306   7.833   4.993   5.019  0.4628 -0.3337 -0.1251
20697SOL    HW163307   7.856   4.962   4.931  1.4148 -0.1902  0.0646
20697SOL    HW263308   7.737   4.998   5.018  0.4988  0.6857 -1.4929
20698SOL     OW63309   8.299   5.092   4.463 -0.0036 -0.1002 -0.4135
20698SOL    HW163310   8.237   5.057   4.400  0.8231  0.4964 -1.5904
20698SOL    HW263311   8.341   5.165   4.418  0.2832  0.6476  0.9958
20699SOL     OW63312   8.587   4.478   5.204  0.0516 -0.4681 -0.1116
20699SOL    HW163313   8.517   4.542   5.193  0.4905 -0.1579 -1.2421
20699SOL    HW263314   8.547   4.395   5.177 -0.1712 -0.4586  0.1937
20700SOL     OW63315   8.386   3.444   4.070 -0.5210 -0.6122  0.2073
20700SOL    HW163316   8.452   3.419   4.005 -2.7590  1.9498 -3.4997
20700SOL    HW263317   8.432   3.502   4.130  1.0838 -0.6353 -0.9218
20701SOL     OW63318   7.804   4.687   4.916  0.0780 -0.0565  0.2990
20701SOL    HW163319   7.784   4.593   4.910  1.0053 -0.3031  0.9618
20701SOL    HW263320   7.733   4.723   4.970 -0.2728 -0.3705  0.0550
20702SOL     OW63321   0.027   5.859   5.114 -0.0312  0.5093 -0.1682
20702SOL    HW163322  -0.045   5.911   5.152 -0.5398  0.4172 -0.9866
20702SOL    HW263323   0.004   5.852   5.021  0.6105 -0.2382 -0.2686
20703SOL     OW63324   7.875   3.950   5.380  0.1332 -0.3997 -0.4567
20703SOL    HW163325   7.861   4.044   5.380 -1.0547 -0.5615 -0.1183
20703SOL    HW263326   7.906   3.930   5.469 -1.6052 -0.5787  0.1420
20704SOL     OW63327   8.219   4.123   4.463 -0.1014  0.0853  0.0901
20704SOL    HW163328   8.230   4.218   4.458  0.2566 -0.0050 -1.5674
20704SOL    HW263329   8.180   4.108   4.549 -0.0706  1.7166  0.4323
20705SOL     OW63330   8.640   3.744   4.896  0.3843  0.1395 -0.4608
20705SOL    HW163331   8.623   3.698   4.813 -2.0249  2.3376 -1.3407
20705SOL    HW263332   8.710   3.805   4.876 -0.0711  0.5397 -0.8733
20706SOL     OW63333   8.273   4.382   5.429  0.3788  0.1632 -0.7733
20706SOL    HW163334   8.262   4.477   5.427  1.2787  0.2800 -0.5480
20706SOL    HW263335   8.346   4.367   5.489 -0.0344 -0.7001 -0.4683
20707SOL     OW63336   8.779   4.591   4.884 -0.0836  0.0960  0.1304
20707SOL    HW163337   8.803   4.667   4.937 -1.3453  0.7001 -0.1212
20707SOL    HW263338   8.693   4.566   4.917 -0.6738  0.1813 -1.2790
20708SOL     OW63339   8.285   4.512   4.953 -0.7540  0.0071 -0.8237
20708SOL    HW163340   8.311   4.530   4.863 -0.9675 -1.1224 -1.1321
20708SOL    HW263341   8.244   4.425   4.949  1.1122 -1.0165  0.6774
20709SOL     OW63342   8.478   3.905   5.042 -0.5434 -0.4164 -0.2142
20709SOL    HW163343   8.523   3.829   5.005 -1.0344 -1.5261  1.3419
20709SOL    HW263344   8.415   3.931   4.976  1.0519 -0.0179 -1.6445
20710SOL     OW63345   8.120   3.892   4.331 -0.3350 -0.9037  0.1162
20710SOL    HW163346   8.168   3.943   4.396 -0.2519 -0.8380  0.0034
20710SOL    HW263347   8.106   3.806   4.373  2.2700 -1.9043 -0.8469
20711SOL     OW63348   7.253   4.082   5.038  0.2316 -0.2134 -0.8172
20711SOL    HW163349   7.292   4.169   5.033 -1.5050  1.0810  3.4926
20711SOL    HW263350   7.159   4.098   5.050  0.3080 -1.8989  6.2597
20712SOL     OW63351   7.435   5.421   5.467 -0.1511  0.1443  0.1050
20712SOL    HW163352   7.401   5.447   5.381  0.5953  1.0236  0.0602
20712SOL    HW263353   7.509   5.480   5.482  0.4591 -0.7871  0.8376
20713SOL     OW63354   8.030   4.145   4.090 -0.4367 -0.3131  0.3624
20713SOL    HW163355   8.073   4.086   4.152 -1.0163 -1.7329 -0.5214
20713SOL    HW263356   8.078   4.133   4.008 -1.1085 -0.2271 -0.0544
20714SOL     OW63357   0.149   4.907   4.380  0.3903 -0.2011 -0.0843
20714SOL    HW163358   0.182   4.865   4.460 -0.9939  1.8943  1.7406
20714SOL    HW263359   0.135   4.999   4.406  0.2170  0.6476 -2.8794
20715SOL     OW63360   8.224   3.897   4.913 -0.2689  0.1918 -0.4761
20715SOL    HW163361   8.256   3.816   4.873  1.1494  0.5043 -0.0053
20715SOL    HW263362   8.194   3.871   5.000 -0.8700 -0.0108 -0.7356
20716SOL     OW63363   8.643   4.738   4.085 -0.2511  0.2354 -0.2441
20716SOL    HW163364   8.580   4.717   4.154 -0.1539 -0.5363 -0.3732
20716SOL    HW263365   8.723   4.760   4.132  0.5064 -2.4674 -0.0581
20717SOL     OW63366   7.456   5.482   4.457 -0.1119 -1.0619 -0.2067
20717SOL    HW163367   7.380   5.436   4.422  0.7821 -2.9533  0.2207
20717SOL    HW263368   7.502   5.416   4.509  0.9996  0.4635  0.8188
20718SOL     OW63369   8.414   5.265   4.877 -0.0390  0.2286 -0.0231
20718SOL    HW163370   8.450   5.264   4.789  0.1944  1.1489  0.0561
20718SOL    HW263371   8.353   5.191   4.879  0.1320  0.0601 -0.8762
20719SOL     OW63372   8.010   4.369   4.361 -0.4575 -0.1671 -0.0959
20719SOL    HW163373   7.996   4.275   4.351 -1.5716 -0.1156  0.7475
20719SOL    HW263374   8.064   4.393   4.286  1.3838 -1.7751  0.6187
20720SOL     OW63375   8.098   4.894   5.276 -0.2083  0.3710  0.6428
20720SOL    HW163376   8.066   4.839   5.204 -0.3053 -1.0929  1.7671
20720SOL    HW263377   8.024   4.950   5.299 -0.3540  0.4484 -0.0026
20721SOL     OW63378   8.597   5.572   4.035  0.1230  0.2234 -0.1275
20721SOL    HW163379   8.615   5.614   4.119  1.1639  0.8691 -0.6432
20721SOL    HW263380   8.622   5.481   4.047 -0.2545  0.1940  0.4284
20722SOL     OW63381   7.616   3.667   5.281 -0.0876  0.1362 -0.1439
20722SOL    HW163382   7.568   3.589   5.251 -0.6645  0.3180  0.2780
20722SOL    HW263383   7.684   3.680   5.215 -0.3111 -0.4221 -0.4968
20723SOL     OW63384   7.936   5.407   3.935  0.0686 -0.2002  0.2059
20723SOL    HW163385   7.895   5.420   3.850 -0.5476 -0.1096  0.5067
20723SOL    HW263386   7.930   5.313   3.951 -0.7361 -0.0937  0.5884
20724SOL     OW63387   7.302   5.596   5.022  0.1822 -0.0906 -0.2384
20724SOL    HW163388   7.334   5.575   5.110 -0.0784  0.0757 -0.1004
20724SOL    HW263389   7.339   5.682   5.003 -1.5362  0.8881  0.6277
20725SOL     OW63390   8.656   5.499   4.493  0.1904 -0.5040  0.1792
20725SOL    HW163391   8.653   5.415   4.538 -0.0072 -0.4591  0.2507
20725SOL    HW263392   8.575   5.543   4.518 -0.4342 -0.9087 -1.0623
20726SOL     OW63393   7.556   4.589   4.718 -0.1038  0.3645  0.6571
20726SOL    HW163394   7.562   4.679   4.751  0.7040  0.3792  0.4962
20726SOL    HW263395   7.581   4.596   4.626  1.8129 -0.2744  1.0884
20727SOL     OW63396   8.148   3.856   4.043 -0.4482 -0.2912  0.3072
20727SOL    HW163397   8.135   3.761   4.036 -1.4937 -0.2284  1.1805
20727SOL    HW263398   8.142   3.874   4.136 -2.5301  0.9228 -0.0018
20728SOL     OW63399   8.627   4.069   5.255 -0.0470 -0.2392  0.1708
20728SOL    HW163400   8.561   4.106   5.196  0.2069  1.3946  0.8794
20728SOL    HW263401   8.710   4.105   5.224  0.7120 -2.8411 -1.1692
20729SOL     OW63402   8.333   5.769   5.260 -0.2639 -0.4593  0.3307
20729SOL    HW163403   8.346   5.751   5.167 -1.2039 -1.2634  0.3484
20729SOL    HW263404   8.279   5.848   5.262  0.0983 -0.2019  0.2134
20730SOL     OW63405   0.071   4.075   5.240  0.7504 -0.4328 -0.0495
20730SOL    HW163406   0.036   3.995   5.278 -2.1733  0.1509 -1.2292
20730SOL    HW263407   0.095   4.052   5.151  0.2577 -0.1217 -0.2711
20731SOL     OW63408   8.124   5.000   4.248 -0.6326 -0.1049 -0.2726
20731SOL    HW163409   8.094   4.984   4.158 -0.6620 -1.4357 -0.0485
20731SOL    HW263410   8.078   4.934   4.300 -0.5227  0.5790  0.7095
20732SOL     OW63411   0.140   3.793   4.283  0.7463 -0.2387  0.1597
20732SOL    HW163412   0.174   3.820   4.198  0.3374 -2.5784 -0.8103
20732SOL    HW263413   0.066   3.851   4.299  1.1083  0.5245 -0.8648
20733SOL     OW63414   7.859   3.941   4.283  0.0314 -0.0576 -0.0590
20733SOL    HW163415   7.954   3.932   4.295 -0.0064 -0.8782 -0.3132
20733SOL    HW263416   7.822   3.904   4.363 -0.0821 -0.0520 -0.1089
20734SOL     OW63417   0.155   4.848   3.553  0.8100  0.7547  0.0677
20734SOL    HW163418   0.096   4.802   3.493 -0.2062 -0.1643  1.6767
20734SOL    HW263419   0.223   4.783   3.573 -0.6403 -0.1949  2.3649
20735SOL     OW63420   7.716   3.716   3.277 -0.4503 -0.1253  0.2397
20735SOL    HW163421   7.630   3.676   3.268 -0.2026 -0.5623 -0.2737
20735SOL    HW263422   7.762   3.693   3.196  0.0765  0.2767  0.4150
20736SOL     OW63423   8.651   3.774   4.160  0.5999  0.2030  0.3734
20736SOL    HW163424   8.576   3.717   4.181 -0.5302  1.9425  1.2493
20736SOL    HW263425   8.726   3.714   4.159 -0.9843 -1.9762 -2.4897
20737SOL     OW63426   8.328   4.506   4.447 -0.1297 -0.8219  0.9020
20737SOL    HW163427   8.268   4.519   4.374  2.6905 -0.7593 -1.5982
20737SOL    HW263428   8.272   4.480   4.520 -3.3405  1.1154 -0.6440
20738SOL     OW63429   8.655   5.284   4.667 -0.1068 -0.1292 -0.1588
20738SOL    HW163430   8.746   5.273   4.695  0.3690  2.8296 -0.1641
20738SOL    HW263431   8.626   5.196   4.642  2.0383 -1.5273  1.8730
20739SOL     OW63432   8.035   4.787   4.403  0.1043 -0.5042  0.1182
20739SOL    HW163433   8.055   4.780   4.496 -0.2596 -1.0231  0.1590
20739SOL    HW263434   7.942   4.810   4.399  0.6338  1.9284 -0.0717
20740SOL     OW63435   0.106   5.464   4.510 -0.6071  0.0086 -0.2789
20740SOL    HW163436   0.171   5.515   4.460 -0.7741  0.2747 -0.2241
20740SOL    HW263437   0.022   5.502   4.485 -0.9770 -1.9459 -2.2869
20741SOL     OW63438   8.449   4.061   3.730 -0.0214 -0.6410 -0.2686
20741SOL    HW163439   8.380   4.125   3.716  0.0862 -0.7670 -1.4476
20741SOL    HW263440   8.517   4.083   3.666  0.1328 -1.7619 -0.5152
20742SOL     OW63441   7.190   4.394   5.146  0.3341  0.4101 -0.0606
20742SOL    HW163442   7.251   4.446   5.094 -0.5513 -0.6461 -2.3167
20742SOL    HW263443   7.107   4.402   5.099  0.3738 -3.8427 -1.3015
20743SOL     OW63444   8.303   3.634   4.863  0.1596  0.6488 -0.2513
20743SOL    HW163445   8.322   3.557   4.917 -0.0685 -0.6238 -1.9207
20743SOL    HW263446   8.369   3.632   4.794 -0.9742  0.8631 -1.3799
20744SOL     OW63447   7.962   3.816   4.770  0.6505 -0.4703  0.4672
20744SOL    HW163448   7.961   3.838   4.864  0.1479  0.9586  0.1561
20744SOL    HW263449   8.004   3.730   4.766  0.9952 -0.4036  1.9745
20745SOL     OW63450   8.781   3.931   4.452 -0.1294 -0.6174  0.1877
20745SOL    HW163451   8.711   3.978   4.406 -0.3566 -2.0034 -0.9233
20745SOL    HW263452   8.850   3.997   4.462 -1.4209  0.6856  1.0130
20746SOL     OW63453   7.594   5.089   3.864  0.3152 -0.0676  0.6116
20746SOL    HW163454   7.654   5.026   3.904  0.6964 -0.4644 -0.5490
20746SOL    HW263455   7.577   5.154   3.932  0.0407 -1.3330  1.7889
20747SOL     OW63456   8.457   3.603   3.619 -0.5549  0.0289 -0.6851
20747SOL    HW163457   8.521   3.568   3.681  0.0367 -0.3583 -1.4887
20747SOL    HW263458   8.508   3.620   3.540 -1.1738  1.0675 -0.8832
20748SOL     OW63459   7.752   4.137   4.056 -0.0028 -0.6504 -0.3750
20748SOL    HW163460   7.683   4.107   4.114  0.7606  0.7503  1.3682
20748SOL    HW263461   7.832   4.128   4.107  0.6420  1.1389 -0.9915
20749SOL     OW63462   8.185   4.963   4.919 -0.1408  0.1744 -0.0372
20749SOL    HW163463   8.163   5.018   4.994 -0.6068  1.4480 -1.0684
20749SOL    HW263464   8.121   4.892   4.922 -0.1979  0.2483  0.7231
20750SOL     OW63465   8.515   5.046   4.636  0.0550 -0.1700  0.0914
20750SOL    HW163466   8.451   4.989   4.677 -0.3208 -0.3129 -0.6905
20750SOL    HW263467   8.526   5.012   4.547  0.6281  0.3239 -0.0386
20751SOL     OW63468   8.261   4.134   5.330  0.2828  0.6832 -0.7412
20751SOL    HW163469   8.256   4.226   5.358  1.8819  0.1368  1.6199
20751SOL    HW263470   8.319   4.136   5.254  0.5122  1.5947 -0.5602
20752SOL     OW63471   8.413   4.678   5.124 -0.1522  0.6043  0.2086
20752SOL    HW163472   8.370   4.619   5.062  1.7455 -0.8775  0.2381
20752SOL    HW263473   8.434   4.756   5.072 -2.1284  1.0906  0.0272
20753SOL     OW63474   8.610   4.537   3.912 -0.0055 -0.3085 -0.6977
20753SOL    HW163475   8.659   4.457   3.934 -0.3969 -0.1909  0.6996
20753SOL    HW263476   8.635   4.599   3.980  0.0186  0.6639 -1.5760
20754SOL     OW63477   7.882   4.131   4.759 -0.3287 -0.0230 -0.3201
20754SOL    HW163478   7.794   4.094   4.767 -0.4257  0.0409 -1.0039
20754SOL    HW263479   7.901   4.167   4.846 -1.2854  0.6360 -0.3672
20755SOL     OW63480   8.508   3.811   5.340 -0.1564 -0.0149 -0.7766
20755SOL    HW163481   8.554   3.878   5.289  2.6412 -1.7568 -0.7241
20755SOL    HW263482   8.461   3.759   5.274 -1.1173  1.0389 -0.9571
20756SOL     OW63483   7.590   5.648   5.472  0.5975  0.2461  0.3840
20756SOL    HW163484   7.600   5.698   5.553  2.6600 -1.2966  1.1678
20756SOL    HW263485   7.679   5.640   5.437 -0.2510  0.9880 -2.1689
20757SOL     OW63486   7.530   4.857   4.219  0.2896  0.3020 -0.6621
20757SOL    HW163487   7.512   4.826   4.130  0.4441 -0.8418 -0.3184
20757SOL    HW263488   7.448   4.897   4.248  0.2859  0.8173 -1.3690
20758SOL     OW63489   7.774   4.439   4.780  0.1438  0.3176  0.6655
20758SOL    HW163490   7.688   4.480   4.779 -0.3455 -0.6675 -0.6376
20758SOL    HW263491   7.802   4.440   4.688  1.6332  0.8167  1.0896
20759SOL     OW63492   8.737   4.688   4.594 -0.0516 -0.0011 -0.4453
20759SOL    HW163493   8.647   4.711   4.618 -0.8534 -0.8369 -2.4137
20759SOL    HW263494   8.792   4.737   4.655 -1.8374 -1.1278  2.2797
20760SOL     OW63495   8.777   5.484   4.826 -0.2301 -0.8390  0.3929
20760SOL    HW163496   8.755   5.425   4.755  1.2900 -1.7974  0.6653
20760SOL    HW263497   8.873   5.493   4.821 -0.0636 -1.0013  2.3343
20761SOL     OW63498   7.711   5.328   5.193 -0.2787 -0.0823 -0.3433
20761SOL    HW163499   7.693   5.418   5.221  0.2934 -0.3886  1.0744
20761SOL    HW263500   7.806   5.325   5.182 -0.4383 -0.1144 -1.9062
20762SOL     OW63501   7.472   4.272   5.275 -0.4820 -0.2071 -0.2661
20762SOL    HW163502   7.419   4.267   5.354 -0.2392 -1.2471 -0.1525
20762SOL    HW263503   7.409   4.289   5.205 -0.7043  0.6447  0.1326
20763SOL     OW63504   8.542   3.564   5.529  0.0061 -0.4299 -0.1752
20763SOL    HW163505   8.497   3.488   5.492 -1.3123  0.7764 -1.1351
20763SOL    HW263506   8.554   3.624   5.455  0.9936  0.3366  0.5617
20764SOL     OW63507   8.236   3.453   5.713 -0.4092  0.3007 -0.3528
20764SOL    HW163508   8.174   3.478   5.782 -0.5768 -0.5258 -0.1969
20764SOL    HW263509   8.255   3.535   5.668  0.3769  1.0295  1.2073
20765SOL     OW63510   8.551   4.333   4.471 -0.9515  0.0143  0.6884
20765SOL    HW163511   8.590   4.341   4.558  1.2584  2.3773 -0.3765
20765SOL    HW263512   8.495   4.411   4.463 -0.5716  0.2073 -0.2227
20766SOL     OW63513   8.810   4.544   4.375  0.5537 -0.6100  0.0908
20766SOL    HW163514   8.767   4.593   4.445  1.3913  2.9328 -1.6293
20766SOL    HW263515   8.834   4.611   4.311  0.0621 -3.5601 -3.5184
20767SOL     OW63516   8.507   3.983   4.017  0.2690  0.0367  0.2231
20767SOL    HW163517   8.464   4.030   4.089  0.3429  1.7753 -0.8036
20767SOL    HW263518   8.549   3.908   4.059 -0.3025  0.5967  1.8801
20768SOL     OW63519   7.651   3.918   4.822  0.0195 -0.1365  0.9401
20768SOL    HW163520   7.726   3.878   4.867 -0.1925  0.2060  1.6131
20768SOL    HW263521   7.628   3.856   4.754  0.6419 -0.4542  1.0141
20769SOL     OW63522   7.343   5.194   5.624 -0.0867 -0.1858  0.1908
20769SOL    HW163523   7.361   5.278   5.581 -0.1222 -0.1560  0.2329
20769SOL    HW263524   7.428   5.164   5.655 -0.4482  1.4287  3.0963
20770SOL     OW63525   8.139   4.086   4.719 -0.0529 -0.0146  0.1492
20770SOL    HW163526   8.048   4.108   4.739 -0.0580  0.2463 -0.1451
20770SOL    HW263527   8.150   3.996   4.751 -0.2694  0.1291  0.6327
20771SOL     OW63528   7.550   3.740   4.244  0.1136 -0.4484 -0.2990
20771SOL    HW163529   7.487   3.734   4.172  1.9842  0.0385 -2.0524
20771SOL    HW263530   7.632   3.709   4.206  1.4606  1.1083  1.2449
20772SOL     OW63531   0.243   3.737   3.716  0.1026  0.1685  0.1660
20772SOL    HW163532   0.262   3.690   3.797 -4.3385 -1.1212  0.7309
20772SOL    HW263533   0.258   3.829   3.738 -0.7116 -0.1774  2.4296
20773SOL     OW63534   0.181   4.390   4.310 -0.2375  0.5468  0.3558
20773SOL    HW163535   0.103   4.441   4.335  0.0748  1.4012 -0.3433
20773SOL    HW263536   0.177   4.386   4.215  0.0064 -0.3452  0.3755
20774SOL     OW63537   8.326   5.441   5.621 -0.1251 -0.7226  0.3283
20774SOL    HW163538   8.380   5.389   5.562  0.7088  0.5251 -0.0362
20774SOL    HW263539   8.349   5.410   5.708 -0.3032 -1.5803  0.0735
20775SOL     OW63540   7.587   4.349   5.557  0.1923 -0.1194  0.7211
20775SOL    HW163541   7.513   4.388   5.604 -1.3296 -0.8315 -0.9699
20775SOL    HW263542   7.570   4.255   5.560  0.7182 -0.2532 -0.1948
20776SOL     OW63543   0.057   4.353   3.761  0.5671 -0.5225  0.4448
20776SOL    HW163544   0.012   4.344   3.845 -0.8404 -1.2253 -0.3631
20776SOL    HW263545   0.091   4.266   3.743  1.1805 -0.2879  0.4306
20777SOL     OW63546   8.151   4.634   4.213 -0.2928  0.0500  0.1240
20777SOL    HW163547   8.092   4.683   4.270 -1.4837 -1.8462  0.5932
20777SOL    HW263548   8.108   4.635   4.127 -0.3276 -0.1561  0.1373
20778SOL     OW63549   8.106   4.460   4.621  0.7181 -0.4498  0.1636
20778SOL    HW163550   8.042   4.430   4.557  2.5250 -3.0230 -0.6163
20778SOL    HW263551   8.077   4.423   4.704  1.1762 -1.6273 -0.1901
20779SOL     OW63552   7.442   4.303   4.931  0.2975  0.4284  0.5812
20779SOL    HW163553   7.400   4.389   4.931  0.9619  0.7703  0.8716
20779SOL    HW263554   7.529   4.319   4.894 -0.1588 -0.4482 -0.9622
20780SOL     OW63555   8.565   4.354   5.528  0.4316 -0.6541  0.0050
20780SOL    HW163556   8.653   4.320   5.541  0.2243 -0.8456  0.9539
20780SOL    HW263557   8.540   4.324   5.440  0.8766 -1.5734  0.1813
20781SOL     OW63558   8.582   4.055   5.529  0.4671 -0.0854 -0.1199
20781SOL    HW163559   8.595   4.073   5.436 -1.0287 -1.5605 -0.6654
20781SOL    HW263560   8.599   3.961   5.537 -0.7786 -0.2519  0.8168
20782SOL     OW63561   7.227   5.100   3.365  0.3194  0.1414  0.3882
20782SOL    HW163562   7.231   5.118   3.271  0.1511 -0.0577  0.3425
20782SOL    HW263563   7.299   5.038   3.381  0.2991  0.1151  0.3771
20783SOL     OW63564   7.244   5.677   4.513  0.5090 -0.0652  0.1930
20783SOL    HW163565   7.245   5.583   4.495 -1.3977 -0.0442 -0.2334
20783SOL    HW263566   7.171   5.710   4.461 -1.3967  0.9941  3.2947
20784SOL     OW63567   7.908   5.590   4.347  0.0432  0.2832 -0.8637
20784SOL    HW163568   7.814   5.606   4.340  0.1606  1.0014 -0.8915
20784SOL    HW263569   7.944   5.673   4.379  0.2493 -1.0583  2.7094
20785SOL     OW63570   8.478   4.731   4.764 -0.8168 -0.0766 -0.2356
20785SOL    HW163571   8.482   4.766   4.853 -1.2688 -1.2395  0.2662
20785SOL    HW263572   8.385   4.736   4.741 -0.4840  1.8829 -1.3723
20786SOL     OW63573   7.588   4.062   5.121  0.0684  0.3116 -0.4552
20786SOL    HW163574   7.653   4.115   5.075  0.7687 -0.1217  0.0218
20786SOL    HW263575   7.561   4.115   5.196 -0.2632  0.5630 -0.7487
20787SOL     OW63576   7.123   4.476   5.413 -0.0221  0.0369  0.3817
20787SOL    HW163577   7.157   4.470   5.323 -0.6381 -0.1719  0.1551
20787SOL    HW263578   7.039   4.522   5.403 -1.4195 -2.3455  0.4748
20788SOL     OW63579   8.444   3.636   4.283  0.0547 -0.2546  0.3910
20788SOL    HW163580   8.379   3.582   4.327  0.3867 -0.1029  1.0829
20788SOL    HW263581   8.495   3.675   4.355  1.2527 -0.7986 -0.1360
20789SOL     OW63582   8.153   5.459   5.122  1.1834  0.0332  0.0325
20789SOL    HW163583   8.195   5.507   5.051  1.4471  0.6554  0.5902
20789SOL    HW263584   8.067   5.500   5.131  0.6600 -0.8542 -0.7222
20790SOL     OW63585   8.224   4.711   4.716 -0.7024 -0.0977 -0.0881
20790SOL    HW163586   8.169   4.637   4.692 -3.0601  0.7393  2.2192
20790SOL    HW263587   8.162   4.782   4.734  1.3457  1.8930 -0.3488
20791SOL     OW63588   8.616   5.577   5.028  0.3722 -0.6652 -0.0305
20791SOL    HW163589   8.662   5.585   5.112  0.0583 -0.0406  0.0909
20791SOL    HW263590   8.678   5.531   4.971  0.8799 -0.4400  0.3302
20792SOL     OW63591   8.015   4.423   3.776  0.5227 -0.1090 -0.5280
20792SOL    HW163592   7.938   4.375   3.805  0.2627  0.1438 -0.7926
20792SOL    HW263593   8.083   4.356   3.767  0.0901 -0.4760 -1.1543
20793SOL     OW63594   7.929   5.142   5.231  0.1217  0.4681 -0.5501
20793SOL    HW163595   8.012   5.131   5.184 -0.6421 -0.3880 -1.7452
20793SOL    HW263596   7.868   5.084   5.185 -1.0310  0.7444  0.5939
20794SOL     OW63597   8.706   4.406   4.690 -0.0434  0.2601  0.3109
20794SOL    HW163598   8.704   4.501   4.706 -0.9947  0.3324 -0.1608
20794SOL    HW263599   8.781   4.393   4.632 -0.0396  0.7574  0.1945
20795SOL     OW63600   8.361   4.065   4.214 -0.6613 -0.5421 -0.4019
20795SOL    HW163601   8.358   4.159   4.197 -0.3350 -0.9399 -3.1645
20795SOL    HW263602   8.286   4.049   4.271 -0.6813  1.3806  0.2017
20796SOL     OW63603   8.614   5.897   4.689  1.0935  0.0881  0.0358
20796SOL    HW163604   8.568   5.824   4.648  1.8180 -0.4752  0.2237
20796SOL    HW263605   8.645   5.950   4.616  0.4799  0.2685 -0.0984
20797SOL     OW63606   7.453   5.141   5.338 -0.0556 -0.3858  0.4898
20797SOL    HW163607   7.430   5.212   5.277 -0.5970 -0.5638  0.4822
20797SOL    HW263608   7.423   5.173   5.424  2.4109  0.7052  1.0394
20798SOL     OW63609   8.616   5.759   5.321  0.4298  0.3714  0.7114
20798SOL    HW163610   8.521   5.744   5.328  0.1756  1.5256 -0.0009
20798SOL    HW263611   8.623   5.845   5.279  1.7762  1.7277  3.4335
20799SOL     OW63612   8.656   4.935   4.416 -0.7291 -0.0492  0.4752
20799SOL    HW163613   8.714   4.873   4.461  0.8248 -0.2849 -1.6893
20799SOL    HW263614   8.586   4.881   4.380 -0.3509 -0.3129  0.1184
20800SOL     OW63615   7.604   5.696   5.750 -0.1698  0.4379  0.1582
20800SOL    HW163616   7.530   5.713   5.809  0.0159  1.7867  0.0294
20800SOL    HW263617   7.651   5.623   5.790 -2.3231 -1.4114 -0.4744
20801SOL     OW63618   0.151   4.415   4.018  0.0248 -0.3919 -0.0385
20801SOL    HW163619   0.204   4.492   4.036 -0.9542  0.1845  0.4533
20801SOL    HW263620   0.176   4.388   3.930  0.4294  0.4309 -0.1798
20802SOL     OW63621   8.184   5.176   5.134  0.2704  0.0606 -0.1447
20802SOL    HW163622   8.247   5.162   5.206 -1.4247 -0.0817  1.3887
20802SOL    HW263623   8.152   5.265   5.148 -0.8172 -0.3252 -0.0926
20803SOL     OW63624   7.768   4.978   4.053  0.2861 -0.2091 -0.5930
20803SOL    HW163625   7.784   4.884   4.065  0.1585 -0.0141  1.4597
20803SOL    HW263626   7.707   5.001   4.123  0.7574  1.5207 -0.7042
20804SOL     OW63627   7.693   4.139   4.512 -0.3295  0.3682  0.0893
20804SOL    HW163628   7.741   4.168   4.589  2.4648  0.5634 -1.5769
20804SOL    HW263629   7.739   4.059   4.484 -1.4214  0.1589 -1.2176
20805SOL     OW63630   8.456   5.227   4.075  0.6040 -0.0856  0.8264
20805SOL    HW163631   8.469   5.132   4.069  0.1224 -0.2424  1.9236
20805SOL    HW263632   8.389   5.247   4.010  1.7472 -0.2447 -0.4547
20806SOL     OW63633   7.615   4.530   5.342 -0.2281  0.3334  0.2783
20806SOL    HW163634   7.643   4.544   5.433 -2.0678  0.0859  0.9401
20806SOL    HW263635   7.539   4.473   5.350  1.5119 -2.4827 -1.6833
20807SOL     OW63636   0.336   4.570   3.800  0.0517 -0.2394 -0.3533
20807SOL    HW163637   0.254   4.555   3.753 -0.1017  0.4184 -0.2980
20807SOL    HW263638   0.401   4.522   3.749 -0.5905 -2.0613  0.4465
20808SOL     OW63639   7.746   5.231   4.811 -0.4829 -0.3061  0.8048
20808SOL    HW163640   7.841   5.230   4.820 -0.0011 -1.6977 -2.7400
20808SOL    HW263641   7.723   5.324   4.810  0.9566  0.0737  0.8315
20809SOL     OW63642   8.423   4.319   4.135  0.3268  0.1234  0.1822
20809SOL    HW163643   8.461   4.269   4.062  1.3087 -0.5019  1.1008
20809SOL    HW263644   8.498   4.365   4.173  0.0018 -0.3571  1.4228
20810SOL     OW63645   8.228   4.230   4.956 -1.2347  0.5793  0.4288
20810SOL    HW163646   8.221   4.146   4.910  0.6600  1.6736 -2.1057
20810SOL    HW263647   8.167   4.288   4.910 -0.3128  1.3500  0.1453
20811SOL     OW63648   8.002   5.230   4.538  0.4688  0.7134  0.1688
20811SOL    HW163649   7.917   5.189   4.555 -0.0727  2.1509  1.1463
20811SOL    HW263650   8.060   5.158   4.514 -0.6581 -0.4779  0.9416
20812SOL     OW63651   7.099   4.872   4.091 -0.3471 -0.1530 -0.3041
20812SOL    HW163652   7.103   4.780   4.066  0.2246 -0.6343  1.4348
20812SOL    HW263653   7.098   4.919   4.008  2.3686 -1.5898 -1.2779
20813SOL     OW63654   7.747   4.930   5.589  0.0721  0.0208  0.3641
20813SOL    HW163655   7.681   4.862   5.583  0.8478 -0.6397 -0.9523
20813SOL    HW263656   7.751   4.969   5.502  0.7813  0.6579  0.6617
20814SOL     OW63657   8.116   3.966   5.184  0.4503 -0.2043  0.3644
20814SOL    HW163658   8.187   4.023   5.214  0.4407  1.0940 -1.8773
20814SOL    HW263659   8.061   3.953   5.262  1.3875  1.4440  1.3547
20815SOL     OW63660   7.242   3.983   4.329  0.3298  0.0189  0.0729
20815SOL    HW163661   7.291   4.028   4.398 -0.3366 -0.8012  1.1205
20815SOL    HW263662   7.161   4.033   4.322  0.3535  0.0403 -0.0439
20816SOL     OW63663   8.639   4.320   4.933 -0.0063  0.0340  0.5406
20816SOL    HW163664   8.722   4.343   4.974  1.3653 -1.3755 -1.2587
20816SOL    HW263665   8.652   4.339   4.840 -2.6055  2.0964  0.4981
20817SOL     OW63666   7.447   3.641   3.782  0.6778 -0.1783  0.8201
20817SOL    HW163667   7.446   3.560   3.730  0.6261 -0.3473  1.0832
20817SOL    HW263668   7.502   3.701   3.731 -1.5687  0.6070 -0.8293
20818SOL     OW63669   8.665   4.682   3.696 -0.2741 -0.4558 -0.2086
20818SOL    HW163670   8.630   4.633   3.770 -1.0260 -0.5519 -0.6086
20818SOL    HW263671   8.734   4.627   3.661 -0.7522 -0.9943 -0.3276
20819SOL     OW63672   8.011   4.367   4.871  0.1714  0.0587  0.1135
20819SOL    HW163673   7.993   4.326   4.955  0.9939  1.8286  1.2163
20819SOL    HW263674   7.925   4.379   4.831 -0.3728  0.5459  1.3869
20820SOL     OW63675   7.811   4.233   5.375  0.4482  0.9153 -0.1110
20820SOL    HW163676   7.865   4.305   5.408  0.3609  0.0926  1.9727
20820SOL    HW263677   7.721   4.266   5.381  0.5069  1.2327 -0.8238
20821SOL     OW63678   0.298   5.190   5.314 -0.1700  0.2200  0.3587
20821SOL    HW163679   0.292   5.267   5.257 -0.7842  0.0641  0.2069
20821SOL    HW263680   0.221   5.197   5.372 -0.6342 -0.6562 -0.1371
20822SOL     OW63681   7.728   5.866   5.248  0.2668  0.5524  0.3305
20822SOL    HW163682   7.656   5.828   5.299 -0.3682  1.1601 -0.1089
20822SOL    HW263683   7.798   5.878   5.312  0.0251 -0.1525  0.7401
20823SOL     OW63684   0.051   3.432   3.722  0.1935  0.4189 -0.4911
20823SOL    HW163685   0.061   3.373   3.797 -0.3384 -0.6168 -1.2005
20823SOL    HW263686   0.123   3.494   3.729  0.0147  0.4865  1.0000
20824SOL     OW63687   8.040   4.625   3.951  0.3016  0.5097  0.2173
20824SOL    HW163688   8.044   4.550   3.892 -0.7486  0.6978 -0.1263
20824SOL    HW263689   8.103   4.687   3.916  1.1907 -0.2023  0.5129
20825SOL     OW63690   8.665   4.866   3.492 -0.2194  0.2415  0.4463
20825SOL    HW163691   8.657   4.803   3.563  0.7573 -1.1707 -0.6619
20825SOL    HW263692   8.705   4.818   3.421 -0.1476  1.9228 -0.7100
20826SOL     OW63693   8.252   5.496   4.825  0.4129  0.3066 -0.4189
20826SOL    HW163694   8.276   5.407   4.852  0.8626  0.4118 -0.4637
20826SOL    HW263695   8.218   5.486   4.736 -0.6133  0.0251 -0.0191
20827SOL     OW63696   8.620   4.112   4.321  0.8191  0.0869 -0.2490
20827SOL    HW163697   8.541   4.080   4.277 -0.5602 -0.8643  2.6464
20827SOL    HW263698   8.589   4.183   4.378  2.4448  1.0384 -0.4799
20828SOL     OW63699   0.024   4.535   3.574 -0.5298  0.1120  0.3906
20828SOL    HW163700   0.043   4.515   3.482  0.4823 -0.1330  0.6392
20828SOL    HW263701   0.031   4.450   3.618  0.9618  0.5129  0.9919
20829SOL     OW63702   7.871   5.331   5.469  0.2205  0.2661  0.4338
20829SOL    HW163703   7.899   5.284   5.391 -0.5994 -1.5800  1.1847
20829SOL    HW263704   7.951   5.344   5.521  0.6781  1.0418 -0.4357
20830SOL     OW63705   7.827   5.032   4.644 -0.2649  0.6070  0.1580
20830SOL    HW163706   7.779   5.074   4.715 -1.3918 -0.2614 -0.0740
20830SOL    HW263707   7.764   5.028   4.572  0.2686 -0.2285 -0.2744
20831SOL     OW63708   7.680   5.512   4.783 -0.1104 -0.4775 -0.0334
20831SOL    HW163709   7.731   5.544   4.708 -0.2773 -1.1368 -0.4393
20831SOL    HW263710   7.592   5.546   4.768  0.2531  0.8541  0.7879
20832SOL     OW63711   7.816   4.415   4.530  0.2206  0.7719  1.0200
20832SOL    HW163712   7.765   4.488   4.496 -1.0043 -0.2665  0.5443
20832SOL    HW263713   7.878   4.395   4.460 -1.8224 -0.9008 -0.4612
20833SOL     OW63714   7.939   4.208   5.066 -0.0686  0.3729  0.0336
20833SOL    HW163715   7.884   4.234   5.139  0.5895  0.4446  0.5110
20833SOL    HW263716   7.992   4.136   5.100 -1.4831 -1.2849 -1.1048
20834SOL     OW63717   8.087   5.466   4.578  0.3141 -0.0301 -0.1144
20834SOL    HW163718   8.025   5.505   4.516  1.2125 -0.2346 -1.1829
20834SOL    HW263719   8.071   5.372   4.572  0.0272 -0.0087  0.3683
20835SOL     OW63720   0.004   3.822   4.712  0.5419  0.4019  0.3798
20835SOL    HW163721  -0.063   3.853   4.651  0.5137  1.1077  0.7646
20835SOL    HW263722   0.084   3.867   4.686  0.4226  1.0838  1.1631
20836SOL     OW63723   8.769   3.440   4.851  0.4523  0.0263 -0.1571
20836SOL    HW163724   8.685   3.484   4.840  0.9846  0.4298 -3.8769
20836SOL    HW263725   8.746   3.351   4.880 -1.2377  0.1832 -0.8989
20837SOL     OW63726   8.461   4.713   4.321  0.2261  0.5593 -0.2461
20837SOL    HW163727   8.464   4.621   4.345  1.1164  0.7129  0.2756
20837SOL    HW263728   8.368   4.735   4.320  0.0726  0.0861  1.3316
20838SOL     OW63729   7.887   5.550   5.132  0.7605  0.2092 -0.6365
20838SOL    HW163730   7.828   5.600   5.076  2.0210  0.4959 -1.7807
20838SOL    HW263731   7.860   5.572   5.222 -0.7175  0.4565 -1.1231
20839SOL     OW63732   8.766   3.234   3.953  0.2414  0.5858 -0.1785
20839SOL    HW163733   8.727   3.177   3.887 -0.6218  1.2559 -0.2601
20839SOL    HW263734   8.858   3.207   3.956  0.6316  1.3899 -2.5775
20840SOL     OW63735   7.747   4.661   4.054  0.0444  0.2863  0.7220
20840SOL    HW163736   7.828   4.626   4.017  0.4030  0.0456  1.6815
20840SOL    HW263737   7.686   4.587   4.051 -0.0544  0.3840  0.2606
20841SOL     OW63738   8.450   5.290   4.354  0.1405 -0.5680  0.2566
20841SOL    HW163739   8.544   5.282   4.365  0.1736 -2.6669 -1.0202
20841SOL    HW263740   8.436   5.284   4.260 -1.2844 -0.3723  0.4255
20842SOL     OW63741   7.321   4.221   5.575  0.0184 -0.1059  0.4241
20842SOL    HW163742   7.231   4.199   5.549 -0.7556  1.7651  1.2850
20842SOL    HW263743   7.332   4.176   5.659  1.0813 -2.8727 -1.0729
20843SOL     OW63744   7.632   4.090   6.357 -0.3010 -0.1839 -0.6166
20843SOL    HW163745   7.636   4.183   6.377  1.2720 -0.5181  0.7720
20843SOL    HW263746   7.712   4.072   6.308 -0.0061 -1.0125  0.1341
20844SOL     OW63747   7.198   4.354   6.292 -0.0835 -0.2447 -0.3213
20844SOL    HW163748   7.274   4.296   6.302  0.6596  0.9189  1.1121
20844SOL    HW263749   7.171   4.372   6.381 -0.6021  1.2296 -0.7595
20845SOL     OW63750   8.139   5.240   7.071 -0.6435  0.1267 -0.1006
20845SOL    HW163751   8.215   5.293   7.096 -0.4181  0.1124 -0.7472
20845SOL    HW263752   8.106   5.281   6.991 -0.7341 -0.4418 -0.3601
20846SOL     OW63753   8.635   5.388   6.599  0.2141 -0.4545 -0.0671
20846SOL    HW163754   8.693   5.313   6.598  1.1030  0.1917  1.0589
20846SOL    HW263755   8.693   5.464   6.601 -0.6603  0.2343  0.0741
20847SOL     OW63756   0.008   4.751   5.726 -0.1094  0.0342 -0.2442
20847SOL    HW163757  -0.057   4.711   5.669  1.0680 -0.0484 -1.6076
20847SOL    HW263758  -0.008   4.713   5.812 -1.1782 -0.7753 -0.7820
20848SOL     OW63759   0.003   5.171   6.836  0.2575  0.0137 -0.1583
20848SOL    HW163760  -0.041   5.158   6.752  1.1943  0.0008 -0.6516
20848SOL    HW263761  -0.054   5.232   6.883 -1.9573 -2.3720  0.4989
20849SOL     OW63762   7.842   4.498   7.502  0.1680  0.0567 -0.1035
20849SOL    HW163763   7.774   4.470   7.563  0.0771  0.3328 -0.0726
20849SOL    HW263764   7.802   4.571   7.455  0.6316  0.5841  0.3065
20850SOL     OW63765   8.702   4.650   5.539  1.5502 -0.3014 -0.4302
20850SOL    HW163766   8.625   4.596   5.521  1.8510 -0.2693 -1.9542
20850SOL    HW263767   8.755   4.642   5.460  2.3228  1.0123 -0.0659
20851SOL     OW63768   8.124   4.979   7.201 -0.0253 -0.0952 -0.0524
20851SOL    HW163769   8.055   4.938   7.253  0.5354  0.7111  1.3853
20851SOL    HW263770   8.085   5.060   7.168 -0.1386 -0.2076 -0.1879
20852SOL     OW63771   8.388   4.881   6.272  0.2542  0.1834 -0.6603
20852SOL    HW163772   8.395   4.792   6.307  1.9642  0.6030  0.2211
20852SOL    HW263773   8.438   4.879   6.191 -0.1069  0.2193 -0.8813
20853SOL     OW63774   7.646   4.104   7.182 -0.2970 -0.2277  0.1327
20853SOL    HW163775   7.707   4.031   7.178 -0.2558 -0.1154 -2.1553
20853SOL    HW263776   7.680   4.160   7.253  0.7911 -1.4082  0.5635
20854SOL     OW63777   8.006   5.175   6.084  0.0537 -0.2949 -0.2094
20854SOL    HW163778   8.063   5.136   6.018 -0.2873 -0.9298 -0.1376
20854SOL    HW263779   7.932   5.115   6.090 -0.2447  0.1139  0.2613
20855SOL     OW63780   8.798   4.715   7.202 -0.0381 -0.4479 -0.1512
20855SOL    HW163781   8.762   4.663   7.130  0.7226  0.1222 -0.9608
20855SOL    HW263782   8.766   4.804   7.187 -0.8582 -0.5406  0.9029
20856SOL     OW63783   7.659   5.537   5.994  0.2939  0.1905 -0.0104
20856SOL    HW163784   7.697   5.471   5.936  0.5561  0.7211 -0.4527
20856SOL    HW263785   7.576   5.500   6.022 -1.4578  1.2777 -3.3360
20857SOL     OW63786   8.091   4.866   6.387 -0.0259 -0.3598  0.2634
20857SOL    HW163787   8.046   4.944   6.420  1.6631 -0.0007  1.8935
20857SOL    HW263788   8.093   4.878   6.292 -1.1753  0.8004  0.3576
20858SOL     OW63789   8.308   5.601   7.119  0.0217 -0.1839 -0.3189
20858SOL    HW163790   8.245   5.663   7.082  0.1002  0.6202  0.8603
20858SOL    HW263791   8.341   5.644   7.197  1.7609 -0.7614 -0.6988
20859SOL     OW63792   7.875   4.656   5.306 -0.1977  0.1512  0.0844
20859SOL    HW163793   7.875   4.737   5.256 -1.9695  0.4676  0.5266
20859SOL    HW263794   7.788   4.619   5.292  0.8694 -2.2163 -0.8986
20860SOL     OW63795   7.578   4.528   6.244  0.1446  0.0918  0.5500
20860SOL    HW163796   7.505   4.552   6.187  0.8310  0.7652 -0.0706
20860SOL    HW263797   7.655   4.537   6.188  0.6289 -1.6976  0.8449
20861SOL     OW63798   7.724   4.997   6.045  0.0019  0.3501 -0.0066
20861SOL    HW163799   7.630   5.009   6.060 -0.0653 -1.3132  1.1182
20861SOL    HW263800   7.730   4.972   5.953 -0.7977 -0.7118  0.2129
20862SOL     OW63801   0.505   4.288   6.220  0.2821 -0.6120 -0.1351
20862SOL    HW163802   0.484   4.195   6.225 -0.6101 -0.4157 -0.0852
20862SOL    HW263803   0.424   4.333   6.244  0.6966  0.1817 -0.1683
20863SOL     OW63804   7.358   4.344   7.219 -0.4379  0.4377  0.0418
20863SOL    HW163805   7.291   4.283   7.250 -0.4578  0.0278 -0.7688
20863SOL    HW263806   7.312   4.402   7.159 -0.2481  0.7263  0.1733
20864SOL     OW63807   8.158   5.084   5.890  0.1216  0.5149 -0.6310
20864SOL    HW163808   8.249   5.093   5.917  0.6127  3.0411 -2.7256
20864SOL    HW263809   8.159   5.104   5.796 -2.6775  1.3923 -0.5591
20865SOL     OW63810   0.070   4.898   6.882  0.3432  0.2912 -0.4159
20865SOL    HW163811  -0.021   4.868   6.879  0.3767  0.2231 -2.5937
20865SOL    HW263812   0.067   4.986   6.843  1.2147  0.2708 -0.5504
20866SOL     OW63813   8.174   4.228   5.823  0.3218 -0.1580 -0.1621
20866SOL    HW163814   8.257   4.251   5.782  0.3426 -0.8748 -0.5385
20866SOL    HW263815   8.173   4.132   5.824  0.3391 -0.1738  1.5588
20867SOL     OW63816   8.219   4.995   6.680 -0.0228 -0.3918  0.7480
20867SOL    HW163817   8.259   4.987   6.767  0.0182 -1.6350  0.6381
20867SOL    HW263818   8.222   4.906   6.645  1.2009  0.3092 -1.0732
20868SOL     OW63819   8.680   5.367   6.920  0.6193 -0.6980 -0.5372
20868SOL    HW163820   8.612   5.435   6.916  1.4981  0.4078  1.7915
20868SOL    HW263821   8.695   5.353   7.013  2.0421 -2.5221 -0.9859
20869SOL     OW63822   7.857   4.247   7.358  0.9410  0.0685 -0.0852
20869SOL    HW163823   7.876   4.337   7.385  1.6731 -0.0548 -0.1663
20869SOL    HW263824   7.928   4.224   7.298  0.5679 -0.4432 -0.3371
20870SOL     OW63825   7.937   4.439   5.486  0.0673  0.1531 -0.1665
20870SOL    HW163826   7.969   4.512   5.434  0.2076 -1.0566 -1.8476
20870SOL    HW263827   8.013   4.411   5.538 -0.1400  1.5111  0.9341
20871SOL     OW63828   0.239   4.337   6.202 -0.1882  0.0875  0.0622
20871SOL    HW163829   0.246   4.300   6.114  0.6658  0.1158  0.1122
20871SOL    HW263830   0.209   4.265   6.257  1.5273 -0.5971  0.1730
20872SOL     OW63831   8.244   4.727   6.564  0.7381  0.0532  0.2742
20872SOL    HW163832   8.190   4.768   6.497  0.5872  1.7392  1.3670
20872SOL    HW263833   8.318   4.690   6.517 -1.1366 -2.0798 -1.2363
20873SOL     OW63834   8.586   3.978   7.083 -0.2341  0.1061 -0.1263
20873SOL    HW163835   8.619   3.908   7.027  0.1086  0.6099 -0.5653
20873SOL    HW263836   8.616   3.955   7.171  0.6635  0.1747 -0.4081
20874SOL     OW63837   8.453   4.195   7.188 -0.3622  0.4532  0.1554
20874SOL    HW163838   8.407   4.232   7.112 -3.0359 -1.8393  0.4807
20874SOL    HW263839   8.500   4.120   7.153 -1.2263 -0.3332  0.6240
20875SOL     OW63840   8.782   4.299   6.383 -0.2298  0.1367 -0.2457
20875SOL    HW163841   8.696   4.297   6.425 -0.0972  0.7091  0.0755
20875SOL    HW263842   8.764   4.314   6.291 -0.6242 -2.9498 -0.7707
20876SOL     OW63843   8.131   4.562   5.639  0.4456  0.3806  0.4585
20876SOL    HW163844   8.109   4.649   5.606 -2.0138 -0.6041 -0.7474
20876SOL    HW263845   8.068   4.546   5.709  0.4449 -0.6640  0.2358
20877SOL     OW63846   7.629   4.350   6.433  0.4641 -0.8506 -0.2877
20877SOL    HW163847   7.576   4.374   6.508 -0.4100 -2.7006 -0.2468
20877SOL    HW263848   7.591   4.398   6.359 -0.6367 -1.3487 -0.0699
20878SOL     OW63849   7.222   5.286   7.026 -0.2250  0.8662  0.6136
20878SOL    HW163850   7.159   5.223   6.990  1.4921 -0.0565 -1.0000
20878SOL    HW263851   7.188   5.372   7.001 -0.6321  0.3623 -0.6697
20879SOL     OW63852   8.183   3.720   5.558  0.0890  0.6868 -0.1579
20879SOL    HW163853   8.230   3.802   5.572  1.3191  0.0635 -0.4785
20879SOL    HW263854   8.091   3.744   5.564  0.4153  1.6891  2.1096
20880SOL     OW63855   0.169   5.210   5.942 -0.1989 -0.2902  0.8189
20880SOL    HW163856   0.143   5.120   5.923  2.8100 -0.9111 -0.9796
20880SOL    HW263857   0.163   5.254   5.857  0.3555  0.6549  1.2536
20881SOL     OW63858   8.084   3.901   6.507  0.2052  0.4937  0.2020
20881SOL    HW163859   8.002   3.939   6.538 -1.2600 -1.6115 -0.8916
20881SOL    HW263860   8.086   3.918   6.413  0.7141  0.0015  0.1125
20882SOL     OW63861   8.382   5.381   5.871  0.5587 -0.0206  0.0800
20882SOL    HW163862   8.421   5.353   5.954 -0.7509 -1.7896  0.1439
20882SOL    HW263863   8.375   5.477   5.879  0.8818 -0.1129  1.8161
20883SOL     OW63864   7.951   5.456   6.115  0.1584 -0.2349 -0.4888
20883SOL    HW163865   7.949   5.361   6.104  0.3371 -0.3450  0.3357
20883SOL    HW263866   7.883   5.489   6.057 -1.6022 -1.0611  0.9833
20884SOL     OW63867   8.399   5.344   7.109  0.2785 -0.3895  0.5122
20884SOL    HW163868   8.378   5.437   7.104  0.7446 -0.3379 -1.2328
20884SOL    HW263869   8.481   5.341   7.158  0.1947  0.1018  0.6917
20885SOL     OW63870   7.745   4.762   5.873 -0.1228 -0.4936 -0.1827
20885SOL    HW163871   7.783   4.763   5.785  0.4005  0.3751  0.0428
20885SOL    HW263872   7.733   4.669   5.893 -0.0534 -0.7072 -1.0815
20886SOL     OW63873   7.777   5.002   6.977 -0.1081  0.3047 -0.2053
20886SOL    HW163874   7.828   5.029   6.900  1.1120  0.4077  0.6112
20886SOL    HW263875   7.788   4.907   6.981  0.8898  0.4347  0.5427
20887SOL     OW63876   8.779   5.617   5.480 -0.3444  0.0840 -0.0817
20887SOL    HW163877   8.731   5.534   5.478  0.4298 -0.3846 -2.3306
20887SOL    HW263878   8.735   5.672   5.415 -0.8308  1.4860  1.3588
20888SOL     OW63879   7.730   3.841   6.879 -0.3632 -0.1324 -0.3417
20888SOL    HW163880   7.793   3.769   6.882  1.8503  1.6964  2.4208
20888SOL    HW263881   7.657   3.812   6.933 -0.2207 -0.8665 -0.5368
20889SOL     OW63882   7.759   5.375   5.786 -0.5313 -0.5074 -0.4505
20889SOL    HW163883   7.843   5.373   5.740 -0.9712 -1.7695 -1.2452
20889SOL    HW263884   7.701   5.322   5.733 -1.5197 -0.6480  0.7210
20890SOL     OW63885   7.780   5.500   6.695 -0.3609  0.5212 -0.4644
20890SOL    HW163886   7.827   5.492   6.612 -0.3400  1.2725 -0.5352
20890SOL    HW263887   7.730   5.419   6.703 -0.7340  0.6407 -1.4472
20891SOL     OW63888   8.738   5.436   5.859 -1.1734 -0.0011 -0.0618
20891SOL    HW163889   8.738   5.381   5.937 -0.9258  1.0750  0.7191
20891SOL    HW263890   8.701   5.519   5.888 -1.4657  0.2792 -1.1958
20892SOL     OW63891   7.817   4.531   6.092  0.5297  0.2943  0.3792
20892SOL    HW163892   7.834   4.518   5.999  0.9979  1.5560  0.2679
20892SOL    HW263893   7.888   4.486   6.136  0.6497  0.2130  0.1042
20893SOL     OW63894   7.962   3.883   5.609  0.3376  0.2463 -0.5161
20893SOL    HW163895   7.899   3.818   5.641  0.9907 -0.3815 -0.4810
20893SOL    HW263896   7.967   3.948   5.678 -0.2248  0.2667 -0.4925
20894SOL     OW63897   7.887   3.607   6.912  0.0357 -0.7158  0.4943
20894SOL    HW163898   7.955   3.636   6.973 -1.3891  0.3611  1.6402
20894SOL    HW263899   7.935   3.561   6.843  1.9630  0.4047  1.0091
20895SOL     OW63900   8.189   5.277   6.707  0.0397 -0.0229  0.1721
20895SOL    HW163901   8.213   5.185   6.716 -0.3288 -0.0560  0.8728
20895SOL    HW263902   8.273   5.323   6.701  0.2513 -0.2927  0.9967
20896SOL     OW63903   8.430   4.500   6.963 -0.6272 -0.1643 -0.3580
20896SOL    HW163904   8.387   4.584   6.949 -0.7830 -0.2855 -0.6064
20896SOL    HW263905   8.427   4.456   6.878 -1.9618 -1.0827  0.1234
20897SOL     OW63906   8.429   5.196   6.120  0.1326  0.6677 -0.3559
20897SOL    HW163907   8.434   5.109   6.081 -0.7623  0.4038  0.1106
20897SOL    HW263908   8.485   5.192   6.197  0.0137  0.4756 -0.2810
20898SOL     OW63909   8.555   4.587   5.814  0.1146  0.2525  0.4011
20898SOL    HW163910   8.481   4.637   5.779  0.3639 -0.1405 -0.7221
20898SOL    HW263911   8.605   4.561   5.737  1.2560  0.2368  1.1301
20899SOL     OW63912   8.195   4.433   6.060  0.2651  0.1381  0.8419
20899SOL    HW163913   8.285   4.414   6.036 -0.1766 -0.8576 -0.1470
20899SOL    HW263914   8.146   4.425   5.977 -1.0155 -1.3205  1.6769
20900SOL     OW63915   0.271   5.080   5.044  0.2100  0.5603  0.2920
20900SOL    HW163916   0.262   5.134   5.123  1.1100  0.6255  0.3701
20900SOL    HW263917   0.347   5.117   4.999  1.5229 -1.2728  0.8873
20901SOL     OW63918   7.784   3.877   6.072 -0.1351  0.8169  0.1887
20901SOL    HW163919   7.724   3.951   6.060 -0.3172  1.0168  2.0018
20901SOL    HW263920   7.791   3.868   6.167 -0.7889 -2.0380  0.0524
20902SOL     OW63921   8.688   3.985   5.954  0.0750 -0.1423  0.2813
20902SOL    HW163922   8.766   3.977   6.010 -0.9227 -0.6953  1.6427
20902SOL    HW263923   8.722   4.013   5.869  2.1458 -3.3114 -0.1097
20903SOL     OW63924   8.182   4.645   7.238 -0.3357 -0.3437 -0.2805
20903SOL    HW163925   8.088   4.653   7.225 -0.9241  0.3959  3.3896
20903SOL    HW263926   8.191   4.599   7.321  2.4248  2.1301  0.9897
20904SOL     OW63927   8.515   5.176   5.686 -0.7591  0.3053  0.9648
20904SOL    HW163928   8.567   5.115   5.737  0.2214 -0.0734 -0.4194
20904SOL    HW263929   8.462   5.223   5.750 -1.5924 -2.0212  2.0552
20905SOL     OW63930   7.945   4.790   6.118  0.3514 -0.5011 -0.5725
20905SOL    HW163931   7.926   4.717   6.178 -0.0693  0.3211  0.3321
20905SOL    HW263932   7.872   4.790   6.056  0.4416 -0.9554 -0.6769
20906SOL     OW63933   8.683   5.617   6.053  0.2468  0.3349  0.2097
20906SOL    HW163934   8.679   5.713   6.059 -1.3950  0.2165  2.1739
20906SOL    HW263935   8.611   5.587   6.109  0.2011 -2.0510 -1.0192
20907SOL     OW63936   8.436   4.256   5.115 -0.5818 -0.9081  0.2463
20907SOL    HW163937   8.490   4.242   5.036 -0.0526 -2.2936  0.8075
20907SOL    HW263938   8.356   4.296   5.082  0.3357  0.1813 -0.7619
20908SOL     OW63939   7.846   4.166   6.937 -0.2284  0.5586 -0.1852
20908SOL    HW163940   7.907   4.162   7.011 -1.2960  0.2644  0.7032
20908SOL    HW263941   7.769   4.117   6.966 -0.8518  0.8199 -1.3248
20909SOL     OW63942   8.116   3.882   6.858 -0.4758  0.4140  0.1459
20909SOL    HW163943   8.192   3.865   6.801 -1.7181 -2.8770 -0.7641
20909SOL    HW263944   8.055   3.929   6.802 -0.6228 -0.4334 -0.4336
20910SOL     OW63945   7.969   4.401   5.844 -0.2239 -0.4954 -0.8833
20910SOL    HW163946   7.878   4.393   5.817 -0.1648  0.1747 -1.3015
20910SOL    HW263947   8.012   4.325   5.806 -0.3650 -0.1455 -1.7546
20911SOL     OW63948   8.274   3.957   5.835  0.4644  0.1651  0.4483
20911SOL    HW163949   8.304   3.949   5.745 -1.5087  0.5733 -0.2940
20911SOL    HW263950   8.253   3.868   5.862  1.7472 -0.0560  0.7999
20912SOL     OW63951   8.451   5.310   5.423  0.3753 -0.1782 -0.0442
20912SOL    HW163952   8.406   5.226   5.433 -0.3976  0.2795  0.3699
20912SOL    HW263953   8.456   5.324   5.329 -1.6887  0.4668 -0.0996
20913SOL     OW63954   0.012   3.756   5.400 -0.2995  0.2341  0.3036
20913SOL    HW163955  -0.039   3.764   5.481 -0.5176 -0.7692  0.2710
20913SOL    HW263956  -0.014   3.672   5.363  1.9503 -0.7133  0.7088
20914SOL     OW63957   7.881   4.155   5.673  0.2607 -0.0422 -0.2797
20914SOL    HW163958   7.875   4.231   5.615 -0.8108  0.2043  0.1231
20914SOL    HW263959   7.792   4.119   5.675  0.1094  0.3364  1.6852
20915SOL     OW63960   0.167   5.191   7.423  0.1423  0.0509  0.1486
20915SOL    HW163961   0.110   5.117   7.402  0.4218 -0.7483  2.0397
20915SOL    HW263962   0.246   5.151   7.459 -0.2166  1.2570  2.4522
20916SOL     OW63963   8.737   5.138   6.584 -0.3788 -0.1311  0.2333
20916SOL    HW163964   8.823   5.136   6.542 -0.4267  0.1419  0.1216
20916SOL    HW263965   8.695   5.056   6.558 -0.3472 -0.0358 -0.1215
20917SOL     OW63966   8.047   3.713   7.100 -0.4390 -0.0710  0.1913
20917SOL    HW163967   8.083   3.760   7.024  0.9297 -2.0993 -0.5105
20917SOL    HW263968   8.075   3.765   7.175 -0.2078  1.0033 -0.6133
20918SOL     OW63969   8.323   4.249   7.426 -0.1779 -0.2414 -0.4737
20918SOL    HW163970   8.267   4.176   7.450  0.1846 -0.5979 -0.7068
20918SOL    HW263971   8.362   4.224   7.342  0.6668 -0.1971 -0.1112
20919SOL     OW63972   8.012   4.849   5.650  0.2705  0.0989  0.3774
20919SOL    HW163973   7.918   4.867   5.647  0.5003  1.4021 -0.4112
20919SOL    HW263974   8.037   4.862   5.741 -0.1085  1.0607  0.3569
20920SOL     OW63975   7.911   4.650   6.383 -0.3683  0.8263  0.7263
20920SOL    HW163976   7.963   4.729   6.396  0.9805  0.0760  0.0436
20920SOL    HW263977   7.972   4.586   6.347 -2.2074  0.5280 -2.2232
20921SOL     OW63978   8.018   4.370   6.760 -0.2641  0.1109 -0.2431
20921SOL    HW163979   8.058   4.455   6.779 -0.3892 -0.1683  1.4834
20921SOL    HW263980   8.040   4.316   6.836 -1.8722 -0.7750 -0.3521
20922SOL     OW63981   7.742   5.478   6.982 -0.3181 -0.1269 -0.0112
20922SOL    HW163982   7.775   5.473   6.892  2.4706  1.6070  0.8042
20922SOL    HW263983   7.720   5.388   7.004 -0.4318 -0.6881 -2.1891
20923SOL     OW63984   7.786   5.034   6.349  0.2074  0.1281 -0.1799
20923SOL    HW163985   7.857   5.079   6.394  0.9386 -0.3158 -0.8459
20923SOL    HW263986   7.796   5.059   6.257 -0.3843 -0.0865 -0.3087
20924SOL     OW63987   8.453   4.928   5.992  0.0848  0.2626 -0.3761
20924SOL    HW163988   8.448   4.833   5.993 -2.4170  0.1837 -3.3991
20924SOL    HW263989   8.516   4.949   5.923 -0.4916  0.7240 -0.7834
20925SOL     OW63990   0.112   5.348   5.711 -0.1859 -0.3797 -0.1671
20925SOL    HW163991   0.141   5.422   5.657  2.7931 -0.1608  1.5067
20925SOL    HW263992   0.031   5.378   5.752  1.2878  2.3370  1.0158
20926SOL     OW63993   0.246   5.185   6.736  0.1579  0.0450 -0.2312
20926SOL    HW163994   0.229   5.167   6.643  0.9331 -0.1688 -0.3385
20926SOL    HW263995   0.159   5.190   6.775 -0.1718 -0.2391 -0.8988
20927SOL     OW63996   7.997   5.388   6.865 -0.0292  0.1910  0.4307
20927SOL    HW163997   8.053   5.359   6.793 -0.8311  0.3164 -0.2646
20927SOL    HW263998   8.017   5.482   6.874 -0.5827  0.3867 -0.2594
20928SOL     OW63999   7.733   4.322   6.725 -0.8819 -0.3706 -0.3563
20928SOL    HW164000   7.730   4.330   6.820 -2.7110 -0.1393 -0.3827
20928SOL    HW264001   7.825   4.336   6.702 -0.5985  0.7600  1.2754
20929SOL     OW64002   8.074   4.175   7.137 -0.1774  0.1153  0.2896
20929SOL    HW164003   8.106   4.265   7.150  0.8940 -0.4250  1.8435
20929SOL    HW264004   8.127   4.141   7.065  0.1656  0.4033  0.3999
20930SOL     OW64005   7.758   4.018   7.480 -0.4247 -0.3419 -0.1476
20930SOL    HW164006   7.705   4.060   7.548 -0.4670  2.2380 -1.6256
20930SOL    HW264007   7.813   4.089   7.446 -0.5917 -1.4401 -2.9597
20931SOL     OW64008   7.589   4.813   6.343  0.4762 -0.1202 -0.0234
20931SOL    HW164009   7.646   4.741   6.370 -0.1064 -0.9273 -0.8732
20931SOL    HW264010   7.648   4.885   6.325  1.0866 -0.4323  0.6795
20932SOL     OW64011   8.652   4.628   6.677  0.1567  0.3143  0.0286
20932SOL    HW164012   8.599   4.549   6.686 -1.2268  1.2385  0.3126
20932SOL    HW264013   8.742   4.597   6.686 -0.4048 -0.8359  3.6247
20933SOL     OW64014   8.832   4.543   5.971  0.9538  0.2723  0.6073
20933SOL    HW164015   8.805   4.452   5.959 -1.2577  0.9516 -0.1611
20933SOL    HW264016   8.924   4.538   5.995  0.6481 -2.2095  1.5561
20934SOL     OW64017   7.326   3.965   6.771 -0.0750 -0.0466  0.0052
20934SOL    HW164018   7.341   3.874   6.747 -1.1751  0.0952 -1.3277
20934SOL    HW264019   7.413   4.004   6.779  0.3935 -0.4459 -2.5237
20935SOL     OW64020   7.518   5.235   6.931 -0.3409 -0.2399  0.1528
20935SOL    HW164021   7.569   5.217   7.010  0.3698  3.2394  0.6633
20935SOL    HW264022   7.426   5.230   6.960 -0.1683 -1.1748  0.5888
20936SOL     OW64023   8.423   5.042   6.466 -0.1927 -0.0544 -0.2475
20936SOL    HW164024   8.346   5.043   6.522 -0.2001 -0.5637 -0.2435
20936SOL    HW264025   8.402   4.979   6.397  0.1151  0.0047 -0.3975
20937SOL     OW64026   7.894   4.221   6.040 -0.0224  0.1292 -0.0933
20937SOL    HW164027   7.840   4.162   5.989 -1.3415  1.9779 -0.9117
20937SOL    HW264028   7.940   4.274   5.976  0.0951  0.9129  0.6150
20938SOL     OW64029   0.214   4.040   5.653  0.2632  0.7564  0.0466
20938SOL    HW164030   0.292   3.985   5.652  0.1532  0.6028 -0.0625
20938SOL    HW264031   0.215   4.084   5.568 -0.1705  0.1917 -0.2501
20939SOL     OW64032   8.463   4.373   5.954 -0.0910  0.0197 -0.3537
20939SOL    HW164033   8.491   4.452   5.906  0.8740 -0.5785 -0.7988
20939SOL    HW264034   8.438   4.311   5.885  2.5121 -1.3043 -0.2055
20940SOL     OW64035   8.391   5.435   7.417 -0.2563 -0.1113  0.5101
20940SOL    HW164036   8.379   5.524   7.383 -2.9682 -0.7945 -0.5883
20940SOL    HW264037   8.311   5.418   7.467  0.6411 -1.6348  1.5053
20941SOL     OW64038   7.685   4.483   7.083 -0.3792  0.1465  0.4768
20941SOL    HW164039   7.654   4.433   7.008  0.7281  1.7525 -1.1363
20941SOL    HW264040   7.609   4.533   7.113 -1.3107 -1.8637  1.6767
20942SOL     OW64041   8.830   4.570   5.294  0.2230  0.1980 -0.3521
20942SOL    HW164042   8.883   4.490   5.302  1.1641  0.9171  0.9645
20942SOL    HW264043   8.750   4.541   5.252  0.9696 -1.2568 -0.8403
20943SOL     OW64044   8.738   5.014   6.246  0.3097  0.6211  0.0875
20943SOL    HW164045   8.782   4.944   6.197 -1.5197 -0.0731 -0.6939
20943SOL    HW264046   8.706   4.972   6.325 -0.4948  0.6155 -0.2203
20944SOL     OW64047   8.405   4.603   6.385 -0.3761  0.1078  0.0263
20944SOL    HW164048   8.496   4.574   6.390 -0.1477  1.0055  2.0067
20944SOL    HW264049   8.354   4.529   6.418 -0.1655  0.3363  0.8926
20945SOL     OW64050   8.241   4.182   6.216 -0.1006 -0.2497  0.1673
20945SOL    HW164051   8.296   4.126   6.161  1.1298  1.7183 -0.7410
20945SOL    HW264052   8.233   4.263   6.166 -0.3940  1.0122  2.1654
20946SOL     OW64053   8.222   4.138   6.914  0.9314  0.1897  0.7471
20946SOL    HW164054   8.177   4.054   6.912  1.6372 -0.2007 -1.7136
20946SOL    HW264055   8.304   4.123   6.866 -0.0053  2.8241 -1.9732
20947SOL     OW64056   8.058   3.913   7.302  0.4124  0.0992 -0.2736
20947SOL    HW164057   8.078   3.927   7.395 -0.0971  0.2235 -0.1801
20947SOL    HW264058   8.066   4.000   7.263 -0.2422  0.2114 -0.1741
20948SOL     OW64059   7.481   4.736   5.515 -0.6663 -0.1116 -0.0379
20948SOL    HW164060   7.435   4.660   5.550 -0.2644  0.3070  1.5176
20948SOL    HW264061   7.527   4.704   5.438  1.4213 -2.1295  1.8651
20949SOL     OW64062   7.688   5.647   6.325  0.6285  0.0757 -0.3313
20949SOL    HW164063   7.634   5.677   6.399  2.6977  0.3205  1.1769
20949SOL    HW264064   7.638   5.575   6.287 -1.6845  1.5446 -0.3323
20950SOL     OW64065   8.225   5.325   6.233 -0.5665  0.2019 -0.2429
20950SOL    HW164066   8.310   5.299   6.197 -0.6039  1.5105 -1.3678
20950SOL    HW264067   8.160   5.283   6.176 -0.6626  0.0162  0.0017
20951SOL     OW64068   8.638   4.825   6.889  0.7107 -0.0141 -0.5531
20951SOL    HW164069   8.629   4.788   6.801  1.3888  0.3706 -0.7889
20951SOL    HW264070   8.630   4.749   6.948  1.1028 -0.3910 -0.9818
20952SOL     OW64071   7.347   4.248   6.724  0.2861  0.0785  0.1045
20952SOL    HW164072   7.380   4.298   6.798  0.9880 -0.4084  0.1325
20952SOL    HW264073   7.418   4.187   6.702  0.7743  1.2991 -2.0169
20953SOL     OW64074   7.475   4.475   7.411 -0.2221  0.3676 -0.0315
20953SOL    HW164075   7.512   4.421   7.481 -2.3020  0.5525  1.3029
20953SOL    HW264076   7.446   4.412   7.345 -0.1796  0.0434  0.2554
20954SOL     OW64077   8.422   4.228   5.729 -0.0419 -0.4684 -0.4023
20954SOL    HW164078   8.461   4.275   5.656 -1.0811 -2.5886 -2.4499
20954SOL    HW264079   8.434   4.136   5.708 -2.7140 -1.1845  0.7249
20955SOL     OW64080   7.252   4.890   7.019  0.1790 -0.3150 -0.3886
20955SOL    HW164081   7.320   4.934   7.070 -0.6138 -0.9814  1.3004
20955SOL    HW264082   7.248   4.940   6.937  1.9680  0.3609 -0.1130
20956SOL     OW64083   8.081   4.455   6.310  0.0221 -0.1674 -0.6518
20956SOL    HW164084   8.148   4.438   6.375  0.0641 -0.4543 -0.7694
20956SOL    HW264085   8.123   4.435   6.226 -0.3589 -0.8087 -0.6907
20957SOL     OW64086   8.379   5.491   6.654  0.2734 -0.0922 -0.3387
20957SOL    HW164087   8.461   5.449   6.628  0.1542 -1.2137  0.9967
20957SOL    HW264088   8.398   5.533   6.737 -0.1304  0.9258 -0.7434
20958SOL     OW64089   8.300   3.967   5.560  0.6202 -0.1520  0.0524
20958SOL    HW164090   8.255   3.998   5.481  1.7561 -0.9877 -0.9812
20958SOL    HW264091   8.388   4.006   5.553  0.0127  1.8286  2.2493
20959SOL     OW64092   7.553   4.727   6.772  0.3911  0.1787 -0.7037
20959SOL    HW164093   7.606   4.683   6.706  0.7885 -0.0259 -0.2521
20959SOL    HW264094   7.616   4.759   6.836  0.0584  0.9228 -0.7429
20960SOL     OW64095   8.727   4.882   6.506  0.5202  0.1657 -0.9430
20960SOL    HW164096   8.814   4.841   6.504 -0.1176 -1.2068 -2.8732
20960SOL    HW264097   8.668   4.812   6.533 -0.3277  0.3240 -2.3041
20961SOL     OW64098   8.663   4.984   5.820  0.0830  0.0082 -0.4027
20961SOL    HW164099   8.727   4.913   5.818  0.1438  0.0284  0.4597
20961SOL    HW264100   8.706   5.054   5.868 -1.9639 -1.4393  4.1041
20962SOL     OW64101   0.054   5.505   6.643 -0.0774  0.0233  0.0656
20962SOL    HW164102   0.114   5.488   6.716  1.2858 -0.8601 -1.2047
20962SOL    HW264103  -0.025   5.539   6.684  0.8987  0.1850  1.8955
20963SOL     OW64104   7.119   4.907   6.288  0.2290 -0.1793 -0.5213
20963SOL    HW164105   7.169   4.951   6.219 -0.3295 -0.7531 -1.3019
20963SOL    HW264106   7.121   4.815   6.265  1.7941 -0.6870  1.3677
20964SOL     OW64107   7.967   5.476   7.175 -0.3031 -0.0786  0.3873
20964SOL    HW164108   7.904   5.514   7.113 -1.7255 -0.6872  1.4072
20964SOL    HW264109   7.975   5.385   7.146 -0.6869 -0.2655  0.8524
20965SOL     OW64110   8.773   5.376   6.333 -0.1084  0.0655 -0.0524
20965SOL    HW164111   8.824   5.346   6.258  0.2725 -0.3443  0.3663
20965SOL    HW264112   8.708   5.307   6.346 -1.0867  0.7954 -0.8657
20966SOL     OW64113   7.338   5.670   7.409 -0.6660 -0.2510  0.3001
20966SOL    HW164114   7.425   5.710   7.405 -0.6415 -0.4007 -2.5462
20966SOL    HW264115   7.352   5.588   7.456  0.3330  0.5751  1.5108
20967SOL     OW64116   0.419   4.560   6.529  0.5354 -0.2996 -0.3635
20967SOL    HW164117   0.430   4.470   6.557 -0.3465 -0.1388  0.5370
20967SOL    HW264118   0.364   4.600   6.596  0.5708  0.7988 -0.9619
20968SOL     OW64119   8.652   4.970   7.139 -0.4856  0.0697  0.0670
20968SOL    HW164120   8.640   4.966   7.044 -0.7115 -0.3732  0.1153
20968SOL    HW264121   8.568   5.003   7.172 -1.6319 -2.8991  0.3915
20969SOL     OW64122   8.142   5.369   5.368 -0.2973  0.4420 -0.0552
20969SOL    HW164123   8.151   5.420   5.287 -1.6510  0.2476 -0.3599
20969SOL    HW264124   8.164   5.431   5.437 -0.5072  1.0328 -0.5025
20970SOL     OW64125   8.005   4.091   6.702  0.6062 -0.5231  0.2799
20970SOL    HW164126   8.015   4.160   6.637  0.0016 -1.3118 -0.6809
20970SOL    HW264127   7.957   4.132   6.774 -1.5796 -0.4117 -1.1403
20971SOL     OW64128   8.692   5.367   5.559  0.5183 -0.0224  0.7898
20971SOL    HW164129   8.700   5.401   5.648 -0.8517  1.3328  0.4327
20971SOL    HW264130   8.609   5.320   5.558  0.0775  0.7279  0.0316
20972SOL     OW64131   8.695   5.348   7.193 -0.5976  0.6392 -0.1206
20972SOL    HW164132   8.648   5.287   7.250 -0.4065  3.2256  3.1267
20972SOL    HW264133   8.772   5.372   7.244  0.4241  2.0008 -2.2060
20973SOL     OW64134   8.441   4.935   5.553  0.2712  0.0283 -0.2709
20973SOL    HW164135   8.486   4.976   5.627 -1.2892  0.1382  0.6589
20973SOL    HW264136   8.382   4.871   5.594  0.0000 -0.5176 -1.4788
20974SOL     OW64137   7.924   5.076   6.720 -0.1221 -0.3456 -0.6443
20974SOL    HW164138   7.999   5.026   6.688 -0.4045 -1.1157 -0.1475
20974SOL    HW264139   7.959   5.164   6.734  0.6306 -0.6254 -0.6635
20975SOL     OW64140   0.089   4.737   6.469 -0.0841 -0.2455  0.3376
20975SOL    HW164141   0.138   4.704   6.393 -0.3415 -0.7069  0.3706
20975SOL    HW264142   0.147   4.720   6.544  0.4533  0.8019  0.1823
20976SOL     OW64143   8.603   4.263   6.161 -0.4713 -0.0381  0.4835
20976SOL    HW164144   8.560   4.324   6.101 -0.9996 -1.3988 -0.5725
20976SOL    HW264145   8.547   4.186   6.161  1.1545 -1.2739  0.2668
20977SOL     OW64146   8.134   4.809   5.923  0.3460 -0.3047  0.0924
20977SOL    HW164147   8.163   4.900   5.914 -0.6074 -0.0644 -0.6980
20977SOL    HW264148   8.075   4.809   5.999  1.4912 -0.5778  1.0159
20978SOL     OW64149   7.629   5.203   5.610  0.4021  0.1276  0.1235
20978SOL    HW164150   7.648   5.261   5.536 -2.3911  0.0111 -0.7931
20978SOL    HW264151   7.678   5.123   5.591  0.0463  0.2444 -1.4286
20979SOL     OW64152   7.517   4.266   7.002 -0.7528  0.0612  0.5988
20979SOL    HW164153   7.438   4.299   7.046 -0.4553  0.1779  1.0511
20979SOL    HW264154   7.560   4.213   7.068 -0.4161  0.0541  0.3731
20980SOL     OW64155   8.263   4.409   6.490  0.2145  0.1913  0.8160
20980SOL    HW164156   8.255   4.315   6.477 -0.3307  0.2564  0.6507
20980SOL    HW264157   8.219   4.425   6.574  0.2563  0.3060  0.8162
20981SOL     OW64158   7.511   3.673   5.727 -0.1538 -0.1297 -0.2953
20981SOL    HW164159   7.487   3.622   5.650 -2.1538  1.4003 -0.7676
20981SOL    HW264160   7.458   3.753   5.720 -0.2657  0.1432  2.5507
20982SOL     OW64161   8.672   4.571   7.023 -0.2280 -0.0609  0.4785
20982SOL    HW164162   8.581   4.542   7.019  0.2551 -1.5805 -0.4028
20982SOL    HW264163   8.723   4.492   7.005  1.2087  1.0900 -0.8011
20983SOL     OW64164   7.567   3.829   6.355  0.0490 -0.0545 -0.2051
20983SOL    HW164165   7.545   3.821   6.263 -1.3897  1.0285  0.0054
20983SOL    HW264166   7.587   3.922   6.368  0.3590 -0.2111  0.5454
20984SOL     OW64167   8.642   4.885   5.341  0.0498 -0.4635 -0.2368
20984SOL    HW164168   8.568   4.883   5.402  0.1909  1.2963  0.0347
20984SOL    HW264169   8.628   4.964   5.288  2.9823  1.4057  1.4874
20985SOL     OW64170   8.496   5.180   6.763 -0.5185 -0.2652  0.1408
20985SOL    HW164171   8.529   5.223   6.842 -0.2942 -0.7166  0.2930
20985SOL    HW264172   8.572   5.170   6.707 -0.4122 -1.1773  0.4326
20986SOL     OW64173   8.151   4.615   6.785 -0.0350  0.3305 -0.0372
20986SOL    HW164174   8.192   4.675   6.846  0.1470  0.3202 -0.1478
20986SOL    HW264175   8.163   4.655   6.699 -2.4323  1.5930  0.1172
20987SOL     OW64176   8.497   4.457   7.448 -0.2333  0.1432 -0.0068
20987SOL    HW164177   8.580   4.420   7.417 -0.6314  1.0637 -2.4630
20987SOL    HW264178   8.431   4.394   7.421 -0.5045  0.3623  0.1393
20988SOL     OW64179   7.563   5.483   7.176  0.1543 -0.0177  0.6009
20988SOL    HW164180   7.588   5.509   7.087 -2.2321 -0.2709 -0.2051
20988SOL    HW264181   7.543   5.390   7.169 -0.5587  0.0749  1.2658
20989SOL     OW64182   8.812   4.112   5.754  0.7676 -0.1192  0.1758
20989SOL    HW164183   8.772   4.137   5.671  1.3065  1.5277  0.3739
20989SOL    HW264184   8.892   4.064   5.729  0.8888  0.3019 -0.2580
20990SOL     OW64185   8.345   4.740   5.723 -0.2234  0.3900 -0.2346
20990SOL    HW164186   8.302   4.751   5.808 -0.9777 -0.1220 -0.5425
20990SOL    HW264187   8.300   4.666   5.682  1.5151 -0.7021 -0.2329
20991SOL     OW64188   8.019   5.279   4.843  0.2643  0.3310  0.1614
20991SOL    HW164189   8.071   5.249   4.769 -0.2549  0.0136 -0.0819
20991SOL    HW264190   8.072   5.258   4.920  0.7740  0.6007 -0.1106
20992SOL     OW64191   8.062   5.137   6.412  0.4596 -0.2291  0.5034
20992SOL    HW164192   8.096   5.190   6.340 -1.1090 -1.5199 -1.2716
20992SOL    HW264193   8.094   5.181   6.491 -0.7984  3.3867 -0.8106
20993SOL     OW64194   8.587   4.704   6.094 -0.1608 -0.4093 -0.1275
20993SOL    HW164195   8.593   4.653   6.174 -2.4232 -0.8150 -0.1605
20993SOL    HW264196   8.597   4.639   6.024  0.0156 -0.3277 -0.1788
20994SOL     OW64197   8.772   4.767   5.131 -0.4590  0.2906 -0.1339
20994SOL    HW164198   8.716   4.810   5.195 -0.6904  1.0578 -0.8454
20994SOL    HW264199   8.820   4.701   5.182 -0.7841  0.7485  0.7869
20995SOL     OW64200   7.799   4.739   6.940  0.1617 -0.4013 -0.3151
20995SOL    HW164201   7.865   4.698   6.996 -1.3364 -0.8942  1.1533
20995SOL    HW264202   7.756   4.666   6.896 -2.2706 -0.5235  2.0376
20996SOL     OW64203   7.664   5.253   6.701 -0.5505  0.1136  0.4856
20996SOL    HW164204   7.601   5.237   6.772 -0.6388 -0.8743  0.2083
20996SOL    HW264205   7.731   5.185   6.713 -0.1112  0.4731  0.1220
20997SOL     OW64206   8.326   5.033   6.932 -0.8336 -0.4955 -0.6693
20997SOL    HW164207   8.269   5.082   6.990 -0.4873 -0.6736 -0.1779
20997SOL    HW264208   8.387   5.098   6.897  1.2686 -0.9187  1.9181
20998SOL     OW64209   7.897   4.066   6.253  0.2432  0.6153  0.1979
20998SOL    HW164210   7.896   4.113   6.170 -0.6940  1.3612  0.6108
20998SOL    HW264211   7.908   4.135   6.319 -0.7342  0.2311  0.7865
20999SOL     OW64212   7.882   4.237   6.445 -0.6786  0.1056 -0.3332
20999SOL    HW164213   7.924   4.319   6.421 -2.5466  1.6465  1.3606
20999SOL    HW264214   7.790   4.259   6.460 -0.5881 -1.3760  3.8913
21000SOL     OW64215   8.344   5.613   6.000 -0.5529 -0.3764  0.4597
21000SOL    HW164216   8.397   5.598   6.078 -1.7064 -1.1146  1.1391
21000SOL    HW264217   8.254   5.600   6.029 -1.1206  0.7827 -0.6702
21001SOL     OW64218   8.541   4.216   6.472  0.6307  0.1723 -0.3059
21001SOL    HW164219   8.446   4.203   6.471  0.8518 -1.8530 -0.4676
21001SOL    HW264220   8.576   4.131   6.447  2.5256  0.1871  1.9586
21002SOL     OW64221   8.093   3.581   6.628  0.2128  0.1635 -0.4141
21002SOL    HW164222   8.135   3.526   6.693  0.2282 -0.7826 -1.2015
21002SOL    HW264223   8.160   3.643   6.601  1.2958 -1.5710 -1.9425
21003SOL     OW64224   8.323   5.063   5.343  0.1942  0.2242  0.1168
21003SOL    HW164225   8.265   4.996   5.307  1.6455 -0.3917 -1.2064
21003SOL    HW264226   8.376   5.017   5.408 -0.7453  0.7698  1.2843
21004SOL     OW64227   7.898   5.457   6.467  0.4294 -0.0262 -0.5807
21004SOL    HW164228   7.869   5.462   6.376 -1.6031 -0.6142 -0.0275
21004SOL    HW264229   7.993   5.458   6.463  0.3796 -0.6008 -2.7540
21005SOL     OW64230   8.677   3.802   5.607  0.1720 -0.2176 -0.4970
21005SOL    HW164231   8.614   3.731   5.618  0.7908 -0.6677  0.2572
21005SOL    HW264232   8.690   3.837   5.695  1.0603 -0.2167 -0.6099
21006SOL     OW64233   7.735   4.606   5.649  0.2408  0.3380 -0.4446
21006SOL    HW164234   7.788   4.595   5.570 -0.4337 -1.3374 -0.7184
21006SOL    HW264235   7.756   4.529   5.703 -1.2355  0.0821 -0.1774
21007SOL     OW64236   8.137   5.080   5.615 -0.1620 -0.5168  0.2464
21007SOL    HW164237   8.110   4.989   5.597  0.8866 -1.0819  1.3497
21007SOL    HW264238   8.180   5.108   5.535 -1.9814 -0.3677 -0.7361
21008SOL     OW64239   7.414   4.625   7.757 -0.1356 -0.0750 -0.3798
21008SOL    HW164240   7.401   4.672   7.839  0.7395  2.2087 -1.4666
21008SOL    HW264241   7.329   4.584   7.738  0.1631 -2.4284  2.5986
21009SOL     OW64242   7.464   4.246   8.374 -0.2123  0.4096 -0.5769
21009SOL    HW164243   7.373   4.253   8.346 -0.0611 -1.9493 -1.9241
21009SOL    HW264244   7.513   4.226   8.294  1.1415 -0.6170  0.4479
21010SOL     OW64245   7.003   4.027   8.491 -0.1144 -0.2845  0.0122
21010SOL    HW164246   6.994   4.115   8.528 -0.2685 -0.4464  0.3723
21010SOL    HW264247   7.096   4.018   8.471 -0.4486  0.9036 -2.4508
21011SOL     OW64248   8.061   4.838   8.268 -0.5059 -0.2142  0.1571
21011SOL    HW164249   7.979   4.801   8.300 -0.1825  0.6555  2.1380
21011SOL    HW264250   8.109   4.863   8.347  1.4308 -0.1766 -0.9685
21012SOL     OW64251   0.187   5.186   8.232  0.1683 -0.9169  0.5222
21012SOL    HW164252   0.130   5.233   8.293 -0.8241 -3.1393  1.3887
21012SOL    HW264253   0.265   5.165   8.282 -0.2778 -1.9821  0.7932
21013SOL     OW64254   8.621   4.594   8.284 -0.2872 -0.0016  0.1334
21013SOL    HW164255   8.687   4.650   8.242 -0.1818 -0.0940  0.1768
21013SOL    HW264256   8.640   4.506   8.253 -0.1565 -0.0807  0.4432
21014SOL     OW64257   7.927   5.128   8.147 -0.0629  0.1066  0.0655
21014SOL    HW164258   7.916   5.042   8.105 -0.7020  1.0070 -1.7555
21014SOL    HW264259   8.016   5.154   8.125  0.2023 -0.1667  0.7959
21015SOL     OW64260   8.024   4.868   8.011 -0.2934  0.6521  0.1850
21015SOL    HW164261   8.053   4.848   8.100 -0.3693 -0.3893 -0.0155
21015SOL    HW264262   8.005   4.783   7.972 -1.3980  1.1678 -0.4470
21016SOL     OW64263   7.264   5.342   8.519 -0.0016 -0.0140  0.0049
21016SOL    HW164264   7.216   5.299   8.590 -1.0867  0.3041 -0.5143
21016SOL    HW264265   7.284   5.271   8.458 -1.8250  0.1554 -0.8700
21017SOL     OW64266   7.575   4.498   0.260  0.9755  0.5622  0.3829
21017SOL    HW164267   7.489   4.507   0.218  0.2610 -0.4896  1.5458
21017SOL    HW264268   7.587   4.581   0.307  1.1786  1.2063 -0.7581
21018SOL     OW64269   7.574   5.272   7.689  0.1406  0.3711  0.0734
21018SOL    HW164270   7.635   5.344   7.704 -0.4556  1.2227 -1.4080
21018SOL    HW264271   7.514   5.305   7.623 -0.2762 -1.4194 -0.4856
21019SOL     OW64272   7.766   5.020   7.657  0.6326 -0.3488 -0.3038
21019SOL    HW164273   7.753   5.112   7.678  2.0832 -0.1363 -0.2598
21019SOL    HW264274   7.684   4.978   7.683  0.5262  0.6721  1.1507
21020SOL     OW64275   7.780   4.800   8.382  0.4138  0.7345 -0.3121
21020SOL    HW164276   7.686   4.813   8.378  0.0195 -1.2266  1.2076
21020SOL    HW264277   7.801   4.805   8.475  1.8377  1.1267 -0.6279
21021SOL     OW64278   8.255   5.087   0.068  0.2194 -0.0794  0.0808
21021SOL    HW164279   8.303   5.163   0.099 -1.4076  0.7991  0.5222
21021SOL    HW264280   8.302   5.061  -0.012  1.0596  1.0975  0.1643
21022SOL     OW64281   8.291   4.742   6.969  0.0402 -0.2098  0.4301
21022SOL    HW164282   8.227   4.720   7.037 -1.1392  0.2650 -0.4919
21022SOL    HW264283   8.314   4.833   6.986 -0.5676  0.0378 -0.0284
21023SOL     OW64284   8.674   4.145   8.830 -0.2545  0.2445 -0.2071
21023SOL    HW164285   8.707   4.070   8.879 -1.4628  0.3225  0.8012
21023SOL    HW264286   8.657   4.111   8.742  0.5584 -0.2848 -0.1721
21024SOL     OW64287   7.032   4.345   8.137  0.4273 -0.5860 -0.1024
21024SOL    HW164288   7.082   4.391   8.204 -0.0210 -1.5235  0.9224
21024SOL    HW264289   7.098   4.316   8.074  0.8106  0.6555 -0.2893
21025SOL     OW64290   7.225   5.129   7.370  0.0225 -0.3299  0.7080
21025SOL    HW164291   7.211   5.040   7.402  1.3661 -0.4402  1.0652
21025SOL    HW264292   7.138   5.161   7.346 -0.6501 -1.2358  1.8762
21026SOL     OW64293   0.423   4.691   7.820 -0.5918  0.7292 -0.2973
21026SOL    HW164294   0.444   4.771   7.868 -1.0524 -0.7358  2.5968
21026SOL    HW264295   0.507   4.644   7.813 -0.4814  1.0496 -1.1851
21027SOL     OW64296   8.371   5.032   8.357  0.2050  0.1059  0.1220
21027SOL    HW164297   8.456   5.000   8.327  0.3613  0.8840 -0.2873
21027SOL    HW264298   8.310   4.961   8.334  0.8646 -0.8749  1.2794
21028SOL     OW64299   7.838   4.125   7.919  0.3439 -0.4246  0.1525
21028SOL    HW164300   7.862   4.152   7.831  0.2627  0.8894  0.5146
21028SOL    HW264301   7.918   4.136   7.970 -0.0623  0.4720  0.6001
21029SOL     OW64302   7.518   4.984   0.141  0.7701  0.1338  0.6991
21029SOL    HW164303   7.587   4.924   0.111  0.6790  0.0044  0.7479
21029SOL    HW264304   7.507   5.046   0.068  0.2803 -0.4117  0.3056
21030SOL     OW64305   7.477   4.891   8.074 -0.2870  0.3428  0.2270
21030SOL    HW164306   7.452   4.956   8.008  0.7057  0.4231 -0.0883
21030SOL    HW264307   7.423   4.814   8.054  0.0172  0.3587 -0.6944
21031SOL     OW64308   8.199   3.724   8.304  0.6295  0.0213 -0.0594
21031SOL    HW164309   8.139   3.768   8.364  1.0402  2.9960 -1.5938
21031SOL    HW264310   8.143   3.681   8.240  0.1836 -0.1984  0.4739
21032SOL     OW64311   7.563   4.486   8.476 -0.2583  0.2528 -0.1937
21032SOL    HW164312   7.648   4.482   8.520  0.7408 -0.6524 -2.0848
21032SOL    HW264313   7.545   4.396   8.449 -1.0230  0.6852 -1.2341
21033SOL     OW64314   8.269   4.426   8.625  0.1523  0.4542 -0.5286
21033SOL    HW164315   8.335   4.448   8.690 -0.7699  0.4453  0.4494
21033SOL    HW264316   8.254   4.508   8.578  0.5058  0.5821 -0.4230
21034SOL     OW64317   7.855   4.341   8.371 -0.0627  0.0675 -0.6526
21034SOL    HW164318   7.854   4.366   8.463  0.6144 -0.4184 -0.5002
21034SOL    HW264319   7.947   4.324   8.352 -0.3261 -0.9166 -1.1123
21035SOL     OW64320   7.153   4.681   8.757 -0.6059  0.2591  0.2030
21035SOL    HW164321   7.147   4.753   8.820  0.6086  0.9013 -0.3834
21035SOL    HW264322   7.239   4.692   8.716 -0.1941 -1.7843  0.4031
21036SOL     OW64323   7.754   5.448   8.840  0.2477 -0.0239  0.0052
21036SOL    HW164324   7.674   5.412   8.803  0.0465 -1.4116  1.6328
21036SOL    HW264325   7.823   5.421   8.779 -0.3254 -0.1784 -0.5880
21037SOL     OW64326   7.612   4.323   7.960 -0.2195 -0.2602  0.4710
21037SOL    HW164327   7.687   4.273   7.990  0.7465  0.5258 -0.5633
21037SOL    HW264328   7.609   4.400   8.017 -1.1024 -0.9683  1.4129
21038SOL     OW64329   8.481   4.790   7.992 -0.5239  0.9772  0.5872
21038SOL    HW164330   8.404   4.790   7.934 -1.9855  1.5786  2.4312
21038SOL    HW264331   8.541   4.853   7.952 -0.9902  0.5526 -0.8590
21039SOL     OW64332   8.236   3.929   8.102 -0.0315 -0.4574  0.2702
21039SOL    HW164333   8.302   3.998   8.104 -0.5148  0.0444 -0.4598
21039SOL    HW264334   8.279   3.853   8.142  1.2808 -0.3937 -0.9304
21040SOL     OW64335   8.204   5.199   7.641 -0.3169  0.4432  0.0902
21040SOL    HW164336   8.163   5.225   7.558  0.7296 -1.6235 -1.1617
21040SOL    HW264337   8.141   5.138   7.681 -0.6768  1.1872  0.6747
21041SOL     OW64338   7.833   5.453   8.441  0.7625 -0.1332  0.4134
21041SOL    HW164339   7.838   5.533   8.493  1.4959  1.4293 -1.9112
21041SOL    HW264340   7.827   5.483   8.351 -0.3789 -2.7232 -0.4723
21042SOL     OW64341   7.783   4.718   7.701  0.0823 -0.4372 -0.1750
21042SOL    HW164342   7.698   4.699   7.741 -0.1426 -1.5490 -1.1183
21042SOL    HW264343   7.763   4.781   7.631 -0.2578 -1.9607 -1.4924
21043SOL     OW64344   8.548   5.216   7.395 -0.3656  0.2311 -0.0427
21043SOL    HW164345   8.502   5.299   7.393 -0.1060  0.4129  1.0990
21043SOL    HW264346   8.486   5.153   7.358 -0.5473  0.9240 -0.9518
21044SOL     OW64347   7.476   5.437   7.469 -0.0905 -0.3219  0.3406
21044SOL    HW164348   7.547   5.494   7.500  1.4677 -1.9466 -0.0485
21044SOL    HW264349   7.485   5.437   7.374  0.8451 -2.2258  0.3788
21045SOL     OW64350   7.987   5.380   8.669  0.5018 -0.0779  0.0308
21045SOL    HW164351   8.070   5.393   8.623  0.5427 -0.1374  0.0880
21045SOL    HW264352   7.921   5.416   8.610  0.6302  0.5399  0.2540
21046SOL     OW64353   8.155   5.207   7.974  0.3941 -0.3972 -0.0503
21046SOL    HW164354   8.193   5.265   7.907 -0.9426 -0.5390 -0.9637
21046SOL    HW264355   8.207   5.126   7.967  0.9291 -0.0483 -0.2023
21047SOL     OW64356   7.157   4.467   8.341 -0.3797  0.4570 -0.1968
21047SOL    HW164357   7.225   4.534   8.351 -0.2371  0.3115 -0.1907
21047SOL    HW264358   7.093   4.489   8.408 -0.7501  1.0916 -0.7419
21048SOL     OW64359   7.934   4.317   7.712 -0.5545  0.3734 -0.5107
21048SOL    HW164360   7.961   4.370   7.787  0.3195 -0.4369 -0.2248
21048SOL    HW264361   7.903   4.380   7.647  1.0956  1.3128 -0.4509
21049SOL     OW64362   8.411   5.145   8.617 -0.1803 -0.7439 -0.5387
21049SOL    HW164363   8.405   5.097   8.534  1.2576 -1.4235 -0.2745
21049SOL    HW264364   8.462   5.087   8.674  0.6792  0.6491  0.1342
21050SOL     OW64365   8.292   4.675   8.522 -0.2658 -1.2016 -0.3670
21050SOL    HW164366   8.319   4.717   8.441  0.0674 -0.3547  0.1663
21050SOL    HW264367   8.217   4.727   8.552  1.2301  0.1669  1.2109
21051SOL     OW64368   8.371   4.718   8.269  0.8334  0.2197  0.4799
21051SOL    HW164369   8.403   4.763   8.191 -0.0887 -2.9145 -1.9468
21051SOL    HW264370   8.425   4.639   8.275 -1.4844 -1.4655  0.7048
21052SOL     OW64371   7.648   3.888   8.221  0.5208 -0.6558  0.2139
21052SOL    HW164372   7.641   3.954   8.152 -0.7982 -0.1401  0.8217
21052SOL    HW264373   7.633   3.805   8.176  0.5771 -0.4064 -0.2750
21053SOL     OW64374   8.444   4.738   7.326 -0.0550 -0.2242 -0.1426
21053SOL    HW164375   8.408   4.713   7.241  1.8978  2.1009 -1.8214
21053SOL    HW264376   8.485   4.659   7.359 -3.0189 -1.8639 -0.0539
21054SOL     OW64377   7.552   4.169   7.596 -0.8430 -0.0235 -0.2803
21054SOL    HW164378   7.591   4.250   7.628  0.7469 -0.4411 -1.0292
21054SOL    HW264379   7.458   4.179   7.612 -0.4752  1.1587  1.3377
21055SOL     OW64380   7.941   4.518   7.960 -0.8350  0.1586  0.2560
21055SOL    HW164381   7.855   4.501   7.998 -0.8910  0.6684  0.3622
21055SOL    HW264382   7.988   4.566   8.029 -0.5921  0.2094  0.0555
21056SOL     OW64383   8.347   5.290   8.322 -0.2949  0.0255  0.0633
21056SOL    HW164384   8.327   5.201   8.351 -0.9846 -0.2171 -1.0758
21056SOL    HW264385   8.442   5.293   8.317 -0.1367  0.0768  2.2465
21057SOL     OW64386   7.731   4.785   8.111 -0.0088 -0.2102  0.2375
21057SOL    HW164387   7.649   4.834   8.114  0.5156  0.9253 -1.8406
21057SOL    HW264388   7.779   4.815   8.187 -0.8983  0.2777  0.6269
21058SOL     OW64389   8.608   4.974   8.252  0.1878  0.9727 -0.1918
21058SOL    HW164390   8.664   5.032   8.201  1.5062  0.2429  0.3723
21058SOL    HW264391   8.647   4.887   8.239  0.1218  0.6696  1.4595
21059SOL     OW64392   8.153   4.136   7.687  0.1280  0.0640 -0.0157
21059SOL    HW164393   8.068   4.177   7.672  0.6330  1.0979 -0.1087
21059SOL    HW264394   8.143   4.047   7.652 -0.7424  0.3439 -0.5055
21060SOL     OW64395   8.017   4.004   8.835  0.1402  0.4560 -0.7956
21060SOL    HW164396   8.112   4.014   8.832  0.1246  0.4381 -1.9002
21060SOL    HW264397   8.002   3.911   8.817 -0.0816  0.4281 -0.4750
21061SOL     OW64398   8.310   4.720   7.743  0.1532  0.1689 -0.1101
21061SOL    HW164399   8.218   4.696   7.743  0.1815  0.0551  0.2308
21061SOL    HW264400   8.322   4.770   7.662 -0.6597  1.8983  0.7922
21062SOL     OW64401   8.297   3.424   8.293 -0.7821  0.3610  0.2213
21062SOL    HW164402   8.211   3.383   8.299 -0.0780 -1.5962 -1.7660
21062SOL    HW264403   8.304   3.475   8.374 -2.1101 -2.8014  2.5707
21063SOL     OW64404   7.551   4.929   7.154  0.2362  0.1942 -0.9592
21063SOL    HW164405   7.548   4.990   7.228 -0.1882 -1.4880  0.4855
21063SOL    HW264406   7.634   4.948   7.110 -0.1998  2.2578 -1.0126
21064SOL     OW64407   8.753   4.314   7.398  0.4288 -0.0056  0.1041
21064SOL    HW164408   8.752   4.239   7.338  0.6324  0.5903 -0.6641
21064SOL    HW264409   8.801   4.283   7.474 -0.5917 -1.0648  0.3512
21065SOL     OW64410   7.631   3.966   7.943  0.1800  0.0778  0.8364
21065SOL    HW164411   7.586   3.956   7.859 -1.0560  1.2648  1.3206
21065SOL    HW264412   7.707   4.020   7.923 -1.3199  2.2798  0.8147
21066SOL     OW64413   0.085   4.911   8.335  0.0079 -0.0642 -0.3404
21066SOL    HW164414   0.133   4.836   8.369 -1.1742 -0.4998  0.4313
21066SOL    HW264415   0.042   4.878   8.256  1.1146  0.3767 -1.1349
21067SOL     OW64416   7.913   4.628   7.170  0.2749 -0.3549  0.0964
21067SOL    HW164417   7.874   4.679   7.241  0.8492 -0.1776  0.2910
21067SOL    HW264418   7.851   4.557   7.154 -0.1423 -0.0573  0.3709
21068SOL     OW64419   7.655   5.155   0.374 -0.2007  0.0841  0.2229
21068SOL    HW164420   7.684   5.243   0.351  0.2405  0.1547  0.9943
21068SOL    HW264421   7.635   5.113   0.291  1.0196  0.4272 -0.2597
21069SOL     OW64422   8.456   4.502   8.799 -0.1967 -0.3235 -0.0589
21069SOL    HW164423   8.416   4.579   8.840 -0.2459 -0.7687  0.7354
21069SOL    HW264424   8.517   4.539   8.735 -1.4057  0.3765 -0.8700
21070SOL     OW64425   7.225   5.348   0.055  0.1902 -0.1468  0.1658
21070SOL    HW164426   7.149   5.376   0.105  0.0328  2.0146 -1.1446
21070SOL    HW264427   7.189   5.296  -0.016 -0.2453  1.5655 -0.9393
21071SOL     OW64428   7.633   4.692   7.399 -0.3800  0.2371 -0.3305
21071SOL    HW164429   7.579   4.614   7.413 -1.8377  1.1090 -0.7970
21071SOL    HW264430   7.612   4.718   7.309  0.1869  1.0855 -0.2208
21072SOL     OW64431   7.982   3.897   8.322  0.0707  0.1413 -0.0206
21072SOL    HW164432   7.943   3.962   8.379 -0.6607 -1.5373  1.4912
21072SOL    HW264433   8.042   3.947   8.266 -1.3455  2.2315  0.2311
21073SOL     OW64434   8.469   5.242   7.673 -0.3547 -0.2437 -0.0208
21073SOL    HW164435   8.500   5.260   7.584  1.2643 -0.9212  0.3590
21073SOL    HW264436   8.375   5.228   7.664 -0.8170  2.8319 -1.1318
21074SOL     OW64437   8.564   5.441   8.480  0.3165 -0.3576  0.0627
21074SOL    HW164438   8.660   5.438   8.479  0.3164 -1.7117  0.9286
21074SOL    HW264439   8.541   5.414   8.569 -0.8456  1.8706  0.4960
21075SOL     OW64440   7.867   5.163   8.462 -0.0234  0.7148 -0.5552
21075SOL    HW164441   7.858   5.256   8.442 -2.1280  0.5269 -0.6540
21075SOL    HW264442   7.883   5.122   8.377 -0.8209  0.8159 -0.7634
21076SOL     OW64443   7.845   4.771   8.661  0.4981  0.3308 -1.1956
21076SOL    HW164444   7.831   4.852   8.711  0.8944 -0.0056 -0.5235
21076SOL    HW264445   7.814   4.701   8.719  1.0772 -0.0787 -1.3695
21077SOL     OW64446   8.817   4.705   8.666  0.4638  0.3362  0.0461
21077SOL    HW164447   8.873   4.720   8.589  2.5098 -0.5125  1.2739
21077SOL    HW264448   8.732   4.681   8.629  0.5264  2.7527 -1.9140
21078SOL     OW64449   8.188   3.863   7.632 -0.0951  0.4508 -0.1102
21078SOL    HW164450   8.094   3.879   7.645  0.0738  0.0745  1.7462
21078SOL    HW264451   8.204   3.778   7.674  0.4923 -1.1103 -3.1876
21079SOL     OW64452   7.942   3.740   8.767 -0.6197  0.2856  0.0760
21079SOL    HW164453   7.930   3.664   8.824 -1.1390 -0.3233 -0.8156
21079SOL    HW264454   7.860   3.745   8.717 -0.7533  1.6677  0.3761
21080SOL     OW64455   7.478   5.333   8.780  0.3662 -0.0667 -0.4342
21080SOL    HW164456   7.469   5.238   8.775  0.7198 -0.3377  2.2964
21080SOL    HW264457   7.393   5.363   8.814  0.1751  0.6456 -1.4933
21081SOL     OW64458   7.871   4.091   8.472 -0.2951 -0.6855 -0.4408
21081SOL    HW164459   7.926   4.144   8.530 -1.3339  0.1739 -0.1995
21081SOL    HW264460   7.821   4.156   8.422 -1.3484 -1.4265 -0.3767
21082SOL     OW64461   7.533   3.908   7.670  0.1807 -0.4582  0.7476
21082SOL    HW164462   7.547   3.882   7.579 -0.4017 -2.5384  1.2093
21082SOL    HW264463   7.524   4.003   7.666  3.1373 -0.1095 -0.9744
21083SOL     OW64464   0.513   4.074   7.752  0.0841 -0.4283 -0.1075
21083SOL    HW164465   0.600   4.038   7.769  0.1596 -0.1041  0.2159
21083SOL    HW264466   0.525   4.169   7.758 -0.2191 -0.3691 -0.4209
21084SOL     OW64467   8.554   4.248   8.293 -0.1617 -0.5225 -0.5337
21084SOL    HW164468   8.474   4.300   8.302 -0.2114 -0.8130  0.9122
21084SOL    HW264469   8.616   4.308   8.251 -0.7037  0.1767 -0.3685
21085SOL     OW64470   8.241   4.402   7.117  0.5091 -0.1729 -0.1386
21085SOL    HW164471   8.300   4.417   7.043 -0.5370  0.1893 -0.9117
21085SOL    HW264472   8.236   4.486   7.161 -0.9888  0.3458 -1.2458
21086SOL     OW64473   8.768   4.764   8.144 -0.2183 -0.0394  0.4038
21086SOL    HW164474   8.855   4.726   8.129 -1.0577 -1.7797 -0.3869
21086SOL    HW264475   8.749   4.813   8.064  0.5339  1.4634  1.1028
21087SOL     OW64476   7.412   4.655   8.698  0.3329 -0.2702  0.6408
21087SOL    HW164477   7.411   4.575   8.645 -0.9422 -1.3322  2.1649
21087SOL    HW264478   7.498   4.656   8.739  0.2475 -1.0498  0.8591
21088SOL     OW64479   7.489   4.092   0.055 -0.0318 -0.2335  0.1011
21088SOL    HW164480   7.480   3.996   0.053 -0.6006 -0.2275 -2.8053
21088SOL    HW264481   7.567   4.109   0.001 -1.3742  0.9677 -1.5651
21089SOL     OW64482   7.840   4.465   8.620  0.0129 -0.7118 -0.2017
21089SOL    HW164483   7.886   4.548   8.636 -0.3110 -0.3926 -0.9231
21089SOL    HW264484   7.900   4.398   8.655  0.5597 -0.2256 -0.1907
21090SOL     OW64485   7.299   5.106   7.641  0.0348 -0.4325 -0.0898
21090SOL    HW164486   7.288   5.154   7.559 -1.1484 -0.2039  0.1887
21090SOL    HW264487   7.331   5.171   7.703  0.1891 -0.4286 -0.1734
21091SOL     OW64488   7.190   6.104   7.854 -0.4122 -0.2043 -0.0445
21091SOL    HW164489   7.133   6.083   7.927 -1.7072  1.5111 -0.5093
21091SOL    HW264490   7.274   6.064   7.877 -1.0912 -0.6475  1.8289
21092SOL     OW64491   7.750   5.493   7.643 -0.4264 -0.3386 -0.0857
21092SOL    HW164492   7.736   5.580   7.607  0.4088 -0.2541 -0.2392
21092SOL    HW264493   7.802   5.508   7.722 -0.2021 -0.7015 -0.1596
21093SOL     OW64494   8.320   4.716   0.030  0.2968  0.0662  0.0608
21093SOL    HW164495   8.230   4.692   0.007  0.5635 -1.1762  0.2895
21093SOL    HW264496   8.315   4.741   0.122  0.1568  0.1652  0.0274
21094SOL     OW64497   7.265   4.254   0.159  0.2709 -0.0486  0.3227
21094SOL    HW164498   7.335   4.195   0.131  1.0128  1.3326 -0.8770
21094SOL    HW264499   7.213   4.202   0.221  1.5194 -1.5714  0.1588
21095SOL     OW64500   7.706   4.521   8.145 -0.7216 -0.6254 -0.4417
21095SOL    HW164501   7.723   4.505   8.237 -1.9916  0.2630 -0.0242
21095SOL    HW264502   7.703   4.617   8.137 -1.4869 -0.6987 -1.2220
21096SOL     OW64503   8.115   4.317   8.243 -0.0513 -0.1765  0.4831
21096SOL    HW164504   8.125   4.276   8.158 -0.1462  0.8862 -0.0591
21096SOL    HW264505   8.122   4.411   8.225 -1.0769  0.1192  1.4980
21097SOL     OW64506   8.280   5.388   8.595 -0.3114 -0.1336  0.1129
21097SOL    HW164507   8.316   5.407   8.508  2.5141 -0.9926  0.9679
21097SOL    HW264508   8.330   5.312   8.625 -1.5225 -0.1411  2.3283
21098SOL     OW64509   7.638   4.424   7.701  0.3220  0.3617 -0.2029
21098SOL    HW164510   7.655   4.380   7.784 -0.4090  1.6027  0.6466
21098SOL    HW264511   7.577   4.495   7.724  2.8733  3.0616 -1.0978
21099SOL     OW64512   7.337   5.072   0.773  0.6078  0.1646 -0.4202
21099SOL    HW164513   7.278   5.015   0.724 -0.7811 -2.3428  3.7136
21099SOL    HW264514   7.424   5.053   0.736 -0.3143 -1.5750 -1.8692
21100SOL     OW64515   8.467   4.933   8.826 -0.2970 -0.0598 -0.4668
21100SOL    HW164516   8.559   4.911   8.840 -0.4584 -0.5527 -0.1586
21100SOL    HW264517   8.423   4.848   8.818 -0.8256  0.1625  0.0287
21101SOL     OW64518   8.734   4.941   7.950  1.2835  0.4426  0.1008
21101SOL    HW164519   8.743   4.971   7.859  0.6478 -0.4667 -0.2786
21101SOL    HW264520   8.718   5.021   8.000  1.8309  0.9806 -0.5530
21102SOL     OW64521   8.833   5.428   8.332 -0.1653  0.1922  0.1025
21102SOL    HW164522   8.802   5.444   8.243 -1.0799 -1.4438  0.0989
21102SOL    HW264523   8.872   5.511   8.359 -0.7917  1.0224 -1.4483
21103SOL     OW64524   7.507   4.889   8.337  0.5306  0.1288 -0.2703
21103SOL    HW164525   7.477   4.969   8.381 -0.0825 -0.5930  0.6733
21103SOL    HW264526   7.489   4.904   8.244 -1.3847  0.3301  0.1054
21104SOL     OW64527   0.008   5.426   8.048 -0.5371  1.3764 -0.7218
21104SOL    HW164528   0.069   5.493   8.017 -1.5756  1.5833 -2.4419
21104SOL    HW264529   0.022   5.353   7.988  2.1105 -0.9541  2.3544
21105SOL     OW64530   8.739   4.375   8.146 -0.0365  0.0918  0.0365
21105SOL    HW164531   8.825   4.414   8.162  0.1060 -0.4357  0.6425
21105SOL    HW264532   8.726   4.383   8.052  1.6856 -1.8010 -0.4378
21106SOL     OW64533   7.705   5.212   7.131 -0.5037 -0.1012  0.1966
21106SOL    HW164534   7.734   5.136   7.080  0.3438  0.0941  0.3756
21106SOL    HW264535   7.704   5.181   7.222  0.2482  0.2127  0.3172
21107SOL     OW64536   7.236   4.236   7.974 -0.4909  0.0308  0.0154
21107SOL    HW164537   7.241   4.162   7.915  0.2338 -1.3058  1.6664
21107SOL    HW264538   7.279   4.308   7.927  0.6441 -1.1557 -0.8050
21108SOL     OW64539   8.403   5.012   7.272 -0.0860 -0.3062 -0.4416
21108SOL    HW164540   8.317   5.005   7.232 -1.2994 -0.0100  1.9134
21108SOL    HW264541   8.427   4.923   7.295 -0.9378 -0.1768  1.0834
21109SOL     OW64542   7.967   5.153   8.809  0.2351 -0.1483  0.2858
21109SOL    HW164543   7.973   5.222   8.743 -0.9543  0.2239  0.5504
21109SOL    HW264544   8.058   5.137   8.834  0.5297  1.4422  0.3327
21110SOL     OW64545   8.043   4.627   7.703  0.2079 -0.0704  0.8530
21110SOL    HW164546   8.028   4.570   7.779 -0.0731  0.9467  1.5897
21110SOL    HW264547   7.957   4.665   7.684  0.4574  0.3834  0.6107
21111SOL     OW64548   8.568   4.632   8.571 -0.7640  0.2212 -0.0397
21111SOL    HW164549   8.477   4.657   8.558  0.0166  2.7259 -1.3971
21111SOL    HW264550   8.604   4.627   8.482  0.8442  1.2821  0.5096
21112SOL     OW64551   8.294   4.216   8.449 -0.1192  0.6085 -0.2798
21112SOL    HW164552   8.231   4.238   8.381 -1.3453  0.4544  0.7690
21112SOL    HW264553   8.292   4.291   8.508  2.2951  1.5863 -1.3045
21113SOL     OW64554   8.045   4.991   7.737 -0.1862 -0.0986  0.5765
21113SOL    HW164555   7.961   5.025   7.706 -0.1480 -0.9510 -0.5050
21113SOL    HW264556   8.021   4.935   7.811 -0.7553 -1.4292 -0.5657
21114SOL     OW64557   7.684   5.098   7.394 -0.5768 -0.3894 -0.0549
21114SOL    HW164558   7.716   5.064   7.478  1.8802  3.0238  0.6064
21114SOL    HW264559   7.602   5.143   7.416  0.1887  0.7241  0.6643
21115SOL     OW64560   7.374   4.489   0.091 -0.7331  0.2385  0.0299
21115SOL    HW164561   7.303   4.554   0.083 -1.5425 -0.5381  0.6249
21115SOL    HW264562   7.328   4.406   0.101  0.2210 -0.1256  1.8720
21116SOL     OW64563   7.435   3.950   7.271 -0.5871 -1.0812 -0.5821
21116SOL    HW164564   7.496   4.007   7.225 -1.7803  0.4635 -0.3522
21116SOL    HW264565   7.359   3.944   7.213 -2.0761  0.8025  1.0256
21117SOL     OW64566   7.246   4.038   7.765 -0.5997 -0.1962 -0.5835
21117SOL    HW164567   7.274   4.100   7.698  1.3064  0.0926  0.3985
21117SOL    HW264568   7.224   3.959   7.717  0.5957  0.0466 -1.5815
21118SOL     OW64569   8.183   4.523   7.467 -0.3243  0.4419  0.6763
21118SOL    HW164570   8.128   4.534   7.545 -0.2430 -2.0911  1.2054
21118SOL    HW264571   8.253   4.463   7.496  1.2364  1.5306 -0.6708
21119SOL     OW64572   7.873   5.508   0.472  0.5831 -0.3674  0.8606
21119SOL    HW164573   7.810   5.502   0.400  0.9531 -2.7258  0.6775
21119SOL    HW264574   7.828   5.466   0.546  1.0237  0.1385  1.4265
21120SOL     OW64575   7.898   5.667   8.592 -0.2757 -0.7026  0.0602
21120SOL    HW164576   7.969   5.682   8.655 -0.6552  1.9636 -0.0495
21120SOL    HW264577   7.866   5.754   8.570 -1.2233 -1.6294 -2.6524
21121SOL     OW64578   8.534   4.546   7.708  0.2808  0.2067 -0.6818
21121SOL    HW164579   8.515   4.501   7.625  2.3029 -0.0959 -1.0421
21121SOL    HW264580   8.463   4.610   7.717 -1.0158 -1.0173 -1.6728
21122SOL     OW64581   7.367   4.660   8.416  0.2854 -0.1985 -0.5039
21122SOL    HW164582   7.419   4.740   8.425  0.3770 -0.3887  0.9696
21122SOL    HW264583   7.430   4.590   8.435  0.3593 -0.6780 -2.4034
21123SOL     OW64584   7.944   4.892   7.388  0.3249  0.0843  0.6550
21123SOL    HW164585   7.863   4.939   7.410  0.0333 -0.3296  0.4743
21123SOL    HW264586   7.989   4.882   7.471  0.3681  0.6386  0.7055
21124SOL     OW64587   7.871   5.460   8.145  0.2339  0.2566  0.3388
21124SOL    HW164588   7.806   5.391   8.164 -0.4877  0.4496 -1.2815
21124SOL    HW264589   7.951   5.429   8.187  0.5736 -2.7695 -2.1882
21125SOL     OW64590   8.143   4.574   8.120  0.2777  0.5394  0.0688
21125SOL    HW164591   8.215   4.528   8.078 -0.1466 -1.0593  1.0221
21125SOL    HW264592   8.183   4.652   8.159  1.4459 -0.2001  0.3754
21126SOL     OW64593   8.404   4.235   7.820  0.5957 -0.8181  0.0388
21126SOL    HW164594   8.444   4.290   7.753 -0.2625 -0.8931 -0.5399
21126SOL    HW264595   8.323   4.202   7.781  1.2326 -2.7828  0.2315
21127SOL     OW64596   7.034   4.711   7.987  0.3212 -0.1833 -0.9760
21127SOL    HW164597   6.978   4.699   7.910  0.7955 -0.2029 -1.3243
21127SOL    HW264598   7.065   4.801   7.980 -1.6095  0.6773  0.5406
21128SOL     OW64599   7.320   4.643   8.073  0.8256  0.3764 -0.5632
21128SOL    HW164600   7.228   4.667   8.062  0.9784  0.9371 -0.6914
21128SOL    HW264601   7.325   4.607   8.161  0.2470 -0.8621 -1.0180
21129SOL     OW64602   7.478   5.072   8.729  0.1287  0.1732  0.0117
21129SOL    HW164603   7.420   5.045   8.658 -0.3447  0.9686  0.0808
21129SOL    HW264604   7.565   5.049   8.699 -0.0358  0.7895 -0.9748
21130SOL     OW64605   8.334   5.022   7.880 -0.4676  0.1239 -0.1354
21130SOL    HW164606   8.295   4.951   7.829 -0.8022 -0.7236  1.2153
21130SOL    HW264607   8.385   5.073   7.817 -1.1666 -0.6356 -1.3544
21131SOL     OW64608   8.394   3.976   8.571  0.1014 -0.0698  0.1174
21131SOL    HW164609   8.344   4.047   8.531  1.0943  1.2854  1.1822
21131SOL    HW264610   8.427   3.926   8.497 -0.5085  0.6582 -0.6703
21132SOL     OW64611   7.718   4.071   8.763  0.0600 -0.3425  0.9664
21132SOL    HW164612   7.706   4.007   8.693 -0.9722  0.3942  0.4408
21132SOL    HW264613   7.812   4.067   8.783  0.2273 -1.1374  0.0902
21133SOL     OW64614   8.378   4.929   7.557  0.1584 -0.2945 -0.0474
21133SOL    HW164615   8.376   4.882   7.474 -0.2650  1.3489 -1.0211
21133SOL    HW264616   8.352   5.019   7.534  0.9183  0.4165  1.7162
21134SOL     OW64617   7.336   5.887   8.654 -0.1203  0.1732 -0.0946
21134SOL    HW164618   7.277   5.906   8.727  0.5253 -0.4622  0.6093
21134SOL    HW264619   7.402   5.829   8.691  0.0156 -0.4576 -1.2793
21135SOL     OW64620   0.199   3.794   7.755  0.7304  0.1016 -0.1599
21135SOL    HW164621   0.122   3.836   7.794  1.4065  0.6619  0.5848
21135SOL    HW264622   0.194   3.703   7.785  0.5085  0.2028  0.1087
21136SOL     OW64623   7.492   4.674   7.180 -0.1125  0.3072  0.5703
21136SOL    HW164624   7.479   4.763   7.150 -2.8017 -0.2321 -0.1550
21136SOL    HW264625   7.430   4.663   7.253  0.3145 -0.8920  0.7878
21137SOL     OW64626   8.112   5.305   7.393  0.7130 -0.6607 -0.5269
21137SOL    HW164627   8.128   5.292   7.300 -0.7960 -1.6293 -0.6914
21137SOL    HW264628   8.016   5.312   7.400  0.8941  1.8734  0.6589
21138SOL     OW64629   7.524   6.056   0.020  0.1968 -0.4772  0.0029
21138SOL    HW164630   7.431   6.040   0.005  0.0410 -1.4601  1.7144
21138SOL    HW264631   7.559   6.075  -0.066 -1.4588 -0.8253 -0.7910
21139SOL     OW64632   7.351   6.059   1.259 -0.0827 -0.4284 -0.5088
21139SOL    HW164633   7.428   6.099   1.219  1.0483  0.2664  2.1454
21139SOL    HW264634   7.387   5.989   1.314 -1.1480  0.7481  1.7962
21140SOL     OW64635   7.551   6.130   1.069 -0.0357  0.1717 -0.2217
21140SOL    HW164636   7.551   6.130   0.974 -0.2713  0.0435 -0.2216
21140SOL    HW264637   7.643   6.115   1.093  0.0677  0.4814 -0.4260
21141SOL     OW64638   8.310   6.581   1.235 -0.1644 -0.0430 -0.0080
21141SOL    HW164639   8.268   6.508   1.280 -1.4136 -0.4244 -1.6569
21141SOL    HW264640   8.243   6.611   1.173  1.2677  0.7688 -1.2132
21142SOL     OW64641   8.750   6.962   1.163 -0.2745 -0.1823 -0.2528
21142SOL    HW164642   8.716   6.900   1.099 -1.3632 -1.8289  1.8274
21142SOL    HW264643   8.813   6.912   1.214  1.4905  1.4302 -0.7058
21143SOL     OW64644   8.479   6.644   0.280 -0.0706  0.3708 -0.5637
21143SOL    HW164645   8.403   6.621   0.228 -0.5477 -3.0533  1.3695
21143SOL    HW264646   8.452   6.722   0.330 -1.7969  0.0386 -0.9369
21144SOL     OW64647   8.221   6.223   1.687 -0.5633 -0.2608 -0.7401
21144SOL    HW164648   8.213   6.315   1.713  0.7854  0.5452 -2.8914
21144SOL    HW264649   8.243   6.177   1.769  1.1003  1.7156  0.0128
21145SOL     OW64650   8.244   6.145   2.001  0.2507  0.4770 -0.7496
21145SOL    HW164651   8.232   6.233   2.038  1.8382  0.5197 -0.2660
21145SOL    HW264652   8.162   6.099   2.021 -0.1472  1.4814  0.0178
21146SOL     OW64653   8.241   6.576   0.654  0.0502  0.2664 -0.1591
21146SOL    HW164654   8.155   6.604   0.686  0.8649  1.1206  1.3636
21146SOL    HW264655   8.298   6.579   0.731  1.0879 -1.9203 -0.7713
21147SOL     OW64656   8.146   6.780   2.130  0.6182 -0.2802  0.0139
21147SOL    HW164657   8.151   6.876   2.124 -0.2725 -0.2824 -1.0904
21147SOL    HW264658   8.211   6.749   2.067  0.7838 -0.3956  0.2445
21148SOL     OW64659   7.672   7.077   1.409 -1.1830  0.3212  0.5963
21148SOL    HW164660   7.719   7.006   1.453  1.3605  0.3824 -1.7534
21148SOL    HW264661   7.592   7.037   1.376 -0.5771 -1.0236  0.7170
21149SOL     OW64662   7.652   6.095   1.505  0.4724  0.5123 -0.6338
21149SOL    HW164663   7.713   6.073   1.575  0.9218  0.4296 -1.0512
21149SOL    HW264664   7.630   6.187   1.521 -0.2908  0.1944  0.2640
21150SOL     OW64665   7.782   6.678   0.364  0.1202 -0.3834  0.5788
21150SOL    HW164666   7.765   6.638   0.279 -0.9340 -1.2128  1.1568
21150SOL    HW264667   7.867   6.721   0.354  1.3040 -2.7271 -0.0816
21151SOL     OW64668   8.246   6.715   1.569 -0.2078 -0.7292  0.0651
21151SOL    HW164669   8.150   6.716   1.564 -0.2393 -1.3039  0.4796
21151SOL    HW264670   8.275   6.729   1.479 -0.6899 -0.8738 -0.1150
21152SOL     OW64671   7.536   6.707   0.885  0.5249 -0.3742 -0.0104
21152SOL    HW164672   7.588   6.787   0.877  1.7987 -0.8022  2.8380
21152SOL    HW264673   7.457   6.735   0.933 -0.7741 -0.2326 -2.0866
21153SOL     OW64674   8.136   6.651   1.044  0.2376  0.0078 -0.0468
21153SOL    HW164675   8.160   6.729   0.995  0.7612 -0.1432 -0.0365
21153SOL    HW264676   8.091   6.595   0.981  0.4859  0.0184 -0.2325
21154SOL     OW64677   7.796   7.351   1.482 -0.3503  0.1948  0.4705
21154SOL    HW164678   7.763   7.412   1.416 -0.3579  0.2746  0.5488
21154SOL    HW264679   7.884   7.382   1.502  0.6338 -1.2251 -1.2837
21155SOL     OW64680   7.935   6.198   0.721  0.5261  0.0381  0.9518
21155SOL    HW164681   7.879   6.143   0.666 -1.9782  1.7971  1.5617
21155SOL    HW264682   7.998   6.237   0.660 -1.0979  0.6171 -0.4312
21156SOL     OW64683   7.400   6.357   0.953 -0.5081  0.1029  0.1030
21156SOL    HW164684   7.450   6.280   0.981  2.2163  2.3209  1.8115
21156SOL    HW264685   7.419   6.365   0.859 -0.6523 -1.1346 -0.0469
21157SOL     OW64686   7.673   6.788   0.007 -0.0502 -0.0572 -0.4397
21157SOL    HW164687   7.600   6.823   0.058  0.3039  1.2307 -0.7614
21157SOL    HW264688   7.705   6.714   0.057 -0.0549  0.8370  0.9367
21158SOL     OW64689   8.729   6.519   0.290  0.6150 -0.4068  0.2567
21158SOL    HW164690   8.728   6.457   0.362  0.0356 -0.1787  0.4478
21158SOL    HW264691   8.637   6.545   0.279  0.2959 -2.1724 -2.0479
21159SOL     OW64692   7.343   5.935   1.007  0.4209  0.8874  0.4450
21159SOL    HW164693   7.425   5.947   0.959  0.2887 -0.6872 -0.2455
21159SOL    HW264694   7.358   5.977   1.091  1.8392  0.8854  0.2199
21160SOL     OW64695   7.968   6.796   0.799  0.3978  0.0032 -0.3017
21160SOL    HW164696   8.013   6.819   0.880  2.0563 -0.6408 -0.9945
21160SOL    HW264697   7.988   6.869   0.739 -1.7449  1.0359  0.1508
21161SOL     OW64698   8.823   6.672   1.048  0.1153 -0.2071  0.1200
21161SOL    HW164699   8.785   6.622   1.121 -0.0749 -0.0634  0.1182
21161SOL    HW264700   8.903   6.710   1.085  2.0099 -3.0800 -0.7189
21162SOL     OW64701   8.287   5.425   0.847  0.0349 -0.2005  0.5467
21162SOL    HW164702   8.259   5.516   0.842  0.0296 -0.0494  2.5172
21162SOL    HW264703   8.241   5.382   0.775 -0.5568  1.2060  0.0495
21163SOL     OW64704   7.871   6.632   1.473  0.4881  0.1468  0.0190
21163SOL    HW164705   7.906   6.610   1.386  2.1707  2.2611  0.0698
21163SOL    HW264706   7.782   6.661   1.456  0.4880 -0.3181 -0.8749
21164SOL     OW64707   8.666   7.247   1.426 -0.7802 -0.1511 -0.0761
21164SOL    HW164708   8.634   7.157   1.436  1.1383 -0.8348  0.3507
21164SOL    HW264709   8.692   7.253   1.334  1.5649 -0.9743  0.4593
21165SOL     OW64710   8.353   5.932   1.905  0.2457  0.5074 -0.0110
21165SOL    HW164711   8.411   5.899   1.974 -1.0212 -0.4550  0.6240
21165SOL    HW264712   8.315   6.012   1.941  1.3258  1.2886 -0.5314
21166SOL     OW64713   7.585   6.135   0.796 -0.2133 -0.2157  0.4752
21166SOL    HW164714   7.606   6.077   0.723 -1.4221 -0.3380  0.1918
21166SOL    HW264715   7.592   6.223   0.760 -3.5712 -0.2833 -0.7159
21167SOL     OW64716   8.527   5.860   0.478  0.5055 -0.6295 -0.4094
21167SOL    HW164717   8.492   5.774   0.455 -0.9596 -0.7170  1.7715
21167SOL    HW264718   8.597   5.841   0.540 -2.1613 -0.3879  3.0325
21168SOL     OW64719   8.444   6.039   1.205 -0.1348 -0.7838  0.2647
21168SOL    HW164720   8.526   6.002   1.241  1.0883  0.1647 -1.4066
21168SOL    HW264721   8.469   6.070   1.118 -1.7540  1.5799  0.5788
21169SOL     OW64722   0.015   5.977   1.753 -0.0926  0.0674 -0.4855
21169SOL    HW164723   0.077   5.915   1.715 -0.2481 -0.7831  0.6227
21169SOL    HW264724   0.040   6.061   1.715  1.3813 -0.3425 -0.4857
21170SOL     OW64725   8.510   6.544   1.785 -0.1637  0.1785  0.0740
21170SOL    HW164726   8.545   6.501   1.707  2.7485 -0.4455  1.5807
21170SOL    HW264727   8.543   6.491   1.858 -2.5780  0.8721  1.7648
21171SOL     OW64728   8.550   6.293   0.883 -0.1207 -0.3420 -0.0919
21171SOL    HW164729   8.567   6.199   0.894 -1.1742 -0.6890 -1.1978
21171SOL    HW264730   8.570   6.331   0.968  0.7990 -1.4950  0.2372
21172SOL     OW64731   8.143   6.223   0.543 -0.8068  0.2162 -0.4491
21172SOL    HW164732   8.211   6.277   0.583 -0.1355  0.2488 -1.5917
21172SOL    HW264733   8.190   6.155   0.495 -1.5858 -0.0101 -0.9180
21173SOL     OW64734   7.316   6.329   0.685  0.0222 -0.0469 -0.2128
21173SOL    HW164735   7.314   6.425   0.688 -0.4877 -0.0029 -1.4506
21173SOL    HW264736   7.308   6.308   0.592 -0.8283 -1.3210  0.1314
21174SOL     OW64737   7.298   7.451   1.795 -0.0709 -0.0279  1.0975
21174SOL    HW164738   7.279   7.445   1.701  0.6882 -2.0915  1.0304
21174SOL    HW264739   7.212   7.459   1.836 -0.5072 -0.4457  0.2926
21175SOL     OW64740   8.251   5.668   0.205  0.2117 -0.0079 -0.5985
21175SOL    HW164741   8.301   5.656   0.124 -0.4578  1.3214 -1.2542
21175SOL    HW264742   8.161   5.643   0.181 -0.1905  1.3579 -0.5683
21176SOL     OW64743   0.108   7.175   0.530  0.3491  0.1168 -0.6488
21176SOL    HW164744   0.151   7.133   0.605 -1.8089 -0.0958  0.5339
21176SOL    HW264745   0.139   7.265   0.533  1.9499 -0.3823 -0.8461
21177SOL     OW64746   7.999   5.508   1.153  0.1932  0.4735 -0.6680
21177SOL    HW164747   7.963   5.516   1.064  0.0018 -0.8626 -0.7353
21177SOL    HW264748   7.977   5.591   1.195 -0.2571  0.8896 -1.6781
21178SOL     OW64749   8.614   7.271   0.359 -0.0948 -0.3775 -0.2428
21178SOL    HW164750   8.680   7.276   0.290  1.4728 -0.9129  1.1679
21178SOL    HW264751   8.648   7.206   0.421 -0.8466  0.9406  1.6514
21179SOL     OW64752   8.102   7.248   0.836 -0.3392 -0.3919  0.5171
21179SOL    HW164753   8.100   7.296   0.753 -4.0115  2.1761  1.8410
21179SOL    HW264754   8.191   7.261   0.870  0.4524  0.6766 -1.7597
21180SOL     OW64755   8.592   6.982   1.471  0.0743 -0.7467  0.1397
21180SOL    HW164756   8.665   6.936   1.512 -0.5454 -2.0688 -0.1721
21180SOL    HW264757   8.545   6.914   1.423 -0.9592  0.2063 -0.2439
21181SOL     OW64758   7.709   6.542   0.118  0.7601 -0.3649  0.2632
21181SOL    HW164759   7.750   6.458   0.097  1.9604  0.4206 -0.6167
21181SOL    HW264760   7.623   6.518   0.155  1.1685 -1.9684  0.2382
21182SOL     OW64761   7.995   6.867   1.851  0.1403  0.8728  0.1880
21182SOL    HW164762   8.057   6.930   1.814  1.2419 -0.0743  0.3618
21182SOL    HW264763   7.940   6.919   1.910  2.5657  1.3206  2.1934
21183SOL     OW64764   7.997   7.674   0.184 -0.6458 -0.1138  1.0703
21183SOL    HW164765   8.013   7.581   0.169  1.5692  0.1875  1.1966
21183SOL    HW264766   8.079   7.717   0.159 -1.7623  1.8792  0.5464
21184SOL     OW64767   7.949   5.801   1.798 -0.5141 -0.3174 -0.4639
21184SOL    HW164768   7.958   5.897   1.799  0.1793 -0.3315  2.0550
21184SOL    HW264769   8.022   5.771   1.744  1.0389  0.5382  1.0306
21185SOL     OW64770   0.244   7.334   0.229  0.0454 -0.1416 -0.3678
21185SOL    HW164771   0.252   7.248   0.189  1.2776 -0.4837  0.5446
21185SOL    HW264772   0.334   7.359   0.250 -0.1000  2.0851 -2.0648
21186SOL     OW64773   7.892   7.020   0.115  0.0151  0.1137 -0.5010
21186SOL    HW164774   7.948   7.093   0.090  0.5881 -0.5249 -1.1158
21186SOL    HW264775   7.842   7.000   0.037 -0.0926 -0.1977 -0.3527
21187SOL     OW64776   7.517   7.295   1.469  0.3691 -0.0593  0.1286
21187SOL    HW164777   7.548   7.385   1.457 -0.6336  0.2016 -0.6219
21187SOL    HW264778   7.596   7.242   1.465  0.8708  0.7098 -0.4068
21188SOL     OW64779   8.323   6.982   1.211  0.0967 -0.2482  0.3643
21188SOL    HW164780   8.325   6.937   1.127 -0.3254 -0.0006  0.2205
21188SOL    HW264781   8.256   7.049   1.201 -0.4533 -0.6673  1.1213
21189SOL     OW64782   7.744   6.080   0.483 -0.4453  0.0121 -0.6067
21189SOL    HW164783   7.777   6.015   0.421  0.6964 -0.0182 -0.0038
21189SOL    HW264784   7.698   6.028   0.549  0.2887 -0.1798 -0.2347
21190SOL     OW64785   8.213   5.754   1.740 -0.6834  0.6951 -0.3803
21190SOL    HW164786   8.278   5.775   1.673  0.1080  0.2694  0.2511
21190SOL    HW264787   8.253   5.782   1.822  0.2787 -2.7790  0.5002
21191SOL     OW64788   7.697   7.290   1.734  0.1348  0.2896  0.0215
21191SOL    HW164789   7.789   7.267   1.748 -0.3051 -1.2067  0.6937
21191SOL    HW264790   7.692   7.310   1.640  0.9982 -0.3606 -0.1853
21192SOL     OW64791   8.643   6.338   1.633 -0.2809  0.0269  0.8548
21192SOL    HW164792   8.600   6.282   1.699 -1.0980 -0.5668 -0.1510
21192SOL    HW264793   8.626   6.294   1.550 -0.1078  1.2807  0.1342
21193SOL     OW64794   8.064   6.931   1.047  0.1265  0.1001  0.2092
21193SOL    HW164795   8.060   7.025   1.035 -1.8529  0.0582  0.1924
21193SOL    HW264796   8.009   6.913   1.123 -0.1858 -1.0969 -0.2618
21194SOL     OW64797   8.292   6.033   0.860  0.1721  0.0156  0.2229
21194SOL    HW164798   8.220   6.065   0.914 -0.7639  1.7968 -1.8979
21194SOL    HW264799   8.327   6.112   0.818  1.5524 -1.1336 -0.9067
21195SOL     OW64800   8.108   5.674   0.922  0.0604  0.3307 -0.2170
21195SOL    HW164801   8.047   5.715   0.983 -0.2437 -2.1200  1.2925
21195SOL    HW264802   8.075   5.697   0.835 -2.1395  0.3342  0.5552
21196SOL     OW64803   8.379   7.340   8.817  0.4326  0.2375 -0.2708
21196SOL    HW164804   8.469   7.371   8.825  0.4755  0.6359 -1.9331
21196SOL    HW264805   8.375   7.265   8.876  2.1017 -0.2898 -0.7624
21197SOL     OW64806   8.608   5.305   0.283 -0.6991 -0.8640 -0.4442
21197SOL    HW164807   8.695   5.301   0.245 -0.7492 -3.2770 -0.4508
21197SOL    HW264808   8.624   5.315   0.377 -0.4034 -1.1969 -0.4553
21198SOL     OW64809   8.743   6.518   1.267  0.5213  0.0361 -0.2090
21198SOL    HW164810   8.786   6.546   1.348  0.3644 -1.2396  0.3464
21198SOL    HW264811   8.751   6.423   1.268 -1.2563 -0.1523 -0.6935
21199SOL     OW64812   8.525   7.047   0.829  0.3167  0.2415 -0.2620
21199SOL    HW164813   8.521   7.138   0.799 -1.8214 -0.5440 -2.7863
21199SOL    HW264814   8.508   7.053   0.923  2.6451  2.5495  0.1445
21200SOL     OW64815   7.808   6.586   0.641  0.3616 -0.2691 -0.5975
21200SOL    HW164816   7.834   6.658   0.699  0.8805 -0.1748 -0.9412
21200SOL    HW264817   7.821   6.620   0.553  0.3861 -0.7097 -0.7672
21201SOL     OW64818   8.350   7.206   0.238 -0.5040  0.4614 -0.1007
21201SOL    HW164819   8.433   7.193   0.284 -0.5816 -2.1266 -0.5041
21201SOL    HW264820   8.283   7.181   0.302 -0.9004  1.2650 -0.1907
21202SOL     OW64821   8.718   6.303   0.089  0.1629  0.5873 -0.1657
21202SOL    HW164822   8.677   6.275   0.007  1.9680  1.8004 -1.5565
21202SOL    HW264823   8.644   6.329   0.145 -1.2163 -1.7467 -0.7473
21203SOL     OW64824   7.819   6.021   1.294 -0.3437  0.1958  0.4394
21203SOL    HW164825   7.861   6.103   1.267 -1.7961  0.9817  0.4686
21203SOL    HW264826   7.762   6.046   1.367 -1.4172 -0.6662 -0.0660
21204SOL     OW64827   7.816   5.523   1.419  0.3442  0.2042 -0.3964
21204SOL    HW164828   7.890   5.466   1.438 -0.9134 -0.9993  1.2041
21204SOL    HW264829   7.854   5.612   1.417  1.8769 -0.4061 -0.0448
21205SOL     OW64830   8.477   5.630   0.375 -0.0078 -0.2108  0.5133
21205SOL    HW164831   8.396   5.629   0.325 -0.3634  1.9765  0.9620
21205SOL    HW264832   8.546   5.640   0.309 -0.2458 -0.2362  0.2617
21206SOL     OW64833   8.506   5.353   0.671  0.1004 -0.4819  0.3622
21206SOL    HW164834   8.433   5.381   0.726 -0.1447 -0.2560 -0.0685
21206SOL    HW264835   8.584   5.384   0.717 -0.1467  0.6081  0.0894
21207SOL     OW64836   8.007   6.794   0.216 -0.0117  0.1641 -0.2729
21207SOL    HW164837   7.959   6.871   0.187 -0.8156 -0.2342 -0.0261
21207SOL    HW264838   8.023   6.745   0.135 -0.5057  0.0290 -0.2919
21208SOL     OW64839   0.031   6.512   8.799  0.1164 -0.2804 -0.4367
21208SOL    HW164840  -0.047   6.547   8.756 -0.2336  0.8367  1.0603
21208SOL    HW264841  -0.002   6.465   8.875  0.9176  1.6851  1.2278
21209SOL     OW64842   8.323   6.049   0.401  0.2255 -0.4596 -0.0022
21209SOL    HW164843   8.367   5.966   0.415  1.8457 -0.0811 -2.4064
21209SOL    HW264844   8.260   6.032   0.331  2.8499  0.9339 -2.9094
21210SOL     OW64845   8.468   6.773   1.358 -0.2665  0.5532  0.2684
21210SOL    HW164846   8.437   6.685   1.332 -0.2652  0.1413  1.6033
21210SOL    HW264847   8.427   6.832   1.294  0.1394 -0.4563 -0.9613
21211SOL     OW64848   8.765   6.659   0.793 -0.4644  0.1062 -0.0516
21211SOL    HW164849   8.791   6.651   0.885 -0.1401  0.4896 -0.1064
21211SOL    HW264850   8.845   6.642   0.744 -0.7133 -0.4507 -0.2810
21212SOL     OW64851   8.438   5.793   1.561  0.3733 -0.2371 -0.5287
21212SOL    HW164852   8.479   5.762   1.480  0.3429 -1.1973 -0.1883
21212SOL    HW264853   8.485   5.747   1.630  0.9997  1.2479  0.0701
21213SOL     OW64854   8.218   6.496   1.741  0.4907  0.3956 -0.0156
21213SOL    HW164855   8.171   6.578   1.731 -0.5854 -0.1236  0.5479
21213SOL    HW264856   8.310   6.521   1.747  0.2940  1.4443 -1.0737
21214SOL     OW64857   8.264   6.573   0.095 -0.2662  0.4864  0.5344
21214SOL    HW164858   8.172   6.585   0.072 -0.2121 -0.7865 -0.4614
21214SOL    HW264859   8.271   6.480   0.114  0.8658  0.5362  0.3869
21215SOL     OW64860   7.891   6.536   1.212 -0.1568  0.0500  0.5172
21215SOL    HW164861   7.834   6.523   1.137  1.7609 -2.0490 -0.7186
21215SOL    HW264862   7.968   6.581   1.175  0.1712  0.3681  1.5648
21216SOL     OW64863   8.699   5.952   1.298  0.1794 -0.1141 -0.4517
21216SOL    HW164864   8.775   5.928   1.350  0.8832  2.0013 -0.4202
21216SOL    HW264865   8.643   5.874   1.300  1.4936 -1.0784  1.0349
21217SOL     OW64866   7.273   7.239   1.597 -0.3032 -0.2112 -0.0141
21217SOL    HW164867   7.317   7.203   1.673  0.2397 -1.8407 -1.0529
21217SOL    HW264868   7.341   7.248   1.531 -1.3429 -2.3753 -1.5118
21218SOL     OW64869   7.463   6.557   0.256 -0.1673  0.4655 -0.4715
21218SOL    HW164870   7.506   6.488   0.307  0.1240  0.2646 -0.9836
21218SOL    HW264871   7.448   6.627   0.320 -1.9150 -0.6568  0.4548
21219SOL     OW64872   8.377   5.766   0.958  0.4234 -0.1117  0.1630
21219SOL    HW164873   8.294   5.765   1.007  0.6176  1.3902  0.5652
21219SOL    HW264874   8.361   5.825   0.884  1.1431  0.2450  0.2811
21220SOL     OW64875   8.806   7.069   0.193 -0.2899 -0.2986  0.2612
21220SOL    HW164876   8.749   7.047   0.266 -0.9913 -1.2831 -0.5612
21220SOL    HW264877   8.806   6.991   0.137  2.1943 -0.5025  0.4167
21221SOL     OW64878   7.887   7.004   1.579 -0.4752  0.3696 -0.2955
21221SOL    HW164879   7.859   7.086   1.539 -1.8795  0.9296  1.6778
21221SOL    HW264880   7.824   6.989   1.649  2.1360 -0.2607  2.0759
21222SOL     OW64881   7.627   6.940   1.703 -0.3931  0.3725 -0.3846
21222SOL    HW164882   7.559   6.875   1.685  0.1513 -0.3914  0.2352
21222SOL    HW264883   7.580   7.016   1.736 -0.9103 -0.3747  0.6386
21223SOL     OW64884   7.954   6.375   2.162 -0.3553  0.4998 -0.0734
21223SOL    HW164885   8.047   6.381   2.183 -0.2223 -1.5868  0.1218
21223SOL    HW264886   7.942   6.438   2.091  1.3332  0.3984 -0.4950
21224SOL     OW64887   8.273   5.779   2.255 -0.1808  0.4859  0.0503
21224SOL    HW164888   8.235   5.863   2.280  3.3032  1.5675  2.4833
21224SOL    HW264889   8.351   5.802   2.203  1.1170 -1.1425  1.1677
21225SOL     OW64890   8.140   5.438   2.038 -0.1125  0.4208  0.2942
21225SOL    HW164891   8.164   5.419   2.129  0.5660  0.6079  0.1619
21225SOL    HW264892   8.058   5.391   2.025  1.1317 -1.8506  0.1812
21226SOL     OW64893   7.998   6.265   1.196  0.4724 -0.2341  0.0119
21226SOL    HW164894   7.989   6.359   1.208  0.5428 -0.1732 -0.3829
21226SOL    HW264895   8.071   6.240   1.253  0.5946 -0.0120 -0.0477
21227SOL     OW64896   8.537   6.480   1.103  0.3972 -0.1891  0.5374
21227SOL    HW164897   8.461   6.509   1.154  0.0513 -0.1452 -0.0052
21227SOL    HW264898   8.610   6.487   1.165  0.2043  1.1525  0.6399
21228SOL     OW64899   8.476   6.258   0.253 -0.4681 -0.1872 -0.5319
21228SOL    HW164900   8.470   6.169   0.286 -0.6607 -0.2283 -0.6753
21228SOL    HW264901   8.453   6.313   0.327  0.8600 -0.2004 -0.0818
21229SOL     OW64902   7.912   5.784   1.404 -0.8177  0.3842 -0.1718
21229SOL    HW164903   7.882   5.867   1.368  0.2929  1.3379  1.0382
21229SOL    HW264904   7.994   5.804   1.448 -0.2669 -1.4488 -0.2441
21230SOL     OW64905   7.778   6.895   1.218 -0.0168 -0.1663  0.4474
21230SOL    HW164906   7.851   6.935   1.265  0.6415 -1.9980  1.0535
21230SOL    HW264907   7.752   6.821   1.272 -0.2424 -1.4337 -1.3110
21231SOL     OW64908   8.096   6.193   0.946  0.0377 -0.1248  0.5780
21231SOL    HW164909   8.028   6.191   0.879 -0.3662  0.6915  0.9458
21231SOL    HW264910   8.052   6.225   1.025  0.9354  0.9405  0.6816
21232SOL     OW64911   7.669   5.790   0.889  0.3958 -0.3284  0.1716
21232SOL    HW164912   7.712   5.705   0.883  1.3968  0.1716 -0.0622
21232SOL    HW264913   7.617   5.785   0.969  1.5023 -0.7096  0.9027
21233SOL     OW64914   0.136   6.070   0.891 -0.4118 -0.6656  0.1370
21233SOL    HW164915   0.191   5.994   0.909 -0.0291 -0.7262 -1.2139
21233SOL    HW264916   0.124   6.112   0.977  1.0463 -1.1150  0.5842
21234SOL     OW64917   8.298   6.277   0.780 -0.4036 -0.4136  0.6672
21234SOL    HW164918   8.229   6.298   0.843 -1.2012  0.7206 -0.5216
21234SOL    HW264919   8.377   6.315   0.817 -1.3404  2.6173 -0.1802
21235SOL     OW64920   8.829   7.160   1.793  0.6453 -0.3933  0.9776
21235SOL    HW164921   8.780   7.083   1.763  0.7204 -0.6881  1.6025
21235SOL    HW264922   8.775   7.234   1.768  2.2947 -0.3078 -3.2242
21236SOL     OW64923   7.727   6.475   2.412 -0.2678  0.1703 -0.5112
21236SOL    HW164924   7.729   6.422   2.333 -0.8423  0.6209 -0.8320
21236SOL    HW264925   7.702   6.414   2.481  1.3718 -0.4892 -0.4387
21237SOL     OW64926   0.005   6.849   0.035 -0.1814  0.0873  0.4867
21237SOL    HW164927  -0.000   6.760   0.069  1.1358  0.6233  2.2380
21237SOL    HW264928   0.084   6.849  -0.019 -1.0277 -0.1746 -0.7860
21238SOL     OW64929   8.320   6.975   0.606  0.0628  0.2851 -0.0178
21238SOL    HW164930   8.260   6.911   0.568  0.4649  0.3253 -0.7383
21238SOL    HW264931   8.293   6.982   0.698 -1.0651  0.3460 -0.3433
21239SOL     OW64932   7.620   6.391   0.678 -0.2162 -0.1959 -0.2926
21239SOL    HW164933   7.683   6.460   0.698 -0.3736 -0.2397  0.3975
21239SOL    HW264934   7.568   6.426   0.605 -0.4856  0.5408  0.2402
21240SOL     OW64935   7.664   5.867   0.634 -0.4550  0.2933 -0.1279
21240SOL    HW164936   7.749   5.839   0.601 -0.5383  0.8693 -0.8624
21240SOL    HW264937   7.658   5.828   0.721 -0.9976 -2.7403 -1.4257
21241SOL     OW64938   8.599   5.854   1.810 -0.3890  0.4161 -0.0331
21241SOL    HW164939   8.516   5.900   1.822  0.5837  2.6405 -1.3438
21241SOL    HW264940   8.656   5.917   1.767  1.8799 -1.1929  0.4308
21242SOL     OW64941   8.528   5.601   1.774  0.4189 -0.2664  0.2961
21242SOL    HW164942   8.489   5.568   1.855  0.4708  0.8817  0.8136
21242SOL    HW264943   8.554   5.691   1.795 -0.4813  0.4131 -1.2697
21243SOL     OW64944   7.581   7.437   0.975 -0.2130  0.1560  0.1828
21243SOL    HW164945   7.534   7.366   1.020 -1.8202 -0.2145 -1.9281
21243SOL    HW264946   7.659   7.395   0.939  0.4662  0.1979  1.5484
21244SOL     OW64947   7.761   7.060   0.632 -0.1253 -0.1160 -0.7192
21244SOL    HW164948   7.843   7.060   0.681 -0.8644  0.5535  0.5569
21244SOL    HW264949   7.786   7.032   0.544  1.8202  2.0363 -0.9410
21245SOL     OW64950   8.211   6.358   1.410  0.5417 -0.1335  0.0537
21245SOL    HW164951   8.215   6.263   1.426  2.4451 -0.0399  0.3698
21245SOL    HW264952   8.220   6.397   1.497  0.9854  0.3245 -0.1896
21246SOL     OW64953   7.694   6.515   0.987 -0.7036  0.6527 -0.5802
21246SOL    HW164954   7.630   6.446   1.008 -0.7793  0.8378 -0.1866
21246SOL    HW264955   7.643   6.580   0.938 -0.3350 -0.1786 -2.1260
21247SOL     OW64956   7.567   6.383   2.197  0.1050  0.4127 -0.4401
21247SOL    HW164957   7.621   6.434   2.136  0.8795  0.2456  0.0978
21247SOL    HW264958   7.531   6.448   2.257  0.2783  0.4402 -0.3666
21248SOL     OW64959   8.170   5.991   0.165 -0.4307 -0.6266  0.4110
21248SOL    HW164960   8.221   5.910   0.152 -0.2524 -0.4986  0.3008
21248SOL    HW264961   8.084   5.971   0.129  0.3296  0.0418 -1.9462
21249SOL     OW64962   7.690   6.563   2.029  0.1614 -0.0771  0.4212
21249SOL    HW164963   7.655   6.652   2.019  0.2871 -0.0298  0.4060
21249SOL    HW264964   7.785   6.574   2.026  0.1796 -0.4695 -1.9061
21250SOL     OW64965   8.326   5.569   1.282  0.2124  0.2704 -0.2224
21250SOL    HW164966   8.385   5.519   1.338 -0.6964  0.7748  1.2456
21250SOL    HW264967   8.272   5.503   1.238 -0.9956 -0.1051  1.7128
21251SOL     OW64968   7.985   7.252   1.772 -0.5773 -0.6167 -0.2788
21251SOL    HW164969   8.017   7.202   1.847 -1.4517 -0.4029  0.2406
21251SOL    HW264970   8.050   7.235   1.703  0.6423 -0.2166  0.7364
21252SOL     OW64971   8.015   5.566   0.073 -0.1815  0.3923 -0.0441
21252SOL    HW164972   7.994   5.503   0.005 -0.0415 -0.3629  0.5984
21252SOL    HW264973   7.932   5.577   0.121  0.2984 -0.9043  1.1279
21253SOL     OW64974   7.732   6.335   1.621  0.3623  0.0888 -0.4662
21253SOL    HW164975   7.781   6.291   1.690  0.1411 -1.1222 -1.0505
21253SOL    HW264976   7.771   6.423   1.615  0.4217  0.1954  1.1253
21254SOL     OW64977   0.123   6.392   0.973 -0.0020  0.2436 -0.5125
21254SOL    HW164978   0.065   6.345   0.912 -0.4556  0.8456 -0.5618
21254SOL    HW264979   0.090   6.482   0.971  0.8772  0.5704 -0.4562
21255SOL     OW64980   8.389   6.633   8.698  0.2734  0.4922 -0.7539
21255SOL    HW164981   8.364   6.624   8.790  1.8837  1.1482 -0.2143
21255SOL    HW264982   8.325   6.694   8.662 -0.3006  0.3260 -0.0512
21256SOL     OW64983   0.086   7.151   1.422 -0.7391 -0.3620  0.0106
21256SOL    HW164984   0.076   7.117   1.333 -0.4803 -1.3487  0.3360
21256SOL    HW264985   0.001   7.189   1.443 -0.9204 -0.4623 -0.5260
21257SOL     OW64986   7.604   6.695   1.416 -0.0560 -0.0869  0.2464
21257SOL    HW164987   7.543   6.704   1.489  1.4068  0.3661  1.4841
21257SOL    HW264988   7.561   6.636   1.355 -1.2811 -0.6015  1.5528
21258SOL     OW64989   7.670   7.085   2.035 -0.0247 -0.4075 -0.0660
21258SOL    HW164990   7.632   7.112   2.119  0.3191 -2.0241  0.6460
21258SOL    HW264991   7.761   7.113   2.040 -0.8276  3.0221 -1.5717
21259SOL     OW64992   8.586   5.676   0.120  0.4462 -0.3544  0.1585
21259SOL    HW164993   8.654   5.621   0.082  0.6593  1.2487 -1.9595
21259SOL    HW264994   8.508   5.659   0.067 -0.0607 -0.1957  0.8428
21260SOL     OW64995   8.533   7.329   0.788 -0.6659 -0.0252  0.3221
21260SOL    HW164996   8.587   7.399   0.826 -0.0747 -0.4582  0.2880
21260SOL    HW264997   8.540   7.342   0.693  0.2512 -0.7233  0.2855
21261SOL     OW64998   7.628   6.815   1.959  0.2547  0.0024 -0.4397
21261SOL    HW164999   7.666   6.839   1.874  0.5517  2.1006  0.2242
21261SOL    HW265000   7.631   6.896   2.010  1.4033 -1.5224  2.1000
21262SOL     OW65001   8.727   7.074   0.488  0.0504  0.1764  0.3008
21262SOL    HW165002   8.719   7.001   0.549  1.5874 -1.6928 -1.5696
21262SOL    HW265003   8.814   7.110   0.505  0.5569 -0.4596 -0.8123
21263SOL     OW65004   7.996   7.023   1.326 -0.3047  0.1159  0.0913
21263SOL    HW165005   8.073   7.078   1.313  0.3409 -0.4217  1.3875
21263SOL    HW265006   7.992   7.011   1.421 -2.0142  0.1557  0.0463
21264SOL     OW65007   8.146   6.802   0.460 -0.2792  0.3330  0.0010
21264SOL    HW165008   8.064   6.780   0.416 -1.3408  3.5828  0.0308
21264SOL    HW265009   8.158   6.734   0.526 -2.4617 -0.7226 -0.6008
21265SOL     OW65010   7.899   5.775   0.546  0.2069 -0.5877  0.4762
21265SOL    HW165011   7.989   5.795   0.569  0.1049  0.2726  0.1607
21265SOL    HW265012   7.904   5.691   0.499  0.9711 -0.0629 -0.4236
21266SOL     OW65013   8.741   7.289   8.435  0.2718 -0.0980  0.0385
21266SOL    HW165014   8.686   7.347   8.488 -0.7538 -0.1794 -0.9089
21266SOL    HW265015   8.691   7.274   8.355  0.6691 -2.0138  0.1018
21267SOL     OW65016   8.211   6.097   1.334 -0.1930 -0.3232  0.0986
21267SOL    HW165017   8.258   6.099   1.251  0.7768 -0.7319  0.6294
21267SOL    HW265018   8.212   6.005   1.360 -0.8214 -0.2571  0.3805
21268SOL     OW65019   8.000   6.270   0.309  0.1062  0.4865  0.1440
21268SOL    HW165020   8.086   6.284   0.269 -0.1857 -0.3100 -0.8036
21268SOL    HW265021   8.019   6.255   0.401  0.8288  2.0139  0.2714
21269SOL     OW65022   7.326   6.527   2.008 -0.1308 -0.1080 -0.4449
21269SOL    HW165023   7.296   6.464   1.943  0.1570 -2.4863  1.5897
21269SOL    HW265024   7.422   6.522   2.003 -0.1042  0.4172 -0.4971
21270SOL     OW65025   8.481   6.652   0.845 -0.5685  0.0070  0.4731
21270SOL    HW165026   8.503   6.599   0.921  0.3665 -0.7774 -0.3134
21270SOL    HW265027   8.562   6.655   0.794 -1.3751 -0.1052 -0.8527
21271SOL     OW65028   8.561   6.054   0.948  0.0483  0.5520 -0.7156
21271SOL    HW165029   8.495   5.997   0.910 -0.7533  0.2213  1.0499
21271SOL    HW265030   8.632   5.995   0.975 -0.0304  0.6010 -0.3986
21272SOL     OW65031   8.127   7.098   0.381 -0.5982  0.2515  0.3192
21272SOL    HW165032   8.135   7.002   0.384 -0.2172  0.1650 -1.7444
21272SOL    HW265033   8.037   7.114   0.356  0.0294  0.2614 -2.2319
21273SOL     OW65034   7.493   6.752   0.486  0.7616 -0.2120 -0.8821
21273SOL    HW165035   7.574   6.759   0.435  2.3155  0.7767  1.5565
21273SOL    HW265036   7.495   6.827   0.545 -1.3205 -0.8844  0.1528
21274SOL     OW65037   7.950   6.593   2.006 -0.0216 -0.3340 -0.1522
21274SOL    HW165038   7.974   6.670   2.057 -2.7073  1.2937 -1.1164
21274SOL    HW265039   7.984   6.612   1.918 -0.9698 -0.0903 -0.4687
21275SOL     OW65040   8.226   5.829   1.368  0.0658  0.0661  0.5830
21275SOL    HW165041   8.256   5.766   1.303  0.5938  1.7875 -0.9280
21275SOL    HW265042   8.279   5.810   1.446  1.1315 -0.5417 -0.2569
21276SOL     OW65043   7.606   6.113   8.583 -0.5143 -0.0600  0.0536
21276SOL    HW165044   7.609   6.037   8.525  1.8203 -0.1762  0.2317
21276SOL    HW265045   7.588   6.187   8.525  0.2981 -0.3634 -0.5913
21277SOL     OW65046   0.276   6.281   1.181  0.5457 -0.3212  0.6011
21277SOL    HW165047   0.220   6.294   1.104  1.0195 -1.2669  0.0758
21277SOL    HW265048   0.254   6.354   1.239 -1.6975 -1.0175  0.7114
21278SOL     OW65049   7.410   5.433   0.298  0.0002  0.1029 -0.7040
21278SOL    HW165050   7.356   5.450   0.374  1.2060  0.3883  0.1199
21278SOL    HW265051   7.360   5.370   0.246 -1.6736  1.3204 -0.6302
21279SOL     OW65052   8.388   7.344   8.522  0.6113 -0.2308 -0.0960
21279SOL    HW165053   8.336   7.348   8.601  1.4111 -1.9759  0.5710
21279SOL    HW265054   8.466   7.397   8.541  1.4148 -1.6814  0.8143
21280SOL     OW65055   7.957   6.165   1.723  0.2856 -0.8834 -0.0801
21280SOL    HW165056   7.975   6.152   1.816  1.8893  1.7784  0.0879
21280SOL    HW265057   8.043   6.156   1.681 -0.4013 -1.9221 -1.3048
21281SOL     OW65058   8.507   6.086   1.553 -0.5226  0.8196  0.5330
21281SOL    HW165059   8.417   6.120   1.560 -0.1770  1.8006  0.3954
21281SOL    HW265060   8.496   5.992   1.541 -1.5444  0.9619  0.2253
21282SOL     OW65061   0.254   6.501   1.368  0.0294  0.5119  0.1856
21282SOL    HW165062   0.194   6.462   1.431  0.6980 -3.3456 -1.2563
21282SOL    HW265063   0.339   6.498   1.411  0.0590  0.4996  0.1267
21283SOL     OW65064   7.476   7.159   1.817  0.0149 -0.2087 -0.2781
21283SOL    HW165065   7.561   7.185   1.782  1.1451 -1.2975  1.4659
21283SOL    HW265066   7.487   7.163   1.912 -1.3424 -1.9880  0.0168
21284SOL     OW65067   8.704   6.085   0.426 -0.4027 -0.1631 -0.1998
21284SOL    HW165068   8.651   6.007   0.410 -0.4071  0.0083 -1.0534
21284SOL    HW265069   8.734   6.075   0.517 -0.7712 -0.9323 -0.1518
21285SOL     OW65070   7.983   6.456   0.893 -0.2458  0.0421  0.5902
21285SOL    HW165071   8.006   6.368   0.864 -0.9833  1.0105 -3.4191
21285SOL    HW265072   7.889   6.463   0.876  0.1266  2.1313 -0.8700
21286SOL     OW65073   8.351   6.857   0.082  0.1623  0.3909 -0.3551
21286SOL    HW165074   8.273   6.870   0.135 -0.0614 -1.9954  0.0376
21286SOL    HW265075   8.420   6.835   0.146  0.5168 -0.0103 -0.8650
21287SOL     OW65076   7.804   7.234   1.163 -0.4262 -0.4639  0.0515
21287SOL    HW165077   7.755   7.174   1.219 -1.0642 -1.0389 -1.0826
21287SOL    HW265078   7.864   7.279   1.223  0.9560 -3.0821  0.7831
21288SOL     OW65079   8.366   6.855   0.932  0.3534  0.0400 -0.1402
21288SOL    HW165080   8.419   6.907   0.871  1.6629 -1.5946 -0.4876
21288SOL    HW265081   8.382   6.764   0.905 -0.2399 -0.6508  1.6900
21289SOL     OW65082   8.465   6.336   8.776 -1.0504 -0.2780 -0.3189
21289SOL    HW165083   8.457   6.243   8.794 -0.5352 -0.4485 -0.9755
21289SOL    HW265084   8.406   6.352   8.702  0.4035 -0.4926 -1.5636
21290SOL     OW65085   7.710   6.735   2.309 -0.0282  0.1141  0.5869
21290SOL    HW165086   7.705   6.645   2.342  0.6392 -0.2041 -0.1287
21290SOL    HW265087   7.619   6.761   2.296 -0.2812  0.0321  2.0642
21291SOL     OW65088   7.707   6.912   0.960  0.2556  0.2962  0.4271
21291SOL    HW165089   7.780   6.908   0.898  1.0300  0.1605  1.3232
21291SOL    HW265090   7.749   6.919   1.046 -0.7640 -1.2658  1.0963
21292SOL     OW65091   7.968   6.637   1.723 -0.4949 -0.3666  0.3766
21292SOL    HW165092   7.972   6.723   1.765  0.5133 -0.1541 -0.1229
21292SOL    HW265093   7.923   6.652   1.640 -1.1678 -0.5089  0.7101
21293SOL     OW65094   7.694   5.958   0.196 -0.0194 -0.4241 -0.1854
21293SOL    HW165095   7.628   5.996   0.138  1.1995  1.5172 -0.4258
21293SOL    HW265096   7.719   5.876   0.154 -1.5466 -0.6931 -0.6066
21294SOL     OW65097   7.957   5.803   1.114  0.4999  0.8171  0.2028
21294SOL    HW165098   7.993   5.864   1.179  0.3474  0.4967  0.5907
21294SOL    HW265099   7.863   5.821   1.113  0.2806 -0.1213  1.1041
21295SOL     OW65100   8.329   7.319   0.975 -0.0894 -1.1129 -0.4787
21295SOL    HW165101   8.346   7.396   1.030 -1.8657 -1.7105  1.0211
21295SOL    HW265102   8.398   7.321   0.909  0.7301  0.9873  0.3465
21296SOL     OW65103   0.052   5.848   1.457  0.1439 -0.4085  0.7765
21296SOL    HW165104   0.136   5.848   1.503  0.6574 -1.0241 -0.1445
21296SOL    HW265105   0.019   5.758   1.468  0.7273 -0.8496 -0.8492
21297SOL     OW65106   8.569   5.727   1.276  0.3297  0.0906 -0.1035
21297SOL    HW165107   8.499   5.726   1.210  1.3588  2.4564 -1.3444
21297SOL    HW265108   8.628   5.657   1.248 -0.6997 -0.8714  0.0480
21298SOL     OW65109   8.475   6.907   0.378  0.4761  0.7898  0.1102
21298SOL    HW165110   8.431   6.944   0.455  1.3254  1.5644  0.2439
21298SOL    HW265111   8.566   6.934   0.388  0.9117 -0.4342 -0.3717
21299SOL     OW65112   7.636   7.554   1.341 -0.3776  0.2852 -0.4575
21299SOL    HW165113   7.637   7.643   1.378 -0.0650  0.6801 -1.3757
21299SOL    HW265114   7.596   7.565   1.255  0.5337 -0.2982 -0.9708
21300SOL     OW65115   7.108   6.735   0.806  0.0759 -0.0517  0.0081
21300SOL    HW165116   7.154   6.682   0.742 -0.9031 -1.4494  0.4222
21300SOL    HW265117   7.177   6.763   0.868  0.6328 -0.6400 -0.3375
21301SOL     OW65118   8.068   7.714   8.715 -0.8072  0.1886 -0.3087
21301SOL    HW165119   8.102   7.763   8.640 -2.4273  0.0709 -1.1540
21301SOL    HW265120   8.059   7.624   8.683 -1.4991  0.1332  0.0274
21302SOL     OW65121   7.477   6.185   1.925  0.2920  0.0630 -0.8057
21302SOL    HW165122   7.450   6.103   1.883  0.9176 -1.0483  0.8662
21302SOL    HW265123   7.420   6.193   2.001  1.1569  0.4546 -0.1888
21303SOL     OW65124   7.718   5.512   3.021 -0.0290 -0.2671 -1.1757
21303SOL    HW165125   7.705   5.529   3.114  1.5282 -0.1273 -0.9535
21303SOL    HW265126   7.745   5.420   3.017  0.1728 -0.1972 -1.4528
21304SOL     OW65127   7.363   5.733   2.725 -0.0868  0.2648 -0.5919
21304SOL    HW165128   7.307   5.809   2.740  0.8229  1.2821 -2.1182
21304SOL    HW265129   7.306   5.670   2.682 -0.6774  0.3095  0.0965
21305SOL     OW65130   8.074   7.343   3.200  0.2641 -0.1426 -0.2296
21305SOL    HW165131   8.097   7.356   3.108  1.3187  1.3724  0.2196
21305SOL    HW265132   8.092   7.427   3.242 -4.1582  0.5957  0.6304
21306SOL     OW65133   0.404   6.928   2.853  0.4315 -0.1869  1.0351
21306SOL    HW165134   0.435   6.899   2.767  0.7930 -1.0848  1.4577
21306SOL    HW265135   0.310   6.909   2.853 -0.5792  3.7188 -0.7466
21307SOL     OW65136   8.593   6.308   2.965  0.0153 -0.2432 -0.3640
21307SOL    HW165137   8.553   6.382   2.918  1.9866 -0.0924 -1.9041
21307SOL    HW265138   8.665   6.281   2.909  1.0699 -1.5388  1.5565
21308SOL     OW65139   8.247   6.553   3.066 -0.1542  0.1873  0.1809
21308SOL    HW165140   8.299   6.485   3.023 -0.1303  1.2540 -1.5853
21308SOL    HW265141   8.156   6.531   3.045 -0.1623  0.5302 -0.1576
21309SOL     OW65142   8.359   6.160   3.482  0.2842  0.3451  0.0516
21309SOL    HW165143   8.360   6.172   3.387  0.0319 -0.0245 -0.0033
21309SOL    HW265144   8.451   6.146   3.505  0.1375 -1.8601 -0.4660
21310SOL     OW65145   8.044   6.556   2.725  0.0606 -0.4099  0.2124
21310SOL    HW165146   8.128   6.599   2.707 -0.2728  0.2687  0.2565
21310SOL    HW265147   8.034   6.562   2.820 -0.4466  0.2917  0.1202
21311SOL     OW65148   8.014   6.691   3.830 -0.0551 -0.3281  0.2902
21311SOL    HW165149   8.044   6.667   3.742 -0.0314 -1.5973  0.6241
21311SOL    HW265150   8.087   6.666   3.888 -0.4118 -0.3047  0.7522
21312SOL     OW65151   7.610   7.039   3.211  0.3501 -0.4032 -0.1479
21312SOL    HW165152   7.635   7.008   3.124  0.3676 -0.3758 -0.1525
21312SOL    HW265153   7.532   7.093   3.196  0.0172 -0.8592 -0.0790
21313SOL     OW65154   8.251   5.649   3.376 -0.3300 -0.3370  0.2811
21313SOL    HW165155   8.272   5.716   3.441  0.4181 -0.5016  0.2152
21313SOL    HW265156   8.179   5.600   3.415  0.5468 -0.8558  1.2862
21314SOL     OW65157   6.976   7.102   2.274  0.2401 -0.0155  0.0515
21314SOL    HW165158   6.975   7.012   2.305  1.0155  0.6072  1.9940
21314SOL    HW265159   6.987   7.094   2.179 -0.7346 -1.9632  0.0459
21315SOL     OW65160   8.704   6.896   3.238  0.4827  0.0739  0.2576
21315SOL    HW165161   8.799   6.893   3.229  0.3820  0.4820 -1.1203
21315SOL    HW265162   8.682   6.816   3.286  1.5664  0.3253  1.2044
21316SOL     OW65163   7.745   6.980   2.510 -0.0259 -0.5493 -0.5756
21316SOL    HW165164   7.760   7.071   2.535 -0.0524 -1.0249  1.2626
21316SOL    HW265165   7.819   6.958   2.454  0.8960  0.0882  0.3656
21317SOL     OW65166   7.654   6.165   3.106 -0.1768 -0.5529  0.4501
21317SOL    HW165167   7.747   6.184   3.092  0.0476 -1.4550  0.6721
21317SOL    HW265168   7.632   6.213   3.186 -0.0660  0.1437  0.0770
21318SOL     OW65169   8.242   7.245   3.492 -0.2228  0.2281  0.4165
21318SOL    HW165170   8.234   7.310   3.422 -0.3492  1.8692  1.8703
21318SOL    HW265171   8.203   7.288   3.569  0.8332 -1.0901  1.7568
21319SOL     OW65172   8.236   6.631   2.352 -0.1289  0.2637  0.2752
21319SOL    HW165173   8.211   6.680   2.274  1.2767 -0.9201 -0.9960
21319SOL    HW265174   8.211   6.687   2.425 -0.0181  2.1393 -1.0553
21320SOL     OW65175   7.657   5.894   2.599 -0.1719  0.0853 -0.2668
21320SOL    HW165176   7.666   5.810   2.643  0.2396  0.5037  0.4730
21320SOL    HW265177   7.571   5.926   2.627 -0.2614 -0.0205 -0.4229
21321SOL     OW65178   7.297   6.953   2.390  0.4026 -0.1820 -0.1594
21321SOL    HW165179   7.325   6.905   2.313 -0.0226  0.8325 -0.9678
21321SOL    HW265180   7.301   6.889   2.461 -0.7329 -1.5769 -1.2962
21322SOL     OW65181   0.545   6.054   2.342 -0.1855 -0.4076 -0.3094
21322SOL    HW165182   0.617   6.112   2.318 -0.0844 -0.5077 -0.2496
21322SOL    HW265183   0.469   6.112   2.350 -0.3770 -0.4558 -1.5334
21323SOL     OW65184   7.324   6.026   3.489  0.8304  0.3417  0.4219
21323SOL    HW165185   7.279   6.070   3.417 -0.6333 -0.4567  0.8182
21323SOL    HW265186   7.341   5.938   3.456 -1.4154 -0.5948  1.6165
21324SOL     OW65187   7.982   6.613   3.018  0.2664 -0.4511 -0.2184
21324SOL    HW165188   7.892   6.588   2.996 -0.2149  1.2667 -0.2943
21324SOL    HW265189   7.973   6.672   3.092  1.3659 -0.4369 -0.0832
21325SOL     OW65190   8.179   6.296   2.903 -0.2494 -0.2126  0.3757
21325SOL    HW165191   8.115   6.303   2.832  0.5885  0.1851 -0.3532
21325SOL    HW265192   8.259   6.335   2.868 -0.8691  3.8386  2.8563
21326SOL     OW65193   8.117   5.287   2.316  0.3255 -0.7505  0.0327
21326SOL    HW165194   8.125   5.376   2.351  1.0698 -0.4770 -0.8309
21326SOL    HW265195   8.023   5.267   2.324  0.3901 -0.5119  1.7071
21327SOL     OW65196   7.706   6.720   3.248 -0.2553 -0.5977  0.4143
21327SOL    HW165197   7.796   6.688   3.241 -1.2940 -3.8252  0.2601
21327SOL    HW265198   7.707   6.775   3.326  1.5419 -1.8544  1.3787
21328SOL     OW65199   8.414   7.645   3.564 -0.0805 -0.0182 -0.0408
21328SOL    HW165200   8.365   7.593   3.628  1.3308 -0.3928  0.7771
21328SOL    HW265201   8.367   7.728   3.560  0.3407  0.4192  2.2902
21329SOL     OW65202   8.088   5.486   3.538  0.2189  0.1115  0.3729
21329SOL    HW165203   8.142   5.442   3.472  0.6456 -0.3609  1.0207
21329SOL    HW265204   8.151   5.521   3.601 -0.1755  0.6881  0.4578
21330SOL     OW65205   7.977   6.225   2.400 -0.7923 -0.2806  0.0588
21330SOL    HW165206   7.965   6.278   2.320  1.0562  0.3496  0.1639
21330SOL    HW265207   7.893   6.181   2.411 -1.1533 -0.3080 -2.1827
21331SOL     OW65208   8.768   5.830   2.270 -0.1620 -0.1424  0.4207
21331SOL    HW165209   8.785   5.787   2.186 -0.0814 -0.1007  0.4158
21331SOL    HW265210   8.830   5.790   2.331 -0.1507 -0.0996  0.4370
21332SOL     OW65211   8.419   5.955   3.108 -0.7101  0.1650  0.2532
21332SOL    HW165212   8.323   5.954   3.106 -0.7232 -1.5628 -0.5554
21332SOL    HW265213   8.443   5.863   3.118  0.8826  0.4456 -0.6659
21333SOL     OW65214   8.596   6.130   3.602  0.1945  0.7043  0.6756
21333SOL    HW165215   8.684   6.118   3.565 -0.6796 -1.8590 -0.7759
21333SOL    HW265216   8.609   6.121   3.697  1.2750 -1.5975  0.3636
21334SOL     OW65217   7.969   6.683   3.302  0.0547  0.2880 -0.3745
21334SOL    HW165218   8.039   6.619   3.312 -0.4835 -0.0952  1.3171
21334SOL    HW265219   7.999   6.759   3.352  0.6978  1.4233 -2.3779
21335SOL     OW65220   8.467   5.675   3.149 -0.2726  0.8191 -0.2106
21335SOL    HW165221   8.540   5.645   3.095  0.0395  2.2571 -0.6431
21335SOL    HW265222   8.496   5.661   3.239  0.3606  0.9696 -0.3896
21336SOL     OW65223   8.482   6.244   2.615  0.0667 -0.1413 -0.1674
21336SOL    HW165224   8.414   6.179   2.598 -1.2133  1.1808 -0.2154
21336SOL    HW265225   8.560   6.191   2.635 -0.5837 -1.6980 -1.4841
21337SOL     OW65226   7.580   6.301   2.859  0.2631 -0.3450  0.4255
21337SOL    HW165227   7.606   6.267   2.944  0.0172 -1.2982  0.1235
21337SOL    HW265228   7.546   6.226   2.811  0.6992  0.1055 -0.6427
21338SOL     OW65229   7.636   7.801   3.248  0.1521  0.0820  0.3866
21338SOL    HW165230   7.708   7.818   3.187  1.9692 -0.7177  2.1944
21338SOL    HW265231   7.582   7.735   3.204 -0.9315  2.3967 -2.0279
21339SOL     OW65232   8.542   5.885   2.101  0.4482  0.3584  0.3776
21339SOL    HW165233   8.565   5.816   2.039  0.0879  0.3362  0.2628
21339SOL    HW265234   8.618   5.893   2.159  0.7818  0.3719 -0.0594
21340SOL     OW65235   0.386   6.505   2.751  0.0070  0.0185 -0.0076
21340SOL    HW165236   0.382   6.494   2.656 -0.4220  0.8706 -0.1017
21340SOL    HW265237   0.471   6.545   2.767  0.4129 -0.8525  0.0554
21341SOL     OW65238   8.045   5.429   2.603  0.5091 -0.0224 -0.0006
21341SOL    HW165239   8.094   5.489   2.547 -0.3025  0.1292 -0.5558
21341SOL    HW265240   8.066   5.458   2.692  0.0085  1.2025 -0.2544
21342SOL     OW65241   8.237   7.056   2.148  0.0620  0.5613 -0.3737
21342SOL    HW165242   8.298   7.121   2.112 -0.4737  1.4104  0.2259
21342SOL    HW265243   8.272   7.037   2.235  0.2566 -0.0220 -0.5740
21343SOL     OW65244   7.821   7.522   2.946  0.0526 -0.2394  0.0052
21343SOL    HW165245   7.734   7.512   2.908 -0.1177 -0.3340  0.4182
21343SOL    HW265246   7.815   7.480   3.032  0.1420  0.8499  0.5645
21344SOL     OW65247   8.517   7.109   3.259  0.4754  0.1638 -0.1135
21344SOL    HW165248   8.587   7.045   3.247  0.7122  0.3502  0.2759
21344SOL    HW265249   8.439   7.057   3.276  0.7917 -0.0120  0.8538
21345SOL     OW65250   7.539   6.057   2.223 -0.5803 -0.5741  0.5109
21345SOL    HW165251   7.465   6.117   2.209  0.0516  0.2219  0.5049
21345SOL    HW265252   7.565   6.031   2.135 -2.2152 -2.6116  0.5503
21346SOL     OW65253   7.823   6.668   3.560  0.0752  0.6508 -0.5107
21346SOL    HW165254   7.896   6.698   3.506  2.3980  0.8794  2.5242
21346SOL    HW265255   7.782   6.748   3.592 -0.0111  0.5340 -0.3262
21347SOL     OW65256   7.919   7.189   2.345 -0.5265 -0.3582 -0.2082
21347SOL    HW165257   7.867   7.260   2.308 -1.1869 -1.4925 -1.5469
21347SOL    HW265258   8.010   7.218   2.334 -0.8032  0.6090 -0.0249
21348SOL     OW65259   7.932   5.642   3.284  0.3903  0.0443 -0.1443
21348SOL    HW165260   7.932   5.553   3.251  1.4460  0.0632 -0.2247
21348SOL    HW265261   7.851   5.649   3.334  0.0021 -0.7607 -0.6423
21349SOL     OW65262   7.831   7.762   2.357 -0.0983  0.8980  0.3852
21349SOL    HW165263   7.886   7.690   2.386  0.9110  1.2589 -0.5891
21349SOL    HW265264   7.763   7.720   2.304  0.9681  0.7036 -0.8870
21350SOL     OW65265   7.573   7.947   2.872  0.8724  0.0178 -0.2204
21350SOL    HW165266   7.502   7.990   2.919  0.8267  0.3440 -0.5868
21350SOL    HW265267   7.535   7.923   2.787  0.8873 -0.7778 -0.0125
21351SOL     OW65268   0.052   7.147   2.390 -0.1325  0.2333 -0.2858
21351SOL    HW165269   0.044   7.057   2.422 -1.2736  1.1040  2.1480
21351SOL    HW265270  -0.014   7.154   2.322  1.1923 -1.2335 -1.7960
21352SOL     OW65271   7.744   6.070   2.385  0.3203 -0.5860 -0.1803
21352SOL    HW165272   7.695   6.086   2.305  1.3919  1.1784 -0.5341
21352SOL    HW265273   7.690   6.008   2.434 -1.7725  0.4883 -0.9814
21353SOL     OW65274   7.878   5.216   2.396  0.6934  0.2406  0.0471
21353SOL    HW165275   7.801   5.270   2.414 -1.3638 -1.6689 -2.2146
21353SOL    HW265276   7.849   5.126   2.416  2.4081 -0.5222 -0.7103
21354SOL     OW65277   8.320   6.063   3.759 -0.0642  0.1997 -0.5138
21354SOL    HW165278   8.238   6.013   3.766  1.4644 -2.6950 -1.4890
21354SOL    HW265279   8.299   6.134   3.699 -2.0737  0.0436 -0.0810
21355SOL     OW65280   8.523   6.968   2.678  0.2433 -0.2945 -0.1589
21355SOL    HW165281   8.571   7.043   2.713  0.8618 -0.0039 -1.5349
21355SOL    HW265282   8.444   6.962   2.732  1.0809  0.1807  1.1639
21356SOL     OW65283   8.806   6.290   3.467 -0.0083 -0.7815 -0.3350
21356SOL    HW165284   8.723   6.336   3.457  0.9736  0.9192 -1.1317
21356SOL    HW265285   8.833   6.270   3.377  0.2783 -1.6379 -0.0663
21357SOL     OW65286   8.317   6.676   2.726 -0.7866  0.0096  0.2300
21357SOL    HW165287   8.342   6.745   2.788  0.3722 -0.7889  0.6921
21357SOL    HW265288   8.264   6.721   2.661  0.4340  1.4816  0.1878
21358SOL     OW65289   8.333   6.006   2.517  0.4451  0.3409 -0.2252
21358SOL    HW165290   8.256   6.001   2.462  0.8118 -0.7820 -0.6550
21358SOL    HW265291   8.401   5.960   2.468  0.5825 -1.3867  1.4811
21359SOL     OW65292   8.078   5.582   2.386 -0.0988  0.4905 -0.5107
21359SOL    HW165293   8.152   5.641   2.369  1.1617 -0.7368  0.4084
21359SOL    HW265294   8.009   5.639   2.419  0.5992  1.6195 -0.9215
21360SOL     OW65295   8.756   6.730   1.866  0.0202 -0.2595  0.5459
21360SOL    HW165296   8.715   6.797   1.920 -0.0210 -0.6628  1.0215
21360SOL    HW265297   8.714   6.648   1.893 -0.8618 -0.3309 -0.9450
21361SOL     OW65298   7.761   5.637   2.279  0.1121 -0.1256  0.1429
21361SOL    HW165299   7.766   5.694   2.356  1.4354 -0.2959  0.2149
21361SOL    HW265300   7.781   5.550   2.312  3.9097  0.2160 -0.7596
21362SOL     OW65301   8.477   5.626   2.491 -0.2610 -0.1398  0.2675
21362SOL    HW165302   8.404   5.678   2.523 -1.8387 -1.8734 -0.3819
21362SOL    HW265303   8.550   5.688   2.485 -1.1854  1.2648  2.5493
21363SOL     OW65304   8.696   6.567   3.036  0.1441  0.2806  0.3810
21363SOL    HW165305   8.748   6.632   2.990  0.0683  0.3026  0.3260
21363SOL    HW265306   8.736   6.483   3.014 -0.2021  0.2493 -0.1333
21364SOL     OW65307   8.696   7.156   2.803 -0.1079  0.5049 -0.1885
21364SOL    HW165308   8.774   7.212   2.809  0.1389  0.4341 -2.0845
21364SOL    HW265309   8.729   7.068   2.825  0.1491  0.6078 -0.1523
21365SOL     OW65310   7.751   6.509   2.905  0.3542 -0.6472 -0.1142
21365SOL    HW165311   7.725   6.417   2.902  2.2752 -1.2381  0.0150
21365SOL    HW265312   7.750   6.537   2.814 -1.1725 -0.4717 -0.0779
21366SOL     OW65313   8.720   7.099   2.196  0.0433 -0.1182 -0.2983
21366SOL    HW165314   8.791   7.060   2.145  0.3346 -1.4693  1.0585
21366SOL    HW265315   8.674   7.024   2.235 -1.9354  0.7451 -0.8662
21367SOL     OW65316   8.490   6.277   1.909  0.0570  1.0015  0.0621
21367SOL    HW165317   8.551   6.239   1.971  0.3408  2.5818  0.8092
21367SOL    HW265318   8.405   6.239   1.931  0.6121 -0.6069 -0.4662
21368SOL     OW65319   7.981   5.911   3.206  0.1058 -0.0458  0.3643
21368SOL    HW165320   7.961   5.909   3.113 -2.7039 -0.0000  0.8663
21368SOL    HW265321   7.997   5.819   3.230  0.7861 -0.0614 -0.1311
21369SOL     OW65322   8.175   5.609   3.066 -0.0390 -0.6136 -0.0910
21369SOL    HW165323   8.240   5.659   3.115 -0.7306  1.4171 -1.1577
21369SOL    HW265324   8.140   5.546   3.130  1.9422 -0.8247  0.8662
21370SOL     OW65325   8.330   5.621   2.849 -0.2015  0.0512  0.4977
21370SOL    HW165326   8.277   5.630   2.929 -0.2966 -0.9170  0.5589
21370SOL    HW265327   8.390   5.549   2.868  0.0710  0.1008 -0.1471
21371SOL     OW65328   8.251   5.717   2.619 -0.4487 -0.0816  0.2132
21371SOL    HW165329   8.285   5.677   2.700 -2.7175  0.9915  1.7877
21371SOL    HW265330   8.240   5.809   2.640 -1.2581  0.1957 -1.2850
21372SOL     OW65331   7.973   7.144   2.055  0.5128  0.1363 -0.2444
21372SOL    HW165332   8.011   7.231   2.066 -0.5553  0.3927  1.8632
21372SOL    HW265333   8.038   7.085   2.095  1.0691 -0.0400 -1.3548
21373SOL     OW65334   0.335   5.849   2.213  0.0201 -0.2990  0.3420
21373SOL    HW165335   0.380   5.850   2.128  1.1507 -2.3816  0.8430
21373SOL    HW265336   0.289   5.765   2.215  0.0180 -0.2896  1.7955
21374SOL     OW65337   8.594   5.981   2.414 -0.3218 -0.2574 -0.0199
21374SOL    HW165338   8.619   5.985   2.506  1.8049  0.6932 -0.5740
21374SOL    HW265339   8.659   5.924   2.373  0.0411  0.9861 -1.2756
21375SOL     OW65340   8.292   6.992   2.830  0.1641  0.2164  0.5604
21375SOL    HW165341   8.261   7.077   2.859 -1.3397  0.0122 -0.3567
21375SOL    HW265342   8.257   6.930   2.894 -1.3688 -0.0040 -0.4271
21376SOL     OW65343   8.506   6.753   2.954  0.1997  0.0168 -0.0423
21376SOL    HW165344   8.533   6.670   2.993 -0.6289  0.2073  0.9826
21376SOL    HW265345   8.424   6.775   3.000  0.3263  1.3115 -0.4124
21377SOL     OW65346   8.366   5.369   3.474  0.1239 -0.6376  0.2456
21377SOL    HW165347   8.333   5.344   3.387 -1.6675  0.3488  0.6045
21377SOL    HW265348   8.437   5.430   3.455  0.6612 -1.4564 -0.5236
21378SOL     OW65349   8.485   6.903   3.471  0.3321  0.5758 -0.1897
21378SOL    HW165350   8.412   6.951   3.431  1.5897 -0.2578 -3.8459
21378SOL    HW265351   8.449   6.817   3.493  0.1075  0.2526 -1.7518
21379SOL     OW65352   7.792   6.633   2.652  0.5519 -0.2308 -0.0112
21379SOL    HW165353   7.882   6.636   2.684  1.1238 -0.6236 -1.5027
21379SOL    HW265354   7.796   6.579   2.573 -0.6969  1.0888 -1.0319
21380SOL     OW65355   7.505   6.309   3.318  0.6140  0.2683 -0.1277
21380SOL    HW165356   7.415   6.306   3.350 -0.2761 -1.7956 -2.5173
21380SOL    HW265357   7.559   6.293   3.395 -1.1529 -0.2976  1.0338
21381SOL     OW65358   8.655   6.093   3.113 -0.3833  0.3741 -0.4855
21381SOL    HW165359   8.655   6.178   3.069 -0.5260  0.3120 -0.6093
21381SOL    HW265360   8.566   6.060   3.099 -0.2218  0.0452 -0.7460
21382SOL     OW65361   7.400   7.174   3.210 -0.2062  0.1921 -0.3457
21382SOL    HW165362   7.374   7.254   3.163  0.4176  0.2138 -0.6699
21382SOL    HW265363   7.421   7.205   3.299  0.9443  0.5575 -0.7282
21383SOL     OW65364   7.209   7.059   2.814 -0.0234  0.5506  0.4071
21383SOL    HW165365   7.180   6.988   2.757 -0.7110  1.7766 -0.8444
21383SOL    HW265366   7.233   7.017   2.896  0.0426 -1.1640 -0.4607
21384SOL     OW65367   7.898   5.776   2.484 -0.0242 -0.4815  0.3174
21384SOL    HW165368   7.842   5.844   2.520  0.5687  0.1175  0.1153
21384SOL    HW265369   7.934   5.731   2.560 -0.1329 -0.3353  0.4549
21385SOL     OW65370   8.682   6.767   2.568  0.1187 -0.4989 -0.1772
21385SOL    HW165371   8.618   6.831   2.599  0.9541  0.6768 -0.7860
21385SOL    HW265372   8.658   6.686   2.612 -2.0926 -0.2334 -0.7534
21386SOL     OW65373   0.033   7.364   2.887  0.2714  0.4938 -0.6092
21386SOL    HW165374   0.042   7.369   2.982  1.0376 -2.5666 -0.3989
21386SOL    HW265375   0.123   7.366   2.855  0.0692  0.4324 -1.1873
21387SOL     OW65376   7.999   7.078   3.275  0.6381  0.3635 -0.3730
21387SOL    HW165377   8.045   7.155   3.241  1.6493  0.1506  0.4626
21387SOL    HW265378   7.938   7.114   3.340  0.1668  0.5715 -0.9209
21388SOL     OW65379   8.125   6.310   3.478 -0.6048 -0.2351  0.2970
21388SOL    HW165380   8.208   6.262   3.489 -0.9753 -0.5532  1.9739
21388SOL    HW265381   8.148   6.386   3.425  0.1524 -1.8485 -1.8211
21389SOL     OW65382   8.117   5.029   3.475 -0.6056  0.2144  0.2205
21389SOL    HW165383   8.025   5.018   3.497 -0.6594  1.5992  0.8157
21389SOL    HW265384   8.158   5.058   3.556  0.3550 -0.3708 -0.0413
21390SOL     OW65385   7.899   6.231   3.073 -0.3969 -0.3803  0.1610
21390SOL    HW165386   7.934   6.157   3.024 -1.0979 -1.3011  1.0193
21390SOL    HW265387   7.956   6.304   3.050 -0.8924 -0.6807 -2.2802
21391SOL     OW65388   0.098   5.903   2.506  0.4069 -0.4353 -0.0812
21391SOL    HW165389   0.083   5.960   2.430 -1.5420 -0.4623  0.2271
21391SOL    HW265390   0.125   5.963   2.576  1.9029 -0.3732 -0.6666
21392SOL     OW65391   0.047   6.008   2.020 -0.7093  0.5932  0.5892
21392SOL    HW165392   0.011   6.009   1.932 -0.0512  1.8693  0.3099
21392SOL    HW265393   0.093   5.925   2.027 -0.2373  0.7515 -0.4976
21393SOL     OW65394   7.781   5.769   2.950  0.2418 -0.0597  0.5249
21393SOL    HW165395   7.766   5.692   3.004  0.2640 -0.5548 -0.1637
21393SOL    HW265396   7.864   5.752   2.906  0.7912  0.8406  1.1787
21394SOL     OW65397   7.346   7.373   3.027 -0.3160  0.5868  0.1789
21394SOL    HW165398   7.268   7.341   2.982  1.0224 -1.4243 -0.8501
21394SOL    HW265399   7.391   7.426   2.961  0.9760 -1.2661 -0.4984
21395SOL     OW65400   8.203   5.937   2.755  0.4391  0.1724 -0.6534
21395SOL    HW165401   8.275   5.995   2.728 -0.0694 -0.0853 -2.7426
21395SOL    HW265402   8.138   5.995   2.792  0.9096  0.6525 -0.5653
21396SOL     OW65403   7.779   5.456   2.554 -0.0137  0.2845 -0.2178
21396SOL    HW165404   7.754   5.516   2.624 -0.2161  1.3343 -1.1579
21396SOL    HW265405   7.869   5.432   2.575 -0.4943 -0.4971  1.1144
21397SOL     OW65406   0.212   5.583   2.117  0.3962  0.2878 -0.1811
21397SOL    HW165407   0.144   5.520   2.092  2.6332 -3.0719  1.4177
21397SOL    HW265408   0.277   5.576   2.048  1.3700 -0.4618  0.7613
21398SOL     OW65409   8.718   5.637   3.022  0.5114  0.2165 -0.7497
21398SOL    HW165410   8.707   5.544   3.005 -0.0651  0.0930  0.2114
21398SOL    HW265411   8.744   5.674   2.938  0.6554 -0.7938 -1.1617
21399SOL     OW65412   8.259   7.001   3.371 -0.4477  0.0063  0.2531
21399SOL    HW165413   8.276   7.081   3.421  0.0312  0.7653 -1.0879
21399SOL    HW265414   8.178   7.018   3.324 -0.8076 -0.6446  0.6189
21400SOL     OW65415   7.901   6.394   3.616  0.5415 -0.1663 -0.1513
21400SOL    HW165416   7.897   6.489   3.603 -0.1010 -0.3617 -1.6302
21400SOL    HW265417   7.965   6.364   3.550 -1.1835 -1.0027 -1.5249
21401SOL     OW65418   8.661   6.499   2.009 -0.0550  0.4125 -0.1085
21401SOL    HW165419   8.705   6.416   2.025 -0.6939 -0.3795 -2.0585
21401SOL    HW265420   8.643   6.535   2.096  2.3127 -0.3324  0.7570
21402SOL     OW65421   8.369   6.948   2.420 -0.0507  0.5372 -0.4723
21402SOL    HW165422   8.429   6.920   2.490 -0.5548 -1.8952 -0.9571
21402SOL    HW265423   8.282   6.941   2.459 -0.2338  0.9633 -0.7929
21403SOL     OW65424   7.936   6.052   2.826 -0.4656 -0.3329  0.2318
21403SOL    HW165425   7.947   6.107   2.748 -0.0033 -0.5246  0.1555
21403SOL    HW265426   7.880   5.980   2.797  1.2359 -1.4489 -0.4829
21404SOL     OW65427   8.012   5.724   2.835  0.2350 -0.2285 -0.4266
21404SOL    HW165428   8.064   5.797   2.801 -0.6826  0.1207 -1.1410
21404SOL    HW265429   8.066   5.685   2.903  1.4736  0.0283 -1.2370
21405SOL     OW65430   8.297   5.631   3.672 -0.4584  0.1690  0.5829
21405SOL    HW165431   8.362   5.581   3.720 -0.6246  0.2153  0.8597
21405SOL    HW265432   8.342   5.712   3.647 -0.2015 -0.1014  0.1655
21406SOL     OW65433   8.573   5.638   3.482 -0.2502 -0.0179  0.2542
21406SOL    HW165434   8.494   5.688   3.503 -1.2025 -0.0985 -2.6423
21406SOL    HW265435   8.639   5.670   3.543 -2.0463  1.3816  1.5656
21407SOL     OW65436   7.264   6.709   2.533  0.2534 -0.7784 -0.2429
21407SOL    HW165437   7.180   6.685   2.494 -0.4512 -0.1375  0.8194
21407SOL    HW265438   7.258   6.676   2.623  1.2900 -1.0481 -0.2677
21408SOL     OW65439   7.941   7.137   2.729  0.1007  0.4101 -0.2860
21408SOL    HW165440   7.870   7.196   2.705  0.3246  0.1529 -1.6079
21408SOL    HW265441   8.001   7.192   2.781 -0.4038  0.9563 -0.2702
21409SOL     OW65442   8.180   7.277   2.846 -0.0469  0.0609  0.0635
21409SOL    HW165443   8.144   7.363   2.866 -0.6731 -0.2098  0.1201
21409SOL    HW265444   8.275   7.290   2.845 -0.1437  0.7762 -0.0625
21410SOL     OW65445   8.506   5.930   2.849  0.0276  0.0766  0.0057
21410SOL    HW165446   8.473   5.968   2.930  0.5671  0.2461  0.1529
21410SOL    HW265447   8.465   5.844   2.845 -0.1887  0.1610  0.3406
21411SOL     OW65448   7.556   5.905   2.975  0.2909  0.2534 -0.2148
21411SOL    HW165449   7.639   5.856   2.977  1.0790  1.5138 -0.8431
21411SOL    HW265450   7.573   5.983   3.027 -0.4279  0.6374 -0.5450
21412SOL     OW65451   7.876   5.808   3.657  0.0978 -0.7751  0.4829
21412SOL    HW165452   7.883   5.886   3.601 -0.2905 -0.5029  0.8109
21412SOL    HW265453   7.937   5.824   3.728 -0.8715 -0.1997  1.2135
21413SOL     OW65454   8.111   5.979   2.372  0.3040 -0.1704  0.3708
21413SOL    HW165455   8.056   5.913   2.330  0.8906  0.2176 -1.0753
21413SOL    HW265456   8.050   6.048   2.399  0.1016  0.6894 -2.0365
21414SOL     OW65457   7.926   7.031   3.605 -0.3131  0.3741 -0.0297
21414SOL    HW165458   7.934   7.126   3.602 -0.8916  0.5392  1.9552
21414SOL    HW265459   7.836   7.013   3.578 -0.6250  0.5290  0.8612
21415SOL     OW65460   8.377   5.410   3.166  0.4968  0.2404  0.4751
21415SOL    HW165461   8.370   5.371   3.079  0.4789  0.9638  0.1447
21415SOL    HW265462   8.374   5.504   3.150  0.5149  0.3786  1.2590
21416SOL     OW65463   8.372   7.343   3.142 -0.1127 -0.2993  0.5117
21416SOL    HW165464   8.441   7.291   3.181 -0.7957 -0.7603  1.1201
21416SOL    HW265465   8.374   7.426   3.190 -0.3112 -0.5013  0.8709
21417SOL     OW65466   7.983   6.027   1.993  0.1067 -0.3735  0.0042
21417SOL    HW165467   7.991   5.953   2.054 -0.6912  0.0895  0.6934
21417SOL    HW265468   7.899   6.067   2.015  0.3257  0.4830 -0.6601
21418SOL     OW65469   7.499   6.571   3.155  0.0464  0.0419  0.0147
21418SOL    HW165470   7.533   6.507   3.218  1.7764  1.4206  0.5826
21418SOL    HW265471   7.577   6.606   3.112 -0.7103  2.3293  0.3143
21419SOL     OW65472   8.790   6.226   2.786 -0.0837 -0.2312  0.2346
21419SOL    HW165473   8.818   6.154   2.842  0.0365 -0.8456 -0.5916
21419SOL    HW265474   8.826   6.205   2.700 -0.0757  0.8033 -0.0286
21420SOL     OW65475   8.641   6.218   2.313  0.0173 -0.3363  0.6224
21420SOL    HW165476   8.637   6.129   2.348  1.2172  0.2567  2.3795
21420SOL    HW265477   8.555   6.254   2.330  0.0519 -0.6216  1.4457
21421SOL     OW65478   8.477   7.517   3.330 -0.2524  0.4838 -0.3104
21421SOL    HW165479   8.441   7.560   3.407  0.4799  1.6450 -0.5966
21421SOL    HW265480   8.556   7.474   3.362 -0.5921 -0.0477 -0.1750
21422SOL     OW65481   7.365   6.799   3.238 -0.0582  0.2129 -0.4114
21422SOL    HW165482   7.370   6.826   3.329 -2.4190  1.9128 -0.6941
21422SOL    HW265483   7.427   6.726   3.231  0.6478  0.4371  2.3603
21423SOL     OW65484   8.352   7.399   3.752  0.1917  0.9128  0.1725
21423SOL    HW165485   8.402   7.318   3.745 -0.2499  0.6850 -0.5094
21423SOL    HW265486   8.276   7.376   3.806  0.7409  1.2228  1.0925
21424SOL     OW65487   8.597   6.863   2.286  0.0715 -0.2946 -0.7740
21424SOL    HW165488   8.598   6.770   2.309  1.1424  0.1686  1.2953
21424SOL    HW265489   8.509   6.892   2.309 -0.1876 -0.7299 -1.1942
21425SOL     OW65490   7.479   7.267   3.446 -0.2457  0.6377  0.3937
21425SOL    HW165491   7.461   7.359   3.470 -0.8919  0.5771  0.1783
21425SOL    HW265492   7.509   7.227   3.528 -1.1381  0.7581  0.7976
21426SOL     OW65493   0.016   6.207   2.496  0.4189  0.2228  0.1026
21426SOL    HW165494   0.072   6.163   2.432 -1.2893 -1.1319 -0.5260
21426SOL    HW265495  -0.060   6.235   2.447 -1.4640 -1.8158  1.6211
21427SOL     OW65496   8.228   6.831   3.028  0.3379  0.2751  0.5784
21427SOL    HW165497   8.222   6.736   3.038  1.3398  0.3537  2.5709
21427SOL    HW265498   8.145   6.864   3.062  0.4990  0.1478  1.1086
21428SOL     OW65499   8.507   6.920   1.976 -0.0660 -0.5432 -0.0301
21428SOL    HW165500   8.469   6.948   1.892  1.3965 -0.8808 -0.8357
21428SOL    HW265501   8.487   6.991   2.036 -2.3382 -0.8935 -0.2842
21429SOL     OW65502   7.632   5.638   2.722 -0.2010 -0.0797  0.6672
21429SOL    HW165503   7.539   5.652   2.709 -0.1574  1.1784  1.4809
21429SOL    HW265504   7.648   5.663   2.813  0.9561 -0.0287  0.4748
21430SOL     OW65505   8.838   6.790   1.594  0.4806  0.8988 -0.2551
21430SOL    HW165506   8.926   6.811   1.626  0.7725 -0.3997 -0.1544
21430SOL    HW265507   8.786   6.778   1.674  0.6810 -0.1859 -0.2722
21431SOL     OW65508   8.197   6.540   3.345 -0.1265  0.5446  0.4338
21431SOL    HW165509   8.219   6.540   3.251  0.7513  0.3191  0.6330
21431SOL    HW265510   8.234   6.621   3.379  1.7891 -0.5365  1.0694
21432SOL     OW65511   8.401   6.424   2.285  0.1517  0.5336 -0.1587
21432SOL    HW165512   8.353   6.422   2.202 -0.6090  0.6066  0.2617
21432SOL    HW265513   8.353   6.487   2.339  0.6543  0.5120  0.3260
21433SOL     OW65514   7.660   6.924   3.460  0.1799 -0.1120  0.2040
21433SOL    HW165515   7.643   6.964   3.375 -0.7611  0.1445  0.4996
21433SOL    HW265516   7.573   6.912   3.498  0.4710 -1.9105  0.3700
21434SOL     OW65517   8.735   6.516   2.684  0.3645 -0.3270  0.6578
21434SOL    HW165518   8.806   6.544   2.742 -0.0358 -0.2819  1.1301
21434SOL    HW265519   8.741   6.421   2.683  0.2717 -0.3364  0.9042
21435SOL     OW65520   8.510   5.414   2.916  0.5724  0.4579 -0.6450
21435SOL    HW165521   8.451   5.354   2.871  0.3741  2.3490 -3.1298
21435SOL    HW265522   8.598   5.383   2.892  0.5135  0.1491 -0.4652
21436SOL     OW65523   7.936   6.922   3.060 -0.0048 -0.6457  0.0056
21436SOL    HW165524   7.849   6.950   3.033  0.4360 -0.7653 -1.6499
21436SOL    HW265525   7.957   6.977   3.136 -0.7205  0.7914 -0.7992
21437SOL     OW65526   7.951   6.835   2.364  0.0714  0.1513  0.1969
21437SOL    HW165527   7.868   6.787   2.364 -0.0786  0.4085  0.4897
21437SOL    HW265528   7.986   6.822   2.276 -0.0667 -0.3276  0.2103
21438SOL     OW65529   7.690   6.220   3.517 -0.3458 -0.4496  0.7630
21438SOL    HW165530   7.740   6.145   3.485  0.1803  0.5724 -0.8806
21438SOL    HW265531   7.742   6.253   3.590  2.0277  1.1808 -1.4967
21439SOL     OW65532   7.991   5.373   3.212  0.1898 -0.0696  0.6912
21439SOL    HW165533   7.931   5.326   3.269  0.2216  0.2132  0.9603
21439SOL    HW265534   8.063   5.312   3.196 -1.5650 -1.5936 -2.1037
21440SOL     OW65535   7.745   6.162   2.048  0.2231  0.1494 -0.5247
21440SOL    HW165536   7.673   6.211   2.010 -1.4578 -0.1209  2.0500
21440SOL    HW265537   7.797   6.228   2.095 -1.6232 -0.2342  2.3156
21441SOL     OW65538   8.679   6.605   3.317 -0.2908 -0.1888 -0.3454
21441SOL    HW165539   8.680   6.596   3.222  0.8769 -1.0573 -0.2690
21441SOL    HW265540   8.644   6.522   3.349  2.7753 -1.4851  0.0597
21442SOL     OW65541   7.328   5.962   1.829 -0.1297 -0.0194 -0.9992
21442SOL    HW165542   7.327   5.991   1.738 -0.0693 -1.7538 -1.5997
21442SOL    HW265543   7.242   5.922   1.842 -0.2824  0.5771 -0.1642
21443SOL     OW65544   8.377   6.682   1.988 -0.4475 -0.2011 -0.5351
21443SOL    HW165545   8.416   6.768   2.006 -1.4480  0.2355 -0.3897
21443SOL    HW265546   8.434   6.644   1.921  0.1197  0.4961 -0.4659
21444SOL     OW65547   8.356   6.280   3.172 -0.3040  0.0261  0.1976
21444SOL    HW165548   8.422   6.289   3.102  1.7932 -0.1417  2.0378
21444SOL    HW265549   8.285   6.229   3.131  0.3879  0.7396 -2.0616
21445SOL     OW65550   8.107   5.877   3.823  0.4374  0.0841 -0.1856
21445SOL    HW165551   8.101   5.784   3.800 -2.4216 -0.1591  1.1346
21445SOL    HW265552   8.156   5.878   3.905 -1.0466 -0.5140  0.7545
21446SOL     OW65553   8.648   7.058   3.617 -0.1716 -0.0831 -0.4941
21446SOL    HW165554   8.591   7.014   3.554 -1.8837 -0.3149  1.1036
21446SOL    HW265555   8.702   6.988   3.653  0.0803 -0.1281 -0.9506
21447SOL     OW65556   7.770   7.214   3.422 -0.1959  0.5243  0.4190
21447SOL    HW165557   7.719   7.291   3.447  0.5573  0.6838  1.5082
21447SOL    HW265558   7.713   7.166   3.361 -0.7395  1.8345 -0.1286
21448SOL     OW65559   8.831   5.738   2.010  0.5649  1.0351 -0.5632
21448SOL    HW165560   8.807   5.757   1.919  0.7583  1.0446 -0.6146
21448SOL    HW265561   8.897   5.669   2.003 -2.3374 -1.9838 -0.2567
21449SOL     OW65562   8.067   6.270   2.653  0.6136 -0.0545  0.3480
21449SOL    HW165563   8.069   6.366   2.659  0.6231  0.0220 -0.7666
21449SOL    HW265564   8.047   6.252   2.562  0.1039 -1.1277  0.6618
21450SOL     OW65565   8.639   6.562   2.306 -0.0644  0.3387  0.1087
21450SOL    HW165566   8.566   6.501   2.294  0.2528  0.1667 -1.0695
21450SOL    HW265567   8.636   6.585   2.398 -1.4150  0.0847  0.1449
21451SOL     OW65568   8.114   7.334   2.570 -0.2026 -0.1501  0.4004
21451SOL    HW165569   8.205   7.341   2.597 -0.5921  1.8796  1.4076
21451SOL    HW265570   8.078   7.263   2.623  0.4131  0.1234  1.2039
21452SOL     OW65571   8.392   6.434   2.790 -0.3855  0.1660  0.4211
21452SOL    HW165572   8.383   6.527   2.771  0.5199  0.1333 -0.2678
21452SOL    HW265573   8.414   6.394   2.706 -1.9724 -0.8656  0.4606
21453SOL     OW65574   8.247   6.456   2.025 -0.4376 -0.2965 -0.4434
21453SOL    HW165575   8.303   6.533   2.021 -0.9288  0.0663 -0.4681
21453SOL    HW265576   8.198   6.457   1.942 -1.0226 -0.1819 -0.1048
21454SOL     OW65577   7.769   6.779   3.825  0.0134 -0.3001  0.1311
21454SOL    HW165578   7.710   6.717   3.782 -0.1424  0.2173 -0.4074
21454SOL    HW265579   7.857   6.750   3.801 -0.0743  0.0496 -0.6373
21455SOL     OW65580   7.998   6.871   2.768 -0.6305  0.2695  0.0504
21455SOL    HW165581   8.006   6.878   2.863  0.7269  0.3052 -0.0504
21455SOL    HW265582   7.957   6.953   2.741 -1.4630  0.0673  0.6323
21456SOL     OW65583   8.108   6.810   3.520 -0.7765  0.3631 -0.3722
21456SOL    HW165584   8.190   6.848   3.489  0.9401 -0.9663  2.2145
21456SOL    HW265585   8.063   6.883   3.563 -0.0171  0.7083 -0.1325
21457SOL     OW65586   7.980   5.799   2.171 -0.6013 -0.0636 -0.1959
21457SOL    HW165587   8.037   5.726   2.147 -0.9358 -0.0073 -1.1737
21457SOL    HW265588   7.897   5.758   2.196 -0.6579 -0.0477 -0.3552
21458SOL     OW65589   8.171   6.079   3.072  0.4207  0.1943 -0.9296
21458SOL    HW165590   8.101   6.053   3.131  1.1874  1.0008  0.3767
21458SOL    HW265591   8.132   6.149   3.019 -0.2536 -0.4962 -1.3684
21459SOL     OW65592   8.156   6.826   2.540  0.3581 -0.1230 -0.0358
21459SOL    HW165593   8.112   6.853   2.620  0.4911  0.2905 -0.0982
21459SOL    HW265594   8.090   6.836   2.471  0.4147  0.0747 -0.0628
21460SOL     OW65595   8.693   5.885   2.677  0.2030 -0.0700 -0.4363
21460SOL    HW165596   8.756   5.821   2.711  2.3526  2.0616 -0.0756
21460SOL    HW265597   8.629   5.894   2.747  1.5742  0.3377  0.8268
21461SOL     OW65598   8.020   5.137   2.841  0.3838  0.4867  0.0971
21461SOL    HW165599   8.087   5.139   2.773  1.0830  0.2754  0.7692
21461SOL    HW265600   7.943   5.102   2.796  1.5695 -2.3077  0.0097
21462SOL     OW65601   7.622   6.836   2.725 -0.7622  0.0990 -0.2393
21462SOL    HW165602   7.674   6.756   2.727 -0.5739  0.2267  0.7766
21462SOL    HW265603   7.661   6.888   2.655 -0.2166 -0.2640 -0.2106
21463SOL     OW65604   8.430   7.259   2.897  0.3964 -0.8826  0.6540
21463SOL    HW165605   8.402   7.289   2.984 -0.1421  0.1152  0.1549
21463SOL    HW265606   8.525   7.249   2.904  0.4505 -0.0718  1.1391
21464SOL     OW65607   0.047   5.660   1.721  1.0635 -0.0571  0.0090
21464SOL    HW165608   0.011   5.608   1.649 -0.1085 -0.5626  0.9348
21464SOL    HW265609   0.130   5.693   1.687  0.6334 -0.4494 -1.4992
21465SOL     OW65610   7.622   6.308   2.579 -0.3425 -0.3213 -0.3782
21465SOL    HW165611   7.614   6.213   2.575 -0.1164 -0.3027 -1.6505
21465SOL    HW265612   7.564   6.334   2.651 -0.7269 -1.3791 -0.2918
21466SOL     OW65613   8.468   7.199   2.053 -0.4297  0.5020 -0.4121
21466SOL    HW165614   8.560   7.178   2.072  0.4397  2.1026 -2.4741
21466SOL    HW265615   8.465   7.294   2.052 -2.5619  0.5398  1.2702
21467SOL     OW65616   7.909   6.008   3.473 -0.0805 -0.2344  0.1221
21467SOL    HW165617   7.960   6.089   3.476  0.8692 -0.6743 -2.0903
21467SOL    HW265618   7.941   5.962   3.395 -1.1206 -2.4042  0.8825
21468SOL     OW65619   7.650   6.195   4.616 -0.1568 -0.1282 -0.3408
21468SOL    HW165620   7.595   6.195   4.538  0.5091  1.7905 -0.8659
21468SOL    HW265621   7.710   6.121   4.603 -0.0744  0.1520 -1.6570
21469SOL     OW65622   7.427   6.012   4.711 -0.4431  0.2419 -1.1486
21469SOL    HW165623   7.461   6.091   4.669  0.3608 -0.3728 -1.6773
21469SOL    HW265624   7.363   6.045   4.774 -0.4205  1.2897 -1.6424
21470SOL     OW65625   7.600   6.929   4.812 -0.3109 -0.0057  0.3599
21470SOL    HW165626   7.663   6.897   4.748 -0.4510 -0.4110  0.4220
21470SOL    HW265627   7.622   6.882   4.893 -0.4073  0.1864  0.4995
21471SOL     OW65628   0.132   7.150   4.687 -0.0122  0.1952 -0.2098
21471SOL    HW165629   0.052   7.097   4.689 -0.9378  1.5669  0.7296
21471SOL    HW265630   0.169   7.135   4.600 -0.2956 -1.8665 -0.0232
21472SOL     OW65631   8.661   6.503   4.513  0.1865  0.8910 -0.5016
21472SOL    HW165632   8.699   6.522   4.599  0.8333 -0.3242 -0.5049
21472SOL    HW265633   8.574   6.469   4.532  0.5814 -0.0226 -0.2763
21473SOL     OW65634   7.922   6.671   4.471 -0.1307 -0.2253  0.0267
21473SOL    HW165635   7.828   6.664   4.486 -0.2961 -1.6723 -1.4315
21473SOL    HW265636   7.931   6.748   4.414 -0.1840  1.0576  1.6589
21474SOL     OW65637   8.492   6.400   5.510  0.4793 -0.1524  0.8261
21474SOL    HW165638   8.490   6.491   5.482  0.6285  0.1656  1.8244
21474SOL    HW265639   8.459   6.401   5.600 -0.4949 -1.2141  0.5076
21475SOL     OW65640   8.160   6.413   4.278 -0.3823  0.0386  0.6387
21475SOL    HW165641   8.161   6.509   4.272 -1.8767  0.0647  0.4045
21475SOL    HW265642   8.111   6.386   4.200 -0.0848 -0.9052  0.7780
21476SOL     OW65643   8.250   6.606   5.542 -0.0920 -0.0021 -0.1685
21476SOL    HW165644   8.263   6.634   5.452 -1.1826  0.8294 -0.0810
21476SOL    HW265645   8.180   6.541   5.538 -1.5800  1.5051  0.2775
21477SOL     OW65646   7.745   7.016   4.564  0.3344  0.1446  0.2534
21477SOL    HW165647   7.821   7.035   4.620 -0.5201 -0.6031  1.7346
21477SOL    HW265648   7.781   6.966   4.492  1.1099 -1.3664  1.6253
21478SOL     OW65649   7.968   5.936   5.106  0.0920 -0.1118  0.3554
21478SOL    HW165650   7.884   5.899   5.134 -1.3012  3.7066  1.9721
21478SOL    HW265651   8.018   5.945   5.188  1.8909 -1.7671 -0.5061
21479SOL     OW65652   7.924   7.295   4.130  0.2133  0.2263 -0.5515
21479SOL    HW165653   7.928   7.389   4.113 -0.8618  0.3554 -0.1817
21479SOL    HW265654   7.843   7.266   4.088 -0.1682 -0.2703  0.4763
21480SOL     OW65655   8.312   7.158   5.542 -0.0419 -0.2090  0.4101
21480SOL    HW165656   8.364   7.234   5.515 -0.3585 -0.7040 -1.7683
21480SOL    HW265657   8.367   7.083   5.519 -1.2089 -0.7082 -0.9293
21481SOL     OW65658   7.622   7.129   4.276  0.2835 -0.0844  0.0366
21481SOL    HW165659   7.671   7.168   4.348  0.6689  0.5585 -0.5676
21481SOL    HW265660   7.661   7.166   4.197 -0.9212  0.1503 -0.4659
21482SOL     OW65661   7.365   6.699   4.462  0.4775 -0.2442 -0.4154
21482SOL    HW165662   7.341   6.789   4.440 -0.9162 -0.4089  0.2897
21482SOL    HW265663   7.340   6.648   4.386  0.0126 -0.2051 -0.2909
21483SOL     OW65664   7.428   7.327   4.973 -0.2544 -0.3112  0.4800
21483SOL    HW165665   7.475   7.272   4.910 -3.4238 -1.1375 -1.4087
21483SOL    HW265666   7.383   7.264   5.029 -0.6309  0.4081  0.9921
21484SOL     OW65667   8.346   6.683   3.542  0.1105 -0.0036  0.0315
21484SOL    HW165668   8.256   6.678   3.574 -0.0617  1.3358 -0.1725
21484SOL    HW265669   8.395   6.623   3.599 -0.8457 -0.5110  0.3458
21485SOL     OW65670   7.665   6.307   4.061  0.4922  0.1480  0.4141
21485SOL    HW165671   7.695   6.216   4.070  0.5338 -0.0520 -1.4786
21485SOL    HW265672   7.687   6.347   4.145 -0.1072 -1.7388  1.5537
21486SOL     OW65673   7.668   7.239   4.034  0.6240  0.2719  0.3646
21486SOL    HW165674   7.657   7.167   3.972 -1.9782 -0.9657  2.0751
21486SOL    HW265675   7.618   7.311   3.995 -0.8495 -0.4426  0.8561
21487SOL     OW65676   8.779   6.379   4.968  0.2791  0.5282 -0.2210
21487SOL    HW165677   8.778   6.441   4.896  0.3575  1.3770  0.4882
21487SOL    HW265678   8.861   6.331   4.959  0.1459  0.4119 -0.8589
21488SOL     OW65679   7.438   6.203   5.276  0.2862 -0.0616  0.4654
21488SOL    HW165680   7.438   6.223   5.183 -0.9913  0.5430  0.5739
21488SOL    HW265681   7.374   6.132   5.286 -1.4311  1.4954  1.1584
21489SOL     OW65682   8.124   6.389   4.566 -0.0005  0.0335  0.4401
21489SOL    HW165683   8.079   6.307   4.587 -0.8848  0.1652 -0.8297
21489SOL    HW265684   8.104   6.404   4.474 -0.1011  1.8328  0.7185
21490SOL     OW65685   8.231   7.257   4.992  0.5205 -0.3978  0.0394
21490SOL    HW165686   8.201   7.194   4.926  1.2684  0.0035 -0.7122
21490SOL    HW265687   8.315   7.222   5.021 -0.1218 -0.9335  1.3085
21491SOL     OW65688   8.355   5.486   4.515 -0.0985  0.1920  0.2564
21491SOL    HW165689   8.375   5.423   4.446 -0.4891 -0.4935  0.7577
21491SOL    HW265690   8.263   5.470   4.536 -0.2970  1.1591  0.1592
21492SOL     OW65691   7.477   6.533   4.973  0.4076 -0.4684 -0.4922
21492SOL    HW165692   7.518   6.554   5.058  1.2509  0.4825 -1.1020
21492SOL    HW265693   7.531   6.579   4.909 -2.3842  2.0902 -1.2669
21493SOL     OW65694   8.493   7.358   5.484  0.3433  0.2742  0.0112
21493SOL    HW165695   8.583   7.328   5.467 -0.1860 -0.8660 -0.8926
21493SOL    HW265696   8.476   7.422   5.415 -0.2787 -1.1183 -1.1568
21494SOL     OW65697   8.048   5.857   5.736  0.2833 -0.2235 -0.1784
21494SOL    HW165698   8.002   5.781   5.770 -1.7123  1.2831  0.6750
21494SOL    HW265699   8.092   5.894   5.812  0.9908 -0.3329 -0.5286
21495SOL     OW65700   8.432   6.309   3.932 -0.3516  0.6743 -0.4174
21495SOL    HW165701   8.451   6.250   3.860  1.2024 -0.6614  1.0076
21495SOL    HW265702   8.344   6.284   3.962 -0.9259  1.1143 -1.6636
21496SOL     OW65703   8.617   6.140   4.534 -0.0728  0.3487 -0.1656
21496SOL    HW165704   8.558   6.129   4.609  0.7378 -0.5742  0.3580
21496SOL    HW265705   8.691   6.191   4.568  1.1941 -1.6249  0.2136
21497SOL     OW65706   8.156   6.283   5.308 -0.1569  0.2854 -0.1425
21497SOL    HW165707   8.136   6.324   5.392 -0.2418 -0.1311  0.0427
21497SOL    HW265708   8.112   6.338   5.243 -2.5582 -1.0056  0.2987
21498SOL     OW65709   0.230   6.405   5.944  0.1391 -0.1433 -0.0198
21498SOL    HW165710   0.261   6.494   5.963  0.2970 -0.1888 -0.0574
21498SOL    HW265711   0.158   6.391   6.005 -1.1033  0.6906 -1.2491
21499SOL     OW65712   8.280   6.911   5.137 -0.3115  0.1390  0.3983
21499SOL    HW165713   8.248   6.904   5.047 -0.2635  0.4567  0.3527
21499SOL    HW265714   8.229   6.847   5.186 -0.5150  0.1402  0.1916
21500SOL     OW65715   8.456   6.155   4.745 -0.5148 -0.6186  0.0293
21500SOL    HW165716   8.389   6.091   4.772  0.1087 -0.6485  1.6014
21500SOL    HW265717   8.480   6.200   4.826 -0.5550  1.2720 -0.9601
21501SOL     OW65718   8.649   6.317   4.099 -0.2873  0.3805  0.8666
21501SOL    HW165719   8.603   6.349   4.021 -1.6316  0.2688  1.5947
21501SOL    HW265720   8.581   6.278   4.153  0.8253 -0.6849  1.5369
21502SOL     OW65721   7.781   6.464   4.258  0.2631  0.1067  0.0043
21502SOL    HW165722   7.816   6.494   4.174  0.1529  0.9722  0.2641
21502SOL    HW265723   7.784   6.541   4.315 -1.4068  0.0285  0.2471
21503SOL     OW65724   7.365   7.659   5.546 -0.3163  0.1764  0.5170
21503SOL    HW165725   7.399   7.712   5.619 -0.1940  0.2263  0.4242
21503SOL    HW265726   7.275   7.639   5.571  0.3210 -1.5261  1.6547
21504SOL     OW65727   8.671   5.765   3.814  0.0721  0.0136  0.3249
21504SOL    HW165728   8.639   5.722   3.894 -0.0250  0.1680  0.3685
21504SOL    HW265729   8.736   5.703   3.779 -1.0836 -0.8399 -0.3814
21505SOL     OW65730   8.638   6.761   4.502  0.4393  0.9954  0.1660
21505SOL    HW165731   8.615   6.668   4.492  0.7606  1.0167 -0.8328
21505SOL    HW265732   8.591   6.789   4.581 -0.3683  0.2182 -0.0305
21506SOL     OW65733   7.789   5.971   4.526  0.3484  0.1041  0.0830
21506SOL    HW165734   7.738   5.985   4.446  0.5127  1.2288  0.1534
21506SOL    HW265735   7.851   5.901   4.503 -0.1825 -0.1888 -0.4889
21507SOL     OW65736   8.507   6.872   4.244  0.6826  0.1631  0.0946
21507SOL    HW165737   8.438   6.937   4.257 -0.1979 -0.4665 -1.2522
21507SOL    HW265738   8.531   6.844   4.333 -1.1195  0.0597  0.5807
21508SOL     OW65739   7.546   7.581   4.458 -0.1396 -0.3814 -0.1320
21508SOL    HW165740   7.520   7.490   4.473 -0.4602 -0.5482 -1.5807
21508SOL    HW265741   7.625   7.574   4.404 -0.0797  0.2026 -0.1190
21509SOL     OW65742   8.016   7.241   5.136 -0.3614 -0.1764  0.0529
21509SOL    HW165743   7.992   7.327   5.171 -0.9883  0.1187 -1.0515
21509SOL    HW265744   8.106   7.253   5.103 -0.8048  0.3644 -1.0168
21510SOL     OW65745   7.932   6.359   3.887  0.4170 -0.3665  0.0244
21510SOL    HW165746   7.860   6.383   3.944  1.3048 -2.0743  2.0028
21510SOL    HW265747   7.900   6.374   3.799 -1.7974  0.3353  0.9029
21511SOL     OW65748   7.671   6.716   5.556 -0.0845  0.0173  0.2083
21511SOL    HW165749   7.664   6.806   5.586 -1.4632  0.6568 -1.8202
21511SOL    HW265750   7.584   6.678   5.574  0.0373 -0.4784 -0.2285
21512SOL     OW65751   8.591   7.300   4.309 -0.5831 -0.3897 -0.0730
21512SOL    HW165752   8.629   7.275   4.224 -1.2790  0.2847 -0.6041
21512SOL    HW265753   8.524   7.365   4.286 -0.9671 -0.4060  0.9762
21513SOL     OW65754   7.493   5.590   5.229 -0.0757 -0.2947 -0.3700
21513SOL    HW165755   7.547   5.631   5.162  0.5668 -0.4288  0.0573
21513SOL    HW265756   7.518   5.635   5.310 -0.3850 -0.5674 -0.1218
21514SOL     OW65757   7.937   7.330   3.652  0.4110  0.6129  0.3161
21514SOL    HW165758   7.863   7.366   3.701 -0.1953  0.2910 -0.3326
21514SOL    HW265759   7.923   7.361   3.562  1.0759  0.5521  0.1865
21515SOL     OW65760   7.192   7.444   4.843  0.1938  0.1857 -0.0958
21515SOL    HW165761   7.237   7.368   4.879  0.8253  0.6307  0.0774
21515SOL    HW265762   7.139   7.409   4.771  2.3770 -0.0914 -1.6565
21516SOL     OW65763   8.366   7.370   4.467  1.0825  0.0164 -0.5399
21516SOL    HW165764   8.435   7.307   4.449  1.3890  0.2606 -0.2245
21516SOL    HW265765   8.377   7.437   4.400 -0.0957 -0.9299 -1.7408
21517SOL     OW65766   8.053   6.034   4.177  0.7617  0.0173 -0.3166
21517SOL    HW165767   7.977   5.981   4.155  0.6187 -0.7623  1.8594
21517SOL    HW265768   8.017   6.113   4.216  1.0338 -0.2920  0.5913
21518SOL     OW65769   8.250   5.286   3.912  0.1415  0.0918  0.3745
21518SOL    HW165770   8.164   5.314   3.941 -0.3264 -0.4999 -0.4241
21518SOL    HW265771   8.235   5.241   3.829  1.1548 -0.4554  0.4680
21519SOL     OW65772   0.311   5.711   5.138  0.1162 -0.3024 -0.6506
21519SOL    HW165773   0.356   5.747   5.062  2.5588  1.6216  1.4895
21519SOL    HW265774   0.231   5.764   5.146  1.9987  2.6225  0.4875
21520SOL     OW65775   7.856   6.754   5.140 -0.7429 -0.0525 -0.8164
21520SOL    HW165776   7.864   6.706   5.223 -0.7707 -1.3168 -1.5098
21520SOL    HW265777   7.769   6.793   5.143 -0.4622  0.5396  0.0540
21521SOL     OW65778   0.051   6.319   5.449 -0.7139  0.0914  0.1492
21521SOL    HW165779   0.099   6.325   5.532 -0.0004  2.5826 -0.3423
21521SOL    HW265780  -0.041   6.316   5.476 -0.4994 -3.8634  1.0702
21522SOL     OW65781   8.131   6.998   4.554 -0.0943 -0.9703 -0.0185
21522SOL    HW165782   8.096   7.061   4.491  0.4751 -0.6028  0.0190
21522SOL    HW265783   8.081   7.013   4.634 -0.5774 -1.1894 -0.2803
21523SOL     OW65784   8.425   6.415   4.599 -0.0654  0.3303 -0.0963
21523SOL    HW165785   8.437   6.338   4.653  2.1128 -0.4781 -1.5858
21523SOL    HW265786   8.342   6.400   4.552  0.7211 -1.5371 -0.9707
21524SOL     OW65787   7.980   5.099   3.919 -0.0888 -0.3386 -0.3017
21524SOL    HW165788   8.050   5.034   3.925 -0.7463 -1.0268 -0.0146
21524SOL    HW265789   7.906   5.060   3.965 -0.2886  0.8936  0.4793
21525SOL     OW65790   0.075   6.698   3.605  0.4249  0.4342  0.2243
21525SOL    HW165791  -0.005   6.682   3.655  1.4132 -0.1013  1.7184
21525SOL    HW265792   0.049   6.687   3.514 -1.2458  0.5171  0.6542
21526SOL     OW65793   7.830   5.873   4.071  0.0819  0.3589  0.1455
21526SOL    HW165794   7.789   5.901   3.989  1.5186 -0.3124 -0.8411
21526SOL    HW265795   7.886   5.800   4.046  0.4474  0.0478  1.7719
21527SOL     OW65796   8.288   5.982   4.358  0.5075  0.0545 -0.3463
21527SOL    HW165797   8.202   6.003   4.321  1.0214  0.0014 -1.6184
21527SOL    HW265798   8.344   6.055   4.332  0.5600  0.8001  1.6666
21528SOL     OW65799   8.798   6.652   5.562  0.0998 -0.0512  0.1623
21528SOL    HW165800   8.736   6.647   5.489 -2.0263  1.7345  1.7021
21528SOL    HW265801   8.747   6.628   5.639  1.5192  0.8392  1.4447
21529SOL     OW65802   8.699   7.488   4.766  0.0698  0.3656 -0.5735
21529SOL    HW165803   8.790   7.463   4.779 -0.5843 -1.9318  0.1860
21529SOL    HW265804   8.692   7.505   4.672  0.8477 -1.6112 -1.0351
21530SOL     OW65805   7.985   6.882   4.316  0.5558 -0.1074 -0.2384
21530SOL    HW165806   8.016   6.968   4.343  0.4178  0.1087 -0.7437
21530SOL    HW265807   7.929   6.900   4.240  0.7592 -0.6665 -0.5281
21531SOL     OW65808   8.218   7.678   4.666  0.1074 -0.4438 -0.0061
21531SOL    HW165809   8.142   7.678   4.608 -1.0117  0.2885  1.3951
21531SOL    HW265810   8.252   7.768   4.661  0.0447 -0.3943  0.4100
21532SOL     OW65811   8.404   5.858   3.562 -0.4289 -0.1532 -0.3775
21532SOL    HW165812   8.450   5.910   3.628  1.0304 -0.3941 -1.1674
21532SOL    HW265813   8.355   5.922   3.511 -1.2044  0.0825  0.6383
21533SOL     OW65814   7.458   6.233   5.027 -0.2101  0.4913  0.1486
21533SOL    HW165815   7.477   6.322   5.000 -1.2050  0.8504  0.5890
21533SOL    HW265816   7.538   6.184   5.008  0.9356  1.8019  1.3515
21534SOL     OW65817   7.985   5.682   4.757 -0.3093  0.1938 -0.5212
21534SOL    HW165818   8.052   5.613   4.755  0.2762  0.7503 -0.8429
21534SOL    HW265819   7.924   5.654   4.824  0.0256 -0.5386 -0.5038
21535SOL     OW65820   7.994   6.170   4.664 -0.7267  0.2822 -0.6354
21535SOL    HW165821   8.067   6.123   4.704 -0.3942  1.5091  0.2639
21535SOL    HW265822   7.944   6.102   4.619 -0.7665 -1.1019  1.3580
21536SOL     OW65823   8.010   5.812   4.498  0.3629  0.3974 -0.4478
21536SOL    HW165824   8.089   5.863   4.481  1.0118 -0.4251  0.0293
21536SOL    HW265825   8.012   5.795   4.592 -1.2057  1.6835 -0.1283
21537SOL     OW65826   8.047   6.982   3.863  0.3448  0.1494  0.3636
21537SOL    HW165827   8.022   6.978   3.770 -0.6418  0.8182  0.5903
21537SOL    HW265828   8.009   6.903   3.901 -1.2912  1.0618  0.6652
21538SOL     OW65829   8.750   6.399   3.803  0.1051  0.1569 -0.0284
21538SOL    HW165830   8.783   6.317   3.840  1.6191  1.0741  0.7016
21538SOL    HW265831   8.814   6.423   3.736 -0.8851  0.2279 -0.9848
21539SOL     OW65832   8.008   5.660   3.980  0.0368  0.1568 -0.1580
21539SOL    HW165833   8.002   5.566   3.961 -0.9611  0.0233  0.7465
21539SOL    HW265834   8.082   5.668   4.039 -0.1053 -0.1163  0.0607
21540SOL     OW65835   8.282   7.062   4.798  0.4957  0.0317  0.3180
21540SOL    HW165836   8.325   7.047   4.714  0.6278 -0.2490  0.4322
21540SOL    HW265837   8.276   6.975   4.838  0.4117  0.1581  0.5877
21541SOL     OW65838   8.544   7.259   4.810  0.1946 -0.2390  0.0511
21541SOL    HW165839   8.522   7.235   4.721 -1.4656  2.7514 -0.4689
21541SOL    HW265840   8.590   7.343   4.802  1.7548 -0.8442  1.9152
21542SOL     OW65841   8.394   5.939   4.901 -0.1194 -0.1427 -0.5516
21542SOL    HW165842   8.486   5.943   4.878  0.4765 -1.6563  1.3446
21542SOL    HW265843   8.381   5.852   4.938 -2.5166 -0.2720 -1.4599
21543SOL     OW65844   8.428   7.127   5.143 -0.3577 -0.2744  0.0429
21543SOL    HW165845   8.363   7.067   5.179  0.2608 -0.2573  1.2488
21543SOL    HW265846   8.508   7.107   5.192  0.2371  0.5232 -0.5779
21544SOL     OW65847   8.515   6.509   3.723 -0.0083 -0.5170  0.5422
21544SOL    HW165848   8.439   6.474   3.768  0.7752  0.4300  2.7593
21544SOL    HW265849   8.589   6.457   3.756  0.4906 -0.4859 -0.4737
21545SOL     OW65850   8.064   6.530   5.137 -0.2993  0.6771 -0.5886
21545SOL    HW165851   8.119   6.504   5.063  0.1902 -2.1620  0.6446
21545SOL    HW265852   7.974   6.515   5.108 -0.2462  1.6634 -1.3050
21546SOL     OW65853   0.019   6.082   5.304 -0.3860  0.1734 -0.3622
21546SOL    HW165854  -0.068   6.049   5.282 -0.5612 -0.9506  1.6910
21546SOL    HW265855   0.004   6.143   5.376  0.5135 -0.0248  0.0081
21547SOL     OW65856   7.141   7.352   5.334  0.1162  0.3680  0.9582
21547SOL    HW165857   7.183   7.433   5.306 -0.5582  0.8148  1.2148
21547SOL    HW265858   7.047   7.367   5.320 -0.0048 -0.4392  0.8282
21548SOL     OW65859   7.834   6.953   4.114  0.5056 -0.1856 -0.3054
21548SOL    HW165860   7.749   6.913   4.096  0.8192 -1.0192  0.0318
21548SOL    HW265861   7.843   7.021   4.047 -1.3260  1.3334  0.9100
21549SOL     OW65862   7.651   5.666   4.388  0.1008  0.5894 -0.1421
21549SOL    HW165863   7.589   5.596   4.410  1.9190 -0.3210  2.6206
21549SOL    HW265864   7.615   5.744   4.430  0.2230  0.3335  0.4447
21550SOL     OW65865   8.498   7.094   4.521  0.3408  0.2464  0.7037
21550SOL    HW165866   8.550   7.148   4.462 -1.6373 -1.2250 -2.6221
21550SOL    HW265867   8.440   7.043   4.464  0.1299 -3.3678  3.7195
21551SOL     OW65868   8.474   7.435   5.176  0.6363 -0.3020 -0.1714
21551SOL    HW165869   8.455   7.342   5.161 -0.5317 -0.1802  0.4781
21551SOL    HW265870   8.444   7.479   5.097 -1.1281 -0.2085  0.5116
21552SOL     OW65871   7.314   6.855   4.861  0.1571 -0.2235  0.0850
21552SOL    HW165872   7.268   6.940   4.860  0.1723 -0.2153 -0.4824
21552SOL    HW265873   7.407   6.878   4.858  0.1915 -0.2451  0.9695
21553SOL     OW65874   7.992   6.105   5.571  0.4480 -0.0809  0.0211
21553SOL    HW165875   7.996   6.014   5.602  0.5429  0.0817  0.4982
21553SOL    HW265876   8.082   6.135   5.574  0.4618 -0.0799 -0.4678
21554SOL     OW65877   8.367   5.677   5.020 -0.3308  0.0255  0.1175
21554SOL    HW165878   8.455   5.642   5.013 -0.1013  0.4071  0.9511
21554SOL    HW265879   8.319   5.637   4.948  0.7131  0.3967 -0.8040
21555SOL     OW65880   7.998   5.871   5.418  0.0694  0.3415  0.0005
21555SOL    HW165881   8.080   5.920   5.421 -0.0334  0.4714  1.3490
21555SOL    HW265882   8.011   5.799   5.480 -0.3589 -0.4321 -0.7774
21556SOL     OW65883   8.064   6.640   4.708 -0.4259 -0.6486 -0.3577
21556SOL    HW165884   8.111   6.562   4.676  1.0373  0.2443 -0.4909
21556SOL    HW265885   8.008   6.666   4.635  0.8379 -0.2282 -1.2164
21557SOL     OW65886   8.375   6.598   4.972 -0.0846  0.2607 -0.1595
21557SOL    HW165887   8.305   6.547   4.930  0.7896 -1.0989  0.0155
21557SOL    HW265888   8.420   6.536   5.029  1.4657  1.0391 -0.4928
21558SOL     OW65889   8.456   5.464   3.833 -0.1454 -0.8279 -0.2153
21558SOL    HW165890   8.499   5.500   3.911 -1.8875  3.3514 -0.9266
21558SOL    HW265891   8.392   5.402   3.868  2.3670 -2.8561  1.1913
21559SOL     OW65892   7.432   5.601   4.738 -0.3654  0.2342 -0.1660
21559SOL    HW165893   7.433   5.600   4.643  0.1237  0.9890 -0.1794
21559SOL    HW265894   7.348   5.642   4.761 -0.2795  0.4814 -0.2860
21560SOL     OW65895   7.324   7.167   5.186 -0.5407 -0.3542 -0.0654
21560SOL    HW165896   7.277   7.243   5.220  0.2454 -0.0454  0.3442
21560SOL    HW265897   7.351   7.119   5.265  2.1190  0.8499 -0.1260
21561SOL     OW65898   7.751   6.138   5.027  0.1941 -0.5067  0.5355
21561SOL    HW165899   7.753   6.080   5.103 -0.0172 -0.9982  0.1701
21561SOL    HW265900   7.795   6.089   4.958 -3.1628 -1.8322 -0.8751
21562SOL     OW65901   7.799   5.376   4.222  0.1114  0.1880 -0.3854
21562SOL    HW165902   7.821   5.314   4.292 -1.2237  0.3935  0.2497
21562SOL    HW265903   7.863   5.446   4.230 -0.5491  0.6405  1.2076
21563SOL     OW65904   0.015   6.076   4.075  0.0011 -0.0145 -0.2758
21563SOL    HW165905   0.047   6.100   3.989 -0.6744  0.0333 -0.5184
21563SOL    HW265906  -0.072   6.115   4.081 -0.3881 -0.8834  0.0164
21564SOL     OW65907   8.207   6.405   4.863 -0.1429 -0.2154  0.3424
21564SOL    HW165908   8.215   6.316   4.899 -1.5346  0.1844  1.7730
21564SOL    HW265909   8.189   6.392   4.770  0.6497 -1.3982  0.3366
21565SOL     OW65910   7.927   6.929   5.483  0.1654  0.4004  0.2459
21565SOL    HW165911   7.973   6.983   5.419  0.1675  1.1621  0.8900
21565SOL    HW265912   7.911   6.846   5.437  2.8245 -0.1905  0.2140
21566SOL     OW65913   7.616   6.588   5.199  0.0358 -0.2101  0.2870
21566SOL    HW165914   7.604   6.526   5.270  1.2449  1.1830  1.7888
21566SOL    HW265915   7.698   6.563   5.158 -0.2224 -0.4850 -0.0683
21567SOL     OW65916   0.162   6.660   3.303  0.6376 -0.2126  0.3109
21567SOL    HW165917   0.127   6.588   3.250 -0.4259 -0.0987  0.8370
21567SOL    HW265918   0.164   6.735   3.244  0.1821 -0.2714  0.2195
21568SOL     OW65919   8.226   7.317   4.689  0.0791 -0.1233 -0.6976
21568SOL    HW165920   8.261   7.247   4.744  0.5970  0.9078  0.3265
21568SOL    HW265921   8.289   7.326   4.618 -0.6506 -1.5379 -1.5505
21569SOL     OW65922   7.714   6.630   4.798  0.3200  0.4356  0.5396
21569SOL    HW165923   7.785   6.680   4.838  2.3604 -0.3564 -1.8593
21569SOL    HW265924   7.752   6.544   4.781 -0.6677  0.4683 -2.2376
21570SOL     OW65925   7.788   6.377   4.765 -0.5231  0.2375  0.9365
21570SOL    HW165926   7.725   6.312   4.733  0.5597  0.3384 -1.7254
21570SOL    HW265927   7.873   6.335   4.752  0.0600  0.9993  2.2020
21571SOL     OW65928   8.654   6.164   5.539  0.1094 -0.3171  0.3350
21571SOL    HW165929   8.681   6.152   5.630  1.2735  2.2317  0.4261
21571SOL    HW265930   8.601   6.244   5.540 -0.3830 -0.5967 -1.1434
21572SOL     OW65931   8.644   6.013   5.152 -0.0549  0.9791  0.3439
21572SOL    HW165932   8.612   6.063   5.077 -0.1821 -1.7349 -1.5566
21572SOL    HW265933   8.577   6.025   5.219 -0.4523  2.6512 -0.2855
21573SOL     OW65934   7.660   7.007   3.894  0.0772  1.0665  0.4207
21573SOL    HW165935   7.578   6.975   3.932  0.0340  1.0103  0.2816
21573SOL    HW265936   7.707   6.927   3.869 -0.3110  1.1221 -0.5156
21574SOL     OW65937   7.389   7.408   4.264  0.0987 -0.3703 -0.3242
21574SOL    HW165938   7.367   7.341   4.329  1.4589 -0.9254 -0.3920
21574SOL    HW265939   7.402   7.488   4.315  0.5947 -0.6712  0.0376
21575SOL     OW65940   7.780   7.321   4.454  0.0405 -0.0884  0.3174
21575SOL    HW165941   7.865   7.292   4.489 -0.3094 -0.3873  0.9341
21575SOL    HW265942   7.798   7.407   4.417  0.1860  0.8490  2.4195
21576SOL     OW65943   7.855   5.907   4.857 -0.2794 -0.5481 -0.0063
21576SOL    HW165944   7.922   5.880   4.794  0.0190  2.7265 -1.3013
21576SOL    HW265945   7.903   5.922   4.938  0.1072 -0.6059 -0.2232
21577SOL     OW65946   7.300   6.343   4.698 -0.1922 -0.4223 -0.3525
21577SOL    HW165947   7.267   6.290   4.771  1.3505 -2.9012 -1.3132
21577SOL    HW265948   7.299   6.433   4.731 -0.8757 -1.2730  2.1999
21578SOL     OW65949   7.615   6.396   5.402  0.5170 -0.5024 -0.5453
21578SOL    HW165950   7.671   6.365   5.472  1.0809  2.7920  0.6244
21578SOL    HW265951   7.567   6.318   5.374  1.5671 -2.3112  2.2422
21579SOL     OW65952   8.545   6.012   4.129 -0.1047  0.1923  0.1873
21579SOL    HW165953   8.577   6.014   4.039 -0.0172 -1.8143  0.1439
21579SOL    HW265954   8.480   6.083   4.133  1.1500  1.4760 -0.9276
21580SOL     OW65955   7.440   6.541   5.567  0.6692  0.0499  0.2878
21580SOL    HW165956   7.365   6.482   5.552  0.4002  0.6913 -1.0163
21580SOL    HW265957   7.515   6.493   5.532  0.6140  0.0629  0.1507
21581SOL     OW65958   7.597   5.888   4.910  0.0872  0.0736 -0.2543
21581SOL    HW165959   7.532   5.919   4.847  1.5527  3.2435 -0.4018
21581SOL    HW265960   7.676   5.874   4.859  0.0974 -2.0405  0.2124
21582SOL     OW65961   7.936   7.020   4.743 -0.0463 -0.4386  0.3701
21582SOL    HW165962   7.914   6.939   4.789 -0.0183  0.3283  1.7835
21582SOL    HW265963   7.931   7.088   4.810  1.4314  0.5245 -0.4342
21583SOL     OW65964   8.238   5.881   4.054 -0.5742 -0.1192  0.0169
21583SOL    HW165965   8.179   5.940   4.100 -1.9832 -0.9068 -0.7147
21583SOL    HW265966   8.301   5.853   4.120 -1.4796  0.1529  1.0241
21584SOL     OW65967   7.233   6.774   5.098 -0.5459  0.0060  0.2819
21584SOL    HW165968   7.144   6.805   5.118 -0.6511  1.0595 -1.5381
21584SOL    HW265969   7.245   6.795   5.005  0.9886 -1.6834  0.0413
21585SOL     OW65970   8.684   6.546   5.217 -0.1127  0.1104 -0.4864
21585SOL    HW165971   8.703   6.474   5.157 -0.2756 -0.6497  0.3517
21585SOL    HW265972   8.768   6.590   5.230  0.4734 -1.2816  0.7116
21586SOL     OW65973   0.017   6.452   4.317 -0.5067 -0.6639  0.5609
21586SOL    HW165974  -0.070   6.451   4.358  0.1788 -0.6842  2.0914
21586SOL    HW265975   0.039   6.545   4.310 -1.2685 -0.5853 -1.2775
21587SOL     OW65976   0.003   7.743   4.692 -0.0140 -0.0978 -0.1416
21587SOL    HW165977  -0.072   7.739   4.632 -1.1671  1.7324  1.1031
21587SOL    HW265978  -0.034   7.723   4.778  1.0548  0.2059  0.4061
21588SOL     OW65979   7.274   6.631   4.713 -0.3203  0.3723 -0.2444
21588SOL    HW165980   7.320   6.640   4.630 -0.3873 -1.4899 -0.5262
21588SOL    HW265981   7.288   6.715   4.758  1.9607  0.4502 -0.9978
21589SOL     OW65982   7.738   7.213   5.093  0.1531  0.2033  0.2952
21589SOL    HW165983   7.688   7.262   5.029  1.8851  0.2693 -1.0835
21589SOL    HW265984   7.826   7.207   5.056  0.7273 -1.4531  1.7596
21590SOL     OW65985   0.246   7.080   4.427  0.3113  0.7299 -0.3161
21590SOL    HW165986   0.314   7.082   4.360 -0.2483  1.4974 -0.8817
21590SOL    HW265987   0.245   6.990   4.458  1.1110  0.5493 -0.7890
21591SOL     OW65988   7.650   6.942   5.090 -0.7289 -0.2264 -0.0548
21591SOL    HW165989   7.567   6.945   5.136 -0.8470  1.3945 -0.3309
21591SOL    HW265990   7.688   7.029   5.102  0.5370 -0.6633 -0.6497
21592SOL     OW65991   8.500   6.749   4.746  0.0483 -0.5615 -0.2624
21592SOL    HW165992   8.461   6.683   4.803 -3.4424  1.4727 -0.0251
21592SOL    HW265993   8.533   6.816   4.805  1.4379 -0.9533 -0.5640
21593SOL     OW65994   7.897   6.805   4.886 -0.0440 -0.7612  0.0823
21593SOL    HW165995   7.988   6.774   4.885 -0.0934 -1.1423  2.5246
21593SOL    HW265996   7.873   6.805   4.978 -1.0855  3.6145  0.0338
21594SOL     OW65997   8.353   6.904   3.887 -0.3164 -0.3704 -0.1889
21594SOL    HW165998   8.367   6.837   3.954 -0.7025  0.7422  1.0273
21594SOL    HW265999   8.258   6.915   3.884 -0.2028  1.0097  0.5364
21595SOL     OW66000   7.690   5.993   4.271 -0.4381  0.0785  0.2689
21595SOL    HW166001   7.738   5.960   4.195  0.2863 -3.0461  1.8986
21595SOL    HW266002   7.599   5.995   4.241 -0.0169  0.3115 -1.0925
21596SOL     OW66003   8.701   7.219   4.074 -0.1598  0.0204  0.2356
21596SOL    HW166004   8.662   7.170   4.001  0.3158  1.4265 -1.0157
21596SOL    HW266005   8.783   7.173   4.092 -0.6739 -0.8286  0.4615
21597SOL     OW66006   8.223   6.793   4.881  0.2237  0.1925 -0.0659
21597SOL    HW166007   8.188   6.729   4.820  0.7624  0.8866 -1.1518
21597SOL    HW266008   8.272   6.742   4.945 -0.4127 -0.5575 -0.1677
21598SOL     OW66009   8.585   6.024   3.846 -0.4376 -0.7206  0.2378
21598SOL    HW166010   8.620   5.939   3.820 -2.2935 -1.5327  0.2444
21598SOL    HW266011   8.494   6.023   3.815 -0.3696  1.4422 -0.1504
21599SOL     OW66012   7.456   6.837   5.234  0.9264  0.7102 -0.1202
21599SOL    HW166013   7.372   6.805   5.201 -0.0865  2.7801  0.2881
21599SOL    HW266014   7.512   6.760   5.235 -0.6407 -0.5211 -1.4137
21600SOL     OW66015   8.171   6.681   4.278  0.3386 -0.2180 -0.1168
21600SOL    HW166016   8.110   6.753   4.262  0.3122 -0.7972 -3.0734
21600SOL    HW266017   8.220   6.708   4.356 -1.3580  1.7987  0.3432
21601SOL     OW66018   8.224   5.957   4.625 -0.5836 -0.3648  0.1806
21601SOL    HW166019   8.288   5.907   4.676 -1.1339 -0.6043  0.6585
21601SOL    HW266020   8.268   5.975   4.542 -0.2247 -1.3140  0.1508
21602SOL     OW66021   8.157   6.285   4.003 -0.1302  0.2534  0.7096
21602SOL    HW166022   8.143   6.195   4.033 -0.2408  0.4663  1.2986
21602SOL    HW266023   8.071   6.313   3.972  0.2662 -0.4481 -1.1774
21603SOL     OW66024   8.054   7.171   4.346 -1.0964  0.0875 -0.0643
21603SOL    HW166025   8.014   7.204   4.266 -1.2322  0.3927  0.1278
21603SOL    HW266026   8.054   7.246   4.406  2.5151  1.0739 -1.0525
21604SOL     OW66027   7.253   6.336   5.502  0.2996  0.0846 -0.3388
21604SOL    HW166028   7.283   6.279   5.431  1.6997  1.0314 -0.5505
21604SOL    HW266029   7.267   6.285   5.581 -1.5491 -1.1019 -0.6969
21605SOL     OW66030   8.207   6.140   4.936  0.5398  0.3476  0.7912
21605SOL    HW166031   8.123   6.104   4.962 -0.1400  1.6223  0.4566
21605SOL    HW266032   8.270   6.072   4.957 -0.6767 -1.0455  0.1236
21606SOL     OW66033   7.868   5.531   3.690 -0.0416  0.2541 -0.0075
21606SOL    HW166034   7.930   5.488   3.631  2.1352  0.5468  1.9131
21606SOL    HW266035   7.865   5.622   3.661  0.2528  0.1836 -0.2596
21607SOL     OW66036   8.843   6.548   4.768 -0.4341  0.3911 -0.5097
21607SOL    HW166037   8.870   6.639   4.761 -1.2330  0.5194 -2.6162
21607SOL    HW266038   8.899   6.501   4.705  0.3603 -0.6953  0.9483
21608SOL     OW66039   7.645   5.550   3.845 -0.4931  0.0818 -0.2413
21608SOL    HW166040   7.664   5.620   3.907 -1.4319 -0.0762  0.2427
21608SOL    HW266041   7.730   5.526   3.809  0.0911  0.0733  1.0985
21609SOL     OW66042   8.622   6.764   3.665 -0.0955  0.3169  0.1168
21609SOL    HW166043   8.572   6.800   3.592 -0.8620 -1.0634 -0.0615
21609SOL    HW266044   8.570   6.689   3.695  1.8726 -1.2131 -0.1055
21610SOL     OW66045   7.831   6.396   5.031 -0.1338  0.1961  0.0324
21610SOL    HW166046   7.806   6.416   4.940 -2.3495  0.7597  0.7050
21610SOL    HW266047   7.807   6.304   5.042  1.7615 -0.3945 -0.4188
21611SOL     OW66048   8.499   6.010   5.397  0.3226 -0.7457 -0.3490
21611SOL    HW166049   8.572   6.048   5.445  0.0550  0.5127 -0.8875
21611SOL    HW266050   8.435   5.987   5.464  0.3267  0.1430 -0.0331
21612SOL     OW66051   8.568   6.857   5.196  0.4201 -0.0145  0.3158
21612SOL    HW166052   8.576   6.770   5.156 -1.6962 -0.2971  0.4125
21612SOL    HW266053   8.486   6.892   5.162 -0.2089  0.7691  2.4712
21613SOL     OW66054   7.617   7.193   5.363  0.3146 -0.4031  0.1102
21613SOL    HW166055   7.665   7.209   5.282  0.3878  0.2343  0.2765
21613SOL    HW266056   7.549   7.261   5.365 -0.6365 -1.3214 -0.1470
21614SOL     OW66057   0.166   5.207   4.160  0.3641  0.1822 -0.2674
21614SOL    HW166058   0.164   5.156   4.241  1.6146 -1.2639 -1.1144
21614SOL    HW266059   0.131   5.293   4.186  0.3580 -0.3581  1.7004
21615SOL     OW66060   8.394   6.233   4.331  0.3923  0.5677  0.1921
21615SOL    HW166061   8.319   6.291   4.316  0.7669  0.8624 -0.6030
21615SOL    HW266062   8.434   6.268   4.411 -0.1920  0.5323  0.5120
21616SOL     OW66063   8.217   6.474   3.758  0.2871  0.0973  0.1419
21616SOL    HW166064   8.138   6.428   3.730 -0.6252  1.3752  0.5206
21616SOL    HW266065   8.200   6.497   3.850  0.6597  1.2741 -0.0679
21617SOL     OW66066   8.070   7.511   4.821 -0.1694  0.0664 -0.0849
21617SOL    HW166067   8.128   7.451   4.774 -0.9279 -1.0849  0.4137
21617SOL    HW266068   8.104   7.598   4.801  0.3347 -0.4664 -1.6677
21618SOL     OW66069   8.303   6.779   4.498  0.3759 -0.0956 -0.5135
21618SOL    HW166070   8.257   6.860   4.522  2.1655  0.9586 -0.4315
21618SOL    HW266071   8.311   6.731   4.580  1.0737  0.6242 -0.1384
21619SOL     OW66072   8.543   6.379   3.351  1.1129  0.1749 -0.2824
21619SOL    HW166073   8.478   6.394   3.419  1.1255  0.4299 -0.3236
21619SOL    HW266074   8.492   6.366   3.271  1.1275  1.0802 -0.4462
21620SOL     OW66075   8.086   6.922   5.734 -0.4578 -0.7221 -0.7770
21620SOL    HW166076   8.083   6.928   5.638 -3.4146  1.0686 -0.6851
21620SOL    HW266077   8.016   6.861   5.756 -0.8823  0.1158  0.2771
21621SOL     OW66078   7.650   6.703   4.552 -0.0989  0.0305  0.1238
21621SOL    HW166079   7.554   6.704   4.549 -0.3481 -3.6105  1.7141
21621SOL    HW266080   7.672   6.677   4.642  2.5792  3.3084  0.6135
21622SOL     OW66081   8.162   6.731   5.307 -0.0270 -0.1703  0.2566
21622SOL    HW166082   8.096   6.756   5.371 -0.6768  0.4725 -0.6307
21622SOL    HW266083   8.118   6.665   5.253  0.5079 -0.6978  0.4646
21623SOL     OW66084   7.880   6.218   4.273 -0.4236  0.1106 -0.1489
21623SOL    HW166085   7.849   6.308   4.283  0.7501  0.6619 -1.2518
21623SOL    HW266086   7.799   6.166   4.267 -1.1137  0.9975  1.0469
21624SOL     OW66087   7.643   5.668   5.029  0.0695  0.1208  0.4288
21624SOL    HW166088   7.628   5.618   4.949  2.2413 -0.2048  0.1533
21624SOL    HW266089   7.634   5.760   5.002  1.4995  0.0531 -0.4301
21625SOL     OW66090   8.034   7.413   4.502  0.4112  0.0667  0.4723
21625SOL    HW166091   8.102   7.414   4.570 -1.0792  0.5301  2.0424
21625SOL    HW266092   8.005   7.504   4.496  0.4252  0.0083 -0.7240
21626SOL     OW66093   0.233   6.033   5.035 -0.1327  0.4293  0.1051
21626SOL    HW166094   0.239   6.110   5.091 -2.0920  0.2374  0.6469
21626SOL    HW266095   0.159   5.983   5.070  0.3472 -1.1125 -0.9531
21627SOL     OW66096   8.440   5.733   4.550 -0.1868 -0.5305 -0.0482
21627SOL    HW166097   8.385   5.792   4.498  1.0575  0.4128 -0.3597
21627SOL    HW266098   8.401   5.646   4.538 -2.2988  0.2522  0.7299
21628SOL     OW66099   8.222   6.623   3.998 -0.2970  0.2287  0.2006
21628SOL    HW166100   8.181   6.618   4.084  0.1169 -0.1128  0.3821
21628SOL    HW266101   8.315   6.637   4.016 -0.1369 -0.2925 -0.1727
21629SOL     OW66102   7.590   7.187   4.782  0.1868  0.2652  0.1397
21629SOL    HW166103   7.590   7.092   4.780  0.5021  0.2569  0.5414
21629SOL    HW266104   7.682   7.212   4.785  0.1522  0.6115 -1.0085
21630SOL     OW66105   8.637   5.377   3.647  0.1089 -0.7194 -0.4594
21630SOL    HW166106   8.707   5.401   3.708 -0.9964  0.0929  0.5400
21630SOL    HW266107   8.559   5.417   3.684 -0.8639 -1.4638 -1.6432
21631SOL     OW66108   7.608   6.559   3.706 -0.3006 -0.6096  0.0305
21631SOL    HW166109   7.683   6.556   3.647  1.7265 -1.5155  2.4725
21631SOL    HW266110   7.538   6.515   3.659 -0.4373  2.9297 -3.6238
21632SOL     OW66111   8.344   7.087   4.260  0.2270  0.0036  0.2411
21632SOL    HW166112   8.259   7.108   4.300 -0.4721 -0.1820 -1.0945
21632SOL    HW266113   8.346   7.139   4.180  0.8531 -0.8909 -0.3385
21633SOL     OW66114   7.302   5.792   5.538 -0.0097  0.0821 -0.3951
21633SOL    HW166115   7.285   5.734   5.463 -3.6846  1.8194 -1.1008
21633SOL    HW266116   7.300   5.733   5.614 -1.8789 -1.0000 -1.2210
21634SOL     OW66117   7.619   5.973   6.625  0.0780  0.3462 -0.3872
21634SOL    HW166118   7.633   5.895   6.680 -0.5015  0.9484  0.6347
21634SOL    HW266119   7.524   5.977   6.613  0.1253  0.7791 -0.6234
21635SOL     OW66120   7.495   6.047   6.224  0.0737 -0.1684  0.1178
21635SOL    HW166121   7.521   5.988   6.153  2.0066  1.1894 -0.3726
21635SOL    HW266122   7.447   5.990   6.285  2.5150 -2.4966  0.0819
21636SOL     OW66123   0.318   6.940   6.385  0.2564  0.3406  0.2916
21636SOL    HW166124   0.366   6.972   6.309  0.8179 -0.2707  0.3772
21636SOL    HW266125   0.226   6.960   6.366  0.4394  0.6052 -0.3365
21637SOL     OW66126   8.306   6.316   6.451  0.3746 -0.5562  0.0082
21637SOL    HW166127   8.310   6.411   6.436  0.0501 -0.4032  0.8240
21637SOL    HW266128   8.255   6.307   6.532  0.4399 -1.4275 -0.0410
21638SOL     OW66129   8.255   6.691   6.568 -0.1972 -0.0039  0.3215
21638SOL    HW166130   8.275   6.711   6.660 -1.1630  1.1353  0.3001
21638SOL    HW266131   8.160   6.697   6.562 -0.1971 -0.6927 -0.6285
21639SOL     OW66132   8.238   6.148   7.793 -0.0098  0.2397  0.1963
21639SOL    HW166133   8.259   6.138   7.886 -0.3134 -0.6614  0.1744
21639SOL    HW266134   8.305   6.209   7.760 -0.7406  1.6969  1.2979
21640SOL     OW66135   8.533   7.280   6.136  0.0646 -0.1084 -0.7268
21640SOL    HW166136   8.578   7.201   6.107 -0.7375 -1.1135  0.6300
21640SOL    HW266137   8.455   7.284   6.081 -0.6195 -1.0964  0.1176
21641SOL     OW66138   8.268   6.753   7.953 -0.2086  0.0735  0.0089
21641SOL    HW166139   8.198   6.729   8.014 -3.1316  4.0506 -1.3684
21641SOL    HW266140   8.246   6.708   7.872  2.3826 -3.3421  0.9592
21642SOL     OW66141   8.079   7.217   6.450 -0.0251  0.0323 -0.5212
21642SOL    HW166142   8.020   7.288   6.475 -0.7590 -1.2612  1.6734
21642SOL    HW266143   8.041   7.182   6.369 -0.1668  1.5238 -1.1193
21643SOL     OW66144   8.110   5.643   6.855 -0.5924  0.0868 -0.0432
21643SOL    HW166145   8.105   5.708   6.926  1.3762 -1.5709  1.7299
21643SOL    HW266146   8.118   5.696   6.776  0.6750  2.0492  1.2853
21644SOL     OW66147   7.482   7.498   6.110 -0.4372  0.1386 -0.3114
21644SOL    HW166148   7.564   7.449   6.118  0.6368  1.9502  0.4150
21644SOL    HW266149   7.505   7.588   6.132 -3.0987  0.3142  2.5490
21645SOL     OW66150   8.757   6.873   7.345 -0.1110 -0.2373  0.1054
21645SOL    HW166151   8.832   6.928   7.368 -0.4341  0.4980 -0.5870
21645SOL    HW266152   8.739   6.894   7.254  0.0039 -1.7854 -0.2935
21646SOL     OW66153   7.466   7.094   6.160  0.3093  0.2039 -0.3127
21646SOL    HW166154   7.488   7.026   6.096 -2.6327  0.8924 -2.2815
21646SOL    HW266155   7.386   7.134   6.125 -0.2137  2.1349  2.7396
21647SOL     OW66156   7.915   6.383   6.497 -0.4328 -0.3810  0.0942
21647SOL    HW166157   7.918   6.478   6.510 -0.7735 -0.1731 -1.2012
21647SOL    HW266158   7.982   6.349   6.556  0.3132  0.7413 -0.0642
21648SOL     OW66159   7.854   7.314   6.983  0.4613 -0.2795 -0.2771
21648SOL    HW166160   7.766   7.345   7.006 -0.4626 -3.1205  0.4284
21648SOL    HW266161   7.907   7.331   7.060 -0.1311 -0.7565  0.2491
21649SOL     OW66162   7.899   6.654   5.419  0.1352 -0.6343  0.0782
21649SOL    HW166163   7.930   6.585   5.477 -0.4731  0.7160  2.1437
21649SOL    HW266164   7.815   6.681   5.457  0.8720  1.9714  0.0560
21650SOL     OW66165   7.433   6.307   6.214 -0.0547  0.3736  0.2819
21650SOL    HW166166   7.451   6.213   6.207 -0.0484  0.3126  1.0493
21650SOL    HW266167   7.340   6.315   6.192 -0.0548  0.1833  0.2092
21651SOL     OW66168   7.545   6.555   5.823 -0.1562  0.1931  0.7825
21651SOL    HW166169   7.547   6.515   5.737  2.0652 -0.1627  0.9532
21651SOL    HW266170   7.452   6.569   5.841 -0.7109 -0.6714 -1.2097
21652SOL     OW66171   0.641   6.284   6.425  0.4431 -0.4901 -0.2975
21652SOL    HW166172   0.714   6.333   6.385  1.2877 -1.3296  0.1651
21652SOL    HW266173   0.568   6.298   6.365  0.8352  0.7794 -0.5326
21653SOL     OW66174   7.428   6.593   6.910 -0.0745 -0.7777  0.3123
21653SOL    HW166175   7.473   6.643   6.842 -2.1050  0.8371  0.0357
21653SOL    HW266176   7.374   6.531   6.861 -0.8684 -0.2061  0.4258
21654SOL     OW66177   7.845   6.926   6.335 -0.0198 -0.6738  0.2916
21654SOL    HW166178   7.760   6.970   6.325 -0.5481 -1.5556  0.7418
21654SOL    HW266179   7.908   6.987   6.298 -0.7783  0.2818  0.5286
21655SOL     OW66180   8.685   7.047   7.111  0.5593  0.3010  0.2571
21655SOL    HW166181   8.599   7.083   7.089  0.7079  1.0924  0.9251
21655SOL    HW266182   8.730   7.119   7.156  1.8710  0.1886 -0.7885
21656SOL     OW66183   8.025   5.317   5.689  0.2576  0.5582 -0.3746
21656SOL    HW166184   8.048   5.230   5.655 -0.5958 -0.0576  0.5859
21656SOL    HW266185   8.068   5.322   5.774  1.1696  1.5108 -0.8764
21657SOL     OW66186   8.094   7.103   7.163  0.3782  0.2977 -0.2737
21657SOL    HW166187   8.120   7.054   7.085 -1.2974  1.4649 -1.6588
21657SOL    HW266188   8.140   7.187   7.155 -1.2168  1.1466 -1.0703
21658SOL     OW66189   8.784   7.283   7.265 -0.2396  0.1705 -0.5817
21658SOL    HW166190   8.726   7.353   7.234  0.5951  0.3476 -1.8319
21658SOL    HW266191   8.872   7.319   7.255  0.1348 -0.3525  0.6248
21659SOL     OW66192   7.845   5.970   7.078  0.1465  0.1248 -0.6135
21659SOL    HW166193   7.772   6.030   7.063 -0.7823 -0.8992 -0.2845
21659SOL    HW266194   7.814   5.910   7.146  1.3735 -0.2100 -0.3176
21660SOL     OW66195   8.070   6.382   5.817 -0.1101  0.3721 -0.3509
21660SOL    HW166196   7.975   6.395   5.812  0.1412  4.1362  0.8280
21660SOL    HW266197   8.084   6.337   5.900 -0.8548  0.5562 -0.1186
21661SOL     OW66198   0.066   6.142   6.729  0.3302  0.3654  0.2843
21661SOL    HW166199   0.031   6.196   6.658  1.4139 -1.6148 -1.9269
21661SOL    HW266200   0.116   6.202   6.783 -0.8818  2.0435 -0.3776
21662SOL     OW66201   7.924   6.007   6.830 -0.5270  0.4490  0.1722
21662SOL    HW166202   7.881   6.088   6.802 -0.8866  0.2420  0.1198
21662SOL    HW266203   7.874   5.980   6.907  0.7508  1.2849  1.3549
21663SOL     OW66204   0.152   6.222   7.533  0.0120  0.2267 -0.7624
21663SOL    HW166205   0.225   6.225   7.595 -0.3394 -1.9255 -0.1726
21663SOL    HW266206   0.087   6.164   7.574 -0.5391 -0.6955 -2.8016
21664SOL     OW66207   8.283   6.266   7.288 -0.1093 -0.2990 -0.0043
21664SOL    HW166208   8.374   6.236   7.287  0.0695  0.2385 -0.3778
21664SOL    HW266209   8.289   6.358   7.313 -0.5630 -0.2901  0.0693
21665SOL     OW66210   8.473   5.694   6.481  0.2081  0.5437 -0.1592
21665SOL    HW166211   8.416   5.679   6.557 -0.2629  1.1195 -0.3940
21665SOL    HW266212   8.561   5.698   6.518 -0.1012  1.7851  0.5060
21666SOL     OW66213   8.150   6.554   6.100 -0.4794  0.6542  0.1854
21666SOL    HW166214   8.068   6.597   6.124  0.4667  1.9626  1.2634
21666SOL    HW266215   8.125   6.465   6.076 -2.4203  1.5485 -1.3436
21667SOL     OW66216   7.452   6.256   6.501  0.5559  0.6499 -0.1535
21667SOL    HW166217   7.450   6.345   6.465  0.7083  0.1960 -1.3317
21667SOL    HW266218   7.469   6.200   6.425  1.3841 -0.3164  0.7175
21668SOL     OW66219   6.978   7.174   7.201 -0.2113 -0.7540  0.0520
21668SOL    HW166220   6.999   7.163   7.109 -0.4309 -2.1383  0.1309
21668SOL    HW266221   7.062   7.193   7.243 -0.3852  1.8772 -0.6489
21669SOL     OW66222   8.025   6.451   5.551 -0.5716 -0.0363 -0.2266
21669SOL    HW166223   7.954   6.387   5.546 -1.3226  0.7912 -0.4955
21669SOL    HW266224   8.046   6.457   5.644 -0.4630 -0.6964 -0.2042
21670SOL     OW66225   0.044   6.733   5.967 -0.1489  0.6011  0.1140
21670SOL    HW166226   0.015   6.717   6.057  0.4617  0.7551  0.3427
21670SOL    HW266227   0.137   6.710   5.968 -0.6371 -1.8207 -1.0703
21671SOL     OW66228   8.230   5.998   6.200 -0.7673  0.1715  0.1194
21671SOL    HW166229   8.184   5.942   6.263  0.2717 -0.6854  0.1454
21671SOL    HW266230   8.291   6.049   6.254 -1.2860  0.9272  0.0215
21672SOL     OW66231   8.662   7.062   6.008  0.1213  0.3292  0.2130
21672SOL    HW166232   8.632   7.009   6.081  2.8195 -0.2575  0.9985
21672SOL    HW266233   8.660   7.003   5.933  1.5949 -0.4999  0.7707
21673SOL     OW66234   7.801   6.949   6.650  0.2977  0.3159 -0.7400
21673SOL    HW166235   7.737   7.001   6.700  0.1709  0.6681 -1.2612
21673SOL    HW266236   7.762   6.940   6.563  0.7367  0.1102 -0.9199
21674SOL     OW66237   8.589   7.224   6.792  0.0908  0.2552 -0.6114
21674SOL    HW166238   8.523   7.215   6.723 -1.2828 -0.8893  0.7696
21674SOL    HW266239   8.545   7.195   6.872  1.9705  0.4297  0.5691
21675SOL     OW66240   7.750   6.226   5.595 -0.4505 -0.1630 -0.3594
21675SOL    HW166241   7.696   6.176   5.656 -1.0319 -0.6005 -1.2107
21675SOL    HW266242   7.823   6.168   5.573 -0.6490 -0.2999 -0.6616
21676SOL     OW66243   7.766   6.722   7.081 -0.0958  0.3538  0.0443
21676SOL    HW166244   7.743   6.642   7.034 -1.7875  2.2466 -2.6623
21676SOL    HW266245   7.728   6.711   7.168  0.1421 -1.9361 -0.0859
21677SOL     OW66246   8.838   7.566   5.950  0.0341 -0.1330  0.9772
21677SOL    HW166247   8.817   7.487   5.900 -1.3426  0.8001 -0.0155
21677SOL    HW266248   8.860   7.534   6.037 -1.6156 -1.5655  0.9303
21678SOL     OW66249   7.349   5.703   7.031  0.0446  0.2354 -0.3247
21678SOL    HW166250   7.366   5.633   6.968 -0.5496  0.1170 -0.3625
21678SOL    HW266251   7.407   5.774   7.004  0.8197 -0.3267 -0.1419
21679SOL     OW66252   7.733   7.392   6.139 -0.3348  0.1379  0.0656
21679SOL    HW166253   7.752   7.360   6.050  0.7772  1.0636 -0.0632
21679SOL    HW266254   7.736   7.314   6.194  0.3159 -0.2663 -0.5248
21680SOL     OW66255   7.561   7.294   6.585 -0.3056 -0.2331 -0.2523
21680SOL    HW166256   7.534   7.297   6.493 -1.4079  1.4351  0.0819
21680SOL    HW266257   7.520   7.371   6.624  1.1985 -0.1921  1.3622
21681SOL     OW66258   8.432   7.484   6.295 -0.4811 -0.1697  0.0309
21681SOL    HW166259   8.485   7.420   6.248  0.0383 -0.3661  0.8570
21681SOL    HW266260   8.416   7.444   6.380 -0.4073  0.6663  0.4473
21682SOL     OW66261   7.825   6.270   6.258  0.0737 -0.2918 -0.6675
21682SOL    HW166262   7.829   6.339   6.324  1.1810 -0.5329 -0.4600
21682SOL    HW266263   7.812   6.189   6.308 -0.0413 -0.3681 -0.8197
21683SOL     OW66264   8.404   6.391   5.178 -0.1103 -0.2384  0.0737
21683SOL    HW166265   8.320   6.405   5.222 -0.5407 -0.8015 -0.5411
21683SOL    HW266266   8.467   6.379   5.249 -0.9411 -1.9666  0.5824
21684SOL     OW66267   8.075   5.665   7.331 -0.1116 -0.4368 -0.0430
21684SOL    HW166268   8.038   5.595   7.277 -0.8378  0.2515 -0.4585
21684SOL    HW266269   8.114   5.726   7.268 -0.8851  0.3226  0.2049
21685SOL     OW66270   8.434   7.591   6.643  0.1669  0.7544  0.1421
21685SOL    HW166271   8.361   7.652   6.638  0.2544  1.2769  3.1986
21685SOL    HW266272   8.513   7.646   6.645  0.3611  0.4694  0.9156
21686SOL     OW66273   8.505   6.615   7.149 -0.5120  0.2790 -0.0819
21686SOL    HW166274   8.534   6.547   7.210  1.0787  0.6544 -0.3540
21686SOL    HW266275   8.429   6.655   7.191 -0.3921 -0.5019  0.9072
21687SOL     OW66276   8.590   7.267   6.448  0.0656  0.0015 -0.0155
21687SOL    HW166277   8.579   7.172   6.461 -2.0040  0.2579  0.4469
21687SOL    HW266278   8.617   7.275   6.356 -0.9677 -0.9914 -0.4379
21688SOL     OW66279   8.515   6.232   6.275 -0.0032 -0.3920  0.5925
21688SOL    HW166280   8.542   6.145   6.304 -2.2648 -0.7240  1.9679
21688SOL    HW266281   8.445   6.258   6.336 -0.8548  1.4879 -1.0312
21689SOL     OW66282   8.428   5.864   5.902 -0.1505 -0.2054 -0.7192
21689SOL    HW166283   8.382   5.786   5.931 -0.3102  0.1094 -0.1115
21689SOL    HW266284   8.513   5.860   5.945  0.4691 -0.8530 -1.9427
21690SOL     OW66285   0.109   7.046   5.513  0.2266 -0.3225 -0.3599
21690SOL    HW166286   0.093   7.132   5.552 -1.6521 -0.1935 -1.2973
21690SOL    HW266287   0.110   6.986   5.588 -0.5580  0.2632  0.1433
21691SOL     OW66288   7.697   5.971   5.805  0.0272  0.0930  0.1253
21691SOL    HW166289   7.671   5.899   5.748  0.3998 -0.0437  0.1284
21691SOL    HW266290   7.761   5.933   5.865 -2.2649 -0.4804  2.3928
21692SOL     OW66291   8.253   6.038   5.266  0.8524 -0.2052  0.0929
21692SOL    HW166292   8.348   6.039   5.281  1.0988  1.2248 -1.3084
21692SOL    HW266293   8.223   6.123   5.298  0.1782 -0.2984 -0.2782
21693SOL     OW66294   8.525   6.140   7.311  0.0288  0.3918  0.4375
21693SOL    HW166295   8.585   6.165   7.241 -0.9911 -1.1906 -1.0777
21693SOL    HW266296   8.581   6.096   7.376  0.9614  1.7652  0.6032
21694SOL     OW66297   0.053   7.030   6.328 -0.3955  0.5080 -0.4487
21694SOL    HW166298   0.053   7.114   6.280 -1.4102  1.1534  0.6276
21694SOL    HW266299   0.012   7.051   6.412 -0.3791 -1.0197 -0.0409
21695SOL     OW66300   8.265   6.659   5.865 -0.2179  0.5348 -0.3213
21695SOL    HW166301   8.193   6.643   5.803  0.2232  0.4105 -0.8088
21695SOL    HW266302   8.242   6.607   5.942  0.6530 -1.6947 -1.4776
21696SOL     OW66303   8.611   7.720   6.432 -0.2918  0.2841 -0.6367
21696SOL    HW166304   8.569   7.673   6.360  0.7501 -0.8185 -0.5571
21696SOL    HW266305   8.676   7.659   6.466  0.0352  1.2188  0.4972
21697SOL     OW66306   8.642   6.197   6.018  0.1115  0.0986  0.2209
21697SOL    HW166307   8.600   6.223   6.100 -1.7369 -1.3891 -0.1904
21697SOL    HW266308   8.594   6.243   5.950  1.0114  0.5735 -0.1142
21698SOL     OW66309   7.504   6.388   7.053 -0.2824  0.0658  0.2716
21698SOL    HW166310   7.570   6.422   7.114  0.9780  1.6762 -1.8556
21698SOL    HW266311   7.487   6.461   6.993 -2.6679 -0.9241 -0.3767
21699SOL     OW66312   8.174   5.472   6.447 -0.5047 -0.3779  0.7244
21699SOL    HW166313   8.235   5.462   6.520  0.4233 -0.5059 -0.0511
21699SOL    HW266314   8.209   5.415   6.378 -0.6253  0.7127 -0.2797
21700SOL     OW66315   8.344   5.906   5.649 -0.5164  0.2968 -0.0932
21700SOL    HW166316   8.276   5.842   5.666  0.4813 -0.6123  0.6332
21700SOL    HW266317   8.399   5.904   5.728  1.0444  0.0766 -1.1431
21701SOL     OW66318   8.501   5.934   6.310 -0.4353 -0.7527 -0.2994
21701SOL    HW166319   8.506   5.891   6.225  1.4873  0.3006 -0.7676
21701SOL    HW266320   8.492   5.862   6.372  0.6566 -1.7262 -1.2237
21702SOL     OW66321   7.971   6.690   5.857  0.8161  0.1421 -0.0640
21702SOL    HW166322   7.931   6.612   5.818 -2.7261  2.1647 -0.8650
21702SOL    HW266323   7.938   6.691   5.947  1.7498  0.1927  0.2959
21703SOL     OW66324   0.354   6.144   6.005 -0.3764  0.5402  0.2690
21703SOL    HW166325   0.318   6.209   5.945  2.1912 -0.1342 -2.2238
21703SOL    HW266326   0.315   6.061   5.978  1.7035  0.0440 -1.4249
21704SOL     OW66327   8.256   6.154   5.591 -0.1012 -0.1372  0.0598
21704SOL    HW166328   8.315   6.215   5.636 -1.1327  0.9688 -0.0447
21704SOL    HW266329   8.281   6.067   5.625  0.3951  0.4795  1.3562
21705SOL     OW66330   0.268   7.348   6.713  0.3765 -0.0770  0.7610
21705SOL    HW166331   0.295   7.412   6.779 -0.3926  0.1102  0.9031
21705SOL    HW266332   0.175   7.335   6.728  0.4888 -1.1374  0.6448
21706SOL     OW66333   8.300   7.319   7.178 -0.9612 -0.2627 -0.2458
21706SOL    HW166334   8.353   7.313   7.257 -0.4307 -1.6862 -0.6647
21706SOL    HW266335   8.270   7.410   7.175 -1.1574 -0.2253  1.6746
21707SOL     OW66336   8.508   5.604   6.906  0.9409  0.2073  0.0756
21707SOL    HW166337   8.452   5.600   6.984 -0.4877 -0.7750 -0.9501
21707SOL    HW266338   8.487   5.687   6.864 -0.6180 -0.6242 -0.8787
21708SOL     OW66339   8.060   6.746   7.127 -0.2895  0.2139 -0.5018
21708SOL    HW166340   8.048   6.731   7.221 -0.8681  1.2453 -0.4037
21708SOL    HW266341   7.972   6.734   7.089 -0.2675  0.8531 -0.7622
21709SOL     OW66342   8.390   6.342   5.787  0.4532 -0.0574 -0.0417
21709SOL    HW166343   8.330   6.414   5.808  1.1789  0.5238  0.0892
21709SOL    HW266344   8.356   6.267   5.836  0.2200  0.4348  0.5604
21710SOL     OW66345   8.269   6.187   6.927  0.3686  0.3758  0.1586
21710SOL    HW166346   8.345   6.130   6.941  0.1321 -0.6726 -2.3984
21710SOL    HW266347   8.216   6.175   7.006  0.7095 -2.3897  0.0609
21711SOL     OW66348   8.681   6.238   6.994 -1.0725 -0.1470  0.3609
21711SOL    HW166349   8.731   6.183   7.054  1.5058  1.6188 -0.0321
21711SOL    HW266350   8.712   6.327   7.012 -3.1495  0.9008 -0.8752
21712SOL     OW66351   7.322   7.314   6.853  0.0851 -0.1661 -0.0626
21712SOL    HW166352   7.364   7.379   6.796 -0.8835 -0.2564 -0.9211
21712SOL    HW266353   7.235   7.351   6.872  0.8040  0.4349  2.4135
21713SOL     OW66354   7.900   6.691   6.153  0.2074  0.2508  0.2365
21713SOL    HW166355   7.917   6.764   6.212  0.3083  2.0295 -1.8403
21713SOL    HW266356   7.815   6.656   6.180 -0.0263  1.4002  1.0239
21714SOL     OW66357   7.753   6.215   6.715  0.6364 -0.8227 -0.1007
21714SOL    HW166358   7.682   6.173   6.668 -1.7999  2.0864  0.6719
21714SOL    HW266359   7.814   6.244   6.647 -0.6116 -0.5210 -1.1261
21715SOL     OW66360   0.215   7.238   6.172 -0.1175 -0.1052 -0.2935
21715SOL    HW166361   0.300   7.252   6.215 -0.5979  0.4999  0.4759
21715SOL    HW266362   0.178   7.326   6.162 -0.6484 -0.3640 -0.6434
21716SOL     OW66363   8.434   7.136   7.031  0.0276  0.4247  0.2839
21716SOL    HW166364   8.389   7.204   7.081  0.8189 -1.4215  3.8904
21716SOL    HW266365   8.363   7.077   7.003 -0.5051  1.8767 -1.6139
21717SOL     OW66366   7.649   7.146   6.813 -0.2739 -0.0059 -0.6614
21717SOL    HW166367   7.627   7.214   6.750  0.2612  0.7617 -0.0333
21717SOL    HW266368   7.711   7.187   6.873  2.1298 -1.7806 -1.7625
21718SOL     OW66369   8.067   6.176   7.145  0.4958 -0.3159  0.1254
21718SOL    HW166370   8.043   6.090   7.178 -1.4101  0.2591  0.3329
21718SOL    HW266371   8.130   6.210   7.209 -0.5888 -0.5743  1.3520
21719SOL     OW66372   8.395   5.911   7.593 -0.2591  0.2992 -0.3819
21719SOL    HW166373   8.374   5.829   7.637  0.5753  0.7303  0.8502
21719SOL    HW266374   8.311   5.957   7.587 -0.8198 -0.8142 -1.5005
21720SOL     OW66375   7.698   5.746   7.142 -0.2208 -0.1069  0.5125
21720SOL    HW166376   7.728   5.695   7.067  0.1609  1.4266 -0.4172
21720SOL    HW266377   7.688   5.681   7.212  0.6393 -1.3820 -0.4872
21721SOL     OW66378   8.132   6.334   6.676  0.3856 -0.1652  0.2200
21721SOL    HW166379   8.164   6.259   6.727  0.3243 -0.9602 -0.8687
21721SOL    HW266380   8.116   6.402   6.741  0.0954 -1.2128  1.2846
21722SOL     OW66381   8.581   6.971   6.445 -0.3379 -0.4574  0.4237
21722SOL    HW166382   8.645   6.908   6.479 -1.3845 -0.8253  1.8215
21722SOL    HW266383   8.568   6.944   6.354  0.4782 -1.2195  0.5142
21723SOL     OW66384   8.474   5.543   6.216  0.6691 -0.2057 -0.4851
21723SOL    HW166385   8.492   5.453   6.247  0.3849  0.3112  1.3167
21723SOL    HW266386   8.463   5.594   6.297 -0.1942  1.2583 -1.4838
21724SOL     OW66387   7.442   5.498   6.869  0.0454  0.1301  0.2315
21724SOL    HW166388   7.438   5.482   6.774  1.2492 -1.1271  0.3424
21724SOL    HW266389   7.465   5.412   6.905  1.1530  0.9340  1.5077
21725SOL     OW66390   8.372   6.985   6.657 -0.1926 -0.3953  0.3590
21725SOL    HW166391   8.340   6.895   6.644  0.1551 -0.8440  2.2616
21725SOL    HW266392   8.453   6.989   6.606  0.0395 -1.3392  0.6251
21726SOL     OW66393   8.022   5.923   6.374 -0.3141 -0.1119  0.1939
21726SOL    HW166394   7.987   5.845   6.331 -1.0614 -0.5363  1.5379
21726SOL    HW266395   7.945   5.978   6.390  0.3196  1.5223 -1.8402
21727SOL     OW66396   8.097   5.959   5.977 -0.7366  0.7366 -0.3565
21727SOL    HW166397   8.005   5.939   5.994 -0.0476 -0.3657  2.7951
21727SOL    HW266398   8.136   5.970   6.064  2.4709 -0.5318 -1.4687
21728SOL     OW66399   0.589   6.227   5.663 -0.5465  0.0970  0.2449
21728SOL    HW166400   0.522   6.211   5.597 -0.7545 -0.4973  0.5909
21728SOL    HW266401   0.560   6.306   5.708 -1.6527 -0.7802  1.1535
21729SOL     OW66402   0.117   6.576   6.298  0.5531 -0.3772 -0.0117
21729SOL    HW166403   0.162   6.546   6.377 -0.4182 -1.3127  0.2041
21729SOL    HW266404   0.093   6.496   6.252  0.1131  0.1395 -0.6945
21730SOL     OW66405   8.504   7.226   7.633  0.2025 -0.1895  0.1233
21730SOL    HW166406   8.421   7.179   7.621  1.1986 -1.9622 -0.1010
21730SOL    HW266407   8.549   7.177   7.701  2.0465 -0.6737 -1.3777
21731SOL     OW66408   7.838   6.337   7.170  0.0854 -0.5934  0.6779
21731SOL    HW166409   7.912   6.276   7.164 -1.3248 -2.3187  0.3178
21731SOL    HW266410   7.781   6.313   7.098  0.2684  2.3409 -0.5778
21732SOL     OW66411   0.194   6.570   5.660  1.1680 -0.1627 -0.0798
21732SOL    HW166412   0.140   6.492   5.671  2.4035 -1.1888 -0.9685
21732SOL    HW266413   0.138   6.633   5.614  0.4900 -0.9140 -0.2898
21733SOL     OW66414   8.204   6.909   6.134  0.3672 -0.0609 -0.1987
21733SOL    HW166415   8.165   6.877   6.053 -0.6569  0.0555  0.2349
21733SOL    HW266416   8.298   6.898   6.121  0.2250 -0.0104 -1.4114
21734SOL     OW66417   8.035   6.561   6.844 -0.0297 -0.5245 -0.1005
21734SOL    HW166418   8.099   6.549   6.915 -0.5321  0.4163  0.5290
21734SOL    HW266419   7.954   6.587   6.888  0.1609  2.0736 -1.0981
21735SOL     OW66420   7.719   6.478   6.881 -0.1432 -0.1442 -0.1775
21735SOL    HW166421   7.684   6.550   6.827  1.9911  1.3381  0.2776
21735SOL    HW266422   7.768   6.424   6.819 -0.2373 -0.1750 -0.2254
21736SOL     OW66423   8.538   6.084   6.815 -0.5034 -1.0598 -0.1606
21736SOL    HW166424   8.574   6.133   6.890 -0.3463 -0.1471 -0.8122
21736SOL    HW266425   8.613   6.074   6.756 -0.6791 -1.5934 -0.2938
21737SOL     OW66426   8.440   5.837   6.772 -0.4991 -0.4053 -0.0243
21737SOL    HW166427   8.477   5.925   6.759  1.7376 -0.8830  2.2123
21737SOL    HW266428   8.346   5.848   6.757 -0.0080  1.7582 -2.3334
21738SOL     OW66429   7.356   6.641   6.099 -0.1542 -0.5214 -0.1533
21738SOL    HW166430   7.317   6.592   6.027 -0.7261  1.6555 -1.4237
21738SOL    HW266431   7.321   6.730   6.089  2.4429  0.7055  0.7265
21739SOL     OW66432   7.178   7.508   6.116  0.4517  0.1511 -0.0630
21739SOL    HW166433   7.188   7.597   6.082  0.6948 -0.2901 -1.1874
21739SOL    HW266434   7.268   7.479   6.132  0.3276  0.6557  1.8645
21740SOL     OW66435   8.011   7.102   6.202 -0.5023  0.5017 -0.2643
21740SOL    HW166436   8.083   7.038   6.205 -2.7601 -2.2974 -1.2510
21740SOL    HW266437   7.997   7.118   6.108 -1.1432  1.0028 -0.0890
21741SOL     OW66438   8.590   6.489   6.632  0.3442  0.1709  0.2705
21741SOL    HW166439   8.644   6.411   6.620  1.0642  0.5254  1.1181
21741SOL    HW266440   8.525   6.464   6.698  0.8047  0.4010  0.8113
21742SOL     OW66441   7.367   5.882   6.412  0.2866  0.5252  0.6203
21742SOL    HW166442   7.371   5.939   6.489  1.7322 -1.6195  2.2664
21742SOL    HW266443   7.407   5.800   6.441  0.1562 -0.6586 -2.2227
21743SOL     OW66444   7.473   6.311   7.379  0.0587 -0.4336 -0.1359
21743SOL    HW166445   7.406   6.271   7.323  0.5035 -1.2423 -0.1066
21743SOL    HW266446   7.516   6.376   7.323 -0.9835  0.3513 -0.0419
21744SOL     OW66447   8.395   6.666   6.142 -0.1535 -0.0034  0.3584
21744SOL    HW166448   8.313   6.635   6.104  0.7546  0.4832 -2.2224
21744SOL    HW266449   8.387   6.647   6.236 -3.7143  1.1980  0.4629
21745SOL     OW66450   7.016   6.816   7.102  0.8423  0.5539  0.1796
21745SOL    HW166451   7.053   6.897   7.067  2.0228 -0.0640 -0.0530
21745SOL    HW266452   7.069   6.798   7.180 -0.5889  0.9476  1.2966
21746SOL     OW66453   8.156   5.880   6.700  0.3657 -0.4503 -0.1595
21746SOL    HW166454   8.081   5.922   6.742 -0.9300 -1.5795 -1.2345
21746SOL    HW266455   8.144   5.896   6.607 -0.0483 -2.8808 -0.5996
21747SOL     OW66456   8.313   7.347   6.681  0.2496 -0.1609  0.2920
21747SOL    HW166457   8.239   7.364   6.739 -0.3962 -1.8441  0.0302
21747SOL    HW266458   8.357   7.431   6.672 -1.2693  0.7426  0.9630
21748SOL     OW66459   8.051   6.284   6.082 -0.2631  0.2025  0.0290
21748SOL    HW166460   8.097   6.211   6.123 -1.1554  0.4094  1.4469
21748SOL    HW266461   7.966   6.287   6.126 -0.1156  2.3188  0.2763
21749SOL     OW66462   7.664   6.519   7.260 -0.0028 -0.4355  0.4386
21749SOL    HW166463   7.739   6.461   7.247  0.9363  0.6324  0.8805
21749SOL    HW266464   7.695   6.584   7.324 -0.6910  1.0817 -0.6977
21750SOL     OW66465   8.209   6.941   6.971 -0.2506 -0.3473  0.0897
21750SOL    HW166466   8.168   6.869   7.019  0.3958 -0.9345 -0.2272
21750SOL    HW266467   8.269   6.898   6.911  0.9569  0.5031  0.6554
21751SOL     OW66468   0.046   6.368   6.159 -0.1084  0.3236  0.2756
21751SOL    HW166469  -0.044   6.386   6.131  0.0743  0.7618 -0.0176
21751SOL    HW266470   0.037   6.294   6.220 -0.5929 -0.0601 -0.2541
21752SOL     OW66471   8.814   7.369   6.669 -0.2276  0.0641 -0.1825
21752SOL    HW166472   8.785   7.457   6.692  0.7615  0.0575  1.2083
21752SOL    HW266473   8.739   7.312   6.687 -0.3351  0.4161  0.4855
21753SOL     OW66474   7.916   6.677   6.527  0.0343 -0.1456 -0.1117
21753SOL    HW166475   7.890   6.734   6.455 -4.1623  0.1970  1.3958
21753SOL    HW266476   7.895   6.727   6.606  1.6982 -1.6147  1.3520
21754SOL     OW66477   8.715   7.545   7.118 -0.6956 -0.2960 -0.4249
21754SOL    HW166478   8.657   7.530   7.044  1.1797 -0.4444 -1.9356
21754SOL    HW266479   8.688   7.630   7.154 -2.5366 -0.8791 -0.3521
21755SOL     OW66480   8.795   7.306   5.876 -0.0933  0.0846 -0.0635
21755SOL    HW166481   8.705   7.324   5.847 -0.6788  0.5394  1.8872
21755SOL    HW266482   8.788   7.222   5.922  0.3034  0.5156  0.7975
21756SOL     OW66483   7.539   7.282   7.393  0.0766  0.3229 -0.0703
21756SOL    HW166484   7.615   7.333   7.421  1.4690 -1.0770 -1.1259
21756SOL    HW266485   7.518   7.228   7.470 -0.2996  1.1934  0.4533
21757SOL     OW66486   8.801   6.771   6.237  0.2207 -0.1885 -0.2349
21757SOL    HW166487   8.850   6.844   6.275  1.9063 -0.4277 -1.8064
21757SOL    HW266488   8.849   6.693   6.264 -1.5498 -0.7888  1.3991
21758SOL     OW66489   8.313   7.591   7.027  1.2931  0.6900  0.4088
21758SOL    HW166490   8.382   7.544   6.979  0.1176 -1.6182  0.8450
21758SOL    HW266491   8.360   7.636   7.097  2.6492  1.4590 -0.9198
21759SOL     OW66492   7.739   7.109   5.584 -0.0831 -0.0478  0.3757
21759SOL    HW166493   7.698   7.136   5.502  0.2991 -1.3825 -0.2829
21759SOL    HW266494   7.791   7.032   5.561  0.3939 -0.1861  1.7861
21760SOL     OW66495   7.851   5.829   6.011 -0.2370  1.0790  1.0319
21760SOL    HW166496   7.760   5.818   6.037  0.4216 -1.8200  2.5298
21760SOL    HW266497   7.902   5.800   6.086  1.8451 -1.7460 -1.2286
21761SOL     OW66498   0.049   6.948   5.786 -0.1603  0.2491 -0.0567
21761SOL    HW166499   0.057   6.877   5.850 -0.3926  0.9885  0.8111
21761SOL    HW266500  -0.041   6.941   5.754  0.0960 -0.4079 -0.6586
21762SOL     OW66501   8.458   6.469   6.887  0.0454  0.5331 -0.3783
21762SOL    HW166502   8.384   6.429   6.933 -0.5575  0.2507 -1.5425
21762SOL    HW266503   8.504   6.519   6.954  0.3122 -1.3874  0.9281
21763SOL     OW66504   8.608   6.466   6.114 -0.1356 -0.1155 -0.3037
21763SOL    HW166505   8.568   6.400   6.169  0.0338  0.9703  1.1875
21763SOL    HW266506   8.552   6.543   6.124  1.1323  0.7855  0.1737
21764SOL     OW66507   8.084   6.933   6.632  0.0858 -0.1747 -0.0356
21764SOL    HW166508   8.069   6.889   6.716  0.5076  0.6741  0.5045
21764SOL    HW266509   7.998   6.934   6.590 -1.4727  3.9918  2.6597
21765SOL     OW66510   8.058   7.145   5.913  0.3064  0.5496  0.1081
21765SOL    HW166511   8.151   7.161   5.926  0.6807 -1.6987  0.5002
21765SOL    HW266512   8.054   7.071   5.852 -1.1465 -0.6332  1.5412
21766SOL     OW66513   8.675   6.046   6.534 -0.6615  0.2565 -0.8205
21766SOL    HW166514   8.627   6.005   6.463  1.5285 -0.2219 -2.1447
21766SOL    HW266515   8.749   5.987   6.551 -0.7075  0.7244  1.3842
21767SOL     OW66516   8.623   6.936   5.713 -0.9209  0.0381  0.4662
21767SOL    HW166517   8.546   6.884   5.737 -0.8989  0.0484  0.5618
21767SOL    HW266518   8.592   6.994   5.644 -0.6395 -0.9083 -0.4690
21768SOL     OW66519   7.573   6.980   6.391 -0.1263 -0.3530  0.2352
21768SOL    HW166520   7.578   6.884   6.392  1.1083 -0.4580 -2.8997
21768SOL    HW266521   7.492   6.999   6.344  0.0423  0.1118  0.1345
21769SOL     OW66522   7.430   6.712   7.159  0.0810  0.3330  0.0866
21769SOL    HW166523   7.430   6.678   7.069  0.7074  0.1362  0.1581
21769SOL    HW266524   7.441   6.634   7.214 -0.4299  0.4379  0.3479
21770SOL     OW66525   8.392   5.718   7.348  0.2731 -0.5979  0.1530
21770SOL    HW166526   8.385   5.809   7.319 -0.3235 -0.3463  1.0479
21770SOL    HW266527   8.427   5.724   7.437  0.2812 -1.2467  0.1969
21771SOL     OW66528   6.970   5.667   5.563 -0.5543 -0.0602  0.3397
21771SOL    HW166529   6.926   5.680   5.479  1.1387  1.0900 -0.4171
21771SOL    HW266530   6.993   5.574   5.563  1.1990  0.3072 -1.4268
21772SOL     OW66531   0.057   6.545   6.598  0.0651 -0.0061  0.0775
21772SOL    HW166532   0.003   6.473   6.567  0.0525 -0.1371  0.4030
21772SOL    HW266533   0.070   6.528   6.691  0.5275  0.1134  0.0383
21773SOL     OW66534   7.149   5.766   5.765  0.5935 -0.5662 -0.0276
21773SOL    HW166535   7.110   5.766   5.677 -0.7465 -1.2152  0.5413
21773SOL    HW266536   7.078   5.737   5.822  0.5123  2.6563  1.7138
21774SOL     OW66537   8.489   6.700   5.627 -0.0250  0.0705 -1.4219
21774SOL    HW166538   8.548   6.686   5.702 -0.7116  1.7835 -0.4921
21774SOL    HW266539   8.418   6.637   5.640  0.0881  0.0522 -0.8533
21775SOL     OW66540   8.340   5.963   7.227  0.5357  0.4547  0.1131
21775SOL    HW166541   8.262   5.977   7.281 -0.0233 -0.4674 -0.4156
21775SOL    HW266542   8.401   6.032   7.253 -0.3044  0.9424  0.8274
21776SOL     OW66543   8.140   5.812   7.072 -0.3561 -0.3070 -0.2068
21776SOL    HW166544   8.225   5.854   7.084  0.2748 -1.5913  0.0321
21776SOL    HW266545   8.081   5.883   7.046  0.6098  0.7414  0.3830
21777SOL     OW66546   0.129   7.031   7.306 -0.3862 -0.0015  0.1303
21777SOL    HW166547   0.173   7.116   7.313 -1.5129  0.6860 -0.7779
21777SOL    HW266548   0.201   6.969   7.292  0.4712  0.7661  0.9874
21778SOL     OW66549   7.510   6.913   6.798 -0.2628  0.3848 -0.7477
21778SOL    HW166550   7.562   6.992   6.815  3.7683 -2.3830  1.6949
21778SOL    HW266551   7.459   6.900   6.878  0.4289 -0.3415 -0.4141
21779SOL     OW66552   8.299   6.127   5.922 -0.2091 -0.3424 -0.2990
21779SOL    HW166553   8.211   6.091   5.936 -0.0064 -1.5920 -1.8865
21779SOL    HW266554   8.357   6.052   5.933  0.4027 -0.1346 -1.8771
21780SOL     OW66555   7.660   6.334   6.044 -0.5762 -0.1633  0.0311
21780SOL    HW166556   7.719   6.305   6.114 -1.0862 -0.7898  0.2100
21780SOL    HW266557   7.574   6.336   6.085 -0.7138  0.5759 -0.2806
21781SOL     OW66558   8.359   6.907   5.813  0.2709 -0.1426  0.2349
21781SOL    HW166559   8.295   6.943   5.751 -0.1281  0.7336  1.1243
21781SOL    HW266560   8.326   6.819   5.831  1.2315 -1.0301 -1.9323
21782SOL     OW66561   7.939   7.456   6.454  0.3893  0.1580 -0.5148
21782SOL    HW166562   7.948   7.498   6.369 -0.3145 -0.6916 -1.0247
21782SOL    HW266563   7.848   7.474   6.480  0.8868  1.2956  0.5529
21783SOL     OW66564   8.493   6.642   6.422  0.1855 -0.2066 -0.4678
21783SOL    HW166565   8.548   6.589   6.480  1.8771  1.3125 -0.6093
21783SOL    HW266566   8.420   6.669   6.476  1.1428  0.2187  0.6565
21784SOL     OW66567   8.458   6.948   5.467  0.1671  0.3047  0.0700
21784SOL    HW166568   8.466   6.868   5.519 -0.3318  0.1338 -0.1064
21784SOL    HW266569   8.464   6.918   5.376 -0.5745  0.3875 -0.0154
21785SOL     OW66570   7.368   6.964   7.058  0.2589  0.2452 -0.0584
21785SOL    HW166571   7.413   6.894   7.106  0.1011  0.1533 -0.0412
21785SOL    HW266572   7.417   7.043   7.080  1.1613 -0.0233 -1.0221
21786SOL     OW66573   7.110   7.387   6.463 -0.1426  0.0702 -0.3371
21786SOL    HW166574   7.204   7.393   6.479  0.5225  0.6695 -3.7175
21786SOL    HW266575   7.092   7.293   6.460  0.2699 -0.0456  0.5240
21787SOL     OW66576   7.832   7.006   7.169  0.0780 -0.4173 -0.7014
21787SOL    HW166577   7.830   6.924   7.120  1.5314 -0.5381 -0.6087
21787SOL    HW266578   7.924   7.032   7.169  0.3304 -0.8220  2.6105
21788SOL     OW66579   7.739   6.052   6.395  0.0780 -0.7525  0.1238
21788SOL    HW166580   7.655   6.051   6.349  0.1906 -0.5413 -0.0879
21788SOL    HW266581   7.720   6.015   6.481 -0.4753  0.4189  0.5110
21789SOL     OW66582   7.652   6.177   6.977  0.1150 -0.3704  0.1390
21789SOL    HW166583   7.705   6.205   6.902  1.1106  0.5045  1.1155
21789SOL    HW266584   7.595   6.252   6.996 -0.6578 -0.8664 -0.1829
21790SOL     OW66585   7.939   7.611   6.249  0.2928  0.2903 -0.2891
21790SOL    HW166586   7.882   7.687   6.239  1.2050  0.8981 -1.0163
21790SOL    HW266587   7.938   7.568   6.164  2.8001  1.7084 -1.1654
21791SOL     OW66588   8.796   5.647   6.397 -0.1855 -0.3837 -0.1687
21791SOL    HW166589   8.773   5.560   6.366 -0.0392 -0.4411 -0.1198
21791SOL    HW266590   8.840   5.632   6.481  0.2746 -0.2997 -0.3917
21792SOL     OW66591   8.503   5.299   6.379  0.4300  0.1769  0.2230
21792SOL    HW166592   8.529   5.331   6.465  0.0923 -1.0336  0.7892
21792SOL    HW266593   8.471   5.211   6.394  0.4901 -0.1147 -1.1681
21793SOL     OW66594   8.565   6.889   6.189  0.2569  0.3000  0.3423
21793SOL    HW166595   8.654   6.854   6.194  0.2582 -0.2895 -2.1315
21793SOL    HW266596   8.509   6.812   6.190 -0.0006  0.4424 -1.1118
21794SOL     OW66597   8.056   7.212   6.796  0.2699 -0.6206 -0.1208
21794SOL    HW166598   8.046   7.306   6.811 -0.7848 -0.7070 -0.2235
21794SOL    HW266599   7.989   7.172   6.852  1.1887 -1.3649  0.4777
21795SOL     OW66600   8.828   5.803   5.698 -0.5171  0.0476  0.0067
21795SOL    HW166601   8.832   5.726   5.755  1.2349  0.1160  0.0436
21795SOL    HW266602   8.820   5.768   5.610  2.1632 -0.3499 -0.1737
21796SOL     OW66603   7.811   6.436   5.784  0.3365  0.5175  0.0483
21796SOL    HW166604   7.788   6.362   5.728  0.5951  1.8484 -1.9370
21796SOL    HW266605   7.727   6.474   5.809  0.1762 -0.7887  1.6518
21797SOL     OW66606   8.349   7.143   5.929 -0.0751 -0.3755  0.2666
21797SOL    HW166607   8.350   7.051   5.905 -0.4157 -0.5770  1.0076
21797SOL    HW266608   8.400   7.186   5.860  0.4151 -1.1653  0.1195
21798SOL     OW66609   8.142   6.020   7.381 -0.3146  0.0947  0.4837
21798SOL    HW166610   8.156   6.111   7.407  0.8169 -0.1405  0.7340
21798SOL    HW266611   8.121   5.975   7.463 -0.1500 -0.0119  0.4660
21799SOL     OW66612   7.580   5.895   8.411 -0.2999 -0.1818 -0.2549
21799SOL    HW166613   7.531   5.826   8.456  1.2340 -0.9651  0.2606
21799SOL    HW266614   7.655   5.850   8.372  2.1789  1.4590  2.2072
21800SOL     OW66615   7.579   6.331   8.418  0.1804  0.0722  0.4766
21800SOL    HW166616   7.544   6.323   8.330  1.0301  1.3728 -0.0089
21800SOL    HW266617   7.550   6.417   8.449  1.0127  0.2149  0.9235
21801SOL     OW66618   7.777   6.938   8.678 -0.1734  0.2024  0.2040
21801SOL    HW166619   7.696   6.979   8.646  0.4156  0.6596 -0.7542
21801SOL    HW266620   7.747   6.865   8.732 -1.2304  0.2430 -0.2967
21802SOL     OW66621   8.714   7.273   8.012 -0.3975  1.4416 -0.2344
21802SOL    HW166622   8.720   7.317   8.096  0.8416  1.3597 -0.2574
21802SOL    HW266623   8.766   7.327   7.952  0.6506  0.3205 -0.4013
21803SOL     OW66624   8.430   6.479   8.473 -0.2779  0.0657  0.3255
21803SOL    HW166625   8.338   6.462   8.453 -0.7817  2.4770  0.2329
21803SOL    HW266626   8.427   6.530   8.555  1.0104 -0.1778  0.5452
21804SOL     OW66627   7.937   6.861   8.474 -0.0400 -0.2962  0.3824
21804SOL    HW166628   7.902   6.898   8.554  0.4302 -0.2818  0.5869
21804SOL    HW266629   7.863   6.815   8.434 -0.8284  1.4441 -0.2442
21805SOL     OW66630   8.139   6.588   7.767 -0.1894 -0.0627 -0.8945
21805SOL    HW166631   8.045   6.591   7.786  0.3120 -0.5186  2.0778
21805SOL    HW266632   8.144   6.573   7.672 -3.0846 -0.3648 -1.0812
21806SOL     OW66633   7.816   6.918   8.142  0.0683  0.8338  0.0282
21806SOL    HW166634   7.755   6.950   8.076  0.4363 -0.4679 -0.9890
21806SOL    HW266635   7.769   6.928   8.225 -1.5324 -0.0830 -0.7137
21807SOL     OW66636   7.962   5.920   0.020  0.3097  0.1514  0.0455
21807SOL    HW166637   7.896   5.982  -0.009 -0.0101  0.5610  1.5401
21807SOL    HW266638   7.913   5.842   0.044  0.2796  0.5892  1.5221
21808SOL     OW66639   7.769   7.191   7.581  0.5178  0.6640 -0.2803
21808SOL    HW166640   7.805   7.259   7.525  1.1074 -0.7649 -1.7175
21808SOL    HW266641   7.752   7.117   7.522 -0.2441 -0.3961  1.1800
21809SOL     OW66642   7.218   7.232   7.366 -0.2397  0.2049  0.1420
21809SOL    HW166643   7.300   7.202   7.403  0.2243  0.5973 -0.5405
21809SOL    HW266644   7.216   7.326   7.384 -0.2087  0.3214 -0.4283
21810SOL     OW66645   7.687   6.626   7.726  0.5515  0.2123 -0.6930
21810SOL    HW166646   7.746   6.689   7.767 -0.1786  1.4516 -1.4755
21810SOL    HW266647   7.613   6.619   7.787  1.6985 -1.8072  0.5892
21811SOL     OW66648   7.659   7.445   0.262 -0.3093  0.2233  0.1908
21811SOL    HW166649   7.707   7.527   0.260 -1.9173  1.2187  0.4304
21811SOL    HW266650   7.657   7.419   0.354 -1.3490  0.9069  0.3795
21812SOL     OW66651   7.677   6.981   7.373 -0.2990 -0.1131  0.2749
21812SOL    HW166652   7.589   7.002   7.343 -0.7110  0.6059  1.8524
21812SOL    HW266653   7.735   7.008   7.302 -1.2312  1.0821 -0.0566
21813SOL     OW66654   0.260   5.943   0.087  0.6510 -0.3877  0.2226
21813SOL    HW166655   0.174   5.979   0.107  0.9962  1.2564 -1.1000
21813SOL    HW266656   0.246   5.889   0.009  0.5731 -1.2715  0.8360
21814SOL     OW66657   7.902   6.466   7.693 -0.2012  0.2032  0.5076
21814SOL    HW166658   7.872   6.398   7.753  0.8440  1.2634  2.3280
21814SOL    HW266659   7.824   6.518   7.674 -0.3825  0.4206  1.7603
21815SOL     OW66660   7.390   7.108   7.548  0.0433  0.8948 -0.2958
21815SOL    HW166661   7.329   7.053   7.596 -0.1376 -0.4980 -2.0507
21815SOL    HW266662   7.448   7.144   7.616 -1.2195  0.3449  1.1217
21816SOL     OW66663   0.116   6.099   8.571 -0.4193 -0.2413 -0.1273
21816SOL    HW166664   0.203   6.059   8.572  1.0044  2.4814 -1.2120
21816SOL    HW266665   0.127   6.181   8.619 -2.7242 -0.3265  0.6626
21817SOL     OW66666   8.219   6.447   7.974  0.3903  0.0405  0.0102
21817SOL    HW166667   8.164   6.492   7.911 -0.9557 -1.1464  0.2688
21817SOL    HW266668   8.296   6.421   7.925  0.1462  0.6322 -0.6947
21818SOL     OW66669   7.925   5.545   7.852 -0.6480  0.1263 -0.5828
21818SOL    HW166670   8.021   5.540   7.852 -0.6569 -0.1540 -0.0701
21818SOL    HW266671   7.900   5.508   7.937 -1.2121  0.1666 -0.7317
21819SOL     OW66672   7.647   6.640   8.624 -0.2489 -0.0919 -0.3591
21819SOL    HW166673   7.645   6.657   8.718  1.4808 -0.5468 -0.2150
21819SOL    HW266674   7.555   6.629   8.600 -0.7897  0.9461  1.0940
21820SOL     OW66675   8.295   5.839   7.892 -0.2076 -0.5930 -0.2310
21820SOL    HW166676   8.332   5.891   7.963  2.0832 -0.2989 -1.5681
21820SOL    HW266677   8.207   5.875   7.879 -0.4551 -0.2579  1.9992
21821SOL     OW66678   0.130   5.998   7.856  0.0793  0.4318 -0.1836
21821SOL    HW166679   0.224   6.011   7.844 -0.1352  1.5710 -0.8535
21821SOL    HW266680   0.099   6.083   7.888 -0.6544 -0.0828  0.4975
21822SOL     OW66681   8.233   6.274   0.140 -0.0743  0.6750 -0.1227
21822SOL    HW166682   8.325   6.278   0.166 -0.5109 -0.0074  1.6773
21822SOL    HW266683   8.207   6.184   0.159 -2.1855  1.8267  3.6262
21823SOL     OW66684   8.164   5.905   8.469 -0.3260 -0.3629 -0.4401
21823SOL    HW166685   8.072   5.900   8.494 -0.0400 -0.7568  0.5883
21823SOL    HW266686   8.172   5.847   8.393 -0.6233 -1.5969  0.4389
21824SOL     OW66687   8.447   6.368   7.808  0.2209 -0.1617  0.3089
21824SOL    HW166688   8.531   6.385   7.765  0.3891 -1.7489 -0.0498
21824SOL    HW266689   8.470   6.318   7.886 -0.2902  0.6497  0.9932
21825SOL     OW66690   7.491   6.308   8.146 -0.5176 -0.1725  0.1885
21825SOL    HW166691   7.438   6.367   8.093  0.9328 -0.1450 -1.2833
21825SOL    HW266692   7.453   6.221   8.130 -0.9759  0.0086  0.2609
21826SOL     OW66693   7.122   7.379   0.148  0.7342 -0.5301  0.3036
21826SOL    HW166694   7.154   7.301   0.192 -2.2780 -1.4706  1.0951
21826SOL    HW266695   7.050   7.347   0.093 -0.1076  1.5609  0.1046
21827SOL     OW66696   8.181   5.644   7.580 -0.0160  0.3127 -0.0806
21827SOL    HW166697   8.153   5.649   7.488 -0.7058 -0.6581  0.0610
21827SOL    HW266698   8.128   5.710   7.624 -1.1898 -0.6311 -0.0411
21828SOL     OW66699   0.297   7.158   8.143  0.0288  0.1931 -0.5423
21828SOL    HW166700   0.245   7.238   8.143 -0.3320 -0.0313  0.2387
21828SOL    HW266701   0.275   7.115   8.226  0.4493 -0.5592 -0.8104
21829SOL     OW66702   7.820   5.730   8.243  0.2789  0.1984  0.0970
21829SOL    HW166703   7.901   5.780   8.235  1.5851 -1.5528  1.5411
21829SOL    HW266704   7.840   5.646   8.202 -1.3310  0.2489 -0.8577
21830SOL     OW66705   8.541   7.250   8.260  0.1169 -0.3147 -0.5793
21830SOL    HW166706   8.494   7.173   8.294  0.3150  0.2649  1.1236
21830SOL    HW266707   8.478   7.322   8.268  1.2580  0.5313  2.0043
21831SOL     OW66708   7.682   7.901   8.092 -0.4636  0.6671  0.1845
21831SOL    HW166709   7.633   7.908   8.174 -1.1275  1.3835 -0.2519
21831SOL    HW266710   7.634   7.958   8.031 -2.0847 -2.4464 -1.6998
21832SOL     OW66711   8.130   5.953   7.637  0.8088 -0.2272  0.1483
21832SOL    HW166712   8.041   5.944   7.670  0.4972  0.4038 -0.4796
21832SOL    HW266713   8.170   6.020   7.692  0.9364 -0.5919  0.5031
21833SOL     OW66714   8.343   7.421   7.800  0.6645  0.1879  0.2337
21833SOL    HW166715   8.268   7.460   7.844  0.6361  2.4469 -1.5621
21833SOL    HW266716   8.306   7.352   7.745  0.3017 -0.5100  1.3216
21834SOL     OW66717   7.533   7.142   7.160 -0.4584 -0.0273 -0.4285
21834SOL    HW166718   7.623   7.172   7.153 -0.8788  1.1200 -1.4435
21834SOL    HW266719   7.489   7.208   7.213 -0.6287 -0.7749  0.3767
21835SOL     OW66720   7.816   7.220   8.348  0.5079 -0.2481 -0.2747
21835SOL    HW166721   7.863   7.207   8.430 -0.7678 -0.9078  0.3846
21835SOL    HW266722   7.779   7.308   8.356 -1.9412 -1.3064  1.1486
21836SOL     OW66723   8.398   7.530   8.272 -0.2185 -0.0011 -0.4260
21836SOL    HW166724   8.377   7.508   8.363  1.1042 -0.8853 -0.3082
21836SOL    HW266725   8.313   7.548   8.232 -0.8136  0.7025  1.0444
21837SOL     OW66726   7.983   6.016   7.887  0.4350 -0.0403 -0.2207
21837SOL    HW166727   7.997   6.097   7.937  1.0143  0.0192 -0.4703
21837SOL    HW266728   7.894   6.024   7.854 -0.6658 -0.8913  2.2768
21838SOL     OW66729   7.842   5.360   7.416 -0.5107  0.3835 -0.1591
21838SOL    HW166730   7.800   5.406   7.489  0.5423  0.5298  0.3662
21838SOL    HW266731   7.798   5.394   7.338 -2.1295 -0.2734  0.4297
21839SOL     OW66732   8.299   7.120   8.279 -0.4227 -0.2552 -0.8208
21839SOL    HW166733   8.265   7.102   8.367  2.5857 -0.4356  0.4352
21839SOL    HW266734   8.317   7.033   8.243  1.0716 -0.1421 -0.3963
21840SOL     OW66735   7.688   6.710   8.369  0.2134 -0.4654  0.0968
21840SOL    HW166736   7.600   6.693   8.335  0.0873  1.5056 -0.7345
21840SOL    HW266737   7.686   6.677   8.458 -1.8493  0.6850  0.5598
21841SOL     OW66738   8.189   6.393   8.490 -0.8630  0.2058 -0.1914
21841SOL    HW166739   8.106   6.409   8.535 -1.1457 -1.0024 -0.2575
21841SOL    HW266740   8.219   6.309   8.524 -0.4785 -0.1481 -1.3599
21842SOL     OW66741   7.701   5.273   8.184  0.3359  0.1546  0.0217
21842SOL    HW166742   7.618   5.236   8.155  0.5169  0.7791 -1.3917
21842SOL    HW266743   7.763   5.200   8.178  0.2094  0.0826 -0.4620
21843SOL     OW66744   8.782   6.628   6.995 -0.4271 -0.0673  0.3882
21843SOL    HW166745   8.799   6.707   6.944 -0.3998 -0.5702 -0.4049
21843SOL    HW266746   8.703   6.647   7.045 -0.6046  0.3441 -0.0443
21844SOL     OW66747   7.407   5.208   7.174 -0.0191 -0.3879 -0.0245
21844SOL    HW166748   7.335   5.261   7.142  0.4599  0.0753 -0.3435
21844SOL    HW266749   7.374   5.169   7.255 -0.4761  0.1566  0.0533
21845SOL     OW66750   8.321   5.971   8.131  0.1251  0.5705  0.0222
21845SOL    HW166751   8.412   5.942   8.139  0.7432  2.2840 -0.3753
21845SOL    HW266752   8.321   6.058   8.170 -1.3442  0.6301 -0.0843
21846SOL     OW66753   8.541   8.027   8.582 -0.7368 -0.3622 -0.1137
21846SOL    HW166754   8.524   8.024   8.488 -0.0013  0.0021 -0.2677
21846SOL    HW266755   8.627   7.987   8.592 -0.7762 -0.3290  0.3974
21847SOL     OW66756   7.750   6.400   8.136 -0.2912 -0.5924 -0.3986
21847SOL    HW166757   7.775   6.352   8.057 -0.8376 -1.5923  0.0184
21847SOL    HW266758   7.662   6.369   8.156 -1.3732  1.8289 -1.0512
21848SOL     OW66759   8.446   7.181   7.981 -0.0254 -0.0465 -0.1010
21848SOL    HW166760   8.472   7.241   8.050 -0.7226  2.1205 -1.6114
21848SOL    HW266761   8.525   7.171   7.927 -0.0542 -0.0164 -0.1499
21849SOL     OW66762   8.645   5.943   7.476 -0.0430  0.2430 -0.6565
21849SOL    HW166763   8.552   5.945   7.499  0.1447 -0.2199  0.1582
21849SOL    HW266764   8.666   5.850   7.466 -0.0229  0.3975 -2.3777
21850SOL     OW66765   7.968   6.127   8.281  0.5043 -0.0831 -0.1819
21850SOL    HW166766   7.977   6.038   8.246 -0.7867  0.2241 -1.3856
21850SOL    HW266767   8.044   6.174   8.247 -0.1789 -0.0657 -1.7688
21851SOL     OW66768   8.119   5.355   8.219  0.5174  0.0239 -0.0909
21851SOL    HW166769   8.132   5.313   8.135 -0.6707  0.7829 -0.6868
21851SOL    HW266770   8.202   5.343   8.266  1.3909  0.0987 -1.5760
21852SOL     OW66771   8.430   5.629   8.296 -0.5756  0.0989 -0.2403
21852SOL    HW166772   8.497   5.688   8.263 -0.8417 -0.2169 -1.3821
21852SOL    HW266773   8.478   5.567   8.351 -0.1061  0.5756 -0.1094
21853SOL     OW66774   7.845   6.825   7.836  0.0376  0.5138  0.1813
21853SOL    HW166775   7.777   6.888   7.857  0.5682  0.5797  1.7980
21853SOL    HW266776   7.917   6.844   7.896  0.3513 -1.3873  0.4934
21854SOL     OW66777   8.795   6.099   7.641 -0.2306 -0.3959 -0.2868
21854SOL    HW166778   8.785   6.059   7.727 -0.5044  1.4524  0.5641
21854SOL    HW266779   8.761   6.032   7.580 -2.4910 -0.7354  1.2301
21855SOL     OW66780   7.242   5.800   7.739 -0.2887  0.0223  0.1851
21855SOL    HW166781   7.292   5.874   7.772 -0.8079  0.4765 -0.0337
21855SOL    HW266782   7.222   5.822   7.648 -0.1425 -0.5496  0.0062
21856SOL     OW66783   8.074   6.765   8.150  0.1808 -0.5262  0.2064
21856SOL    HW166784   8.000   6.825   8.166  0.8920  0.1985  0.8323
21856SOL    HW266785   8.051   6.686   8.199 -0.9458 -0.9354 -0.9261
21857SOL     OW66786   8.401   6.544   7.569 -0.3999 -0.1122  0.1153
21857SOL    HW166787   8.405   6.495   7.651 -0.5067 -0.0692  0.1469
21857SOL    HW266788   8.393   6.635   7.597 -0.1278 -0.0708  0.0571
21858SOL     OW66789   7.910   6.550   8.573 -0.6019 -0.0201 -0.6577
21858SOL    HW166790   7.878   6.462   8.557 -0.2876 -0.3207  0.2804
21858SOL    HW266791   7.834   6.599   8.604 -0.1003 -0.9517  2.3875
21859SOL     OW66792   8.676   6.382   8.369  0.0077  0.1694  0.4218
21859SOL    HW166793   8.595   6.424   8.398 -0.4838 -0.0436 -0.5848
21859SOL    HW266794   8.745   6.444   8.392 -0.6100  1.1112 -0.2200
21860SOL     OW66795   7.543   7.224   0.099  0.0562 -0.2343  0.2946
21860SOL    HW166796   7.564   7.164   0.170 -1.5800 -0.4055  0.6802
21860SOL    HW266797   7.553   7.311   0.138 -0.8517 -0.3283  0.7600
21861SOL     OW66798   8.081   6.720   7.398 -0.5020  0.3880  0.0364
21861SOL    HW166799   7.999   6.751   7.438 -1.0082 -0.4828 -0.3035
21861SOL    HW266800   8.142   6.792   7.412 -0.7287  0.2623  2.1113
21862SOL     OW66801   8.053   5.897   8.165 -0.4297 -0.0015  0.6434
21862SOL    HW166802   8.125   5.953   8.138  0.2266 -0.8128  0.6721
21862SOL    HW266803   8.090   5.808   8.166 -1.8459 -0.6638 -0.8976
21863SOL     OW66804   8.343   6.992   7.802 -0.1642 -0.2900  0.1063
21863SOL    HW166805   8.319   6.927   7.868 -3.6414  0.4276 -0.2659
21863SOL    HW266806   8.361   7.072   7.852 -2.3058  0.1206  0.2999
21864SOL     OW66807   0.055   7.094   8.553  0.1879 -0.2489 -0.5992
21864SOL    HW166808  -0.007   7.151   8.508  1.2726  0.9603 -0.6422
21864SOL    HW266809   0.050   7.120   8.645  1.0360  0.2643 -0.6915
21865SOL     OW66810   7.518   7.029   8.714 -0.8293  0.3551 -0.4491
21865SOL    HW166811   7.515   7.061   8.804  0.4019 -1.0401  0.1493
21865SOL    HW266812   7.435   6.983   8.702 -0.5156 -0.4747  0.4212
21866SOL     OW66813   7.984   6.517   8.266  0.5835  0.1264 -0.4277
21866SOL    HW166814   7.913   6.468   8.225  0.1471  0.8879 -0.6121
21866SOL    HW266815   7.957   6.526   8.357  1.8191 -2.0562  0.2355
21867SOL     OW66816   0.157   6.799   8.582 -0.2662  0.6993 -0.0826
21867SOL    HW166817   0.169   6.883   8.538  0.2326 -0.0181 -1.3832
21867SOL    HW266818   0.063   6.795   8.601 -0.3220  1.4764 -0.1718
21868SOL     OW66819   8.469   6.212   8.019 -0.0974 -0.0262 -0.5446
21868SOL    HW166820   8.493   6.121   8.002 -1.5051 -0.3531 -0.9487
21868SOL    HW266821   8.548   6.251   8.056  0.5624 -1.3866 -0.4373
21869SOL     OW66822   7.750   5.736   0.049 -0.1131 -0.0345 -0.6809
21869SOL    HW166823   7.754   5.641   0.040  1.2804 -0.0174 -0.5559
21869SOL    HW266824   7.658   5.758   0.038 -0.8488 -1.6198  1.5063
21870SOL     OW66825   7.537   7.055   0.312 -0.0934 -0.3690 -0.4436
21870SOL    HW166826   7.480   6.979   0.323  0.9748 -1.2467 -0.8856
21870SOL    HW266827   7.493   7.125   0.361 -0.3181 -1.6472  1.2619
21871SOL     OW66828   8.489   6.490   8.151  0.6784  0.1067 -0.6384
21871SOL    HW166829   8.442   6.545   8.213 -1.4629 -1.5414 -0.6673
21871SOL    HW266830   8.441   6.407   8.151  0.8735 -0.1887 -4.0654
21872SOL     OW66831   7.406   5.581   7.726  0.0201 -0.0989  0.3419
21872SOL    HW166832   7.467   5.603   7.656 -1.1563  0.4402 -0.5427
21872SOL    HW266833   7.342   5.651   7.725 -0.4626 -0.5067  1.4460
21873SOL     OW66834   0.283   5.947   7.569  0.0417 -0.2334 -0.0208
21873SOL    HW166835   0.356   5.921   7.513 -0.4001  0.9034 -1.1904
21873SOL    HW266836   0.317   6.019   7.622  0.0483 -0.3709  0.1644
21874SOL     OW66837   8.615   6.715   8.370 -0.2021  0.5678 -0.4241
21874SOL    HW166838   8.662   6.747   8.447 -1.3488  0.7520  0.2239
21874SOL    HW266839   8.583   6.794   8.327 -0.1040  0.4356 -0.7418
21875SOL     OW66840   8.674   6.368   7.638  0.0858 -0.1067 -0.4529
21875SOL    HW166841   8.651   6.373   7.545  1.6691 -1.0743 -0.9458
21875SOL    HW266842   8.740   6.298   7.643  0.0685 -0.0547  1.3998
21876SOL     OW66843   8.723   6.856   8.581 -0.0220  0.0906  0.0140
21876SOL    HW166844   8.684   6.941   8.602  1.1257  0.4847  0.6891
21876SOL    HW266845   8.707   6.803   8.659 -1.7171 -0.7072 -0.8392
21877SOL     OW66846   7.848   6.301   8.460 -0.3494  0.9188 -0.1090
21877SOL    HW166847   7.883   6.239   8.396 -0.3958 -0.2201  0.9341
21877SOL    HW266848   7.760   6.322   8.428 -0.5411  0.0085 -0.1895
21878SOL     OW66849   7.635   5.802   8.052  0.0954 -0.0728 -0.1890
21878SOL    HW166850   7.637   5.724   7.995  1.6751  1.1040 -1.8645
21878SOL    HW266851   7.696   5.781   8.123  1.0856 -0.1231 -1.0254
21879SOL     OW66852   8.808   5.973   8.385  0.3777  0.1722 -0.6343
21879SOL    HW166853   8.854   6.009   8.460  0.9313 -1.1454 -0.3172
21879SOL    HW266854   8.877   5.950   8.322  0.0619 -0.3735 -0.7960
21880SOL     OW66855   7.232   6.781   7.303  0.5682 -0.2827  0.1121
21880SOL    HW166856   7.249   6.724   7.378 -0.1133 -0.1477  0.3797
21880SOL    HW266857   7.291   6.749   7.235  0.3805 -1.1492  0.3386
21881SOL     OW66858   7.628   7.478   7.662  0.4680  0.4051  0.7419
21881SOL    HW166859   7.708   7.506   7.706  1.3694 -0.9739  0.0506
21881SOL    HW266860   7.588   7.560   7.631  1.5214  1.1264  1.2203
21882SOL     OW66861   7.715   7.475   8.285 -0.2778  0.3317  0.8311
21882SOL    HW166862   7.796   7.525   8.271  0.0840 -0.5681 -0.5520
21882SOL    HW266863   7.674   7.472   8.198 -1.0576 -0.4639  1.2149
21883SOL     OW66864   8.559   5.907   8.508 -0.1135  0.2466  0.0434
21883SOL    HW166865   8.500   5.956   8.451  0.2759  1.3861  0.5894
21883SOL    HW266866   8.646   5.938   8.485  0.2717 -1.1338 -0.4806
21884SOL     OW66867   7.792   6.101   8.779 -0.0553  0.2740  0.2041
21884SOL    HW166868   7.741   6.138   8.707 -0.0522 -0.9706 -0.4825
21884SOL    HW266869   7.815   6.175   8.835  0.7991  1.4315 -1.6117
21885SOL     OW66870   8.686   5.734   7.780 -0.1266 -0.9841 -0.0322
21885SOL    HW166871   8.605   5.699   7.742  0.1075 -0.4793 -1.0352
21885SOL    HW266872   8.756   5.695   7.726  0.3052 -1.4068  0.8150
21886SOL     OW66873   8.073   6.365   8.786 -0.6215  0.3005  0.1407
21886SOL    HW166874   8.063   6.277   8.750  0.6657  0.5114 -0.8022
21886SOL    HW266875   8.124   6.351   8.866  0.4370  0.2462 -0.5123
21887SOL     OW66876   8.140   7.052   8.554 -0.1166  0.1003 -0.0402
21887SOL    HW166877   8.105   6.974   8.511 -0.0400  0.1164 -0.1301
21887SOL    HW266878   8.217   7.021   8.602  0.1241  0.1893 -0.3673
21888SOL     OW66879   7.834   5.766   7.464  0.3086  0.1506  0.4374
21888SOL    HW166880   7.860   5.791   7.552  0.4592  2.5288 -0.2031
21888SOL    HW266881   7.911   5.722   7.428  0.3226 -0.6328  1.4011
21889SOL     OW66882   7.306   6.569   8.840  0.3712 -0.1003  0.1667
21889SOL    HW166883   7.349   6.598   8.920 -0.7451 -1.6661  1.3783
21889SOL    HW266884   7.261   6.488   8.864 -0.9765  0.0180 -1.7402
21890SOL     OW66885   8.666   6.593   8.690 -0.2612 -0.1368 -0.1639
21890SOL    HW166886   8.658   6.563   8.599 -1.9819 -0.8441  0.1792
21890SOL    HW266887   8.576   6.599   8.720  0.2633 -3.2607  2.5690
21891SOL     OW66888   0.151   6.601   7.992  0.2866 -0.4223  0.6058
21891SOL    HW166889   0.065   6.608   8.034 -0.4195  0.7083 -0.9356
21891SOL    HW266890   0.134   6.557   7.909  0.9914  0.8000 -0.2137
21892SOL     OW66891   8.232   7.726   8.475 -0.2093 -0.9072  0.0370
21892SOL    HW166892   8.311   7.706   8.526 -0.4218 -1.7846  0.0281
21892SOL    HW266893   8.265   7.752   8.389  0.1196 -0.0613  0.4089
21893SOL     OW66894   7.634   7.019   7.932 -0.6215 -0.7117  0.2369
21893SOL    HW166895   7.584   7.090   7.892  0.3357 -0.5519 -0.7108
21893SOL    HW266896   7.587   7.000   8.014 -0.6480  1.3094  0.7354
21894SOL     OW66897   8.589   6.980   8.114 -0.4295 -0.3874 -0.4427
21894SOL    HW166898   8.519   6.929   8.155 -0.6296 -0.9201 -1.4069
21894SOL    HW266899   8.543   7.052   8.070 -0.4183 -0.9434 -1.3811
21895SOL     OW66900   0.284   6.426   8.175  0.3654  0.0826 -0.3177
21895SOL    HW166901   0.223   6.364   8.213  1.1075 -0.8183 -0.5577
21895SOL    HW266902   0.229   6.491   8.132 -0.4259 -0.2793  0.1388
21896SOL     OW66903   8.193   6.990   7.390 -0.8958  0.0541  0.0449
21896SOL    HW166904   8.287   6.991   7.370 -0.9748 -2.7445 -0.9974
21896SOL    HW266905   8.151   7.029   7.313 -0.6489  0.4963  0.1301
21897SOL     OW66906   7.707   6.015   7.783 -0.3483 -0.2180 -0.0146
21897SOL    HW166907   7.637   5.998   7.721  0.1560 -0.3262 -0.5643
21897SOL    HW266908   7.662   6.034   7.866 -1.0852  1.5314 -0.7609
21898SOL     OW66909   8.091   7.032   7.955  0.2095 -0.8557  0.3804
21898SOL    HW166910   8.094   6.985   8.039 -1.0370 -1.6931 -0.0211
21898SOL    HW266911   8.003   7.069   7.952  0.2019 -0.9336 -0.6059
21899SOL     OW66912   7.980   6.603   0.009 -0.0470 -0.3902  0.3371
21899SOL    HW166913   7.887   6.592  -0.011  0.3435  0.1862 -2.2398
21899SOL    HW266914   8.021   6.521  -0.022  0.7181  0.9247 -2.5035
21900SOL     OW66915   8.296   6.549   7.307  0.6938  0.2679  0.5583
21900SOL    HW166916   8.236   6.622   7.323  0.1656 -0.1694  0.5846
21900SOL    HW266917   8.330   6.527   7.394  0.4005  0.0944  0.6280
21901SOL     OW66918   8.552   6.667   7.951  0.5215 -0.1858 -0.5515
21901SOL    HW166919   8.463   6.700   7.938  0.3188 -0.7572 -0.6318
21901SOL    HW266920   8.545   6.608   8.026  1.0454  0.5851  0.1216
21902SOL     OW66921   8.243   6.141   8.594  0.0813  0.4399  0.4825
21902SOL    HW166922   8.209   6.059   8.559 -1.1103  0.1597  2.1679
21902SOL    HW266923   8.320   6.115   8.646  1.5409  0.7952 -1.3980
21903SOL     OW66924   7.862   7.166   7.890 -0.1188  0.2567  0.0648
21903SOL    HW166925   7.779   7.125   7.913  1.1999 -1.7688  1.5523
21903SOL    HW266926   7.866   7.161   7.795 -1.8884  0.9066 -0.0972
21904SOL     OW66927   7.747   6.709   7.406  0.2044  0.1203  0.1999
21904SOL    HW166928   7.740   6.802   7.385  2.9370  0.4840  0.4316
21904SOL    HW266929   7.727   6.704   7.500  1.9629  0.8588  0.6565
21905SOL     OW66930   8.475   6.054   8.762  0.3358 -0.0874 -0.2611
21905SOL    HW166931   8.482   5.978   8.703  1.4833  0.1505 -0.4570
21905SOL    HW266932   8.491   6.018   8.849 -0.0323 -0.2130 -0.2413
21906SOL     OW66933   7.429   5.973   6.982  0.0369 -0.0301 -0.2102
21906SOL    HW166934   7.438   5.981   7.077 -0.2646  1.6697 -0.2929
21906SOL    HW266935   7.488   6.039   6.946  1.1101 -1.5028 -1.2779
21907SOL     OW66936   7.066   5.373   7.530  0.2890 -0.2987 -0.1219
21907SOL    HW166937   7.020   5.456   7.515  0.5745 -0.5200 -2.7160
21907SOL    HW266938   7.001   5.306   7.507  0.6485 -0.7437  0.1498
21908SOL     OW66939   8.616   6.544   7.406  0.0433 -0.1957 -0.2392
21908SOL    HW166940   8.637   6.637   7.414 -0.2262 -0.0961 -0.6622
21908SOL    HW266941   8.535   6.533   7.455  1.5831 -0.8031  2.3888
21909SOL     OW66942   8.202   6.744   8.461  0.2308 -0.3415  0.0793
21909SOL    HW166943   8.190   6.661   8.507 -1.4413 -0.3828 -0.3752
21909SOL    HW266944   8.114   6.778   8.448  0.8812  1.6926  0.5256
21910SOL     OW66945   8.096   7.193   0.089  0.4206 -0.5181  0.2048
21910SOL    HW166946   8.140   7.204   0.005 -0.0102  0.5296  0.0915
21910SOL    HW266947   8.156   7.230   0.153  0.5479 -0.8860  0.2975
21911SOL     OW66948   8.546   6.016   7.844 -0.6330 -0.0346 -0.1379
21911SOL    HW166949   8.515   5.953   7.780 -1.4729 -0.5732  0.7762
21911SOL    HW266950   8.608   5.967   7.898 -0.9573  0.0330  0.3035
21912SOL     OW66951   8.181   6.291   8.193  0.4304 -0.3531  0.9219
21912SOL    HW166952   8.194   6.336   8.110 -1.4874 -1.2137  0.0651
21912SOL    HW266953   8.132   6.353   8.247 -0.1541 -0.5272  0.6070
21913SOL     OW66954   8.484   6.943   7.426 -0.6142  0.0529 -0.8148
21913SOL    HW166955   8.560   6.886   7.417 -0.4074 -0.0499  1.0678
21913SOL    HW266956   8.517   7.030   7.403  0.3622  0.1644  0.8053
21914SOL     OW66957   7.940   7.619   8.328 -0.6209  0.3095  0.1330
21914SOL    HW166958   7.992   7.699   8.322 -0.8356  0.4066 -0.4912
21914SOL    HW266959   7.994   7.559   8.380  0.8770 -0.1651 -1.8597
21915SOL     OW66960   8.370   6.848   8.216  0.3681  0.1820  0.2323
21915SOL    HW166961   8.337   6.810   8.298 -0.0457 -0.0940 -0.0572
21915SOL    HW266962   8.326   6.798   8.147  0.9798  0.1762 -0.1631
21916SOL     OW66963   8.224   6.485   7.046 -0.3609  0.5483  0.0518
21916SOL    HW166964   8.189   6.395   7.042  0.8849 -0.2232  3.4429
21916SOL    HW266965   8.239   6.501   7.139 -0.4504  4.3221 -0.4308
21917SOL     OW66966   7.646   6.666   8.069  0.2770  0.2756  0.8639
21917SOL    HW166967   7.696   6.584   8.067  1.0865  0.7669  0.0993
21917SOL    HW266968   7.693   6.720   8.133 -0.6029 -0.0459  1.8187
21918SOL     OW66969   7.915   5.776   7.728 -0.2676 -0.1615  0.3900
21918SOL    HW166970   7.916   5.686   7.760 -0.8935 -1.4166 -2.7534
21918SOL    HW266971   7.934   5.830   7.805 -0.4029 -2.9208  2.4764
21919SOL     OW66972   7.805   6.299   0.135 -0.5904  0.0749  0.1427
21919SOL    HW166973   7.755   6.221   0.156 -0.1415  0.1410  1.5305
21919SOL    HW266974   7.883   6.294   0.189  0.9163  0.0270 -1.9002
21920SOL     OW66975   8.014   7.377   7.914  0.8657 -1.0394  0.3615
21920SOL    HW166976   8.074   7.359   7.987 -0.2922  0.2904  1.7113
21920SOL    HW266977   7.948   7.307   7.921  0.9913 -1.1634  0.3138
21921SOL     OW66978   8.440   6.154   8.384  0.0403  0.7071  0.5409
21921SOL    HW166979   8.375   6.190   8.444 -0.6865  1.6804 -0.7877
21921SOL    HW266980   8.516   6.210   8.395 -0.0158  0.7510  0.7081
21922SOL     OW66981   8.159   5.638   8.241 -0.1036 -0.2636  0.1838
21922SOL    HW166982   8.255   5.640   8.247 -0.0883 -0.2778 -0.0555
21922SOL    HW266983   8.138   5.548   8.217  0.0015  0.3508 -2.6188
21923SOL     OW66984   8.219   7.311   8.088 -0.5406  0.2753  0.0868
21923SOL    HW166985   8.208   7.234   8.144 -3.0798 -0.3018 -1.0629
21923SOL    HW266986   8.277   7.280   8.017  1.7518  0.6877  1.6633
21924SOL     OW66987   7.926   7.184   8.623  0.2411  0.4013 -0.3676
21924SOL    HW166988   7.865   7.117   8.651 -0.0084  1.2177  1.1531
21924SOL    HW266989   8.006   7.136   8.601 -0.2356 -0.4679 -0.2434
21925SOL     OW66990   8.201   5.574   7.897  0.6246 -0.2746 -0.6164
21925SOL    HW166991   8.266   5.564   7.966  0.0779 -0.4276 -0.1127
21925SOL    HW266992   8.231   5.648   7.846  0.4017  0.6237  0.5222
21926SOL     OW66993   7.454   6.673   7.891 -0.2841  0.1203 -0.6631
21926SOL    HW166994   7.528   6.668   7.951 -0.2417 -1.5026 -0.8224
21926SOL    HW266995   7.386   6.720   7.940 -0.2689 -1.2043  0.6755
21927SOL     OW66996   8.443   7.377   7.426  1.1036 -0.1855  0.2141
21927SOL    HW166997   8.350   7.397   7.442  1.2403  0.3610  0.3564
21927SOL    HW266998   8.471   7.330   7.505  0.7725 -0.9626 -0.1296
21928SOL     OW66999   7.211   8.077   8.727  0.1198 -0.1374  0.1896
21928SOL    HW167000   7.221   8.021   8.650  0.9508 -0.2192  0.3451
21928SOL    HW267001   7.259   8.031   8.796 -0.7130 -0.1229  0.7913
21929SOL     OW67002   7.456   7.638   1.130  0.1114  0.3305  0.3346
21929SOL    HW167003   7.512   7.585   1.073  0.3881  0.3086  0.6205
21929SOL    HW267004   7.370   7.636   1.088  0.6902  1.7035 -0.9749
21930SOL     OW67005   7.331   7.386   0.783  0.1467  0.1723  0.3942
21930SOL    HW167006   7.275   7.462   0.800 -0.8174 -0.0238 -1.6899
21930SOL    HW267007   7.420   7.421   0.789 -0.2736  1.5453 -0.7558
21931SOL     OW67008   7.967   8.409   1.234 -0.2293  0.2425  0.8200
21931SOL    HW167009   7.938   8.480   1.177 -2.2989 -0.9248  0.3052
21931SOL    HW267010   7.914   8.419   1.314  1.3302  0.7747  1.8302
21932SOL     OW67011   0.080   0.536   0.694  0.2103  0.5688  0.4817
21932SOL    HW167012   0.134   0.468   0.736  0.6059  1.1334  0.9046
21932SOL    HW267013   0.132   0.563   0.618 -0.2713 -0.0876 -0.1010
21933SOL     OW67014   8.345   8.140   0.488 -0.0295 -0.1335 -0.1210
21933SOL    HW167015   8.404   8.167   0.558  0.0957 -1.9005  0.4964
21933SOL    HW267016   8.263   8.120   0.532 -0.3579 -0.0064 -0.6621
21934SOL     OW67017   8.250   8.219   1.230  0.0312 -0.3350 -0.0468
21934SOL    HW167018   8.260   8.160   1.305  0.5763 -0.9024 -0.5535
21934SOL    HW267019   8.183   8.282   1.257 -0.1749 -0.8716  0.7036
21935SOL     OW67020   8.086   7.990   1.798  0.3017  0.0813  0.4933
21935SOL    HW167021   8.104   7.990   1.704 -1.3795  1.3578  0.1341
21935SOL    HW267022   8.083   8.082   1.823  0.1089 -0.2234  1.6865
21936SOL     OW67023   7.524   8.548   0.461 -0.0685 -0.4241 -0.4040
21936SOL    HW167024   7.570   8.464   0.461  3.1444  1.1530  1.2342
21936SOL    HW267025   7.506   8.566   0.553 -0.4648  0.8022 -0.7013
21937SOL     OW67026   7.897   8.310   1.579  0.5664  0.2387  0.6972
21937SOL    HW167027   7.928   8.220   1.575  0.4514  0.2087 -2.6010
21937SOL    HW267028   7.976   8.363   1.564  0.0448  0.3965 -2.0094
21938SOL     OW67029   7.468   0.038   1.111 -0.2566 -0.0622 -0.0304
21938SOL    HW167030   7.426   0.021   1.027 -2.0852  1.1332  0.5961
21938SOL    HW267031   7.480  -0.049   1.150 -0.5095 -0.5312 -0.9931
21939SOL     OW67032   7.522   7.623   1.932  0.2010 -0.0327  0.5897
21939SOL    HW167033   7.479   7.560   1.875 -2.5974  0.1624  2.2812
21939SOL    HW267034   7.547   7.572   2.009  0.8198  0.3472  0.6465
21940SOL     OW67035   8.737   8.409   1.716  0.4539  0.4179 -0.1847
21940SOL    HW167036   8.816   8.454   1.746  0.4597 -0.0581  0.5205
21940SOL    HW267037   8.727   8.334   1.775 -0.8323  0.7768  0.0842
21941SOL     OW67038   7.089   8.769   1.345  0.0169  0.4253  0.3815
21941SOL    HW167039   7.043   8.696   1.303 -0.8353  1.5768 -0.7862
21941SOL    HW267040   7.179   8.737   1.356 -0.1208 -0.5129 -0.8886
21942SOL     OW67041   7.583   8.752   0.208  0.1831  0.2362 -0.4188
21942SOL    HW167042   7.678   8.744   0.195  0.1920  0.1837 -0.3235
21942SOL    HW267043   7.561   8.837   0.171  0.1630 -0.0299 -1.0259
21943SOL     OW67044   7.113   8.112   0.801 -0.2918 -0.3474  0.6377
21943SOL    HW167045   7.162   8.036   0.768  0.2830  0.4656 -0.4140
21943SOL    HW267046   7.037   8.118   0.743  0.3449  0.6511 -0.1141
21944SOL     OW67047   0.370   8.617   1.031  0.6310  0.3687  0.0290
21944SOL    HW167048   0.322   8.700   1.028  0.6002  0.3629  0.3731
21944SOL    HW267049   0.462   8.642   1.041  0.3859  0.3497  3.3331
21945SOL     OW67050   7.311   8.369   1.772  0.6311 -0.3317  0.8216
21945SOL    HW167051   7.296   8.463   1.787 -0.2599 -0.2870 -0.2016
21945SOL    HW267052   7.271   8.352   1.687  0.7803 -1.6531  0.9935
21946SOL     OW67053   7.482   8.321   1.334  0.0249 -0.4870 -0.6874
21946SOL    HW167054   7.549   8.342   1.398  1.9565  1.1976 -3.0962
21946SOL    HW267055   7.426   8.257   1.379  1.7698 -0.1297  2.2802
21947SOL     OW67056   0.090   8.274   1.166 -0.1616  0.0416 -0.1838
21947SOL    HW167057   0.016   8.329   1.138 -0.0700  0.1099 -0.2965
21947SOL    HW267058   0.167   8.327   1.146 -0.1029  0.2063  0.4583
21948SOL     OW67059   7.809   7.324   0.897 -0.3012 -0.4254 -0.1114
21948SOL    HW167060   7.894   7.362   0.875 -0.0455 -0.8632  0.1090
21948SOL    HW267061   7.820   7.290   0.986 -0.9112  0.1093  0.1766
21949SOL     OW67062   7.088   8.264   1.039 -0.0864 -0.1797  0.0693
21949SOL    HW167063   7.115   8.355   1.023  0.5546  0.2455  2.9801
21949SOL    HW267064   7.111   8.218   0.958  0.6802  2.0155 -1.0526
21950SOL     OW67065   7.516   7.402   2.415  0.4637  0.3131 -0.0672
21950SOL    HW167066   7.463   7.472   2.454  0.8255 -0.0089  1.0503
21950SOL    HW267067   7.459   7.325   2.419  0.8285  0.0745  0.6917
21951SOL     OW67068   7.899   0.067   0.587  0.4554 -0.4121  0.5610
21951SOL    HW167069   7.829   0.019   0.543 -0.0969 -0.0695  1.0656
21951SOL    HW267070   7.951   0.105   0.515 -0.0487 -0.4126  0.1956
21952SOL     OW67071   8.568   7.651   0.691 -0.7058 -0.0121  0.5576
21952SOL    HW167072   8.503   7.613   0.632 -1.4158  2.1875 -0.1639
21952SOL    HW267073   8.516   7.698   0.756  0.1504  0.5907  0.8132
21953SOL     OW67074   7.945   8.177   1.069 -0.0389 -0.0106  0.3672
21953SOL    HW167075   7.940   8.241   1.140 -1.0756  0.7000 -0.3257
21953SOL    HW267076   8.006   8.111   1.102  1.6169  1.6448  0.8510
21954SOL     OW67077   8.343   8.120   1.512 -0.6087  0.0892 -0.2613
21954SOL    HW167078   8.415   8.059   1.527 -0.3939  0.0869 -1.2708
21954SOL    HW267079   8.379   8.206   1.533 -0.7254 -0.0486  0.5491
21955SOL     OW67080   8.199   8.407   1.544 -0.2042  0.1629 -0.1579
21955SOL    HW167081   8.287   8.372   1.538 -0.1836  0.2777 -0.5379
21955SOL    HW267082   8.197   8.452   1.628  0.5873  1.4802 -0.8046
21956SOL     OW67083   8.288   8.096   0.896 -0.4921  0.0360 -0.4114
21956SOL    HW167084   8.193   8.097   0.881 -0.5405 -2.5522 -0.6845
21956SOL    HW267085   8.299   8.047   0.977  0.6262 -0.3628 -0.7825
21957SOL     OW67086   8.225   7.530   0.325 -0.3434 -0.1004 -1.1427
21957SOL    HW167087   8.217   7.615   0.369  0.5792 -0.7567  0.3721
21957SOL    HW267088   8.236   7.552   0.232 -0.2544  1.4194 -0.7984
21958SOL     OW67089   7.440   7.964   0.584  0.1601 -0.1038  0.1930
21958SOL    HW167090   7.395   7.928   0.660 -1.6274  1.7672  0.1292
21958SOL    HW267091   7.399   8.050   0.571  3.0591  1.2854 -0.5789
21959SOL     OW67092   8.129   7.409   8.352 -0.1408  0.0041 -0.0207
21959SOL    HW167093   8.141   7.378   8.263 -0.4914 -0.6198  0.1444
21959SOL    HW267094   8.184   7.352   8.405  1.0331  1.1430  0.0476
21960SOL     OW67095   8.419   8.524   0.354  0.1575 -0.1955  0.5524
21960SOL    HW167096   8.495   8.548   0.407  0.5916  0.2076 -0.2224
21960SOL    HW267097   8.352   8.497   0.417  0.4365  0.8826  1.3344
21961SOL     OW67098   8.155   7.191   1.143  0.2156 -0.3692 -0.3684
21961SOL    HW167099   8.083   7.248   1.117 -0.3454 -1.2671 -0.8489
21961SOL    HW267100   8.234   7.236   1.113 -0.1429  0.6317  0.1796
21962SOL     OW67101   7.740   8.770   0.448  0.1240  0.2156 -0.2485
21962SOL    HW167102   7.799   8.735   0.381  1.5772  0.7381  0.7180
21962SOL    HW267103   7.653   8.742   0.420  0.8411 -0.7757 -1.5945
21963SOL     OW67104   7.809   8.268   1.945  0.4000 -0.1393 -0.6532
21963SOL    HW167105   7.884   8.325   1.963 -0.2723  0.0727  1.9396
21963SOL    HW267106   7.735   8.328   1.934  0.0544 -0.4265  0.0432
21964SOL     OW67107   7.061   7.668   1.536 -0.0079  0.0730  0.8212
21964SOL    HW167108   7.156   7.658   1.529  0.0902  0.1412  1.9351
21964SOL    HW267109   7.044   7.757   1.507  0.0547 -0.4754 -1.0427
21965SOL     OW67110   0.158   0.261   0.001 -0.0788 -0.3369 -0.2260
21965SOL    HW167111   0.220   0.328  -0.025 -0.4289  0.3862  0.7668
21965SOL    HW267112   0.154   0.266   0.096 -1.0188 -0.9379 -0.2136
21966SOL     OW67113   7.631   8.246   0.935 -0.1199 -0.6148  0.0742
21966SOL    HW167114   7.645   8.308   1.006 -1.3364 -0.3335  0.0991
21966SOL    HW267115   7.542   8.265   0.904 -1.1021 -3.2221  0.9827
21967SOL     OW67116   8.213   7.628   1.631  0.1188 -0.2073 -0.1327
21967SOL    HW167117   8.301   7.655   1.658 -0.1526  0.8605 -0.2726
21967SOL    HW267118   8.178   7.583   1.708  0.7718 -0.6028 -0.0596
21968SOL     OW67119   8.782   7.779   1.520 -0.1433  0.0539 -0.0932
21968SOL    HW167120   8.844   7.787   1.593 -0.0992 -0.0186 -0.1226
21968SOL    HW267121   8.814   7.842   1.455 -0.9255  1.0751  0.4776
21969SOL     OW67122   8.484   7.485   0.486 -0.0597  0.5356 -0.2042
21969SOL    HW167123   8.409   7.504   0.430  0.8444  0.1786 -1.5650
21969SOL    HW267124   8.525   7.408   0.447  0.9211  0.6231  0.6099
21970SOL     OW67125   7.441   7.265   0.513 -0.0479 -0.1933 -0.2156
21970SOL    HW167126   7.441   7.354   0.477 -0.4867  0.9234  2.3418
21970SOL    HW267127   7.492   7.272   0.594 -1.3515 -1.9166  0.8100
21971SOL     OW67128   8.664   8.835   8.673  0.2866 -0.0072 -0.1333
21971SOL    HW167129   8.640   8.833   8.581 -0.6384 -2.3448  0.0939
21971SOL    HW267130   8.757   8.861   8.673  0.9977 -2.2216 -1.9328
21972SOL     OW67131   7.879   7.717   0.785  0.1255  0.2850  0.4865
21972SOL    HW167132   7.854   7.714   0.693 -0.4905  0.5740  0.6367
21972SOL    HW267133   7.838   7.798   0.818  0.7866  0.4662  0.8812
21973SOL     OW67134   8.057   8.084   1.519 -0.5504  0.3681 -0.1321
21973SOL    HW167135   8.045   7.997   1.480 -0.8909  0.8191 -1.0490
21973SOL    HW267136   8.152   8.092   1.530 -0.4602  0.1818 -0.7498
21974SOL     OW67137   8.455   0.046   1.165 -0.0689  0.2890  0.5153
21974SOL    HW167138   8.407  -0.036   1.153  0.8054 -0.5358  2.2668
21974SOL    HW267139   8.427   0.101   1.092 -1.8721 -0.9930  0.1654
21975SOL     OW67140   7.218   8.624   0.811 -0.1243  0.4699 -0.1027
21975SOL    HW167141   7.126   8.649   0.800 -0.8701 -1.5264  1.1014
21975SOL    HW267142   7.257   8.639   0.725 -1.7965  0.5445 -0.8955
21976SOL     OW67143   8.090   8.210   0.243 -0.0250  0.0471 -0.0419
21976SOL    HW167144   8.165   8.156   0.220 -0.1132  0.5920 -1.7822
21976SOL    HW267145   8.026   8.149   0.280  0.2539 -0.8800 -1.0438
21977SOL     OW67146   6.854   7.856   0.907  0.4163  0.1258  0.3554
21977SOL    HW167147   6.820   7.910   0.979  0.3036 -1.4677  1.5442
21977SOL    HW267148   6.822   7.768   0.926  2.1073 -0.7259 -0.5412
21978SOL     OW67149   7.629   7.828   1.368  0.5970  0.1948 -0.4582
21978SOL    HW167150   7.551   7.877   1.341  1.4330  1.0225 -1.4995
21978SOL    HW267151   7.626   7.828   1.463 -1.0935 -0.4974 -0.4911
21979SOL     OW67152   8.120   7.727   0.880  0.0706 -0.2573  0.4316
21979SOL    HW167153   8.151   7.639   0.900 -1.4857 -1.5311 -2.2595
21979SOL    HW267154   8.033   7.715   0.842 -0.3031  2.4715  0.1625
21980SOL     OW67155   8.179   7.382   0.598  0.6163 -0.0810  0.3198
21980SOL    HW167156   8.265   7.355   0.566  0.9289  2.0208 -0.8292
21980SOL    HW267157   8.139   7.427   0.523 -1.2201 -0.4348  1.0442
21981SOL     OW67158   8.682   8.062   0.342 -0.3806 -0.2759 -0.6675
21981SOL    HW167159   8.604   8.117   0.334 -0.5147 -0.6422 -2.1080
21981SOL    HW267160   8.653   7.987   0.395 -1.1018 -0.5311 -1.3919
21982SOL     OW67161   7.788   8.112   0.186  0.3349  0.3317 -0.7214
21982SOL    HW167162   7.782   8.019   0.205 -0.9136  0.3718 -0.8418
21982SOL    HW267163   7.854   8.118   0.116  0.8340 -0.3865 -0.3274
21983SOL     OW67164   8.183   8.686   1.340  0.3101 -0.3432 -0.3832
21983SOL    HW167165   8.208   8.694   1.247  2.1426 -1.7934 -0.0863
21983SOL    HW267166   8.139   8.601   1.345 -1.7758  0.6935 -0.2600
21984SOL     OW67167   8.393   8.411   1.086 -0.6741  0.1643 -0.0659
21984SOL    HW167168   8.346   8.359   1.151  0.9601 -0.4423  0.6800
21984SOL    HW267169   8.367   8.374   1.002 -2.3805  0.5879  0.2409
21985SOL     OW67170   8.399   6.952   1.675 -0.3692  0.5336  0.1909
21985SOL    HW167171   8.473   6.968   1.615  0.6078  2.4480  1.7773
21985SOL    HW267172   8.357   6.874   1.640  0.0403  1.6036 -3.0655
21986SOL     OW67173   8.201   8.550   1.772 -0.5948  0.4102  0.5189
21986SOL    HW167174   8.156   8.606   1.836  0.9425  0.5821  1.5053
21986SOL    HW267175   8.293   8.575   1.779 -0.3317  0.2255 -1.5865
21987SOL     OW67176   7.731   8.330   0.699 -0.1891 -0.1413  0.1687
21987SOL    HW167177   7.675   8.312   0.774 -0.3124 -1.0991 -0.1316
21987SOL    HW267178   7.817   8.348   0.736 -0.2040 -0.7949  0.5438
21988SOL     OW67179   7.814   7.908   1.173  0.6966 -0.0768  0.4724
21988SOL    HW167180   7.788   7.846   1.241 -1.9434  0.6363  0.2130
21988SOL    HW267181   7.737   7.963   1.159  1.0478 -0.2481 -3.1861
21989SOL     OW67182   8.359   7.886   1.183  0.2066  0.7092 -0.0250
21989SOL    HW167183   8.374   7.825   1.256 -0.0145 -0.2542 -0.7658
21989SOL    HW267184   8.263   7.889   1.175  0.2412 -0.5820 -1.3834
21990SOL     OW67185   7.318   8.554   0.260 -0.1098  0.3558 -0.2018
21990SOL    HW167186   7.408   8.570   0.287 -0.4783  0.7913  0.7820
21990SOL    HW267187   7.268   8.625   0.298 -0.9101  0.0001 -0.5668
21991SOL     OW67188   8.103   7.909   1.114  0.4996  0.0315  0.2077
21991SOL    HW167189   8.019   7.904   1.160  0.8638 -0.2282  0.8645
21991SOL    HW267190   8.095   7.846   1.043 -0.0692  0.4305 -0.0881
21992SOL     OW67191   7.747   8.656   0.748 -0.1925  0.0371 -0.2167
21992SOL    HW167192   7.653   8.638   0.744  0.0759 -1.4228 -0.3074
21992SOL    HW267193   7.764   8.709   0.670 -1.0264  0.7990  0.0992
21993SOL     OW67194   7.798   7.640   1.766 -0.0465 -0.0563 -0.4271
21993SOL    HW167195   7.727   7.579   1.786 -0.4302  1.2637  2.7965
21993SOL    HW267196   7.878   7.590   1.783 -0.2321 -0.6827 -1.3073
21994SOL     OW67197   8.186   7.130   1.620 -0.6093  0.2917 -0.5952
21994SOL    HW167198   8.211   7.038   1.630  0.3510  0.5481 -0.5333
21994SOL    HW267199   8.268   7.174   1.597 -1.1958  1.0223 -1.3365
21995SOL     OW67200   8.033   7.518   1.827 -0.1682 -0.3619  0.0508
21995SOL    HW167201   8.043   7.423   1.826  2.3026 -0.1918  1.2217
21995SOL    HW267202   8.045   7.542   1.919  3.8647  1.3942 -0.7470
21996SOL     OW67203   7.582   7.824   0.986 -0.7600  0.3655  0.0650
21996SOL    HW167204   7.557   7.910   1.020 -1.7575 -0.7264  2.2545
21996SOL    HW267205   7.533   7.761   1.039 -1.2711 -1.5571 -2.4595
21997SOL     OW67206   8.317   8.354   0.829 -0.4420 -0.1205  0.0433
21997SOL    HW167207   8.387   8.361   0.764  0.0907 -0.0530  0.6124
21997SOL    HW267208   8.303   8.260   0.839 -0.7670 -0.1254 -0.4144
21998SOL     OW67209   8.628   7.861   0.539 -0.0757  0.0198  0.4493
21998SOL    HW167210   8.591   7.930   0.593 -0.2470  0.1429  0.1761
21998SOL    HW267211   8.623   7.782   0.593 -1.4906 -0.1327  0.1153
21999SOL     OW67212   7.322   7.648   1.465 -0.4893  0.1947  0.8191
21999SOL    HW167213   7.327   7.730   1.414 -2.0110  1.4040  2.4955
21999SOL    HW267214   7.411   7.634   1.497  0.2197  0.0919 -1.0674
22000SOL     OW67215   7.332   8.623   1.389  0.0695  0.3087 -0.3081
22000SOL    HW167216   7.337   8.553   1.325 -0.1246  1.6326 -1.8284
22000SOL    HW267217   7.296   8.582   1.468 -0.0016 -1.2772 -1.1438
22001SOL     OW67218   7.836   7.984   0.898 -0.0718 -0.1676  0.3114
22001SOL    HW167219   7.760   7.936   0.933 -0.1241 -0.4312 -0.1536
22001SOL    HW267220   7.847   8.058   0.957  0.4589 -1.1450  1.4998
22002SOL     OW67221   8.047   7.039   0.678 -0.4068  0.5021  0.0606
22002SOL    HW167222   8.088   7.082   0.603  0.7157 -0.7119 -0.0639
22002SOL    HW267223   8.055   7.101   0.749 -1.5712  1.7206 -0.8187
22003SOL     OW67224   0.061   8.206   0.351 -0.0900  0.1951  0.1372
22003SOL    HW167225  -0.004   8.136   0.338  0.3591 -0.7006  2.3613
22003SOL    HW267226   0.067   8.217   0.445  0.8876  2.3269 -0.1135
22004SOL     OW67227   8.063   8.239   0.622  0.1306  0.5214 -0.3236
22004SOL    HW167228   8.037   8.271   0.708 -1.2706 -0.5546 -0.3173
22004SOL    HW267229   7.985   8.195   0.588  1.1250 -0.3929 -1.5012
22005SOL     OW67230   7.350   7.889   1.318 -0.0385 -0.2925  0.0626
22005SOL    HW167231   7.308   7.886   1.232 -1.2431 -1.8720  0.6402
22005SOL    HW267232   7.323   7.972   1.356  0.7956  0.5836 -1.1955
22006SOL     OW67233   8.690   8.033   0.065 -0.3744  0.0481  0.4924
22006SOL    HW167234   8.692   8.035   0.161 -1.5978  0.4138  0.5226
22006SOL    HW267235   8.672   8.124   0.040  2.7196  0.5887 -0.2086
22007SOL     OW67236   7.891   7.673   1.063 -0.4407  0.9214 -0.1355
22007SOL    HW167237   7.841   7.743   1.105 -2.1668 -0.6244  0.5226
22007SOL    HW267238   7.864   7.675   0.971  0.6276  2.0015 -0.4573
22008SOL     OW67239   7.536   7.667   0.788 -0.1274  0.0221 -0.5695
22008SOL    HW167240   7.574   7.720   0.858  0.4218 -0.7569 -0.2652
22008SOL    HW267241   7.444   7.693   0.786  0.1310  0.9772 -0.4209
22009SOL     OW67242   8.483   7.591   1.720  0.4169  0.3821  0.0781
22009SOL    HW167243   8.492   7.668   1.777 -0.3329  0.5037  0.0404
22009SOL    HW267244   8.534   7.523   1.764 -0.2477  0.4386  0.9814
22010SOL     OW67245   8.712   7.346   1.152 -0.6975 -0.4632  0.1861
22010SOL    HW167246   8.715   7.357   1.057  2.2253 -2.3494 -0.0367
22010SOL    HW267247   8.647   7.277   1.166 -1.3317  0.0001 -0.3817
22011SOL     OW67248   8.425   7.748   0.901 -0.0409  0.4019 -0.1008
22011SOL    HW167249   8.393   7.822   0.952 -0.9548 -0.1662  0.1760
22011SOL    HW267250   8.419   7.673   0.960 -0.4494 -0.1363 -0.8019
22012SOL     OW67251   7.406   8.312   0.792 -0.0406  0.4342  0.4872
22012SOL    HW167252   7.395   8.252   0.718 -0.5261 -0.8842  1.5664
22012SOL    HW267253   7.364   8.393   0.764  0.8931  0.3968 -1.1409
22013SOL     OW67254   7.841   7.780   2.048 -0.2566  0.3253  0.4118
22013SOL    HW167255   7.927   7.820   2.036 -0.1094  0.1312  0.8059
22013SOL    HW267256   7.795   7.797   1.966 -0.0553  0.9593  0.4271
22014SOL     OW67257   7.975   7.993   0.383  0.5351 -0.2704  0.0502
22014SOL    HW167258   7.917   7.937   0.332 -0.3692  0.1914  0.5493
22014SOL    HW267259   7.928   8.009   0.465  1.0322  0.7262  0.1651
22015SOL     OW67260   8.027   7.483   1.218  0.1680 -0.5979  0.3123
22015SOL    HW167261   8.021   7.521   1.306  0.5615  0.3020 -0.0368
22015SOL    HW267262   7.991   7.551   1.161  3.4486  0.4934 -0.6500
22016SOL     OW67263   7.643   8.292   0.462 -0.1247  0.1933  1.0259
22016SOL    HW167264   7.646   8.196   0.456 -1.1219  0.1934  0.2573
22016SOL    HW267265   7.661   8.311   0.554  0.2210 -0.7282  1.1564
22017SOL     OW67266   7.433   0.116   1.541 -0.2520 -0.4597  0.0409
22017SOL    HW167267   7.385   0.071   1.610 -1.0512 -0.7007 -0.6660
22017SOL    HW267268   7.373   0.184   1.509  1.0623  1.4387  1.3583
22018SOL     OW67269   8.552   8.089   1.205  0.0160  0.0805  0.4117
22018SOL    HW167270   8.465   8.050   1.193 -0.0579  0.3720 -0.0251
22018SOL    HW267271   8.608   8.016   1.230  0.1725 -0.5947 -1.6897
22019SOL     OW67272   8.810   8.675   0.231  0.3335  0.5268 -0.0073
22019SOL    HW167273   8.853   8.602   0.276  0.7883  1.6296  1.4305
22019SOL    HW267274   8.880   8.716   0.181  0.7011  1.4673  1.2112
22020SOL     OW67275   6.923   8.475   1.317 -0.3249  0.2575  0.4610
22020SOL    HW167276   6.948   8.508   1.403 -0.6446  1.7760  0.0103
22020SOL    HW267277   6.828   8.486   1.314 -0.5282 -1.3211  0.5102
22021SOL     OW67278   8.481   7.677   8.591 -0.2628  0.4876 -0.4749
22021SOL    HW167279   8.545   7.608   8.604 -1.7164 -0.7858  0.2215
22021SOL    HW267280   8.532   7.758   8.588  1.2691 -0.3747  1.0613
22022SOL     OW67281   8.207   8.636   0.856  0.2473 -0.0264  0.3827
22022SOL    HW167282   8.133   8.634   0.795  0.4155  1.5736  0.0636
22022SOL    HW267283   8.261   8.561   0.833  0.4000  0.6272 -1.5820
22023SOL     OW67284   8.426   8.746   1.498 -0.1363  0.2625 -0.3449
22023SOL    HW167285   8.348   8.704   1.462  1.4564 -0.6907 -3.0246
22023SOL    HW267286   8.436   8.826   1.446  0.6329  0.4146  0.0262
22024SOL     OW67287   7.288   7.848   0.823  0.2978 -0.0155  0.4392
22024SOL    HW167288   7.201   7.846   0.782 -0.6903  3.7939  1.9191
22024SOL    HW267289   7.270   7.828   0.915  1.3715 -1.2868  0.3945
22025SOL     OW67290   8.753   8.704   1.437 -0.0358 -0.1568 -0.6214
22025SOL    HW167291   8.660   8.695   1.416  0.1103  0.5804 -1.6784
22025SOL    HW267292   8.786   8.614   1.437 -0.6661 -0.3950 -0.6141
22026SOL     OW67293   8.204   8.414   0.475  0.0088  0.0459 -0.0528
22026SOL    HW167294   8.184   8.368   0.393  1.1313 -0.6786  0.0543
22026SOL    HW267295   8.177   8.354   0.544  0.0310  0.2175  0.1043
22027SOL     OW67296   7.711   8.753   1.804  0.1419  0.0161  0.3087
22027SOL    HW167297   7.654   8.683   1.837  0.1522  0.4569  1.2988
22027SOL    HW267298   7.653   8.810   1.754  0.3694 -1.3959 -1.6910
22028SOL     OW67299   7.591   8.455   1.126 -0.1079  0.3717 -0.5240
22028SOL    HW167300   7.575   8.409   1.209 -2.5558 -0.8143 -1.5397
22028SOL    HW267301   7.537   8.534   1.132  2.0510  1.8628  0.1540
22029SOL     OW67302   8.463   7.546   1.143 -0.0503  0.1114  0.1036
22029SOL    HW167303   8.445   7.595   1.223 -0.4810 -1.6777  1.1729
22029SOL    HW267304   8.543   7.498   1.162  0.9945  1.1991 -1.3347
22030SOL     OW67305   7.628   8.432   1.819  0.3321 -0.4224 -0.9035
22030SOL    HW167306   7.668   8.427   1.732 -0.7833  1.2940 -1.5606
22030SOL    HW267307   7.541   8.393   1.807 -0.7370  1.9243 -1.1849
22031SOL     OW67308   8.372   7.677   1.401  0.5298  0.1031  0.0981
22031SOL    HW167309   8.299   7.646   1.455  0.7067  0.9534  0.8637
22031SOL    HW267310   8.443   7.692   1.464  0.4760  1.9403 -0.2358
22032SOL     OW67311   7.490   7.737   0.255  0.0314 -0.6383  0.0948
22032SOL    HW167312   7.462   7.672   0.191 -0.5509 -1.2287  0.9221
22032SOL    HW267313   7.424   7.806   0.250  1.1773  0.4043 -1.4796
22033SOL     OW67314   8.822   8.182   0.880 -0.0401 -0.3598  0.4450
22033SOL    HW167315   8.786   8.237   0.949  1.3547  0.2847  0.6913
22033SOL    HW267316   8.835   8.097   0.922 -0.3699 -0.3318  0.6094
22034SOL     OW67317   7.393   7.535   0.441  0.1487 -0.3936 -0.4994
22034SOL    HW167318   7.308   7.566   0.411  0.8609  2.6501  0.3223
22034SOL    HW267319   7.456   7.594   0.400  1.6687 -1.0152  0.8439
22035SOL     OW67320   8.374   8.745   0.687  0.3358 -0.3685 -0.0122
22035SOL    HW167321   8.320   8.783   0.619  1.6942  0.2689 -0.7876
22035SOL    HW267322   8.314   8.726   0.759 -0.6269  2.0811 -0.0828
22036SOL     OW67323   7.669   8.413   1.551 -0.2968  0.5287 -0.0289
22036SOL    HW167324   7.754   8.371   1.566 -0.2277  0.5361 -0.3881
22036SOL    HW267325   7.691   8.501   1.520 -0.4417  0.7770  0.5735
22037SOL     OW67326   7.957   7.595   1.509  0.1810  0.0525  0.7521
22037SOL    HW167327   7.900   7.612   1.584  0.4423 -4.1128  2.1564
22037SOL    HW267328   8.046   7.602   1.544  0.3050 -1.8792  0.9412
22038SOL     OW67329   0.160   8.766   1.372  0.1723  0.0554  0.6097
22038SOL    HW167330   0.069   8.738   1.374  0.3781 -1.3474 -2.6915
22038SOL    HW267331   0.199   8.729   1.451 -1.9254  0.1197  1.7370
22039SOL     OW67332   0.143   7.640   0.227 -0.1835 -0.0923  0.0292
22039SOL    HW167333   0.149   7.693   0.306  0.3532 -0.3665  0.1804
22039SOL    HW267334   0.074   7.576   0.246 -0.6456  0.3683 -0.0551
22040SOL     OW67335   7.824   8.090   0.641 -0.0822 -0.0955  0.7434
22040SOL    HW167336   7.811   8.022   0.708 -2.5543 -2.1973 -1.5974
22040SOL    HW267337   7.788   8.169   0.681  0.1875 -0.8318  2.5531
22041SOL     OW67338   7.562   8.076   1.128 -0.3613  0.0157  0.0024
22041SOL    HW167339   7.505   8.137   1.176 -1.8751  0.5216 -2.2523
22041SOL    HW267340   7.597   8.128   1.055  0.3140 -1.1753 -0.5591
22042SOL     OW67341   8.374   8.622   0.109 -0.0700 -0.9209 -0.1573
22042SOL    HW167342   8.462   8.639   0.074  0.5388  1.2621  2.1777
22042SOL    HW267343   8.389   8.588   0.197 -1.5734 -0.4134  0.3207
22043SOL     OW67344   7.863   8.712   2.141 -0.1967 -0.0691 -0.3860
22043SOL    HW167345   7.786   8.659   2.117  0.4169 -1.3672  0.3971
22043SOL    HW267346   7.889   8.679   2.226  1.2840  0.3000 -0.6734
22044SOL     OW67347   7.362   8.602   1.056 -0.4198 -0.2817  0.2398
22044SOL    HW167348   7.338   8.582   0.966 -0.5506 -0.6077  0.3458
22044SOL    HW267349   7.290   8.567   1.109 -0.2549 -0.2574  0.4823
22045SOL     OW67350   7.843   8.618   1.371  0.0116  0.3365 -0.2701
22045SOL    HW167351   7.768   8.677   1.361  0.2984  0.6659 -0.5058
22045SOL    HW267352   7.872   8.630   1.461 -0.8355 -0.5398  0.1377
22046SOL     OW67353   7.674   7.788   0.584 -0.6934  0.0705  0.0537
22046SOL    HW167354   7.627   7.731   0.644 -0.4449  0.4816  0.6503
22046SOL    HW267355   7.612   7.859   0.564 -0.4859  0.3881  0.5086
22047SOL     OW67356   7.657   7.849   1.662 -0.5883 -0.1430  0.3015
22047SOL    HW167357   7.723   7.915   1.683  0.5674 -0.0899 -3.0086
22047SOL    HW267358   7.682   7.773   1.715  1.3261  0.3340  0.1358
22048SOL     OW67359   8.700   7.523   0.911  0.5806  0.0431 -0.4297
22048SOL    HW167360   8.729   7.589   0.974 -0.2897  0.3599 -0.3561
22048SOL    HW267361   8.688   7.572   0.829 -1.0578  0.1952 -0.1243
22049SOL     OW67362   8.556   7.150   1.170 -0.6063  0.2840 -0.3424
22049SOL    HW167363   8.473   7.113   1.200 -0.4578  0.7481  0.6694
22049SOL    HW267364   8.618   7.077   1.173 -0.1873  0.6562  2.1372
22050SOL     OW67365   7.984   0.104   0.824 -0.7723 -0.2807  0.1008
22050SOL    HW167366   8.031   0.026   0.852 -3.0111 -1.6288  0.2980
22050SOL    HW267367   7.952   0.083   0.736 -0.3690  0.9100 -0.3513
22051SOL     OW67368   7.173   8.746   0.420  0.0970  0.7641 -0.5139
22051SOL    HW167369   7.080   8.767   0.431 -0.1349  0.8872 -2.3665
22051SOL    HW267370   7.218   8.829   0.432  0.1016  0.5595  1.2487
22052SOL     OW67371   7.563   8.272   2.180 -0.1037 -0.0463 -0.7231
22052SOL    HW167372   7.640   8.220   2.154 -0.5978 -0.3052 -1.7000
22052SOL    HW267373   7.543   8.242   2.269  2.6742  2.0848  0.7994
22053SOL     OW67374   7.431   8.002   2.397  0.4726 -0.0566 -0.7285
22053SOL    HW167375   7.503   8.064   2.411 -0.0556  0.0158  2.1656
22053SOL    HW267376   7.352   8.050   2.421 -0.2049 -1.1606 -0.6888
22054SOL     OW67377   7.410   7.613   2.698 -0.1347 -0.1029 -0.1793
22054SOL    HW167378   7.331   7.563   2.680 -2.1694  2.1068  1.9308
22054SOL    HW267379   7.394   7.699   2.658  1.1187  0.4306  0.4096
22055SOL     OW67380   8.010   8.705   2.881  0.2776 -0.6733 -0.7946
22055SOL    HW167381   8.031   8.650   2.806  0.7914  0.3738 -1.4367
22055SOL    HW267382   8.045   8.657   2.956  2.7958 -0.1721 -1.5714
22056SOL     OW67383   8.789   8.813   1.934  0.4453  0.4228  0.3776
22056SOL    HW167384   8.745   8.767   1.863  0.9067  1.1970 -0.4304
22056SOL    HW267385   8.831   8.889   1.892  1.8471  0.1737  1.2456
22057SOL     OW67386   8.547   7.933   2.425 -0.3601 -0.4597  0.0688
22057SOL    HW167387   8.471   7.967   2.377  0.1997  0.6885 -0.0454
22057SOL    HW267388   8.615   7.999   2.411  0.3871 -1.0352  0.9053
22058SOL     OW67389   7.852   0.085   2.520  0.1107 -0.2902  0.2298
22058SOL    HW167390   7.807   0.002   2.534  1.0438 -0.8502  0.0147
22058SOL    HW267391   7.800   0.130   2.454 -1.0647 -0.1669  1.1942
22059SOL     OW67392   8.023   8.057   3.543  0.1964  0.2117 -0.2690
22059SOL    HW167393   7.946   8.034   3.492 -1.5107 -0.4935  2.4146
22059SOL    HW267394   8.011   8.149   3.566 -0.7761 -0.3111  1.5041
22060SOL     OW67395   7.990   8.351   2.470 -0.0410 -0.0509 -0.0052
22060SOL    HW167396   8.028   8.282   2.524  1.4729  1.5056  1.0254
22060SOL    HW267397   7.982   8.312   2.383  2.6798 -0.9703  0.0405
22061SOL     OW67398   8.033   8.795   3.908 -0.4306  0.0302  0.3140
22061SOL    HW167399   8.122   8.772   3.881 -0.6172  0.7338 -1.0221
22061SOL    HW267400   8.044   8.832   3.996  0.8069  1.3258 -0.3315
22062SOL     OW67401   8.002   0.389   2.737  0.1158  0.1858 -0.0430
22062SOL    HW167402   8.031   0.301   2.713 -0.9695 -0.4136  0.7489
22062SOL    HW267403   7.908   0.389   2.719 -0.0780  0.8460  0.9030
22063SOL     OW67404   8.081   7.539   3.484  0.3196 -0.2652 -0.0404
22063SOL    HW167405   8.074   7.562   3.576  0.5722 -0.3892  0.0094
22063SOL    HW267406   8.113   7.618   3.441  0.0499 -0.1569 -0.0486
22064SOL     OW67407   8.100   0.047   3.433 -0.5952 -0.1841 -0.1658
22064SOL    HW167408   8.153   0.011   3.361  1.7787  1.1538  0.8007
22064SOL    HW267409   8.040  -0.024   3.456  1.1951 -2.0618 -0.9304
22065SOL     OW67410   7.433   8.788   2.574 -0.0739  0.1497 -0.4654
22065SOL    HW167411   7.417   8.838   2.494 -1.1267  0.0131 -0.3561
22065SOL    HW267412   7.448   8.855   2.641 -0.4729  0.2970 -0.5199
22066SOL     OW67413   8.255   8.431   2.226  0.2432 -0.5016 -0.1653
22066SOL    HW167414   8.188   8.368   2.252 -0.6346  0.9112  1.1840
22066SOL    HW267415   8.225   8.514   2.263  1.5346  0.6562 -1.5888
22067SOL     OW67416   7.348   7.873   2.633 -0.2769  0.3937 -0.0406
22067SOL    HW167417   7.255   7.894   2.631 -0.7629 -1.3802  1.6277
22067SOL    HW267418   7.383   7.912   2.552 -2.4363  1.0980 -0.6967
22068SOL     OW67419   0.354   8.271   2.124  0.0090 -0.1605 -0.5169
22068SOL    HW167420   0.403   8.298   2.201  2.4284 -1.3708 -1.5113
22068SOL    HW267421   0.414   8.287   2.051 -0.5840 -2.8185 -1.6977
22069SOL     OW67422   7.218   8.336   3.002 -0.2352  0.1911 -0.2211
22069SOL    HW167423   7.243   8.428   2.993  0.9747  0.2180  2.4474
22069SOL    HW267424   7.191   8.327   3.094  0.0236 -2.1858 -0.3137
22070SOL     OW67425   8.171   8.650   2.362 -0.4020  0.3894  0.1707
22070SOL    HW167426   8.081   8.663   2.392 -0.7567  0.6972 -0.9743
22070SOL    HW267427   8.202   8.739   2.343 -0.5004  0.1649 -1.1713
22071SOL     OW67428   8.710   8.735   3.503  0.1352 -0.0712 -0.0917
22071SOL    HW167429   8.690   8.644   3.525  0.8170 -0.2307 -0.0933
22071SOL    HW267430   8.664   8.751   3.420 -2.2865  0.4714  1.2665
22072SOL     OW67431   8.481   7.661   2.373  0.0131 -0.7794  0.0055
22072SOL    HW167432   8.563   7.622   2.343  0.0371 -1.0747  0.4551
22072SOL    HW267433   8.507   7.745   2.411  0.0282 -0.5805 -0.4384
22073SOL     OW67434   7.668   8.707   2.925 -0.0355 -0.3103 -0.3310
22073SOL    HW167435   7.741   8.748   2.971 -0.0164  0.2682 -0.8499
22073SOL    HW267436   7.604   8.778   2.915 -0.7286 -0.8437  0.2345
22074SOL     OW67437   8.142   7.793   3.368 -0.0242 -0.3569 -0.1754
22074SOL    HW167438   8.204   7.835   3.428 -0.0598  0.5962 -0.7803
22074SOL    HW267439   8.074   7.859   3.355  0.7980  0.1160 -2.5267
22075SOL     OW67440   7.809   8.026   1.802  0.4003 -0.1781 -0.1153
22075SOL    HW167441   7.806   8.107   1.852 -1.9622 -0.8043  0.9069
22075SOL    HW267442   7.902   8.010   1.786  0.9049  3.1828 -1.2020
22076SOL     OW67443   8.395   8.133   2.570 -0.2916 -0.3788 -0.1289
22076SOL    HW167444   8.455   8.071   2.527  0.4879 -0.3562  0.8914
22076SOL    HW267445   8.313   8.124   2.522 -0.3352 -2.5223  0.2527
22077SOL     OW67446   7.773   7.799   2.997  0.4558 -0.2417 -0.0897
22077SOL    HW167447   7.693   7.805   2.945  0.1255 -1.1566  0.2861
22077SOL    HW267448   7.803   7.709   2.985  0.4557 -0.4343  1.1631
22078SOL     OW67449   8.812   7.825   3.545  0.3426  0.2787 -0.1519
22078SOL    HW167450   8.765   7.791   3.622 -0.7423  0.4985 -0.7008
22078SOL    HW267451   8.854   7.905   3.577  0.1977  0.1800  0.3041
22079SOL     OW67452   8.075   8.238   3.193  0.3253  0.5061  0.3527
22079SOL    HW167453   8.067   8.275   3.105  0.7038 -1.2762 -0.4969
22079SOL    HW267454   8.053   8.145   3.181  1.2219  0.0514  1.9875
22080SOL     OW67455   8.164   7.888   2.920  0.0463 -0.2055  0.2458
22080SOL    HW167456   8.090   7.879   2.860  0.2634 -0.0948 -0.0376
22080SOL    HW267457   8.237   7.846   2.875  0.0096 -0.8915  0.7988
22081SOL     OW67458   8.465   8.308   1.908  0.0824 -0.2780 -0.0035
22081SOL    HW167459   8.549   8.272   1.934  0.5758  1.1507  0.4624
22081SOL    HW267460   8.471   8.402   1.928 -1.5112 -0.0953 -0.2240
22082SOL     OW67461   7.067   8.262   2.751  0.4141 -0.6443 -0.0020
22082SOL    HW167462   6.980   8.263   2.791  1.2317  1.1956  1.9183
22082SOL    HW267463   7.125   8.296   2.819  2.3660 -0.1281 -1.8226
22083SOL     OW67464   7.832   7.538   2.172 -0.3529 -0.0562  0.4050
22083SOL    HW167465   7.738   7.521   2.172 -0.5107  0.5606  2.0501
22083SOL    HW267466   7.841   7.624   2.131 -0.6752  0.4877  1.4363
22084SOL     OW67467   8.476   8.554   2.176  0.6618 -0.9082  0.0787
22084SOL    HW167468   8.391   8.512   2.189  0.4685 -0.6328 -0.2797
22084SOL    HW267469   8.482   8.568   2.082 -0.4737  2.2728  0.3507
22085SOL     OW67470   7.499   8.254   2.757  0.3885 -0.2394  0.8019
22085SOL    HW167471   7.435   8.189   2.787  0.2966 -0.4424  0.1827
22085SOL    HW267472   7.454   8.338   2.767 -0.6213 -0.4844 -1.1437
22086SOL     OW67473   7.573   8.256   2.467  0.3622  0.5354 -0.5854
22086SOL    HW167474   7.574   8.237   2.561 -0.9190 -0.9963 -0.8391
22086SOL    HW267475   7.665   8.252   2.441  0.5058 -3.8512 -0.2118
22087SOL     OW67476   8.025   8.683   3.183  0.1061 -0.2726 -0.3887
22087SOL    HW167477   7.952   8.627   3.210 -0.7429  1.4493  1.1204
22087SOL    HW267478   8.102   8.628   3.195 -0.8293 -1.8125 -1.0721
22088SOL     OW67479   7.713   7.475   3.467  0.3581 -0.2192 -0.3278
22088SOL    HW167480   7.629   7.515   3.444 -0.5574 -1.1389  1.2780
22088SOL    HW267481   7.770   7.550   3.485 -0.7914  0.4206  0.8063
22089SOL     OW67482   7.960   8.279   2.221 -0.0236 -0.1289 -0.2692
22089SOL    HW167483   7.993   8.341   2.156  2.1962 -1.4319 -0.4881
22089SOL    HW267484   7.932   8.204   2.170 -3.2490  0.8069 -0.0525
22090SOL     OW67485   7.588   7.072   2.307  0.1949  0.4692  0.7549
22090SOL    HW167486   7.499   7.044   2.326 -0.1380  0.3590 -0.8090
22090SOL    HW267487   7.640   7.043   2.382 -1.4488  2.7038  2.9147
22091SOL     OW67488   8.530   7.711   3.115 -0.1969 -0.5447  0.3949
22091SOL    HW167489   8.556   7.655   3.188 -0.1122 -1.6216 -0.4291
22091SOL    HW267490   8.434   7.707   3.114 -0.1814 -0.8586  0.1970
22092SOL     OW67491   8.401   7.961   3.089 -0.2896 -0.4454 -0.2050
22092SOL    HW167492   8.467   7.892   3.082 -0.2504 -0.9096  3.2014
22092SOL    HW267493   8.317   7.915   3.087 -0.3835 -0.2520 -0.8851
22093SOL     OW67494   8.225   7.624   2.704 -0.0014  0.4026  0.1105
22093SOL    HW167495   8.289   7.677   2.751 -0.2571  1.2670 -0.5056
22093SOL    HW267496   8.266   7.537   2.698  0.7267  0.7139  0.4923
22094SOL     OW67497   8.250   7.497   2.293  0.6104 -0.3605  0.4198
22094SOL    HW167498   8.216   7.442   2.363 -0.4030 -0.8418 -0.4381
22094SOL    HW267499   8.292   7.570   2.339 -3.9160  1.8304  1.6484
22095SOL     OW67500   0.283   8.711   1.643  0.5158 -0.1861 -0.1217
22095SOL    HW167501   0.230   8.770   1.696 -0.3458 -1.3650  0.3923
22095SOL    HW267502   0.265   8.624   1.680 -0.6805 -1.1594 -2.7590
22096SOL     OW67503   7.686   7.247   2.621  0.1400 -0.3287 -0.6572
22096SOL    HW167504   7.688   7.292   2.536  0.0562 -0.7228 -0.8705
22096SOL    HW267505   7.593   7.244   2.644  0.2316  0.5105 -0.1545
22097SOL     OW67506   8.056   7.398   2.103  0.4975  0.4343  0.2703
22097SOL    HW167507   8.132   7.425   2.154  0.6690  2.3466 -0.8887
22097SOL    HW267508   7.986   7.457   2.132 -0.2958 -0.6375  0.5976
22098SOL     OW67509   7.989   7.962   3.131 -0.0527 -0.0934  0.4064
22098SOL    HW167510   7.910   7.916   3.102  0.3062 -1.1447  1.0331
22098SOL    HW267511   8.060   7.919   3.084  0.2532  0.1015  0.6868
22099SOL     OW67512   8.428   8.805   2.302  0.5928  0.2278  0.1398
22099SOL    HW167513   8.451   8.723   2.259 -1.1202  0.1412 -0.6704
22099SOL    HW267514   8.498   8.818   2.367 -0.0953 -2.9232  1.7446
22100SOL     OW67515   7.888   8.621   2.418 -0.4375  0.2931 -0.6720
22100SOL    HW167516   7.833   8.627   2.496 -1.1466 -0.3908 -1.1052
22100SOL    HW267517   7.923   8.532   2.420 -0.0373  0.4428 -0.8582
22101SOL     OW67518   8.114   7.833   2.010 -0.0171  0.4860  0.0700
22101SOL    HW167519   8.100   7.877   1.926 -0.1871 -2.5089 -1.6250
22101SOL    HW267520   8.208   7.839   2.024 -0.0970  1.7954  0.1794
22102SOL     OW67521   7.099   7.639   3.580 -0.2504  0.5291  0.6303
22102SOL    HW167522   7.134   7.656   3.493  0.3291 -0.7089  0.6070
22102SOL    HW267523   7.098   7.544   3.588 -2.0053  0.5542  1.2993
22103SOL     OW67524   7.797   7.434   3.208 -0.1871  0.4659  0.2607
22103SOL    HW167525   7.757   7.426   3.294  1.1226 -1.0626  0.8030
22103SOL    HW267526   7.884   7.394   3.219  1.3607  3.2170 -0.9277
22104SOL     OW67527   8.385   7.391   2.642 -0.0778 -0.0925  0.1804
22104SOL    HW167528   8.465   7.440   2.621 -0.2486  1.0834  2.0344
22104SOL    HW267529   8.415   7.320   2.699 -0.2025 -0.4714 -0.2181
22105SOL     OW67530   8.425   7.481   2.028  0.6302  0.1583  0.1493
22105SOL    HW167531   8.476   7.561   2.015 -1.0171  1.0609 -1.2031
22105SOL    HW267532   8.353   7.508   2.086  0.1512 -0.3860 -0.1821
22106SOL     OW67533   8.449   8.335   1.639 -0.1920  0.1478 -0.3945
22106SOL    HW167534   8.473   8.301   1.725 -1.3488  1.4735  0.5011
22106SOL    HW267535   8.526   8.382   1.609  0.1967 -0.2664 -0.0545
22107SOL     OW67536   8.056   7.899   2.280  0.0387 -0.3242 -0.2854
22107SOL    HW167537   8.069   7.867   2.191 -3.0983  1.1596 -1.4438
22107SOL    HW267538   7.984   7.845   2.314  2.3972 -2.1532  2.1814
22108SOL     OW67539   8.581   8.682   3.072 -0.7733  0.2801  0.2663
22108SOL    HW167540   8.638   8.749   3.035  0.8863 -2.0355 -1.7450
22108SOL    HW267541   8.639   8.630   3.128 -1.7284 -0.1594  0.8612
22109SOL     OW67542   8.674   8.834   2.420 -0.5302 -0.3321  0.3217
22109SOL    HW167543   8.699   8.779   2.494  0.0709 -1.0207 -0.3812
22109SOL    HW267544   8.696   8.923   2.448  1.0446 -0.7270  0.4380
22110SOL     OW67545   8.079   7.525   2.925 -0.0531 -0.5445  0.6307
22110SOL    HW167546   8.108   7.581   2.853  1.1938  0.1205  1.6158
22110SOL    HW267547   7.983   7.533   2.924  0.0169  0.4391 -0.1497
22111SOL     OW67548   8.351   8.180   3.537 -0.4443 -0.0125  0.1396
22111SOL    HW167549   8.409   8.179   3.461  0.2227 -1.8144  0.6344
22111SOL    HW267550   8.265   8.157   3.502 -0.4639  0.6846 -0.2873
22112SOL     OW67551   8.328   8.085   2.059  0.3067 -0.2482 -0.1159
22112SOL    HW167552   8.306   8.146   1.989  0.7022  0.4937  0.3922
22112SOL    HW267553   8.421   8.101   2.077  0.8875 -2.1495 -1.0941
22113SOL     OW67554   7.458   8.165   3.546  0.2874  0.3629 -0.2604
22113SOL    HW167555   7.364   8.176   3.535  0.4001  2.5254  0.4333
22113SOL    HW267556   7.484   8.236   3.604  2.1917 -0.8805  0.5074
22114SOL     OW67557   8.425   7.739   2.848 -0.6400 -0.6286  0.6438
22114SOL    HW167558   8.463   7.695   2.924 -0.9570 -2.3250 -0.1323
22114SOL    HW267559   8.499   7.763   2.794 -0.4685 -0.2187  1.0480
22115SOL     OW67560   7.502   8.548   2.404  0.3515 -0.1559  0.5646
22115SOL    HW167561   7.452   8.612   2.455 -1.0981 -1.6084  1.0439
22115SOL    HW267562   7.564   8.511   2.467 -0.0447 -0.4917  0.7640
22116SOL     OW67563   7.716   8.578   2.621 -0.3445  0.2080 -0.3846
22116SOL    HW167564   7.747   8.498   2.664 -2.7249 -1.3164 -1.3188
22116SOL    HW267565   7.653   8.615   2.683  0.6238  1.3579 -0.0282
22117SOL     OW67566   8.788   8.651   2.165 -0.0491  0.4109  0.1515
22117SOL    HW167567   8.803   8.688   2.077  0.6857  0.7421  0.4075
22117SOL    HW267568   8.692   8.651   2.175 -0.0932  1.8938 -0.0198
22118SOL     OW67569   7.430   8.145   3.260  0.0668  0.2619  0.6455
22118SOL    HW167570   7.494   8.163   3.190 -0.3231  0.0349  0.2196
22118SOL    HW267571   7.476   8.166   3.341  0.1023  1.7592  0.2644
22119SOL     OW67572   8.511   7.160   3.842  0.3872  0.2802 -0.4059
22119SOL    HW167573   8.560   7.131   3.765 -1.4327 -0.1016 -1.4766
22119SOL    HW267574   8.457   7.085   3.865 -0.2020  0.9192  0.3223
22120SOL     OW67575   8.080   7.760   3.756  0.1134 -0.0860 -0.3995
22120SOL    HW167576   8.156   7.748   3.813 -0.8668 -0.2711  0.9310
22120SOL    HW267577   8.078   7.854   3.738  0.0177  0.1033  0.5252
22121SOL     OW67578   7.647   8.166   3.090 -0.4466  0.1329 -0.2465
22121SOL    HW167579   7.639   8.230   3.019  0.6653  0.2960 -0.2427
22121SOL    HW267580   7.680   8.087   3.048  2.4420  0.9066  0.3617
22122SOL     OW67581   8.675   7.977   2.939 -0.3150  0.3434 -1.1229
22122SOL    HW167582   8.666   7.915   2.867  0.6187  0.6970 -1.5667
22122SOL    HW267583   8.620   8.051   2.914 -2.8911 -0.9605  0.2428
22123SOL     OW67584   8.417   7.807   2.096  0.6957  0.3331 -0.0855
22123SOL    HW167585   8.455   7.767   2.175 -0.2321  1.4855  0.9799
22123SOL    HW267586   8.422   7.901   2.112 -0.4776  0.5624 -0.9367
22124SOL     OW67587   7.372   7.876   3.407 -0.4278 -0.1019  0.8385
22124SOL    HW167588   7.390   7.960   3.450  0.6322 -0.4858  1.1854
22124SOL    HW267589   7.449   7.861   3.351 -0.3048 -1.1261  1.2584
22125SOL     OW67590   7.407   0.111   3.217  0.1351  0.1278  0.1402
22125SOL    HW167591   7.476   0.081   3.275  0.3019 -0.1030 -0.1762
22125SOL    HW267592   7.378   0.194   3.254  1.9778  1.2654 -0.8477
22126SOL     OW67593   7.801   7.695   2.665 -0.7477 -0.0058 -0.1472
22126SOL    HW167594   7.801   7.600   2.674 -1.6139  0.0477  0.5750
22126SOL    HW267595   7.780   7.710   2.573 -4.4697 -0.5329  0.4560
22127SOL     OW67596   7.562   7.454   2.846 -0.4143  0.0717 -0.6579
22127SOL    HW167597   7.538   7.531   2.795  2.2867 -0.3076 -2.7327
22127SOL    HW267598   7.527   7.380   2.796 -2.3102 -0.2023  0.9179
22128SOL     OW67599   8.586   8.070   2.108  0.4294  0.3294 -0.1138
22128SOL    HW167600   8.601   8.092   2.200  0.7433  0.9143 -0.2947
22128SOL    HW267601   8.672   8.040   2.076  0.6616  1.4061 -0.5485
22129SOL     OW67602   8.464   8.426   2.992 -0.1240 -0.0939  0.4428
22129SOL    HW167603   8.531   8.471   2.941 -1.0165  0.1512 -0.5796
22129SOL    HW267604   8.446   8.345   2.942  0.0384 -0.5904  1.1763
22130SOL     OW67605   7.949   8.575   3.791  0.0700 -0.0205  0.0363
22130SOL    HW167606   7.990   8.644   3.844  2.8172  0.0368 -1.9659
22130SOL    HW267607   7.991   8.494   3.820 -0.8430 -0.4531  0.1918
22131SOL     OW67608   8.721   8.333   1.999 -0.5066 -0.4389  0.3913
22131SOL    HW167609   8.788   8.266   1.991 -0.3608 -0.5618  2.2325
22131SOL    HW267610   8.762   8.402   2.052 -1.3251  0.1671  0.2572
22132SOL     OW67611   7.221   8.425   2.555  0.1914 -0.2875  0.3217
22132SOL    HW167612   7.174   8.395   2.633 -0.0315  0.7447  0.5921
22132SOL    HW267613   7.307   8.452   2.588 -0.4807  1.7537  0.5103
22133SOL     OW67614   7.455   8.525   2.717  0.0326  0.2187  0.1667
22133SOL    HW167615   7.450   8.548   2.810 -0.5417 -1.8166  0.6780
22133SOL    HW267616   7.427   8.605   2.672 -0.9974  0.8284  1.7727
22134SOL     OW67617   8.343   7.892   3.515 -0.4142  0.8779  0.4636
22134SOL    HW167618   8.431   7.917   3.485  1.1603 -2.0824  2.1523
22134SOL    HW267619   8.329   7.944   3.594  0.3738  0.5570  0.8330
22135SOL     OW67620   0.023   7.498   3.504 -0.6931 -0.4204 -0.6715
22135SOL    HW167621   0.031   7.593   3.511  1.7353 -0.5166 -1.1815
22135SOL    HW267622  -0.070   7.481   3.515 -0.9213  1.8079  1.8118
22136SOL     OW67623   7.272   8.600   1.873  0.3030 -0.3330 -0.0323
22136SOL    HW167624   7.186   8.641   1.863  0.4280 -0.4097 -1.5172
22136SOL    HW267625   7.277   8.579   1.967  0.2439  3.0015  0.8394
22137SOL     OW67626   7.829   8.357   2.767 -0.5923 -0.1911 -0.6399
22137SOL    HW167627   7.793   8.391   2.849 -0.4066 -1.2961 -0.0787
22137SOL    HW267628   7.919   8.334   2.788 -0.3684  0.0605 -1.3163
22138SOL     OW67629   7.347   8.611   2.995  0.9908 -0.1374  0.8143
22138SOL    HW167630   7.377   8.628   3.084  0.3888  1.3723  0.7682
22138SOL    HW267631   7.269   8.666   2.985  1.0213 -0.3079 -0.6248
22139SOL     OW67632   7.756   8.131   3.853  0.0979  0.9256  0.0526
22139SOL    HW167633   7.759   8.099   3.763  1.4001 -0.7191  0.6254
22139SOL    HW267634   7.690   8.077   3.896  0.4772  0.7235  0.4015
22140SOL     OW67635   8.118   8.054   2.530 -0.2271 -0.1535 -0.5519
22140SOL    HW167636   8.105   7.982   2.591 -2.8226 -0.1934 -1.0586
22140SOL    HW267637   8.100   8.016   2.444 -2.9433  1.2885 -0.7321
22141SOL     OW67638   8.102   8.254   2.883 -0.3675  0.7633 -0.3275
22141SOL    HW167639   8.084   8.168   2.846 -1.7515  1.3066 -1.0229
22141SOL    HW267640   8.154   8.299   2.817  2.3744 -0.2604  1.0025
22142SOL     OW67641   7.716   8.012   2.177 -0.3495 -0.1391 -0.0565
22142SOL    HW167642   7.736   7.918   2.173 -2.6791 -0.6864 -0.3497
22142SOL    HW267643   7.696   8.028   2.269 -3.3802 -0.8128 -0.4922
22143SOL     OW67644   7.829   8.434   3.297  0.3693  0.0846  0.2752
22143SOL    HW167645   7.765   8.454   3.366 -1.1265 -2.0368 -0.4035
22143SOL    HW267646   7.905   8.400   3.344 -0.9488 -2.1663  0.9238
22144SOL     OW67647   8.702   8.468   2.815 -0.3380 -0.3204 -0.4987
22144SOL    HW167648   8.738   8.396   2.867 -0.1018 -0.8459 -1.3704
22144SOL    HW267649   8.748   8.546   2.846 -0.4990 -0.5591  0.3610
22145SOL     OW67650   0.101   8.447   2.072 -0.1196  0.4278 -0.3566
22145SOL    HW167651   0.155   8.393   2.130 -0.1960  2.8344  2.1414
22145SOL    HW267652   0.072   8.520   2.127 -2.9298  1.1734 -2.5952
22146SOL     OW67653   7.802   0.185   2.935  0.3887  0.0884 -0.6813
22146SOL    HW167654   7.710   0.181   2.960  0.3474 -1.4729 -0.9834
22146SOL    HW267655   7.804   0.246   2.861 -0.2642  0.7527 -0.1628
22147SOL     OW67656   8.371   8.579   2.529 -0.0355  0.2028  0.0351
22147SOL    HW167657   8.386   8.667   2.565  1.7482  0.7148 -1.8145
22147SOL    HW267658   8.289   8.587   2.480  2.1896  2.2507 -3.8653
22148SOL     OW67659   8.731   8.556   3.255 -0.1751  0.2711  0.1624
22148SOL    HW167660   8.824   8.569   3.238 -0.1345  1.4085  1.0893
22148SOL    HW267661   8.719   8.461   3.253  0.9200  0.1267 -0.3514
22149SOL     OW67662   7.768   8.077   2.773  0.1696 -0.4925  0.4645
22149SOL    HW167663   7.764   8.172   2.788 -0.6230 -0.3044 -0.7761
22149SOL    HW267664   7.683   8.045   2.805 -1.3738 -0.1432 -2.8214
22150SOL     OW67665   7.724   8.430   2.997 -0.5173 -0.0778  0.0030
22150SOL    HW167666   7.700   8.523   2.996  1.9688  0.6354 -0.4888
22150SOL    HW267667   7.735   8.408   3.089 -1.6927 -0.0692  0.1538
22151SOL     OW67668   8.198   8.243   1.814  0.2622  0.1226  0.1438
22151SOL    HW167669   8.150   8.280   1.740  1.4218 -2.4445 -2.0664
22151SOL    HW267670   8.283   8.286   1.812  1.3485 -1.8614 -1.9799
22152SOL     OW67671   8.056   0.302   3.339 -0.0794  0.1930  0.1466
22152SOL    HW167672   8.077   0.209   3.334  1.7498  0.3637  2.7258
22152SOL    HW267673   8.140   0.346   3.342 -0.9120  1.9352 -0.7333
22153SOL     OW67674   8.258   8.353   2.680  0.0570  0.2559 -0.2126
22153SOL    HW167675   8.299   8.267   2.670  2.7192  1.1290  1.9675
22153SOL    HW267676   8.322   8.415   2.642 -0.6725  1.4378  0.4127
22154SOL     OW67677   8.001   7.585   2.485  0.0390 -0.4378  0.0921
22154SOL    HW167678   8.018   7.492   2.500  0.7166 -0.1991  0.8556
22154SOL    HW267679   8.043   7.629   2.558 -1.2753  0.4048  0.3729
22155SOL     OW67680   7.767   8.114   3.351 -0.3348  0.1251 -0.0696
22155SOL    HW167681   7.769   8.043   3.286 -0.8355 -0.2884  0.3523
22155SOL    HW267682   7.740   8.191   3.301 -0.0007 -0.0246 -0.4930
22156SOL     OW67683   8.255   7.664   3.133 -0.0253 -0.1232  0.4000
22156SOL    HW167684   8.181   7.618   3.091 -1.1182  0.3365  1.7622
22156SOL    HW267685   8.221   7.693   3.217  1.1153  1.8332  0.2552
22157SOL     OW67686   7.398   7.311   2.062 -0.3835 -0.2321 -0.7976
22157SOL    HW167687   7.373   7.317   1.970 -1.6359 -0.6535 -0.5050
22157SOL    HW267688   7.341   7.244   2.098  0.7682 -0.7830  0.0795
22158SOL     OW67689   8.749   7.979   3.201 -0.2105 -0.1105  0.0024
22158SOL    HW167690   8.689   7.952   3.131 -1.5578 -2.0304  1.7464
22158SOL    HW267691   8.833   7.941   3.176 -0.1212  1.0100 -1.5547
22159SOL     OW67692   7.281   7.038   2.036  0.1803  0.2258 -0.2452
22159SOL    HW167693   7.306   7.046   1.944 -2.4153 -2.7155 -1.3790
22159SOL    HW267694   7.335   6.967   2.070  0.4517  0.6595  0.2446
22160SOL     OW67695   8.464   8.608   1.844 -0.4471 -0.1946  0.0327
22160SOL    HW167696   8.461   8.695   1.883 -3.8217  0.5173 -1.5085
22160SOL    HW267697   8.498   8.623   1.755 -1.6339 -0.3031 -0.4558
22161SOL     OW67698   8.428   8.151   3.270  0.1288  0.0902 -0.6186
22161SOL    HW167699   8.502   8.201   3.235  0.2978 -0.4784 -1.1014
22161SOL    HW267700   8.415   8.081   3.206  0.9479 -1.4669  0.8211
22162SOL     OW67701   7.706   8.014   3.586 -0.3139 -0.1038 -0.1473
22162SOL    HW167702   7.712   8.039   3.494 -0.2768  0.3970 -0.0112
22162SOL    HW267703   7.615   8.033   3.610 -0.4180 -0.5595 -0.1712
22163SOL     OW67704   0.144   8.621   3.996  0.1356 -0.4176  0.2737
22163SOL    HW167705   0.119   8.710   3.972  0.3379  0.1168  1.9453
22163SOL    HW267706   0.238   8.617   3.977  0.9734  0.9805  3.5519
22164SOL     OW67707   8.382   7.299   1.552 -0.4241  0.7344 -0.3181
22164SOL    HW167708   8.468   7.259   1.542 -0.9230 -0.5148  0.1642
22164SOL    HW267709   8.400   7.388   1.580  0.7214  0.0314  1.3514
22165SOL     OW67710   8.437   8.174   2.865 -0.2100  0.6264 -0.1230
22165SOL    HW167711   8.397   8.137   2.786 -1.1210  1.7423 -0.2074
22165SOL    HW267712   8.417   8.110   2.934 -0.1483  0.0620 -0.6183
22166SOL     OW67713   8.584   0.209   1.733  0.1531 -0.4658 -0.7122
22166SOL    HW167714   8.643   0.222   1.659  0.2184 -1.2167 -0.7919
22166SOL    HW267715   8.593   0.117   1.756  2.2257  0.2807  2.0181
22167SOL     OW67716   8.308   8.003   2.312  0.6704  0.0644  0.5729
22167SOL    HW167717   8.227   7.952   2.313  0.9607 -0.5071 -1.2219
22167SOL    HW267718   8.309   8.045   2.226  2.3787 -0.1234  0.4619
22168SOL     OW67719   8.044   8.404   1.996 -0.4249 -0.1634  0.1198
22168SOL    HW167720   8.044   8.498   1.979  0.4144 -0.1270  0.3064
22168SOL    HW267721   8.112   8.369   1.938 -2.3430 -1.0188 -1.7768
22169SOL     OW67722   7.747   0.058   3.552 -0.3600  0.5940 -0.2255
22169SOL    HW167723   7.810   0.121   3.587  0.0270  0.9108 -1.4398
22169SOL    HW267724   7.672   0.064   3.611  0.8268  0.0121  1.4024
22170SOL     OW67725   7.679   0.151   2.323  0.7050  0.2293  0.0703
22170SOL    HW167726   7.629   0.230   2.304  1.3687  0.6328 -0.0346
22170SOL    HW267727   7.667   0.096   2.246  1.9788  1.1413 -0.8283
22171SOL     OW67728   8.061   8.312   3.465 -0.3104 -1.2264 -0.1783
22171SOL    HW167729   8.083   8.272   3.381 -0.4859 -0.0804 -0.7832
22171SOL    HW267730   8.115   8.391   3.470 -2.0724  0.0411 -0.3461
22172SOL     OW67731   7.963   7.903   2.710  0.3723 -0.5586  0.4093
22172SOL    HW167732   7.914   7.821   2.717  1.5564 -1.1953  1.7819
22172SOL    HW267733   7.901   7.970   2.738 -0.4523 -1.0472 -0.2161
22173SOL     OW67734   7.336   8.090   2.884  0.1444  0.1972 -0.0257
22173SOL    HW167735   7.300   8.170   2.921  0.7387  0.5814 -0.2641
22173SOL    HW267736   7.278   8.020   2.916 -0.3350  0.7092  0.2366
22174SOL     OW67737   8.647   7.836   2.732 -0.9519  0.6242 -0.1891
22174SOL    HW167738   8.663   7.890   2.655  0.6415  0.0097 -0.3263
22174SOL    HW267739   8.713   7.767   2.727 -1.8125 -0.3187  0.9197
22175SOL     OW67740   8.790   7.600   2.743  0.0934 -0.2627  0.5295
22175SOL    HW167741   8.838   7.541   2.800 -0.8897 -0.8257  0.8085
22175SOL    HW267742   8.775   7.549   2.663 -2.7700 -1.3593  1.6059
22176SOL     OW67743   8.085   8.674   1.978 -0.4041  0.6995 -0.0273
22176SOL    HW167744   8.004   8.704   2.018  0.2044  1.6579  0.5213
22176SOL    HW267745   8.154   8.723   2.022  0.5601 -0.6911  0.1112
22177SOL     OW67746   8.811   7.514   1.568 -0.4260  0.5404 -0.1272
22177SOL    HW167747   8.786   7.446   1.504  1.0078 -1.4725  1.3171
22177SOL    HW267748   8.795   7.596   1.523 -1.2473 -0.7623 -2.3854
22178SOL     OW67749   7.323   8.286   2.315  0.3989 -0.9603  0.1326
22178SOL    HW167750   7.415   8.300   2.336  0.5933 -1.2679 -0.4694
22178SOL    HW267751   7.274   8.332   2.384  0.9959 -1.4346  0.8838
22179SOL     OW67752   7.947   8.314   3.946 -0.0563 -0.4352 -0.1957
22179SOL    HW167753   7.892   8.247   3.905 -3.5029  2.7916 -1.3082
22179SOL    HW267754   7.914   8.319   4.036 -1.2076  1.0144 -0.6650
22180SOL     OW67755   7.474   7.915   4.712  0.6403  0.5043  0.0926
22180SOL    HW167756   7.466   7.928   4.806  0.0110  0.0801  0.1050
22180SOL    HW267757   7.416   7.842   4.693  1.7389 -0.2506 -0.4377
22181SOL     OW67758   7.456   8.023   4.473 -0.0104  0.1246  0.0460
22181SOL    HW167759   7.460   7.998   4.566  0.2719  1.0170  0.2914
22181SOL    HW267760   7.415   7.949   4.430  3.2834 -2.0596  0.2612
22182SOL     OW67761   8.069   0.097   4.726 -0.5063  0.4361 -0.1364
22182SOL    HW167762   7.994   0.037   4.721  0.2270 -0.6211  0.9367
22182SOL    HW267763   8.072   0.122   4.818 -0.8500  2.2314 -0.5856
22183SOL     OW67764   8.824   0.641   4.199  0.1394  0.4198 -0.3364
22183SOL    HW167765   8.913   0.637   4.164  0.3460 -0.2037  0.2193
22183SOL    HW267766   8.770   0.597   4.133  0.1424  1.3049 -0.9412
22184SOL     OW67767   8.289   8.343   4.420 -0.6624  0.0897  0.2730
22184SOL    HW167768   8.326   8.416   4.371  1.0245 -0.5023  0.5857
22184SOL    HW267769   8.203   8.374   4.450 -0.9448  1.1054 -1.4816
22185SOL     OW67770   8.154   8.334   4.725 -0.1372 -0.2518 -0.0362
22185SOL    HW167771   8.110   8.288   4.653 -0.4224 -0.7612  0.4510
22185SOL    HW267772   8.089   8.336   4.795  0.5252 -0.8263  0.6200
22186SOL     OW67773   8.236   8.016   5.248  0.2295 -0.4745 -0.2253
22186SOL    HW167774   8.319   7.969   5.241  0.1975 -0.4838 -0.5551
22186SOL    HW267775   8.203   8.021   5.158  0.5995  0.8332 -0.3046
22187SOL     OW67776   7.984   8.360   4.917 -0.1752 -0.0584 -0.3495
22187SOL    HW167777   7.906   8.305   4.911 -1.0243  1.2268 -2.1176
22187SOL    HW267778   7.955   8.440   4.960  1.2609 -1.1703  3.0580
22188SOL     OW67779   7.853   8.611   5.501  0.0466 -0.0013 -0.0294
22188SOL    HW167780   7.778   8.579   5.550 -0.6578 -0.0091 -1.0860
22188SOL    HW267781   7.815   8.660   5.429  1.0805  2.1034  0.7845
22189SOL     OW67782   7.848   8.748   4.734 -0.3908 -0.0328  0.3051
22189SOL    HW167783   7.756   8.756   4.760 -0.5506  0.4459 -0.3794
22189SOL    HW267784   7.846   8.695   4.654 -0.1890  0.8996 -0.3362
22190SOL     OW67785   7.589   7.532   5.117 -0.1331 -1.1314  0.0543
22190SOL    HW167786   7.646   7.486   5.179 -0.5216 -0.9751  0.5347
22190SOL    HW267787   7.521   7.467   5.095  0.2720 -1.3455 -0.5808
22191SOL     OW67788   0.076   8.822   4.935  0.4065  0.8735 -0.5328
22191SOL    HW167789   0.141   8.764   4.974  0.6786 -0.2867 -2.5859
22191SOL    HW267790  -0.007   8.777   4.948  0.5420  0.2881 -1.5313
22192SOL     OW67791   7.551   8.714   4.744 -0.0843  0.2641  0.4287
22192SOL    HW167792   7.535   8.674   4.659  2.1077 -3.8623  1.6981
22192SOL    HW267793   7.466   8.709   4.789 -1.0752  1.8270 -1.1140
22193SOL     OW67794   8.491   8.593   4.086 -0.5806  0.1126 -0.0012
22193SOL    HW167795   8.442   8.611   4.166  0.0081  3.1611 -0.2133
22193SOL    HW267796   8.541   8.514   4.106 -1.3342  0.1277  2.1946
22194SOL     OW67797   7.525   8.731   4.264  0.0767  0.4269 -0.4513
22194SOL    HW167798   7.577   8.782   4.203 -0.7440  0.7421 -0.9040
22194SOL    HW267799   7.481   8.665   4.210  1.6643 -1.2619  0.2101
22195SOL     OW67800   0.224   8.587   4.365  0.3493 -0.0637  0.7377
22195SOL    HW167801   0.217   8.549   4.452 -0.6756  2.0191  1.6349
22195SOL    HW267802   0.136   8.619   4.345 -0.3381 -3.2983 -2.5256
22196SOL     OW67803   7.365   8.215   5.253  0.3253  0.7162 -0.1227
22196SOL    HW167804   7.456   8.196   5.231 -0.2393 -1.0183 -1.2042
22196SOL    HW267805   7.320   8.212   5.169 -0.9681  0.0307  0.5689
22197SOL     OW67806   7.833   8.844   4.368  0.0484  0.3571  0.3468
22197SOL    HW167807   7.922   8.853   4.400  0.3430  0.6567 -0.5517
22197SOL    HW267808   7.828   8.902   4.292 -0.1700 -1.5030 -1.1170
22198SOL     OW67809   8.814   8.512   4.827 -0.2297 -1.0550 -0.0605
22198SOL    HW167810   8.745   8.448   4.809 -0.8377 -0.2633 -0.6198
22198SOL    HW267811   8.779   8.567   4.897  0.3771 -1.4498  0.5710
22199SOL     OW67812   8.137   7.232   3.808  0.1606 -0.7899  0.0574
22199SOL    HW167813   8.111   7.141   3.822  3.2379 -1.7853  0.1174
22199SOL    HW267814   8.078   7.264   3.740 -0.4708 -3.1195 -0.5805
22200SOL     OW67815   7.548   8.475   4.931 -0.3675 -0.1815 -0.3023
22200SOL    HW167816   7.573   8.530   4.856  1.3250 -0.4860 -0.0164
22200SOL    HW267817   7.512   8.396   4.891 -0.1600 -0.0375 -0.7903
22201SOL     OW67818   7.268   7.541   5.186  0.2718 -0.4927  0.1662
22201SOL    HW167819   7.278   7.632   5.161 -0.9377  0.4477  2.7568
22201SOL    HW267820   7.230   7.498   5.109 -1.7348  1.8097 -0.2382
22202SOL     OW67821   8.340   8.412   3.685  0.3976 -0.5072 -0.0989
22202SOL    HW167822   8.297   8.378   3.763 -1.1806 -1.7924 -1.4609
22202SOL    HW267823   8.347   8.337   3.626  1.3835  0.4567 -1.2783
22203SOL     OW67824   8.322   8.085   4.415 -0.2994 -0.0023  0.1802
22203SOL    HW167825   8.259   8.046   4.475 -1.6671  0.8451 -0.6648
22203SOL    HW267826   8.295   8.177   4.408  0.9172  0.3318 -0.3519
22204SOL     OW67827   8.329   7.691   5.396 -0.2920 -0.3660 -0.4597
22204SOL    HW167828   8.397   7.692   5.463 -1.9068  0.7700  1.2628
22204SOL    HW267829   8.365   7.742   5.324  1.1577 -0.9022 -0.1414
22205SOL     OW67830   0.042   7.603   5.172  0.3402  0.0762  0.4853
22205SOL    HW167831   0.060   7.509   5.181  0.0530  0.0502  0.8442
22205SOL    HW267832   0.089   7.630   5.093 -1.1321 -0.7727 -0.7348
22206SOL     OW67833   8.509   8.445   5.142  0.1376  0.4478  0.2590
22206SOL    HW167834   8.451   8.380   5.103  0.5203 -0.0212  0.4681
22206SOL    HW267835   8.450   8.509   5.182 -0.2433  0.4492 -0.2903
22207SOL     OW67836   7.942   7.932   4.817 -0.3633  0.0851  0.6092
22207SOL    HW167837   7.932   7.848   4.861 -0.1097 -0.4518 -0.3330
22207SOL    HW267838   7.872   7.934   4.752  1.9643 -1.2025 -2.1255
22208SOL     OW67839   8.311   8.123   4.119 -0.1464 -0.2642  0.3513
22208SOL    HW167840   8.244   8.055   4.122  0.9939 -1.4623 -0.4549
22208SOL    HW267841   8.338   8.134   4.210 -0.6214 -0.5939  0.5388
22209SOL     OW67842   7.104   8.342   4.753  0.1755  0.4033  0.7827
22209SOL    HW167843   7.135   8.268   4.700 -1.7882  0.5906 -0.7232
22209SOL    HW267844   7.093   8.413   4.690  0.6077  1.5564  1.9734
22210SOL     OW67845   8.299   7.801   3.916 -0.3576  0.3320  0.0275
22210SOL    HW167846   8.306   7.893   3.893  0.4028 -0.0873 -1.5131
22210SOL    HW267847   8.386   7.777   3.948 -0.4897  0.0927  0.2139
22211SOL     OW67848   8.633   8.792   3.967 -0.4243 -0.3025 -0.1038
22211SOL    HW167849   8.592   8.719   4.013  0.5740 -0.7768  0.0588
22211SOL    HW267850   8.592   8.791   3.880 -0.0007 -1.4581 -0.3183
22212SOL     OW67851   7.738   7.760   4.582 -0.5262 -0.2264 -0.2708
22212SOL    HW167852   7.696   7.702   4.519  0.8089 -0.3205 -1.1218
22212SOL    HW267853   7.667   7.791   4.638 -1.4027 -1.9192 -0.3916
22213SOL     OW67854   7.672   8.586   3.857  0.3224  0.1005 -0.1584
22213SOL    HW167855   7.767   8.585   3.845  0.2560 -0.8602 -0.8194
22213SOL    HW267856   7.656   8.528   3.931  0.1523 -1.4994 -1.3692
22214SOL     OW67857   7.612   8.493   5.608 -0.4280  0.0420  0.7332
22214SOL    HW167858   7.528   8.491   5.564 -0.2668 -3.5991  0.2119
22214SOL    HW267859   7.590   8.501   5.701 -1.2109  0.9834  0.4755
22215SOL     OW67860   7.635   7.488   4.791 -0.1814 -0.4950  0.6132
22215SOL    HW167861   7.598   7.424   4.730  1.2947 -1.4673  0.6833
22215SOL    HW267862   7.583   7.478   4.871 -0.1699 -1.3876  0.5199
22216SOL     OW67863   7.614   8.447   4.078  0.0448  0.6601 -0.3488
22216SOL    HW167864   7.534   8.410   4.114  0.5187 -3.1490 -2.6449
22216SOL    HW267865   7.684   8.394   4.116  0.8623 -0.4338 -3.1166
22217SOL     OW67866   8.557   7.465   3.949 -0.0400 -0.0652 -0.4898
22217SOL    HW167867   8.491   7.432   3.888 -0.0355  0.8371 -1.0051
22217SOL    HW267868   8.613   7.390   3.968 -0.2119 -0.4296 -1.3771
22218SOL     OW67869   7.991   7.002   5.235  0.8922  0.3591  0.2581
22218SOL    HW167870   7.943   6.944   5.175  1.8175 -0.7781  0.5874
22218SOL    HW267871   8.019   7.076   5.181  0.0086  0.3293 -0.2518
22219SOL     OW67872   8.458   7.876   5.228  0.1330 -0.6570  0.1690
22219SOL    HW167873   8.508   7.794   5.228  0.6828 -0.3262  0.1660
22219SOL    HW267874   8.523   7.944   5.208 -0.3410 -0.2321  0.0540
22220SOL     OW67875   8.162   7.998   4.630 -0.5438 -0.2715 -0.2625
22220SOL    HW167876   8.110   7.976   4.707 -0.8255 -1.5135 -0.7918
22220SOL    HW267877   8.098   8.030   4.566 -0.2788  1.0243  0.0819
22221SOL     OW67878   7.981   7.560   4.091 -0.1771  0.1669 -0.0110
22221SOL    HW167879   7.948   7.617   4.022 -0.8688 -0.6787 -0.3914
22221SOL    HW267880   8.054   7.609   4.130 -0.5877  1.1889 -0.4986
22222SOL     OW67881   8.820   8.387   3.984 -0.6106 -0.3044 -0.4486
22222SOL    HW167882   8.770   8.390   3.903  0.8196  0.8656 -1.3499
22222SOL    HW267883   8.883   8.459   3.976  1.5446 -1.9742  0.3790
22223SOL     OW67884   8.202   7.699   4.155 -0.2489 -0.3950 -0.2305
22223SOL    HW167885   8.236   7.727   4.070  0.8377  1.2484  0.6982
22223SOL    HW267886   8.279   7.692   4.211 -1.1380  0.5682  1.1613
22224SOL     OW67887   8.712   7.711   3.796  0.1972  0.0289  0.2211
22224SOL    HW167888   8.659   7.635   3.820 -0.8712  0.5809 -0.3511
22224SOL    HW267889   8.691   7.776   3.863  1.8796 -0.4816  1.3093
22225SOL     OW67890   7.901   8.026   5.221 -0.6364 -0.2815 -0.7405
22225SOL    HW167891   7.871   7.942   5.255 -0.8928 -0.4018 -1.2493
22225SOL    HW267892   7.994   8.030   5.243 -1.1661  0.5229  1.7562
22226SOL     OW67893   8.671   8.830   4.260 -0.3072  0.0270 -0.0078
22226SOL    HW167894   8.661   8.812   4.166  0.0094 -1.3160  0.1990
22226SOL    HW267895   8.691   8.745   4.299 -1.4196  0.3767  1.4206
22227SOL     OW67896   7.784   8.601   4.494  0.5224  0.2506  0.1260
22227SOL    HW167897   7.690   8.581   4.494  0.7751 -1.0507 -0.2448
22227SOL    HW267898   7.790   8.688   4.454 -0.3890 -0.4610 -1.6896
22228SOL     OW67899   8.308   8.032   3.757  0.3538  0.0558 -0.1563
22228SOL    HW167900   8.247   8.103   3.777  0.1038 -0.4062  0.7813
22228SOL    HW267901   8.391   8.077   3.739  0.9594  0.5616  3.1530
22229SOL     OW67902   7.454   7.980   4.994 -0.0542 -0.9052 -0.0031
22229SOL    HW167903   7.390   7.953   5.059  0.8666 -0.9887  0.8945
22229SOL    HW267904   7.530   7.923   5.010  0.1764 -0.9641 -1.1858
22230SOL     OW67905   7.844   7.685   4.885 -0.7848 -0.4764 -0.7759
22230SOL    HW167906   7.912   7.625   4.856  1.3049  1.0931  0.5387
22230SOL    HW267907   7.769   7.666   4.829  1.1083 -1.4861 -3.1418
22231SOL     OW67908   8.117   7.951   4.144  0.6695  0.1528 -0.3068
22231SOL    HW167909   8.128   7.861   4.173  1.2263  0.3373  0.0628
22231SOL    HW267910   8.033   7.951   4.097  0.2211 -0.3496  0.4813
22232SOL     OW67911   8.276   7.284   4.034 -0.5524 -0.4095 -0.5431
22232SOL    HW167912   8.184   7.271   4.011 -0.4558  0.7365 -1.6394
22232SOL    HW267913   8.325   7.249   3.959 -0.1407  0.3811 -0.6508
22233SOL     OW67914   0.082   8.066   3.592 -0.0848 -0.5928  0.4004
22233SOL    HW167915   0.079   8.098   3.502  1.6548 -0.2027  0.4566
22233SOL    HW267916   0.041   8.136   3.644 -0.0033 -0.2879  0.0525
22234SOL     OW67917   7.989   7.729   4.542  0.1913  0.2357 -0.3349
22234SOL    HW167918   7.896   7.730   4.562  0.5703  1.8194  1.6117
22234SOL    HW267919   8.004   7.807   4.489  0.1579 -1.0433 -2.3720
22235SOL     OW67920   8.672   8.705   4.988 -0.1126 -0.0727  0.2412
22235SOL    HW167921   8.611   8.646   5.032  0.4572 -0.8734 -0.0346
22235SOL    HW267922   8.650   8.792   5.023 -0.7739 -0.4744  0.8503
22236SOL     OW67923   8.597   8.373   4.835 -0.2819  0.0829  0.1290
22236SOL    HW167924   8.600   8.305   4.768  0.7369 -0.1205  0.3530
22236SOL    HW267925   8.505   8.395   4.844 -0.4902 -0.3288 -0.8933
22237SOL     OW67926   8.167   7.514   5.137 -0.2229 -0.0801 -0.6146
22237SOL    HW167927   8.206   7.475   5.059  0.7200  2.2064 -1.3556
22237SOL    HW267928   8.241   7.529   5.196 -0.5710  0.5122 -0.3222
22238SOL     OW67929   8.343   8.605   5.269  0.0957  0.1039  0.1372
22238SOL    HW167930   8.270   8.655   5.306 -0.5875 -0.2590 -0.7055
22238SOL    HW267931   8.420   8.642   5.311 -0.6505 -0.3755  2.0490
22239SOL     OW67932   8.049   8.485   4.476  0.3511 -0.1624  0.2003
22239SOL    HW167933   8.063   8.570   4.518  1.9237 -1.0053  1.4892
22239SOL    HW267934   7.956   8.484   4.454  0.1761  1.6306  0.7532
22240SOL     OW67935   7.981   0.100   5.258  0.0413 -0.3118 -0.2036
22240SOL    HW167936   7.983   0.195   5.253  2.7714 -0.2827  0.1790
22240SOL    HW267937   7.995   0.072   5.167  2.8146 -0.2431  0.1280
22241SOL     OW67938   8.112   8.083   5.002 -0.1117  0.3616 -0.3336
22241SOL    HW167939   8.078   8.172   4.991 -1.8989 -0.1388  0.5929
22241SOL    HW267940   8.045   8.027   4.960  0.9558 -0.5602 -0.8596
22242SOL     OW67941   7.350   8.739   4.035 -0.2038 -0.7020  0.5740
22242SOL    HW167942   7.436   8.750   3.994  1.1039 -1.4017  2.9271
22242SOL    HW267943   7.289   8.736   3.962  1.2824  3.4001 -1.0956
22243SOL     OW67944   7.780   7.571   4.325  0.0592  0.3318 -0.0420
22243SOL    HW167945   7.751   7.651   4.281 -0.7174  0.4225  0.6123
22243SOL    HW267946   7.851   7.538   4.269 -0.7418  0.5593 -1.2376
22244SOL     OW67947   8.169   8.577   3.504 -0.0773  0.1974 -0.4177
22244SOL    HW167948   8.080   8.593   3.536  0.3147 -0.7002  1.2412
22244SOL    HW267949   8.216   8.542   3.580  1.4006 -0.3916 -1.5520
22245SOL     OW67950   7.805   7.428   5.285 -0.0714  0.1230  0.3395
22245SOL    HW167951   7.834   7.378   5.361 -0.7923  1.2293  1.3676
22245SOL    HW267952   7.877   7.489   5.268  1.1398 -1.6783 -1.3747
22246SOL     OW67953   8.550   7.291   5.760  0.0034  0.1328  0.1302
22246SOL    HW167954   8.537   7.300   5.666 -1.9072 -2.1520  0.1051
22246SOL    HW267955   8.500   7.363   5.799 -1.7662 -0.6924 -0.5349
22247SOL     OW67956   7.473   7.202   5.689  0.0877 -0.4186 -0.3729
22247SOL    HW167957   7.552   7.177   5.642  1.1804  0.4425  0.9161
22247SOL    HW267958   7.461   7.132   5.753  0.4193 -0.0507  0.1040
22248SOL     OW67959   7.516   8.250   4.778  0.8463  0.1112  0.0656
22248SOL    HW167960   7.498   8.158   4.801  0.6049  0.3899  1.0507
22248SOL    HW267961   7.492   8.257   4.686  0.0324 -0.5999  0.2115
22249SOL     OW67962   0.265   8.488   4.818 -0.8019  0.3178  0.3987
22249SOL    HW167963   0.211   8.535   4.882 -0.9760  0.4687  0.1421
22249SOL    HW267964   0.355   8.508   4.844 -0.8670  0.1899  0.7355
22250SOL     OW67965   8.434   7.518   4.237  0.2758 -0.1132  0.1421
22250SOL    HW167966   8.396   7.492   4.153  0.8708 -0.1652 -0.1135
22250SOL    HW267967   8.481   7.599   4.218  0.4197 -0.1321  0.4193
22251SOL     OW67968   7.495   7.308   4.510 -0.0577 -0.0423 -0.1654
22251SOL    HW167969   7.590   7.302   4.509  0.0001  0.7555 -0.1864
22251SOL    HW267970   7.465   7.220   4.535  0.7861  0.5102  3.3709
22252SOL     OW67971   7.518   8.601   5.170 -0.0533 -0.5795 -0.1912
22252SOL    HW167972   7.531   8.539   5.099  0.3566 -1.0529  0.2931
22252SOL    HW267973   7.607   8.631   5.192  0.1447 -2.4139  1.8741
22253SOL     OW67974   7.761   8.204   4.901 -0.1794 -0.4437  0.7243
22253SOL    HW167975   7.762   8.121   4.949 -1.0741 -0.6898  0.3502
22253SOL    HW267976   7.671   8.211   4.869 -0.3399  1.0732  1.4429
22254SOL     OW67977   7.377   7.740   4.101  0.8861  0.3087 -0.1145
22254SOL    HW167978   7.282   7.752   4.094  0.9292  0.8279  0.1769
22254SOL    HW267979   7.396   7.750   4.194  1.3645  1.2246 -0.3008
22255SOL     OW67980   8.498   7.786   4.114 -0.4798  0.3981  0.5029
22255SOL    HW167981   8.490   7.869   4.162 -1.3392  2.7112 -3.2427
22255SOL    HW267982   8.586   7.788   4.077 -0.2928 -0.7037  0.8562
22256SOL     OW67983   8.410   8.222   4.667 -0.0979  0.1669 -0.2701
22256SOL    HW167984   8.390   8.236   4.574 -0.4086 -0.0748 -0.2390
22256SOL    HW267985   8.347   8.277   4.713  0.3419  0.6325 -0.2084
22257SOL     OW67986   7.866   8.279   5.404  0.2174 -0.4625  0.0417
22257SOL    HW167987   7.875   8.372   5.385  1.0732 -0.7893 -1.3150
22257SOL    HW267988   7.951   8.241   5.381 -0.4194 -1.7254 -0.3347
22258SOL     OW67989   8.645   8.296   3.181  0.5405  0.6529  0.1260
22258SOL    HW167990   8.594   8.354   3.124  1.6473 -0.1816 -1.8033
22258SOL    HW267991   8.717   8.266   3.126 -0.5485 -3.4740  0.6218
22259SOL     OW67992   7.495   8.569   4.520 -0.4776 -0.0711 -0.0277
22259SOL    HW167993   7.471   8.477   4.510 -2.0786  0.1889  1.0716
22259SOL    HW267994   7.497   8.603   4.431  1.7866 -1.4977 -0.6310
22260SOL     OW67995   7.722   8.060   4.355  0.3690  0.3367 -0.0934
22260SOL    HW167996   7.644   8.060   4.411  1.4168 -0.1725  1.4392
22260SOL    HW267997   7.715   7.980   4.303  0.1575 -0.0030  0.4595
22261SOL     OW67998   0.070   7.797   5.355  0.5553  0.0605  0.5327
22261SOL    HW167999   0.100   7.875   5.308  0.0536  0.4250  0.7995
22261SOL    HW268000   0.060   7.730   5.288  1.0011  0.2238  0.2989
22262SOL     OW68001   8.643   7.679   5.218  0.2234  0.8965 -0.3016
22262SOL    HW168002   8.732   7.643   5.224  0.6034  1.8815  0.0955
22262SOL    HW268003   8.589   7.603   5.195  0.9162 -0.0644  1.0435
22263SOL     OW68004   7.918   8.666   3.530  0.3245 -0.2216 -0.5237
22263SOL    HW168005   7.856   8.739   3.531  2.2705  1.5277 -0.7928
22263SOL    HW268006   7.917   8.633   3.620 -0.2896  0.4152 -0.2919
22264SOL     OW68007   8.227   8.668   5.020 -0.0670  0.1790  0.1214
22264SOL    HW168008   8.237   8.637   5.110  1.2523 -0.3514 -0.1805
22264SOL    HW268009   8.278   8.749   5.016 -1.6328  1.2163  0.3058
22265SOL     OW68010   7.429   8.276   4.524  0.1564  0.3868  0.1557
22265SOL    HW168011   7.446   8.191   4.483  0.1062  0.9819 -1.1437
22265SOL    HW268012   7.341   8.300   4.493 -0.0557  0.6705  0.9553
22266SOL     OW68013   7.765   8.405   5.135 -0.1256  0.9891  0.0834
22266SOL    HW168014   7.752   8.314   5.161  1.0455  1.1335  1.2738
22266SOL    HW268015   7.703   8.418   5.063 -0.9668 -0.4656  0.4982
22267SOL     OW68016   8.082   8.268   4.231  0.7104 -0.6063  0.6055
22267SOL    HW168017   8.121   8.342   4.184 -0.8779  0.5914  1.1008
22267SOL    HW268018   8.124   8.191   4.193 -0.8658  0.2161 -3.2311
22268SOL     OW68019   7.939   7.631   5.160  0.2743  0.7312  0.1149
22268SOL    HW168020   8.032   7.609   5.156  0.3631  0.9954  0.6161
22268SOL    HW268021   7.908   7.622   5.070  0.5116 -0.5483  0.1463
22269SOL     OW68022   8.221   8.259   3.865 -0.0495  0.1530 -0.6697
22269SOL    HW168023   8.260   8.241   3.951  0.2873  0.8114 -0.6763
22269SOL    HW268024   8.136   8.300   3.886  0.0390  0.3265 -0.6492
22270SOL     OW68025   7.429   8.477   5.418 -0.2986 -0.2334 -0.3859
22270SOL    HW168026   7.396   8.392   5.389 -1.5176  0.3397 -0.7045
22270SOL    HW268027   7.475   8.512   5.342 -0.2336 -0.3791 -0.4155
22271SOL     OW68028   8.727   8.348   4.481 -0.0446  0.0619  0.1460
22271SOL    HW168029   8.760   8.325   4.394 -1.5684  1.5637 -0.8856
22271SOL    HW268030   8.806   8.353   4.535  0.8969 -1.2921 -1.0292
22272SOL     OW68031   8.656   8.030   3.725 -0.3137 -0.3630 -0.2119
22272SOL    HW168032   8.624   7.981   3.649 -0.8092  0.8358 -0.8139
22272SOL    HW268033   8.666   8.120   3.693 -2.6981  0.6905  1.6724
22273SOL     OW68034   7.312   8.740   4.866  0.1635 -0.4565  0.2835
22273SOL    HW168035   7.281   8.800   4.798 -1.3211 -1.0058  0.4248
22273SOL    HW268036   7.310   8.791   4.947  1.7819  0.1528 -0.0447
22274SOL     OW68037   8.596   8.585   4.467  0.0777  0.5646 -0.5816
22274SOL    HW168038   8.610   8.496   4.499  0.4910  0.6510 -0.5142
22274SOL    HW268039   8.684   8.617   4.447 -0.2069  0.0501 -3.0441
22275SOL     OW68040   8.352   0.131   4.672 -0.2760  0.2119  0.1387
22275SOL    HW168041   8.400   0.051   4.651 -1.1578  0.4884 -3.9167
22275SOL    HW268042   8.271   0.101   4.714  0.6727 -0.7195  1.3756
22276SOL     OW68043   7.358   7.767   4.384  0.0521 -0.5966 -0.4544
22276SOL    HW168044   7.414   7.715   4.441 -0.0670 -0.5467 -0.2920
22276SOL    HW268045   7.269   7.750   4.416 -0.0133 -0.5589 -0.6157
22277SOL     OW68046   8.112   8.718   5.338  0.1006  0.1210  0.4263
22277SOL    HW168047   8.076   8.804   5.315 -0.4264  0.0439  0.9434
22277SOL    HW268048   8.044   8.677   5.391  0.5179 -0.4594  0.5234
22278SOL     OW68049   8.588   7.943   3.457 -0.1590  0.0450 -0.5492
22278SOL    HW168050   8.651   7.872   3.465 -1.1537 -0.8288 -0.1545
22278SOL    HW268051   8.613   7.989   3.377  0.3509 -0.9176 -0.9531
22279SOL     OW68052   7.985   8.782   4.970 -0.5505  0.0597 -0.1580
22279SOL    HW168053   7.940   8.766   4.887 -1.2119  1.2592 -0.0498
22279SOL    HW268054   8.066   8.732   4.964 -1.4747 -1.4200 -0.7357
22280SOL     OW68055   8.540   0.303   4.850  0.1653 -0.6462 -0.3719
22280SOL    HW168056   8.627   0.273   4.825  0.0293 -1.4427  0.0710
22280SOL    HW268057   8.480   0.246   4.802 -0.1103 -0.4425 -0.2734
22281SOL     OW68058   7.985   7.992   4.395 -0.4515  0.1501  0.8194
22281SOL    HW168059   8.012   8.019   4.307 -2.9328  1.9688  0.5004
22281SOL    HW268060   7.896   8.026   4.404 -0.5548 -0.6320  3.7913
22282SOL     OW68061   7.202   7.869   5.132 -0.1543  0.2826  0.1169
22282SOL    HW168062   7.111   7.851   5.154 -0.3457  1.8838  0.7586
22282SOL    HW268063   7.246   7.877   5.217  0.1879  1.2863 -0.1330
22283SOL     OW68064   7.869   7.290   4.862 -0.2235 -0.5693 -0.1210
22283SOL    HW168065   7.886   7.332   4.778 -1.4734 -0.7094 -0.4702
22283SOL    HW268066   7.915   7.344   4.926  0.6489 -0.3934 -0.8659
22284SOL     OW68067   7.801   7.739   3.579 -0.6516 -0.2566  0.2343
22284SOL    HW168068   7.750   7.820   3.578  1.1962  0.9908 -1.9555
22284SOL    HW268069   7.891   7.767   3.564  0.0521 -2.7264 -0.6182
22285SOL     OW68070   8.417   8.204   4.986 -0.0911 -0.0285 -0.0328
22285SOL    HW168071   8.331   8.162   4.983  0.2834 -0.8028  0.0381
22285SOL    HW268072   8.479   8.136   4.962  0.4370  0.7739 -1.0310
22286SOL     OW68073   7.847   7.665   3.878  0.3911 -0.2947  0.6054
22286SOL    HW168074   7.910   7.684   3.808  0.7563 -1.4140  0.6223
22286SOL    HW268075   7.776   7.617   3.835  0.2030 -0.2372  0.8471
22287SOL     OW68076   8.768   8.329   3.671 -0.0332 -0.2013 -0.4055
22287SOL    HW168077   8.844   8.378   3.639 -0.6508  0.0142 -1.5823
22287SOL    HW268078   8.692   8.380   3.643 -0.6835 -1.6343 -1.3822
22288SOL     OW68079   7.659   8.170   5.249  0.3474  0.1549  0.2466
22288SOL    HW168080   7.675   8.208   5.336 -0.3126 -0.2454  0.5526
22288SOL    HW268081   7.735   8.114   5.233  1.1038  1.2338 -0.0068
22289SOL     OW68082   8.079   7.417   5.776  0.1630  0.4153  0.3375
22289SOL    HW168083   8.069   7.377   5.690 -0.0054  2.3600 -0.5728
22289SOL    HW268084   8.049   7.349   5.837 -0.4404 -0.7149 -1.1625
22290SOL     OW68085   8.785   8.462   5.151  0.0123  0.6461 -0.1874
22290SOL    HW168086   8.693   8.435   5.150  0.4391 -1.0851  1.2416
22290SOL    HW268087   8.816   8.438   5.238  2.3807 -0.9836 -1.3527
22291SOL     OW68088   8.564   7.986   4.302 -0.3197  0.4400 -0.5026
22291SOL    HW168089   8.489   8.013   4.355  0.8382 -0.6014  1.8213
22291SOL    HW268090   8.632   8.050   4.322 -0.3083  0.8918 -1.9340
22292SOL     OW68091   7.803   8.260   4.186 -0.3752  0.7008  0.0824
22292SOL    HW168092   7.893   8.261   4.219  0.6942  0.1257 -2.5956
22292SOL    HW268093   7.754   8.210   4.251  1.7847 -1.1849  0.3637
22293SOL     OW68094   8.293   8.705   3.865  0.0321  0.2851 -0.1785
22293SOL    HW168095   8.325   8.640   3.927 -0.3171  1.5678  1.4198
22293SOL    HW268096   8.369   8.723   3.809  0.1506 -1.4037 -0.6193
22294SOL     OW68097   8.354   8.494   4.816  0.0335 -0.1333 -0.0335
22294SOL    HW168098   8.311   8.510   4.900  1.3167 -0.1645  0.6438
22294SOL    HW268099   8.292   8.439   4.768 -0.0514 -1.4228  1.4827
22295SOL     OW68100   8.780   8.167   3.377  0.3614 -0.1667 -0.2031
22295SOL    HW168101   8.696   8.214   3.375 -0.5953 -1.7421  0.7075
22295SOL    HW268102   8.776   8.106   3.304  0.2044 -1.0223  0.4968
22296SOL     OW68103   7.369   0.264   5.673 -0.0659  0.4262 -0.1709
22296SOL    HW168104   7.447   0.261   5.617  1.4025  0.1461  1.7828
22296SOL    HW268105   7.330   0.350   5.656  0.1411  0.2306 -1.8028
22297SOL     OW68106   7.524   0.085   4.471 -0.1557  0.1659 -0.2760
22297SOL    HW168107   7.548   0.153   4.408  1.8048 -1.3216 -1.2523
22297SOL    HW268108   7.520   0.005   4.419  0.2101 -0.8893  1.2708
22298SOL     OW68109   8.382   0.024   5.157  0.2138  0.1882 -0.4173
22298SOL    HW168110   8.360   0.116   5.167 -0.1833 -0.0461  0.9879
22298SOL    HW268111   8.478   0.021   5.166  0.2073  0.4372 -0.2535
22299SOL     OW68112   7.698   7.825   4.168  0.0554 -0.1028 -0.0998
22299SOL    HW168113   7.615   7.823   4.121  0.5599 -0.8366 -0.9969
22299SOL    HW268114   7.758   7.872   4.109  0.0752  1.1798  0.9062
22300SOL     OW68115   7.638   7.805   5.094 -0.5579  0.5802  0.0884
22300SOL    HW168116   7.638   7.709   5.102 -0.6205  0.6535  1.1062
22300SOL    HW268117   7.723   7.825   5.055 -0.9741  0.0471 -1.1430
22301SOL     OW68118   8.523   7.834   4.836  0.0535 -0.0811  0.1253
22301SOL    HW168119   8.558   7.835   4.747 -0.2067 -0.5216  0.0167
22301SOL    HW268120   8.600   7.824   4.892  0.1379 -0.7088 -0.0977
22302SOL     OW68121   8.434   7.559   4.952 -0.0118  0.0870 -0.4102
22302SOL    HW168122   8.523   7.557   4.918  0.7577  1.4586  1.3814
22302SOL    HW268123   8.400   7.645   4.929  0.5330  1.0540  2.1469
22303SOL     OW68124   8.474   8.740   4.707 -0.2822  0.3632 -0.0209
22303SOL    HW168125   8.444   8.698   4.788 -1.0734 -0.6076 -0.7835
22303SOL    HW268126   8.487   8.667   4.646 -0.8230  1.1600 -1.1135
22304SOL     OW68127   8.764   7.508   4.463  0.3862  0.0655 -0.2857
22304SOL    HW168128   8.856   7.482   4.473 -0.0091 -1.5346 -0.5390
22304SOL    HW268129   8.723   7.434   4.420 -1.3264  0.1342  1.1192
22305SOL     OW68130   7.657   0.028   4.063 -0.3570  0.2134  0.8928
22305SOL    HW168131   7.646   0.123   4.057 -0.4160  0.1983  0.7659
22305SOL    HW268132   7.734   0.010   4.010  1.1569  0.4901  2.8737
22306SOL     OW68133   7.707   8.020   5.512  0.2194  0.2533  0.4635
22306SOL    HW168134   7.613   8.004   5.521  0.0074  0.9195 -0.4298
22306SOL    HW268135   7.733   7.970   5.434  0.6679 -0.1422  0.8567
22307SOL     OW68136   7.231   7.933   6.280  0.1722 -0.7183 -0.7664
22307SOL    HW168137   7.240   7.936   6.185  1.0633  1.5032 -0.6606
22307SOL    HW268138   7.303   7.985   6.313 -2.1412  1.6396  0.9593
22308SOL     OW68139   7.582   8.021   6.168 -0.4693 -0.0190  0.0868
22308SOL    HW168140   7.631   8.097   6.136 -0.7723 -0.0354 -0.4201
22308SOL    HW268141   7.494   8.032   6.132 -0.6238 -0.4057  0.3382
22309SOL     OW68142   7.874   8.824   6.689  0.6122 -0.4147  0.0513
22309SOL    HW168143   7.850   8.864   6.605  1.8097  0.2596  0.0075
22309SOL    HW268144   7.809   8.756   6.702 -0.9207  0.9059 -0.3544
22310SOL     OW68145   0.090   8.798   6.807  0.3532 -0.8454  0.0662
22310SOL    HW168146   0.095   8.749   6.725 -1.4153 -1.4708  0.2890
22310SOL    HW268147   0.043   8.878   6.783  1.2293 -0.2871  0.1680
22311SOL     OW68148   8.085   8.332   6.475  0.4673 -0.4554 -0.2717
22311SOL    HW168149   8.138   8.409   6.455  0.5930 -0.6992 -0.9053
22311SOL    HW268150   8.146   8.272   6.518  1.7369 -2.1261 -3.9282
22312SOL     OW68151   7.693   8.582   6.632 -1.0968  0.2867  0.6125
22312SOL    HW168152   7.599   8.586   6.648 -1.1021  1.9192  0.2785
22312SOL    HW268153   7.701   8.573   6.537 -0.9126 -0.2943  0.6784
22313SOL     OW68154   8.336   7.832   7.297 -0.4613  0.5271 -0.4948
22313SOL    HW168155   8.404   7.766   7.310 -1.9992 -0.7649  1.4895
22313SOL    HW268156   8.334   7.883   7.378 -0.1997  2.2318 -1.4904
22314SOL     OW68157   8.243   0.015   6.163 -0.1991  0.8674  0.2562
22314SOL    HW168158   8.181   0.086   6.174 -0.0421  0.8579  1.3054
22314SOL    HW268159   8.192  -0.056   6.123 -0.9771  0.7204  1.4590
22315SOL     OW68160   8.070   8.126   7.080 -0.0515 -0.7818 -0.5370
22315SOL    HW168161   8.015   8.200   7.108 -0.6373 -1.0531 -0.9432
22315SOL    HW268162   8.154   8.166   7.059 -0.3690 -0.2160 -0.7675
22316SOL     OW68163   7.679   0.087   6.468  0.2727 -0.3699  0.1534
22316SOL    HW168164   7.615   0.071   6.399 -0.6876  0.5179  0.8112
22316SOL    HW268165   7.764   0.071   6.426 -0.0633  2.7005 -2.0567
22317SOL     OW68166   8.181   7.818   6.952 -0.6899 -0.0371 -0.3234
22317SOL    HW168167   8.230   7.883   7.002  0.0044 -1.0417  0.3479
22317SOL    HW268168   8.225   7.735   6.971 -2.1775 -0.8655 -0.3231
22318SOL     OW68169   8.495   8.764   7.462 -0.1277  0.0356  0.0076
22318SOL    HW168170   8.470   8.841   7.513  0.4156  0.4196 -0.2967
22318SOL    HW268171   8.455   8.777   7.376 -0.5532 -0.3266  0.1450
22319SOL     OW68172   7.410   8.632   6.615 -1.1459  0.1340  0.3586
22319SOL    HW168173   7.315   8.629   6.624 -1.1102 -0.5631  0.5707
22319SOL    HW268174   7.429   8.565   6.548 -0.7504 -0.2107  0.8110
22320SOL     OW68175   7.843   8.718   5.958  0.1646  0.0324 -0.3791
22320SOL    HW168176   7.762   8.669   5.950 -0.2915  0.3924  1.4930
22320SOL    HW268177   7.843   8.779   5.884 -0.5634 -0.9427 -1.1940
22321SOL     OW68178   7.378   8.139   5.727  0.2611 -0.6007  0.0353
22321SOL    HW168179   7.310   8.201   5.703 -2.0911 -2.2477  1.9819
22321SOL    HW268180   7.409   8.103   5.644  0.3370  1.7161 -1.0000
22322SOL     OW68181   0.408   8.075   6.691  0.4517 -0.0829 -0.0733
22322SOL    HW168182   0.322   8.096   6.727  0.2391  1.2571 -1.2956
22322SOL    HW268183   0.470   8.106   6.758  0.0643  2.2261 -0.7023
22323SOL     OW68184   7.611   8.051   6.997  0.3298  0.4591 -0.2843
22323SOL    HW168185   7.635   8.144   7.001 -0.8851  0.7578  2.3022
22323SOL    HW268186   7.651   8.013   7.075 -1.8084 -0.4707  0.4240
22324SOL     OW68187   8.212   8.561   6.392 -0.1121 -0.3578  0.7285
22324SOL    HW168188   8.161   8.547   6.312  1.3779  1.2183 -0.5836
22324SOL    HW268189   8.198   8.653   6.413 -0.2346 -0.6801  2.1409
22325SOL     OW68190   8.652   8.547   6.871 -0.3005  0.4349 -0.1719
22325SOL    HW168191   8.670   8.488   6.797  0.0306  0.6935 -0.2978
22325SOL    HW268192   8.559   8.569   6.861 -0.7522 -0.9944  0.5460
22326SOL     OW68193   8.060   7.696   5.834  0.0006  0.0895  0.6400
22326SOL    HW168194   8.079   7.625   5.772  1.2252  1.3765 -0.5402
22326SOL    HW268195   7.966   7.711   5.826  0.4081  1.7830 -2.7896
22327SOL     OW68196   7.425   8.373   6.827 -0.3295 -0.4101  0.1904
22327SOL    HW168197   7.369   8.305   6.864 -0.2754  0.6379  2.3373
22327SOL    HW268198   7.387   8.455   6.858  1.7311  0.3725  0.7725
22328SOL     OW68199   7.978   7.449   7.178 -0.3905  0.4788 -0.3693
22328SOL    HW168200   8.031   7.434   7.256  0.1260  1.9022 -0.4096
22328SOL    HW268201   7.978   7.544   7.167 -0.7304  0.3347 -1.9128
22329SOL     OW68202   8.013   7.992   5.693 -0.3022 -0.1675  0.2960
22329SOL    HW168203   8.086   7.975   5.634  0.2671  0.2611  0.8556
22329SOL    HW268204   7.953   7.919   5.679  0.8361 -1.2287  0.7388
22330SOL     OW68205   8.660   8.026   6.143 -0.0850  0.2332 -0.5491
22330SOL    HW168206   8.721   7.958   6.172 -2.2054 -1.3047  0.5600
22330SOL    HW268207   8.674   8.099   6.203 -0.0424 -0.4879  0.3294
22331SOL     OW68208   8.141   7.681   6.540  0.1372 -0.4180 -0.4699
22331SOL    HW168209   8.082   7.605   6.540 -1.9903  1.1458 -0.3192
22331SOL    HW268210   8.084   7.756   6.557  2.5094  0.9822  2.2877
22332SOL     OW68211   0.124   7.182   7.660 -0.6928 -0.1314  0.5977
22332SOL    HW168212   0.048   7.162   7.606 -0.9628 -0.8770  1.2366
22332SOL    HW268213   0.111   7.130   7.740  0.8264 -0.8161  0.4248
22333SOL     OW68214   8.670   8.413   7.326  0.4264 -0.4028 -0.1149
22333SOL    HW168215   8.641   8.502   7.343 -0.5712 -0.5683 -0.8878
22333SOL    HW268216   8.597   8.358   7.354  0.7203 -0.9381 -0.3856
22334SOL     OW68217   8.301   7.864   6.450 -0.2095 -0.2236  0.4572
22334SOL    HW168218   8.268   7.890   6.364 -0.5292 -0.4354  0.5099
22334SOL    HW268219   8.252   7.784   6.471 -2.0261  1.1842  1.9488
22335SOL     OW68220   8.554   7.927   5.590  0.2899  0.6190 -0.4274
22335SOL    HW168221   8.572   7.836   5.566  2.4371  1.3844 -2.0783
22335SOL    HW268222   8.459   7.935   5.586  0.0951 -1.4040 -0.8297
22336SOL     OW68223   7.465   8.399   6.487  0.6360 -0.0546  0.4980
22336SOL    HW168224   7.503   8.399   6.399  1.2555  1.0133  0.7618
22336SOL    HW268225   7.515   8.333   6.535  1.3453  0.4702  0.4876
22337SOL     OW68226   8.516   7.670   5.615 -0.5266 -0.5468  0.4222
22337SOL    HW168227   8.452   7.627   5.672  0.4665 -0.3113  1.7631
22337SOL    HW268228   8.589   7.607   5.609  0.0217  0.0488  0.6747
22338SOL     OW68229   8.382   8.174   5.876  0.1896 -0.1526 -0.1693
22338SOL    HW168230   8.438   8.098   5.862 -0.5861 -0.8075  0.2038
22338SOL    HW268231   8.436   8.235   5.926  0.4644 -0.9131  0.4852
22339SOL     OW68232   7.746   7.802   6.149  0.1506  0.2423  0.0257
22339SOL    HW168233   7.703   7.888   6.150 -1.7591 -0.6353  1.4517
22339SOL    HW268234   7.700   7.753   6.081  0.1102 -0.1638  0.3441
22340SOL     OW68235   7.917   8.249   7.335  0.4828 -0.0542 -0.5773
22340SOL    HW168236   7.994   8.201   7.365  1.7055  1.9784 -0.2429
22340SOL    HW268237   7.868   8.269   7.414 -0.3452 -1.2129 -0.7749
22341SOL     OW68238   7.848   7.753   7.011  0.2919  0.1412  0.6509
22341SOL    HW168239   7.860   7.675   6.956  0.2855  0.2762  0.4579
22341SOL    HW268240   7.891   7.823   6.963  0.1751  0.2872  0.7584
22342SOL     OW68241   7.933   8.337   5.787  0.4644  0.2593 -0.3871
22342SOL    HW168242   7.935   8.327   5.882 -0.8884  3.0564  0.0406
22342SOL    HW268243   8.016   8.379   5.765 -0.2447  1.9605 -0.0084
22343SOL     OW68244   7.802   7.239   5.855  0.8096 -0.2955 -1.1693
22343SOL    HW168245   7.889   7.216   5.887  0.0449 -0.0769  1.2735
22343SOL    HW268246   7.791   7.187   5.776  2.2482 -2.1824 -0.2085
22344SOL     OW68247   7.994   7.964   6.840  0.0439  0.2079  0.2185
22344SOL    HW168248   7.994   8.037   6.902 -0.1478 -0.0688  0.5487
22344SOL    HW268249   8.065   7.907   6.870 -0.5976 -0.3522  0.6972
22345SOL     OW68250   8.783   7.872   6.995  0.1762 -0.1365  0.2581
22345SOL    HW168251   8.715   7.917   6.946 -0.7096 -1.3192  0.3575
22345SOL    HW268252   8.741   7.846   7.077  0.0568 -2.6937 -0.5166
22346SOL     OW68253   8.238   7.929   5.544 -0.2170 -0.2445 -0.1348
22346SOL    HW168254   8.261   7.837   5.552 -3.3368 -1.0405  0.8525
22346SOL    HW268255   8.225   7.943   5.450  0.4693 -0.7202 -0.3105
22347SOL     OW68256   7.827   7.815   5.698  0.2524  0.6855 -0.3026
22347SOL    HW168257   7.759   7.780   5.756  1.5912 -0.3249  0.7461
22347SOL    HW268258   7.780   7.844   5.620 -1.2650 -0.9605 -0.0668
22348SOL     OW68259   8.827   8.583   5.578 -0.4513 -0.7215 -0.5345
22348SOL    HW168260   8.897   8.541   5.628 -1.4637 -1.6264  0.1929
22348SOL    HW268261   8.865   8.665   5.548  0.7459 -0.9361  0.2918
22349SOL     OW68262   7.599   7.444   5.765 -0.3579 -0.5261 -0.0190
22349SOL    HW168263   7.670   7.381   5.754 -0.1404 -0.4937  1.1289
22349SOL    HW268264   7.519   7.393   5.750 -0.1242 -0.7205 -0.6177
22350SOL     OW68265   8.078   7.279   5.521 -0.2358  0.0714  0.1254
22350SOL    HW168266   8.162   7.232   5.515  0.6090  0.8630  3.5333
22350SOL    HW268267   8.013   7.216   5.492  1.2853 -1.5693  0.1077
22351SOL     OW68268   8.354   8.208   6.904  0.2901  0.0026  0.6313
22351SOL    HW168269   8.389   8.259   6.831  0.8520 -0.2054  0.7468
22351SOL    HW268270   8.329   8.124   6.865  1.7394 -0.5800  0.8639
22352SOL     OW68271   8.553   8.829   6.485  0.3440 -0.6749  0.2210
22352SOL    HW168272   8.632   8.782   6.512  0.2413  0.1315  2.0372
22352SOL    HW268273   8.526   8.877   6.563  0.0570  1.8692 -1.3463
22353SOL     OW68274   7.567   8.445   6.242 -0.3373  0.1773  0.4591
22353SOL    HW168275   7.513   8.472   6.168 -0.2951 -1.1566 -0.0819
22353SOL    HW268276   7.609   8.526   6.272  1.4561  0.4562 -2.4296
22354SOL     OW68277   8.801   7.747   5.598  0.2878  0.1662  0.8282
22354SOL    HW168278   8.779   7.655   5.579  0.6053  0.3144 -0.3995
22354SOL    HW268279   8.846   7.777   5.518  2.0211  0.8011  1.9728
22355SOL     OW68280   7.366   8.103   6.887 -0.2336 -0.0449 -0.3009
22355SOL    HW168281   7.447   8.058   6.911 -0.4531 -0.1070  0.3507
22355SOL    HW268282   7.305   8.033   6.866 -0.3360 -0.0285 -0.0652
22356SOL     OW68283   7.717   7.604   6.591 -0.5608 -0.1331 -0.6256
22356SOL    HW168284   7.696   7.697   6.585 -2.5808 -0.4887  0.0398
22356SOL    HW268285   7.632   7.561   6.599  0.4161 -1.8524  1.5619
22357SOL     OW68286   8.090   8.325   6.055  0.6187 -0.3159 -0.0386
22357SOL    HW168287   8.042   8.290   6.130 -1.7681 -0.8680 -1.6904
22357SOL    HW268288   8.099   8.251   5.995 -2.5721  1.1053 -2.6530
22358SOL     OW68289   8.308   7.747   5.944 -0.3176 -0.4655 -0.5475
22358SOL    HW168290   8.219   7.755   5.912 -0.3942  1.1328 -0.0146
22358SOL    HW268291   8.299   7.744   6.039  0.2582  1.5411 -0.3839
22359SOL     OW68292   0.282   7.731   5.504  0.1599  0.3334  0.1896
22359SOL    HW168293   0.205   7.727   5.447  0.3185 -1.0782  0.0467
22359SOL    HW268294   0.251   7.772   5.584 -0.9980 -1.0718  0.4967
22360SOL     OW68295   7.463   7.324   6.321  0.0410  0.2763  1.0398
22360SOL    HW168296   7.464   7.400   6.263  1.0107  1.8667  3.0106
22360SOL    HW268297   7.471   7.249   6.263 -1.3931  1.6168 -1.0226
22361SOL     OW68298   8.490   0.094   7.713 -0.1796  0.2858 -0.4856
22361SOL    HW168299   8.523   0.124   7.797  0.6209  2.1723 -1.4214
22361SOL    HW268300   8.395   0.096   7.722 -0.1035  0.6958  0.2849
22362SOL     OW68301   8.577   8.743   7.096 -0.4715  0.2288 -0.6722
22362SOL    HW168302   8.573   8.680   7.025 -1.1962  1.3653 -1.6763
22362SOL    HW268303   8.670   8.752   7.115 -0.3770 -1.2978 -0.3473
22363SOL     OW68304   8.530   7.476   6.922  0.6880  0.3633  0.1122
22363SOL    HW168305   8.522   7.517   6.836  0.3423  2.0708  0.9183
22363SOL    HW268306   8.575   7.393   6.905 -0.3424  0.1574 -1.8434
22364SOL     OW68307   8.178   8.538   7.426 -0.0931  0.2030 -0.6448
22364SOL    HW168308   8.214   8.526   7.514 -2.2823  2.0369  0.5794
22364SOL    HW268309   8.255   8.557   7.372  1.1715  0.2971  1.0987
22365SOL     OW68310   8.082   8.656   6.044  0.1860  0.1836 -1.0080
22365SOL    HW168311   8.090   8.571   6.001 -0.7517 -0.3715 -0.1369
22365SOL    HW268312   7.992   8.682   6.028 -0.2340 -0.0967  0.6572
22366SOL     OW68313   7.923   8.510   6.780  0.0750 -0.2227  0.2231
22366SOL    HW168314   7.911   8.523   6.874 -1.3218  0.4714 -0.0259
22366SOL    HW268315   7.839   8.534   6.742  0.9903  0.6599 -1.3181
22367SOL     OW68316   0.060   7.676   6.873 -0.0025 -0.4768  0.5915
22367SOL    HW168317   0.152   7.692   6.891  0.1360  0.0102 -0.5207
22367SOL    HW268318   0.014   7.738   6.931  0.3612 -0.5516  0.9678
22368SOL     OW68319   7.922   8.823   6.360  0.2932  0.1847  0.3901
22368SOL    HW168320   7.939   8.855   6.271  1.0239  2.2496  1.2053
22368SOL    HW268321   8.009   8.804   6.394  0.0319 -0.3905  0.7341
22369SOL     OW68322   7.673   7.877   6.578 -0.6196  0.1166 -0.0670
22369SOL    HW168323   7.651   7.875   6.671  0.7899 -0.6396  0.2754
22369SOL    HW268324   7.590   7.898   6.534 -1.4406 -0.1410  1.3028
22370SOL     OW68325   8.523   8.804   6.106  0.1622  0.1736  0.3087
22370SOL    HW168326   8.438   8.844   6.127  0.0336  0.2997 -0.4102
22370SOL    HW268327   8.588   8.867   6.137 -0.0032  0.0885  0.8387
22371SOL     OW68328   7.682   8.303   6.936 -0.3883  0.4267 -0.0140
22371SOL    HW168329   7.605   8.329   6.885 -1.2021  0.9968  1.4567
22371SOL    HW268330   7.751   8.290   6.870 -1.5108  0.6838 -1.2884
22372SOL     OW68331   8.847   7.691   7.447 -0.3632  0.0442  0.0036
22372SOL    HW168332   8.942   7.689   7.464 -0.5612 -0.2482  1.1139
22372SOL    HW268333   8.834   7.627   7.378  0.1582 -0.4533  0.3561
22373SOL     OW68334   8.112   7.482   6.847 -0.5404 -0.1743  0.0570
22373SOL    HW168335   8.152   7.507   6.930 -0.8603 -2.4690  0.9640
22373SOL    HW268336   8.029   7.529   6.846 -0.2534  0.3716  0.7293
22374SOL     OW68337   7.653   8.665   6.374  0.3711 -0.3924 -0.2620
22374SOL    HW168338   7.578   8.723   6.383 -0.0405 -0.6520 -1.6856
22374SOL    HW268339   7.729   8.722   6.380 -0.0115  0.2102 -0.9685
22375SOL     OW68340   8.726   8.204   6.526  0.3278  0.2594 -0.2104
22375SOL    HW168341   8.691   8.122   6.494  0.3581  0.1733 -0.0250
22375SOL    HW268342   8.802   8.179   6.578  0.7586  0.4524 -0.7340
22376SOL     OW68343   7.426   7.518   6.705 -0.7311 -0.4444  0.5744
22376SOL    HW168344   7.401   7.588   6.644 -0.7038 -0.5749  0.4135
22376SOL    HW268345   7.431   7.562   6.790  0.4807  0.0054  0.2825
22377SOL     OW68346   7.489   8.771   6.872  0.0977  0.6954 -0.1984
22377SOL    HW168347   7.421   8.705   6.887 -1.7157  2.8369  1.7159
22377SOL    HW268348   7.499   8.775   6.777 -2.3611  0.1671 -0.5385
22378SOL     OW68349   8.176   7.975   6.193 -0.2112  0.0735  0.1076
22378SOL    HW168350   8.088   7.955   6.225 -1.1104  2.0790 -0.9121
22378SOL    HW268351   8.164   7.996   6.100  1.2937  0.6189  0.0111
22379SOL     OW68352   7.377   7.715   6.510  0.1850 -0.0287 -0.5436
22379SOL    HW168353   7.309   7.782   6.512  0.7917  0.5886  1.4650
22379SOL    HW268354   7.439   7.744   6.444  0.8061  1.8018  0.7864
22380SOL     OW68355   8.828   7.825   5.940 -0.5577 -0.2398  0.0105
22380SOL    HW168356   8.844   7.731   5.948  0.6256  0.0888  2.3646
22380SOL    HW268357   8.806   7.853   6.028 -0.1236  1.8457 -0.4949
22381SOL     OW68358   8.136   8.070   5.928 -0.3406 -0.0703  0.2989
22381SOL    HW168359   8.225   8.099   5.911  0.0529 -0.3789  1.7038
22381SOL    HW268360   8.116   8.010   5.856  1.0650 -0.9689  0.6219
22382SOL     OW68361   8.105   8.075   7.367 -0.2114 -0.5412  0.2123
22382SOL    HW168362   8.193   8.070   7.405 -0.7886 -1.0574  1.5148
22382SOL    HW268363   8.119   8.057   7.274  1.1719  0.2784  0.2303
22383SOL     OW68364   8.564   8.144   5.241 -0.2389  0.2844  0.2711
22383SOL    HW168365   8.517   8.220   5.274  0.3880  0.8017 -0.0239
22383SOL    HW268366   8.622   8.178   5.173  0.6984 -0.3030  0.7387
22384SOL     OW68367   7.472   7.988   6.414 -0.0631 -0.4727 -0.6365
22384SOL    HW168368   7.491   8.066   6.466  2.4405 -1.5084  0.1495
22384SOL    HW268369   7.507   8.008   6.327 -2.9736  0.6992 -1.6872
22385SOL     OW68370   7.948   8.266   6.272 -0.0636  0.0987 -0.4268
22385SOL    HW168371   7.977   8.302   6.356 -0.4737  1.6967 -0.9404
22385SOL    HW268372   7.932   8.173   6.290  0.5703  0.2485  1.0664
22386SOL     OW68373   0.186   7.396   7.303 -0.0199  0.2946  0.1131
22386SOL    HW168374   0.206   7.486   7.278  1.2411 -0.4705 -1.8467
22386SOL    HW268375   0.251   7.374   7.369  0.9377  0.2171 -0.8311
22387SOL     OW68376   0.138   7.622   7.170  0.0693  0.2404  0.2021
22387SOL    HW168377   0.060   7.583   7.130 -0.7381  1.4761  0.5144
22387SOL    HW268378   0.150   7.704   7.122  1.2390  0.0183  0.1014
22388SOL     OW68379   7.406   8.832   5.682  0.4321  0.5376 -0.1544
22388SOL    HW168380   7.402   8.928   5.677 -0.5777  0.4999 -0.3287
22388SOL    HW268381   7.366   8.811   5.766  1.0725  0.2848  0.0929
22389SOL     OW68382   8.569   7.838   6.681  0.2174 -0.2502  0.2875
22389SOL    HW168383   8.610   7.863   6.598 -0.1558 -1.3463 -0.2391
22389SOL    HW268384   8.498   7.901   6.693  0.7113  0.3458  0.1440
22390SOL     OW68385   7.602   8.183   6.577  0.1940 -0.4856  0.3243
22390SOL    HW168386   7.697   8.194   6.570  0.1389  0.3139  0.7207
22390SOL    HW268387   7.585   8.178   6.671 -0.0603 -1.6273  0.2294
22391SOL     OW68388   7.752   7.791   7.510  0.5191 -0.3617 -0.8765
22391SOL    HW168389   7.816   7.858   7.534 -0.4993  0.3105  0.0545
22391SOL    HW268390   7.695   7.785   7.587  0.2261 -1.8643 -1.1890
22392SOL     OW68391   8.140   8.202   5.414  0.2380 -0.2283 -0.3246
22392SOL    HW168392   8.165   8.171   5.501 -0.3897 -2.1354 -0.7838
22392SOL    HW268393   8.201   8.158   5.354 -1.2307 -1.3280 -1.0681
22393SOL     OW68394   7.945   7.886   6.582  0.3289  0.1103 -0.1407
22393SOL    HW168395   7.850   7.895   6.579  0.0717 -1.7803  0.8092
22393SOL    HW268396   7.969   7.913   6.671  0.6025  0.0765 -0.2021
22394SOL     OW68397   8.097   7.589   5.492  0.2041 -0.4737  0.3597
22394SOL    HW168398   8.135   7.506   5.518  2.2598  0.4210  0.3770
22394SOL    HW268399   8.169   7.638   5.453 -0.9508  1.3031  0.3108
22395SOL     OW68400   7.399   8.484   7.219  0.2414  0.3523  0.7200
22395SOL    HW168401   7.493   8.469   7.227  0.1724 -0.0339  0.8432
22395SOL    HW268402   7.366   8.405   7.177 -0.0240  0.5017  0.6478
22396SOL     OW68403   8.531   8.293   6.676 -0.5027  0.3096 -0.2475
22396SOL    HW168404   8.473   8.323   6.606 -0.3523  1.9397  0.3078
22396SOL    HW268405   8.612   8.270   6.631  0.2368  3.0699 -0.4885
22397SOL     OW68406   8.816   8.123   5.722  0.3742  0.1500 -0.0151
22397SOL    HW168407   8.867   8.186   5.773  0.7216  0.1504 -0.3665
22397SOL    HW268408   8.757   8.177   5.670 -1.8309  0.1271  2.2532
22398SOL     OW68409   7.083   8.444   6.602 -0.1699 -0.0289 -0.0922
22398SOL    HW168410   7.117   8.406   6.683  0.7977  1.1831  0.1124
22398SOL    HW268411   7.063   8.369   6.546  1.0986 -0.8491  0.5077
22399SOL     OW68412   8.461   8.396   6.409  0.5291 -0.4816 -0.0465
22399SOL    HW168413   8.388   8.458   6.405  0.2340 -0.8963 -1.3446
22399SOL    HW268414   8.438   8.326   6.348  1.9966 -0.6208 -0.4943
22400SOL     OW68415   8.275   8.447   7.034 -0.7348 -0.1696  0.2776
22400SOL    HW168416   8.301   8.360   7.006 -2.7139 -0.8753  0.4951
22400SOL    HW268417   8.192   8.434   7.080  0.1466  1.4872  2.5853
22401SOL     OW68418   7.404   7.851   5.776  0.4119 -0.1515  0.1607
22401SOL    HW168419   7.343   7.840   5.849 -1.0277  0.9664 -0.8313
22401SOL    HW268420   7.396   7.943   5.751  1.6615 -0.2601 -0.7331
22402SOL     OW68421   8.190   8.572   6.687 -0.3273  0.1882 -0.9634
22402SOL    HW168422   8.112   8.561   6.742  0.0054  0.7733 -0.3654
22402SOL    HW268423   8.163   8.540   6.601 -0.9521 -0.4467 -0.5428
22403SOL     OW68424   8.200   8.380   5.729  0.2041  0.1523 -0.2502
22403SOL    HW168425   8.226   8.294   5.763  1.6184  0.9699  0.8929
22403SOL    HW268426   8.278   8.434   5.742 -0.6016  1.5696 -1.1105
22404SOL     OW68427   7.844   8.564   7.032 -0.3367 -0.2046  0.2625
22404SOL    HW168428   7.798   8.647   7.046 -0.5037 -0.3769  0.7472
22404SOL    HW268429   7.786   8.498   7.067 -0.3479 -0.5686 -0.4161
22405SOL     OW68430   8.298   8.216   6.269 -0.9027 -0.1129  0.4116
22405SOL    HW168431   8.287   8.123   6.249  1.2452 -0.2349 -0.5899
22405SOL    HW268432   8.211   8.253   6.260 -1.9086 -2.1030  1.3422
22406SOL     OW68433   7.933   8.005   6.341 -0.2207  1.0454  0.0390
22406SOL    HW168434   7.873   7.945   6.297  0.9270  0.7703 -1.2354
22406SOL    HW268435   7.944   7.968   6.428 -0.0040 -0.2794 -0.5204
22407SOL     OW68436   7.781   8.404   7.552 -0.1736  0.1337 -0.0949
22407SOL    HW168437   7.700   8.352   7.553 -0.5322  0.6393 -1.3506
22407SOL    HW268438   7.771   8.465   7.625 -0.3773 -0.6038  0.5086
22408SOL     OW68439   7.841   7.553   6.828  0.6482 -0.6849 -0.0657
22408SOL    HW168440   7.812   7.464   6.848  0.1957 -0.2445  1.3268
22408SOL    HW268441   7.817   7.565   6.736  0.7585 -2.0096 -0.2916
22409SOL     OW68442   7.404   8.050   5.471  0.2570  0.7828 -0.3415
22409SOL    HW168443   7.373   8.100   5.395 -1.3602 -0.1958 -0.3790
22409SOL    HW268444   7.393   7.958   5.445 -1.2925  0.4129  1.3860
22410SOL     OW68445   8.634   8.102   6.914  0.4580  0.1647 -0.0192
22410SOL    HW168446   8.671   8.170   6.971  1.1528 -0.8787  0.7953
22410SOL    HW268447   8.585   8.151   6.848  1.8514  1.5165 -0.1058
22411SOL     OW68448   7.865   7.772   5.391  0.0329  0.3660  0.3560
22411SOL    HW168449   7.907   7.716   5.456  0.3625 -0.3927 -0.4799
22411SOL    HW268450   7.875   7.724   5.308 -1.4573  0.7123 -0.0625
22412SOL     OW68451   8.592   8.346   5.691 -0.4675 -1.0089 -0.3899
22412SOL    HW168452   8.574   8.359   5.598 -0.4499  0.6726 -0.1999
22412SOL    HW268453   8.617   8.433   5.722 -0.5001 -1.5386  1.1962
22413SOL     OW68454   8.318   7.960   6.747  0.2874 -0.1968 -0.4600
22413SOL    HW168455   8.307   7.902   6.672  0.4388  0.9464 -1.4056
22413SOL    HW268456   8.276   7.915   6.819 -1.5269 -0.5141 -1.6526
22414SOL     OW68457   7.708   7.917   7.209  0.3771  0.0408 -0.1433
22414SOL    HW168458   7.748   7.867   7.137  1.0421  0.0278  0.2222
22414SOL    HW268459   7.767   7.903   7.283 -1.7923 -2.3550  1.2721
22415SOL     OW68460   0.285   8.512   7.400 -0.1321  0.4063  0.1084
22415SOL    HW168461   0.260   8.465   7.320  0.8951  0.8662 -0.5022
22415SOL    HW268462   0.264   8.451   7.470  0.4852 -0.6970 -0.6251
22416SOL     OW68463   8.373   7.509   5.801 -0.4597  0.5992 -0.2093
22416SOL    HW168464   8.390   7.587   5.855 -1.5713  0.6420  0.1127
22416SOL    HW268465   8.280   7.492   5.814  0.3995 -3.0428  2.7690
22417SOL     OW68466   7.838   8.249   6.690 -0.3702 -0.3376 -0.0323
22417SOL    HW168467   7.879   8.327   6.652  0.8875 -0.8345  0.2408
22417SOL    HW268468   7.911   8.188   6.704 -1.1365 -1.0657  0.9798
22418SOL     OW68469   8.600   8.690   5.383 -0.1691 -0.0874 -0.1921
22418SOL    HW168470   8.685   8.654   5.409 -0.8753 -1.4207  0.3966
22418SOL    HW268471   8.621   8.758   5.319  1.4130  0.5823  0.9674
22419SOL     OW68472   8.267   8.160   6.570  0.5803 -0.0948  0.1590
22419SOL    HW168473   8.315   8.158   6.487 -0.7616 -0.5744 -0.6255
22419SOL    HW268474   8.292   8.078   6.614  0.4151 -0.3836 -0.2804
22420SOL     OW68475   8.717   8.109   5.453  0.0064 -0.3828 -0.7979
22420SOL    HW168476   8.658   8.055   5.505 -1.0559  1.0032 -0.5078
22420SOL    HW268477   8.677   8.113   5.366 -0.2472  0.3992 -0.6569
22421SOL     OW68478   7.902   8.595   7.408 -0.1035  0.0523 -0.1980
22421SOL    HW168479   7.853   8.534   7.462  1.2351 -2.7392 -1.9119
22421SOL    HW268480   7.993   8.568   7.418  1.0575  3.8637  1.4007
22422SOL     OW68481   7.400   0.090   6.600  0.2047  0.2872 -0.3840
22422SOL    HW168482   7.378   0.098   6.507 -0.0236  0.9329 -0.2858
22422SOL    HW268483   7.476   0.032   6.603 -1.9808 -2.8116 -0.6719
22423SOL     OW68484   8.022   8.391   7.127 -0.1956  0.2822  0.6499
22423SOL    HW168485   7.984   8.379   7.214  0.9001  1.9392  1.3874
22423SOL    HW268486   7.966   8.456   7.085  0.7025  1.3707  1.0780
22424SOL     OW68487   7.626   7.696   5.833 -0.0719  0.2019 -0.0849
22424SOL    HW168488   7.626   7.601   5.818  1.7756  0.1244  0.2318
22424SOL    HW268489   7.542   7.725   5.797 -0.5104 -1.4923 -0.5478
22425SOL     OW68490   7.621   7.831   6.819 -0.4045 -0.1488  0.4357
22425SOL    HW168491   7.615   7.754   6.875  1.2538 -0.9391 -0.4200
22425SOL    HW268492   7.604   7.905   6.878  0.6948 -0.9835  1.8491
22426SOL     OW68493   8.581   8.012   6.414  0.0602 -0.1050  0.4410
22426SOL    HW168494   8.573   8.030   6.320  2.0100 -0.7191  0.1244
22426SOL    HW268495   8.554   7.921   6.423  1.2306 -0.4779  0.2441
22427SOL     OW68496   8.246   7.697   6.231 -0.1961 -0.0261  0.4134
22427SOL    HW168497   8.162   7.670   6.267 -0.7202 -0.2356 -0.9258
22427SOL    HW268498   8.306   7.625   6.251 -0.9722 -1.0869 -0.8912
22428SOL     OW68499   8.474   8.405   6.020 -0.6468 -0.0611 -0.1265
22428SOL    HW168500   8.395   8.436   5.977 -0.7676 -0.1639  0.0217
22428SOL    HW268501   8.448   8.389   6.111  0.1132  2.1864  0.5557
22429SOL     OW68502   8.788   7.472   5.534 -0.0937  0.3203  0.3408
22429SOL    HW168503   8.799   7.412   5.460  0.5094 -0.7878  1.2964
22429SOL    HW268504   8.858   7.448   5.595 -1.4415  0.2108  1.9109
22430SOL     OW68505   7.696   8.255   6.103  0.4821  0.1259 -0.1369
22430SOL    HW168506   7.666   8.331   6.151 -0.1004 -0.4968  0.4932
22430SOL    HW268507   7.788   8.245   6.129  0.5209  0.5172 -0.1152
22431SOL     OW68508   7.616   7.574   7.358  0.4480  0.1215  0.4328
22431SOL    HW168509   7.531   7.599   7.321  0.7082 -1.8168 -1.7775
22431SOL    HW268510   7.651   7.654   7.396 -1.5281  1.4217 -0.3296
22432SOL     OW68511   7.559   7.776   8.541 -0.0744  0.4918 -0.3352
22432SOL    HW168512   7.634   7.739   8.588 -0.3665  1.7183  1.1999
22432SOL    HW268513   7.527   7.704   8.486  1.9222 -0.1933 -0.6827
22433SOL     OW68514   7.135   7.608   7.998 -0.3296 -0.3842  0.5396
22433SOL    HW168515   7.092   7.564   8.071  0.8787 -2.4191  0.1148
22433SOL    HW268516   7.228   7.604   8.018 -0.1201  1.4043  0.1089
22434SOL     OW68517   7.889   0.112   8.817 -0.1921  0.3941  0.0900
22434SOL    HW168518   7.868   0.111   8.910  0.5654 -0.4739  0.2704
22434SOL    HW268519   7.952   0.041   8.806 -1.7404 -0.8269 -1.4430
22435SOL     OW68520   8.559   8.711   8.039 -0.5679 -0.6989 -0.3397
22435SOL    HW168521   8.637   8.700   8.094 -0.9690 -1.3147  0.1192
22435SOL    HW268522   8.542   8.805   8.041  0.0095 -0.5911 -0.2339
22436SOL     OW68523   8.711   8.447   8.594  0.1468 -0.0826 -0.4381
22436SOL    HW168524   8.619   8.444   8.567  0.1583 -1.5419 -0.3777
22436SOL    HW268525   8.708   8.438   8.689  0.4140 -2.0767 -0.5888
22437SOL     OW68526   7.963   8.413   8.417  0.1965 -0.1054  0.5359
22437SOL    HW168527   7.962   8.497   8.372  1.5327 -0.8051 -0.9068
22437SOL    HW268528   8.056   8.395   8.433  0.2558 -2.5375 -1.7343
22438SOL     OW68529   8.339   8.016   7.527  0.1373 -0.0858 -0.3089
22438SOL    HW168530   8.359   7.937   7.577  0.5505  0.0013 -0.3384
22438SOL    HW268531   8.311   8.079   7.594 -0.3011 -0.2893 -0.2976
22439SOL     OW68532   7.555   8.595   8.802 -0.1946  0.0938  0.2214
22439SOL    HW168533   7.552   8.501   8.787  0.4849  0.0842  0.1131
22439SOL    HW268534   7.573   8.604   8.896  2.4630  0.0566 -0.2001
22440SOL     OW68535   7.594   7.546   8.788  0.1736  0.1129  0.0208
22440SOL    HW168536   7.651   7.502   8.726  0.9400 -1.2124  1.5851
22440SOL    HW268537   7.642   7.625   8.813 -0.9078  1.5911 -2.2859
22441SOL     OW68538   8.064   8.118   8.301  0.1082 -0.8784 -0.1221
22441SOL    HW168539   8.065   8.177   8.226 -0.2398 -0.3517  0.2765
22441SOL    HW268540   8.119   8.162   8.366 -1.4672 -0.1429  0.7888
22442SOL     OW68541   8.550   8.203   7.496  0.5122  0.8418  0.3575
22442SOL    HW168542   8.461   8.210   7.529 -0.0534 -1.4798 -0.4813
22442SOL    HW268543   8.590   8.132   7.546  2.1211  2.1474  1.0598
22443SOL     OW68544   8.648   7.466   8.613 -0.5477 -0.1755 -0.2935
22443SOL    HW168545   8.730   7.514   8.601 -0.5914  0.0716  0.3605
22443SOL    HW268546   8.653   7.432   8.702 -0.2183 -1.9888 -0.9595
22444SOL     OW68547   7.549   8.089   7.947  0.1671  0.0990 -0.1546
22444SOL    HW168548   7.503   8.149   8.006 -2.2130 -1.5096 -0.2181
22444SOL    HW268549   7.528   8.121   7.859  0.8743  0.5157 -0.1790
22445SOL     OW68550   0.317   8.327   8.098 -0.1039 -0.5169 -0.2499
22445SOL    HW168551   0.399   8.375   8.112  0.0984 -0.6683 -0.9234
22445SOL    HW268552   0.333   8.273   8.022 -0.3742 -1.5854  0.4328
22446SOL     OW68553   8.390   8.506   8.110 -1.0981 -0.0043 -0.2535
22446SOL    HW168554   8.302   8.530   8.139 -0.0360  1.3249  2.1733
22446SOL    HW268555   8.432   8.589   8.087  0.0681 -0.4034  0.3320
22447SOL     OW68556   8.607   7.529   7.793  0.6694 -0.4659  0.6882
22447SOL    HW168557   8.523   7.487   7.775 -0.2081  1.0149  1.1314
22447SOL    HW268558   8.672   7.462   7.773 -0.6269 -1.8011  0.7497
22448SOL     OW68559   7.068   8.577   8.652  0.0643  0.7366  0.1329
22448SOL    HW168560   7.130   8.528   8.706  0.0272 -0.8827 -1.2022
22448SOL    HW268561   7.012   8.623   8.715  0.7569 -0.1458  1.4321
22449SOL     OW68562   7.944   7.949   7.557 -0.6354 -0.1833  0.0631
22449SOL    HW168563   7.987   8.002   7.490  0.9238 -1.2424  0.1604
22449SOL    HW268564   7.999   7.960   7.635 -1.3821 -0.4152  0.6335
22450SOL     OW68565   0.212   8.012   0.019  0.3012  0.3015  0.7625
22450SOL    HW168566   0.273   7.948   0.056  0.2031  0.4002  1.0943
22450SOL    HW268567   0.128   7.967   0.018  0.3889  0.1390  0.2334
22451SOL     OW68568   7.729   8.392   0.230 -0.2742 -0.7430  0.1367
22451SOL    HW168569   7.678   8.352   0.301 -1.2944 -0.6751 -0.5427
22451SOL    HW268570   7.795   8.327   0.208 -0.3017 -0.9920  0.7609
22452SOL     OW68571   7.764   7.768   8.732  0.6205  0.8132  0.4511
22452SOL    HW168572   7.854   7.738   8.744  0.1922 -0.2022  1.2419
22452SOL    HW268573   7.770   7.864   8.737  1.7295  0.7800 -0.0962
22453SOL     OW68574   8.459   8.313   8.303  0.3989  0.0858 -0.9238
22453SOL    HW168575   8.483   8.365   8.380  1.8248 -1.9788  0.1176
22453SOL    HW268576   8.429   8.377   8.239  1.3034  2.0985  0.5633
22454SOL     OW68577   7.399   7.606   8.065 -0.0914 -0.0466 -0.3682
22454SOL    HW168578   7.426   7.641   8.149 -2.8208 -0.6997  0.8826
22454SOL    HW268579   7.384   7.513   8.080 -1.4215 -0.0237 -1.3347
22455SOL     OW68580   8.350   7.980   7.071 -0.0713  0.0800 -0.4152
22455SOL    HW168581   8.372   7.943   7.157  0.7111  0.2685 -0.5278
22455SOL    HW268582   8.416   8.047   7.056 -0.1021 -0.0632 -1.2446
22456SOL     OW68583   8.691   8.133   8.072  0.2631  0.5249 -0.4749
22456SOL    HW168584   8.651   8.172   7.994  1.3923  1.1187 -0.7942
22456SOL    HW268585   8.708   8.208   8.130 -0.2165  0.1356  0.1848
22457SOL     OW68586   8.067   7.877   8.154  0.1122 -0.5956 -0.3597
22457SOL    HW168587   8.066   7.955   8.209 -1.5682 -0.7689 -0.0703
22457SOL    HW268588   8.152   7.837   8.169  1.2326  1.4446 -0.9259
22458SOL     OW68589   7.848   7.558   7.783 -0.3374 -0.1169 -0.2616
22458SOL    HW168590   7.860   7.633   7.842  0.1705  0.1497 -0.6998
22458SOL    HW268591   7.907   7.491   7.816 -2.1291 -1.0318  1.2635
22459SOL     OW68592   8.057   7.961   7.810 -0.0762 -0.1603  0.4762
22459SOL    HW168593   7.998   7.910   7.866 -0.7635 -0.9699 -0.9179
22459SOL    HW268594   8.141   7.960   7.856 -0.3027 -1.8478  0.9194
22460SOL     OW68595   8.070   7.762   7.241  0.2148  0.6429 -0.2822
22460SOL    HW168596   8.032   7.828   7.184  0.1584  1.0203  0.1895
22460SOL    HW268597   8.146   7.805   7.281 -0.0919  0.5895  0.3856
22461SOL     OW68598   8.180   8.166   8.727  0.0647 -0.0438  0.7034
22461SOL    HW168599   8.233   8.095   8.762  0.1299 -0.4380 -0.1892
22461SOL    HW268600   8.193   8.238   8.789 -0.5767 -1.0202  2.0097
22462SOL     OW68601   8.167   7.180   7.683 -0.1752 -0.2135 -0.3212
22462SOL    HW168602   8.111   7.153   7.610  0.4905 -0.7592 -0.6471
22462SOL    HW268603   8.163   7.107   7.745 -0.4935  0.1145  0.0494
22463SOL     OW68604   0.009   8.371   7.841  0.1084  0.3303  0.1770
22463SOL    HW168605   0.045   8.414   7.763  0.8607  0.6368  0.6769
22463SOL    HW268606  -0.086   8.378   7.831  0.2101  1.3955 -0.1530
22464SOL     OW68607   7.803   7.415   7.426  0.2858  0.0693  0.2795
22464SOL    HW168608   7.814   7.428   7.332 -0.6963 -1.6503 -0.1149
22464SOL    HW268609   7.729   7.470   7.450  2.7118  3.4236  0.8728
22465SOL     OW68610   8.157   7.507   7.375 -0.0067 -0.0172 -0.3488
22465SOL    HW168611   8.155   7.585   7.320  2.1540  0.8865  0.7589
22465SOL    HW268612   8.116   7.534   7.457  2.0585  0.4616  0.5756
22466SOL     OW68613   8.590   8.808   8.411  0.1569  0.0792  0.0480
22466SOL    HW168614   8.522   8.859   8.366  0.3770 -0.3323 -0.7782
22466SOL    HW268615   8.666   8.813   8.352  1.4076  1.8600  1.6819
22467SOL     OW68616   7.838   8.153   7.882  0.5422 -0.3308  0.2999
22467SOL    HW168617   7.805   8.071   7.919 -3.1748  1.6484  1.9435
22467SOL    HW268618   7.848   8.134   7.789 -0.6527 -2.5671  0.5519
22468SOL     OW68619   8.546   8.066   7.243  0.3495 -0.1162  0.2165
22468SOL    HW168620   8.515   8.082   7.332 -0.9988  1.0190 -0.4006
22468SOL    HW268621   8.603   8.141   7.224 -0.6794  0.5381 -0.4089
22469SOL     OW68622   7.991   7.461   8.615 -0.3860  0.3003 -0.0383
22469SOL    HW168623   7.958   7.371   8.617  1.1959 -0.3285 -0.1891
22469SOL    HW268624   8.038   7.467   8.531  1.2810  0.5785  0.8731
22470SOL     OW68625   8.623   8.001   7.678  0.4675  0.2751  0.0139
22470SOL    HW168626   8.647   7.911   7.655 -0.5665 -0.4059  1.4576
22470SOL    HW268627   8.586   7.995   7.767 -2.4606  1.6193 -0.9630
22471SOL     OW68628   0.006   7.401   7.770  0.1332  0.1682  0.3152
22471SOL    HW168629   0.081   7.452   7.800 -0.1686  1.9129 -1.7277
22471SOL    HW268630   0.044   7.317   7.744  0.6916 -0.6335  3.3259
22472SOL     OW68631   0.094   8.107   7.898  0.1482  0.1610  0.3067
22472SOL    HW168632   0.059   8.196   7.894  3.7629  1.9599  3.3855
22472SOL    HW268633   0.048   8.066   7.971  0.0690  0.2350  0.2995
22473SOL     OW68634   8.477   7.593   7.251  0.0253  0.1357  0.2055
22473SOL    HW168635   8.453   7.535   7.322  1.2207  0.2865  0.7516
22473SOL    HW268636   8.558   7.556   7.215  1.7846  2.2856  1.6496
22474SOL     OW68637   8.351   0.077   8.610  0.4232  0.1810  0.5106
22474SOL    HW168638   8.437   0.071   8.651  0.1030 -0.6644  1.0732
22474SOL    HW268639   8.370   0.098   8.518  1.1249  2.2619  1.0996
22475SOL     OW68640   8.162   8.773   8.762  0.4955 -0.5443 -0.2360
22475SOL    HW168641   8.237   8.749   8.817 -0.8982  0.1756  2.1439
22475SOL    HW268642   8.194   8.846   8.709  1.2468  0.5049  1.5484
22476SOL     OW68643   8.078   8.224   8.033  0.6286 -0.2113  0.0108
22476SOL    HW168644   8.005   8.201   7.976  0.7438 -0.6399  0.0373
22476SOL    HW268645   8.154   8.179   7.996  0.6198 -0.8601  0.7413
22477SOL     OW68646   8.006   8.567   8.747  0.3071  0.1116  0.4650
22477SOL    HW168647   8.046   8.651   8.769  0.5450 -0.0231  0.5534
22477SOL    HW268648   8.077   8.503   8.757  0.1594 -0.0840  0.2848
22478SOL     OW68649   8.402   7.809   0.163  0.4111 -0.2066  0.3942
22478SOL    HW168650   8.345   7.824   0.238 -0.3036  0.2900 -0.2368
22478SOL    HW268651   8.354   7.747   0.108 -0.1109  1.1212 -0.7260
22479SOL     OW68652   7.720   8.410   8.071  0.2440 -0.2946  0.6938
22479SOL    HW168653   7.737   8.356   8.148  3.1825  0.2361  0.5445
22479SOL    HW268654   7.742   8.353   7.997  0.3256  0.1142  0.3998
22480SOL     OW68655   8.336   7.839   8.218 -0.4123  0.4717  0.0617
22480SOL    HW168656   8.405   7.781   8.185 -0.0499  1.4270 -0.9161
22480SOL    HW268657   8.382   7.913   8.257 -0.8798  0.8935 -0.1735
22481SOL     OW68658   8.484   0.131   8.006 -0.1611  0.3764  0.3520
22481SOL    HW168659   8.398   0.090   8.016 -0.6099  0.7737 -1.5715
22481SOL    HW268660   8.479   0.210   8.060 -0.6665 -0.0658  0.9712
22482SOL     OW68661   7.807   8.355   8.668  0.4215 -0.3062  0.0790
22482SOL    HW168662   7.808   8.384   8.577  0.9883 -2.5196 -0.6821
22482SOL    HW268663   7.885   8.395   8.707  0.6181  0.0116 -0.6260
22483SOL     OW68664   8.228   7.840   0.405  0.2386  0.1887  0.2198
22483SOL    HW168665   8.147   7.891   0.399  0.2810  0.4437  1.5348
22483SOL    HW268666   8.292   7.900   0.443  0.4365 -0.6404  1.2588
22484SOL     OW68667   0.055   7.812   7.937  0.0643 -0.0556 -0.0998
22484SOL    HW168668   0.080   7.851   7.853  1.3116  0.9125  0.6933
22484SOL    HW268669   0.134   7.769   7.968 -1.3482 -3.9070 -1.1892
22485SOL     OW68670   7.712   7.457   8.544  0.2651  0.1512  0.4550
22485SOL    HW168671   7.695   7.487   8.455  0.0394 -0.4362  0.2937
22485SOL    HW268672   7.807   7.458   8.552  0.2888  0.1257  0.1773
22486SOL     OW68673   7.751   8.703   8.653  0.1973 -0.0117  0.1095
22486SOL    HW168674   7.828   8.657   8.687  0.9378  0.7707 -0.4686
22486SOL    HW268675   7.682   8.684   8.716  0.8669 -0.7167  0.6487
22487SOL     OW68676   7.903   8.090   8.787  0.9749  0.5532  0.6902
22487SOL    HW168677   7.852   8.115   8.710  0.6172 -0.9423  0.4113
22487SOL    HW268678   7.990   8.127   8.771  0.7195  0.8252 -0.1274
22488SOL     OW68679   7.420   7.812   7.853 -0.6484 -0.2850 -0.5430
22488SOL    HW168680   7.432   7.737   7.912 -0.0273 -0.2518 -0.6227
22488SOL    HW268681   7.423   7.888   7.911  0.0118 -0.2494 -0.6173
22489SOL     OW68682   0.211   8.038   8.539 -0.2481  0.8788 -0.2049
22489SOL    HW168683   0.233   8.121   8.497 -2.9057  1.6983 -0.1647
22489SOL    HW268684   0.229   8.053   8.632  0.8359  0.8281 -0.4029
22490SOL     OW68685   8.307   8.071   0.138  0.1774 -0.0976  0.2290
22490SOL    HW168686   8.341   7.981   0.135  1.4295  0.3292  0.8033
22490SOL    HW268687   8.386   8.126   0.140 -0.5574  0.9651  0.9601
22491SOL     OW68688   0.148   7.930   7.701  0.4340  0.1122 -0.0951
22491SOL    HW168689   0.175   7.986   7.628  2.2318 -1.3181 -0.6145
22491SOL    HW268690   0.115   7.991   7.767 -0.0645  1.5479 -1.5880
22492SOL     OW68691   7.561   8.324   8.796  0.1354  0.0493  0.3431
22492SOL    HW168692   7.650   8.338   8.764  0.0846 -0.6594 -0.1310
22492SOL    HW268693   7.569   8.255   8.862 -0.3479 -1.7822 -1.4051
22493SOL     OW68694   7.832   8.003   8.402 -0.1685  0.0804 -0.2028
22493SOL    HW168695   7.853   7.922   8.448 -1.1262 -0.9198 -1.4240
22493SOL    HW268696   7.916   8.035   8.369  0.2228 -0.4232  0.2888
22494SOL     OW68697   8.272   7.590   0.061  0.5919  0.4814  0.1937
22494SOL    HW168698   8.219   7.637  -0.004 -1.5210  0.0356  1.5062
22494SOL    HW268699   8.291   7.506   0.020  2.5032  1.5613 -1.2830
22495SOL     OW68700   7.327   8.490   7.551 -0.4639 -0.3123  0.1263
22495SOL    HW168701   7.266   8.465   7.482 -1.6247 -2.6051  1.8340
22495SOL    HW268702   7.287   8.565   7.594 -0.8674 -0.3003 -0.2734
22496SOL     OW68703   8.266   8.427   8.812 -0.5344  0.5382 -0.8357
22496SOL    HW168704   8.342   8.378   8.780 -0.8744 -0.3788 -0.2755
22496SOL    HW268705   8.301   8.512   8.838  0.0051  0.7484 -2.1682
22497SOL     OW68706   7.517   8.084   0.125 -0.4436 -0.3196  0.3395
22497SOL    HW168707   7.606   8.087   0.160 -0.3379 -2.6837  0.4529
22497SOL    HW268708   7.461   8.102   0.201 -0.0855 -0.2146  0.5783
22498SOL     OW68709   8.684   7.743   7.631 -0.1136 -0.1017  0.1799
22498SOL    HW168710   8.742   7.722   7.558 -0.4828  0.5269 -0.2975
22498SOL    HW268711   8.701   7.673   7.695  0.9105 -0.1224 -0.0954
22499SOL     OW68712   8.081   8.466   0.168 -0.4494  0.5061  0.4091
22499SOL    HW168713   8.072   8.376   0.198 -0.3962  0.1578 -0.5964
22499SOL    HW268714   8.152   8.463   0.104 -0.1305  1.3500  0.7072
22500SOL     OW68715   8.413   7.748   7.631  0.6418  0.0644  0.4322
22500SOL    HW168716   8.500   7.711   7.649  0.0820 -2.1139 -0.9812
22500SOL    HW268717   8.352   7.685   7.668 -0.3533  0.0723 -1.1146
22501SOL     OW68718   7.182   8.481   0.008  0.3426  0.0414 -0.3553
22501SOL    HW168719   7.185   8.385   0.014 -1.0635  0.0626  1.2667
22501SOL    HW268720   7.235   8.511   0.081 -0.8220  0.4731  0.3291
22502SOL     OW68721   8.697   8.342   0.002 -0.7642  0.5965 -0.5797
22502SOL    HW168722   8.696   8.435   0.026 -1.3078  0.1586  1.2907
22502SOL    HW268723   8.787   8.314   0.016 -0.8498  0.5921 -0.0119
22503SOL     OW68724   8.509   8.640   7.736  0.0695  0.2356 -0.5625
22503SOL    HW168725   8.475   8.706   7.676  0.4446  0.7069 -0.2642
22503SOL    HW268726   8.481   8.669   7.822  0.1411 -0.0539 -0.4414
22504SOL     OW68727   7.339   8.314   8.606 -0.2684 -0.3139  0.5863
22504SOL    HW168728   7.405   8.352   8.663  0.0838 -1.1134  0.7079
22504SOL    HW268729   7.312   8.233   8.649 -0.3349 -0.6890 -0.1484
22505SOL     OW68730   0.108   8.581   8.512 -0.1881  0.0360 -0.2296
22505SOL    HW168731   0.145   8.551   8.595  1.3444 -2.7363 -1.7472
22505SOL    HW268732   0.024   8.537   8.506 -1.0678  1.5462  0.5237
22506SOL     OW68733   8.101   8.653   0.370  0.3242  0.5442 -0.2465
22506SOL    HW168734   8.142   8.588   0.427  2.1727  2.1171  0.3013
22506SOL    HW268735   8.088   8.607   0.287  0.3306 -0.9107  0.5290
22507SOL     OW68736   7.559   7.965   8.351  0.2316  0.0917 -0.0175
22507SOL    HW168737   7.540   7.909   8.426  0.4222  0.6698  0.4686
22507SOL    HW268738   7.650   7.993   8.365  0.2001  0.3638 -0.3618
22508SOL     OW68739   8.481   8.555   8.470  0.0516  0.2992  0.1245
22508SOL    HW168740   8.389   8.558   8.497  0.4499 -0.8399  1.7655
22508SOL    HW268741   8.497   8.641   8.431 -1.9133  0.2256 -1.0261
22509SOL     OW68742   8.297   8.116   7.875 -0.1514 -0.6502  0.2784
22509SOL    HW168743   8.352   8.038   7.882 -0.0845 -0.5495  0.9382
22509SOL    HW268744   8.342   8.182   7.929 -1.4749 -0.8948  1.7641
22510SOL     OW68745   7.545   0.151   0.116  0.8706  0.2328  0.1290
22510SOL    HW168746   7.561   0.145   0.022  0.4562 -0.8485  0.1125
22510SOL    HW268747   7.615   0.208   0.148  0.3597  1.5372 -0.9819
22511SOL     OW68748   8.106   8.484   8.141 -0.3322 -0.3766  0.1886
22511SOL    HW168749   8.038   8.517   8.199  0.1772  0.9516  0.0461
22511SOL    HW268750   8.061   8.418   8.088 -1.3406 -0.0156  0.5711
22512SOL     OW68751   8.491   8.059   8.295 -0.1332  0.2002  0.5774
22512SOL    HW168752   8.460   8.148   8.312  1.1120  0.4112  1.9011
22512SOL    HW268753   8.578   8.070   8.258  0.2572 -0.4739  1.2672
22513SOL     OW68754   7.774   7.854   0.259  0.1097  0.3439  0.1744
22513SOL    HW168755   7.835   7.781   0.253  0.3105  0.0662  3.4612
22513SOL    HW268756   7.688   7.812   0.263  0.0575  0.4359  0.0288
22514SOL     OW68757   7.381   7.698   7.245 -0.7734  0.1342  0.0750
22514SOL    HW168758   7.291   7.729   7.233 -1.8337 -3.2411 -1.7091
22514SOL    HW268759   7.421   7.702   7.158  0.3037  0.1111  0.5433
22515SOL     OW68760   6.923   7.561   7.076  0.7191 -0.4089 -0.4367
22515SOL    HW168761   6.923   7.566   7.172  0.5757 -1.4057 -0.3733
22515SOL    HW268762   6.845   7.509   7.055  1.7081 -1.7264 -0.9882
22516SOL     OW68763   8.787   8.682   7.489  0.3665  0.0165 -0.1350
22516SOL    HW168764   8.799   8.714   7.578  2.5311  0.1877 -0.4248
22516SOL    HW268765   8.706   8.724   7.459 -0.1594  0.3004  1.5734
22517SOL     OW68766   7.964   0.038   0.210 -0.1555  0.1616 -0.0516
22517SOL    HW168767   7.948  -0.050   0.244 -2.5824  0.7442  0.4987
22517SOL    HW268768   8.008   0.084   0.282 -1.4514  0.1709  0.7634
22518SOL     OW68769   8.512   7.948   7.950  0.2444 -0.3609 -0.6018
22518SOL    HW168770   8.548   7.863   7.975 -0.0600 -0.4395 -0.4124
22518SOL    HW268771   8.555   8.010   8.009 -1.7756 -0.7540  1.4261
22519SOL     OW68772   7.889   7.822   7.961 -0.2119  0.2179  0.0363
22519SOL    HW168773   7.804   7.835   8.004 -0.1487 -0.5138  0.3937
22519SOL    HW268774   7.953   7.838   8.030 -0.0535  0.8601 -0.2585
22520SOL     OW68775   8.312   8.279   7.632  0.0804 -0.0149 -0.7542
22520SOL    HW168776   8.305   8.247   7.722 -0.2239  1.6472 -0.1530
22520SOL    HW268777   8.259   8.359   7.631 -0.4713 -0.3581 -2.5962
22521SOL     OW68778   8.200   8.274   8.471 -0.3296 -0.0189  0.1896
22521SOL    HW168779   8.295   8.282   8.480 -0.3796  0.6469  0.1998
22521SOL    HW268780   8.169   8.253   8.559 -0.2817  0.8098  0.4181
22522SOL     OW68781   8.610   8.386   7.728  0.1726  0.1168  0.1407
22522SOL    HW168782   8.575   8.473   7.710 -1.4556 -0.3939  0.6900
22522SOL    HW268783   8.590   8.336   7.649 -0.9103 -0.3323  0.6822
22523SOL     OW68784   7.648   8.645   8.406  0.5328  0.1861 -0.1930
22523SOL    HW168785   7.603   8.561   8.411 -1.3709  1.1206 -0.8146
22523SOL    HW268786   7.679   8.661   8.496  0.5852 -0.9741  0.0114
22524SOL     OW68787   8.020   7.636   7.568  0.1234 -0.0303 -0.7430
22524SOL    HW168788   7.983   7.720   7.540 -1.2968 -1.6425 -4.3245
22524SOL    HW268789   7.949   7.594   7.616  0.3571  0.2212 -0.1632
22525SOL     OW68790   7.831   8.630   0.165  0.0424  0.1670  0.2158
22525SOL    HW168791   7.780   8.553   0.192  1.8142 -0.7764  1.1116
22525SOL    HW268792   7.908   8.593   0.122 -0.5040  1.5673 -2.1161
22526SOL     OW68793   8.849   7.840   8.829  0.6907 -0.3307 -0.2122
22526SOL    HW168794   8.777   7.895   8.861  0.5128 -0.8385  0.2826
22526SOL    HW268795   8.810   7.753   8.822  1.2379 -0.5881 -0.0380
22527SOL     OW68796   8.468   8.246   8.731  0.2529  0.5817  0.3071
22527SOL    HW168797   8.548   8.290   8.757  0.8616  0.8640 -1.8092
22527SOL    HW268798   8.498   8.166   8.687 -0.6340  0.4944 -0.1669
22528SOL     OW68799   8.184   8.475   7.767 -0.8761 -0.6003 -0.2357
22528SOL    HW168800   8.207   8.440   7.853 -2.1959 -1.6520 -0.2808
22528SOL    HW268801   8.112   8.535   7.783  0.5213  1.1732 -0.3273
22529SOL     OW68802   8.797   6.760   7.607 -0.2294  0.5564  0.5158
22529SOL    HW168803   8.776   6.824   7.539 -0.4992  0.3883  0.4385
22529SOL    HW268804   8.879   6.720   7.579 -0.4573  0.3269  0.1711
22530SOL     OW68805   7.764   8.250   8.288 -0.2116 -0.5966  0.0045
22530SOL    HW168806   7.770   8.155   8.287  0.9381 -0.5593  0.9990
22530SOL    HW268807   7.848   8.279   8.324  0.1732  0.8829 -1.9637
22531NA      NA68808   0.312   3.261   5.213 -0.2107 -0.3108 -0.0665
22532NA      NA68809   0.067   2.423   4.316 -0.1677  0.0561 -0.4458
22533NA      NA68810   0.873   2.613   6.094 -0.3111  0.1103 -0.1306
22534NA      NA68811   1.934   6.994   7.581 -0.1534 -0.1079  0.1707
22535NA      NA68812   0.766   7.211   8.731  0.1317 -0.1856 -0.1593
22536NA      NA68813   3.814   0.459   5.811 -0.0022 -0.1614  0.1765
22537NA      NA68814   3.603   0.560   6.509 -0.0423 -0.4380  0.1710
22538NA      NA68815   3.044   2.247   3.036  0.1228 -0.4265  0.4972
22539NA      NA68816   3.863   4.158   6.908 -0.1778 -0.5527 -1.0410
22540NA      NA68817   3.394   4.360   7.760 -0.0394 -0.0192 -0.3973
22541NA      NA68818   2.351   5.191   0.614 -0.3997  0.0769 -0.2477
22542NA      NA68819   2.409   7.405   0.889  0.3232  0.2104  0.0873
22543NA      NA68820   3.200   7.087   4.297  0.0167 -0.0980  0.2460
22544NA      NA68821   4.209   5.124   5.615  0.2262 -0.0368  0.4926
22545NA      NA68822   3.099   7.573   6.422 -0.1197  0.6558 -0.1248
22546NA      NA68823   5.344   1.746   2.641 -0.1907  0.2984  0.4680
22547NA      NA68824   3.812   1.314   4.227  0.0102 -0.0519  0.0020
22548NA      NA68825   3.922   3.243   7.358 -0.0820 -0.1436 -0.4523
22549NA      NA68826   5.163   3.987   0.533 -0.4522 -0.0271  0.0520
22550NA      NA68827   4.133   6.602   5.226 -0.1169  0.1724 -0.0184
22551NA      NA68828   4.318   5.994   4.829 -0.2306 -0.2429 -0.1141
22552NA      NA68829   7.740   1.234   7.414 -0.1049  0.0619 -0.5031
22553NA      NA68830   6.308   3.365   3.609 -0.0303 -0.4906 -0.1646
22554NA      NA68831   7.298   3.326   2.769  0.9148 -0.3957 -0.0194
22555NA      NA68832   6.736   2.797   4.086 -0.0097 -0.1071  0.1937
22556NA      NA68833   5.517   3.551   5.033  0.0953 -0.7196  0.2115
22557NA      NA68834   5.907   3.317   8.225  0.1152  0.3200  0.1927
22558NA      NA68835   6.674   4.650   0.626  0.3911  0.2977 -0.1403
22559NA      NA68836   5.371   5.816   3.567  0.1745 -0.4057  0.4961
22560NA      NA68837   5.833   5.744   2.452 -0.1240 -0.1352 -0.3806
22561NA      NA68838   6.775   6.736   8.123  0.1961 -0.0105  0.1424
22562NA      NA68839   5.470   7.780   3.419 -0.4304  0.5656  0.6685
22563NA      NA68840   7.261   1.694   5.957 -0.0363 -0.0567  0.3405
22564NA      NA68841   8.192   0.517   8.689 -0.0848 -0.0901  0.4346
22565NA      NA68842   8.309   3.926   3.868  0.3444 -0.6761  0.3620
22566NA      NA68843   7.443   3.954   4.974  0.2028 -0.1914  0.3390
22567NA      NA68844   8.728   5.453   3.431  0.1343 -0.1831 -0.1772
22568NA      NA68845   8.208   7.136   6.634  0.0700  0.0988 -0.1798
22569NA      NA68846   7.838   8.179   5.630  0.1840  0.1563 -0.5570
22570NA      NA68847   8.721   7.912   5.738 -0.2767  0.0944 -0.5282
   8.85109   8.85109   8.85109
